Protein in INSANE! Membrane UpperLeaflet>POPC=1.0 LowerLeaflet>POPC=1.0
248675
    1AU     AUC    1  38.181   8.355   7.535
    1AU     AUC    2  38.433   8.360   7.369
    1AU     AUC    3  38.422   8.347   7.699
    1AU     AUC    4  37.911   8.363   7.380
    1AU     AUC    5  37.937   8.392   7.705
    1AU     AUC    6  38.020   8.608   7.513
    1AU     AUC    7  38.367   8.620   7.516
    1AU     AUC    8  38.002   8.101   7.543
    1AU     AUC    9  38.333   8.079   7.545
    1AU     AUC   10  38.175   8.195   7.798
    1AU     AUC   11  38.194   8.535   7.779
    1AU     AUC   12  38.168   8.182   7.287
    1AU     AUC   13  38.188   8.488   7.271
    1AU     AUC   14  38.736   8.351   7.204
    1AU     AUC   15  38.744   8.331   7.545
    1AU     AUC   16  38.702   8.318   7.899
    1AU     AUC   17  37.609   8.337   7.228
    1AU     AUC   18  37.608   8.396   7.556
    1AU     AUC   19  37.637   8.435   7.888
    1AU     AUC   20  37.855   8.921   7.474
    1AU     AUC   21  38.215   8.895   7.457
    1AU     AUC   22  38.581   8.883   7.487
    1AU     AUC   23  37.798   7.812   7.548
    1AU     AUC   24  38.149   7.788   7.529
    1AU     AUC   25  38.505   7.777   7.546
    1AU     AUC   26  38.134   8.029   8.101
    1AU     AUC   27  38.171   8.371   8.101
    1AU     AUC   28  38.228   8.735   8.062
    1AU     AUC   29  38.199   7.992   6.997
    1AU     AUC   30  38.147   8.333   6.973
    1AU     AUC   31  38.144   8.656   6.957
    1AU     AUC   32  38.416   8.133   8.012
    1AU     AUC   33  38.472   8.509   7.987
    1AU     AUC   34  38.471   8.195   7.072
    1AU     AUC   35  38.436   8.507   7.079
    1AU     AUC   36  37.882   8.253   8.000
    1AU     AUC   37  37.929   8.603   7.971
    1AU     AUC   38  37.893   8.152   7.103
    1AU     AUC   39  37.847   8.480   7.083
    1AU     AUC   40  38.674   8.623   7.346
    1AU     AUC   41  38.640   8.620   7.705
    1AU     AUC   42  37.715   8.635   7.383
    1AU     AUC   43  37.760   8.701   7.713
    1AU     AUC   44  38.637   8.072   7.407
    1AU     AUC   45  38.585   8.026   7.739
    1AU     AUC   46  37.716   8.049   7.373
    1AU     AUC   47  37.742   8.123   7.716
    1AU     AUC   48  38.080   8.853   7.782
    1AU     AUC   49  38.419   8.808   7.793
    1AU     AUC   50  37.967   7.920   7.817
    1AU     AUC   51  38.285   7.867   7.809
    1AU     AUC   52  37.990   8.786   7.215
    1AU     AUC   53  38.355   8.802   7.226
    1AU     AUC   54  38.021   7.888   7.258
    1AU     AUC   55  38.381   7.933   7.274
    1AU    AUSL   56  38.680   8.223   8.316
    1AU    AUSL   57  38.430   7.850   8.222
    1AU     AUL   58  38.737   7.851   8.389
    1AU    AUSL   59  38.265   8.165   8.460
    1AU    AUSL   60  38.027   8.574   8.451
    1AU     AUL   61  38.263   8.449   8.710
    1AU    AUSL   62  38.364   8.522   8.204
    1AU    AUSL   63  38.815   8.581   8.126
    1AU     AUL   64  38.633   8.546   8.435
    1AU    AUSL   65  38.588   8.383   6.840
    1AU    AUSL   66  38.449   8.779   6.981
    1AU     AUL   67  38.663   8.711   6.681
    1AU    AUSL   68  38.400   8.061   6.612
    1AU    AUSL   69  38.907   8.131   6.982
    1AU     AUL   70  38.775   8.205   6.665
    1AU    AUSL   71  38.232   8.565   6.670
    1AU    AUSL   72  38.054   8.179   6.829
    1AU     AUL   73  38.185   8.258   6.524
    1AU    AUSL   74  37.643   8.536   8.243
    1AU    AUSL   75  38.006   8.845   8.111
    1AU     AUL   76  37.843   8.813   8.412
    1AU    AUSL   77  37.944   8.223   8.191
    1AU    AUSL   78  37.495   8.146   8.105
    1AU     AUL   79  37.552   8.235   8.341
    1AU    AUSL   80  37.618   8.161   6.795
    1AU    AUSL   81  37.867   7.811   6.947
    1AU     AUL   82  37.891   7.897   6.641
    1AU    AUSL   83  37.804   8.529   6.675
    1AU    AUSL   84  37.524   8.510   7.050
    1AU     AUL   85  37.407   8.391   6.776
    1AU    AUSL   86  38.972   8.818   7.476
    1AU    AUSL   87  38.847   8.608   7.096
    1AU     AUL   88  39.142   8.813   7.128
    1AU    AUSL   89  39.137   8.422   7.367
    1AU    AUSL   90  39.086   8.124   7.768
    1AU     AUL   91  39.348   8.208   7.571
    1AU    AUSL   92  38.859   8.477   7.718
    1AU    AUSL   93  38.817   8.921   7.853
    1AU     AUL   94  39.065   8.661   7.878
    1AU    AUSL   95  37.606   8.998   7.522
    1AU    AUSL   96  37.643   8.750   7.878
    1AU     AUL   97  37.334   8.995   7.745
    1AU    AUSL   98  37.405   8.619   7.444
    1AU    AUSL   99  37.558   8.935   7.106
    1AU     AUL  100  37.322   8.860   7.263
    1AU    AUSL  101  37.278   8.541   7.888
    1AU    AUSL  102  37.245   8.235   7.349
    1AU     AUL  103  37.123   8.552   7.590
    1AU    AUSL  104  38.864   7.775   7.615
    1AU    AUSL  105  38.690   8.058   7.925
    1AU     AUL  106  38.997   7.964   8.001
    1AU    AUSL  107  38.822   8.145   7.397
    1AU    AUSL  108  38.812   7.743   7.188
    1AU     AUL  109  39.056   7.953   7.250
    1AU    AUSL  110  37.398   7.856   7.553
    1AU    AUSL  111  37.609   8.066   7.205
    1AU     AUL  112  37.259   7.959   7.213
    1AU    AUSL  113  37.515   8.257   7.694
    1AU    AUSL  114  37.705   7.873   7.849
    1AU     AUL  115  37.324   8.026   7.848
    1AU    AUSL  116  38.247   9.181   7.966
    1AU    AUSL  117  37.792   9.160   7.878
    1AU     AUL  118  38.014   9.205   8.194
    1AU    AUSL  119  38.079   9.036   7.591
    1AU    AUSL  120  38.330   9.169   7.247
    1AU     AUL  121  38.099   9.376   7.554
    1AU    AUSL  122  38.517   9.112   7.623
    1AU    AUSL  123  38.511   8.911   8.153
    1AU     AUL  124  38.630   9.201   7.941
    1AU    AUSL  125  38.105   7.715   7.970
    1AU    AUSL  126  38.529   7.656   7.849
    1AU     AUL  127  38.290   7.594   8.223
    1AU    AUSL  128  37.797   7.493   7.699
    1AU    AUSL  129  37.825   7.830   8.274
    1AU     AUL  130  37.833   7.532   8.050
    1AU    AUSL  131  38.229   7.418   7.667
    1AU    AUSL  132  38.022   7.663   7.362
    1AU     AUL  133  37.905   7.318   7.487
    1AU    AUSL  134  38.157   9.054   6.843
    1AU    AUSL  135  38.729   9.032   7.199
    1AU     AUL  136  38.473   9.142   6.936
    1AU    AUSL  137  37.908   9.148   7.210
    1AU    AUSL  138  37.931   8.737   7.014
    1AU     AUL  139  37.838   9.043   6.856
    1AU    AUSL  140  38.247   7.611   6.981
    1AU    AUSL  141  37.614   7.625   7.258
    1AU     AUL  142  37.910   7.477   7.043
    1AU    AUSL  143  38.454   7.635   7.381
    1AU    AUSL  144  38.477   7.968   7.018
    1AU     AUL  145  38.571   7.595   7.050
    1AU       S  146  38.702   7.400   8.227
    1AU     LIG  147  38.749   7.166   8.352
    1AU     LIG  148  38.871   7.006   8.479
    1AU     LIG  149  39.029   6.829   8.590
    1AU       S  150  38.736   8.190   8.719
    1AU     LIG  151  38.899   8.248   8.921
    1AU     LIG  152  38.989   8.304   9.146
    1AU     LIG  153  39.095   8.271   9.383
    1AU       S  154  38.414   7.997   8.725
    1AU     LIG  155  38.470   7.903   9.005
    1AU     LIG  156  38.636   7.919   9.203
    1AU     LIG  157  38.770   7.874   9.419
    1AU       S  158  37.789   8.487   8.757
    1AU     LIG  159  37.752   8.511   9.059
    1AU     LIG  160  37.634   8.496   9.261
    1AU     LIG  161  37.486   8.473   9.479
    1AU       S  162  38.314   8.921   8.566
    1AU     LIG  163  38.431   9.058   8.771
    1AU     LIG  164  38.644   8.978   8.933
    1AU     LIG  165  38.867   8.852   8.947
    1AU       S  166  39.006   8.813   8.334
    1AU     LIG  167  39.189   8.853   8.555
    1AU     LIG  168  39.329   9.010   8.669
    1AU     LIG  169  39.505   9.186   8.744
    1AU       S  170  38.607   8.442   6.306
    1AU     LIG  171  38.822   8.497   6.093
    1AU     LIG  172  38.956   8.331   5.955
    1AU     LIG  173  39.016   8.140   5.795
    1AU       S  174  38.822   9.142   6.652
    1AU     LIG  175  38.868   9.335   6.462
    1AU     LIG  176  39.031   9.425   6.288
    1AU     LIG  177  39.196   9.516   6.123
    1AU       S  178  39.082   7.853   6.768
    1AU     LIG  179  39.244   7.766   6.527
    1AU     LIG  180  39.258   7.547   6.388
    1AU     LIG  181  39.274   7.292   6.348
    1AU       S  182  38.528   8.147   6.240
    1AU     LIG  183  38.550   8.023   6.011
    1AU     LIG  184  38.537   7.950   5.771
    1AU     LIG  185  38.608   7.930   5.521
    1AU       S  186  37.794   8.207   6.303
    1AU     LIG  187  37.849   8.174   6.024
    1AU     LIG  188  37.855   8.120   5.795
    1AU     LIG  189  37.779   8.079   5.540
    1AU       S  190  38.364   8.588   6.264
    1AU     LIG  191  38.265   8.522   5.973
    1AU     LIG  192  38.407   8.447   5.780
    1AU     LIG  193  38.600   8.439   5.607
    1AU       S  194  37.513   8.575   8.643
    1AU     LIG  195  37.302   8.550   8.819
    1AU     LIG  196  37.248   8.334   8.977
    1AU     LIG  197  37.178   8.202   9.166
    1AU       S  198  37.544   9.133   8.268
    1AU     LIG  199  37.458   9.288   8.501
    1AU     LIG  200  37.317   9.299   8.694
    1AU     LIG  201  37.148   9.388   8.877
    1AU       S  202  37.267   7.867   8.284
    1AU     LIG  203  37.021   7.798   8.381
    1AU     LIG  204  36.876   7.606   8.457
    1AU     LIG  205  36.749   7.424   8.575
    1AU       S  206  37.838   8.195   8.684
    1AU     LIG  207  37.761   8.019   8.887
    1AU     LIG  208  37.648   7.999   9.105
    1AU     LIG  209  37.603   7.985   9.361
    1AU       S  210  37.532   8.119   6.418
    1AU     LIG  211  37.353   8.049   6.208
    1AU     LIG  212  37.342   8.120   5.957
    1AU     LIG  213  37.330   8.230   5.737
    1AU       S  214  37.566   7.571   6.745
    1AU     LIG  215  37.492   7.384   6.540
    1AU     LIG  216  37.334   7.342   6.354
    1AU     LIG  217  37.150   7.293   6.184
    1AU       S  218  37.196   8.797   6.798
    1AU     LIG  219  36.989   8.966   6.744
    1AU     LIG  220  36.937   9.165   6.588
    1AU     LIG  221  36.913   9.288   6.367
    1AU       S  222  37.694   8.475   6.393
    1AU     LIG  223  37.527   8.576   6.139
    1AU     LIG  224  37.610   8.613   5.913
    1AU     LIG  225  37.718   8.593   5.679
    1AU       S  226  39.053   8.956   6.708
    1AU     LIG  227  39.268   9.002   6.537
    1AU     LIG  228  39.425   9.114   6.389
    1AU     LIG  229  39.606   9.233   6.245
    1AU       S  230  39.305   8.932   7.556
    1AU     LIG  231  39.518   9.136   7.540
    1AU     LIG  232  39.762   9.180   7.511
    1AU     LIG  233  40.015   9.243   7.532
    1AU       S  234  39.481   8.633   7.388
    1AU     LIG  235  39.750   8.704   7.293
    1AU     LIG  236  39.990   8.770   7.306
    1AU     LIG  237  40.212   8.884   7.226
    1AU       S  238  39.345   7.754   7.790
    1AU     LIG  239  39.580   7.652   7.920
    1AU     LIG  240  39.833   7.647   7.859
    1AU     LIG  241  40.082   7.615   7.780
    1AU       S  242  39.042   9.061   8.127
    1AU     LIG  243  39.237   9.238   8.210
    1AU     LIG  244  39.282   9.437   8.357
    1AU     LIG  245  39.301   9.616   8.540
    1AU       S  246  39.452   8.665   7.663
    1AU     LIG  247  39.690   8.736   7.814
    1AU     LIG  248  39.927   8.803   7.811
    1AU     LIG  249  40.157   8.893   7.878
    1AU       S  250  37.378   8.910   8.203
    1AU     LIG  251  37.139   8.902   8.380
    1AU     LIG  252  36.953   9.041   8.444
    1AU     LIG  253  36.777   9.160   8.594
    1AU       S  254  37.545   9.334   7.463
    1AU     LIG  255  37.385   9.542   7.335
    1AU     LIG  256  37.139   9.522   7.239
    1AU     LIG  257  36.951   9.365   7.123
    1AU       S  258  36.981   8.553   7.139
    1AU     LIG  259  36.743   8.558   7.071
    1AU     LIG  260  36.488   8.634   7.141
    1AU     LIG  261  36.343   8.847   7.163
    1AU       S  262  37.411   9.207   6.929
    1AU     LIG  263  37.338   9.415   6.787
    1AU     LIG  264  37.196   9.594   6.702
    1AU     LIG  265  37.065   9.749   6.537
    1AU       S  266  36.892   8.149   7.449
    1AU     LIG  267  36.615   8.139   7.337
    1AU     LIG  268  36.372   8.121   7.332
    1AU     LIG  269  36.138   8.000   7.284
    1AU       S  270  37.083   8.468   8.097
    1AU     LIG  271  36.770   8.572   8.182
    1AU     LIG  272  36.653   8.784   8.094
    1AU     LIG  273  36.473   8.931   7.968
    1AU       S  274  39.075   7.584   7.606
    1AU     LIG  275  39.209   7.282   7.622
    1AU     LIG  276  39.437   7.216   7.697
    1AU     LIG  277  39.708   7.202   7.655
    1AU       S  278  38.919   7.523   8.066
    1AU     LIG  279  39.166   7.387   8.105
    1AU     LIG  280  39.296   7.299   8.287
    1AU     LIG  281  39.343   7.229   8.537
    1AU       S  282  39.332   7.734   7.519
    1AU     LIG  283  39.555   7.612   7.383
    1AU     LIG  284  39.796   7.613   7.343
    1AU     LIG  285  40.037   7.541   7.280
    1AU       S  286  39.024   7.591   6.925
    1AU     LIG  287  39.089   7.331   6.822
    1AU     LIG  288  38.962   7.108   6.774
    1AU     LIG  289  38.921   6.889   6.659
    1AU       S  290  37.389   7.766   6.817
    1AU     LIG  291  37.156   7.776   6.620
    1AU     LIG  292  36.979   7.659   6.527
    1AU     LIG  293  36.773   7.501   6.465
    1AU       S  294  36.974   7.858   7.583
    1AU     LIG  295  36.757   7.692   7.588
    1AU     LIG  296  36.530   7.644   7.482
    1AU     LIG  297  36.297   7.540   7.441
    1AU       S  298  37.386   7.637   8.082
    1AU     LIG  299  37.210   7.429   8.068
    1AU     LIG  300  37.090   7.243   8.174
    1AU     LIG  301  36.957   7.057   8.287
    1AU       S  302  36.916   8.153   7.713
    1AU     LIG  303  36.682   8.125   7.888
    1AU     LIG  304  36.443   8.033   7.835
    1AU     LIG  305  36.234   7.898   7.809
    1AU       S  306  37.585   9.352   7.989
    1AU     LIG  307  37.350   9.541   8.062
    1AU     LIG  308  37.125   9.504   8.206
    1AU     LIG  309  36.993   9.581   8.412
    1AU       S  310  38.328   9.538   8.053
    1AU     LIG  311  38.439   9.725   8.255
    1AU     LIG  312  38.327   9.915   8.380
    1AU     LIG  313  38.182  10.116   8.444
    1AU       S  314  38.090   9.673   7.925
    1AU     LIG  315  38.001   9.898   7.968
    1AU     LIG  316  37.975  10.157   7.984
    1AU     LIG  317  37.984  10.408   8.012
    1AU       S  318  38.255   9.516   7.131
    1AU     LIG  319  38.321   9.785   7.146
    1AU     LIG  320  38.355  10.017   7.130
    1AU     LIG  321  38.418  10.260   7.042
    1AU       S  322  38.765   9.028   8.364
    1AU     LIG  323  38.840   9.247   8.543
    1AU     LIG  324  38.941   9.328   8.736
    1AU     LIG  325  39.067   9.346   8.967
    1AU       S  326  38.467   9.589   7.734
    1AU     LIG  327  38.499   9.862   7.718
    1AU     LIG  328  38.474  10.072   7.875
    1AU     LIG  329  38.486  10.256   8.040
    1AU       S  330  38.188   7.179   8.062
    1AU     LIG  331  38.307   6.973   8.213
    1AU     LIG  332  38.295   6.766   8.334
    1AU     LIG  333  38.276   6.529   8.434
    1AU       S  334  38.671   7.412   7.902
    1AU     LIG  335  38.775   7.108   7.827
    1AU     LIG  336  38.935   6.974   7.925
    1AU     LIG  337  39.147   6.874   8.057
    1AU       S  338  37.936   7.093   7.896
    1AU     LIG  339  37.887   6.826   7.918
    1AU     LIG  340  37.909   6.608   8.033
    1AU     LIG  341  37.899   6.370   8.129
    1AU       S  342  37.530   7.719   8.386
    1AU     LIG  343  37.403   7.501   8.570
    1AU     LIG  344  37.266   7.327   8.640
    1AU     LIG  345  37.129   7.133   8.762
    1AU       S  346  38.254   7.189   7.221
    1AU     LIG  347  38.193   6.861   7.210
    1AU     LIG  348  38.178   6.665   7.090
    1AU     LIG  349  38.178   6.398   7.027
    1AU       S  350  38.268   7.142   7.758
    1AU     LIG  351  38.368   6.840   7.712
    1AU     LIG  352  38.381   6.643   7.838
    1AU     LIG  353  38.375   6.397   7.941
    1AU       S  354  38.107   9.436   6.835
    1AU     LIG  355  38.113   9.665   6.681
    1AU     LIG  356  38.236   9.881   6.641
    1AU     LIG  357  38.302  10.115   6.564
    1AU       S  358  38.946   9.212   6.958
    1AU     LIG  359  39.144   9.416   6.901
    1AU     LIG  360  39.303   9.490   6.721
    1AU     LIG  361  39.451   9.612   6.558
    1AU       S  362  37.904   9.457   7.112
    1AU     LIG  363  37.792   9.735   7.085
    1AU     LIG  364  37.849   9.961   6.998
    1AU     LIG  365  37.923  10.186   6.907
    1AU       S  366  37.466   8.867   6.654
    1AU     LIG  367  37.406   9.002   6.415
    1AU     LIG  368  37.416   9.232   6.319
    1AU     LIG  369  37.389   9.471   6.239
    1AU       S  370  37.411   7.535   7.029
    1AU     LIG  371  37.154   7.362   6.950
    1AU     LIG  372  37.067   7.220   6.784
    1AU     LIG  373  36.981   7.047   6.606
    1AU       S  374  38.324   7.228   6.941
    1AU     LIG  375  38.441   7.049   6.769
    1AU     LIG  376  38.414   6.839   6.646
    1AU     LIG  377  38.338   6.601   6.582
    1AU       S  378  38.517   7.229   7.324
    1AU     LIG  379  38.681   6.988   7.293
    1AU     LIG  380  38.688   6.782   7.128
    1AU     LIG  381  38.673   6.565   6.984
    1AU       S  382  38.778   7.738   6.673
    1AU     LIG  383  38.764   7.560   6.470
    1AU     LIG  384  38.754   7.332   6.376
    1AU     LIG  385  38.805   7.129   6.221
    2AU     AUC  386  29.237  31.104   7.535
    2AU     AUC  387  29.489  31.109   7.369
    2AU     AUC  388  29.478  31.096   7.699
    2AU     AUC  389  28.967  31.112   7.380
    2AU     AUC  390  28.993  31.141   7.705
    2AU     AUC  391  29.076  31.357   7.513
    2AU     AUC  392  29.423  31.369   7.516
    2AU     AUC  393  29.058  30.850   7.543
    2AU     AUC  394  29.389  30.828   7.545
    2AU     AUC  395  29.231  30.944   7.798
    2AU     AUC  396  29.250  31.284   7.779
    2AU     AUC  397  29.224  30.931   7.287
    2AU     AUC  398  29.244  31.237   7.271
    2AU     AUC  399  29.792  31.100   7.204
    2AU     AUC  400  29.800  31.080   7.545
    2AU     AUC  401  29.758  31.067   7.899
    2AU     AUC  402  28.665  31.086   7.228
    2AU     AUC  403  28.664  31.145   7.556
    2AU     AUC  404  28.693  31.184   7.888
    2AU     AUC  405  28.911  31.670   7.474
    2AU     AUC  406  29.271  31.644   7.457
    2AU     AUC  407  29.637  31.632   7.487
    2AU     AUC  408  28.854  30.561   7.548
    2AU     AUC  409  29.205  30.537   7.529
    2AU     AUC  410  29.561  30.526   7.546
    2AU     AUC  411  29.190  30.778   8.101
    2AU     AUC  412  29.227  31.120   8.101
    2AU     AUC  413  29.284  31.484   8.062
    2AU     AUC  414  29.255  30.741   6.997
    2AU     AUC  415  29.203  31.082   6.973
    2AU     AUC  416  29.200  31.405   6.957
    2AU     AUC  417  29.472  30.882   8.012
    2AU     AUC  418  29.528  31.258   7.987
    2AU     AUC  419  29.527  30.944   7.072
    2AU     AUC  420  29.492  31.256   7.079
    2AU     AUC  421  28.938  31.002   8.000
    2AU     AUC  422  28.985  31.352   7.971
    2AU     AUC  423  28.949  30.901   7.103
    2AU     AUC  424  28.903  31.229   7.083
    2AU     AUC  425  29.730  31.372   7.346
    2AU     AUC  426  29.696  31.369   7.705
    2AU     AUC  427  28.771  31.384   7.383
    2AU     AUC  428  28.816  31.450   7.713
    2AU     AUC  429  29.693  30.821   7.407
    2AU     AUC  430  29.641  30.775   7.739
    2AU     AUC  431  28.772  30.798   7.373
    2AU     AUC  432  28.798  30.872   7.716
    2AU     AUC  433  29.136  31.602   7.782
    2AU     AUC  434  29.475  31.557   7.793
    2AU     AUC  435  29.023  30.669   7.817
    2AU     AUC  436  29.341  30.616   7.809
    2AU     AUC  437  29.046  31.535   7.215
    2AU     AUC  438  29.411  31.551   7.226
    2AU     AUC  439  29.077  30.637   7.258
    2AU     AUC  440  29.437  30.682   7.274
    2AU    AUSL  441  29.736  30.972   8.316
    2AU    AUSL  442  29.486  30.599   8.222
    2AU     AUL  443  29.793  30.600   8.389
    2AU    AUSL  444  29.321  30.914   8.460
    2AU    AUSL  445  29.083  31.323   8.451
    2AU     AUL  446  29.319  31.198   8.710
    2AU    AUSL  447  29.420  31.271   8.204
    2AU    AUSL  448  29.871  31.330   8.126
    2AU     AUL  449  29.689  31.295   8.435
    2AU    AUSL  450  29.644  31.132   6.840
    2AU    AUSL  451  29.505  31.528   6.981
    2AU     AUL  452  29.719  31.460   6.681
    2AU    AUSL  453  29.456  30.810   6.612
    2AU    AUSL  454  29.963  30.880   6.982
    2AU     AUL  455  29.831  30.954   6.665
    2AU    AUSL  456  29.288  31.314   6.670
    2AU    AUSL  457  29.110  30.928   6.829
    2AU     AUL  458  29.241  31.007   6.524
    2AU    AUSL  459  28.699  31.285   8.243
    2AU    AUSL  460  29.062  31.594   8.111
    2AU     AUL  461  28.899  31.562   8.412
    2AU    AUSL  462  29.000  30.972   8.191
    2AU    AUSL  463  28.551  30.895   8.105
    2AU     AUL  464  28.608  30.984   8.341
    2AU    AUSL  465  28.674  30.910   6.795
    2AU    AUSL  466  28.923  30.560   6.947
    2AU     AUL  467  28.947  30.646   6.641
    2AU    AUSL  468  28.860  31.278   6.675
    2AU    AUSL  469  28.580  31.259   7.050
    2AU     AUL  470  28.463  31.140   6.776
    2AU    AUSL  471  30.028  31.567   7.476
    2AU    AUSL  472  29.903  31.357   7.096
    2AU     AUL  473  30.198  31.562   7.128
    2AU    AUSL  474  30.193  31.171   7.367
    2AU    AUSL  475  30.142  30.873   7.768
    2AU     AUL  476  30.404  30.957   7.571
    2AU    AUSL  477  29.915  31.226   7.718
    2AU    AUSL  478  29.873  31.670   7.853
    2AU     AUL  479  30.121  31.410   7.878
    2AU    AUSL  480  28.662  31.747   7.522
    2AU    AUSL  481  28.699  31.499   7.878
    2AU     AUL  482  28.390  31.744   7.745
    2AU    AUSL  483  28.461  31.368   7.444
    2AU    AUSL  484  28.614  31.684   7.106
    2AU     AUL  485  28.378  31.609   7.263
    2AU    AUSL  486  28.334  31.290   7.888
    2AU    AUSL  487  28.301  30.984   7.349
    2AU     AUL  488  28.179  31.301   7.590
    2AU    AUSL  489  29.920  30.524   7.615
    2AU    AUSL  490  29.746  30.807   7.925
    2AU     AUL  491  30.053  30.713   8.001
    2AU    AUSL  492  29.878  30.894   7.397
    2AU    AUSL  493  29.868  30.492   7.188
    2AU     AUL  494  30.112  30.702   7.250
    2AU    AUSL  495  28.454  30.605   7.553
    2AU    AUSL  496  28.665  30.815   7.205
    2AU     AUL  497  28.315  30.708   7.213
    2AU    AUSL  498  28.571  31.006   7.694
    2AU    AUSL  499  28.761  30.622   7.849
    2AU     AUL  500  28.380  30.775   7.848
    2AU    AUSL  501  29.303  31.930   7.966
    2AU    AUSL  502  28.848  31.909   7.878
    2AU     AUL  503  29.070  31.954   8.194
    2AU    AUSL  504  29.135  31.785   7.591
    2AU    AUSL  505  29.386  31.918   7.247
    2AU     AUL  506  29.155  32.125   7.554
    2AU    AUSL  507  29.573  31.861   7.623
    2AU    AUSL  508  29.567  31.660   8.153
    2AU     AUL  509  29.686  31.950   7.941
    2AU    AUSL  510  29.161  30.464   7.970
    2AU    AUSL  511  29.585  30.405   7.849
    2AU     AUL  512  29.346  30.343   8.223
    2AU    AUSL  513  28.853  30.242   7.699
    2AU    AUSL  514  28.881  30.579   8.274
    2AU     AUL  515  28.889  30.281   8.050
    2AU    AUSL  516  29.285  30.167   7.667
    2AU    AUSL  517  29.078  30.412   7.362
    2AU     AUL  518  28.961  30.067   7.487
    2AU    AUSL  519  29.213  31.803   6.843
    2AU    AUSL  520  29.785  31.781   7.199
    2AU     AUL  521  29.529  31.891   6.936
    2AU    AUSL  522  28.964  31.897   7.210
    2AU    AUSL  523  28.987  31.486   7.014
    2AU     AUL  524  28.894  31.792   6.856
    2AU    AUSL  525  29.303  30.360   6.981
    2AU    AUSL  526  28.670  30.374   7.258
    2AU     AUL  527  28.966  30.226   7.043
    2AU    AUSL  528  29.510  30.384   7.381
    2AU    AUSL  529  29.533  30.717   7.018
    2AU     AUL  530  29.627  30.344   7.050
    2AU       S  531  29.758  30.149   8.227
    2AU     LIG  532  29.805  29.915   8.352
    2AU     LIG  533  29.927  29.755   8.479
    2AU     LIG  534  30.085  29.578   8.590
    2AU       S  535  29.792  30.939   8.719
    2AU     LIG  536  29.955  30.997   8.921
    2AU     LIG  537  30.045  31.053   9.146
    2AU     LIG  538  30.151  31.020   9.383
    2AU       S  539  29.470  30.746   8.725
    2AU     LIG  540  29.526  30.652   9.005
    2AU     LIG  541  29.692  30.668   9.203
    2AU     LIG  542  29.826  30.623   9.419
    2AU       S  543  28.845  31.236   8.757
    2AU     LIG  544  28.808  31.260   9.059
    2AU     LIG  545  28.690  31.245   9.261
    2AU     LIG  546  28.542  31.222   9.479
    2AU       S  547  29.370  31.670   8.566
    2AU     LIG  548  29.487  31.807   8.771
    2AU     LIG  549  29.700  31.727   8.933
    2AU     LIG  550  29.923  31.601   8.947
    2AU       S  551  30.062  31.562   8.334
    2AU     LIG  552  30.245  31.602   8.555
    2AU     LIG  553  30.385  31.759   8.669
    2AU     LIG  554  30.561  31.935   8.744
    2AU       S  555  29.663  31.191   6.306
    2AU     LIG  556  29.878  31.246   6.093
    2AU     LIG  557  30.012  31.080   5.955
    2AU     LIG  558  30.072  30.889   5.795
    2AU       S  559  29.878  31.891   6.652
    2AU     LIG  560  29.924  32.084   6.462
    2AU     LIG  561  30.087  32.174   6.288
    2AU     LIG  562  30.252  32.265   6.123
    2AU       S  563  30.138  30.602   6.768
    2AU     LIG  564  30.300  30.515   6.527
    2AU     LIG  565  30.314  30.296   6.388
    2AU     LIG  566  30.330  30.041   6.348
    2AU       S  567  29.584  30.896   6.240
    2AU     LIG  568  29.606  30.772   6.011
    2AU     LIG  569  29.593  30.699   5.771
    2AU     LIG  570  29.664  30.679   5.521
    2AU       S  571  28.850  30.956   6.303
    2AU     LIG  572  28.905  30.923   6.024
    2AU     LIG  573  28.911  30.869   5.795
    2AU     LIG  574  28.835  30.828   5.540
    2AU       S  575  29.420  31.337   6.264
    2AU     LIG  576  29.321  31.271   5.973
    2AU     LIG  577  29.463  31.196   5.780
    2AU     LIG  578  29.656  31.188   5.607
    2AU       S  579  28.569  31.324   8.643
    2AU     LIG  580  28.358  31.299   8.819
    2AU     LIG  581  28.304  31.083   8.977
    2AU     LIG  582  28.234  30.951   9.166
    2AU       S  583  28.600  31.882   8.268
    2AU     LIG  584  28.514  32.037   8.501
    2AU     LIG  585  28.373  32.048   8.694
    2AU     LIG  586  28.204  32.137   8.877
    2AU       S  587  28.323  30.616   8.284
    2AU     LIG  588  28.077  30.547   8.381
    2AU     LIG  589  27.932  30.355   8.457
    2AU     LIG  590  27.805  30.173   8.575
    2AU       S  591  28.894  30.944   8.684
    2AU     LIG  592  28.817  30.768   8.887
    2AU     LIG  593  28.704  30.748   9.105
    2AU     LIG  594  28.659  30.734   9.361
    2AU       S  595  28.588  30.868   6.418
    2AU     LIG  596  28.409  30.798   6.208
    2AU     LIG  597  28.398  30.869   5.957
    2AU     LIG  598  28.386  30.979   5.737
    2AU       S  599  28.622  30.320   6.745
    2AU     LIG  600  28.548  30.133   6.540
    2AU     LIG  601  28.390  30.091   6.354
    2AU     LIG  602  28.206  30.042   6.184
    2AU       S  603  28.252  31.546   6.798
    2AU     LIG  604  28.045  31.715   6.744
    2AU     LIG  605  27.993  31.914   6.588
    2AU     LIG  606  27.969  32.037   6.367
    2AU       S  607  28.750  31.224   6.393
    2AU     LIG  608  28.583  31.325   6.139
    2AU     LIG  609  28.666  31.362   5.913
    2AU     LIG  610  28.774  31.342   5.679
    2AU       S  611  30.109  31.705   6.708
    2AU     LIG  612  30.324  31.751   6.537
    2AU     LIG  613  30.481  31.863   6.389
    2AU     LIG  614  30.662  31.982   6.245
    2AU       S  615  30.361  31.681   7.556
    2AU     LIG  616  30.574  31.885   7.540
    2AU     LIG  617  30.818  31.929   7.511
    2AU     LIG  618  31.071  31.992   7.532
    2AU       S  619  30.537  31.382   7.388
    2AU     LIG  620  30.806  31.453   7.293
    2AU     LIG  621  31.046  31.519   7.306
    2AU     LIG  622  31.268  31.633   7.226
    2AU       S  623  30.401  30.503   7.790
    2AU     LIG  624  30.636  30.401   7.920
    2AU     LIG  625  30.889  30.396   7.859
    2AU     LIG  626  31.138  30.364   7.780
    2AU       S  627  30.098  31.810   8.127
    2AU     LIG  628  30.293  31.987   8.210
    2AU     LIG  629  30.338  32.186   8.357
    2AU     LIG  630  30.357  32.365   8.540
    2AU       S  631  30.508  31.414   7.663
    2AU     LIG  632  30.746  31.485   7.814
    2AU     LIG  633  30.983  31.552   7.811
    2AU     LIG  634  31.213  31.642   7.878
    2AU       S  635  28.434  31.659   8.203
    2AU     LIG  636  28.195  31.651   8.380
    2AU     LIG  637  28.009  31.790   8.444
    2AU     LIG  638  27.833  31.909   8.594
    2AU       S  639  28.601  32.083   7.463
    2AU     LIG  640  28.441  32.291   7.335
    2AU     LIG  641  28.195  32.271   7.239
    2AU     LIG  642  28.007  32.114   7.123
    2AU       S  643  28.037  31.302   7.139
    2AU     LIG  644  27.799  31.307   7.071
    2AU     LIG  645  27.544  31.383   7.141
    2AU     LIG  646  27.399  31.596   7.163
    2AU       S  647  28.467  31.956   6.929
    2AU     LIG  648  28.394  32.164   6.787
    2AU     LIG  649  28.252  32.343   6.702
    2AU     LIG  650  28.121  32.498   6.537
    2AU       S  651  27.948  30.898   7.449
    2AU     LIG  652  27.671  30.888   7.337
    2AU     LIG  653  27.428  30.870   7.332
    2AU     LIG  654  27.194  30.749   7.284
    2AU       S  655  28.139  31.217   8.097
    2AU     LIG  656  27.826  31.321   8.182
    2AU     LIG  657  27.709  31.533   8.094
    2AU     LIG  658  27.529  31.680   7.968
    2AU       S  659  30.131  30.333   7.606
    2AU     LIG  660  30.265  30.031   7.622
    2AU     LIG  661  30.493  29.965   7.697
    2AU     LIG  662  30.764  29.951   7.655
    2AU       S  663  29.975  30.272   8.066
    2AU     LIG  664  30.222  30.136   8.105
    2AU     LIG  665  30.352  30.048   8.287
    2AU     LIG  666  30.399  29.978   8.537
    2AU       S  667  30.388  30.483   7.519
    2AU     LIG  668  30.611  30.361   7.383
    2AU     LIG  669  30.852  30.362   7.343
    2AU     LIG  670  31.093  30.290   7.280
    2AU       S  671  30.080  30.340   6.925
    2AU     LIG  672  30.145  30.080   6.822
    2AU     LIG  673  30.018  29.857   6.774
    2AU     LIG  674  29.977  29.638   6.659
    2AU       S  675  28.445  30.515   6.817
    2AU     LIG  676  28.212  30.525   6.620
    2AU     LIG  677  28.035  30.408   6.527
    2AU     LIG  678  27.829  30.250   6.465
    2AU       S  679  28.030  30.607   7.583
    2AU     LIG  680  27.813  30.441   7.588
    2AU     LIG  681  27.586  30.393   7.482
    2AU     LIG  682  27.353  30.289   7.441
    2AU       S  683  28.442  30.386   8.082
    2AU     LIG  684  28.266  30.178   8.068
    2AU     LIG  685  28.146  29.992   8.174
    2AU     LIG  686  28.013  29.806   8.287
    2AU       S  687  27.972  30.902   7.713
    2AU     LIG  688  27.738  30.874   7.888
    2AU     LIG  689  27.499  30.782   7.835
    2AU     LIG  690  27.290  30.647   7.809
    2AU       S  691  28.641  32.101   7.989
    2AU     LIG  692  28.406  32.290   8.062
    2AU     LIG  693  28.181  32.253   8.206
    2AU     LIG  694  28.049  32.330   8.412
    2AU       S  695  29.384  32.287   8.053
    2AU     LIG  696  29.495  32.474   8.255
    2AU     LIG  697  29.383  32.664   8.380
    2AU     LIG  698  29.238  32.865   8.444
    2AU       S  699  29.146  32.422   7.925
    2AU     LIG  700  29.057  32.647   7.968
    2AU     LIG  701  29.031  32.906   7.984
    2AU     LIG  702  29.040  33.157   8.012
    2AU       S  703  29.311  32.265   7.131
    2AU     LIG  704  29.377  32.534   7.146
    2AU     LIG  705  29.411  32.766   7.130
    2AU     LIG  706  29.474  33.009   7.042
    2AU       S  707  29.821  31.777   8.364
    2AU     LIG  708  29.896  31.996   8.543
    2AU     LIG  709  29.997  32.077   8.736
    2AU     LIG  710  30.123  32.095   8.967
    2AU       S  711  29.523  32.338   7.734
    2AU     LIG  712  29.555  32.611   7.718
    2AU     LIG  713  29.530  32.821   7.875
    2AU     LIG  714  29.542  33.005   8.040
    2AU       S  715  29.244  29.928   8.062
    2AU     LIG  716  29.363  29.722   8.213
    2AU     LIG  717  29.351  29.515   8.334
    2AU     LIG  718  29.332  29.278   8.434
    2AU       S  719  29.727  30.161   7.902
    2AU     LIG  720  29.831  29.857   7.827
    2AU     LIG  721  29.991  29.723   7.925
    2AU     LIG  722  30.203  29.623   8.057
    2AU       S  723  28.992  29.842   7.896
    2AU     LIG  724  28.943  29.575   7.918
    2AU     LIG  725  28.965  29.357   8.033
    2AU     LIG  726  28.955  29.119   8.129
    2AU       S  727  28.586  30.468   8.386
    2AU     LIG  728  28.459  30.250   8.570
    2AU     LIG  729  28.322  30.076   8.640
    2AU     LIG  730  28.185  29.882   8.762
    2AU       S  731  29.310  29.938   7.221
    2AU     LIG  732  29.249  29.610   7.210
    2AU     LIG  733  29.234  29.414   7.090
    2AU     LIG  734  29.234  29.147   7.027
    2AU       S  735  29.324  29.891   7.758
    2AU     LIG  736  29.424  29.589   7.712
    2AU     LIG  737  29.437  29.392   7.838
    2AU     LIG  738  29.431  29.146   7.941
    2AU       S  739  29.163  32.185   6.835
    2AU     LIG  740  29.169  32.414   6.681
    2AU     LIG  741  29.292  32.630   6.641
    2AU     LIG  742  29.358  32.864   6.564
    2AU       S  743  30.002  31.961   6.958
    2AU     LIG  744  30.200  32.165   6.901
    2AU     LIG  745  30.359  32.239   6.721
    2AU     LIG  746  30.507  32.361   6.558
    2AU       S  747  28.960  32.206   7.112
    2AU     LIG  748  28.848  32.484   7.085
    2AU     LIG  749  28.905  32.710   6.998
    2AU     LIG  750  28.979  32.935   6.907
    2AU       S  751  28.522  31.616   6.654
    2AU     LIG  752  28.462  31.751   6.415
    2AU     LIG  753  28.472  31.981   6.319
    2AU     LIG  754  28.445  32.220   6.239
    2AU       S  755  28.467  30.284   7.029
    2AU     LIG  756  28.210  30.111   6.950
    2AU     LIG  757  28.123  29.969   6.784
    2AU     LIG  758  28.037  29.796   6.606
    2AU       S  759  29.380  29.977   6.941
    2AU     LIG  760  29.497  29.798   6.769
    2AU     LIG  761  29.470  29.588   6.646
    2AU     LIG  762  29.394  29.350   6.582
    2AU       S  763  29.573  29.978   7.324
    2AU     LIG  764  29.737  29.737   7.293
    2AU     LIG  765  29.744  29.531   7.128
    2AU     LIG  766  29.729  29.314   6.984
    2AU       S  767  29.834  30.487   6.673
    2AU     LIG  768  29.820  30.309   6.470
    2AU     LIG  769  29.810  30.081   6.376
    2AU     LIG  770  29.861  29.878   6.221
    3AU     AUC  771  13.261  29.023   7.535
    3AU     AUC  772  13.513  29.028   7.369
    3AU     AUC  773  13.502  29.015   7.699
    3AU     AUC  774  12.991  29.031   7.380
    3AU     AUC  775  13.017  29.060   7.705
    3AU     AUC  776  13.100  29.276   7.513
    3AU     AUC  777  13.447  29.288   7.516
    3AU     AUC  778  13.082  28.769   7.543
    3AU     AUC  779  13.413  28.747   7.545
    3AU     AUC  780  13.255  28.863   7.798
    3AU     AUC  781  13.274  29.203   7.779
    3AU     AUC  782  13.248  28.850   7.287
    3AU     AUC  783  13.268  29.156   7.271
    3AU     AUC  784  13.816  29.019   7.204
    3AU     AUC  785  13.824  28.999   7.545
    3AU     AUC  786  13.782  28.986   7.899
    3AU     AUC  787  12.689  29.005   7.228
    3AU     AUC  788  12.688  29.064   7.556
    3AU     AUC  789  12.717  29.103   7.888
    3AU     AUC  790  12.935  29.589   7.474
    3AU     AUC  791  13.295  29.563   7.457
    3AU     AUC  792  13.661  29.551   7.487
    3AU     AUC  793  12.878  28.480   7.548
    3AU     AUC  794  13.229  28.456   7.529
    3AU     AUC  795  13.585  28.445   7.546
    3AU     AUC  796  13.214  28.697   8.101
    3AU     AUC  797  13.251  29.039   8.101
    3AU     AUC  798  13.308  29.403   8.062
    3AU     AUC  799  13.279  28.660   6.997
    3AU     AUC  800  13.227  29.001   6.973
    3AU     AUC  801  13.224  29.324   6.957
    3AU     AUC  802  13.496  28.801   8.012
    3AU     AUC  803  13.552  29.177   7.987
    3AU     AUC  804  13.551  28.863   7.072
    3AU     AUC  805  13.516  29.175   7.079
    3AU     AUC  806  12.962  28.921   8.000
    3AU     AUC  807  13.009  29.271   7.971
    3AU     AUC  808  12.973  28.820   7.103
    3AU     AUC  809  12.927  29.148   7.083
    3AU     AUC  810  13.754  29.291   7.346
    3AU     AUC  811  13.720  29.288   7.705
    3AU     AUC  812  12.795  29.303   7.383
    3AU     AUC  813  12.840  29.369   7.713
    3AU     AUC  814  13.717  28.740   7.407
    3AU     AUC  815  13.665  28.694   7.739
    3AU     AUC  816  12.796  28.717   7.373
    3AU     AUC  817  12.822  28.791   7.716
    3AU     AUC  818  13.160  29.521   7.782
    3AU     AUC  819  13.499  29.476   7.793
    3AU     AUC  820  13.047  28.588   7.817
    3AU     AUC  821  13.365  28.535   7.809
    3AU     AUC  822  13.070  29.454   7.215
    3AU     AUC  823  13.435  29.470   7.226
    3AU     AUC  824  13.101  28.556   7.258
    3AU     AUC  825  13.461  28.601   7.274
    3AU    AUSL  826  13.760  28.891   8.316
    3AU    AUSL  827  13.510  28.518   8.222
    3AU     AUL  828  13.817  28.519   8.389
    3AU    AUSL  829  13.345  28.833   8.460
    3AU    AUSL  830  13.107  29.242   8.451
    3AU     AUL  831  13.343  29.117   8.710
    3AU    AUSL  832  13.444  29.190   8.204
    3AU    AUSL  833  13.895  29.249   8.126
    3AU     AUL  834  13.713  29.214   8.435
    3AU    AUSL  835  13.668  29.051   6.840
    3AU    AUSL  836  13.529  29.447   6.981
    3AU     AUL  837  13.743  29.379   6.681
    3AU    AUSL  838  13.480  28.729   6.612
    3AU    AUSL  839  13.987  28.799   6.982
    3AU     AUL  840  13.855  28.873   6.665
    3AU    AUSL  841  13.312  29.233   6.670
    3AU    AUSL  842  13.134  28.847   6.829
    3AU     AUL  843  13.265  28.926   6.524
    3AU    AUSL  844  12.723  29.204   8.243
    3AU    AUSL  845  13.086  29.513   8.111
    3AU     AUL  846  12.923  29.481   8.412
    3AU    AUSL  847  13.024  28.891   8.191
    3AU    AUSL  848  12.575  28.814   8.105
    3AU     AUL  849  12.632  28.903   8.341
    3AU    AUSL  850  12.698  28.829   6.795
    3AU    AUSL  851  12.947  28.479   6.947
    3AU     AUL  852  12.971  28.565   6.641
    3AU    AUSL  853  12.884  29.197   6.675
    3AU    AUSL  854  12.604  29.178   7.050
    3AU     AUL  855  12.487  29.059   6.776
    3AU    AUSL  856  14.052  29.486   7.476
    3AU    AUSL  857  13.927  29.276   7.096
    3AU     AUL  858  14.222  29.481   7.128
    3AU    AUSL  859  14.217  29.090   7.367
    3AU    AUSL  860  14.166  28.792   7.768
    3AU     AUL  861  14.428  28.876   7.571
    3AU    AUSL  862  13.939  29.145   7.718
    3AU    AUSL  863  13.897  29.589   7.853
    3AU     AUL  864  14.145  29.329   7.878
    3AU    AUSL  865  12.686  29.666   7.522
    3AU    AUSL  866  12.723  29.418   7.878
    3AU     AUL  867  12.414  29.663   7.745
    3AU    AUSL  868  12.485  29.287   7.444
    3AU    AUSL  869  12.638  29.603   7.106
    3AU     AUL  870  12.402  29.528   7.263
    3AU    AUSL  871  12.358  29.209   7.888
    3AU    AUSL  872  12.325  28.903   7.349
    3AU     AUL  873  12.203  29.220   7.590
    3AU    AUSL  874  13.944  28.443   7.615
    3AU    AUSL  875  13.770  28.726   7.925
    3AU     AUL  876  14.077  28.632   8.001
    3AU    AUSL  877  13.902  28.813   7.397
    3AU    AUSL  878  13.892  28.411   7.188
    3AU     AUL  879  14.136  28.621   7.250
    3AU    AUSL  880  12.478  28.524   7.553
    3AU    AUSL  881  12.689  28.734   7.205
    3AU     AUL  882  12.339  28.627   7.213
    3AU    AUSL  883  12.595  28.925   7.694
    3AU    AUSL  884  12.785  28.541   7.849
    3AU     AUL  885  12.404  28.694   7.848
    3AU    AUSL  886  13.327  29.849   7.966
    3AU    AUSL  887  12.872  29.828   7.878
    3AU     AUL  888  13.094  29.873   8.194
    3AU    AUSL  889  13.159  29.704   7.591
    3AU    AUSL  890  13.410  29.837   7.247
    3AU     AUL  891  13.179  30.044   7.554
    3AU    AUSL  892  13.597  29.780   7.623
    3AU    AUSL  893  13.591  29.579   8.153
    3AU     AUL  894  13.710  29.869   7.941
    3AU    AUSL  895  13.185  28.383   7.970
    3AU    AUSL  896  13.609  28.324   7.849
    3AU     AUL  897  13.370  28.262   8.223
    3AU    AUSL  898  12.877  28.161   7.699
    3AU    AUSL  899  12.905  28.498   8.274
    3AU     AUL  900  12.913  28.200   8.050
    3AU    AUSL  901  13.309  28.086   7.667
    3AU    AUSL  902  13.102  28.331   7.362
    3AU     AUL  903  12.985  27.986   7.487
    3AU    AUSL  904  13.237  29.722   6.843
    3AU    AUSL  905  13.809  29.700   7.199
    3AU     AUL  906  13.553  29.810   6.936
    3AU    AUSL  907  12.988  29.816   7.210
    3AU    AUSL  908  13.011  29.405   7.014
    3AU     AUL  909  12.918  29.711   6.856
    3AU    AUSL  910  13.327  28.279   6.981
    3AU    AUSL  911  12.694  28.293   7.258
    3AU     AUL  912  12.990  28.145   7.043
    3AU    AUSL  913  13.534  28.303   7.381
    3AU    AUSL  914  13.557  28.636   7.018
    3AU     AUL  915  13.651  28.263   7.050
    3AU       S  916  13.782  28.068   8.227
    3AU     LIG  917  13.829  27.834   8.352
    3AU     LIG  918  13.951  27.674   8.479
    3AU     LIG  919  14.109  27.497   8.590
    3AU       S  920  13.816  28.858   8.719
    3AU     LIG  921  13.979  28.916   8.921
    3AU     LIG  922  14.069  28.972   9.146
    3AU     LIG  923  14.175  28.939   9.383
    3AU       S  924  13.494  28.665   8.725
    3AU     LIG  925  13.550  28.571   9.005
    3AU     LIG  926  13.716  28.587   9.203
    3AU     LIG  927  13.850  28.542   9.419
    3AU       S  928  12.869  29.155   8.757
    3AU     LIG  929  12.832  29.179   9.059
    3AU     LIG  930  12.714  29.164   9.261
    3AU     LIG  931  12.566  29.141   9.479
    3AU       S  932  13.394  29.589   8.566
    3AU     LIG  933  13.511  29.726   8.771
    3AU     LIG  934  13.724  29.646   8.933
    3AU     LIG  935  13.947  29.520   8.947
    3AU       S  936  14.086  29.481   8.334
    3AU     LIG  937  14.269  29.521   8.555
    3AU     LIG  938  14.409  29.678   8.669
    3AU     LIG  939  14.585  29.854   8.744
    3AU       S  940  13.687  29.110   6.306
    3AU     LIG  941  13.902  29.165   6.093
    3AU     LIG  942  14.036  28.999   5.955
    3AU     LIG  943  14.096  28.808   5.795
    3AU       S  944  13.902  29.810   6.652
    3AU     LIG  945  13.948  30.003   6.462
    3AU     LIG  946  14.111  30.093   6.288
    3AU     LIG  947  14.276  30.184   6.123
    3AU       S  948  14.162  28.521   6.768
    3AU     LIG  949  14.324  28.434   6.527
    3AU     LIG  950  14.338  28.215   6.388
    3AU     LIG  951  14.354  27.960   6.348
    3AU       S  952  13.608  28.815   6.240
    3AU     LIG  953  13.630  28.691   6.011
    3AU     LIG  954  13.617  28.618   5.771
    3AU     LIG  955  13.688  28.598   5.521
    3AU       S  956  12.874  28.875   6.303
    3AU     LIG  957  12.929  28.842   6.024
    3AU     LIG  958  12.935  28.788   5.795
    3AU     LIG  959  12.859  28.747   5.540
    3AU       S  960  13.444  29.256   6.264
    3AU     LIG  961  13.345  29.190   5.973
    3AU     LIG  962  13.487  29.115   5.780
    3AU     LIG  963  13.680  29.107   5.607
    3AU       S  964  12.593  29.243   8.643
    3AU     LIG  965  12.382  29.218   8.819
    3AU     LIG  966  12.328  29.002   8.977
    3AU     LIG  967  12.258  28.870   9.166
    3AU       S  968  12.624  29.801   8.268
    3AU     LIG  969  12.538  29.956   8.501
    3AU     LIG  970  12.397  29.967   8.694
    3AU     LIG  971  12.228  30.056   8.877
    3AU       S  972  12.347  28.535   8.284
    3AU     LIG  973  12.101  28.466   8.381
    3AU     LIG  974  11.956  28.274   8.457
    3AU     LIG  975  11.829  28.092   8.575
    3AU       S  976  12.918  28.863   8.684
    3AU     LIG  977  12.841  28.687   8.887
    3AU     LIG  978  12.728  28.667   9.105
    3AU     LIG  979  12.683  28.653   9.361
    3AU       S  980  12.612  28.787   6.418
    3AU     LIG  981  12.433  28.717   6.208
    3AU     LIG  982  12.422  28.788   5.957
    3AU     LIG  983  12.410  28.898   5.737
    3AU       S  984  12.646  28.239   6.745
    3AU     LIG  985  12.572  28.052   6.540
    3AU     LIG  986  12.414  28.010   6.354
    3AU     LIG  987  12.230  27.961   6.184
    3AU       S  988  12.276  29.465   6.798
    3AU     LIG  989  12.069  29.634   6.744
    3AU     LIG  990  12.017  29.833   6.588
    3AU     LIG  991  11.993  29.956   6.367
    3AU       S  992  12.774  29.143   6.393
    3AU     LIG  993  12.607  29.244   6.139
    3AU     LIG  994  12.690  29.281   5.913
    3AU     LIG  995  12.798  29.261   5.679
    3AU       S  996  14.133  29.624   6.708
    3AU     LIG  997  14.348  29.670   6.537
    3AU     LIG  998  14.505  29.782   6.389
    3AU     LIG  999  14.686  29.901   6.245
    3AU       S 1000  14.385  29.600   7.556
    3AU     LIG 1001  14.598  29.804   7.540
    3AU     LIG 1002  14.842  29.848   7.511
    3AU     LIG 1003  15.095  29.911   7.532
    3AU       S 1004  14.561  29.301   7.388
    3AU     LIG 1005  14.830  29.372   7.293
    3AU     LIG 1006  15.070  29.438   7.306
    3AU     LIG 1007  15.292  29.552   7.226
    3AU       S 1008  14.425  28.422   7.790
    3AU     LIG 1009  14.660  28.320   7.920
    3AU     LIG 1010  14.913  28.315   7.859
    3AU     LIG 1011  15.162  28.283   7.780
    3AU       S 1012  14.122  29.729   8.127
    3AU     LIG 1013  14.317  29.906   8.210
    3AU     LIG 1014  14.362  30.105   8.357
    3AU     LIG 1015  14.381  30.284   8.540
    3AU       S 1016  14.532  29.333   7.663
    3AU     LIG 1017  14.770  29.404   7.814
    3AU     LIG 1018  15.007  29.471   7.811
    3AU     LIG 1019  15.237  29.561   7.878
    3AU       S 1020  12.458  29.578   8.203
    3AU     LIG 1021  12.219  29.570   8.380
    3AU     LIG 1022  12.033  29.709   8.444
    3AU     LIG 1023  11.857  29.828   8.594
    3AU       S 1024  12.625  30.002   7.463
    3AU     LIG 1025  12.465  30.210   7.335
    3AU     LIG 1026  12.219  30.190   7.239
    3AU     LIG 1027  12.031  30.033   7.123
    3AU       S 1028  12.061  29.221   7.139
    3AU     LIG 1029  11.823  29.226   7.071
    3AU     LIG 1030  11.568  29.302   7.141
    3AU     LIG 1031  11.423  29.515   7.163
    3AU       S 1032  12.491  29.875   6.929
    3AU     LIG 1033  12.418  30.083   6.787
    3AU     LIG 1034  12.276  30.262   6.702
    3AU     LIG 1035  12.145  30.417   6.537
    3AU       S 1036  11.972  28.817   7.449
    3AU     LIG 1037  11.695  28.807   7.337
    3AU     LIG 1038  11.452  28.789   7.332
    3AU     LIG 1039  11.218  28.668   7.284
    3AU       S 1040  12.163  29.136   8.097
    3AU     LIG 1041  11.850  29.240   8.182
    3AU     LIG 1042  11.733  29.452   8.094
    3AU     LIG 1043  11.553  29.599   7.968
    3AU       S 1044  14.155  28.252   7.606
    3AU     LIG 1045  14.289  27.950   7.622
    3AU     LIG 1046  14.517  27.884   7.697
    3AU     LIG 1047  14.788  27.870   7.655
    3AU       S 1048  13.999  28.191   8.066
    3AU     LIG 1049  14.246  28.055   8.105
    3AU     LIG 1050  14.376  27.967   8.287
    3AU     LIG 1051  14.423  27.897   8.537
    3AU       S 1052  14.412  28.402   7.519
    3AU     LIG 1053  14.635  28.280   7.383
    3AU     LIG 1054  14.876  28.281   7.343
    3AU     LIG 1055  15.117  28.209   7.280
    3AU       S 1056  14.104  28.259   6.925
    3AU     LIG 1057  14.169  27.999   6.822
    3AU     LIG 1058  14.042  27.776   6.774
    3AU     LIG 1059  14.001  27.557   6.659
    3AU       S 1060  12.469  28.434   6.817
    3AU     LIG 1061  12.236  28.444   6.620
    3AU     LIG 1062  12.059  28.327   6.527
    3AU     LIG 1063  11.853  28.169   6.465
    3AU       S 1064  12.054  28.526   7.583
    3AU     LIG 1065  11.837  28.360   7.588
    3AU     LIG 1066  11.610  28.312   7.482
    3AU     LIG 1067  11.377  28.208   7.441
    3AU       S 1068  12.466  28.305   8.082
    3AU     LIG 1069  12.290  28.097   8.068
    3AU     LIG 1070  12.170  27.911   8.174
    3AU     LIG 1071  12.037  27.725   8.287
    3AU       S 1072  11.996  28.821   7.713
    3AU     LIG 1073  11.762  28.793   7.888
    3AU     LIG 1074  11.523  28.701   7.835
    3AU     LIG 1075  11.314  28.566   7.809
    3AU       S 1076  12.665  30.020   7.989
    3AU     LIG 1077  12.430  30.209   8.062
    3AU     LIG 1078  12.205  30.172   8.206
    3AU     LIG 1079  12.073  30.249   8.412
    3AU       S 1080  13.408  30.206   8.053
    3AU     LIG 1081  13.519  30.393   8.255
    3AU     LIG 1082  13.407  30.583   8.380
    3AU     LIG 1083  13.262  30.784   8.444
    3AU       S 1084  13.170  30.341   7.925
    3AU     LIG 1085  13.081  30.566   7.968
    3AU     LIG 1086  13.055  30.825   7.984
    3AU     LIG 1087  13.064  31.076   8.012
    3AU       S 1088  13.335  30.184   7.131
    3AU     LIG 1089  13.401  30.453   7.146
    3AU     LIG 1090  13.435  30.685   7.130
    3AU     LIG 1091  13.498  30.928   7.042
    3AU       S 1092  13.845  29.696   8.364
    3AU     LIG 1093  13.920  29.915   8.543
    3AU     LIG 1094  14.021  29.996   8.736
    3AU     LIG 1095  14.147  30.014   8.967
    3AU       S 1096  13.547  30.257   7.734
    3AU     LIG 1097  13.579  30.530   7.718
    3AU     LIG 1098  13.554  30.740   7.875
    3AU     LIG 1099  13.566  30.924   8.040
    3AU       S 1100  13.268  27.847   8.062
    3AU     LIG 1101  13.387  27.641   8.213
    3AU     LIG 1102  13.375  27.434   8.334
    3AU     LIG 1103  13.356  27.197   8.434
    3AU       S 1104  13.751  28.080   7.902
    3AU     LIG 1105  13.855  27.776   7.827
    3AU     LIG 1106  14.015  27.642   7.925
    3AU     LIG 1107  14.227  27.542   8.057
    3AU       S 1108  13.016  27.761   7.896
    3AU     LIG 1109  12.967  27.494   7.918
    3AU     LIG 1110  12.989  27.276   8.033
    3AU     LIG 1111  12.979  27.038   8.129
    3AU       S 1112  12.610  28.387   8.386
    3AU     LIG 1113  12.483  28.169   8.570
    3AU     LIG 1114  12.346  27.995   8.640
    3AU     LIG 1115  12.209  27.801   8.762
    3AU       S 1116  13.334  27.857   7.221
    3AU     LIG 1117  13.273  27.529   7.210
    3AU     LIG 1118  13.258  27.333   7.090
    3AU     LIG 1119  13.258  27.066   7.027
    3AU       S 1120  13.348  27.810   7.758
    3AU     LIG 1121  13.448  27.508   7.712
    3AU     LIG 1122  13.461  27.311   7.838
    3AU     LIG 1123  13.455  27.065   7.941
    3AU       S 1124  13.187  30.104   6.835
    3AU     LIG 1125  13.193  30.333   6.681
    3AU     LIG 1126  13.316  30.549   6.641
    3AU     LIG 1127  13.382  30.783   6.564
    3AU       S 1128  14.026  29.880   6.958
    3AU     LIG 1129  14.224  30.084   6.901
    3AU     LIG 1130  14.383  30.158   6.721
    3AU     LIG 1131  14.531  30.280   6.558
    3AU       S 1132  12.984  30.125   7.112
    3AU     LIG 1133  12.872  30.403   7.085
    3AU     LIG 1134  12.929  30.629   6.998
    3AU     LIG 1135  13.003  30.854   6.907
    3AU       S 1136  12.546  29.535   6.654
    3AU     LIG 1137  12.486  29.670   6.415
    3AU     LIG 1138  12.496  29.900   6.319
    3AU     LIG 1139  12.469  30.139   6.239
    3AU       S 1140  12.491  28.203   7.029
    3AU     LIG 1141  12.234  28.030   6.950
    3AU     LIG 1142  12.147  27.888   6.784
    3AU     LIG 1143  12.061  27.715   6.606
    3AU       S 1144  13.404  27.896   6.941
    3AU     LIG 1145  13.521  27.717   6.769
    3AU     LIG 1146  13.494  27.507   6.646
    3AU     LIG 1147  13.418  27.269   6.582
    3AU       S 1148  13.597  27.897   7.324
    3AU     LIG 1149  13.761  27.656   7.293
    3AU     LIG 1150  13.768  27.450   7.128
    3AU     LIG 1151  13.753  27.233   6.984
    3AU       S 1152  13.858  28.406   6.673
    3AU     LIG 1153  13.844  28.228   6.470
    3AU     LIG 1154  13.834  28.000   6.376
    3AU     LIG 1155  13.885  27.797   6.221
    4AU     AUC 1156  25.629  40.602   7.535
    4AU     AUC 1157  25.881  40.607   7.369
    4AU     AUC 1158  25.870  40.594   7.699
    4AU     AUC 1159  25.359  40.610   7.380
    4AU     AUC 1160  25.385  40.639   7.705
    4AU     AUC 1161  25.468  40.855   7.513
    4AU     AUC 1162  25.815  40.867   7.516
    4AU     AUC 1163  25.450  40.348   7.543
    4AU     AUC 1164  25.781  40.326   7.545
    4AU     AUC 1165  25.623  40.442   7.798
    4AU     AUC 1166  25.642  40.782   7.779
    4AU     AUC 1167  25.616  40.429   7.287
    4AU     AUC 1168  25.636  40.735   7.271
    4AU     AUC 1169  26.184  40.598   7.204
    4AU     AUC 1170  26.192  40.578   7.545
    4AU     AUC 1171  26.150  40.565   7.899
    4AU     AUC 1172  25.057  40.584   7.228
    4AU     AUC 1173  25.056  40.643   7.556
    4AU     AUC 1174  25.085  40.682   7.888
    4AU     AUC 1175  25.303  41.168   7.474
    4AU     AUC 1176  25.663  41.142   7.457
    4AU     AUC 1177  26.029  41.130   7.487
    4AU     AUC 1178  25.246  40.059   7.548
    4AU     AUC 1179  25.597  40.035   7.529
    4AU     AUC 1180  25.953  40.024   7.546
    4AU     AUC 1181  25.582  40.276   8.101
    4AU     AUC 1182  25.619  40.618   8.101
    4AU     AUC 1183  25.676  40.982   8.062
    4AU     AUC 1184  25.647  40.239   6.997
    4AU     AUC 1185  25.595  40.580   6.973
    4AU     AUC 1186  25.592  40.903   6.957
    4AU     AUC 1187  25.864  40.380   8.012
    4AU     AUC 1188  25.920  40.756   7.987
    4AU     AUC 1189  25.919  40.442   7.072
    4AU     AUC 1190  25.884  40.754   7.079
    4AU     AUC 1191  25.330  40.500   8.000
    4AU     AUC 1192  25.377  40.850   7.971
    4AU     AUC 1193  25.341  40.399   7.103
    4AU     AUC 1194  25.295  40.727   7.083
    4AU     AUC 1195  26.122  40.870   7.346
    4AU     AUC 1196  26.088  40.867   7.705
    4AU     AUC 1197  25.163  40.882   7.383
    4AU     AUC 1198  25.208  40.948   7.713
    4AU     AUC 1199  26.085  40.319   7.407
    4AU     AUC 1200  26.033  40.273   7.739
    4AU     AUC 1201  25.164  40.296   7.373
    4AU     AUC 1202  25.190  40.370   7.716
    4AU     AUC 1203  25.528  41.100   7.782
    4AU     AUC 1204  25.867  41.055   7.793
    4AU     AUC 1205  25.415  40.167   7.817
    4AU     AUC 1206  25.733  40.114   7.809
    4AU     AUC 1207  25.438  41.033   7.215
    4AU     AUC 1208  25.803  41.049   7.226
    4AU     AUC 1209  25.469  40.135   7.258
    4AU     AUC 1210  25.829  40.180   7.274
    4AU    AUSL 1211  26.128  40.470   8.316
    4AU    AUSL 1212  25.878  40.097   8.222
    4AU     AUL 1213  26.185  40.098   8.389
    4AU    AUSL 1214  25.713  40.412   8.460
    4AU    AUSL 1215  25.475  40.821   8.451
    4AU     AUL 1216  25.711  40.696   8.710
    4AU    AUSL 1217  25.812  40.769   8.204
    4AU    AUSL 1218  26.263  40.828   8.126
    4AU     AUL 1219  26.081  40.793   8.435
    4AU    AUSL 1220  26.036  40.630   6.840
    4AU    AUSL 1221  25.897  41.026   6.981
    4AU     AUL 1222  26.111  40.958   6.681
    4AU    AUSL 1223  25.848  40.308   6.612
    4AU    AUSL 1224  26.355  40.378   6.982
    4AU     AUL 1225  26.223  40.452   6.665
    4AU    AUSL 1226  25.680  40.812   6.670
    4AU    AUSL 1227  25.502  40.426   6.829
    4AU     AUL 1228  25.633  40.505   6.524
    4AU    AUSL 1229  25.091  40.783   8.243
    4AU    AUSL 1230  25.454  41.092   8.111
    4AU     AUL 1231  25.291  41.060   8.412
    4AU    AUSL 1232  25.392  40.470   8.191
    4AU    AUSL 1233  24.943  40.393   8.105
    4AU     AUL 1234  25.000  40.482   8.341
    4AU    AUSL 1235  25.066  40.408   6.795
    4AU    AUSL 1236  25.315  40.058   6.947
    4AU     AUL 1237  25.339  40.144   6.641
    4AU    AUSL 1238  25.252  40.776   6.675
    4AU    AUSL 1239  24.972  40.757   7.050
    4AU     AUL 1240  24.855  40.638   6.776
    4AU    AUSL 1241  26.420  41.065   7.476
    4AU    AUSL 1242  26.295  40.855   7.096
    4AU     AUL 1243  26.590  41.060   7.128
    4AU    AUSL 1244  26.585  40.669   7.367
    4AU    AUSL 1245  26.534  40.371   7.768
    4AU     AUL 1246  26.796  40.455   7.571
    4AU    AUSL 1247  26.307  40.724   7.718
    4AU    AUSL 1248  26.265  41.168   7.853
    4AU     AUL 1249  26.513  40.908   7.878
    4AU    AUSL 1250  25.054  41.245   7.522
    4AU    AUSL 1251  25.091  40.997   7.878
    4AU     AUL 1252  24.782  41.242   7.745
    4AU    AUSL 1253  24.853  40.866   7.444
    4AU    AUSL 1254  25.006  41.182   7.106
    4AU     AUL 1255  24.770  41.107   7.263
    4AU    AUSL 1256  24.726  40.788   7.888
    4AU    AUSL 1257  24.693  40.482   7.349
    4AU     AUL 1258  24.571  40.799   7.590
    4AU    AUSL 1259  26.312  40.022   7.615
    4AU    AUSL 1260  26.138  40.305   7.925
    4AU     AUL 1261  26.445  40.211   8.001
    4AU    AUSL 1262  26.270  40.392   7.397
    4AU    AUSL 1263  26.260  39.990   7.188
    4AU     AUL 1264  26.504  40.200   7.250
    4AU    AUSL 1265  24.846  40.103   7.553
    4AU    AUSL 1266  25.057  40.313   7.205
    4AU     AUL 1267  24.707  40.206   7.213
    4AU    AUSL 1268  24.963  40.504   7.694
    4AU    AUSL 1269  25.153  40.120   7.849
    4AU     AUL 1270  24.772  40.273   7.848
    4AU    AUSL 1271  25.695  41.428   7.966
    4AU    AUSL 1272  25.240  41.407   7.878
    4AU     AUL 1273  25.462  41.452   8.194
    4AU    AUSL 1274  25.527  41.283   7.591
    4AU    AUSL 1275  25.778  41.416   7.247
    4AU     AUL 1276  25.547  41.623   7.554
    4AU    AUSL 1277  25.965  41.359   7.623
    4AU    AUSL 1278  25.959  41.158   8.153
    4AU     AUL 1279  26.078  41.448   7.941
    4AU    AUSL 1280  25.553  39.962   7.970
    4AU    AUSL 1281  25.977  39.903   7.849
    4AU     AUL 1282  25.738  39.841   8.223
    4AU    AUSL 1283  25.245  39.740   7.699
    4AU    AUSL 1284  25.273  40.077   8.274
    4AU     AUL 1285  25.281  39.779   8.050
    4AU    AUSL 1286  25.677  39.665   7.667
    4AU    AUSL 1287  25.470  39.910   7.362
    4AU     AUL 1288  25.353  39.565   7.487
    4AU    AUSL 1289  25.605  41.301   6.843
    4AU    AUSL 1290  26.177  41.279   7.199
    4AU     AUL 1291  25.921  41.389   6.936
    4AU    AUSL 1292  25.356  41.395   7.210
    4AU    AUSL 1293  25.379  40.984   7.014
    4AU     AUL 1294  25.286  41.290   6.856
    4AU    AUSL 1295  25.695  39.858   6.981
    4AU    AUSL 1296  25.062  39.872   7.258
    4AU     AUL 1297  25.358  39.724   7.043
    4AU    AUSL 1298  25.902  39.882   7.381
    4AU    AUSL 1299  25.925  40.215   7.018
    4AU     AUL 1300  26.019  39.842   7.050
    4AU       S 1301  26.150  39.647   8.227
    4AU     LIG 1302  26.197  39.413   8.352
    4AU     LIG 1303  26.319  39.253   8.479
    4AU     LIG 1304  26.477  39.076   8.590
    4AU       S 1305  26.184  40.437   8.719
    4AU     LIG 1306  26.347  40.495   8.921
    4AU     LIG 1307  26.437  40.551   9.146
    4AU     LIG 1308  26.543  40.518   9.383
    4AU       S 1309  25.862  40.244   8.725
    4AU     LIG 1310  25.918  40.150   9.005
    4AU     LIG 1311  26.084  40.166   9.203
    4AU     LIG 1312  26.218  40.121   9.419
    4AU       S 1313  25.237  40.734   8.757
    4AU     LIG 1314  25.200  40.758   9.059
    4AU     LIG 1315  25.082  40.743   9.261
    4AU     LIG 1316  24.934  40.720   9.479
    4AU       S 1317  25.762  41.168   8.566
    4AU     LIG 1318  25.879  41.305   8.771
    4AU     LIG 1319  26.092  41.225   8.933
    4AU     LIG 1320  26.315  41.099   8.947
    4AU       S 1321  26.454  41.060   8.334
    4AU     LIG 1322  26.637  41.100   8.555
    4AU     LIG 1323  26.777  41.257   8.669
    4AU     LIG 1324  26.953  41.433   8.744
    4AU       S 1325  26.055  40.689   6.306
    4AU     LIG 1326  26.270  40.744   6.093
    4AU     LIG 1327  26.404  40.578   5.955
    4AU     LIG 1328  26.464  40.387   5.795
    4AU       S 1329  26.270  41.389   6.652
    4AU     LIG 1330  26.316  41.582   6.462
    4AU     LIG 1331  26.479  41.672   6.288
    4AU     LIG 1332  26.644  41.763   6.123
    4AU       S 1333  26.530  40.100   6.768
    4AU     LIG 1334  26.692  40.013   6.527
    4AU     LIG 1335  26.706  39.794   6.388
    4AU     LIG 1336  26.722  39.539   6.348
    4AU       S 1337  25.976  40.394   6.240
    4AU     LIG 1338  25.998  40.270   6.011
    4AU     LIG 1339  25.985  40.197   5.771
    4AU     LIG 1340  26.056  40.177   5.521
    4AU       S 1341  25.242  40.454   6.303
    4AU     LIG 1342  25.297  40.421   6.024
    4AU     LIG 1343  25.303  40.367   5.795
    4AU     LIG 1344  25.227  40.326   5.540
    4AU       S 1345  25.812  40.835   6.264
    4AU     LIG 1346  25.713  40.769   5.973
    4AU     LIG 1347  25.855  40.694   5.780
    4AU     LIG 1348  26.048  40.686   5.607
    4AU       S 1349  24.961  40.822   8.643
    4AU     LIG 1350  24.750  40.797   8.819
    4AU     LIG 1351  24.696  40.581   8.977
    4AU     LIG 1352  24.626  40.449   9.166
    4AU       S 1353  24.992  41.380   8.268
    4AU     LIG 1354  24.906  41.535   8.501
    4AU     LIG 1355  24.765  41.546   8.694
    4AU     LIG 1356  24.596  41.635   8.877
    4AU       S 1357  24.715  40.114   8.284
    4AU     LIG 1358  24.469  40.045   8.381
    4AU     LIG 1359  24.324  39.853   8.457
    4AU     LIG 1360  24.197  39.671   8.575
    4AU       S 1361  25.286  40.442   8.684
    4AU     LIG 1362  25.209  40.266   8.887
    4AU     LIG 1363  25.096  40.246   9.105
    4AU     LIG 1364  25.051  40.232   9.361
    4AU       S 1365  24.980  40.366   6.418
    4AU     LIG 1366  24.801  40.296   6.208
    4AU     LIG 1367  24.790  40.367   5.957
    4AU     LIG 1368  24.778  40.477   5.737
    4AU       S 1369  25.014  39.818   6.745
    4AU     LIG 1370  24.940  39.631   6.540
    4AU     LIG 1371  24.782  39.589   6.354
    4AU     LIG 1372  24.598  39.540   6.184
    4AU       S 1373  24.644  41.044   6.798
    4AU     LIG 1374  24.437  41.213   6.744
    4AU     LIG 1375  24.385  41.412   6.588
    4AU     LIG 1376  24.361  41.535   6.367
    4AU       S 1377  25.142  40.722   6.393
    4AU     LIG 1378  24.975  40.823   6.139
    4AU     LIG 1379  25.058  40.860   5.913
    4AU     LIG 1380  25.166  40.840   5.679
    4AU       S 1381  26.501  41.203   6.708
    4AU     LIG 1382  26.716  41.249   6.537
    4AU     LIG 1383  26.873  41.361   6.389
    4AU     LIG 1384  27.054  41.480   6.245
    4AU       S 1385  26.753  41.179   7.556
    4AU     LIG 1386  26.966  41.383   7.540
    4AU     LIG 1387  27.210  41.427   7.511
    4AU     LIG 1388  27.463  41.490   7.532
    4AU       S 1389  26.929  40.880   7.388
    4AU     LIG 1390  27.198  40.951   7.293
    4AU     LIG 1391  27.438  41.017   7.306
    4AU     LIG 1392  27.660  41.131   7.226
    4AU       S 1393  26.793  40.001   7.790
    4AU     LIG 1394  27.028  39.899   7.920
    4AU     LIG 1395  27.281  39.894   7.859
    4AU     LIG 1396  27.530  39.862   7.780
    4AU       S 1397  26.490  41.308   8.127
    4AU     LIG 1398  26.685  41.485   8.210
    4AU     LIG 1399  26.730  41.684   8.357
    4AU     LIG 1400  26.749  41.863   8.540
    4AU       S 1401  26.900  40.912   7.663
    4AU     LIG 1402  27.138  40.983   7.814
    4AU     LIG 1403  27.375  41.050   7.811
    4AU     LIG 1404  27.605  41.140   7.878
    4AU       S 1405  24.826  41.157   8.203
    4AU     LIG 1406  24.587  41.149   8.380
    4AU     LIG 1407  24.401  41.288   8.444
    4AU     LIG 1408  24.225  41.407   8.594
    4AU       S 1409  24.993  41.581   7.463
    4AU     LIG 1410  24.833  41.789   7.335
    4AU     LIG 1411  24.587  41.769   7.239
    4AU     LIG 1412  24.399  41.612   7.123
    4AU       S 1413  24.429  40.800   7.139
    4AU     LIG 1414  24.191  40.805   7.071
    4AU     LIG 1415  23.936  40.881   7.141
    4AU     LIG 1416  23.791  41.094   7.163
    4AU       S 1417  24.859  41.454   6.929
    4AU     LIG 1418  24.786  41.662   6.787
    4AU     LIG 1419  24.644  41.841   6.702
    4AU     LIG 1420  24.513  41.996   6.537
    4AU       S 1421  24.340  40.396   7.449
    4AU     LIG 1422  24.063  40.386   7.337
    4AU     LIG 1423  23.820  40.368   7.332
    4AU     LIG 1424  23.586  40.247   7.284
    4AU       S 1425  24.531  40.715   8.097
    4AU     LIG 1426  24.218  40.819   8.182
    4AU     LIG 1427  24.101  41.031   8.094
    4AU     LIG 1428  23.921  41.178   7.968
    4AU       S 1429  26.523  39.831   7.606
    4AU     LIG 1430  26.657  39.529   7.622
    4AU     LIG 1431  26.885  39.463   7.697
    4AU     LIG 1432  27.156  39.449   7.655
    4AU       S 1433  26.367  39.770   8.066
    4AU     LIG 1434  26.614  39.634   8.105
    4AU     LIG 1435  26.744  39.546   8.287
    4AU     LIG 1436  26.791  39.476   8.537
    4AU       S 1437  26.780  39.981   7.519
    4AU     LIG 1438  27.003  39.859   7.383
    4AU     LIG 1439  27.244  39.860   7.343
    4AU     LIG 1440  27.485  39.788   7.280
    4AU       S 1441  26.472  39.838   6.925
    4AU     LIG 1442  26.537  39.578   6.822
    4AU     LIG 1443  26.410  39.355   6.774
    4AU     LIG 1444  26.369  39.136   6.659
    4AU       S 1445  24.837  40.013   6.817
    4AU     LIG 1446  24.604  40.023   6.620
    4AU     LIG 1447  24.427  39.906   6.527
    4AU     LIG 1448  24.221  39.748   6.465
    4AU       S 1449  24.422  40.105   7.583
    4AU     LIG 1450  24.205  39.939   7.588
    4AU     LIG 1451  23.978  39.891   7.482
    4AU     LIG 1452  23.745  39.787   7.441
    4AU       S 1453  24.834  39.884   8.082
    4AU     LIG 1454  24.658  39.676   8.068
    4AU     LIG 1455  24.538  39.490   8.174
    4AU     LIG 1456  24.405  39.304   8.287
    4AU       S 1457  24.364  40.400   7.713
    4AU     LIG 1458  24.130  40.372   7.888
    4AU     LIG 1459  23.891  40.280   7.835
    4AU     LIG 1460  23.682  40.145   7.809
    4AU       S 1461  25.033  41.599   7.989
    4AU     LIG 1462  24.798  41.788   8.062
    4AU     LIG 1463  24.573  41.751   8.206
    4AU     LIG 1464  24.441  41.828   8.412
    4AU       S 1465  25.776  41.785   8.053
    4AU     LIG 1466  25.887  41.972   8.255
    4AU     LIG 1467  25.775  42.162   8.380
    4AU     LIG 1468  25.630  42.363   8.444
    4AU       S 1469  25.538  41.920   7.925
    4AU     LIG 1470  25.449  42.145   7.968
    4AU     LIG 1471  25.423  42.404   7.984
    4AU     LIG 1472  25.432  42.655   8.012
    4AU       S 1473  25.703  41.763   7.131
    4AU     LIG 1474  25.769  42.032   7.146
    4AU     LIG 1475  25.803  42.264   7.130
    4AU     LIG 1476  25.866  42.507   7.042
    4AU       S 1477  26.213  41.275   8.364
    4AU     LIG 1478  26.288  41.494   8.543
    4AU     LIG 1479  26.389  41.575   8.736
    4AU     LIG 1480  26.515  41.593   8.967
    4AU       S 1481  25.915  41.836   7.734
    4AU     LIG 1482  25.947  42.109   7.718
    4AU     LIG 1483  25.922  42.319   7.875
    4AU     LIG 1484  25.934  42.503   8.040
    4AU       S 1485  25.636  39.426   8.062
    4AU     LIG 1486  25.755  39.220   8.213
    4AU     LIG 1487  25.743  39.013   8.334
    4AU     LIG 1488  25.724  38.776   8.434
    4AU       S 1489  26.119  39.659   7.902
    4AU     LIG 1490  26.223  39.355   7.827
    4AU     LIG 1491  26.383  39.221   7.925
    4AU     LIG 1492  26.595  39.121   8.057
    4AU       S 1493  25.384  39.340   7.896
    4AU     LIG 1494  25.335  39.073   7.918
    4AU     LIG 1495  25.357  38.855   8.033
    4AU     LIG 1496  25.347  38.617   8.129
    4AU       S 1497  24.978  39.966   8.386
    4AU     LIG 1498  24.851  39.748   8.570
    4AU     LIG 1499  24.714  39.574   8.640
    4AU     LIG 1500  24.577  39.380   8.762
    4AU       S 1501  25.702  39.436   7.221
    4AU     LIG 1502  25.641  39.108   7.210
    4AU     LIG 1503  25.626  38.912   7.090
    4AU     LIG 1504  25.626  38.645   7.027
    4AU       S 1505  25.716  39.389   7.758
    4AU     LIG 1506  25.816  39.087   7.712
    4AU     LIG 1507  25.829  38.890   7.838
    4AU     LIG 1508  25.823  38.644   7.941
    4AU       S 1509  25.555  41.683   6.835
    4AU     LIG 1510  25.561  41.912   6.681
    4AU     LIG 1511  25.684  42.128   6.641
    4AU     LIG 1512  25.750  42.362   6.564
    4AU       S 1513  26.394  41.459   6.958
    4AU     LIG 1514  26.592  41.663   6.901
    4AU     LIG 1515  26.751  41.737   6.721
    4AU     LIG 1516  26.899  41.859   6.558
    4AU       S 1517  25.352  41.704   7.112
    4AU     LIG 1518  25.240  41.982   7.085
    4AU     LIG 1519  25.297  42.208   6.998
    4AU     LIG 1520  25.371  42.433   6.907
    4AU       S 1521  24.914  41.114   6.654
    4AU     LIG 1522  24.854  41.249   6.415
    4AU     LIG 1523  24.864  41.479   6.319
    4AU     LIG 1524  24.837  41.718   6.239
    4AU       S 1525  24.859  39.782   7.029
    4AU     LIG 1526  24.602  39.609   6.950
    4AU     LIG 1527  24.515  39.467   6.784
    4AU     LIG 1528  24.429  39.294   6.606
    4AU       S 1529  25.772  39.475   6.941
    4AU     LIG 1530  25.889  39.296   6.769
    4AU     LIG 1531  25.862  39.086   6.646
    4AU     LIG 1532  25.786  38.848   6.582
    4AU       S 1533  25.965  39.476   7.324
    4AU     LIG 1534  26.129  39.235   7.293
    4AU     LIG 1535  26.136  39.029   7.128
    4AU     LIG 1536  26.121  38.812   6.984
    4AU       S 1537  26.226  39.985   6.673
    4AU     LIG 1538  26.212  39.807   6.470
    4AU     LIG 1539  26.202  39.579   6.376
    4AU     LIG 1540  26.253  39.376   6.221
    5AU     AUC 1541  18.655   6.759   7.535
    5AU     AUC 1542  18.907   6.764   7.369
    5AU     AUC 1543  18.896   6.751   7.699
    5AU     AUC 1544  18.385   6.767   7.380
    5AU     AUC 1545  18.411   6.796   7.705
    5AU     AUC 1546  18.494   7.012   7.513
    5AU     AUC 1547  18.841   7.024   7.516
    5AU     AUC 1548  18.476   6.505   7.543
    5AU     AUC 1549  18.807   6.483   7.545
    5AU     AUC 1550  18.649   6.599   7.798
    5AU     AUC 1551  18.668   6.939   7.779
    5AU     AUC 1552  18.642   6.586   7.287
    5AU     AUC 1553  18.662   6.892   7.271
    5AU     AUC 1554  19.210   6.755   7.204
    5AU     AUC 1555  19.218   6.735   7.545
    5AU     AUC 1556  19.176   6.722   7.899
    5AU     AUC 1557  18.083   6.741   7.228
    5AU     AUC 1558  18.082   6.800   7.556
    5AU     AUC 1559  18.111   6.839   7.888
    5AU     AUC 1560  18.329   7.325   7.474
    5AU     AUC 1561  18.689   7.299   7.457
    5AU     AUC 1562  19.055   7.287   7.487
    5AU     AUC 1563  18.272   6.216   7.548
    5AU     AUC 1564  18.623   6.192   7.529
    5AU     AUC 1565  18.979   6.181   7.546
    5AU     AUC 1566  18.608   6.433   8.101
    5AU     AUC 1567  18.645   6.775   8.101
    5AU     AUC 1568  18.702   7.139   8.062
    5AU     AUC 1569  18.673   6.396   6.997
    5AU     AUC 1570  18.621   6.737   6.973
    5AU     AUC 1571  18.618   7.060   6.957
    5AU     AUC 1572  18.890   6.537   8.012
    5AU     AUC 1573  18.946   6.913   7.987
    5AU     AUC 1574  18.945   6.599   7.072
    5AU     AUC 1575  18.910   6.911   7.079
    5AU     AUC 1576  18.356   6.657   8.000
    5AU     AUC 1577  18.403   7.007   7.971
    5AU     AUC 1578  18.367   6.556   7.103
    5AU     AUC 1579  18.321   6.884   7.083
    5AU     AUC 1580  19.148   7.027   7.346
    5AU     AUC 1581  19.114   7.024   7.705
    5AU     AUC 1582  18.189   7.039   7.383
    5AU     AUC 1583  18.234   7.105   7.713
    5AU     AUC 1584  19.111   6.476   7.407
    5AU     AUC 1585  19.059   6.430   7.739
    5AU     AUC 1586  18.190   6.453   7.373
    5AU     AUC 1587  18.216   6.527   7.716
    5AU     AUC 1588  18.554   7.257   7.782
    5AU     AUC 1589  18.893   7.212   7.793
    5AU     AUC 1590  18.441   6.324   7.817
    5AU     AUC 1591  18.759   6.271   7.809
    5AU     AUC 1592  18.464   7.190   7.215
    5AU     AUC 1593  18.829   7.206   7.226
    5AU     AUC 1594  18.495   6.292   7.258
    5AU     AUC 1595  18.855   6.337   7.274
    5AU    AUSL 1596  19.154   6.627   8.316
    5AU    AUSL 1597  18.904   6.254   8.222
    5AU     AUL 1598  19.211   6.255   8.389
    5AU    AUSL 1599  18.739   6.569   8.460
    5AU    AUSL 1600  18.501   6.978   8.451
    5AU     AUL 1601  18.737   6.853   8.710
    5AU    AUSL 1602  18.838   6.926   8.204
    5AU    AUSL 1603  19.289   6.985   8.126
    5AU     AUL 1604  19.107   6.950   8.435
    5AU    AUSL 1605  19.062   6.787   6.840
    5AU    AUSL 1606  18.923   7.183   6.981
    5AU     AUL 1607  19.137   7.115   6.681
    5AU    AUSL 1608  18.874   6.465   6.612
    5AU    AUSL 1609  19.381   6.535   6.982
    5AU     AUL 1610  19.249   6.609   6.665
    5AU    AUSL 1611  18.706   6.969   6.670
    5AU    AUSL 1612  18.528   6.583   6.829
    5AU     AUL 1613  18.659   6.662   6.524
    5AU    AUSL 1614  18.117   6.940   8.243
    5AU    AUSL 1615  18.480   7.249   8.111
    5AU     AUL 1616  18.317   7.217   8.412
    5AU    AUSL 1617  18.418   6.627   8.191
    5AU    AUSL 1618  17.969   6.550   8.105
    5AU     AUL 1619  18.026   6.639   8.341
    5AU    AUSL 1620  18.092   6.565   6.795
    5AU    AUSL 1621  18.341   6.215   6.947
    5AU     AUL 1622  18.365   6.301   6.641
    5AU    AUSL 1623  18.278   6.933   6.675
    5AU    AUSL 1624  17.998   6.914   7.050
    5AU     AUL 1625  17.881   6.795   6.776
    5AU    AUSL 1626  19.446   7.222   7.476
    5AU    AUSL 1627  19.321   7.012   7.096
    5AU     AUL 1628  19.616   7.217   7.128
    5AU    AUSL 1629  19.611   6.826   7.367
    5AU    AUSL 1630  19.560   6.528   7.768
    5AU     AUL 1631  19.822   6.612   7.571
    5AU    AUSL 1632  19.333   6.881   7.718
    5AU    AUSL 1633  19.291   7.325   7.853
    5AU     AUL 1634  19.539   7.065   7.878
    5AU    AUSL 1635  18.080   7.402   7.522
    5AU    AUSL 1636  18.117   7.154   7.878
    5AU     AUL 1637  17.808   7.399   7.745
    5AU    AUSL 1638  17.879   7.023   7.444
    5AU    AUSL 1639  18.032   7.339   7.106
    5AU     AUL 1640  17.796   7.264   7.263
    5AU    AUSL 1641  17.752   6.945   7.888
    5AU    AUSL 1642  17.719   6.639   7.349
    5AU     AUL 1643  17.597   6.956   7.590
    5AU    AUSL 1644  19.338   6.179   7.615
    5AU    AUSL 1645  19.164   6.462   7.925
    5AU     AUL 1646  19.471   6.368   8.001
    5AU    AUSL 1647  19.296   6.549   7.397
    5AU    AUSL 1648  19.286   6.147   7.188
    5AU     AUL 1649  19.530   6.357   7.250
    5AU    AUSL 1650  17.872   6.260   7.553
    5AU    AUSL 1651  18.083   6.470   7.205
    5AU     AUL 1652  17.733   6.363   7.213
    5AU    AUSL 1653  17.989   6.661   7.694
    5AU    AUSL 1654  18.179   6.277   7.849
    5AU     AUL 1655  17.798   6.430   7.848
    5AU    AUSL 1656  18.721   7.585   7.966
    5AU    AUSL 1657  18.266   7.564   7.878
    5AU     AUL 1658  18.488   7.609   8.194
    5AU    AUSL 1659  18.553   7.440   7.591
    5AU    AUSL 1660  18.804   7.573   7.247
    5AU     AUL 1661  18.573   7.780   7.554
    5AU    AUSL 1662  18.991   7.516   7.623
    5AU    AUSL 1663  18.985   7.315   8.153
    5AU     AUL 1664  19.104   7.605   7.941
    5AU    AUSL 1665  18.579   6.119   7.970
    5AU    AUSL 1666  19.003   6.060   7.849
    5AU     AUL 1667  18.764   5.998   8.223
    5AU    AUSL 1668  18.271   5.897   7.699
    5AU    AUSL 1669  18.299   6.234   8.274
    5AU     AUL 1670  18.307   5.936   8.050
    5AU    AUSL 1671  18.703   5.822   7.667
    5AU    AUSL 1672  18.496   6.067   7.362
    5AU     AUL 1673  18.379   5.722   7.487
    5AU    AUSL 1674  18.631   7.458   6.843
    5AU    AUSL 1675  19.203   7.436   7.199
    5AU     AUL 1676  18.947   7.546   6.936
    5AU    AUSL 1677  18.382   7.552   7.210
    5AU    AUSL 1678  18.405   7.141   7.014
    5AU     AUL 1679  18.312   7.447   6.856
    5AU    AUSL 1680  18.721   6.015   6.981
    5AU    AUSL 1681  18.088   6.029   7.258
    5AU     AUL 1682  18.384   5.881   7.043
    5AU    AUSL 1683  18.928   6.039   7.381
    5AU    AUSL 1684  18.951   6.372   7.018
    5AU     AUL 1685  19.045   5.999   7.050
    5AU       S 1686  19.176   5.804   8.227
    5AU     LIG 1687  19.223   5.570   8.352
    5AU     LIG 1688  19.345   5.410   8.479
    5AU     LIG 1689  19.503   5.233   8.590
    5AU       S 1690  19.210   6.594   8.719
    5AU     LIG 1691  19.373   6.652   8.921
    5AU     LIG 1692  19.463   6.708   9.146
    5AU     LIG 1693  19.569   6.675   9.383
    5AU       S 1694  18.888   6.401   8.725
    5AU     LIG 1695  18.944   6.307   9.005
    5AU     LIG 1696  19.110   6.323   9.203
    5AU     LIG 1697  19.244   6.278   9.419
    5AU       S 1698  18.263   6.891   8.757
    5AU     LIG 1699  18.226   6.915   9.059
    5AU     LIG 1700  18.108   6.900   9.261
    5AU     LIG 1701  17.960   6.877   9.479
    5AU       S 1702  18.788   7.325   8.566
    5AU     LIG 1703  18.905   7.462   8.771
    5AU     LIG 1704  19.118   7.382   8.933
    5AU     LIG 1705  19.341   7.256   8.947
    5AU       S 1706  19.480   7.217   8.334
    5AU     LIG 1707  19.663   7.257   8.555
    5AU     LIG 1708  19.803   7.414   8.669
    5AU     LIG 1709  19.979   7.590   8.744
    5AU       S 1710  19.081   6.846   6.306
    5AU     LIG 1711  19.296   6.901   6.093
    5AU     LIG 1712  19.430   6.735   5.955
    5AU     LIG 1713  19.490   6.544   5.795
    5AU       S 1714  19.296   7.546   6.652
    5AU     LIG 1715  19.342   7.739   6.462
    5AU     LIG 1716  19.505   7.829   6.288
    5AU     LIG 1717  19.670   7.920   6.123
    5AU       S 1718  19.556   6.257   6.768
    5AU     LIG 1719  19.718   6.170   6.527
    5AU     LIG 1720  19.732   5.951   6.388
    5AU     LIG 1721  19.748   5.696   6.348
    5AU       S 1722  19.002   6.551   6.240
    5AU     LIG 1723  19.024   6.427   6.011
    5AU     LIG 1724  19.011   6.354   5.771
    5AU     LIG 1725  19.082   6.334   5.521
    5AU       S 1726  18.268   6.611   6.303
    5AU     LIG 1727  18.323   6.578   6.024
    5AU     LIG 1728  18.329   6.524   5.795
    5AU     LIG 1729  18.253   6.483   5.540
    5AU       S 1730  18.838   6.992   6.264
    5AU     LIG 1731  18.739   6.926   5.973
    5AU     LIG 1732  18.881   6.851   5.780
    5AU     LIG 1733  19.074   6.843   5.607
    5AU       S 1734  17.987   6.979   8.643
    5AU     LIG 1735  17.776   6.954   8.819
    5AU     LIG 1736  17.722   6.738   8.977
    5AU     LIG 1737  17.652   6.606   9.166
    5AU       S 1738  18.018   7.537   8.268
    5AU     LIG 1739  17.932   7.692   8.501
    5AU     LIG 1740  17.791   7.703   8.694
    5AU     LIG 1741  17.622   7.792   8.877
    5AU       S 1742  17.741   6.271   8.284
    5AU     LIG 1743  17.495   6.202   8.381
    5AU     LIG 1744  17.350   6.010   8.457
    5AU     LIG 1745  17.223   5.828   8.575
    5AU       S 1746  18.312   6.599   8.684
    5AU     LIG 1747  18.235   6.423   8.887
    5AU     LIG 1748  18.122   6.403   9.105
    5AU     LIG 1749  18.077   6.389   9.361
    5AU       S 1750  18.006   6.523   6.418
    5AU     LIG 1751  17.827   6.453   6.208
    5AU     LIG 1752  17.816   6.524   5.957
    5AU     LIG 1753  17.804   6.634   5.737
    5AU       S 1754  18.040   5.975   6.745
    5AU     LIG 1755  17.966   5.788   6.540
    5AU     LIG 1756  17.808   5.746   6.354
    5AU     LIG 1757  17.624   5.697   6.184
    5AU       S 1758  17.670   7.201   6.798
    5AU     LIG 1759  17.463   7.370   6.744
    5AU     LIG 1760  17.411   7.569   6.588
    5AU     LIG 1761  17.387   7.692   6.367
    5AU       S 1762  18.168   6.879   6.393
    5AU     LIG 1763  18.001   6.980   6.139
    5AU     LIG 1764  18.084   7.017   5.913
    5AU     LIG 1765  18.192   6.997   5.679
    5AU       S 1766  19.527   7.360   6.708
    5AU     LIG 1767  19.742   7.406   6.537
    5AU     LIG 1768  19.899   7.518   6.389
    5AU     LIG 1769  20.080   7.637   6.245
    5AU       S 1770  19.779   7.336   7.556
    5AU     LIG 1771  19.992   7.540   7.540
    5AU     LIG 1772  20.236   7.584   7.511
    5AU     LIG 1773  20.489   7.647   7.532
    5AU       S 1774  19.955   7.037   7.388
    5AU     LIG 1775  20.224   7.108   7.293
    5AU     LIG 1776  20.464   7.174   7.306
    5AU     LIG 1777  20.686   7.288   7.226
    5AU       S 1778  19.819   6.158   7.790
    5AU     LIG 1779  20.054   6.056   7.920
    5AU     LIG 1780  20.307   6.051   7.859
    5AU     LIG 1781  20.556   6.019   7.780
    5AU       S 1782  19.516   7.465   8.127
    5AU     LIG 1783  19.711   7.642   8.210
    5AU     LIG 1784  19.756   7.841   8.357
    5AU     LIG 1785  19.775   8.020   8.540
    5AU       S 1786  19.926   7.069   7.663
    5AU     LIG 1787  20.164   7.140   7.814
    5AU     LIG 1788  20.401   7.207   7.811
    5AU     LIG 1789  20.631   7.297   7.878
    5AU       S 1790  17.852   7.314   8.203
    5AU     LIG 1791  17.613   7.306   8.380
    5AU     LIG 1792  17.427   7.445   8.444
    5AU     LIG 1793  17.251   7.564   8.594
    5AU       S 1794  18.019   7.738   7.463
    5AU     LIG 1795  17.859   7.946   7.335
    5AU     LIG 1796  17.613   7.926   7.239
    5AU     LIG 1797  17.425   7.769   7.123
    5AU       S 1798  17.455   6.957   7.139
    5AU     LIG 1799  17.217   6.962   7.071
    5AU     LIG 1800  16.962   7.038   7.141
    5AU     LIG 1801  16.817   7.251   7.163
    5AU       S 1802  17.885   7.611   6.929
    5AU     LIG 1803  17.812   7.819   6.787
    5AU     LIG 1804  17.670   7.998   6.702
    5AU     LIG 1805  17.539   8.153   6.537
    5AU       S 1806  17.366   6.553   7.449
    5AU     LIG 1807  17.089   6.543   7.337
    5AU     LIG 1808  16.846   6.525   7.332
    5AU     LIG 1809  16.612   6.404   7.284
    5AU       S 1810  17.557   6.872   8.097
    5AU     LIG 1811  17.244   6.976   8.182
    5AU     LIG 1812  17.127   7.188   8.094
    5AU     LIG 1813  16.947   7.335   7.968
    5AU       S 1814  19.549   5.988   7.606
    5AU     LIG 1815  19.683   5.686   7.622
    5AU     LIG 1816  19.911   5.620   7.697
    5AU     LIG 1817  20.182   5.606   7.655
    5AU       S 1818  19.393   5.927   8.066
    5AU     LIG 1819  19.640   5.791   8.105
    5AU     LIG 1820  19.770   5.703   8.287
    5AU     LIG 1821  19.817   5.633   8.537
    5AU       S 1822  19.806   6.138   7.519
    5AU     LIG 1823  20.029   6.016   7.383
    5AU     LIG 1824  20.270   6.017   7.343
    5AU     LIG 1825  20.511   5.945   7.280
    5AU       S 1826  19.498   5.995   6.925
    5AU     LIG 1827  19.563   5.735   6.822
    5AU     LIG 1828  19.436   5.512   6.774
    5AU     LIG 1829  19.395   5.293   6.659
    5AU       S 1830  17.863   6.170   6.817
    5AU     LIG 1831  17.630   6.180   6.620
    5AU     LIG 1832  17.453   6.063   6.527
    5AU     LIG 1833  17.247   5.905   6.465
    5AU       S 1834  17.448   6.262   7.583
    5AU     LIG 1835  17.231   6.096   7.588
    5AU     LIG 1836  17.004   6.048   7.482
    5AU     LIG 1837  16.771   5.944   7.441
    5AU       S 1838  17.860   6.041   8.082
    5AU     LIG 1839  17.684   5.833   8.068
    5AU     LIG 1840  17.564   5.647   8.174
    5AU     LIG 1841  17.431   5.461   8.287
    5AU       S 1842  17.390   6.557   7.713
    5AU     LIG 1843  17.156   6.529   7.888
    5AU     LIG 1844  16.917   6.437   7.835
    5AU     LIG 1845  16.708   6.302   7.809
    5AU       S 1846  18.059   7.756   7.989
    5AU     LIG 1847  17.824   7.945   8.062
    5AU     LIG 1848  17.599   7.908   8.206
    5AU     LIG 1849  17.467   7.985   8.412
    5AU       S 1850  18.802   7.942   8.053
    5AU     LIG 1851  18.913   8.129   8.255
    5AU     LIG 1852  18.801   8.319   8.380
    5AU     LIG 1853  18.656   8.520   8.444
    5AU       S 1854  18.564   8.077   7.925
    5AU     LIG 1855  18.475   8.302   7.968
    5AU     LIG 1856  18.449   8.561   7.984
    5AU     LIG 1857  18.458   8.812   8.012
    5AU       S 1858  18.729   7.920   7.131
    5AU     LIG 1859  18.795   8.189   7.146
    5AU     LIG 1860  18.829   8.421   7.130
    5AU     LIG 1861  18.892   8.664   7.042
    5AU       S 1862  19.239   7.432   8.364
    5AU     LIG 1863  19.314   7.651   8.543
    5AU     LIG 1864  19.415   7.732   8.736
    5AU     LIG 1865  19.541   7.750   8.967
    5AU       S 1866  18.941   7.993   7.734
    5AU     LIG 1867  18.973   8.266   7.718
    5AU     LIG 1868  18.948   8.476   7.875
    5AU     LIG 1869  18.960   8.660   8.040
    5AU       S 1870  18.662   5.583   8.062
    5AU     LIG 1871  18.781   5.377   8.213
    5AU     LIG 1872  18.769   5.170   8.334
    5AU     LIG 1873  18.750   4.933   8.434
    5AU       S 1874  19.145   5.816   7.902
    5AU     LIG 1875  19.249   5.512   7.827
    5AU     LIG 1876  19.409   5.378   7.925
    5AU     LIG 1877  19.621   5.278   8.057
    5AU       S 1878  18.410   5.497   7.896
    5AU     LIG 1879  18.361   5.230   7.918
    5AU     LIG 1880  18.383   5.012   8.033
    5AU     LIG 1881  18.373   4.774   8.129
    5AU       S 1882  18.004   6.123   8.386
    5AU     LIG 1883  17.877   5.905   8.570
    5AU     LIG 1884  17.740   5.731   8.640
    5AU     LIG 1885  17.603   5.537   8.762
    5AU       S 1886  18.728   5.593   7.221
    5AU     LIG 1887  18.667   5.265   7.210
    5AU     LIG 1888  18.652   5.069   7.090
    5AU     LIG 1889  18.652   4.802   7.027
    5AU       S 1890  18.742   5.546   7.758
    5AU     LIG 1891  18.842   5.244   7.712
    5AU     LIG 1892  18.855   5.047   7.838
    5AU     LIG 1893  18.849   4.801   7.941
    5AU       S 1894  18.581   7.840   6.835
    5AU     LIG 1895  18.587   8.069   6.681
    5AU     LIG 1896  18.710   8.285   6.641
    5AU     LIG 1897  18.776   8.519   6.564
    5AU       S 1898  19.420   7.616   6.958
    5AU     LIG 1899  19.618   7.820   6.901
    5AU     LIG 1900  19.777   7.894   6.721
    5AU     LIG 1901  19.925   8.016   6.558
    5AU       S 1902  18.378   7.861   7.112
    5AU     LIG 1903  18.266   8.139   7.085
    5AU     LIG 1904  18.323   8.365   6.998
    5AU     LIG 1905  18.397   8.590   6.907
    5AU       S 1906  17.940   7.271   6.654
    5AU     LIG 1907  17.880   7.406   6.415
    5AU     LIG 1908  17.890   7.636   6.319
    5AU     LIG 1909  17.863   7.875   6.239
    5AU       S 1910  17.885   5.939   7.029
    5AU     LIG 1911  17.628   5.766   6.950
    5AU     LIG 1912  17.541   5.624   6.784
    5AU     LIG 1913  17.455   5.451   6.606
    5AU       S 1914  18.798   5.632   6.941
    5AU     LIG 1915  18.915   5.453   6.769
    5AU     LIG 1916  18.888   5.243   6.646
    5AU     LIG 1917  18.812   5.005   6.582
    5AU       S 1918  18.991   5.633   7.324
    5AU     LIG 1919  19.155   5.392   7.293
    5AU     LIG 1920  19.162   5.186   7.128
    5AU     LIG 1921  19.147   4.969   6.984
    5AU       S 1922  19.252   6.142   6.673
    5AU     LIG 1923  19.238   5.964   6.470
    5AU     LIG 1924  19.228   5.736   6.376
    5AU     LIG 1925  19.279   5.533   6.221
    6AU     AUC 1926  34.957  19.587   7.535
    6AU     AUC 1927  35.209  19.592   7.369
    6AU     AUC 1928  35.198  19.579   7.699
    6AU     AUC 1929  34.687  19.595   7.380
    6AU     AUC 1930  34.713  19.624   7.705
    6AU     AUC 1931  34.796  19.840   7.513
    6AU     AUC 1932  35.143  19.852   7.516
    6AU     AUC 1933  34.778  19.333   7.543
    6AU     AUC 1934  35.109  19.311   7.545
    6AU     AUC 1935  34.951  19.427   7.798
    6AU     AUC 1936  34.970  19.767   7.779
    6AU     AUC 1937  34.944  19.414   7.287
    6AU     AUC 1938  34.964  19.720   7.271
    6AU     AUC 1939  35.512  19.583   7.204
    6AU     AUC 1940  35.520  19.563   7.545
    6AU     AUC 1941  35.478  19.550   7.899
    6AU     AUC 1942  34.385  19.569   7.228
    6AU     AUC 1943  34.384  19.628   7.556
    6AU     AUC 1944  34.413  19.667   7.888
    6AU     AUC 1945  34.631  20.153   7.474
    6AU     AUC 1946  34.991  20.127   7.457
    6AU     AUC 1947  35.357  20.115   7.487
    6AU     AUC 1948  34.574  19.044   7.548
    6AU     AUC 1949  34.925  19.020   7.529
    6AU     AUC 1950  35.281  19.009   7.546
    6AU     AUC 1951  34.910  19.261   8.101
    6AU     AUC 1952  34.947  19.603   8.101
    6AU     AUC 1953  35.004  19.967   8.062
    6AU     AUC 1954  34.975  19.224   6.997
    6AU     AUC 1955  34.923  19.565   6.973
    6AU     AUC 1956  34.920  19.888   6.957
    6AU     AUC 1957  35.192  19.365   8.012
    6AU     AUC 1958  35.248  19.741   7.987
    6AU     AUC 1959  35.247  19.427   7.072
    6AU     AUC 1960  35.212  19.739   7.079
    6AU     AUC 1961  34.658  19.485   8.000
    6AU     AUC 1962  34.705  19.835   7.971
    6AU     AUC 1963  34.669  19.384   7.103
    6AU     AUC 1964  34.623  19.712   7.083
    6AU     AUC 1965  35.450  19.855   7.346
    6AU     AUC 1966  35.416  19.852   7.705
    6AU     AUC 1967  34.491  19.867   7.383
    6AU     AUC 1968  34.536  19.933   7.713
    6AU     AUC 1969  35.413  19.304   7.407
    6AU     AUC 1970  35.361  19.258   7.739
    6AU     AUC 1971  34.492  19.281   7.373
    6AU     AUC 1972  34.518  19.355   7.716
    6AU     AUC 1973  34.856  20.085   7.782
    6AU     AUC 1974  35.195  20.040   7.793
    6AU     AUC 1975  34.743  19.152   7.817
    6AU     AUC 1976  35.061  19.099   7.809
    6AU     AUC 1977  34.766  20.018   7.215
    6AU     AUC 1978  35.131  20.034   7.226
    6AU     AUC 1979  34.797  19.120   7.258
    6AU     AUC 1980  35.157  19.165   7.274
    6AU    AUSL 1981  35.456  19.455   8.316
    6AU    AUSL 1982  35.206  19.082   8.222
    6AU     AUL 1983  35.513  19.083   8.389
    6AU    AUSL 1984  35.041  19.397   8.460
    6AU    AUSL 1985  34.803  19.806   8.451
    6AU     AUL 1986  35.039  19.681   8.710
    6AU    AUSL 1987  35.140  19.754   8.204
    6AU    AUSL 1988  35.591  19.813   8.126
    6AU     AUL 1989  35.409  19.778   8.435
    6AU    AUSL 1990  35.364  19.615   6.840
    6AU    AUSL 1991  35.225  20.011   6.981
    6AU     AUL 1992  35.439  19.943   6.681
    6AU    AUSL 1993  35.176  19.293   6.612
    6AU    AUSL 1994  35.683  19.363   6.982
    6AU     AUL 1995  35.551  19.437   6.665
    6AU    AUSL 1996  35.008  19.797   6.670
    6AU    AUSL 1997  34.830  19.411   6.829
    6AU     AUL 1998  34.961  19.490   6.524
    6AU    AUSL 1999  34.419  19.768   8.243
    6AU    AUSL 2000  34.782  20.077   8.111
    6AU     AUL 2001  34.619  20.045   8.412
    6AU    AUSL 2002  34.720  19.455   8.191
    6AU    AUSL 2003  34.271  19.378   8.105
    6AU     AUL 2004  34.328  19.467   8.341
    6AU    AUSL 2005  34.394  19.393   6.795
    6AU    AUSL 2006  34.643  19.043   6.947
    6AU     AUL 2007  34.667  19.129   6.641
    6AU    AUSL 2008  34.580  19.761   6.675
    6AU    AUSL 2009  34.300  19.742   7.050
    6AU     AUL 2010  34.183  19.623   6.776
    6AU    AUSL 2011  35.748  20.050   7.476
    6AU    AUSL 2012  35.623  19.840   7.096
    6AU     AUL 2013  35.918  20.045   7.128
    6AU    AUSL 2014  35.913  19.654   7.367
    6AU    AUSL 2015  35.862  19.356   7.768
    6AU     AUL 2016  36.124  19.440   7.571
    6AU    AUSL 2017  35.635  19.709   7.718
    6AU    AUSL 2018  35.593  20.153   7.853
    6AU     AUL 2019  35.841  19.893   7.878
    6AU    AUSL 2020  34.382  20.230   7.522
    6AU    AUSL 2021  34.419  19.982   7.878
    6AU     AUL 2022  34.110  20.227   7.745
    6AU    AUSL 2023  34.181  19.851   7.444
    6AU    AUSL 2024  34.334  20.167   7.106
    6AU     AUL 2025  34.098  20.092   7.263
    6AU    AUSL 2026  34.054  19.773   7.888
    6AU    AUSL 2027  34.021  19.467   7.349
    6AU     AUL 2028  33.899  19.784   7.590
    6AU    AUSL 2029  35.640  19.007   7.615
    6AU    AUSL 2030  35.466  19.290   7.925
    6AU     AUL 2031  35.773  19.196   8.001
    6AU    AUSL 2032  35.598  19.377   7.397
    6AU    AUSL 2033  35.588  18.975   7.188
    6AU     AUL 2034  35.832  19.185   7.250
    6AU    AUSL 2035  34.174  19.088   7.553
    6AU    AUSL 2036  34.385  19.298   7.205
    6AU     AUL 2037  34.035  19.191   7.213
    6AU    AUSL 2038  34.291  19.489   7.694
    6AU    AUSL 2039  34.481  19.105   7.849
    6AU     AUL 2040  34.100  19.258   7.848
    6AU    AUSL 2041  35.023  20.413   7.966
    6AU    AUSL 2042  34.568  20.392   7.878
    6AU     AUL 2043  34.790  20.437   8.194
    6AU    AUSL 2044  34.855  20.268   7.591
    6AU    AUSL 2045  35.106  20.401   7.247
    6AU     AUL 2046  34.875  20.608   7.554
    6AU    AUSL 2047  35.293  20.344   7.623
    6AU    AUSL 2048  35.287  20.143   8.153
    6AU     AUL 2049  35.406  20.433   7.941
    6AU    AUSL 2050  34.881  18.947   7.970
    6AU    AUSL 2051  35.305  18.888   7.849
    6AU     AUL 2052  35.066  18.826   8.223
    6AU    AUSL 2053  34.573  18.725   7.699
    6AU    AUSL 2054  34.601  19.062   8.274
    6AU     AUL 2055  34.609  18.764   8.050
    6AU    AUSL 2056  35.005  18.650   7.667
    6AU    AUSL 2057  34.798  18.895   7.362
    6AU     AUL 2058  34.681  18.550   7.487
    6AU    AUSL 2059  34.933  20.286   6.843
    6AU    AUSL 2060  35.505  20.264   7.199
    6AU     AUL 2061  35.249  20.374   6.936
    6AU    AUSL 2062  34.684  20.380   7.210
    6AU    AUSL 2063  34.707  19.969   7.014
    6AU     AUL 2064  34.614  20.275   6.856
    6AU    AUSL 2065  35.023  18.843   6.981
    6AU    AUSL 2066  34.390  18.857   7.258
    6AU     AUL 2067  34.686  18.709   7.043
    6AU    AUSL 2068  35.230  18.867   7.381
    6AU    AUSL 2069  35.253  19.200   7.018
    6AU     AUL 2070  35.347  18.827   7.050
    6AU       S 2071  35.478  18.632   8.227
    6AU     LIG 2072  35.525  18.398   8.352
    6AU     LIG 2073  35.647  18.238   8.479
    6AU     LIG 2074  35.805  18.061   8.590
    6AU       S 2075  35.512  19.422   8.719
    6AU     LIG 2076  35.675  19.480   8.921
    6AU     LIG 2077  35.765  19.536   9.146
    6AU     LIG 2078  35.871  19.503   9.383
    6AU       S 2079  35.190  19.229   8.725
    6AU     LIG 2080  35.246  19.135   9.005
    6AU     LIG 2081  35.412  19.151   9.203
    6AU     LIG 2082  35.546  19.106   9.419
    6AU       S 2083  34.565  19.719   8.757
    6AU     LIG 2084  34.528  19.743   9.059
    6AU     LIG 2085  34.410  19.728   9.261
    6AU     LIG 2086  34.262  19.705   9.479
    6AU       S 2087  35.090  20.153   8.566
    6AU     LIG 2088  35.207  20.290   8.771
    6AU     LIG 2089  35.420  20.210   8.933
    6AU     LIG 2090  35.643  20.084   8.947
    6AU       S 2091  35.782  20.045   8.334
    6AU     LIG 2092  35.965  20.085   8.555
    6AU     LIG 2093  36.105  20.242   8.669
    6AU     LIG 2094  36.281  20.418   8.744
    6AU       S 2095  35.383  19.674   6.306
    6AU     LIG 2096  35.598  19.729   6.093
    6AU     LIG 2097  35.732  19.563   5.955
    6AU     LIG 2098  35.792  19.372   5.795
    6AU       S 2099  35.598  20.374   6.652
    6AU     LIG 2100  35.644  20.567   6.462
    6AU     LIG 2101  35.807  20.657   6.288
    6AU     LIG 2102  35.972  20.748   6.123
    6AU       S 2103  35.858  19.085   6.768
    6AU     LIG 2104  36.020  18.998   6.527
    6AU     LIG 2105  36.034  18.779   6.388
    6AU     LIG 2106  36.050  18.524   6.348
    6AU       S 2107  35.304  19.379   6.240
    6AU     LIG 2108  35.326  19.255   6.011
    6AU     LIG 2109  35.313  19.182   5.771
    6AU     LIG 2110  35.384  19.162   5.521
    6AU       S 2111  34.570  19.439   6.303
    6AU     LIG 2112  34.625  19.406   6.024
    6AU     LIG 2113  34.631  19.352   5.795
    6AU     LIG 2114  34.555  19.311   5.540
    6AU       S 2115  35.140  19.820   6.264
    6AU     LIG 2116  35.041  19.754   5.973
    6AU     LIG 2117  35.183  19.679   5.780
    6AU     LIG 2118  35.376  19.671   5.607
    6AU       S 2119  34.289  19.807   8.643
    6AU     LIG 2120  34.078  19.782   8.819
    6AU     LIG 2121  34.024  19.566   8.977
    6AU     LIG 2122  33.954  19.434   9.166
    6AU       S 2123  34.320  20.365   8.268
    6AU     LIG 2124  34.234  20.520   8.501
    6AU     LIG 2125  34.093  20.531   8.694
    6AU     LIG 2126  33.924  20.620   8.877
    6AU       S 2127  34.043  19.099   8.284
    6AU     LIG 2128  33.797  19.030   8.381
    6AU     LIG 2129  33.652  18.838   8.457
    6AU     LIG 2130  33.525  18.656   8.575
    6AU       S 2131  34.614  19.427   8.684
    6AU     LIG 2132  34.537  19.251   8.887
    6AU     LIG 2133  34.424  19.231   9.105
    6AU     LIG 2134  34.379  19.217   9.361
    6AU       S 2135  34.308  19.351   6.418
    6AU     LIG 2136  34.129  19.281   6.208
    6AU     LIG 2137  34.118  19.352   5.957
    6AU     LIG 2138  34.106  19.462   5.737
    6AU       S 2139  34.342  18.803   6.745
    6AU     LIG 2140  34.268  18.616   6.540
    6AU     LIG 2141  34.110  18.574   6.354
    6AU     LIG 2142  33.926  18.525   6.184
    6AU       S 2143  33.972  20.029   6.798
    6AU     LIG 2144  33.765  20.198   6.744
    6AU     LIG 2145  33.713  20.397   6.588
    6AU     LIG 2146  33.689  20.520   6.367
    6AU       S 2147  34.470  19.707   6.393
    6AU     LIG 2148  34.303  19.808   6.139
    6AU     LIG 2149  34.386  19.845   5.913
    6AU     LIG 2150  34.494  19.825   5.679
    6AU       S 2151  35.829  20.188   6.708
    6AU     LIG 2152  36.044  20.234   6.537
    6AU     LIG 2153  36.201  20.346   6.389
    6AU     LIG 2154  36.382  20.465   6.245
    6AU       S 2155  36.081  20.164   7.556
    6AU     LIG 2156  36.294  20.368   7.540
    6AU     LIG 2157  36.538  20.412   7.511
    6AU     LIG 2158  36.791  20.475   7.532
    6AU       S 2159  36.257  19.865   7.388
    6AU     LIG 2160  36.526  19.936   7.293
    6AU     LIG 2161  36.766  20.002   7.306
    6AU     LIG 2162  36.988  20.116   7.226
    6AU       S 2163  36.121  18.986   7.790
    6AU     LIG 2164  36.356  18.884   7.920
    6AU     LIG 2165  36.609  18.879   7.859
    6AU     LIG 2166  36.858  18.847   7.780
    6AU       S 2167  35.818  20.293   8.127
    6AU     LIG 2168  36.013  20.470   8.210
    6AU     LIG 2169  36.058  20.669   8.357
    6AU     LIG 2170  36.077  20.848   8.540
    6AU       S 2171  36.228  19.897   7.663
    6AU     LIG 2172  36.466  19.968   7.814
    6AU     LIG 2173  36.703  20.035   7.811
    6AU     LIG 2174  36.933  20.125   7.878
    6AU       S 2175  34.154  20.142   8.203
    6AU     LIG 2176  33.915  20.134   8.380
    6AU     LIG 2177  33.729  20.273   8.444
    6AU     LIG 2178  33.553  20.392   8.594
    6AU       S 2179  34.321  20.566   7.463
    6AU     LIG 2180  34.161  20.774   7.335
    6AU     LIG 2181  33.915  20.754   7.239
    6AU     LIG 2182  33.727  20.597   7.123
    6AU       S 2183  33.757  19.785   7.139
    6AU     LIG 2184  33.519  19.790   7.071
    6AU     LIG 2185  33.264  19.866   7.141
    6AU     LIG 2186  33.119  20.079   7.163
    6AU       S 2187  34.187  20.439   6.929
    6AU     LIG 2188  34.114  20.647   6.787
    6AU     LIG 2189  33.972  20.826   6.702
    6AU     LIG 2190  33.841  20.981   6.537
    6AU       S 2191  33.668  19.381   7.449
    6AU     LIG 2192  33.391  19.371   7.337
    6AU     LIG 2193  33.148  19.353   7.332
    6AU     LIG 2194  32.914  19.232   7.284
    6AU       S 2195  33.859  19.700   8.097
    6AU     LIG 2196  33.546  19.804   8.182
    6AU     LIG 2197  33.429  20.016   8.094
    6AU     LIG 2198  33.249  20.163   7.968
    6AU       S 2199  35.851  18.816   7.606
    6AU     LIG 2200  35.985  18.514   7.622
    6AU     LIG 2201  36.213  18.448   7.697
    6AU     LIG 2202  36.484  18.434   7.655
    6AU       S 2203  35.695  18.755   8.066
    6AU     LIG 2204  35.942  18.619   8.105
    6AU     LIG 2205  36.072  18.531   8.287
    6AU     LIG 2206  36.119  18.461   8.537
    6AU       S 2207  36.108  18.966   7.519
    6AU     LIG 2208  36.331  18.844   7.383
    6AU     LIG 2209  36.572  18.845   7.343
    6AU     LIG 2210  36.813  18.773   7.280
    6AU       S 2211  35.800  18.823   6.925
    6AU     LIG 2212  35.865  18.563   6.822
    6AU     LIG 2213  35.738  18.340   6.774
    6AU     LIG 2214  35.697  18.121   6.659
    6AU       S 2215  34.165  18.998   6.817
    6AU     LIG 2216  33.932  19.008   6.620
    6AU     LIG 2217  33.755  18.891   6.527
    6AU     LIG 2218  33.549  18.733   6.465
    6AU       S 2219  33.750  19.090   7.583
    6AU     LIG 2220  33.533  18.924   7.588
    6AU     LIG 2221  33.306  18.876   7.482
    6AU     LIG 2222  33.073  18.772   7.441
    6AU       S 2223  34.162  18.869   8.082
    6AU     LIG 2224  33.986  18.661   8.068
    6AU     LIG 2225  33.866  18.475   8.174
    6AU     LIG 2226  33.733  18.289   8.287
    6AU       S 2227  33.692  19.385   7.713
    6AU     LIG 2228  33.458  19.357   7.888
    6AU     LIG 2229  33.219  19.265   7.835
    6AU     LIG 2230  33.010  19.130   7.809
    6AU       S 2231  34.361  20.584   7.989
    6AU     LIG 2232  34.126  20.773   8.062
    6AU     LIG 2233  33.901  20.736   8.206
    6AU     LIG 2234  33.769  20.813   8.412
    6AU       S 2235  35.104  20.770   8.053
    6AU     LIG 2236  35.215  20.957   8.255
    6AU     LIG 2237  35.103  21.147   8.380
    6AU     LIG 2238  34.958  21.348   8.444
    6AU       S 2239  34.866  20.905   7.925
    6AU     LIG 2240  34.777  21.130   7.968
    6AU     LIG 2241  34.751  21.389   7.984
    6AU     LIG 2242  34.760  21.640   8.012
    6AU       S 2243  35.031  20.748   7.131
    6AU     LIG 2244  35.097  21.017   7.146
    6AU     LIG 2245  35.131  21.249   7.130
    6AU     LIG 2246  35.194  21.492   7.042
    6AU       S 2247  35.541  20.260   8.364
    6AU     LIG 2248  35.616  20.479   8.543
    6AU     LIG 2249  35.717  20.560   8.736
    6AU     LIG 2250  35.843  20.578   8.967
    6AU       S 2251  35.243  20.821   7.734
    6AU     LIG 2252  35.275  21.094   7.718
    6AU     LIG 2253  35.250  21.304   7.875
    6AU     LIG 2254  35.262  21.488   8.040
    6AU       S 2255  34.964  18.411   8.062
    6AU     LIG 2256  35.083  18.205   8.213
    6AU     LIG 2257  35.071  17.998   8.334
    6AU     LIG 2258  35.052  17.761   8.434
    6AU       S 2259  35.447  18.644   7.902
    6AU     LIG 2260  35.551  18.340   7.827
    6AU     LIG 2261  35.711  18.206   7.925
    6AU     LIG 2262  35.923  18.106   8.057
    6AU       S 2263  34.712  18.325   7.896
    6AU     LIG 2264  34.663  18.058   7.918
    6AU     LIG 2265  34.685  17.840   8.033
    6AU     LIG 2266  34.675  17.602   8.129
    6AU       S 2267  34.306  18.951   8.386
    6AU     LIG 2268  34.179  18.733   8.570
    6AU     LIG 2269  34.042  18.559   8.640
    6AU     LIG 2270  33.905  18.365   8.762
    6AU       S 2271  35.030  18.421   7.221
    6AU     LIG 2272  34.969  18.093   7.210
    6AU     LIG 2273  34.954  17.897   7.090
    6AU     LIG 2274  34.954  17.630   7.027
    6AU       S 2275  35.044  18.374   7.758
    6AU     LIG 2276  35.144  18.072   7.712
    6AU     LIG 2277  35.157  17.875   7.838
    6AU     LIG 2278  35.151  17.629   7.941
    6AU       S 2279  34.883  20.668   6.835
    6AU     LIG 2280  34.889  20.897   6.681
    6AU     LIG 2281  35.012  21.113   6.641
    6AU     LIG 2282  35.078  21.347   6.564
    6AU       S 2283  35.722  20.444   6.958
    6AU     LIG 2284  35.920  20.648   6.901
    6AU     LIG 2285  36.079  20.722   6.721
    6AU     LIG 2286  36.227  20.844   6.558
    6AU       S 2287  34.680  20.689   7.112
    6AU     LIG 2288  34.568  20.967   7.085
    6AU     LIG 2289  34.625  21.193   6.998
    6AU     LIG 2290  34.699  21.418   6.907
    6AU       S 2291  34.242  20.099   6.654
    6AU     LIG 2292  34.182  20.234   6.415
    6AU     LIG 2293  34.192  20.464   6.319
    6AU     LIG 2294  34.165  20.703   6.239
    6AU       S 2295  34.187  18.767   7.029
    6AU     LIG 2296  33.930  18.594   6.950
    6AU     LIG 2297  33.843  18.452   6.784
    6AU     LIG 2298  33.757  18.279   6.606
    6AU       S 2299  35.100  18.460   6.941
    6AU     LIG 2300  35.217  18.281   6.769
    6AU     LIG 2301  35.190  18.071   6.646
    6AU     LIG 2302  35.114  17.833   6.582
    6AU       S 2303  35.293  18.461   7.324
    6AU     LIG 2304  35.457  18.220   7.293
    6AU     LIG 2305  35.464  18.014   7.128
    6AU     LIG 2306  35.449  17.797   6.984
    6AU       S 2307  35.554  18.970   6.673
    6AU     LIG 2308  35.540  18.792   6.470
    6AU     LIG 2309  35.530  18.564   6.376
    6AU     LIG 2310  35.581  18.361   6.221
    7AU     AUC 2311  21.922  19.943   7.535
    7AU     AUC 2312  22.174  19.948   7.369
    7AU     AUC 2313  22.163  19.935   7.699
    7AU     AUC 2314  21.652  19.951   7.380
    7AU     AUC 2315  21.678  19.980   7.705
    7AU     AUC 2316  21.761  20.196   7.513
    7AU     AUC 2317  22.108  20.208   7.516
    7AU     AUC 2318  21.743  19.689   7.543
    7AU     AUC 2319  22.074  19.667   7.545
    7AU     AUC 2320  21.916  19.783   7.798
    7AU     AUC 2321  21.935  20.123   7.779
    7AU     AUC 2322  21.909  19.770   7.287
    7AU     AUC 2323  21.929  20.076   7.271
    7AU     AUC 2324  22.477  19.939   7.204
    7AU     AUC 2325  22.485  19.919   7.545
    7AU     AUC 2326  22.443  19.906   7.899
    7AU     AUC 2327  21.350  19.925   7.228
    7AU     AUC 2328  21.349  19.984   7.556
    7AU     AUC 2329  21.378  20.023   7.888
    7AU     AUC 2330  21.596  20.509   7.474
    7AU     AUC 2331  21.956  20.483   7.457
    7AU     AUC 2332  22.322  20.471   7.487
    7AU     AUC 2333  21.539  19.400   7.548
    7AU     AUC 2334  21.890  19.376   7.529
    7AU     AUC 2335  22.246  19.365   7.546
    7AU     AUC 2336  21.875  19.617   8.101
    7AU     AUC 2337  21.912  19.959   8.101
    7AU     AUC 2338  21.969  20.323   8.062
    7AU     AUC 2339  21.940  19.580   6.997
    7AU     AUC 2340  21.888  19.921   6.973
    7AU     AUC 2341  21.885  20.244   6.957
    7AU     AUC 2342  22.157  19.721   8.012
    7AU     AUC 2343  22.213  20.097   7.987
    7AU     AUC 2344  22.212  19.783   7.072
    7AU     AUC 2345  22.177  20.095   7.079
    7AU     AUC 2346  21.623  19.841   8.000
    7AU     AUC 2347  21.670  20.191   7.971
    7AU     AUC 2348  21.634  19.740   7.103
    7AU     AUC 2349  21.588  20.068   7.083
    7AU     AUC 2350  22.415  20.211   7.346
    7AU     AUC 2351  22.381  20.208   7.705
    7AU     AUC 2352  21.456  20.223   7.383
    7AU     AUC 2353  21.501  20.289   7.713
    7AU     AUC 2354  22.378  19.660   7.407
    7AU     AUC 2355  22.326  19.614   7.739
    7AU     AUC 2356  21.457  19.637   7.373
    7AU     AUC 2357  21.483  19.711   7.716
    7AU     AUC 2358  21.821  20.441   7.782
    7AU     AUC 2359  22.160  20.396   7.793
    7AU     AUC 2360  21.708  19.508   7.817
    7AU     AUC 2361  22.026  19.455   7.809
    7AU     AUC 2362  21.731  20.374   7.215
    7AU     AUC 2363  22.096  20.390   7.226
    7AU     AUC 2364  21.762  19.476   7.258
    7AU     AUC 2365  22.122  19.521   7.274
    7AU    AUSL 2366  22.421  19.811   8.316
    7AU    AUSL 2367  22.171  19.438   8.222
    7AU     AUL 2368  22.478  19.439   8.389
    7AU    AUSL 2369  22.006  19.753   8.460
    7AU    AUSL 2370  21.768  20.162   8.451
    7AU     AUL 2371  22.004  20.037   8.710
    7AU    AUSL 2372  22.105  20.110   8.204
    7AU    AUSL 2373  22.556  20.169   8.126
    7AU     AUL 2374  22.374  20.134   8.435
    7AU    AUSL 2375  22.329  19.971   6.840
    7AU    AUSL 2376  22.190  20.367   6.981
    7AU     AUL 2377  22.404  20.299   6.681
    7AU    AUSL 2378  22.141  19.649   6.612
    7AU    AUSL 2379  22.648  19.719   6.982
    7AU     AUL 2380  22.516  19.793   6.665
    7AU    AUSL 2381  21.973  20.153   6.670
    7AU    AUSL 2382  21.795  19.767   6.829
    7AU     AUL 2383  21.926  19.846   6.524
    7AU    AUSL 2384  21.384  20.124   8.243
    7AU    AUSL 2385  21.747  20.433   8.111
    7AU     AUL 2386  21.584  20.401   8.412
    7AU    AUSL 2387  21.685  19.811   8.191
    7AU    AUSL 2388  21.236  19.734   8.105
    7AU     AUL 2389  21.293  19.823   8.341
    7AU    AUSL 2390  21.359  19.749   6.795
    7AU    AUSL 2391  21.608  19.399   6.947
    7AU     AUL 2392  21.632  19.485   6.641
    7AU    AUSL 2393  21.545  20.117   6.675
    7AU    AUSL 2394  21.265  20.098   7.050
    7AU     AUL 2395  21.148  19.979   6.776
    7AU    AUSL 2396  22.713  20.406   7.476
    7AU    AUSL 2397  22.588  20.196   7.096
    7AU     AUL 2398  22.883  20.401   7.128
    7AU    AUSL 2399  22.878  20.010   7.367
    7AU    AUSL 2400  22.827  19.712   7.768
    7AU     AUL 2401  23.089  19.796   7.571
    7AU    AUSL 2402  22.600  20.065   7.718
    7AU    AUSL 2403  22.558  20.509   7.853
    7AU     AUL 2404  22.806  20.249   7.878
    7AU    AUSL 2405  21.347  20.586   7.522
    7AU    AUSL 2406  21.384  20.338   7.878
    7AU     AUL 2407  21.075  20.583   7.745
    7AU    AUSL 2408  21.146  20.207   7.444
    7AU    AUSL 2409  21.299  20.523   7.106
    7AU     AUL 2410  21.063  20.448   7.263
    7AU    AUSL 2411  21.019  20.129   7.888
    7AU    AUSL 2412  20.986  19.823   7.349
    7AU     AUL 2413  20.864  20.140   7.590
    7AU    AUSL 2414  22.605  19.363   7.615
    7AU    AUSL 2415  22.431  19.646   7.925
    7AU     AUL 2416  22.738  19.552   8.001
    7AU    AUSL 2417  22.563  19.733   7.397
    7AU    AUSL 2418  22.553  19.331   7.188
    7AU     AUL 2419  22.797  19.541   7.250
    7AU    AUSL 2420  21.139  19.444   7.553
    7AU    AUSL 2421  21.350  19.654   7.205
    7AU     AUL 2422  21.000  19.547   7.213
    7AU    AUSL 2423  21.256  19.845   7.694
    7AU    AUSL 2424  21.446  19.461   7.849
    7AU     AUL 2425  21.065  19.614   7.848
    7AU    AUSL 2426  21.988  20.769   7.966
    7AU    AUSL 2427  21.533  20.748   7.878
    7AU     AUL 2428  21.755  20.793   8.194
    7AU    AUSL 2429  21.820  20.624   7.591
    7AU    AUSL 2430  22.071  20.757   7.247
    7AU     AUL 2431  21.840  20.964   7.554
    7AU    AUSL 2432  22.258  20.700   7.623
    7AU    AUSL 2433  22.252  20.499   8.153
    7AU     AUL 2434  22.371  20.789   7.941
    7AU    AUSL 2435  21.846  19.303   7.970
    7AU    AUSL 2436  22.270  19.244   7.849
    7AU     AUL 2437  22.031  19.182   8.223
    7AU    AUSL 2438  21.538  19.081   7.699
    7AU    AUSL 2439  21.566  19.418   8.274
    7AU     AUL 2440  21.574  19.120   8.050
    7AU    AUSL 2441  21.970  19.006   7.667
    7AU    AUSL 2442  21.763  19.251   7.362
    7AU     AUL 2443  21.646  18.906   7.487
    7AU    AUSL 2444  21.898  20.642   6.843
    7AU    AUSL 2445  22.470  20.620   7.199
    7AU     AUL 2446  22.214  20.730   6.936
    7AU    AUSL 2447  21.649  20.736   7.210
    7AU    AUSL 2448  21.672  20.325   7.014
    7AU     AUL 2449  21.579  20.631   6.856
    7AU    AUSL 2450  21.988  19.199   6.981
    7AU    AUSL 2451  21.355  19.213   7.258
    7AU     AUL 2452  21.651  19.065   7.043
    7AU    AUSL 2453  22.195  19.223   7.381
    7AU    AUSL 2454  22.218  19.556   7.018
    7AU     AUL 2455  22.312  19.183   7.050
    7AU       S 2456  22.443  18.988   8.227
    7AU     LIG 2457  22.490  18.754   8.352
    7AU     LIG 2458  22.612  18.594   8.479
    7AU     LIG 2459  22.770  18.417   8.590
    7AU       S 2460  22.477  19.778   8.719
    7AU     LIG 2461  22.640  19.836   8.921
    7AU     LIG 2462  22.730  19.892   9.146
    7AU     LIG 2463  22.836  19.859   9.383
    7AU       S 2464  22.155  19.585   8.725
    7AU     LIG 2465  22.211  19.491   9.005
    7AU     LIG 2466  22.377  19.507   9.203
    7AU     LIG 2467  22.511  19.462   9.419
    7AU       S 2468  21.530  20.075   8.757
    7AU     LIG 2469  21.493  20.099   9.059
    7AU     LIG 2470  21.375  20.084   9.261
    7AU     LIG 2471  21.227  20.061   9.479
    7AU       S 2472  22.055  20.509   8.566
    7AU     LIG 2473  22.172  20.646   8.771
    7AU     LIG 2474  22.385  20.566   8.933
    7AU     LIG 2475  22.608  20.440   8.947
    7AU       S 2476  22.747  20.401   8.334
    7AU     LIG 2477  22.930  20.441   8.555
    7AU     LIG 2478  23.070  20.598   8.669
    7AU     LIG 2479  23.246  20.774   8.744
    7AU       S 2480  22.348  20.030   6.306
    7AU     LIG 2481  22.563  20.085   6.093
    7AU     LIG 2482  22.697  19.919   5.955
    7AU     LIG 2483  22.757  19.728   5.795
    7AU       S 2484  22.563  20.730   6.652
    7AU     LIG 2485  22.609  20.923   6.462
    7AU     LIG 2486  22.772  21.013   6.288
    7AU     LIG 2487  22.937  21.104   6.123
    7AU       S 2488  22.823  19.441   6.768
    7AU     LIG 2489  22.985  19.354   6.527
    7AU     LIG 2490  22.999  19.135   6.388
    7AU     LIG 2491  23.015  18.880   6.348
    7AU       S 2492  22.269  19.735   6.240
    7AU     LIG 2493  22.291  19.611   6.011
    7AU     LIG 2494  22.278  19.538   5.771
    7AU     LIG 2495  22.349  19.518   5.521
    7AU       S 2496  21.535  19.795   6.303
    7AU     LIG 2497  21.590  19.762   6.024
    7AU     LIG 2498  21.596  19.708   5.795
    7AU     LIG 2499  21.520  19.667   5.540
    7AU       S 2500  22.105  20.176   6.264
    7AU     LIG 2501  22.006  20.110   5.973
    7AU     LIG 2502  22.148  20.035   5.780
    7AU     LIG 2503  22.341  20.027   5.607
    7AU       S 2504  21.254  20.163   8.643
    7AU     LIG 2505  21.043  20.138   8.819
    7AU     LIG 2506  20.989  19.922   8.977
    7AU     LIG 2507  20.919  19.790   9.166
    7AU       S 2508  21.285  20.721   8.268
    7AU     LIG 2509  21.199  20.876   8.501
    7AU     LIG 2510  21.058  20.887   8.694
    7AU     LIG 2511  20.889  20.976   8.877
    7AU       S 2512  21.008  19.455   8.284
    7AU     LIG 2513  20.762  19.386   8.381
    7AU     LIG 2514  20.617  19.194   8.457
    7AU     LIG 2515  20.490  19.012   8.575
    7AU       S 2516  21.579  19.783   8.684
    7AU     LIG 2517  21.502  19.607   8.887
    7AU     LIG 2518  21.389  19.587   9.105
    7AU     LIG 2519  21.344  19.573   9.361
    7AU       S 2520  21.273  19.707   6.418
    7AU     LIG 2521  21.094  19.637   6.208
    7AU     LIG 2522  21.083  19.708   5.957
    7AU     LIG 2523  21.071  19.818   5.737
    7AU       S 2524  21.307  19.159   6.745
    7AU     LIG 2525  21.233  18.972   6.540
    7AU     LIG 2526  21.075  18.930   6.354
    7AU     LIG 2527  20.891  18.881   6.184
    7AU       S 2528  20.937  20.385   6.798
    7AU     LIG 2529  20.730  20.554   6.744
    7AU     LIG 2530  20.678  20.753   6.588
    7AU     LIG 2531  20.654  20.876   6.367
    7AU       S 2532  21.435  20.063   6.393
    7AU     LIG 2533  21.268  20.164   6.139
    7AU     LIG 2534  21.351  20.201   5.913
    7AU     LIG 2535  21.459  20.181   5.679
    7AU       S 2536  22.794  20.544   6.708
    7AU     LIG 2537  23.009  20.590   6.537
    7AU     LIG 2538  23.166  20.702   6.389
    7AU     LIG 2539  23.347  20.821   6.245
    7AU       S 2540  23.046  20.520   7.556
    7AU     LIG 2541  23.259  20.724   7.540
    7AU     LIG 2542  23.503  20.768   7.511
    7AU     LIG 2543  23.756  20.831   7.532
    7AU       S 2544  23.222  20.221   7.388
    7AU     LIG 2545  23.491  20.292   7.293
    7AU     LIG 2546  23.731  20.358   7.306
    7AU     LIG 2547  23.953  20.472   7.226
    7AU       S 2548  23.086  19.342   7.790
    7AU     LIG 2549  23.321  19.240   7.920
    7AU     LIG 2550  23.574  19.235   7.859
    7AU     LIG 2551  23.823  19.203   7.780
    7AU       S 2552  22.783  20.649   8.127
    7AU     LIG 2553  22.978  20.826   8.210
    7AU     LIG 2554  23.023  21.025   8.357
    7AU     LIG 2555  23.042  21.204   8.540
    7AU       S 2556  23.193  20.253   7.663
    7AU     LIG 2557  23.431  20.324   7.814
    7AU     LIG 2558  23.668  20.391   7.811
    7AU     LIG 2559  23.898  20.481   7.878
    7AU       S 2560  21.119  20.498   8.203
    7AU     LIG 2561  20.880  20.490   8.380
    7AU     LIG 2562  20.694  20.629   8.444
    7AU     LIG 2563  20.518  20.748   8.594
    7AU       S 2564  21.286  20.922   7.463
    7AU     LIG 2565  21.126  21.130   7.335
    7AU     LIG 2566  20.880  21.110   7.239
    7AU     LIG 2567  20.692  20.953   7.123
    7AU       S 2568  20.722  20.141   7.139
    7AU     LIG 2569  20.484  20.146   7.071
    7AU     LIG 2570  20.229  20.222   7.141
    7AU     LIG 2571  20.084  20.435   7.163
    7AU       S 2572  21.152  20.795   6.929
    7AU     LIG 2573  21.079  21.003   6.787
    7AU     LIG 2574  20.937  21.182   6.702
    7AU     LIG 2575  20.806  21.337   6.537
    7AU       S 2576  20.633  19.737   7.449
    7AU     LIG 2577  20.356  19.727   7.337
    7AU     LIG 2578  20.113  19.709   7.332
    7AU     LIG 2579  19.879  19.588   7.284
    7AU       S 2580  20.824  20.056   8.097
    7AU     LIG 2581  20.511  20.160   8.182
    7AU     LIG 2582  20.394  20.372   8.094
    7AU     LIG 2583  20.214  20.519   7.968
    7AU       S 2584  22.816  19.172   7.606
    7AU     LIG 2585  22.950  18.870   7.622
    7AU     LIG 2586  23.178  18.804   7.697
    7AU     LIG 2587  23.449  18.790   7.655
    7AU       S 2588  22.660  19.111   8.066
    7AU     LIG 2589  22.907  18.975   8.105
    7AU     LIG 2590  23.037  18.887   8.287
    7AU     LIG 2591  23.084  18.817   8.537
    7AU       S 2592  23.073  19.322   7.519
    7AU     LIG 2593  23.296  19.200   7.383
    7AU     LIG 2594  23.537  19.201   7.343
    7AU     LIG 2595  23.778  19.129   7.280
    7AU       S 2596  22.765  19.179   6.925
    7AU     LIG 2597  22.830  18.919   6.822
    7AU     LIG 2598  22.703  18.696   6.774
    7AU     LIG 2599  22.662  18.477   6.659
    7AU       S 2600  21.130  19.354   6.817
    7AU     LIG 2601  20.897  19.364   6.620
    7AU     LIG 2602  20.720  19.247   6.527
    7AU     LIG 2603  20.514  19.089   6.465
    7AU       S 2604  20.715  19.446   7.583
    7AU     LIG 2605  20.498  19.280   7.588
    7AU     LIG 2606  20.271  19.232   7.482
    7AU     LIG 2607  20.038  19.128   7.441
    7AU       S 2608  21.127  19.225   8.082
    7AU     LIG 2609  20.951  19.017   8.068
    7AU     LIG 2610  20.831  18.831   8.174
    7AU     LIG 2611  20.698  18.645   8.287
    7AU       S 2612  20.657  19.741   7.713
    7AU     LIG 2613  20.423  19.713   7.888
    7AU     LIG 2614  20.184  19.621   7.835
    7AU     LIG 2615  19.975  19.486   7.809
    7AU       S 2616  21.326  20.940   7.989
    7AU     LIG 2617  21.091  21.129   8.062
    7AU     LIG 2618  20.866  21.092   8.206
    7AU     LIG 2619  20.734  21.169   8.412
    7AU       S 2620  22.069  21.126   8.053
    7AU     LIG 2621  22.180  21.313   8.255
    7AU     LIG 2622  22.068  21.503   8.380
    7AU     LIG 2623  21.923  21.704   8.444
    7AU       S 2624  21.831  21.261   7.925
    7AU     LIG 2625  21.742  21.486   7.968
    7AU     LIG 2626  21.716  21.745   7.984
    7AU     LIG 2627  21.725  21.996   8.012
    7AU       S 2628  21.996  21.104   7.131
    7AU     LIG 2629  22.062  21.373   7.146
    7AU     LIG 2630  22.096  21.605   7.130
    7AU     LIG 2631  22.159  21.848   7.042
    7AU       S 2632  22.506  20.616   8.364
    7AU     LIG 2633  22.581  20.835   8.543
    7AU     LIG 2634  22.682  20.916   8.736
    7AU     LIG 2635  22.808  20.934   8.967
    7AU       S 2636  22.208  21.177   7.734
    7AU     LIG 2637  22.240  21.450   7.718
    7AU     LIG 2638  22.215  21.660   7.875
    7AU     LIG 2639  22.227  21.844   8.040
    7AU       S 2640  21.929  18.767   8.062
    7AU     LIG 2641  22.048  18.561   8.213
    7AU     LIG 2642  22.036  18.354   8.334
    7AU     LIG 2643  22.017  18.117   8.434
    7AU       S 2644  22.412  19.000   7.902
    7AU     LIG 2645  22.516  18.696   7.827
    7AU     LIG 2646  22.676  18.562   7.925
    7AU     LIG 2647  22.888  18.462   8.057
    7AU       S 2648  21.677  18.681   7.896
    7AU     LIG 2649  21.628  18.414   7.918
    7AU     LIG 2650  21.650  18.196   8.033
    7AU     LIG 2651  21.640  17.958   8.129
    7AU       S 2652  21.271  19.307   8.386
    7AU     LIG 2653  21.144  19.089   8.570
    7AU     LIG 2654  21.007  18.915   8.640
    7AU     LIG 2655  20.870  18.721   8.762
    7AU       S 2656  21.995  18.777   7.221
    7AU     LIG 2657  21.934  18.449   7.210
    7AU     LIG 2658  21.919  18.253   7.090
    7AU     LIG 2659  21.919  17.986   7.027
    7AU       S 2660  22.009  18.730   7.758
    7AU     LIG 2661  22.109  18.428   7.712
    7AU     LIG 2662  22.122  18.231   7.838
    7AU     LIG 2663  22.116  17.985   7.941
    7AU       S 2664  21.848  21.024   6.835
    7AU     LIG 2665  21.854  21.253   6.681
    7AU     LIG 2666  21.977  21.469   6.641
    7AU     LIG 2667  22.043  21.703   6.564
    7AU       S 2668  22.687  20.800   6.958
    7AU     LIG 2669  22.885  21.004   6.901
    7AU     LIG 2670  23.044  21.078   6.721
    7AU     LIG 2671  23.192  21.200   6.558
    7AU       S 2672  21.645  21.045   7.112
    7AU     LIG 2673  21.533  21.323   7.085
    7AU     LIG 2674  21.590  21.549   6.998
    7AU     LIG 2675  21.664  21.774   6.907
    7AU       S 2676  21.207  20.455   6.654
    7AU     LIG 2677  21.147  20.590   6.415
    7AU     LIG 2678  21.157  20.820   6.319
    7AU     LIG 2679  21.130  21.059   6.239
    7AU       S 2680  21.152  19.123   7.029
    7AU     LIG 2681  20.895  18.950   6.950
    7AU     LIG 2682  20.808  18.808   6.784
    7AU     LIG 2683  20.722  18.635   6.606
    7AU       S 2684  22.065  18.816   6.941
    7AU     LIG 2685  22.182  18.637   6.769
    7AU     LIG 2686  22.155  18.427   6.646
    7AU     LIG 2687  22.079  18.189   6.582
    7AU       S 2688  22.258  18.817   7.324
    7AU     LIG 2689  22.422  18.576   7.293
    7AU     LIG 2690  22.429  18.370   7.128
    7AU     LIG 2691  22.414  18.153   6.984
    7AU       S 2692  22.519  19.326   6.673
    7AU     LIG 2693  22.505  19.148   6.470
    7AU     LIG 2694  22.495  18.920   6.376
    7AU     LIG 2695  22.546  18.717   6.221
    8AU     AUC 2696  14.890  15.831   7.535
    8AU     AUC 2697  15.142  15.836   7.369
    8AU     AUC 2698  15.131  15.823   7.699
    8AU     AUC 2699  14.620  15.839   7.380
    8AU     AUC 2700  14.646  15.868   7.705
    8AU     AUC 2701  14.729  16.084   7.513
    8AU     AUC 2702  15.076  16.096   7.516
    8AU     AUC 2703  14.711  15.577   7.543
    8AU     AUC 2704  15.042  15.555   7.545
    8AU     AUC 2705  14.884  15.671   7.798
    8AU     AUC 2706  14.903  16.011   7.779
    8AU     AUC 2707  14.877  15.658   7.287
    8AU     AUC 2708  14.897  15.964   7.271
    8AU     AUC 2709  15.445  15.827   7.204
    8AU     AUC 2710  15.453  15.807   7.545
    8AU     AUC 2711  15.411  15.794   7.899
    8AU     AUC 2712  14.318  15.813   7.228
    8AU     AUC 2713  14.317  15.872   7.556
    8AU     AUC 2714  14.346  15.911   7.888
    8AU     AUC 2715  14.564  16.397   7.474
    8AU     AUC 2716  14.924  16.371   7.457
    8AU     AUC 2717  15.290  16.359   7.487
    8AU     AUC 2718  14.507  15.288   7.548
    8AU     AUC 2719  14.858  15.264   7.529
    8AU     AUC 2720  15.214  15.253   7.546
    8AU     AUC 2721  14.843  15.505   8.101
    8AU     AUC 2722  14.880  15.847   8.101
    8AU     AUC 2723  14.937  16.211   8.062
    8AU     AUC 2724  14.908  15.468   6.997
    8AU     AUC 2725  14.856  15.809   6.973
    8AU     AUC 2726  14.853  16.132   6.957
    8AU     AUC 2727  15.125  15.609   8.012
    8AU     AUC 2728  15.181  15.985   7.987
    8AU     AUC 2729  15.180  15.671   7.072
    8AU     AUC 2730  15.145  15.983   7.079
    8AU     AUC 2731  14.591  15.729   8.000
    8AU     AUC 2732  14.638  16.079   7.971
    8AU     AUC 2733  14.602  15.628   7.103
    8AU     AUC 2734  14.556  15.956   7.083
    8AU     AUC 2735  15.383  16.099   7.346
    8AU     AUC 2736  15.349  16.096   7.705
    8AU     AUC 2737  14.424  16.111   7.383
    8AU     AUC 2738  14.469  16.177   7.713
    8AU     AUC 2739  15.346  15.548   7.407
    8AU     AUC 2740  15.294  15.502   7.739
    8AU     AUC 2741  14.425  15.525   7.373
    8AU     AUC 2742  14.451  15.599   7.716
    8AU     AUC 2743  14.789  16.329   7.782
    8AU     AUC 2744  15.128  16.284   7.793
    8AU     AUC 2745  14.676  15.396   7.817
    8AU     AUC 2746  14.994  15.343   7.809
    8AU     AUC 2747  14.699  16.262   7.215
    8AU     AUC 2748  15.064  16.278   7.226
    8AU     AUC 2749  14.730  15.364   7.258
    8AU     AUC 2750  15.090  15.409   7.274
    8AU    AUSL 2751  15.389  15.699   8.316
    8AU    AUSL 2752  15.139  15.326   8.222
    8AU     AUL 2753  15.446  15.327   8.389
    8AU    AUSL 2754  14.974  15.641   8.460
    8AU    AUSL 2755  14.736  16.050   8.451
    8AU     AUL 2756  14.972  15.925   8.710
    8AU    AUSL 2757  15.073  15.998   8.204
    8AU    AUSL 2758  15.524  16.057   8.126
    8AU     AUL 2759  15.342  16.022   8.435
    8AU    AUSL 2760  15.297  15.859   6.840
    8AU    AUSL 2761  15.158  16.255   6.981
    8AU     AUL 2762  15.372  16.187   6.681
    8AU    AUSL 2763  15.109  15.537   6.612
    8AU    AUSL 2764  15.616  15.607   6.982
    8AU     AUL 2765  15.484  15.681   6.665
    8AU    AUSL 2766  14.941  16.041   6.670
    8AU    AUSL 2767  14.763  15.655   6.829
    8AU     AUL 2768  14.894  15.734   6.524
    8AU    AUSL 2769  14.352  16.012   8.243
    8AU    AUSL 2770  14.715  16.321   8.111
    8AU     AUL 2771  14.552  16.289   8.412
    8AU    AUSL 2772  14.653  15.699   8.191
    8AU    AUSL 2773  14.204  15.622   8.105
    8AU     AUL 2774  14.261  15.711   8.341
    8AU    AUSL 2775  14.327  15.637   6.795
    8AU    AUSL 2776  14.576  15.287   6.947
    8AU     AUL 2777  14.600  15.373   6.641
    8AU    AUSL 2778  14.513  16.005   6.675
    8AU    AUSL 2779  14.233  15.986   7.050
    8AU     AUL 2780  14.116  15.867   6.776
    8AU    AUSL 2781  15.681  16.294   7.476
    8AU    AUSL 2782  15.556  16.084   7.096
    8AU     AUL 2783  15.851  16.289   7.128
    8AU    AUSL 2784  15.846  15.898   7.367
    8AU    AUSL 2785  15.795  15.600   7.768
    8AU     AUL 2786  16.057  15.684   7.571
    8AU    AUSL 2787  15.568  15.953   7.718
    8AU    AUSL 2788  15.526  16.397   7.853
    8AU     AUL 2789  15.774  16.137   7.878
    8AU    AUSL 2790  14.315  16.474   7.522
    8AU    AUSL 2791  14.352  16.226   7.878
    8AU     AUL 2792  14.043  16.471   7.745
    8AU    AUSL 2793  14.114  16.095   7.444
    8AU    AUSL 2794  14.267  16.411   7.106
    8AU     AUL 2795  14.031  16.336   7.263
    8AU    AUSL 2796  13.987  16.017   7.888
    8AU    AUSL 2797  13.954  15.711   7.349
    8AU     AUL 2798  13.832  16.028   7.590
    8AU    AUSL 2799  15.573  15.251   7.615
    8AU    AUSL 2800  15.399  15.534   7.925
    8AU     AUL 2801  15.706  15.440   8.001
    8AU    AUSL 2802  15.531  15.621   7.397
    8AU    AUSL 2803  15.521  15.219   7.188
    8AU     AUL 2804  15.765  15.429   7.250
    8AU    AUSL 2805  14.107  15.332   7.553
    8AU    AUSL 2806  14.318  15.542   7.205
    8AU     AUL 2807  13.968  15.435   7.213
    8AU    AUSL 2808  14.224  15.733   7.694
    8AU    AUSL 2809  14.414  15.349   7.849
    8AU     AUL 2810  14.033  15.502   7.848
    8AU    AUSL 2811  14.956  16.657   7.966
    8AU    AUSL 2812  14.501  16.636   7.878
    8AU     AUL 2813  14.723  16.681   8.194
    8AU    AUSL 2814  14.788  16.512   7.591
    8AU    AUSL 2815  15.039  16.645   7.247
    8AU     AUL 2816  14.808  16.852   7.554
    8AU    AUSL 2817  15.226  16.588   7.623
    8AU    AUSL 2818  15.220  16.387   8.153
    8AU     AUL 2819  15.339  16.677   7.941
    8AU    AUSL 2820  14.814  15.191   7.970
    8AU    AUSL 2821  15.238  15.132   7.849
    8AU     AUL 2822  14.999  15.070   8.223
    8AU    AUSL 2823  14.506  14.969   7.699
    8AU    AUSL 2824  14.534  15.306   8.274
    8AU     AUL 2825  14.542  15.008   8.050
    8AU    AUSL 2826  14.938  14.894   7.667
    8AU    AUSL 2827  14.731  15.139   7.362
    8AU     AUL 2828  14.614  14.794   7.487
    8AU    AUSL 2829  14.866  16.530   6.843
    8AU    AUSL 2830  15.438  16.508   7.199
    8AU     AUL 2831  15.182  16.618   6.936
    8AU    AUSL 2832  14.617  16.624   7.210
    8AU    AUSL 2833  14.640  16.213   7.014
    8AU     AUL 2834  14.547  16.519   6.856
    8AU    AUSL 2835  14.956  15.087   6.981
    8AU    AUSL 2836  14.323  15.101   7.258
    8AU     AUL 2837  14.619  14.953   7.043
    8AU    AUSL 2838  15.163  15.111   7.381
    8AU    AUSL 2839  15.186  15.444   7.018
    8AU     AUL 2840  15.280  15.071   7.050
    8AU       S 2841  15.411  14.876   8.227
    8AU     LIG 2842  15.458  14.642   8.352
    8AU     LIG 2843  15.580  14.482   8.479
    8AU     LIG 2844  15.738  14.305   8.590
    8AU       S 2845  15.445  15.666   8.719
    8AU     LIG 2846  15.608  15.724   8.921
    8AU     LIG 2847  15.698  15.780   9.146
    8AU     LIG 2848  15.804  15.747   9.383
    8AU       S 2849  15.123  15.473   8.725
    8AU     LIG 2850  15.179  15.379   9.005
    8AU     LIG 2851  15.345  15.395   9.203
    8AU     LIG 2852  15.479  15.350   9.419
    8AU       S 2853  14.498  15.963   8.757
    8AU     LIG 2854  14.461  15.987   9.059
    8AU     LIG 2855  14.343  15.972   9.261
    8AU     LIG 2856  14.195  15.949   9.479
    8AU       S 2857  15.023  16.397   8.566
    8AU     LIG 2858  15.140  16.534   8.771
    8AU     LIG 2859  15.353  16.454   8.933
    8AU     LIG 2860  15.576  16.328   8.947
    8AU       S 2861  15.715  16.289   8.334
    8AU     LIG 2862  15.898  16.329   8.555
    8AU     LIG 2863  16.038  16.486   8.669
    8AU     LIG 2864  16.214  16.662   8.744
    8AU       S 2865  15.316  15.918   6.306
    8AU     LIG 2866  15.531  15.973   6.093
    8AU     LIG 2867  15.665  15.807   5.955
    8AU     LIG 2868  15.725  15.616   5.795
    8AU       S 2869  15.531  16.618   6.652
    8AU     LIG 2870  15.577  16.811   6.462
    8AU     LIG 2871  15.740  16.901   6.288
    8AU     LIG 2872  15.905  16.992   6.123
    8AU       S 2873  15.791  15.329   6.768
    8AU     LIG 2874  15.953  15.242   6.527
    8AU     LIG 2875  15.967  15.023   6.388
    8AU     LIG 2876  15.983  14.768   6.348
    8AU       S 2877  15.237  15.623   6.240
    8AU     LIG 2878  15.259  15.499   6.011
    8AU     LIG 2879  15.246  15.426   5.771
    8AU     LIG 2880  15.317  15.406   5.521
    8AU       S 2881  14.503  15.683   6.303
    8AU     LIG 2882  14.558  15.650   6.024
    8AU     LIG 2883  14.564  15.596   5.795
    8AU     LIG 2884  14.488  15.555   5.540
    8AU       S 2885  15.073  16.064   6.264
    8AU     LIG 2886  14.974  15.998   5.973
    8AU     LIG 2887  15.116  15.923   5.780
    8AU     LIG 2888  15.309  15.915   5.607
    8AU       S 2889  14.222  16.051   8.643
    8AU     LIG 2890  14.011  16.026   8.819
    8AU     LIG 2891  13.957  15.810   8.977
    8AU     LIG 2892  13.887  15.678   9.166
    8AU       S 2893  14.253  16.609   8.268
    8AU     LIG 2894  14.167  16.764   8.501
    8AU     LIG 2895  14.026  16.775   8.694
    8AU     LIG 2896  13.857  16.864   8.877
    8AU       S 2897  13.976  15.343   8.284
    8AU     LIG 2898  13.730  15.274   8.381
    8AU     LIG 2899  13.585  15.082   8.457
    8AU     LIG 2900  13.458  14.900   8.575
    8AU       S 2901  14.547  15.671   8.684
    8AU     LIG 2902  14.470  15.495   8.887
    8AU     LIG 2903  14.357  15.475   9.105
    8AU     LIG 2904  14.312  15.461   9.361
    8AU       S 2905  14.241  15.595   6.418
    8AU     LIG 2906  14.062  15.525   6.208
    8AU     LIG 2907  14.051  15.596   5.957
    8AU     LIG 2908  14.039  15.706   5.737
    8AU       S 2909  14.275  15.047   6.745
    8AU     LIG 2910  14.201  14.860   6.540
    8AU     LIG 2911  14.043  14.818   6.354
    8AU     LIG 2912  13.859  14.769   6.184
    8AU       S 2913  13.905  16.273   6.798
    8AU     LIG 2914  13.698  16.442   6.744
    8AU     LIG 2915  13.646  16.641   6.588
    8AU     LIG 2916  13.622  16.764   6.367
    8AU       S 2917  14.403  15.951   6.393
    8AU     LIG 2918  14.236  16.052   6.139
    8AU     LIG 2919  14.319  16.089   5.913
    8AU     LIG 2920  14.427  16.069   5.679
    8AU       S 2921  15.762  16.432   6.708
    8AU     LIG 2922  15.977  16.478   6.537
    8AU     LIG 2923  16.134  16.590   6.389
    8AU     LIG 2924  16.315  16.709   6.245
    8AU       S 2925  16.014  16.408   7.556
    8AU     LIG 2926  16.227  16.612   7.540
    8AU     LIG 2927  16.471  16.656   7.511
    8AU     LIG 2928  16.724  16.719   7.532
    8AU       S 2929  16.190  16.109   7.388
    8AU     LIG 2930  16.459  16.180   7.293
    8AU     LIG 2931  16.699  16.246   7.306
    8AU     LIG 2932  16.921  16.360   7.226
    8AU       S 2933  16.054  15.230   7.790
    8AU     LIG 2934  16.289  15.128   7.920
    8AU     LIG 2935  16.542  15.123   7.859
    8AU     LIG 2936  16.791  15.091   7.780
    8AU       S 2937  15.751  16.537   8.127
    8AU     LIG 2938  15.946  16.714   8.210
    8AU     LIG 2939  15.991  16.913   8.357
    8AU     LIG 2940  16.010  17.092   8.540
    8AU       S 2941  16.161  16.141   7.663
    8AU     LIG 2942  16.399  16.212   7.814
    8AU     LIG 2943  16.636  16.279   7.811
    8AU     LIG 2944  16.866  16.369   7.878
    8AU       S 2945  14.087  16.386   8.203
    8AU     LIG 2946  13.848  16.378   8.380
    8AU     LIG 2947  13.662  16.517   8.444
    8AU     LIG 2948  13.486  16.636   8.594
    8AU       S 2949  14.254  16.810   7.463
    8AU     LIG 2950  14.094  17.018   7.335
    8AU     LIG 2951  13.848  16.998   7.239
    8AU     LIG 2952  13.660  16.841   7.123
    8AU       S 2953  13.690  16.029   7.139
    8AU     LIG 2954  13.452  16.034   7.071
    8AU     LIG 2955  13.197  16.110   7.141
    8AU     LIG 2956  13.052  16.323   7.163
    8AU       S 2957  14.120  16.683   6.929
    8AU     LIG 2958  14.047  16.891   6.787
    8AU     LIG 2959  13.905  17.070   6.702
    8AU     LIG 2960  13.774  17.225   6.537
    8AU       S 2961  13.601  15.625   7.449
    8AU     LIG 2962  13.324  15.615   7.337
    8AU     LIG 2963  13.081  15.597   7.332
    8AU     LIG 2964  12.847  15.476   7.284
    8AU       S 2965  13.792  15.944   8.097
    8AU     LIG 2966  13.479  16.048   8.182
    8AU     LIG 2967  13.362  16.260   8.094
    8AU     LIG 2968  13.182  16.407   7.968
    8AU       S 2969  15.784  15.060   7.606
    8AU     LIG 2970  15.918  14.758   7.622
    8AU     LIG 2971  16.146  14.692   7.697
    8AU     LIG 2972  16.417  14.678   7.655
    8AU       S 2973  15.628  14.999   8.066
    8AU     LIG 2974  15.875  14.863   8.105
    8AU     LIG 2975  16.005  14.775   8.287
    8AU     LIG 2976  16.052  14.705   8.537
    8AU       S 2977  16.041  15.210   7.519
    8AU     LIG 2978  16.264  15.088   7.383
    8AU     LIG 2979  16.505  15.089   7.343
    8AU     LIG 2980  16.746  15.017   7.280
    8AU       S 2981  15.733  15.067   6.925
    8AU     LIG 2982  15.798  14.807   6.822
    8AU     LIG 2983  15.671  14.584   6.774
    8AU     LIG 2984  15.630  14.365   6.659
    8AU       S 2985  14.098  15.242   6.817
    8AU     LIG 2986  13.865  15.252   6.620
    8AU     LIG 2987  13.688  15.135   6.527
    8AU     LIG 2988  13.482  14.977   6.465
    8AU       S 2989  13.683  15.334   7.583
    8AU     LIG 2990  13.466  15.168   7.588
    8AU     LIG 2991  13.239  15.120   7.482
    8AU     LIG 2992  13.006  15.016   7.441
    8AU       S 2993  14.095  15.113   8.082
    8AU     LIG 2994  13.919  14.905   8.068
    8AU     LIG 2995  13.799  14.719   8.174
    8AU     LIG 2996  13.666  14.533   8.287
    8AU       S 2997  13.625  15.629   7.713
    8AU     LIG 2998  13.391  15.601   7.888
    8AU     LIG 2999  13.152  15.509   7.835
    8AU     LIG 3000  12.943  15.374   7.809
    8AU       S 3001  14.294  16.828   7.989
    8AU     LIG 3002  14.059  17.017   8.062
    8AU     LIG 3003  13.834  16.980   8.206
    8AU     LIG 3004  13.702  17.057   8.412
    8AU       S 3005  15.037  17.014   8.053
    8AU     LIG 3006  15.148  17.201   8.255
    8AU     LIG 3007  15.036  17.391   8.380
    8AU     LIG 3008  14.891  17.592   8.444
    8AU       S 3009  14.799  17.149   7.925
    8AU     LIG 3010  14.710  17.374   7.968
    8AU     LIG 3011  14.684  17.633   7.984
    8AU     LIG 3012  14.693  17.884   8.012
    8AU       S 3013  14.964  16.992   7.131
    8AU     LIG 3014  15.030  17.261   7.146
    8AU     LIG 3015  15.064  17.493   7.130
    8AU     LIG 3016  15.127  17.736   7.042
    8AU       S 3017  15.474  16.504   8.364
    8AU     LIG 3018  15.549  16.723   8.543
    8AU     LIG 3019  15.650  16.804   8.736
    8AU     LIG 3020  15.776  16.822   8.967
    8AU       S 3021  15.176  17.065   7.734
    8AU     LIG 3022  15.208  17.338   7.718
    8AU     LIG 3023  15.183  17.548   7.875
    8AU     LIG 3024  15.195  17.732   8.040
    8AU       S 3025  14.897  14.655   8.062
    8AU     LIG 3026  15.016  14.449   8.213
    8AU     LIG 3027  15.004  14.242   8.334
    8AU     LIG 3028  14.985  14.005   8.434
    8AU       S 3029  15.380  14.888   7.902
    8AU     LIG 3030  15.484  14.584   7.827
    8AU     LIG 3031  15.644  14.450   7.925
    8AU     LIG 3032  15.856  14.350   8.057
    8AU       S 3033  14.645  14.569   7.896
    8AU     LIG 3034  14.596  14.302   7.918
    8AU     LIG 3035  14.618  14.084   8.033
    8AU     LIG 3036  14.608  13.846   8.129
    8AU       S 3037  14.239  15.195   8.386
    8AU     LIG 3038  14.112  14.977   8.570
    8AU     LIG 3039  13.975  14.803   8.640
    8AU     LIG 3040  13.838  14.609   8.762
    8AU       S 3041  14.963  14.665   7.221
    8AU     LIG 3042  14.902  14.337   7.210
    8AU     LIG 3043  14.887  14.141   7.090
    8AU     LIG 3044  14.887  13.874   7.027
    8AU       S 3045  14.977  14.618   7.758
    8AU     LIG 3046  15.077  14.316   7.712
    8AU     LIG 3047  15.090  14.119   7.838
    8AU     LIG 3048  15.084  13.873   7.941
    8AU       S 3049  14.816  16.912   6.835
    8AU     LIG 3050  14.822  17.141   6.681
    8AU     LIG 3051  14.945  17.357   6.641
    8AU     LIG 3052  15.011  17.591   6.564
    8AU       S 3053  15.655  16.688   6.958
    8AU     LIG 3054  15.853  16.892   6.901
    8AU     LIG 3055  16.012  16.966   6.721
    8AU     LIG 3056  16.160  17.088   6.558
    8AU       S 3057  14.613  16.933   7.112
    8AU     LIG 3058  14.501  17.211   7.085
    8AU     LIG 3059  14.558  17.437   6.998
    8AU     LIG 3060  14.632  17.662   6.907
    8AU       S 3061  14.175  16.343   6.654
    8AU     LIG 3062  14.115  16.478   6.415
    8AU     LIG 3063  14.125  16.708   6.319
    8AU     LIG 3064  14.098  16.947   6.239
    8AU       S 3065  14.120  15.011   7.029
    8AU     LIG 3066  13.863  14.838   6.950
    8AU     LIG 3067  13.776  14.696   6.784
    8AU     LIG 3068  13.690  14.523   6.606
    8AU       S 3069  15.033  14.704   6.941
    8AU     LIG 3070  15.150  14.525   6.769
    8AU     LIG 3071  15.123  14.315   6.646
    8AU     LIG 3072  15.047  14.077   6.582
    8AU       S 3073  15.226  14.705   7.324
    8AU     LIG 3074  15.390  14.464   7.293
    8AU     LIG 3075  15.397  14.258   7.128
    8AU     LIG 3076  15.382  14.041   6.984
    8AU       S 3077  15.487  15.214   6.673
    8AU     LIG 3078  15.473  15.036   6.470
    8AU     LIG 3079  15.463  14.808   6.376
    8AU     LIG 3080  15.514  14.605   6.221
    9AU     AUC 3081   5.962  26.863   7.535
    9AU     AUC 3082   6.214  26.868   7.369
    9AU     AUC 3083   6.203  26.855   7.699
    9AU     AUC 3084   5.692  26.871   7.380
    9AU     AUC 3085   5.718  26.900   7.705
    9AU     AUC 3086   5.801  27.116   7.513
    9AU     AUC 3087   6.148  27.128   7.516
    9AU     AUC 3088   5.783  26.609   7.543
    9AU     AUC 3089   6.114  26.587   7.545
    9AU     AUC 3090   5.956  26.703   7.798
    9AU     AUC 3091   5.975  27.043   7.779
    9AU     AUC 3092   5.949  26.690   7.287
    9AU     AUC 3093   5.969  26.996   7.271
    9AU     AUC 3094   6.517  26.859   7.204
    9AU     AUC 3095   6.525  26.839   7.545
    9AU     AUC 3096   6.483  26.826   7.899
    9AU     AUC 3097   5.390  26.845   7.228
    9AU     AUC 3098   5.389  26.904   7.556
    9AU     AUC 3099   5.418  26.943   7.888
    9AU     AUC 3100   5.636  27.429   7.474
    9AU     AUC 3101   5.996  27.403   7.457
    9AU     AUC 3102   6.362  27.391   7.487
    9AU     AUC 3103   5.579  26.320   7.548
    9AU     AUC 3104   5.930  26.296   7.529
    9AU     AUC 3105   6.286  26.285   7.546
    9AU     AUC 3106   5.915  26.537   8.101
    9AU     AUC 3107   5.952  26.879   8.101
    9AU     AUC 3108   6.009  27.243   8.062
    9AU     AUC 3109   5.980  26.500   6.997
    9AU     AUC 3110   5.928  26.841   6.973
    9AU     AUC 3111   5.925  27.164   6.957
    9AU     AUC 3112   6.197  26.641   8.012
    9AU     AUC 3113   6.253  27.017   7.987
    9AU     AUC 3114   6.252  26.703   7.072
    9AU     AUC 3115   6.217  27.015   7.079
    9AU     AUC 3116   5.663  26.761   8.000
    9AU     AUC 3117   5.710  27.111   7.971
    9AU     AUC 3118   5.674  26.660   7.103
    9AU     AUC 3119   5.628  26.988   7.083
    9AU     AUC 3120   6.455  27.131   7.346
    9AU     AUC 3121   6.421  27.128   7.705
    9AU     AUC 3122   5.496  27.143   7.383
    9AU     AUC 3123   5.541  27.209   7.713
    9AU     AUC 3124   6.418  26.580   7.407
    9AU     AUC 3125   6.366  26.534   7.739
    9AU     AUC 3126   5.497  26.557   7.373
    9AU     AUC 3127   5.523  26.631   7.716
    9AU     AUC 3128   5.861  27.361   7.782
    9AU     AUC 3129   6.200  27.316   7.793
    9AU     AUC 3130   5.748  26.428   7.817
    9AU     AUC 3131   6.066  26.375   7.809
    9AU     AUC 3132   5.771  27.294   7.215
    9AU     AUC 3133   6.136  27.310   7.226
    9AU     AUC 3134   5.802  26.396   7.258
    9AU     AUC 3135   6.162  26.441   7.274
    9AU    AUSL 3136   6.461  26.731   8.316
    9AU    AUSL 3137   6.211  26.358   8.222
    9AU     AUL 3138   6.518  26.359   8.389
    9AU    AUSL 3139   6.046  26.673   8.460
    9AU    AUSL 3140   5.808  27.082   8.451
    9AU     AUL 3141   6.044  26.957   8.710
    9AU    AUSL 3142   6.145  27.030   8.204
    9AU    AUSL 3143   6.596  27.089   8.126
    9AU     AUL 3144   6.414  27.054   8.435
    9AU    AUSL 3145   6.369  26.891   6.840
    9AU    AUSL 3146   6.230  27.287   6.981
    9AU     AUL 3147   6.444  27.219   6.681
    9AU    AUSL 3148   6.181  26.569   6.612
    9AU    AUSL 3149   6.688  26.639   6.982
    9AU     AUL 3150   6.556  26.713   6.665
    9AU    AUSL 3151   6.013  27.073   6.670
    9AU    AUSL 3152   5.835  26.687   6.829
    9AU     AUL 3153   5.966  26.766   6.524
    9AU    AUSL 3154   5.424  27.044   8.243
    9AU    AUSL 3155   5.787  27.353   8.111
    9AU     AUL 3156   5.624  27.321   8.412
    9AU    AUSL 3157   5.725  26.731   8.191
    9AU    AUSL 3158   5.276  26.654   8.105
    9AU     AUL 3159   5.333  26.743   8.341
    9AU    AUSL 3160   5.399  26.669   6.795
    9AU    AUSL 3161   5.648  26.319   6.947
    9AU     AUL 3162   5.672  26.405   6.641
    9AU    AUSL 3163   5.585  27.037   6.675
    9AU    AUSL 3164   5.305  27.018   7.050
    9AU     AUL 3165   5.188  26.899   6.776
    9AU    AUSL 3166   6.753  27.326   7.476
    9AU    AUSL 3167   6.628  27.116   7.096
    9AU     AUL 3168   6.923  27.321   7.128
    9AU    AUSL 3169   6.918  26.930   7.367
    9AU    AUSL 3170   6.867  26.632   7.768
    9AU     AUL 3171   7.129  26.716   7.571
    9AU    AUSL 3172   6.640  26.985   7.718
    9AU    AUSL 3173   6.598  27.429   7.853
    9AU     AUL 3174   6.846  27.169   7.878
    9AU    AUSL 3175   5.387  27.506   7.522
    9AU    AUSL 3176   5.424  27.258   7.878
    9AU     AUL 3177   5.115  27.503   7.745
    9AU    AUSL 3178   5.186  27.127   7.444
    9AU    AUSL 3179   5.339  27.443   7.106
    9AU     AUL 3180   5.103  27.368   7.263
    9AU    AUSL 3181   5.059  27.049   7.888
    9AU    AUSL 3182   5.026  26.743   7.349
    9AU     AUL 3183   4.904  27.060   7.590
    9AU    AUSL 3184   6.645  26.283   7.615
    9AU    AUSL 3185   6.471  26.566   7.925
    9AU     AUL 3186   6.778  26.472   8.001
    9AU    AUSL 3187   6.603  26.653   7.397
    9AU    AUSL 3188   6.593  26.251   7.188
    9AU     AUL 3189   6.837  26.461   7.250
    9AU    AUSL 3190   5.179  26.364   7.553
    9AU    AUSL 3191   5.390  26.574   7.205
    9AU     AUL 3192   5.040  26.467   7.213
    9AU    AUSL 3193   5.296  26.765   7.694
    9AU    AUSL 3194   5.486  26.381   7.849
    9AU     AUL 3195   5.105  26.534   7.848
    9AU    AUSL 3196   6.028  27.689   7.966
    9AU    AUSL 3197   5.573  27.668   7.878
    9AU     AUL 3198   5.795  27.713   8.194
    9AU    AUSL 3199   5.860  27.544   7.591
    9AU    AUSL 3200   6.111  27.677   7.247
    9AU     AUL 3201   5.880  27.884   7.554
    9AU    AUSL 3202   6.298  27.620   7.623
    9AU    AUSL 3203   6.292  27.419   8.153
    9AU     AUL 3204   6.411  27.709   7.941
    9AU    AUSL 3205   5.886  26.223   7.970
    9AU    AUSL 3206   6.310  26.164   7.849
    9AU     AUL 3207   6.071  26.102   8.223
    9AU    AUSL 3208   5.578  26.001   7.699
    9AU    AUSL 3209   5.606  26.338   8.274
    9AU     AUL 3210   5.614  26.040   8.050
    9AU    AUSL 3211   6.010  25.926   7.667
    9AU    AUSL 3212   5.803  26.171   7.362
    9AU     AUL 3213   5.686  25.826   7.487
    9AU    AUSL 3214   5.938  27.562   6.843
    9AU    AUSL 3215   6.510  27.540   7.199
    9AU     AUL 3216   6.254  27.650   6.936
    9AU    AUSL 3217   5.689  27.656   7.210
    9AU    AUSL 3218   5.712  27.245   7.014
    9AU     AUL 3219   5.619  27.551   6.856
    9AU    AUSL 3220   6.028  26.119   6.981
    9AU    AUSL 3221   5.395  26.133   7.258
    9AU     AUL 3222   5.691  25.985   7.043
    9AU    AUSL 3223   6.235  26.143   7.381
    9AU    AUSL 3224   6.258  26.476   7.018
    9AU     AUL 3225   6.352  26.103   7.050
    9AU       S 3226   6.483  25.908   8.227
    9AU     LIG 3227   6.530  25.674   8.352
    9AU     LIG 3228   6.652  25.514   8.479
    9AU     LIG 3229   6.810  25.337   8.590
    9AU       S 3230   6.517  26.698   8.719
    9AU     LIG 3231   6.680  26.756   8.921
    9AU     LIG 3232   6.770  26.812   9.146
    9AU     LIG 3233   6.876  26.779   9.383
    9AU       S 3234   6.195  26.505   8.725
    9AU     LIG 3235   6.251  26.411   9.005
    9AU     LIG 3236   6.417  26.427   9.203
    9AU     LIG 3237   6.551  26.382   9.419
    9AU       S 3238   5.570  26.995   8.757
    9AU     LIG 3239   5.533  27.019   9.059
    9AU     LIG 3240   5.415  27.004   9.261
    9AU     LIG 3241   5.267  26.981   9.479
    9AU       S 3242   6.095  27.429   8.566
    9AU     LIG 3243   6.212  27.566   8.771
    9AU     LIG 3244   6.425  27.486   8.933
    9AU     LIG 3245   6.648  27.360   8.947
    9AU       S 3246   6.787  27.321   8.334
    9AU     LIG 3247   6.970  27.361   8.555
    9AU     LIG 3248   7.110  27.518   8.669
    9AU     LIG 3249   7.286  27.694   8.744
    9AU       S 3250   6.388  26.950   6.306
    9AU     LIG 3251   6.603  27.005   6.093
    9AU     LIG 3252   6.737  26.839   5.955
    9AU     LIG 3253   6.797  26.648   5.795
    9AU       S 3254   6.603  27.650   6.652
    9AU     LIG 3255   6.649  27.843   6.462
    9AU     LIG 3256   6.812  27.933   6.288
    9AU     LIG 3257   6.977  28.024   6.123
    9AU       S 3258   6.863  26.361   6.768
    9AU     LIG 3259   7.025  26.274   6.527
    9AU     LIG 3260   7.039  26.055   6.388
    9AU     LIG 3261   7.055  25.800   6.348
    9AU       S 3262   6.309  26.655   6.240
    9AU     LIG 3263   6.331  26.531   6.011
    9AU     LIG 3264   6.318  26.458   5.771
    9AU     LIG 3265   6.389  26.438   5.521
    9AU       S 3266   5.575  26.715   6.303
    9AU     LIG 3267   5.630  26.682   6.024
    9AU     LIG 3268   5.636  26.628   5.795
    9AU     LIG 3269   5.560  26.587   5.540
    9AU       S 3270   6.145  27.096   6.264
    9AU     LIG 3271   6.046  27.030   5.973
    9AU     LIG 3272   6.188  26.955   5.780
    9AU     LIG 3273   6.381  26.947   5.607
    9AU       S 3274   5.294  27.083   8.643
    9AU     LIG 3275   5.083  27.058   8.819
    9AU     LIG 3276   5.029  26.842   8.977
    9AU     LIG 3277   4.959  26.710   9.166
    9AU       S 3278   5.325  27.641   8.268
    9AU     LIG 3279   5.239  27.796   8.501
    9AU     LIG 3280   5.098  27.807   8.694
    9AU     LIG 3281   4.929  27.896   8.877
    9AU       S 3282   5.048  26.375   8.284
    9AU     LIG 3283   4.802  26.306   8.381
    9AU     LIG 3284   4.657  26.114   8.457
    9AU     LIG 3285   4.530  25.932   8.575
    9AU       S 3286   5.619  26.703   8.684
    9AU     LIG 3287   5.542  26.527   8.887
    9AU     LIG 3288   5.429  26.507   9.105
    9AU     LIG 3289   5.384  26.493   9.361
    9AU       S 3290   5.313  26.627   6.418
    9AU     LIG 3291   5.134  26.557   6.208
    9AU     LIG 3292   5.123  26.628   5.957
    9AU     LIG 3293   5.111  26.738   5.737
    9AU       S 3294   5.347  26.079   6.745
    9AU     LIG 3295   5.273  25.892   6.540
    9AU     LIG 3296   5.115  25.850   6.354
    9AU     LIG 3297   4.931  25.801   6.184
    9AU       S 3298   4.977  27.305   6.798
    9AU     LIG 3299   4.770  27.474   6.744
    9AU     LIG 3300   4.718  27.673   6.588
    9AU     LIG 3301   4.694  27.796   6.367
    9AU       S 3302   5.475  26.983   6.393
    9AU     LIG 3303   5.308  27.084   6.139
    9AU     LIG 3304   5.391  27.121   5.913
    9AU     LIG 3305   5.499  27.101   5.679
    9AU       S 3306   6.834  27.464   6.708
    9AU     LIG 3307   7.049  27.510   6.537
    9AU     LIG 3308   7.206  27.622   6.389
    9AU     LIG 3309   7.387  27.741   6.245
    9AU       S 3310   7.086  27.440   7.556
    9AU     LIG 3311   7.299  27.644   7.540
    9AU     LIG 3312   7.543  27.688   7.511
    9AU     LIG 3313   7.796  27.751   7.532
    9AU       S 3314   7.262  27.141   7.388
    9AU     LIG 3315   7.531  27.212   7.293
    9AU     LIG 3316   7.771  27.278   7.306
    9AU     LIG 3317   7.993  27.392   7.226
    9AU       S 3318   7.126  26.262   7.790
    9AU     LIG 3319   7.361  26.160   7.920
    9AU     LIG 3320   7.614  26.155   7.859
    9AU     LIG 3321   7.863  26.123   7.780
    9AU       S 3322   6.823  27.569   8.127
    9AU     LIG 3323   7.018  27.746   8.210
    9AU     LIG 3324   7.063  27.945   8.357
    9AU     LIG 3325   7.082  28.124   8.540
    9AU       S 3326   7.233  27.173   7.663
    9AU     LIG 3327   7.471  27.244   7.814
    9AU     LIG 3328   7.708  27.311   7.811
    9AU     LIG 3329   7.938  27.401   7.878
    9AU       S 3330   5.159  27.418   8.203
    9AU     LIG 3331   4.920  27.410   8.380
    9AU     LIG 3332   4.734  27.549   8.444
    9AU     LIG 3333   4.558  27.668   8.594
    9AU       S 3334   5.326  27.842   7.463
    9AU     LIG 3335   5.166  28.050   7.335
    9AU     LIG 3336   4.920  28.030   7.239
    9AU     LIG 3337   4.732  27.873   7.123
    9AU       S 3338   4.762  27.061   7.139
    9AU     LIG 3339   4.524  27.066   7.071
    9AU     LIG 3340   4.269  27.142   7.141
    9AU     LIG 3341   4.124  27.355   7.163
    9AU       S 3342   5.192  27.715   6.929
    9AU     LIG 3343   5.119  27.923   6.787
    9AU     LIG 3344   4.977  28.102   6.702
    9AU     LIG 3345   4.846  28.257   6.537
    9AU       S 3346   4.673  26.657   7.449
    9AU     LIG 3347   4.396  26.647   7.337
    9AU     LIG 3348   4.153  26.629   7.332
    9AU     LIG 3349   3.919  26.508   7.284
    9AU       S 3350   4.864  26.976   8.097
    9AU     LIG 3351   4.551  27.080   8.182
    9AU     LIG 3352   4.434  27.292   8.094
    9AU     LIG 3353   4.254  27.439   7.968
    9AU       S 3354   6.856  26.092   7.606
    9AU     LIG 3355   6.990  25.790   7.622
    9AU     LIG 3356   7.218  25.724   7.697
    9AU     LIG 3357   7.489  25.710   7.655
    9AU       S 3358   6.700  26.031   8.066
    9AU     LIG 3359   6.947  25.895   8.105
    9AU     LIG 3360   7.077  25.807   8.287
    9AU     LIG 3361   7.124  25.737   8.537
    9AU       S 3362   7.113  26.242   7.519
    9AU     LIG 3363   7.336  26.120   7.383
    9AU     LIG 3364   7.577  26.121   7.343
    9AU     LIG 3365   7.818  26.049   7.280
    9AU       S 3366   6.805  26.099   6.925
    9AU     LIG 3367   6.870  25.839   6.822
    9AU     LIG 3368   6.743  25.616   6.774
    9AU     LIG 3369   6.702  25.397   6.659
    9AU       S 3370   5.170  26.274   6.817
    9AU     LIG 3371   4.937  26.284   6.620
    9AU     LIG 3372   4.760  26.167   6.527
    9AU     LIG 3373   4.554  26.009   6.465
    9AU       S 3374   4.755  26.366   7.583
    9AU     LIG 3375   4.538  26.200   7.588
    9AU     LIG 3376   4.311  26.152   7.482
    9AU     LIG 3377   4.078  26.048   7.441
    9AU       S 3378   5.167  26.145   8.082
    9AU     LIG 3379   4.991  25.937   8.068
    9AU     LIG 3380   4.871  25.751   8.174
    9AU     LIG 3381   4.738  25.565   8.287
    9AU       S 3382   4.697  26.661   7.713
    9AU     LIG 3383   4.463  26.633   7.888
    9AU     LIG 3384   4.224  26.541   7.835
    9AU     LIG 3385   4.015  26.406   7.809
    9AU       S 3386   5.366  27.860   7.989
    9AU     LIG 3387   5.131  28.049   8.062
    9AU     LIG 3388   4.906  28.012   8.206
    9AU     LIG 3389   4.774  28.089   8.412
    9AU       S 3390   6.109  28.046   8.053
    9AU     LIG 3391   6.220  28.233   8.255
    9AU     LIG 3392   6.108  28.423   8.380
    9AU     LIG 3393   5.963  28.624   8.444
    9AU       S 3394   5.871  28.181   7.925
    9AU     LIG 3395   5.782  28.406   7.968
    9AU     LIG 3396   5.756  28.665   7.984
    9AU     LIG 3397   5.765  28.916   8.012
    9AU       S 3398   6.036  28.024   7.131
    9AU     LIG 3399   6.102  28.293   7.146
    9AU     LIG 3400   6.136  28.525   7.130
    9AU     LIG 3401   6.199  28.768   7.042
    9AU       S 3402   6.546  27.536   8.364
    9AU     LIG 3403   6.621  27.755   8.543
    9AU     LIG 3404   6.722  27.836   8.736
    9AU     LIG 3405   6.848  27.854   8.967
    9AU       S 3406   6.248  28.097   7.734
    9AU     LIG 3407   6.280  28.370   7.718
    9AU     LIG 3408   6.255  28.580   7.875
    9AU     LIG 3409   6.267  28.764   8.040
    9AU       S 3410   5.969  25.687   8.062
    9AU     LIG 3411   6.088  25.481   8.213
    9AU     LIG 3412   6.076  25.274   8.334
    9AU     LIG 3413   6.057  25.037   8.434
    9AU       S 3414   6.452  25.920   7.902
    9AU     LIG 3415   6.556  25.616   7.827
    9AU     LIG 3416   6.716  25.482   7.925
    9AU     LIG 3417   6.928  25.382   8.057
    9AU       S 3418   5.717  25.601   7.896
    9AU     LIG 3419   5.668  25.334   7.918
    9AU     LIG 3420   5.690  25.116   8.033
    9AU     LIG 3421   5.680  24.878   8.129
    9AU       S 3422   5.311  26.227   8.386
    9AU     LIG 3423   5.184  26.009   8.570
    9AU     LIG 3424   5.047  25.835   8.640
    9AU     LIG 3425   4.910  25.641   8.762
    9AU       S 3426   6.035  25.697   7.221
    9AU     LIG 3427   5.974  25.369   7.210
    9AU     LIG 3428   5.959  25.173   7.090
    9AU     LIG 3429   5.959  24.906   7.027
    9AU       S 3430   6.049  25.650   7.758
    9AU     LIG 3431   6.149  25.348   7.712
    9AU     LIG 3432   6.162  25.151   7.838
    9AU     LIG 3433   6.156  24.905   7.941
    9AU       S 3434   5.888  27.944   6.835
    9AU     LIG 3435   5.894  28.173   6.681
    9AU     LIG 3436   6.017  28.389   6.641
    9AU     LIG 3437   6.083  28.623   6.564
    9AU       S 3438   6.727  27.720   6.958
    9AU     LIG 3439   6.925  27.924   6.901
    9AU     LIG 3440   7.084  27.998   6.721
    9AU     LIG 3441   7.232  28.120   6.558
    9AU       S 3442   5.685  27.965   7.112
    9AU     LIG 3443   5.573  28.243   7.085
    9AU     LIG 3444   5.630  28.469   6.998
    9AU     LIG 3445   5.704  28.694   6.907
    9AU       S 3446   5.247  27.375   6.654
    9AU     LIG 3447   5.187  27.510   6.415
    9AU     LIG 3448   5.197  27.740   6.319
    9AU     LIG 3449   5.170  27.979   6.239
    9AU       S 3450   5.192  26.043   7.029
    9AU     LIG 3451   4.935  25.870   6.950
    9AU     LIG 3452   4.848  25.728   6.784
    9AU     LIG 3453   4.762  25.555   6.606
    9AU       S 3454   6.105  25.736   6.941
    9AU     LIG 3455   6.222  25.557   6.769
    9AU     LIG 3456   6.195  25.347   6.646
    9AU     LIG 3457   6.119  25.109   6.582
    9AU       S 3458   6.298  25.737   7.324
    9AU     LIG 3459   6.462  25.496   7.293
    9AU     LIG 3460   6.469  25.290   7.128
    9AU     LIG 3461   6.454  25.073   6.984
    9AU       S 3462   6.559  26.246   6.673
    9AU     LIG 3463   6.545  26.068   6.470
    9AU     LIG 3464   6.535  25.840   6.376
    9AU     LIG 3465   6.586  25.637   6.221
   10AU     AUC 3466  22.406  27.130   7.535
   10AU     AUC 3467  22.658  27.135   7.369
   10AU     AUC 3468  22.647  27.122   7.699
   10AU     AUC 3469  22.136  27.138   7.380
   10AU     AUC 3470  22.162  27.167   7.705
   10AU     AUC 3471  22.245  27.383   7.513
   10AU     AUC 3472  22.592  27.395   7.516
   10AU     AUC 3473  22.227  26.876   7.543
   10AU     AUC 3474  22.558  26.854   7.545
   10AU     AUC 3475  22.400  26.970   7.798
   10AU     AUC 3476  22.419  27.310   7.779
   10AU     AUC 3477  22.393  26.957   7.287
   10AU     AUC 3478  22.413  27.263   7.271
   10AU     AUC 3479  22.961  27.126   7.204
   10AU     AUC 3480  22.969  27.106   7.545
   10AU     AUC 3481  22.927  27.093   7.899
   10AU     AUC 3482  21.834  27.112   7.228
   10AU     AUC 3483  21.833  27.171   7.556
   10AU     AUC 3484  21.862  27.210   7.888
   10AU     AUC 3485  22.080  27.696   7.474
   10AU     AUC 3486  22.440  27.670   7.457
   10AU     AUC 3487  22.806  27.658   7.487
   10AU     AUC 3488  22.023  26.587   7.548
   10AU     AUC 3489  22.374  26.563   7.529
   10AU     AUC 3490  22.730  26.552   7.546
   10AU     AUC 3491  22.359  26.804   8.101
   10AU     AUC 3492  22.396  27.146   8.101
   10AU     AUC 3493  22.453  27.510   8.062
   10AU     AUC 3494  22.424  26.767   6.997
   10AU     AUC 3495  22.372  27.108   6.973
   10AU     AUC 3496  22.369  27.431   6.957
   10AU     AUC 3497  22.641  26.908   8.012
   10AU     AUC 3498  22.697  27.284   7.987
   10AU     AUC 3499  22.696  26.970   7.072
   10AU     AUC 3500  22.661  27.282   7.079
   10AU     AUC 3501  22.107  27.028   8.000
   10AU     AUC 3502  22.154  27.378   7.971
   10AU     AUC 3503  22.118  26.927   7.103
   10AU     AUC 3504  22.072  27.255   7.083
   10AU     AUC 3505  22.899  27.398   7.346
   10AU     AUC 3506  22.865  27.395   7.705
   10AU     AUC 3507  21.940  27.410   7.383
   10AU     AUC 3508  21.985  27.476   7.713
   10AU     AUC 3509  22.862  26.847   7.407
   10AU     AUC 3510  22.810  26.801   7.739
   10AU     AUC 3511  21.941  26.824   7.373
   10AU     AUC 3512  21.967  26.898   7.716
   10AU     AUC 3513  22.305  27.628   7.782
   10AU     AUC 3514  22.644  27.583   7.793
   10AU     AUC 3515  22.192  26.695   7.817
   10AU     AUC 3516  22.510  26.642   7.809
   10AU     AUC 3517  22.215  27.561   7.215
   10AU     AUC 3518  22.580  27.577   7.226
   10AU     AUC 3519  22.246  26.663   7.258
   10AU     AUC 3520  22.606  26.708   7.274
   10AU    AUSL 3521  22.905  26.998   8.316
   10AU    AUSL 3522  22.655  26.625   8.222
   10AU     AUL 3523  22.962  26.626   8.389
   10AU    AUSL 3524  22.490  26.940   8.460
   10AU    AUSL 3525  22.252  27.349   8.451
   10AU     AUL 3526  22.488  27.224   8.710
   10AU    AUSL 3527  22.589  27.297   8.204
   10AU    AUSL 3528  23.040  27.356   8.126
   10AU     AUL 3529  22.858  27.321   8.435
   10AU    AUSL 3530  22.813  27.158   6.840
   10AU    AUSL 3531  22.674  27.554   6.981
   10AU     AUL 3532  22.888  27.486   6.681
   10AU    AUSL 3533  22.625  26.836   6.612
   10AU    AUSL 3534  23.132  26.906   6.982
   10AU     AUL 3535  23.000  26.980   6.665
   10AU    AUSL 3536  22.457  27.340   6.670
   10AU    AUSL 3537  22.279  26.954   6.829
   10AU     AUL 3538  22.410  27.033   6.524
   10AU    AUSL 3539  21.868  27.311   8.243
   10AU    AUSL 3540  22.231  27.620   8.111
   10AU     AUL 3541  22.068  27.588   8.412
   10AU    AUSL 3542  22.169  26.998   8.191
   10AU    AUSL 3543  21.720  26.921   8.105
   10AU     AUL 3544  21.777  27.010   8.341
   10AU    AUSL 3545  21.843  26.936   6.795
   10AU    AUSL 3546  22.092  26.586   6.947
   10AU     AUL 3547  22.116  26.672   6.641
   10AU    AUSL 3548  22.029  27.304   6.675
   10AU    AUSL 3549  21.749  27.285   7.050
   10AU     AUL 3550  21.632  27.166   6.776
   10AU    AUSL 3551  23.197  27.593   7.476
   10AU    AUSL 3552  23.072  27.383   7.096
   10AU     AUL 3553  23.367  27.588   7.128
   10AU    AUSL 3554  23.362  27.197   7.367
   10AU    AUSL 3555  23.311  26.899   7.768
   10AU     AUL 3556  23.573  26.983   7.571
   10AU    AUSL 3557  23.084  27.252   7.718
   10AU    AUSL 3558  23.042  27.696   7.853
   10AU     AUL 3559  23.290  27.436   7.878
   10AU    AUSL 3560  21.831  27.773   7.522
   10AU    AUSL 3561  21.868  27.525   7.878
   10AU     AUL 3562  21.559  27.770   7.745
   10AU    AUSL 3563  21.630  27.394   7.444
   10AU    AUSL 3564  21.783  27.710   7.106
   10AU     AUL 3565  21.547  27.635   7.263
   10AU    AUSL 3566  21.503  27.316   7.888
   10AU    AUSL 3567  21.470  27.010   7.349
   10AU     AUL 3568  21.348  27.327   7.590
   10AU    AUSL 3569  23.089  26.550   7.615
   10AU    AUSL 3570  22.915  26.833   7.925
   10AU     AUL 3571  23.222  26.739   8.001
   10AU    AUSL 3572  23.047  26.920   7.397
   10AU    AUSL 3573  23.037  26.518   7.188
   10AU     AUL 3574  23.281  26.728   7.250
   10AU    AUSL 3575  21.623  26.631   7.553
   10AU    AUSL 3576  21.834  26.841   7.205
   10AU     AUL 3577  21.484  26.734   7.213
   10AU    AUSL 3578  21.740  27.032   7.694
   10AU    AUSL 3579  21.930  26.648   7.849
   10AU     AUL 3580  21.549  26.801   7.848
   10AU    AUSL 3581  22.472  27.956   7.966
   10AU    AUSL 3582  22.017  27.935   7.878
   10AU     AUL 3583  22.239  27.980   8.194
   10AU    AUSL 3584  22.304  27.811   7.591
   10AU    AUSL 3585  22.555  27.944   7.247
   10AU     AUL 3586  22.324  28.151   7.554
   10AU    AUSL 3587  22.742  27.887   7.623
   10AU    AUSL 3588  22.736  27.686   8.153
   10AU     AUL 3589  22.855  27.976   7.941
   10AU    AUSL 3590  22.330  26.490   7.970
   10AU    AUSL 3591  22.754  26.431   7.849
   10AU     AUL 3592  22.515  26.369   8.223
   10AU    AUSL 3593  22.022  26.268   7.699
   10AU    AUSL 3594  22.050  26.605   8.274
   10AU     AUL 3595  22.058  26.307   8.050
   10AU    AUSL 3596  22.454  26.193   7.667
   10AU    AUSL 3597  22.247  26.438   7.362
   10AU     AUL 3598  22.130  26.093   7.487
   10AU    AUSL 3599  22.382  27.829   6.843
   10AU    AUSL 3600  22.954  27.807   7.199
   10AU     AUL 3601  22.698  27.917   6.936
   10AU    AUSL 3602  22.133  27.923   7.210
   10AU    AUSL 3603  22.156  27.512   7.014
   10AU     AUL 3604  22.063  27.818   6.856
   10AU    AUSL 3605  22.472  26.386   6.981
   10AU    AUSL 3606  21.839  26.400   7.258
   10AU     AUL 3607  22.135  26.252   7.043
   10AU    AUSL 3608  22.679  26.410   7.381
   10AU    AUSL 3609  22.702  26.743   7.018
   10AU     AUL 3610  22.796  26.370   7.050
   10AU       S 3611  22.927  26.175   8.227
   10AU     LIG 3612  22.974  25.941   8.352
   10AU     LIG 3613  23.096  25.781   8.479
   10AU     LIG 3614  23.254  25.604   8.590
   10AU       S 3615  22.961  26.965   8.719
   10AU     LIG 3616  23.124  27.023   8.921
   10AU     LIG 3617  23.214  27.079   9.146
   10AU     LIG 3618  23.320  27.046   9.383
   10AU       S 3619  22.639  26.772   8.725
   10AU     LIG 3620  22.695  26.678   9.005
   10AU     LIG 3621  22.861  26.694   9.203
   10AU     LIG 3622  22.995  26.649   9.419
   10AU       S 3623  22.014  27.262   8.757
   10AU     LIG 3624  21.977  27.286   9.059
   10AU     LIG 3625  21.859  27.271   9.261
   10AU     LIG 3626  21.711  27.248   9.479
   10AU       S 3627  22.539  27.696   8.566
   10AU     LIG 3628  22.656  27.833   8.771
   10AU     LIG 3629  22.869  27.753   8.933
   10AU     LIG 3630  23.092  27.627   8.947
   10AU       S 3631  23.231  27.588   8.334
   10AU     LIG 3632  23.414  27.628   8.555
   10AU     LIG 3633  23.554  27.785   8.669
   10AU     LIG 3634  23.730  27.961   8.744
   10AU       S 3635  22.832  27.217   6.306
   10AU     LIG 3636  23.047  27.272   6.093
   10AU     LIG 3637  23.181  27.106   5.955
   10AU     LIG 3638  23.241  26.915   5.795
   10AU       S 3639  23.047  27.917   6.652
   10AU     LIG 3640  23.093  28.110   6.462
   10AU     LIG 3641  23.256  28.200   6.288
   10AU     LIG 3642  23.421  28.291   6.123
   10AU       S 3643  23.307  26.628   6.768
   10AU     LIG 3644  23.469  26.541   6.527
   10AU     LIG 3645  23.483  26.322   6.388
   10AU     LIG 3646  23.499  26.067   6.348
   10AU       S 3647  22.753  26.922   6.240
   10AU     LIG 3648  22.775  26.798   6.011
   10AU     LIG 3649  22.762  26.725   5.771
   10AU     LIG 3650  22.833  26.705   5.521
   10AU       S 3651  22.019  26.982   6.303
   10AU     LIG 3652  22.074  26.949   6.024
   10AU     LIG 3653  22.080  26.895   5.795
   10AU     LIG 3654  22.004  26.854   5.540
   10AU       S 3655  22.589  27.363   6.264
   10AU     LIG 3656  22.490  27.297   5.973
   10AU     LIG 3657  22.632  27.222   5.780
   10AU     LIG 3658  22.825  27.214   5.607
   10AU       S 3659  21.738  27.350   8.643
   10AU     LIG 3660  21.527  27.325   8.819
   10AU     LIG 3661  21.473  27.109   8.977
   10AU     LIG 3662  21.403  26.977   9.166
   10AU       S 3663  21.769  27.908   8.268
   10AU     LIG 3664  21.683  28.063   8.501
   10AU     LIG 3665  21.542  28.074   8.694
   10AU     LIG 3666  21.373  28.163   8.877
   10AU       S 3667  21.492  26.642   8.284
   10AU     LIG 3668  21.246  26.573   8.381
   10AU     LIG 3669  21.101  26.381   8.457
   10AU     LIG 3670  20.974  26.199   8.575
   10AU       S 3671  22.063  26.970   8.684
   10AU     LIG 3672  21.986  26.794   8.887
   10AU     LIG 3673  21.873  26.774   9.105
   10AU     LIG 3674  21.828  26.760   9.361
   10AU       S 3675  21.757  26.894   6.418
   10AU     LIG 3676  21.578  26.824   6.208
   10AU     LIG 3677  21.567  26.895   5.957
   10AU     LIG 3678  21.555  27.005   5.737
   10AU       S 3679  21.791  26.346   6.745
   10AU     LIG 3680  21.717  26.159   6.540
   10AU     LIG 3681  21.559  26.117   6.354
   10AU     LIG 3682  21.375  26.068   6.184
   10AU       S 3683  21.421  27.572   6.798
   10AU     LIG 3684  21.214  27.741   6.744
   10AU     LIG 3685  21.162  27.940   6.588
   10AU     LIG 3686  21.138  28.063   6.367
   10AU       S 3687  21.919  27.250   6.393
   10AU     LIG 3688  21.752  27.351   6.139
   10AU     LIG 3689  21.835  27.388   5.913
   10AU     LIG 3690  21.943  27.368   5.679
   10AU       S 3691  23.278  27.731   6.708
   10AU     LIG 3692  23.493  27.777   6.537
   10AU     LIG 3693  23.650  27.889   6.389
   10AU     LIG 3694  23.831  28.008   6.245
   10AU       S 3695  23.530  27.707   7.556
   10AU     LIG 3696  23.743  27.911   7.540
   10AU     LIG 3697  23.987  27.955   7.511
   10AU     LIG 3698  24.240  28.018   7.532
   10AU       S 3699  23.706  27.408   7.388
   10AU     LIG 3700  23.975  27.479   7.293
   10AU     LIG 3701  24.215  27.545   7.306
   10AU     LIG 3702  24.437  27.659   7.226
   10AU       S 3703  23.570  26.529   7.790
   10AU     LIG 3704  23.805  26.427   7.920
   10AU     LIG 3705  24.058  26.422   7.859
   10AU     LIG 3706  24.307  26.390   7.780
   10AU       S 3707  23.267  27.836   8.127
   10AU     LIG 3708  23.462  28.013   8.210
   10AU     LIG 3709  23.507  28.212   8.357
   10AU     LIG 3710  23.526  28.391   8.540
   10AU       S 3711  23.677  27.440   7.663
   10AU     LIG 3712  23.915  27.511   7.814
   10AU     LIG 3713  24.152  27.578   7.811
   10AU     LIG 3714  24.382  27.668   7.878
   10AU       S 3715  21.603  27.685   8.203
   10AU     LIG 3716  21.364  27.677   8.380
   10AU     LIG 3717  21.178  27.816   8.444
   10AU     LIG 3718  21.002  27.935   8.594
   10AU       S 3719  21.770  28.109   7.463
   10AU     LIG 3720  21.610  28.317   7.335
   10AU     LIG 3721  21.364  28.297   7.239
   10AU     LIG 3722  21.176  28.140   7.123
   10AU       S 3723  21.206  27.328   7.139
   10AU     LIG 3724  20.968  27.333   7.071
   10AU     LIG 3725  20.713  27.409   7.141
   10AU     LIG 3726  20.568  27.622   7.163
   10AU       S 3727  21.636  27.982   6.929
   10AU     LIG 3728  21.563  28.190   6.787
   10AU     LIG 3729  21.421  28.369   6.702
   10AU     LIG 3730  21.290  28.524   6.537
   10AU       S 3731  21.117  26.924   7.449
   10AU     LIG 3732  20.840  26.914   7.337
   10AU     LIG 3733  20.597  26.896   7.332
   10AU     LIG 3734  20.363  26.775   7.284
   10AU       S 3735  21.308  27.243   8.097
   10AU     LIG 3736  20.995  27.347   8.182
   10AU     LIG 3737  20.878  27.559   8.094
   10AU     LIG 3738  20.698  27.706   7.968
   10AU       S 3739  23.300  26.359   7.606
   10AU     LIG 3740  23.434  26.057   7.622
   10AU     LIG 3741  23.662  25.991   7.697
   10AU     LIG 3742  23.933  25.977   7.655
   10AU       S 3743  23.144  26.298   8.066
   10AU     LIG 3744  23.391  26.162   8.105
   10AU     LIG 3745  23.521  26.074   8.287
   10AU     LIG 3746  23.568  26.004   8.537
   10AU       S 3747  23.557  26.509   7.519
   10AU     LIG 3748  23.780  26.387   7.383
   10AU     LIG 3749  24.021  26.388   7.343
   10AU     LIG 3750  24.262  26.316   7.280
   10AU       S 3751  23.249  26.366   6.925
   10AU     LIG 3752  23.314  26.106   6.822
   10AU     LIG 3753  23.187  25.883   6.774
   10AU     LIG 3754  23.146  25.664   6.659
   10AU       S 3755  21.614  26.541   6.817
   10AU     LIG 3756  21.381  26.551   6.620
   10AU     LIG 3757  21.204  26.434   6.527
   10AU     LIG 3758  20.998  26.276   6.465
   10AU       S 3759  21.199  26.633   7.583
   10AU     LIG 3760  20.982  26.467   7.588
   10AU     LIG 3761  20.755  26.419   7.482
   10AU     LIG 3762  20.522  26.315   7.441
   10AU       S 3763  21.611  26.412   8.082
   10AU     LIG 3764  21.435  26.204   8.068
   10AU     LIG 3765  21.315  26.018   8.174
   10AU     LIG 3766  21.182  25.832   8.287
   10AU       S 3767  21.141  26.928   7.713
   10AU     LIG 3768  20.907  26.900   7.888
   10AU     LIG 3769  20.668  26.808   7.835
   10AU     LIG 3770  20.459  26.673   7.809
   10AU       S 3771  21.810  28.127   7.989
   10AU     LIG 3772  21.575  28.316   8.062
   10AU     LIG 3773  21.350  28.279   8.206
   10AU     LIG 3774  21.218  28.356   8.412
   10AU       S 3775  22.553  28.313   8.053
   10AU     LIG 3776  22.664  28.500   8.255
   10AU     LIG 3777  22.552  28.690   8.380
   10AU     LIG 3778  22.407  28.891   8.444
   10AU       S 3779  22.315  28.448   7.925
   10AU     LIG 3780  22.226  28.673   7.968
   10AU     LIG 3781  22.200  28.932   7.984
   10AU     LIG 3782  22.209  29.183   8.012
   10AU       S 3783  22.480  28.291   7.131
   10AU     LIG 3784  22.546  28.560   7.146
   10AU     LIG 3785  22.580  28.792   7.130
   10AU     LIG 3786  22.643  29.035   7.042
   10AU       S 3787  22.990  27.803   8.364
   10AU     LIG 3788  23.065  28.022   8.543
   10AU     LIG 3789  23.166  28.103   8.736
   10AU     LIG 3790  23.292  28.121   8.967
   10AU       S 3791  22.692  28.364   7.734
   10AU     LIG 3792  22.724  28.637   7.718
   10AU     LIG 3793  22.699  28.847   7.875
   10AU     LIG 3794  22.711  29.031   8.040
   10AU       S 3795  22.413  25.954   8.062
   10AU     LIG 3796  22.532  25.748   8.213
   10AU     LIG 3797  22.520  25.541   8.334
   10AU     LIG 3798  22.501  25.304   8.434
   10AU       S 3799  22.896  26.187   7.902
   10AU     LIG 3800  23.000  25.883   7.827
   10AU     LIG 3801  23.160  25.749   7.925
   10AU     LIG 3802  23.372  25.649   8.057
   10AU       S 3803  22.161  25.868   7.896
   10AU     LIG 3804  22.112  25.601   7.918
   10AU     LIG 3805  22.134  25.383   8.033
   10AU     LIG 3806  22.124  25.145   8.129
   10AU       S 3807  21.755  26.494   8.386
   10AU     LIG 3808  21.628  26.276   8.570
   10AU     LIG 3809  21.491  26.102   8.640
   10AU     LIG 3810  21.354  25.908   8.762
   10AU       S 3811  22.479  25.964   7.221
   10AU     LIG 3812  22.418  25.636   7.210
   10AU     LIG 3813  22.403  25.440   7.090
   10AU     LIG 3814  22.403  25.173   7.027
   10AU       S 3815  22.493  25.917   7.758
   10AU     LIG 3816  22.593  25.615   7.712
   10AU     LIG 3817  22.606  25.418   7.838
   10AU     LIG 3818  22.600  25.172   7.941
   10AU       S 3819  22.332  28.211   6.835
   10AU     LIG 3820  22.338  28.440   6.681
   10AU     LIG 3821  22.461  28.656   6.641
   10AU     LIG 3822  22.527  28.890   6.564
   10AU       S 3823  23.171  27.987   6.958
   10AU     LIG 3824  23.369  28.191   6.901
   10AU     LIG 3825  23.528  28.265   6.721
   10AU     LIG 3826  23.676  28.387   6.558
   10AU       S 3827  22.129  28.232   7.112
   10AU     LIG 3828  22.017  28.510   7.085
   10AU     LIG 3829  22.074  28.736   6.998
   10AU     LIG 3830  22.148  28.961   6.907
   10AU       S 3831  21.691  27.642   6.654
   10AU     LIG 3832  21.631  27.777   6.415
   10AU     LIG 3833  21.641  28.007   6.319
   10AU     LIG 3834  21.614  28.246   6.239
   10AU       S 3835  21.636  26.310   7.029
   10AU     LIG 3836  21.379  26.137   6.950
   10AU     LIG 3837  21.292  25.995   6.784
   10AU     LIG 3838  21.206  25.822   6.606
   10AU       S 3839  22.549  26.003   6.941
   10AU     LIG 3840  22.666  25.824   6.769
   10AU     LIG 3841  22.639  25.614   6.646
   10AU     LIG 3842  22.563  25.376   6.582
   10AU       S 3843  22.742  26.004   7.324
   10AU     LIG 3844  22.906  25.763   7.293
   10AU     LIG 3845  22.913  25.557   7.128
   10AU     LIG 3846  22.898  25.340   6.984
   10AU       S 3847  23.003  26.513   6.673
   10AU     LIG 3848  22.989  26.335   6.470
   10AU     LIG 3849  22.979  26.107   6.376
   10AU     LIG 3850  23.030  25.904   6.221
   11POPC   NC3 3851  21.376  12.098   9.464
   11POPC   PO4 3852  21.393  12.097   9.164
   11POPC   GL1 3853  21.343  12.097   8.864
   11POPC   GL2 3854  21.366  11.969   8.864
   11POPC   C1A 3855  21.359  12.032   8.564
   11POPC   D2A 3856  21.402  12.042   8.264
   11POPC   C3A 3857  21.339  12.035   7.964
   11POPC   C4A 3858  21.366  12.039   7.664
   11POPC   C1B 3859  21.312  11.881   8.564
   11POPC   C2B 3860  21.312  11.823   8.264
   11POPC   C3B 3861  21.346  11.846   7.964
   11POPC   C4B 3862  21.293  11.840   7.664
   12POPC   NC3 3863  22.209  44.704   9.464
   12POPC   PO4 3864  22.127  44.667   9.164
   12POPC   GL1 3865  22.168  44.619   8.864
   12POPC   GL2 3866  22.284  44.714   8.864
   12POPC   C1A 3867  22.125  44.669   8.564
   12POPC   D2A 3868  22.197  44.628   8.264
   12POPC   C3A 3869  22.141  44.699   7.964
   12POPC   C4A 3870  22.167  44.648   7.664
   12POPC   C1B 3871  22.444  44.650   8.564
   12POPC   C2B 3872  22.395  44.691   8.264
   12POPC   C3B 3873  22.363  44.734   7.964
   12POPC   C4B 3874  22.405  44.653   7.664
   13POPC   NC3 3875   9.006  10.570   9.464
   13POPC   PO4 3876   8.930  10.488   9.164
   13POPC   GL1 3877   8.982  10.546   8.864
   13POPC   GL2 3878   8.841  10.598   8.864
   13POPC   C1A 3879   8.955  10.566   8.564
   13POPC   D2A 3880   9.000  10.507   8.264
   13POPC   C3A 3881   8.966  10.504   7.964
   13POPC   C4A 3882   8.983  10.570   7.664
   13POPC   C1B 3883   8.720  10.669   8.564
   13POPC   C2B 3884   8.756  10.650   8.264
   13POPC   C3B 3885   8.806  10.638   7.964
   13POPC   C4B 3886   8.795  10.617   7.664
   14POPC   NC3 3887  19.044  36.116   9.464
   14POPC   PO4 3888  19.049  36.091   9.164
   14POPC   GL1 3889  19.097  36.171   8.864
   14POPC   GL2 3890  19.164  36.115   8.864
   14POPC   C1A 3891  19.104  36.121   8.564
   14POPC   D2A 3892  19.013  36.101   8.264
   14POPC   C3A 3893  19.026  36.166   7.964
   14POPC   C4A 3894  19.082  36.100   7.664
   14POPC   C1B 3895  19.289  36.169   8.564
   14POPC   C2B 3896  19.337  36.162   8.264
   14POPC   C3B 3897  19.355  36.205   7.964
   14POPC   C4B 3898  19.280  36.138   7.664
   15POPC   NC3 3899  23.693   0.485   9.464
   15POPC   PO4 3900  23.723   0.470   9.164
   15POPC   GL1 3901  23.668   0.392   8.864
   15POPC   GL2 3902  23.687   0.351   8.864
   15POPC   C1A 3903  23.759   0.405   8.564
   15POPC   D2A 3904  23.693   0.413   8.264
   15POPC   C3A 3905  23.706   0.432   7.964
   15POPC   C4A 3906  23.693   0.392   7.664
   15POPC   C1B 3907  23.533   0.248   8.564
   15POPC   C2B 3908  23.591   0.272   8.264
   15POPC   C3B 3909  23.550   0.197   7.964
   15POPC   C4B 3910  23.602   0.257   7.664
   16POPC   NC3 3911  26.799   6.676   9.464
   16POPC   PO4 3912  26.805   6.607   9.164
   16POPC   GL1 3913  26.814   6.630   8.864
   16POPC   GL2 3914  26.901   6.656   8.864
   16POPC   C1A 3915  26.791   6.679   8.564
   16POPC   D2A 3916  26.841   6.627   8.264
   16POPC   C3A 3917  26.845   6.690   7.964
   16POPC   C4A 3918  26.855   6.665   7.664
   16POPC   C1B 3919  27.060   6.538   8.564
   16POPC   C2B 3920  27.075   6.601   8.264
   16POPC   C3B 3921  27.016   6.587   7.964
   16POPC   C4B 3922  27.076   6.535   7.664
   17POPC   NC3 3923   6.610  23.752   9.464
   17POPC   PO4 3924   6.663  23.716   9.164
   17POPC   GL1 3925   6.613  23.758   8.864
   17POPC   GL2 3926   6.766  23.597   8.864
   17POPC   C1A 3927   6.642  23.722   8.564
   17POPC   D2A 3928   6.666  23.740   8.264
   17POPC   C3A 3929   6.643  23.738   7.964
   17POPC   C4A 3930   6.641  23.665   7.664
   17POPC   C1B 3931   6.809  23.559   8.564
   17POPC   C2B 3932   6.877  23.552   8.264
   17POPC   C3B 3933   6.850  23.596   7.964
   17POPC   C4B 3934   6.847  23.614   7.664
   18POPC   NC3 3935  15.214   2.782   9.464
   18POPC   PO4 3936  15.218   2.742   9.164
   18POPC   GL1 3937  15.130   2.759   8.864
   18POPC   GL2 3938  15.111   2.714   8.864
   18POPC   C1A 3939  15.204   2.728   8.564
   18POPC   D2A 3940  15.131   2.793   8.264
   18POPC   C3A 3941  15.201   2.740   7.964
   18POPC   C4A 3942  15.208   2.790   7.664
   18POPC   C1B 3943  14.998   2.588   8.564
   18POPC   C2B 3944  15.001   2.580   8.264
   18POPC   C3B 3945  14.991   2.627   7.964
   18POPC   C4B 3946  14.952   2.613   7.664
   19POPC   NC3 3947  31.504  13.649   9.464
   19POPC   PO4 3948  31.444  13.657   9.164
   19POPC   GL1 3949  31.516  13.630   8.864
   19POPC   GL2 3950  31.448  13.776   8.864
   19POPC   C1A 3951  31.517  13.638   8.564
   19POPC   D2A 3952  31.446  13.594   8.264
   19POPC   C3A 3953  31.440  13.605   7.964
   19POPC   C4A 3954  31.448  13.627   7.664
   19POPC   C1B 3955  31.487  13.842   8.564
   19POPC   C2B 3956  31.508  13.827   8.264
   19POPC   C3B 3957  31.461  13.900   7.964
   19POPC   C4B 3958  31.549  13.880   7.664
   20POPC   NC3 3959  44.644   4.336   9.464
   20POPC   PO4 3960  44.656   4.363   9.164
   20POPC   GL1 3961  44.698   4.296   8.864
   20POPC   GL2 3962  44.675   4.413   8.864
   20POPC   C1A 3963  44.664   4.293   8.564
   20POPC   D2A 3964  44.640   4.321   8.264
   20POPC   C3A 3965  44.629   4.337   7.964
   20POPC   C4A 3966  44.632   4.280   7.664
   20POPC   C1B 3967  44.652   4.524   8.564
   20POPC   C2B 3968  44.670   4.550   8.264
   20POPC   C3B 3969  44.687   4.540   7.964
   20POPC   C4B 3970  44.740   4.607   7.664
   21POPC   NC3 3971  25.229  19.859   9.464
   21POPC   PO4 3972  25.272  19.850   9.164
   21POPC   GL1 3973  25.254  19.815   8.864
   21POPC   GL2 3974  25.123  19.729   8.864
   21POPC   C1A 3975  25.291  19.851   8.564
   21POPC   D2A 3976  25.269  19.880   8.264
   21POPC   C3A 3977  25.221  19.827   7.964
   21POPC   C4A 3978  25.245  19.879   7.664
   21POPC   C1B 3979  25.092  19.696   8.564
   21POPC   C2B 3980  25.060  19.634   8.264
   21POPC   C3B 3981  25.075  19.661   7.964
   21POPC   C4B 3982  25.088  19.702   7.664
   22POPC   NC3 3983   5.101   9.773   9.464
   22POPC   PO4 3984   5.115   9.738   9.164
   22POPC   GL1 3985   5.120   9.727   8.864
   22POPC   GL2 3986   4.952   9.802   8.864
   22POPC   C1A 3987   5.073   9.722   8.564
   22POPC   D2A 3988   5.077   9.722   8.264
   22POPC   C3A 3989   5.058   9.730   7.964
   22POPC   C4A 3990   5.047   9.783   7.664
   22POPC   C1B 3991   4.849   9.777   8.564
   22POPC   C2B 3992   4.834   9.789   8.264
   22POPC   C3B 3993   4.869   9.799   7.964
   22POPC   C4B 3994   4.885   9.759   7.664
   23POPC   NC3 3995  33.816  35.340   9.464
   23POPC   PO4 3996  33.759  35.310   9.164
   23POPC   GL1 3997  33.826  35.348   8.864
   23POPC   GL2 3998  33.707  35.344   8.864
   23POPC   C1A 3999  33.843  35.315   8.564
   23POPC   D2A 4000  33.849  35.352   8.264
   23POPC   C3A 4001  33.765  35.312   7.964
   23POPC   C4A 4002  33.770  35.392   7.664
   23POPC   C1B 4003  33.581  35.382   8.564
   23POPC   C2B 4004  33.579  35.328   8.264
   23POPC   C3B 4005  33.555  35.325   7.964
   23POPC   C4B 4006  33.519  35.356   7.664
   24POPC   NC3 4007  12.109  36.094   9.464
   24POPC   PO4 4008  12.118  36.151   9.164
   24POPC   GL1 4009  12.028  36.088   8.864
   24POPC   GL2 4010  12.006  36.049   8.864
   24POPC   C1A 4011  12.114  36.142   8.564
   24POPC   D2A 4012  12.053  36.159   8.264
   24POPC   C3A 4013  12.086  36.097   7.964
   24POPC   C4A 4014  12.049  36.158   7.664
   24POPC   C1B 4015  12.010  35.937   8.564
   24POPC   C2B 4016  12.040  35.882   8.264
   24POPC   C3B 4017  12.022  35.844   7.964
   24POPC   C4B 4018  11.984  35.862   7.664
   25POPC   NC3 4019  28.393  12.824   9.464
   25POPC   PO4 4020  28.353  12.865   9.164
   25POPC   GL1 4021  28.352  12.825   8.864
   25POPC   GL2 4022  28.442  12.791   8.864
   25POPC   C1A 4023  28.353  12.827   8.564
   25POPC   D2A 4024  28.391  12.882   8.264
   25POPC   C3A 4025  28.379  12.877   7.964
   25POPC   C4A 4026  28.398  12.876   7.664
   25POPC   C1B 4027  28.519  12.625   8.564
   25POPC   C2B 4028  28.489  12.698   8.264
   25POPC   C3B 4029  28.483  12.689   7.964
   25POPC   C4B 4030  28.533  12.678   7.664
   26POPC   NC3 4031  26.838  25.299   9.464
   26POPC   PO4 4032  26.812  25.303   9.164
   26POPC   GL1 4033  26.775  25.228   8.864
   26POPC   GL2 4034  26.733  25.184   8.864
   26POPC   C1A 4035  26.800  25.262   8.564
   26POPC   D2A 4036  26.855  25.229   8.264
   26POPC   C3A 4037  26.811  25.255   7.964
   26POPC   C4A 4038  26.789  25.308   7.664
   26POPC   C1B 4039  26.545  25.214   8.564
   26POPC   C2B 4040  26.605  25.156   8.264
   26POPC   C3B 4041  26.560  25.227   7.964
   26POPC   C4B 4042  26.570  25.187   7.664
   27POPC   NC3 4043  42.343   4.346   9.464
   27POPC   PO4 4044  42.302   4.328   9.164
   27POPC   GL1 4045  42.292   4.345   8.864
   27POPC   GL2 4046  42.502   4.364   8.864
   27POPC   C1A 4047  42.324   4.327   8.564
   27POPC   D2A 4048  42.308   4.332   8.264
   27POPC   C3A 4049  42.377   4.307   7.964
   27POPC   C4A 4050  42.334   4.298   7.664
   27POPC   C1B 4051  42.562   4.308   8.564
   27POPC   C2B 4052  42.603   4.298   8.264
   27POPC   C3B 4053  42.625   4.339   7.964
   27POPC   C4B 4054  42.611   4.373   7.664
   28POPC   NC3 4055  28.337   0.392   9.464
   28POPC   PO4 4056  28.349   0.441   9.164
   28POPC   GL1 4057  28.384   0.480   8.864
   28POPC   GL2 4058  28.286   0.400   8.864
   28POPC   C1A 4059  28.371   0.470   8.564
   28POPC   D2A 4060  28.372   0.457   8.264
   28POPC   C3A 4061  28.382   0.416   7.964
   28POPC   C4A 4062  28.398   0.412   7.664
   28POPC   C1B 4063  28.146   0.421   8.564
   28POPC   C2B 4064  28.154   0.421   8.264
   28POPC   C3B 4065  28.101   0.379   7.964
   28POPC   C4B 4066  28.161   0.438   7.664
   29POPC   NC3 4067   5.877  11.291   9.464
   29POPC   PO4 4068   5.845  11.316   9.164
   29POPC   GL1 4069   5.847  11.255   8.864
   29POPC   GL2 4070   5.928  11.168   8.864
   29POPC   C1A 4071   5.902  11.320   8.564
   29POPC   D2A 4072   5.893  11.282   8.264
   29POPC   C3A 4073   5.913  11.338   7.964
   29POPC   C4A 4074   5.902  11.269   7.664
   29POPC   C1B 4075   5.973  11.106   8.564
   29POPC   C2B 4076   5.954  11.089   8.264
   29POPC   C3B 4077   5.935  11.055   7.964
   29POPC   C4B 4078   6.018  11.100   7.664
   30POPC   NC3 4079  43.154  15.199   9.464
   30POPC   PO4 4080  43.062  15.179   9.164
   30POPC   GL1 4081  43.082  15.152   8.864
   30POPC   GL2 4082  43.092  15.297   8.864
   30POPC   C1A 4083  43.096  15.208   8.564
   30POPC   D2A 4084  43.105  15.151   8.264
   30POPC   C3A 4085  43.061  15.223   7.964
   30POPC   C4A 4086  43.157  15.222   7.664
   30POPC   C1B 4087  43.055  15.394   8.564
   30POPC   C2B 4088  43.059  15.395   8.264
   30POPC   C3B 4089  43.113  15.441   7.964
   30POPC   C4B 4090  43.086  15.422   7.664
   31POPC   NC3 4091  26.784   3.498   9.464
   31POPC   PO4 4092  26.787   3.520   9.164
   31POPC   GL1 4093  26.806   3.529   8.864
   31POPC   GL2 4094  26.891   3.620   8.864
   31POPC   C1A 4095  26.832   3.494   8.564
   31POPC   D2A 4096  26.815   3.512   8.264
   31POPC   C3A 4097  26.860   3.522   7.964
   31POPC   C4A 4098  26.782   3.500   7.664
   31POPC   C1B 4099  26.996   3.710   8.564
   31POPC   C2B 4100  26.951   3.663   8.264
   31POPC   C3B 4101  26.992   3.720   7.964
   31POPC   C4B 4102  27.042   3.714   7.664
   32POPC   NC3 4103  19.883  33.835   9.464
   32POPC   PO4 4104  19.873  33.794   9.164
   32POPC   GL1 4105  19.847  33.822   8.864
   32POPC   GL2 4106  19.864  33.962   8.864
   32POPC   C1A 4107  19.786  33.832   8.564
   32POPC   D2A 4108  19.828  33.761   8.264
   32POPC   C3A 4109  19.840  33.772   7.964
   32POPC   C4A 4110  19.839  33.782   7.664
   32POPC   C1B 4111  19.861  34.017   8.564
   32POPC   C2B 4112  19.804  34.083   8.264
   32POPC   C3B 4113  19.878  34.071   7.964
   32POPC   C4B 4114  19.837  34.058   7.664
   33POPC   NC3 4115  10.544  21.354   9.464
   33POPC   PO4 4116  10.556  21.409   9.164
   33POPC   GL1 4117  10.539  21.340   8.864
   33POPC   GL2 4118  10.663  21.292   8.864
   33POPC   C1A 4119  10.486  21.367   8.564
   33POPC   D2A 4120  10.538  21.337   8.264
   33POPC   C3A 4121  10.514  21.369   7.964
   33POPC   C4A 4122  10.563  21.371   7.664
   33POPC   C1B 4123  10.705  21.261   8.564
   33POPC   C2B 4124  10.782  21.241   8.264
   33POPC   C3B 4125  10.706  21.261   7.964
   33POPC   C4B 4126  10.755  21.244   7.664
   34POPC   NC3 4127  43.839  15.965   9.464
   34POPC   PO4 4128  43.891  15.950   9.164
   34POPC   GL1 4129  43.865  15.976   8.864
   34POPC   GL2 4130  43.991  16.101   8.864
   34POPC   C1A 4131  43.913  15.922   8.564
   34POPC   D2A 4132  43.847  15.985   8.264
   34POPC   C3A 4133  43.871  16.001   7.964
   34POPC   C4A 4134  43.850  15.915   7.664
   34POPC   C1B 4135  43.979  16.156   8.564
   34POPC   C2B 4136  44.059  16.189   8.264
   34POPC   C3B 4137  44.057  16.131   7.964
   34POPC   C4B 4138  44.054  16.175   7.664
   35POPC   NC3 4139  43.117  29.177   9.464
   35POPC   PO4 4140  43.084  29.157   9.164
   35POPC   GL1 4141  43.151  29.130   8.864
   35POPC   GL2 4142  43.012  29.005   8.864
   35POPC   C1A 4143  43.083  29.194   8.564
   35POPC   D2A 4144  43.090  29.169   8.264
   35POPC   C3A 4145  43.113  29.192   7.964
   35POPC   C4A 4146  43.078  29.180   7.664
   35POPC   C1B 4147  42.969  28.886   8.564
   35POPC   C2B 4148  43.017  28.920   8.264
   35POPC   C3B 4149  42.996  28.886   7.964
   35POPC   C4B 4150  42.978  28.909   7.664
   36POPC   NC3 4151  34.581  29.879   9.464
   36POPC   PO4 4152  34.603  29.912   9.164
   36POPC   GL1 4153  34.536  29.959   8.864
   36POPC   GL2 4154  34.618  29.757   8.864
   36POPC   C1A 4155  34.619  29.882   8.564
   36POPC   D2A 4156  34.581  29.953   8.264
   36POPC   C3A 4157  34.575  29.914   7.964
   36POPC   C4A 4158  34.577  29.926   7.664
   36POPC   C1B 4159  34.609  29.646   8.564
   36POPC   C2B 4160  34.659  29.670   8.264
   36POPC   C3B 4161  34.616  29.630   7.964
   36POPC   C4B 4162  34.618  29.652   7.664
   37POPC   NC3 4163   9.734  32.274   9.464
   37POPC   PO4 4164   9.770  32.266   9.164
   37POPC   GL1 4165   9.773  32.272   8.864
   37POPC   GL2 4166   9.736  32.086   8.864
   37POPC   C1A 4167   9.750  32.248   8.564
   37POPC   D2A 4168   9.709  32.246   8.264
   37POPC   C3A 4169   9.713  32.245   7.964
   37POPC   C4A 4170   9.751  32.238   7.664
   37POPC   C1B 4171   9.839  31.970   8.564
   37POPC   C2B 4172   9.776  32.049   8.264
   37POPC   C3B 4173   9.795  31.963   7.964
   37POPC   C4B 4174   9.788  32.041   7.664
   38POPC   NC3 4175  13.620  22.185   9.464
   38POPC   PO4 4176  13.646  22.151   9.164
   38POPC   GL1 4177  13.609  22.141   8.864
   38POPC   GL2 4178  13.755  22.164   8.864
   38POPC   C1A 4179  13.598  22.155   8.564
   38POPC   D2A 4180  13.667  22.193   8.264
   38POPC   C3A 4181  13.661  22.188   7.964
   38POPC   C4A 4182  13.607  22.159   7.664
   38POPC   C1B 4183  13.834  22.220   8.564
   38POPC   C2B 4184  13.897  22.259   8.264
   38POPC   C3B 4185  13.837  22.227   7.964
   38POPC   C4B 4186  13.863  22.200   7.664
   39POPC   NC3 4187  25.272  22.964   9.464
   39POPC   PO4 4188  25.262  22.888   9.164
   39POPC   GL1 4189  25.233  22.953   8.864
   39POPC   GL2 4190  25.239  23.078   8.864
   39POPC   C1A 4191  25.282  22.936   8.564
   39POPC   D2A 4192  25.239  22.923   8.264
   39POPC   C3A 4193  25.236  22.967   7.964
   39POPC   C4A 4194  25.242  22.932   7.664
   39POPC   C1B 4195  25.124  23.193   8.564
   39POPC   C2B 4196  25.155  23.107   8.264
   39POPC   C3B 4197  25.146  23.119   7.964
   39POPC   C4B 4198  25.103  23.172   7.664
   40POPC   NC3 4199  39.205  41.562   9.464
   40POPC   PO4 4200  39.199  41.589   9.164
   40POPC   GL1 4201  39.183  41.565   8.864
   40POPC   GL2 4202  39.281  41.459   8.864
   40POPC   C1A 4203  39.192  41.516   8.564
   40POPC   D2A 4204  39.280  41.544   8.264
   40POPC   C3A 4205  39.239  41.534   7.964
   40POPC   C4A 4206  39.280  41.519   7.664
   40POPC   C1B 4207  39.265  41.283   8.564
   40POPC   C2B 4208  39.259  41.294   8.264
   40POPC   C3B 4209  39.310  41.354   7.964
   40POPC   C4B 4210  39.293  41.354   7.664
   41POPC   NC3 4211  10.514  43.122   9.464
   41POPC   PO4 4212  10.564  43.148   9.164
   41POPC   GL1 4213  10.507  43.157   8.864
   41POPC   GL2 4214  10.394  43.044   8.864
   41POPC   C1A 4215  10.510  43.154   8.564
   41POPC   D2A 4216  10.509  43.131   8.264
   41POPC   C3A 4217  10.489  43.112   7.964
   41POPC   C4A 4218  10.482  43.106   7.664
   41POPC   C1B 4219  10.258  43.062   8.564
   41POPC   C2B 4220  10.291  43.019   8.264
   41POPC   C3B 4221  10.310  43.043   7.964
   41POPC   C4B 4222  10.341  42.975   7.664
   42POPC   NC3 4223   1.174   2.785   9.464
   42POPC   PO4 4224   1.167   2.757   9.164
   42POPC   GL1 4225   1.236   2.789   8.864
   42POPC   GL2 4226   1.347   2.846   8.864
   42POPC   C1A 4227   1.203   2.765   8.564
   42POPC   D2A 4228   1.253   2.783   8.264
   42POPC   C3A 4229   1.186   2.780   7.964
   42POPC   C4A 4230   1.200   2.730   7.664
   42POPC   C1B 4231   1.442   2.945   8.564
   42POPC   C2B 4232   1.383   2.918   8.264
   42POPC   C3B 4233   1.387   2.954   7.964
   42POPC   C4B 4234   1.377   2.912   7.664
   43POPC   NC3 4235  26.797  35.401   9.464
   43POPC   PO4 4236  26.855  35.304   9.164
   43POPC   GL1 4237  26.814  35.366   8.864
   43POPC   GL2 4238  26.752  35.188   8.864
   43POPC   C1A 4239  26.817  35.369   8.564
   43POPC   D2A 4240  26.812  35.331   8.264
   43POPC   C3A 4241  26.849  35.331   7.964
   43POPC   C4A 4242  26.849  35.341   7.664
   43POPC   C1B 4243  26.714  35.131   8.564
   43POPC   C2B 4244  26.722  35.152   8.264
   43POPC   C3B 4245  26.713  35.138   7.964
   43POPC   C4B 4246  26.735  35.158   7.664
   44POPC   NC3 4247   9.761  26.850   9.464
   44POPC   PO4 4248   9.715  26.833   9.164
   44POPC   GL1 4249   9.712  26.832   8.864
   44POPC   GL2 4250   9.729  26.926   8.864
   44POPC   C1A 4251   9.797  26.791   8.564
   44POPC   D2A 4252   9.776  26.768   8.264
   44POPC   C3A 4253   9.713  26.833   7.964
   44POPC   C4A 4254   9.706  26.772   7.664
   44POPC   C1B 4255   9.663  27.003   8.564
   44POPC   C2B 4256   9.659  27.053   8.264
   44POPC   C3B 4257   9.657  27.020   7.964
   44POPC   C4B 4258   9.626  27.008   7.664
   45POPC   NC3 4259   8.171  19.878   9.464
   45POPC   PO4 4260   8.227  19.802   9.164
   45POPC   GL1 4261   8.166  19.818   8.864
   45POPC   GL2 4262   8.290  19.742   8.864
   45POPC   C1A 4263   8.237  19.842   8.564
   45POPC   D2A 4264   8.244  19.834   8.264
   45POPC   C3A 4265   8.172  19.873   7.964
   45POPC   C4A 4266   8.161  19.856   7.664
   45POPC   C1B 4267   8.413  19.757   8.564
   45POPC   C2B 4268   8.410  19.735   8.264
   45POPC   C3B 4269   8.407  19.674   7.964
   45POPC   C4B 4270   8.382  19.663   7.664
   46POPC   NC3 4271   4.329  33.772   9.464
   46POPC   PO4 4272   4.276  33.838   9.164
   46POPC   GL1 4273   4.302  33.806   8.864
   46POPC   GL2 4274   4.438  33.843   8.864
   46POPC   C1A 4275   4.321  33.820   8.564
   46POPC   D2A 4276   4.335  33.812   8.264
   46POPC   C3A 4277   4.313  33.832   7.964
   46POPC   C4A 4278   4.273  33.849   7.664
   46POPC   C1B 4279   4.502  33.900   8.564
   46POPC   C2B 4280   4.503  33.941   8.264
   46POPC   C3B 4281   4.536  33.927   7.964
   46POPC   C4B 4282   4.562  33.976   7.664
   47POPC   NC3 4283  15.908   6.686   9.464
   47POPC   PO4 4284  15.922   6.635   9.164
   47POPC   GL1 4285  15.976   6.627   8.864
   47POPC   GL2 4286  15.962   6.527   8.864
   47POPC   C1A 4287  15.959   6.620   8.564
   47POPC   D2A 4288  15.969   6.629   8.264
   47POPC   C3A 4289  15.921   6.622   7.964
   47POPC   C4A 4290  15.974   6.659   7.664
   47POPC   C1B 4291  16.070   6.427   8.564
   47POPC   C2B 4292  16.054   6.388   8.264
   47POPC   C3B 4293  16.054   6.400   7.964
   47POPC   C4B 4294  16.008   6.387   7.664
   48POPC   NC3 4295  37.677  37.650   9.464
   48POPC   PO4 4296  37.709  37.705   9.164
   48POPC   GL1 4297  37.716  37.720   8.864
   48POPC   GL2 4298  37.824  37.700   8.864
   48POPC   C1A 4299  37.632  37.689   8.564
   48POPC   D2A 4300  37.710  37.668   8.264
   48POPC   C3A 4301  37.721  37.693   7.964
   48POPC   C4A 4302  37.640  37.644   7.664
   48POPC   C1B 4303  37.911  37.633   8.564
   48POPC   C2B 4304  37.929  37.688   8.264
   48POPC   C3B 4305  37.887  37.718   7.964
   48POPC   C4B 4306  37.907  37.684   7.664
   49POPC   NC3 4307   0.469  36.092   9.464
   49POPC   PO4 4308   0.394  36.079   9.164
   49POPC   GL1 4309   0.388  36.125   8.864
   49POPC   GL2 4310   0.280  36.111   8.864
   49POPC   C1A 4311   0.463  36.167   8.564
   49POPC   D2A 4312   0.407  36.108   8.264
   49POPC   C3A 4313   0.426  36.110   7.964
   49POPC   C4A 4314   0.411  36.159   7.664
   49POPC   C1B 4315   0.254  36.070   8.564
   49POPC   C2B 4316   0.166  36.036   8.264
   49POPC   C3B 4317   0.255  36.036   7.964
   49POPC   C4B 4318   0.193  36.048   7.664
   50POPC   NC3 4319  40.756  21.374   9.464
   50POPC   PO4 4320  40.757  21.375   9.164
   50POPC   GL1 4321  40.790  21.391   8.864
   50POPC   GL2 4322  40.673  21.303   8.864
   50POPC   C1A 4323  40.781  21.405   8.564
   50POPC   D2A 4324  40.806  21.401   8.264
   50POPC   C3A 4325  40.829  21.401   7.964
   50POPC   C4A 4326  40.789  21.376   7.664
   50POPC   C1B 4327  40.594  21.213   8.564
   50POPC   C2B 4328  40.616  21.242   8.264
   50POPC   C3B 4329  40.612  21.244   7.964
   50POPC   C4B 4330  40.558  21.206   7.664
   51POPC   NC3 4331   3.525   7.462   9.464
   51POPC   PO4 4332   3.532   7.421   9.164
   51POPC   GL1 4333   3.500   7.439   8.864
   51POPC   GL2 4334   3.578   7.304   8.864
   51POPC   C1A 4335   3.575   7.449   8.564
   51POPC   D2A 4336   3.552   7.456   8.264
   51POPC   C3A 4337   3.522   7.425   7.964
   51POPC   C4A 4338   3.544   7.440   7.664
   51POPC   C1B 4339   3.603   7.178   8.564
   51POPC   C2B 4340   3.634   7.184   8.264
   51POPC   C3B 4341   3.640   7.146   7.964
   51POPC   C4B 4342   3.569   7.178   7.664
   52POPC   NC3 4343   8.993  29.925   9.464
   52POPC   PO4 4344   8.948  29.914   9.164
   52POPC   GL1 4345   8.962  29.960   8.864
   52POPC   GL2 4346   8.862  29.806   8.864
   52POPC   C1A 4347   8.924  29.871   8.564
   52POPC   D2A 4348   9.013  29.882   8.264
   52POPC   C3A 4349   9.008  29.911   7.964
   52POPC   C4A 4350   8.953  29.908   7.664
   52POPC   C1B 4351   8.760  29.760   8.564
   52POPC   C2B 4352   8.790  29.741   8.264
   52POPC   C3B 4353   8.737  29.816   7.964
   52POPC   C4B 4354   8.764  29.822   7.664
   53POPC   NC3 4355  32.999   8.171   9.464
   53POPC   PO4 4356  33.028   8.172   9.164
   53POPC   GL1 4357  33.066   8.236   8.864
   53POPC   GL2 4358  33.155   8.241   8.864
   53POPC   C1A 4359  33.006   8.246   8.564
   53POPC   D2A 4360  32.992   8.157   8.264
   53POPC   C3A 4361  33.069   8.240   7.964
   53POPC   C4A 4362  33.027   8.153   7.664
   53POPC   C1B 4363  33.248   8.259   8.564
   53POPC   C2B 4364  33.285   8.223   8.264
   53POPC   C3B 4365  33.301   8.199   7.964
   53POPC   C4B 4366  33.286   8.266   7.664
   54POPC   NC3 4367  41.539  29.178   9.464
   54POPC   PO4 4368  41.527  29.189   9.164
   54POPC   GL1 4369  41.566  29.120   8.864
   54POPC   GL2 4370  41.672  29.260   8.864
   54POPC   C1A 4371  41.607  29.118   8.564
   54POPC   D2A 4372  41.596  29.141   8.264
   54POPC   C3A 4373  41.572  29.171   7.964
   54POPC   C4A 4374  41.545  29.162   7.664
   54POPC   C1B 4375  41.723  29.377   8.564
   54POPC   C2B 4376  41.754  29.290   8.264
   54POPC   C3B 4377  41.678  29.312   7.964
   54POPC   C4B 4378  41.773  29.363   7.664
   55POPC   NC3 4379  19.099  29.149   9.464
   55POPC   PO4 4380  19.051  29.181   9.164
   55POPC   GL1 4381  19.070  29.181   8.864
   55POPC   GL2 4382  19.144  29.173   8.864
   55POPC   C1A 4383  19.107  29.121   8.564
   55POPC   D2A 4384  19.071  29.159   8.264
   55POPC   C3A 4385  19.025  29.099   7.964
   55POPC   C4A 4386  19.101  29.173   7.664
   55POPC   C1B 4387  19.230  29.292   8.564
   55POPC   C2B 4388  19.283  29.288   8.264
   55POPC   C3B 4389  19.264  29.304   7.964
   55POPC   C4B 4390  19.246  29.266   7.664
   56POPC   NC3 4391  10.486   1.978   9.464
   56POPC   PO4 4392  10.529   1.999   9.164
   56POPC   GL1 4393  10.494   2.015   8.864
   56POPC   GL2 4394  10.610   1.959   8.864
   56POPC   C1A 4395  10.558   2.038   8.564
   56POPC   D2A 4396  10.554   2.039   8.264
   56POPC   C3A 4397  10.545   1.978   7.964
   56POPC   C4A 4398  10.495   1.940   7.664
   56POPC   C1B 4399  10.751   1.915   8.564
   56POPC   C2B 4400  10.702   1.929   8.264
   56POPC   C3B 4401  10.730   1.926   7.964
   56POPC   C4B 4402  10.733   1.840   7.664
   57POPC   NC3 4403  36.909  27.609   9.464
   57POPC   PO4 4404  36.861  27.624   9.164
   57POPC   GL1 4405  36.945  27.635   8.864
   57POPC   GL2 4406  36.957  27.757   8.864
   57POPC   C1A 4407  36.919  27.627   8.564
   57POPC   D2A 4408  36.857  27.609   8.264
   57POPC   C3A 4409  36.859  27.640   7.964
   57POPC   C4A 4410  36.938  27.573   7.664
   57POPC   C1B 4411  36.921  27.865   8.564
   57POPC   C2B 4412  36.998  27.876   8.264
   57POPC   C3B 4413  36.918  27.791   7.964
   57POPC   C4B 4414  36.936  27.824   7.664
   58POPC   NC3 4415   3.562  20.607   9.464
   58POPC   PO4 4416   3.573  20.641   9.164
   58POPC   GL1 4417   3.560  20.590   8.864
   58POPC   GL2 4418   3.525  20.750   8.864
   58POPC   C1A 4419   3.499  20.625   8.564
   58POPC   D2A 4420   3.584  20.596   8.264
   58POPC   C3A 4421   3.536  20.618   7.964
   58POPC   C4A 4422   3.575  20.622   7.664
   58POPC   C1B 4423   3.613  20.907   8.564
   58POPC   C2B 4424   3.582  20.811   8.264
   58POPC   C3B 4425   3.551  20.827   7.964
   58POPC   C4B 4426   3.575  20.816   7.664
   59POPC   NC3 4427  40.022  33.032   9.464
   59POPC   PO4 4428  39.971  32.987   9.164
   59POPC   GL1 4429  39.966  33.056   8.864
   59POPC   GL2 4430  40.058  33.092   8.864
   59POPC   C1A 4431  39.987  33.073   8.564
   59POPC   D2A 4432  39.980  33.043   8.264
   59POPC   C3A 4433  40.024  33.035   7.964
   59POPC   C4A 4434  39.959  32.996   7.664
   59POPC   C1B 4435  40.183  33.216   8.564
   59POPC   C2B 4436  40.206  33.233   8.264
   59POPC   C3B 4437  40.162  33.191   7.964
   59POPC   C4B 4438  40.216  33.204   7.664
   60POPC   NC3 4439  16.722   9.793   9.464
   60POPC   PO4 4440  16.726   9.698   9.164
   60POPC   GL1 4441  16.776   9.720   8.864
   60POPC   GL2 4442  16.811   9.776   8.864
   60POPC   C1A 4443  16.739   9.706   8.564
   60POPC   D2A 4444  16.741   9.748   8.264
   60POPC   C3A 4445  16.686   9.760   7.964
   60POPC   C4A 4446  16.707   9.778   7.664
   60POPC   C1B 4447  16.989   9.908   8.564
   60POPC   C2B 4448  16.904   9.907   8.264
   60POPC   C3B 4449  16.953   9.883   7.964
   60POPC   C4B 4450  16.901   9.869   7.664
   61POPC   NC3 4451  15.973  25.998   9.464
   61POPC   PO4 4452  15.974  26.081   9.164
   61POPC   GL1 4453  15.949  26.076   8.864
   61POPC   GL2 4454  15.921  26.136   8.864
   61POPC   C1A 4455  15.968  26.082   8.564
   61POPC   D2A 4456  15.910  26.068   8.264
   61POPC   C3A 4457  15.941  26.084   7.964
   61POPC   C4A 4458  15.940  26.026   7.664
   61POPC   C1B 4459  15.934  26.250   8.564
   61POPC   C2B 4460  16.015  26.307   8.264
   61POPC   C3B 4461  15.936  26.272   7.964
   61POPC   C4B 4462  15.989  26.305   7.664
   62POPC   NC3 4463   3.566  22.909   9.464
   62POPC   PO4 4464   3.590  22.960   9.164
   62POPC   GL1 4465   3.523  22.960   8.864
   62POPC   GL2 4466   3.699  22.864   8.864
   62POPC   C1A 4467   3.554  22.969   8.564
   62POPC   D2A 4468   3.517  22.987   8.264
   62POPC   C3A 4469   3.580  22.908   7.964
   62POPC   C4A 4470   3.508  22.973   7.664
   62POPC   C1B 4471   3.759  22.850   8.564
   62POPC   C2B 4472   3.781  22.878   8.264
   62POPC   C3B 4473   3.780  22.875   7.964
   62POPC   C4B 4474   3.779  22.858   7.664
   63POPC   NC3 4475  12.868  14.446   9.464
   63POPC   PO4 4476  12.817  14.415   9.164
   63POPC   GL1 4477  12.839  14.420   8.864
   63POPC   GL2 4478  12.901  14.266   8.864
   63POPC   C1A 4479  12.845  14.380   8.564
   63POPC   D2A 4480  12.885  14.365   8.264
   63POPC   C3A 4481  12.818  14.414   7.964
   63POPC   C4A 4482  12.846  14.369   7.664
   63POPC   C1B 4483  13.011  14.187   8.564
   63POPC   C2B 4484  13.043  14.161   8.264
   63POPC   C3B 4485  12.960  14.183   7.964
   63POPC   C4B 4486  13.003  14.211   7.664
   64POPC   NC3 4487  44.627  42.377   9.464
   64POPC   PO4 4488  44.708  42.306   9.164
   64POPC   GL1 4489  44.673  42.358   8.864
   64POPC   GL2 4490  44.585  42.481   8.864
   64POPC   C1A 4491  44.665  42.329   8.564
   64POPC   D2A 4492  44.653  42.327   8.264
   64POPC   C3A 4493  44.622  42.328   7.964
   64POPC   C4A 4494  44.695  42.294   7.664
   64POPC   C1B 4495  44.630  42.546   8.564
   64POPC   C2B 4496  44.553  42.552   8.264
   64POPC   C3B 4497  44.571  42.573   7.964
   64POPC   C4B 4498  44.615  42.532   7.664
   65POPC   NC3 4499  31.511  39.206   9.464
   65POPC   PO4 4500  31.512  39.269   9.164
   65POPC   GL1 4501  31.493  39.236   8.864
   65POPC   GL2 4502  31.367  39.224   8.864
   65POPC   C1A 4503  31.429  39.253   8.564
   65POPC   D2A 4504  31.485  39.272   8.264
   65POPC   C3A 4505  31.507  39.212   7.964
   65POPC   C4A 4506  31.504  39.182   7.664
   65POPC   C1B 4507  31.236  39.207   8.564
   65POPC   C2B 4508  31.180  39.215   8.264
   65POPC   C3B 4509  31.248  39.198   7.964
   65POPC   C4B 4510  31.201  39.186   7.664
   66POPC   NC3 4511   1.168   9.791   9.464
   66POPC   PO4 4512   1.181   9.709   9.164
   66POPC   GL1 4513   1.179   9.707   8.864
   66POPC   GL2 4514   1.165   9.872   8.864
   66POPC   C1A 4515   1.166   9.784   8.564
   66POPC   D2A 4516   1.223   9.792   8.264
   66POPC   C3A 4517   1.166   9.771   7.964
   66POPC   C4A 4518   1.192   9.743   7.664
   66POPC   C1B 4519   1.075   9.953   8.564
   66POPC   C2B 4520   0.992   9.919   8.264
   66POPC   C3B 4521   1.030   9.957   7.964
   66POPC   C4B 4522   1.026   9.950   7.664
   67POPC   NC3 4523  24.456  14.370   9.464
   67POPC   PO4 4524  24.527  14.390   9.164
   67POPC   GL1 4525  24.524  14.369   8.864
   67POPC   GL2 4526  24.566  14.426   8.864
   67POPC   C1A 4527  24.457  14.438   8.564
   67POPC   D2A 4528  24.468  14.388   8.264
   67POPC   C3A 4529  24.460  14.403   7.964
   67POPC   C4A 4530  24.447  14.408   7.664
   67POPC   C1B 4531  24.685  14.457   8.564
   67POPC   C2B 4532  24.715  14.442   8.264
   67POPC   C3B 4533  24.776  14.418   7.964
   67POPC   C4B 4534  24.707  14.499   7.664
   68POPC   NC3 4535   2.776  19.062   9.464
   68POPC   PO4 4536   2.772  19.029   9.164
   68POPC   GL1 4537   2.803  19.019   8.864
   68POPC   GL2 4538   2.799  18.983   8.864
   68POPC   C1A 4539   2.795  19.072   8.564
   68POPC   D2A 4540   2.780  19.042   8.264
   68POPC   C3A 4541   2.758  19.071   7.964
   68POPC   C4A 4542   2.799  19.106   7.664
   68POPC   C1B 4543   2.748  18.827   8.564
   68POPC   C2B 4544   2.765  18.838   8.264
   68POPC   C3B 4545   2.783  18.775   7.964
   68POPC   C4B 4546   2.800  18.777   7.664
   69POPC   NC3 4547  30.673  41.517   9.464
   69POPC   PO4 4548  30.693  41.510   9.164
   69POPC   GL1 4549  30.702  41.591   8.864
   69POPC   GL2 4550  30.736  41.484   8.864
   69POPC   C1A 4551  30.680  41.550   8.564
   69POPC   D2A 4552  30.656  41.547   8.264
   69POPC   C3A 4553  30.648  41.550   7.964
   69POPC   C4A 4554  30.745  41.510   7.664
   69POPC   C1B 4555  30.774  41.376   8.564
   69POPC   C2B 4556  30.756  41.370   8.264
   69POPC   C3B 4557  30.786  41.363   7.964
   69POPC   C4B 4558  30.802  41.293   7.664
   70POPC   NC3 4559  11.269  23.687   9.464
   70POPC   PO4 4560  11.309  23.667   9.164
   70POPC   GL1 4561  11.295  23.669   8.864
   70POPC   GL2 4562  11.429  23.684   8.864
   70POPC   C1A 4563  11.276  23.669   8.564
   70POPC   D2A 4564  11.319  23.722   8.264
   70POPC   C3A 4565  11.332  23.673   7.964
   70POPC   C4A 4566  11.272  23.739   7.664
   70POPC   C1B 4567  11.577  23.745   8.564
   70POPC   C2B 4568  11.571  23.704   8.264
   70POPC   C3B 4569  11.567  23.778   7.964
   70POPC   C4B 4570  11.532  23.774   7.664
   71POPC   NC3 4571  32.202  27.564   9.464
   71POPC   PO4 4572  32.256  27.598   9.164
   71POPC   GL1 4573  32.201  27.575   8.864
   71POPC   GL2 4574  32.190  27.751   8.864
   71POPC   C1A 4575  32.201  27.616   8.564
   71POPC   D2A 4576  32.224  27.603   8.264
   71POPC   C3A 4577  32.234  27.618   7.964
   71POPC   C4A 4578  32.288  27.574   7.664
   71POPC   C1B 4579  32.217  27.816   8.564
   71POPC   C2B 4580  32.175  27.860   8.264
   71POPC   C3B 4581  32.237  27.862   7.964
   71POPC   C4B 4582  32.209  27.885   7.664
   72POPC   NC3 4583  15.993  33.760   9.464
   72POPC   PO4 4584  16.005  33.824   9.164
   72POPC   GL1 4585  15.987  33.850   8.864
   72POPC   GL2 4586  15.971  33.689   8.864
   72POPC   C1A 4587  15.943  33.828   8.564
   72POPC   D2A 4588  15.933  33.782   8.264
   72POPC   C3A 4589  15.910  33.807   7.964
   72POPC   C4A 4590  15.920  33.762   7.664
   72POPC   C1B 4591  16.115  33.540   8.564
   72POPC   C2B 4592  16.063  33.597   8.264
   72POPC   C3B 4593  16.037  33.610   7.964
   72POPC   C4B 4594  16.068  33.539   7.664
   73POPC   NC3 4595   7.432  33.778   9.464
   73POPC   PO4 4596   7.415  33.789   9.164
   73POPC   GL1 4597   7.436  33.838   8.864
   73POPC   GL2 4598   7.331  33.904   8.864
   73POPC   C1A 4599   7.450  33.781   8.564
   73POPC   D2A 4600   7.443  33.770   8.264
   73POPC   C3A 4601   7.389  33.778   7.964
   73POPC   C4A 4602   7.394  33.760   7.664
   73POPC   C1B 4603   7.175  33.867   8.564
   73POPC   C2B 4604   7.161  33.950   8.264
   73POPC   C3B 4605   7.154  33.904   7.964
   73POPC   C4B 4606   7.186  33.918   7.664
   74POPC   NC3 4607   5.077   4.355   9.464
   74POPC   PO4 4608   5.095   4.328   9.164
   74POPC   GL1 4609   5.106   4.367   8.864
   74POPC   GL2 4610   4.951   4.396   8.864
   74POPC   C1A 4611   5.100   4.345   8.564
   74POPC   D2A 4612   5.101   4.308   8.264
   74POPC   C3A 4613   5.063   4.314   7.964
   74POPC   C4A 4614   5.133   4.320   7.664
   74POPC   C1B 4615   4.862   4.443   8.564
   74POPC   C2B 4616   4.882   4.444   8.264
   74POPC   C3B 4617   4.844   4.484   7.964
   74POPC   C4B 4618   4.828   4.459   7.664
   75POPC   NC3 4619  12.096  32.273   9.464
   75POPC   PO4 4620  12.111  32.283   9.164
   75POPC   GL1 4621  12.080  32.245   8.864
   75POPC   GL2 4622  11.911  32.179   8.864
   75POPC   C1A 4623  12.115  32.248   8.564
   75POPC   D2A 4624  12.046  32.280   8.264
   75POPC   C3A 4625  12.080  32.273   7.964
   75POPC   C4A 4626  12.090  32.223   7.664
   75POPC   C1B 4627  11.856  32.206   8.564
   75POPC   C2B 4628  11.882  32.200   8.264
   75POPC   C3B 4629  11.794  32.187   7.964
   75POPC   C4B 4630  11.807  32.207   7.664
   76POPC   NC3 4631   0.422  29.885   9.464
   76POPC   PO4 4632   0.453  29.954   9.164
   76POPC   GL1 4633   0.460  29.877   8.864
   76POPC   GL2 4634   0.362  29.969   8.864
   76POPC   C1A 4635   0.469  29.890   8.564
   76POPC   D2A 4636   0.485  29.893   8.264
   76POPC   C3A 4637   0.400  29.921   7.964
   76POPC   C4A 4638   0.410  29.906   7.664
   76POPC   C1B 4639   0.268  30.047   8.564
   76POPC   C2B 4640   0.272  30.108   8.264
   76POPC   C3B 4641   0.282  30.038   7.964
   76POPC   C4B 4642   0.193  30.079   7.664
   77POPC   NC3 4643  38.484  41.549   9.464
   77POPC   PO4 4644  38.491  41.559   9.164
   77POPC   GL1 4645  38.422  41.568   8.864
   77POPC   GL2 4646  38.620  41.489   8.864
   77POPC   C1A 4647  38.409  41.569   8.564
   77POPC   D2A 4648  38.496  41.533   8.264
   77POPC   C3A 4649  38.485  41.561   7.964
   77POPC   C4A 4650  38.424  41.572   7.664
   77POPC   C1B 4651  38.687  41.466   8.564
   77POPC   C2B 4652  38.666  41.494   8.264
   77POPC   C3B 4653  38.721  41.493   7.964
   77POPC   C4B 4654  38.728  41.516   7.664
   78POPC   NC3 4655   2.728  34.564   9.464
   78POPC   PO4 4656   2.758  34.604   9.164
   78POPC   GL1 4657   2.803  34.571   8.864
   78POPC   GL2 4658   2.868  34.482   8.864
   78POPC   C1A 4659   2.731  34.617   8.564
   78POPC   D2A 4660   2.793  34.601   8.264
   78POPC   C3A 4661   2.779  34.614   7.964
   78POPC   C4A 4662   2.786  34.575   7.664
   78POPC   C1B 4663   2.983  34.405   8.564
   78POPC   C2B 4664   2.899  34.407   8.264
   78POPC   C3B 4665   2.917  34.424   7.964
   78POPC   C4B 4666   2.969  34.409   7.664
   79POPC   NC3 4667   2.777  25.260   9.464
   79POPC   PO4 4668   2.752  25.232   9.164
   79POPC   GL1 4669   2.736  25.238   8.864
   79POPC   GL2 4670   2.710  25.152   8.864
   79POPC   C1A 4671   2.726  25.285   8.564
   79POPC   D2A 4672   2.809  25.268   8.264
   79POPC   C3A 4673   2.782  25.248   7.964
   79POPC   C4A 4674   2.754  25.277   7.664
   79POPC   C1B 4675   2.671  25.017   8.564
   79POPC   C2B 4676   2.697  25.020   8.264
   79POPC   C3B 4677   2.707  24.996   7.964
   79POPC   C4B 4678   2.748  24.979   7.664
   80POPC   NC3 4679   4.306  36.131   9.464
   80POPC   PO4 4680   4.304  36.159   9.164
   80POPC   GL1 4681   4.327  36.158   8.864
   80POPC   GL2 4682   4.266  36.006   8.864
   80POPC   C1A 4683   4.345  36.099   8.564
   80POPC   D2A 4684   4.321  36.091   8.264
   80POPC   C3A 4685   4.352  36.101   7.964
   80POPC   C4A 4686   4.365  36.116   7.664
   80POPC   C1B 4687   4.107  35.975   8.564
   80POPC   C2B 4688   4.115  35.930   8.264
   80POPC   C3B 4689   4.166  35.981   7.964
   80POPC   C4B 4690   4.202  35.974   7.664
   81POPC   NC3 4691  40.052  34.542   9.464
   81POPC   PO4 4692  40.035  34.620   9.164
   81POPC   GL1 4693  40.011  34.592   8.864
   81POPC   GL2 4694  40.017  34.415   8.864
   81POPC   C1A 4695  40.045  34.570   8.564
   81POPC   D2A 4696  39.967  34.555   8.264
   81POPC   C3A 4697  40.013  34.541   7.964
   81POPC   C4A 4698  40.038  34.591   7.664
   81POPC   C1B 4699  39.994  34.297   8.564
   81POPC   C2B 4700  39.943  34.305   8.264
   81POPC   C3B 4701  39.925  34.284   7.964
   81POPC   C4B 4702  39.954  34.282   7.664
   82POPC   NC3 4703  39.234  30.681   9.464
   82POPC   PO4 4704  39.214  30.734   9.164
   82POPC   GL1 4705  39.264  30.720   8.864
   82POPC   GL2 4706  39.326  30.816   8.864
   82POPC   C1A 4707  39.279  30.674   8.564
   82POPC   D2A 4708  39.247  30.688   8.264
   82POPC   C3A 4709  39.280  30.721   7.964
   82POPC   C4A 4710  39.227  30.681   7.664
   82POPC   C1B 4711  39.403  30.876   8.564
   82POPC   C2B 4712  39.428  30.796   8.264
   82POPC   C3B 4713  39.416  30.850   7.964
   82POPC   C4B 4714  39.431  30.812   7.664
   83POPC   NC3 4715  18.314  25.276   9.464
   83POPC   PO4 4716  18.253  25.277   9.164
   83POPC   GL1 4717  18.289  25.251   8.864
   83POPC   GL2 4718  18.385  25.210   8.864
   83POPC   C1A 4719  18.313  25.235   8.564
   83POPC   D2A 4720  18.253  25.223   8.264
   83POPC   C3A 4721  18.309  25.246   7.964
   83POPC   C4A 4722  18.266  25.294   7.664
   83POPC   C1B 4723  18.543  25.237   8.564
   83POPC   C2B 4724  18.560  25.236   8.264
   83POPC   C3B 4725  18.504  25.236   7.964
   83POPC   C4B 4726  18.543  25.251   7.664
   84POPC   NC3 4727  30.741  10.528   9.464
   84POPC   PO4 4728  30.712  10.533   9.164
   84POPC   GL1 4729  30.703  10.566   8.864
   84POPC   GL2 4730  30.778  10.382   8.864
   84POPC   C1A 4731  30.687  10.540   8.564
   84POPC   D2A 4732  30.648  10.557   8.264
   84POPC   C3A 4733  30.695  10.542   7.964
   84POPC   C4A 4734  30.719  10.569   7.664
   84POPC   C1B 4735  30.839  10.340   8.564
   84POPC   C2B 4736  30.776  10.287   8.264
   84POPC   C3B 4737  30.825  10.271   7.964
   84POPC   C4B 4738  30.843  10.300   7.664
   85POPC   NC3 4739  31.457  12.872   9.464
   85POPC   PO4 4740  31.466  12.828   9.164
   85POPC   GL1 4741  31.486  12.853   8.864
   85POPC   GL2 4742  31.614  12.858   8.864
   85POPC   C1A 4743  31.453  12.896   8.564
   85POPC   D2A 4744  31.482  12.901   8.264
   85POPC   C3A 4745  31.447  12.865   7.964
   85POPC   C4A 4746  31.464  12.855   7.664
   85POPC   C1B 4747  31.682  12.916   8.564
   85POPC   C2B 4748  31.720  12.959   8.264
   85POPC   C3B 4749  31.692  12.959   7.964
   85POPC   C4B 4750  31.673  12.895   7.664
   86POPC   NC3 4751  43.915  12.112   9.464
   86POPC   PO4 4752  43.863  12.062   9.164
   86POPC   GL1 4753  43.856  12.029   8.864
   86POPC   GL2 4754  43.751  12.087   8.864
   86POPC   C1A 4755  43.850  12.065   8.564
   86POPC   D2A 4756  43.914  12.108   8.264
   86POPC   C3A 4757  43.860  12.092   7.964
   86POPC   C4A 4758  43.926  12.087   7.664
   86POPC   C1B 4759  43.620  12.174   8.564
   86POPC   C2B 4760  43.702  12.172   8.264
   86POPC   C3B 4761  43.635  12.160   7.964
   86POPC   C4B 4762  43.631  12.202   7.664
   87POPC   NC3 4763  10.513  12.050   9.464
   87POPC   PO4 4764  10.557  12.075   9.164
   87POPC   GL1 4765  10.550  12.077   8.864
   87POPC   GL2 4766  10.401  12.037   8.864
   87POPC   C1A 4767  10.513  12.057   8.564
   87POPC   D2A 4768  10.508  12.058   8.264
   87POPC   C3A 4769  10.564  12.050   7.964
   87POPC   C4A 4770  10.485  12.103   7.664
   87POPC   C1B 4771  10.296  12.033   8.564
   87POPC   C2B 4772  10.240  11.987   8.264
   87POPC   C3B 4773  10.322  12.029   7.964
   87POPC   C4B 4774  10.298  12.020   7.664
   88POPC   NC3 4775  24.508  18.267   9.464
   88POPC   PO4 4776  24.473  18.267   9.164
   88POPC   GL1 4777  24.459  18.331   8.864
   88POPC   GL2 4778  24.550  18.368   8.864
   88POPC   C1A 4779  24.515  18.301   8.564
   88POPC   D2A 4780  24.447  18.258   8.264
   88POPC   C3A 4781  24.496  18.272   7.964
   88POPC   C4A 4782  24.453  18.234   7.664
   88POPC   C1B 4783  24.632  18.524   8.564
   88POPC   C2B 4784  24.575  18.507   8.264
   88POPC   C3B 4785  24.592  18.512   7.964
   88POPC   C4B 4786  24.661  18.537   7.664
   89POPC   NC3 4787  38.421  33.813   9.464
   89POPC   PO4 4788  38.490  33.850   9.164
   89POPC   GL1 4789  38.491  33.821   8.864
   89POPC   GL2 4790  38.298  33.878   8.864
   89POPC   C1A 4791  38.449  33.754   8.564
   89POPC   D2A 4792  38.425  33.756   8.264
   89POPC   C3A 4793  38.454  33.808   7.964
   89POPC   C4A 4794  38.421  33.811   7.664
   89POPC   C1B 4795  38.232  33.834   8.564
   89POPC   C2B 4796  38.204  33.920   8.264
   89POPC   C3B 4797  38.240  33.893   7.964
   89POPC   C4B 4798  38.257  33.912   7.664
   90POPC   NC3 4799  39.252  25.292   9.464
   90POPC   PO4 4800  39.248  25.305   9.164
   90POPC   GL1 4801  39.256  25.301   8.864
   90POPC   GL2 4802  39.253  25.413   8.864
   90POPC   C1A 4803  39.231  25.261   8.564
   90POPC   D2A 4804  39.198  25.285   8.264
   90POPC   C3A 4805  39.226  25.262   7.964
   90POPC   C4A 4806  39.254  25.224   7.664
   90POPC   C1B 4807  39.397  25.492   8.564
   90POPC   C2B 4808  39.313  25.523   8.264
   90POPC   C3B 4809  39.407  25.435   7.964
   90POPC   C4B 4810  39.396  25.479   7.664
   91POPC   NC3 4811  20.654  23.668   9.464
   91POPC   PO4 4812  20.621  23.693   9.164
   91POPC   GL1 4813  20.630  23.668   8.864
   91POPC   GL2 4814  20.517  23.652   8.864
   91POPC   C1A 4815  20.563  23.685   8.564
   91POPC   D2A 4816  20.577  23.675   8.264
   91POPC   C3A 4817  20.610  23.689   7.964
   91POPC   C4A 4818  20.580  23.684   7.664
   91POPC   C1B 4819  20.396  23.625   8.564
   91POPC   C2B 4820  20.399  23.639   8.264
   91POPC   C3B 4821  20.417  23.694   7.964
   91POPC   C4B 4822  20.357  23.624   7.664
   92POPC   NC3 4823   9.010  33.824   9.464
   92POPC   PO4 4824   8.926  33.762   9.164
   92POPC   GL1 4825   9.014  33.843   8.864
   92POPC   GL2 4826   8.901  33.799   8.864
   92POPC   C1A 4827   8.994  33.783   8.564
   92POPC   D2A 4828   8.979  33.782   8.264
   92POPC   C3A 4829   8.945  33.796   7.964
   92POPC   C4A 4830   8.979  33.776   7.664
   92POPC   C1B 4831   8.761  33.897   8.564
   92POPC   C2B 4832   8.727  33.821   8.264
   92POPC   C3B 4833   8.744  33.828   7.964
   92POPC   C4B 4834   8.724  33.845   7.664
   93POPC   NC3 4835  19.042  11.251   9.464
   93POPC   PO4 4836  19.015  11.333   9.164
   93POPC   GL1 4837  19.011  11.347   8.864
   93POPC   GL2 4838  19.153  11.196   8.864
   93POPC   C1A 4839  19.049  11.255   8.564
   93POPC   D2A 4840  19.028  11.276   8.264
   93POPC   C3A 4841  19.066  11.333   7.964
   93POPC   C4A 4842  19.093  11.315   7.664
   93POPC   C1B 4843  19.257  11.184   8.564
   93POPC   C2B 4844  19.276  11.150   8.264
   93POPC   C3B 4845  19.299  11.126   7.964
   93POPC   C4B 4846  19.274  11.193   7.664
   94POPC   NC3 4847  10.481  34.612   9.464
   94POPC   PO4 4848  10.476  34.609   9.164
   94POPC   GL1 4849  10.571  34.615   8.864
   94POPC   GL2 4850  10.420  34.474   8.864
   94POPC   C1A 4851  10.552  34.582   8.564
   94POPC   D2A 4852  10.533  34.588   8.264
   94POPC   C3A 4853  10.564  34.552   7.964
   94POPC   C4A 4854  10.478  34.624   7.664
   94POPC   C1B 4855  10.292  34.387   8.564
   94POPC   C2B 4856  10.369  34.416   8.264
   94POPC   C3B 4857  10.317  34.386   7.964
   94POPC   C4B 4858  10.296  34.379   7.664
   95POPC   NC3 4859  38.438  13.616   9.464
   95POPC   PO4 4860  38.442  13.673   9.164
   95POPC   GL1 4861  38.431  13.610   8.864
   95POPC   GL2 4862  38.427  13.768   8.864
   95POPC   C1A 4863  38.460  13.631   8.564
   95POPC   D2A 4864  38.412  13.588   8.264
   95POPC   C3A 4865  38.449  13.632   7.964
   95POPC   C4A 4866  38.477  13.666   7.664
   95POPC   C1B 4867  38.428  13.892   8.564
   95POPC   C2B 4868  38.379  13.861   8.264
   95POPC   C3B 4869  38.470  13.881   7.964
   95POPC   C4B 4870  38.466  13.921   7.664
   96POPC   NC3 4871  22.979  36.862   9.464
   96POPC   PO4 4872  22.891  36.905   9.164
   96POPC   GL1 4873  22.979  36.924   8.864
   96POPC   GL2 4874  22.945  36.799   8.864
   96POPC   C1A 4875  22.981  36.902   8.564
   96POPC   D2A 4876  22.929  36.908   8.264
   96POPC   C3A 4877  22.902  36.940   7.964
   96POPC   C4A 4878  22.925  36.926   7.664
   96POPC   C1B 4879  22.978  36.712   8.564
   96POPC   C2B 4880  23.031  36.635   8.264
   96POPC   C3B 4881  23.010  36.657   7.964
   96POPC   C4B 4882  23.058  36.656   7.664
   97POPC   NC3 4883  10.495  39.184   9.464
   97POPC   PO4 4884  10.487  39.241   9.164
   97POPC   GL1 4885  10.520  39.195   8.864
   97POPC   GL2 4886  10.416  39.288   8.864
   97POPC   C1A 4887  10.515  39.216   8.564
   97POPC   D2A 4888  10.514  39.273   8.264
   97POPC   C3A 4889  10.544  39.262   7.964
   97POPC   C4A 4890  10.484  39.196   7.664
   97POPC   C1B 4891  10.292  39.298   8.564
   97POPC   C2B 4892  10.236  39.305   8.264
   97POPC   C3B 4893  10.291  39.312   7.964
   97POPC   C4B 4894  10.333  39.349   7.664
   98POPC   NC3 4895   2.789   7.407   9.464
   98POPC   PO4 4896   2.731   7.403   9.164
   98POPC   GL1 4897   2.749   7.398   8.864
   98POPC   GL2 4898   2.806   7.275   8.864
   98POPC   C1A 4899   2.814   7.408   8.564
   98POPC   D2A 4900   2.726   7.429   8.264
   98POPC   C3A 4901   2.815   7.401   7.964
   98POPC   C4A 4902   2.732   7.391   7.664
   98POPC   C1B 4903   2.839   7.219   8.564
   98POPC   C2B 4904   2.856   7.142   8.264
   98POPC   C3B 4905   2.809   7.162   7.964
   98POPC   C4B 4906   2.868   7.172   7.664
   99POPC   NC3 4907  23.724  29.969   9.464
   99POPC   PO4 4908  23.761  29.904   9.164
   99POPC   GL1 4909  23.701  29.894   8.864
   99POPC   GL2 4910  23.713  30.080   8.864
   99POPC   C1A 4911  23.706  29.965   8.564
   99POPC   D2A 4912  23.686  29.912   8.264
   99POPC   C3A 4913  23.690  29.927   7.964
   99POPC   C4A 4914  23.738  29.929   7.664
   99POPC   C1B 4915  23.723  30.194   8.564
   99POPC   C2B 4916  23.789  30.157   8.264
   99POPC   C3B 4917  23.775  30.135   7.964
   99POPC   C4B 4918  23.742  30.131   7.664
  100POPC   NC3 4919   9.780  44.639   9.464
  100POPC   PO4 4920   9.751  44.711   9.164
  100POPC   GL1 4921   9.747  44.625   8.864
  100POPC   GL2 4922   9.672  44.529   8.864
  100POPC   C1A 4923   9.796  44.646   8.564
  100POPC   D2A 4924   9.703  44.641   8.264
  100POPC   C3A 4925   9.717  44.672   7.964
  100POPC   C4A 4926   9.777  44.710   7.664
  100POPC   C1B 4927   9.566  44.501   8.564
  100POPC   C2B 4928   9.565  44.495   8.264
  100POPC   C3B 4929   9.616  44.467   7.964
  100POPC   C4B 4930   9.598  44.447   7.664
  101POPC   NC3 4931  36.860   3.543   9.464
  101POPC   PO4 4932  36.927   3.528   9.164
  101POPC   GL1 4933  36.946   3.545   8.864
  101POPC   GL2 4934  36.976   3.637   8.864
  101POPC   C1A 4935  36.945   3.564   8.564
  101POPC   D2A 4936  36.906   3.581   8.264
  101POPC   C3A 4937  36.938   3.514   7.964
  101POPC   C4A 4938  36.943   3.548   7.664
  101POPC   C1B 4939  37.073   3.697   8.564
  101POPC   C2B 4940  37.025   3.702   8.264
  101POPC   C3B 4941  37.078   3.691   7.964
  101POPC   C4B 4942  37.015   3.707   7.664
  102POPC   NC3 4943  27.591   1.251   9.464
  102POPC   PO4 4944  27.610   1.236   9.164
  102POPC   GL1 4945  27.579   1.221   8.864
  102POPC   GL2 4946  27.475   1.301   8.864
  102POPC   C1A 4947  27.586   1.211   8.564
  102POPC   D2A 4948  27.615   1.248   8.264
  102POPC   C3A 4949  27.611   1.251   7.964
  102POPC   C4A 4950  27.555   1.262   7.664
  102POPC   C1B 4951  27.332   1.348   8.564
  102POPC   C2B 4952  27.372   1.311   8.264
  102POPC   C3B 4953  27.387   1.321   7.964
  102POPC   C4B 4954  27.398   1.298   7.664
  103POPC   NC3 4955   5.098  43.870   9.464
  103POPC   PO4 4956   5.087  43.923   9.164
  103POPC   GL1 4957   5.080  43.894   8.864
  103POPC   GL2 4958   5.045  43.796   8.864
  103POPC   C1A 4959   5.127  43.911   8.564
  103POPC   D2A 4960   5.103  43.918   8.264
  103POPC   C3A 4961   5.065  43.854   7.964
  103POPC   C4A 4962   5.094  43.870   7.664
  103POPC   C1B 4963   4.951  43.719   8.564
  103POPC   C2B 4964   4.877  43.682   8.264
  103POPC   C3B 4965   4.857  43.678   7.964
  103POPC   C4B 4966   4.881  43.732   7.664
  104POPC   NC3 4967  35.390  34.612   9.464
  104POPC   PO4 4968  35.388  34.607   9.164
  104POPC   GL1 4969  35.353  34.610   8.864
  104POPC   GL2 4970  35.378  34.437   8.864
  104POPC   C1A 4971  35.346  34.592   8.564
  104POPC   D2A 4972  35.375  34.533   8.264
  104POPC   C3A 4973  35.352  34.556   7.964
  104POPC   C4A 4974  35.330  34.607   7.664
  104POPC   C1B 4975  35.387  34.375   8.564
  104POPC   C2B 4976  35.404  34.295   8.264
  104POPC   C3B 4977  35.455  34.345   7.964
  104POPC   C4B 4978  35.406  34.285   7.664
  105POPC   NC3 4979   0.441  40.754   9.464
  105POPC   PO4 4980   0.472  40.806   9.164
  105POPC   GL1 4981   0.418  40.765   8.864
  105POPC   GL2 4982   0.432  40.921   8.864
  105POPC   C1A 4983   0.486  40.752   8.564
  105POPC   D2A 4984   0.450  40.769   8.264
  105POPC   C3A 4985   0.455  40.823   7.964
  105POPC   C4A 4986   0.412  40.817   7.664
  105POPC   C1B 4987   0.453  41.010   8.564
  105POPC   C2B 4988   0.466  40.981   8.264
  105POPC   C3B 4989   0.543  41.069   7.964
  105POPC   C4B 4990   0.473  41.048   7.664
  106POPC   NC3 4991  34.606   8.199   9.464
  106POPC   PO4 4992  34.598   8.217   9.164
  106POPC   GL1 4993  34.586   8.176   8.864
  106POPC   GL2 4994  34.586   8.347   8.864
  106POPC   C1A 4995  34.614   8.190   8.564
  106POPC   D2A 4996  34.604   8.174   8.264
  106POPC   C3A 4997  34.623   8.189   7.964
  106POPC   C4A 4998  34.584   8.187   7.664
  106POPC   C1B 4999  34.543   8.410   8.564
  106POPC   C2B 5000  34.544   8.467   8.264
  106POPC   C3B 5001  34.534   8.386   7.964
  106POPC   C4B 5002  34.538   8.462   7.664
  107POPC   NC3 5003   6.630  12.893   9.464
  107POPC   PO4 5004   6.629  12.876   9.164
  107POPC   GL1 5005   6.607  12.880   8.864
  107POPC   GL2 5006   6.514  12.793   8.864
  107POPC   C1A 5007   6.683  12.811   8.564
  107POPC   D2A 5008   6.621  12.859   8.264
  107POPC   C3A 5009   6.637  12.881   7.964
  107POPC   C4A 5010   6.687  12.827   7.664
  107POPC   C1B 5011   6.416  12.782   8.564
  107POPC   C2B 5012   6.428  12.860   8.264
  107POPC   C3B 5013   6.373  12.790   7.964
  107POPC   C4B 5014   6.394  12.864   7.664
  108POPC   NC3 5015  17.529  42.347   9.464
  108POPC   PO4 5016  17.490  42.368   9.164
  108POPC   GL1 5017  17.479  42.358   8.864
  108POPC   GL2 5018  17.524  42.402   8.864
  108POPC   C1A 5019  17.491  42.338   8.564
  108POPC   D2A 5020  17.538  42.351   8.264
  108POPC   C3A 5021  17.482  42.346   7.964
  108POPC   C4A 5022  17.463  42.346   7.664
  108POPC   C1B 5023  17.639  42.542   8.564
  108POPC   C2B 5024  17.565  42.519   8.264
  108POPC   C3B 5025  17.546  42.594   7.964
  108POPC   C4B 5026  17.623  42.557   7.664
  109POPC   NC3 5027  34.551   6.624   9.464
  109POPC   PO4 5028  34.602   6.604   9.164
  109POPC   GL1 5029  34.562   6.681   8.864
  109POPC   GL2 5030  34.591   6.798   8.864
  109POPC   C1A 5031  34.543   6.603   8.564
  109POPC   D2A 5032  34.575   6.651   8.264
  109POPC   C3A 5033  34.564   6.608   7.964
  109POPC   C4A 5034  34.538   6.645   7.664
  109POPC   C1B 5035  34.575   6.860   8.564
  109POPC   C2B 5036  34.574   6.902   8.264
  109POPC   C3B 5037  34.622   6.921   7.964
  109POPC   C4B 5038  34.569   6.927   7.664
  110POPC   NC3 5039   7.409  39.266   9.464
  110POPC   PO4 5040   7.404  39.211   9.164
  110POPC   GL1 5041   7.394  39.220   8.864
  110POPC   GL2 5042   7.421  39.130   8.864
  110POPC   C1A 5043   7.431  39.216   8.564
  110POPC   D2A 5044   7.417  39.197   8.264
  110POPC   C3A 5045   7.373  39.245   7.964
  110POPC   C4A 5046   7.391  39.209   7.664
  110POPC   C1B 5047   7.395  38.958   8.564
  110POPC   C2B 5048   7.444  38.976   8.264
  110POPC   C3B 5049   7.413  39.009   7.964
  110POPC   C4B 5050   7.447  39.000   7.664
  111POPC   NC3 5051  27.596  28.403   9.464
  111POPC   PO4 5052  27.631  28.414   9.164
  111POPC   GL1 5053  27.610  28.388   8.864
  111POPC   GL2 5054  27.677  28.401   8.864
  111POPC   C1A 5055  27.588  28.399   8.564
  111POPC   D2A 5056  27.572  28.402   8.264
  111POPC   C3A 5057  27.591  28.393   7.964
  111POPC   C4A 5058  27.607  28.326   7.664
  111POPC   C1B 5059  27.753  28.480   8.564
  111POPC   C2B 5060  27.787  28.499   8.264
  111POPC   C3B 5061  27.754  28.485   7.964
  111POPC   C4B 5062  27.837  28.548   7.664
  112POPC   NC3 5063  29.175  35.369   9.464
  112POPC   PO4 5064  29.175  35.366   9.164
  112POPC   GL1 5065  29.112  35.378   8.864
  112POPC   GL2 5066  29.067  35.233   8.864
  112POPC   C1A 5067  29.181  35.329   8.564
  112POPC   D2A 5068  29.135  35.349   8.264
  112POPC   C3A 5069  29.110  35.335   7.964
  112POPC   C4A 5070  29.165  35.364   7.664
  112POPC   C1B 5071  29.097  35.148   8.564
  112POPC   C2B 5072  29.058  35.097   8.264
  112POPC   C3B 5073  29.105  35.060   7.964
  112POPC   C4B 5074  29.130  35.069   7.664
  113POPC   NC3 5075  18.327   9.732   9.464
  113POPC   PO4 5076  18.291   9.746   9.164
  113POPC   GL1 5077  18.269   9.704   8.864
  113POPC   GL2 5078  18.217   9.836   8.864
  113POPC   C1A 5079  18.302   9.773   8.564
  113POPC   D2A 5080  18.307   9.780   8.264
  113POPC   C3A 5081  18.249   9.766   7.964
  113POPC   C4A 5082  18.258   9.784   7.664
  113POPC   C1B 5083  18.137   9.914   8.564
  113POPC   C2B 5084  18.099   9.998   8.264
  113POPC   C3B 5085  18.154   9.906   7.964
  113POPC   C4B 5086  18.153   9.999   7.664
  114POPC   NC3 5087  26.828  29.877   9.464
  114POPC   PO4 5088  26.771  29.968   9.164
  114POPC   GL1 5089  26.768  29.923   8.864
  114POPC   GL2 5090  26.778  29.846   8.864
  114POPC   C1A 5091  26.819  29.951   8.564
  114POPC   D2A 5092  26.797  29.921   8.264
  114POPC   C3A 5093  26.839  29.887   7.964
  114POPC   C4A 5094  26.856  29.892   7.664
  114POPC   C1B 5095  26.750  29.625   8.564
  114POPC   C2B 5096  26.829  29.706   8.264
  114POPC   C3B 5097  26.794  29.663   7.964
  114POPC   C4B 5098  26.782  29.679   7.664
  115POPC   NC3 5099   5.852  13.589   9.464
  115POPC   PO4 5100   5.841  13.667   9.164
  115POPC   GL1 5101   5.849  13.677   8.864
  115POPC   GL2 5102   5.741  13.644   8.864
  115POPC   C1A 5103   5.914  13.596   8.564
  115POPC   D2A 5104   5.835  13.587   8.264
  115POPC   C3A 5105   5.821  13.677   7.964
  115POPC   C4A 5106   5.904  13.606   7.664
  115POPC   C1B 5107   5.616  13.677   8.564
  115POPC   C2B 5108   5.632  13.688   8.264
  115POPC   C3B 5109   5.585  13.637   7.964
  115POPC   C4B 5110   5.632  13.647   7.664
  116POPC   NC3 5111  16.700  25.276   9.464
  116POPC   PO4 5112  16.734  25.285   9.164
  116POPC   GL1 5113  16.779  25.301   8.864
  116POPC   GL2 5114  16.758  25.126   8.864
  116POPC   C1A 5115  16.759  25.307   8.564
  116POPC   D2A 5116  16.703  25.297   8.264
  116POPC   C3A 5117  16.763  25.309   7.964
  116POPC   C4A 5118  16.721  25.281   7.664
  116POPC   C1B 5119  16.893  25.095   8.564
  116POPC   C2B 5120  16.877  25.093   8.264
  116POPC   C3B 5121  16.901  25.077   7.964
  116POPC   C4B 5122  16.862  25.079   7.664
  117POPC   NC3 5123  19.849  25.247   9.464
  117POPC   PO4 5124  19.787  25.239   9.164
  117POPC   GL1 5125  19.789  25.287   8.864
  117POPC   GL2 5126  19.931  25.220   8.864
  117POPC   C1A 5127  19.789  25.307   8.564
  117POPC   D2A 5128  19.879  25.273   8.264
  117POPC   C3A 5129  19.823  25.263   7.964
  117POPC   C4A 5130  19.787  25.253   7.664
  117POPC   C1B 5131  20.047  25.137   8.564
  117POPC   C2B 5132  20.041  25.220   8.264
  117POPC   C3B 5133  20.027  25.189   7.964
  117POPC   C4B 5134  20.037  25.162   7.664
  118POPC   NC3 5135   7.415  15.151   9.464
  118POPC   PO4 5136   7.383  15.156   9.164
  118POPC   GL1 5137   7.379  15.217   8.864
  118POPC   GL2 5138   7.263  15.170   8.864
  118POPC   C1A 5139   7.379  15.176   8.564
  118POPC   D2A 5140   7.421  15.200   8.264
  118POPC   C3A 5141   7.407  15.146   7.964
  118POPC   C4A 5142   7.375  15.178   7.664
  118POPC   C1B 5143   7.162  15.087   8.564
  118POPC   C2B 5144   7.193  15.134   8.264
  118POPC   C3B 5145   7.207  15.085   7.964
  118POPC   C4B 5146   7.212  15.100   7.664
  119POPC   NC3 5147   8.220  15.215   9.464
  119POPC   PO4 5148   8.184  15.163   9.164
  119POPC   GL1 5149   8.228  15.158   8.864
  119POPC   GL2 5150   8.307  15.147   8.864
  119POPC   C1A 5151   8.212  15.199   8.564
  119POPC   D2A 5152   8.207  15.167   8.264
  119POPC   C3A 5153   8.183  15.154   7.964
  119POPC   C4A 5154   8.152  15.147   7.664
  119POPC   C1B 5155   8.461  15.086   8.564
  119POPC   C2B 5156   8.397  15.062   8.264
  119POPC   C3B 5157   8.424  15.084   7.964
  119POPC   C4B 5158   8.412  15.095   7.664
  120POPC   NC3 5159   8.977  34.610   9.464
  120POPC   PO4 5160   8.948  34.610   9.164
  120POPC   GL1 5161   8.982  34.552   8.864
  120POPC   GL2 5162   9.081  34.577   8.864
  120POPC   C1A 5163   8.959  34.582   8.564
  120POPC   D2A 5164   8.946  34.528   8.264
  120POPC   C3A 5165   8.946  34.599   7.964
  120POPC   C4A 5166   9.010  34.544   7.664
  120POPC   C1B 5167   9.186  34.493   8.564
  120POPC   C2B 5168   9.186  34.503   8.264
  120POPC   C3B 5169   9.168  34.473   7.964
  120POPC   C4B 5170   9.174  34.435   7.664
  121POPC   NC3 5171   6.619  39.997   9.464
  121POPC   PO4 5172   6.633  40.023   9.164
  121POPC   GL1 5173   6.665  40.052   8.864
  121POPC   GL2 5174   6.792  39.995   8.864
  121POPC   C1A 5175   6.671  40.052   8.564
  121POPC   D2A 5176   6.644  40.009   8.264
  121POPC   C3A 5177   6.686  39.969   7.964
  121POPC   C4A 5178   6.600  40.033   7.664
  121POPC   C1B 5179   6.931  39.991   8.564
  121POPC   C2B 5180   6.874  40.001   8.264
  121POPC   C3B 5181   6.921  40.024   7.964
  121POPC   C4B 5182   6.903  40.029   7.664
  122POPC   NC3 5183  15.216  31.449   9.464
  122POPC   PO4 5184  15.201  31.499   9.164
  122POPC   GL1 5185  15.131  31.457   8.864
  122POPC   GL2 5186  15.202  31.529   8.864
  122POPC   C1A 5187  15.194  31.486   8.564
  122POPC   D2A 5188  15.186  31.513   8.264
  122POPC   C3A 5189  15.228  31.454   7.964
  122POPC   C4A 5190  15.190  31.438   7.664
  122POPC   C1B 5191  15.268  31.707   8.564
  122POPC   C2B 5192  15.272  31.646   8.264
  122POPC   C3B 5193  15.360  31.655   7.964
  122POPC   C4B 5194  15.313  31.685   7.664
  123POPC   NC3 5195  40.781  25.275   9.464
  123POPC   PO4 5196  40.804  25.259   9.164
  123POPC   GL1 5197  40.773  25.233   8.864
  123POPC   GL2 5198  40.711  25.203   8.864
  123POPC   C1A 5199  40.775  25.277   8.564
  123POPC   D2A 5200  40.791  25.237   8.264
  123POPC   C3A 5201  40.764  25.299   7.964
  123POPC   C4A 5202  40.807  25.309   7.664
  123POPC   C1B 5203  40.587  25.113   8.564
  123POPC   C2B 5204  40.596  25.176   8.264
  123POPC   C3B 5205  40.618  25.131   7.964
  123POPC   C4B 5206  40.568  25.119   7.664
  124POPC   NC3 5207  36.921   6.640   9.464
  124POPC   PO4 5208  36.857   6.681   9.164
  124POPC   GL1 5209  36.910   6.629   8.864
  124POPC   GL2 5210  36.752   6.664   8.864
  124POPC   C1A 5211  36.926   6.615   8.564
  124POPC   D2A 5212  36.938   6.686   8.264
  124POPC   C3A 5213  36.947   6.641   7.964
  124POPC   C4A 5214  36.873   6.672   7.664
  124POPC   C1B 5215  36.704   6.756   8.564
  124POPC   C2B 5216  36.692   6.713   8.264
  124POPC   C3B 5217  36.631   6.691   7.964
  124POPC   C4B 5218  36.641   6.690   7.664
  125POPC   NC3 5219   5.084  37.708   9.464
  125POPC   PO4 5220   5.120  37.630   9.164
  125POPC   GL1 5221   5.064  37.648   8.864
  125POPC   GL2 5222   5.212  37.623   8.864
  125POPC   C1A 5223   5.083  37.670   8.564
  125POPC   D2A 5224   5.086  37.684   8.264
  125POPC   C3A 5225   5.076  37.725   7.964
  125POPC   C4A 5226   5.105  37.721   7.664
  125POPC   C1B 5227   5.249  37.519   8.564
  125POPC   C2B 5228   5.248  37.478   8.264
  125POPC   C3B 5229   5.226  37.478   7.964
  125POPC   C4B 5230   5.212  37.488   7.664
  126POPC   NC3 5231   4.276  10.497   9.464
  126POPC   PO4 5232   4.367  10.532   9.164
  126POPC   GL1 5233   4.347  10.532   8.864
  126POPC   GL2 5234   4.350  10.600   8.864
  126POPC   C1A 5235   4.291  10.571   8.564
  126POPC   D2A 5236   4.320  10.566   8.264
  126POPC   C3A 5237   4.355  10.572   7.964
  126POPC   C4A 5238   4.327  10.557   7.664
  126POPC   C1B 5239   4.326  10.814   8.564
  126POPC   C2B 5240   4.310  10.753   8.264
  126POPC   C3B 5241   4.364  10.729   7.964
  126POPC   C4B 5242   4.385  10.732   7.664
  127POPC   NC3 5243  19.034  37.714   9.464
  127POPC   PO4 5244  19.076  37.702   9.164
  127POPC   GL1 5245  19.098  37.686   8.864
  127POPC   GL2 5246  19.094  37.812   8.864
  127POPC   C1A 5247  19.088  37.634   8.564
  127POPC   D2A 5248  19.059  37.653   8.264
  127POPC   C3A 5249  19.059  37.647   7.964
  127POPC   C4A 5250  19.014  37.698   7.664
  127POPC   C1B 5251  19.169  37.914   8.564
  127POPC   C2B 5252  19.116  37.947   8.264
  127POPC   C3B 5253  19.089  37.908   7.964
  127POPC   C4B 5254  19.098  37.889   7.664
  128POPC   NC3 5255  23.677  15.209   9.464
  128POPC   PO4 5256  23.717  15.149   9.164
  128POPC   GL1 5257  23.708  15.180   8.864
  128POPC   GL2 5258  23.545  15.162   8.864
  128POPC   C1A 5259  23.674  15.155   8.564
  128POPC   D2A 5260  23.746  15.171   8.264
  128POPC   C3A 5261  23.726  15.229   7.964
  128POPC   C4A 5262  23.692  15.186   7.664
  128POPC   C1B 5263  23.458  15.225   8.564
  128POPC   C2B 5264  23.511  15.195   8.264
  128POPC   C3B 5265  23.504  15.153   7.964
  128POPC   C4B 5266  23.463  15.162   7.664
  129POPC   NC3 5267   4.364  40.772   9.464
  129POPC   PO4 5268   4.272  40.792   9.164
  129POPC   GL1 5269   4.300  40.805   8.864
  129POPC   GL2 5270   4.227  40.872   8.864
  129POPC   C1A 5271   4.340  40.805   8.564
  129POPC   D2A 5272   4.350  40.745   8.264
  129POPC   C3A 5273   4.303  40.805   7.964
  129POPC   C4A 5274   4.312  40.789   7.664
  129POPC   C1B 5275   4.157  41.014   8.564
  129POPC   C2B 5276   4.130  41.018   8.264
  129POPC   C3B 5277   4.205  41.020   7.964
  129POPC   C4B 5278   4.141  40.973   7.664
  130POPC   NC3 5279   5.874   8.173   9.464
  130POPC   PO4 5280   5.914   8.236   9.164
  130POPC   GL1 5281   5.873   8.152   8.864
  130POPC   GL2 5282   5.799   8.064   8.864
  130POPC   C1A 5283   5.879   8.162   8.564
  130POPC   D2A 5284   5.858   8.218   8.264
  130POPC   C3A 5285   5.825   8.178   7.964
  130POPC   C4A 5286   5.903   8.216   7.664
  130POPC   C1B 5287   5.725   7.998   8.564
  130POPC   C2B 5288   5.642   7.997   8.264
  130POPC   C3B 5289   5.718   8.056   7.964
  130POPC   C4B 5290   5.706   8.044   7.664
  131POPC   NC3 5291  44.686  36.896   9.464
  131POPC   PO4 5292  44.660  36.918   9.164
  131POPC   GL1 5293  44.659  36.890   8.864
  131POPC   GL2 5294  44.647  36.996   8.864
  131POPC   C1A 5295  44.619  36.865   8.564
  131POPC   D2A 5296  44.695  36.947   8.264
  131POPC   C3A 5297  44.648  36.910   7.964
  131POPC   C4A 5298  44.698  36.919   7.664
  131POPC   C1B 5299  44.522  37.164   8.564
  131POPC   C2B 5300  44.530  37.100   8.264
  131POPC   C3B 5301  44.494  37.088   7.964
  131POPC   C4B 5302  44.518  37.121   7.664
  132POPC   NC3 5303   4.351  44.683   9.464
  132POPC   PO4 5304   4.365  44.619   9.164
  132POPC   GL1 5305   4.320  44.684   8.864
  132POPC   GL2 5306   4.406  44.519   8.864
  132POPC   C1A 5307   4.343  44.631   8.564
  132POPC   D2A 5308   4.296  44.630   8.264
  132POPC   C3A 5309   4.316  44.670   7.964
  132POPC   C4A 5310   4.364  44.638   7.664
  132POPC   C1B 5311   4.396  44.413   8.564
  132POPC   C2B 5312   4.441  44.468   8.264
  132POPC   C3B 5313   4.421  44.441   7.964
  132POPC   C4B 5314   4.441  44.445   7.664
  133POPC   NC3 5315  39.197  43.840   9.464
  133POPC   PO4 5316  39.207  43.839   9.164
  133POPC   GL1 5317  39.198  43.902   8.864
  133POPC   GL2 5318  39.087  43.944   8.864
  133POPC   C1A 5319  39.199  43.922   8.564
  133POPC   D2A 5320  39.278  43.875   8.264
  133POPC   C3A 5321  39.212  43.912   7.964
  133POPC   C4A 5322  39.267  43.925   7.664
  133POPC   C1B 5323  38.939  43.884   8.564
  133POPC   C2B 5324  39.026  43.905   8.264
  133POPC   C3B 5325  38.997  43.873   7.964
  133POPC   C4B 5326  38.981  43.903   7.664
  134POPC   NC3 5327  34.622  41.553   9.464
  134POPC   PO4 5328  34.557  41.521   9.164
  134POPC   GL1 5329  34.554  41.592   8.864
  134POPC   GL2 5330  34.707  41.662   8.864
  134POPC   C1A 5331  34.561  41.603   8.564
  134POPC   D2A 5332  34.541  41.557   8.264
  134POPC   C3A 5333  34.575  41.577   7.964
  134POPC   C4A 5334  34.573  41.561   7.664
  134POPC   C1B 5335  34.739  41.745   8.564
  134POPC   C2B 5336  34.763  41.714   8.264
  134POPC   C3B 5337  34.741  41.777   7.964
  134POPC   C4B 5338  34.727  41.683   7.664
  135POPC   NC3 5339  40.013  21.400   9.464
  135POPC   PO4 5340  40.056  21.363   9.164
  135POPC   GL1 5341  39.994  21.359   8.864
  135POPC   GL2 5342  39.950  21.484   8.864
  135POPC   C1A 5343  39.969  21.372   8.564
  135POPC   D2A 5344  39.985  21.367   8.264
  135POPC   C3A 5345  40.050  21.404   7.964
  135POPC   C4A 5346  39.992  21.396   7.664
  135POPC   C1B 5347  39.789  21.521   8.564
  135POPC   C2B 5348  39.764  21.551   8.264
  135POPC   C3B 5349  39.765  21.543   7.964
  135POPC   C4B 5350  39.829  21.592   7.664
  136POPC   NC3 5351   0.464  38.410   9.464
  136POPC   PO4 5352   0.453  38.444   9.164
  136POPC   GL1 5353   0.402  38.411   8.864
  136POPC   GL2 5354   0.430  38.536   8.864
  136POPC   C1A 5355   0.422  38.456   8.564
  136POPC   D2A 5356   0.399  38.417   8.264
  136POPC   C3A 5357   0.395  38.408   7.964
  136POPC   C4A 5358   0.450  38.414   7.664
  136POPC   C1B 5359   0.446  38.728   8.564
  136POPC   C2B 5360   0.473  38.649   8.264
  136POPC   C3B 5361   0.528  38.733   7.964
  136POPC   C4B 5362   0.497  38.665   7.664
  137POPC   NC3 5363  31.467   5.865   9.464
  137POPC   PO4 5364  31.476   5.880   9.164
  137POPC   GL1 5365  31.460   5.905   8.864
  137POPC   GL2 5366  31.414   5.710   8.864
  137POPC   C1A 5367  31.435   5.826   8.564
  137POPC   D2A 5368  31.435   5.911   8.264
  137POPC   C3A 5369  31.499   5.885   7.964
  137POPC   C4A 5370  31.490   5.888   7.664
  137POPC   C1B 5371  31.403   5.600   8.564
  137POPC   C2B 5372  31.435   5.649   8.264
  137POPC   C3B 5373  31.474   5.671   7.964
  137POPC   C4B 5374  31.451   5.656   7.664
  138POPC   NC3 5375  35.357  23.668   9.464
  138POPC   PO4 5376  35.330  23.758   9.164
  138POPC   GL1 5377  35.328  23.763   8.864
  138POPC   GL2 5378  35.352  23.803   8.864
  138POPC   C1A 5379  35.334  23.742   8.564
  138POPC   D2A 5380  35.349  23.698   8.264
  138POPC   C3A 5381  35.345  23.725   7.964
  138POPC   C4A 5382  35.347  23.750   7.664
  138POPC   C1B 5383  35.351  23.986   8.564
  138POPC   C2B 5384  35.389  23.926   8.264
  138POPC   C3B 5385  35.401  23.953   7.964
  138POPC   C4B 5386  35.339  23.970   7.664
  139POPC   NC3 5387   5.109  32.239   9.464
  139POPC   PO4 5388   5.120  32.232   9.164
  139POPC   GL1 5389   5.045  32.239   8.864
  139POPC   GL2 5390   5.028  32.365   8.864
  139POPC   C1A 5391   5.110  32.243   8.564
  139POPC   D2A 5392   5.133  32.294   8.264
  139POPC   C3A 5393   5.120  32.221   7.964
  139POPC   C4A 5394   5.115  32.290   7.664
  139POPC   C1B 5395   4.912  32.407   8.564
  139POPC   C2B 5396   4.939  32.442   8.264
  139POPC   C3B 5397   4.908  32.408   7.964
  139POPC   C4B 5398   4.899  32.454   7.664
  140POPC   NC3 5399  11.332  43.858   9.464
  140POPC   PO4 5400  11.290  43.872   9.164
  140POPC   GL1 5401  11.311  43.862   8.864
  140POPC   GL2 5402  11.249  43.958   8.864
  140POPC   C1A 5403  11.290  43.894   8.564
  140POPC   D2A 5404  11.291  43.899   8.264
  140POPC   C3A 5405  11.349  43.844   7.964
  140POPC   C4A 5406  11.341  43.859   7.664
  140POPC   C1B 5407  11.201  44.134   8.564
  140POPC   C2B 5408  11.172  44.078   8.264
  140POPC   C3B 5409  11.191  44.134   7.964
  140POPC   C4B 5410  11.140  44.093   7.664
  141POPC   NC3 5411  39.222  40.823   9.464
  141POPC   PO4 5412  39.192  40.818   9.164
  141POPC   GL1 5413  39.262  40.769   8.864
  141POPC   GL2 5414  39.144  40.752   8.864
  141POPC   C1A 5415  39.230  40.767   8.564
  141POPC   D2A 5416  39.186  40.792   8.264
  141POPC   C3A 5417  39.202  40.790   7.964
  141POPC   C4A 5418  39.200  40.739   7.664
  141POPC   C1B 5419  38.972  40.710   8.564
  141POPC   C2B 5420  38.999  40.696   8.264
  141POPC   C3B 5421  38.957  40.720   7.964
  141POPC   C4B 5422  39.034  40.705   7.664
  142POPC   NC3 5423  40.800  31.435   9.464
  142POPC   PO4 5424  40.798  31.438   9.164
  142POPC   GL1 5425  40.833  31.451   8.864
  142POPC   GL2 5426  40.724  31.487   8.864
  142POPC   C1A 5427  40.829  31.508   8.564
  142POPC   D2A 5428  40.824  31.439   8.264
  142POPC   C3A 5429  40.811  31.517   7.964
  142POPC   C4A 5430  40.766  31.482   7.664
  142POPC   C1B 5431  40.541  31.580   8.564
  142POPC   C2B 5432  40.592  31.593   8.264
  142POPC   C3B 5433  40.598  31.581   7.964
  142POPC   C4B 5434  40.519  31.592   7.664
  143POPC   NC3 5435  12.120  25.261   9.464
  143POPC   PO4 5436  12.109  25.229   9.164
  143POPC   GL1 5437  12.089  25.277   8.864
  143POPC   GL2 5438  12.143  25.353   8.864
  143POPC   C1A 5439  12.061  25.275   8.564
  143POPC   D2A 5440  12.106  25.284   8.264
  143POPC   C3A 5441  12.083  25.236   7.964
  143POPC   C4A 5442  12.051  25.284   7.664
  143POPC   C1B 5443  12.320  25.425   8.564
  143POPC   C2B 5444  12.326  25.464   8.264
  143POPC   C3B 5445  12.300  25.462   7.964
  143POPC   C4B 5446  12.248  25.420   7.664
  144POPC   NC3 5447  43.083  12.887   9.464
  144POPC   PO4 5448  43.085  12.829   9.164
  144POPC   GL1 5449  43.140  12.897   8.864
  144POPC   GL2 5450  42.977  12.931   8.864
  144POPC   C1A 5451  43.146  12.880   8.564
  144POPC   D2A 5452  43.098  12.833   8.264
  144POPC   C3A 5453  43.135  12.844   7.964
  144POPC   C4A 5454  43.091  12.834   7.664
  144POPC   C1B 5455  42.841  12.915   8.564
  144POPC   C2B 5456  42.858  13.005   8.264
  144POPC   C3B 5457  42.847  12.966   7.964
  144POPC   C4B 5458  42.893  12.988   7.664
  145POPC   NC3 5459  40.020   0.453   9.464
  145POPC   PO4 5460  40.019   0.422   9.164
  145POPC   GL1 5461  40.036   0.432   8.864
  145POPC   GL2 5462  39.956   0.315   8.864
  145POPC   C1A 5463  39.974   0.406   8.564
  145POPC   D2A 5464  40.038   0.429   8.264
  145POPC   C3A 5465  40.024   0.409   7.964
  145POPC   C4A 5466  39.969   0.443   7.664
  145POPC   C1B 5467  39.867   0.207   8.564
  145POPC   C2B 5468  39.912   0.255   8.264
  145POPC   C3B 5469  39.831   0.217   7.964
  145POPC   C4B 5470  39.836   0.206   7.664
  146POPC   NC3 5471   1.235  21.341   9.464
  146POPC   PO4 5472   1.196  21.341   9.164
  146POPC   GL1 5473   1.191  21.368   8.864
  146POPC   GL2 5474   1.206  21.515   8.864
  146POPC   C1A 5475   1.246  21.368   8.564
  146POPC   D2A 5476   1.210  21.425   8.264
  146POPC   C3A 5477   1.210  21.364   7.964
  146POPC   C4A 5478   1.182  21.427   7.664
  146POPC   C1B 5479   1.236  21.668   8.564
  146POPC   C2B 5480   1.294  21.613   8.264
  146POPC   C3B 5481   1.262  21.683   7.964
  146POPC   C4B 5482   1.248  21.593   7.664
  147POPC   NC3 5483  43.858   2.008   9.464
  147POPC   PO4 5484  43.915   2.019   9.164
  147POPC   GL1 5485  43.839   1.940   8.864
  147POPC   GL2 5486  43.893   1.861   8.864
  147POPC   C1A 5487  43.876   2.019   8.564
  147POPC   D2A 5488  43.874   2.017   8.264
  147POPC   C3A 5489  43.871   1.997   7.964
  147POPC   C4A 5490  43.858   2.016   7.664
  147POPC   C1B 5491  43.916   1.782   8.564
  147POPC   C2B 5492  43.919   1.740   8.264
  147POPC   C3B 5493  43.920   1.713   7.964
  147POPC   C4B 5494  43.992   1.718   7.664
  148POPC   NC3 5495  34.533   5.131   9.464
  148POPC   PO4 5496  34.560   5.044   9.164
  148POPC   GL1 5497  34.549   5.137   8.864
  148POPC   GL2 5498  34.480   4.959   8.864
  148POPC   C1A 5499  34.549   5.045   8.564
  148POPC   D2A 5500  34.611   5.082   8.264
  148POPC   C3A 5501  34.625   5.070   7.964
  148POPC   C4A 5502  34.599   5.083   7.664
  148POPC   C1B 5503  34.425   4.897   8.564
  148POPC   C2B 5504  34.502   4.914   8.264
  148POPC   C3B 5505  34.487   4.822   7.964
  148POPC   C4B 5506  34.492   4.827   7.664
  149POPC   NC3 5507  15.918  30.746   9.464
  149POPC   PO4 5508  15.919  30.695   9.164
  149POPC   GL1 5509  15.981  30.685   8.864
  149POPC   GL2 5510  16.119  30.652   8.864
  149POPC   C1A 5511  15.975  30.694   8.564
  149POPC   D2A 5512  15.935  30.697   8.264
  149POPC   C3A 5513  15.987  30.704   7.964
  149POPC   C4A 5514  15.906  30.690   7.664
  149POPC   C1B 5515  16.221  30.692   8.564
  149POPC   C2B 5516  16.191  30.651   8.264
  149POPC   C3B 5517  16.224  30.670   7.964
  149POPC   C4B 5518  16.180  30.684   7.664
  150POPC   NC3 5519   9.787  35.327   9.464
  150POPC   PO4 5520   9.752  35.371   9.164
  150POPC   GL1 5521   9.781  35.373   8.864
  150POPC   GL2 5522   9.638  35.241   8.864
  150POPC   C1A 5523   9.735  35.384   8.564
  150POPC   D2A 5524   9.699  35.397   8.264
  150POPC   C3A 5525   9.705  35.376   7.964
  150POPC   C4A 5526   9.724  35.343   7.664
  150POPC   C1B 5527   9.566  35.195   8.564
  150POPC   C2B 5528   9.577  35.173   8.264
  150POPC   C3B 5529   9.609  35.203   7.964
  150POPC   C4B 5530   9.593  35.147   7.664
  151POPC   NC3 5531  41.608  26.809   9.464
  151POPC   PO4 5532  41.567  26.781   9.164
  151POPC   GL1 5533  41.521  26.824   8.864
  151POPC   GL2 5534  41.484  26.808   8.864
  151POPC   C1A 5535  41.552  26.820   8.564
  151POPC   D2A 5536  41.595  26.844   8.264
  151POPC   C3A 5537  41.551  26.837   7.964
  151POPC   C4A 5538  41.587  26.792   7.664
  151POPC   C1B 5539  41.362  26.748   8.564
  151POPC   C2B 5540  41.318  26.756   8.264
  151POPC   C3B 5541  41.331  26.745   7.964
  151POPC   C4B 5542  41.313  26.768   7.664
  152POPC   NC3 5543  12.842  22.986   9.464
  152POPC   PO4 5544  12.843  22.918   9.164
  152POPC   GL1 5545  12.897  22.921   8.864
  152POPC   GL2 5546  12.770  22.946   8.864
  152POPC   C1A 5547  12.802  22.930   8.564
  152POPC   D2A 5548  12.890  22.959   8.264
  152POPC   C3A 5549  12.806  22.975   7.964
  152POPC   C4A 5550  12.803  22.944   7.664
  152POPC   C1B 5551  12.657  22.896   8.564
  152POPC   C2B 5552  12.632  22.837   8.264
  152POPC   C3B 5553  12.616  22.898   7.964
  152POPC   C4B 5554  12.642  22.840   7.664
  153POPC   NC3 5555  24.520  17.512   9.464
  153POPC   PO4 5556  24.467  17.540   9.164
  153POPC   GL1 5557  24.448  17.538   8.864
  153POPC   GL2 5558  24.391  17.507   8.864
  153POPC   C1A 5559  24.499  17.519   8.564
  153POPC   D2A 5560  24.448  17.526   8.264
  153POPC   C3A 5561  24.534  17.507   7.964
  153POPC   C4A 5562  24.479  17.530   7.664
  153POPC   C1B 5563  24.228  17.636   8.564
  153POPC   C2B 5564  24.240  17.611   8.264
  153POPC   C3B 5565  24.287  17.582   7.964
  153POPC   C4B 5566  24.295  17.646   7.664
  154POPC   NC3 5567  12.835   8.987   9.464
  154POPC   PO4 5568  12.843   8.982   9.164
  154POPC   GL1 5569  12.881   8.996   8.864
  154POPC   GL2 5570  12.850   9.121   8.864
  154POPC   C1A 5571  12.854   8.974   8.564
  154POPC   D2A 5572  12.893   9.020   8.264
  154POPC   C3A 5573  12.883   8.974   7.964
  154POPC   C4A 5574  12.812   8.990   7.664
  154POPC   C1B 5575  12.901   9.200   8.564
  154POPC   C2B 5576  12.894   9.171   8.264
  154POPC   C3B 5577  12.958   9.204   7.964
  154POPC   C4B 5578  12.961   9.178   7.664
  155POPC   NC3 5579  25.298  29.154   9.464
  155POPC   PO4 5580  25.299  29.107   9.164
  155POPC   GL1 5581  25.294  29.146   8.864
  155POPC   GL2 5582  25.160  29.251   8.864
  155POPC   C1A 5583  25.281  29.189   8.564
  155POPC   D2A 5584  25.273  29.169   8.264
  155POPC   C3A 5585  25.223  29.128   7.964
  155POPC   C4A 5586  25.305  29.135   7.664
  155POPC   C1B 5587  25.031  29.308   8.564
  155POPC   C2B 5588  25.080  29.258   8.264
  155POPC   C3B 5589  25.065  29.319   7.964
  155POPC   C4B 5590  25.061  29.326   7.664
  156POPC   NC3 5591  40.793  39.971   9.464
  156POPC   PO4 5592  40.809  40.034   9.164
  156POPC   GL1 5593  40.775  40.013   8.864
  156POPC   GL2 5594  40.907  40.083   8.864
  156POPC   C1A 5595  40.811  40.020   8.564
  156POPC   D2A 5596  40.817  40.026   8.264
  156POPC   C3A 5597  40.745  40.042   7.964
  156POPC   C4A 5598  40.755  40.054   7.664
  156POPC   C1B 5599  41.040  40.116   8.564
  156POPC   C2B 5600  41.042  40.050   8.264
  156POPC   C3B 5601  41.014  40.085   7.964
  156POPC   C4B 5602  40.984  40.124   7.664
  157POPC   NC3 5603  34.579   9.730   9.464
  157POPC   PO4 5604  34.624   9.774   9.164
  157POPC   GL1 5605  34.583   9.732   8.864
  157POPC   GL2 5606  34.478   9.761   8.864
  157POPC   C1A 5607  34.543   9.785   8.564
  157POPC   D2A 5608  34.572   9.729   8.264
  157POPC   C3A 5609  34.538   9.756   7.964
  157POPC   C4A 5610  34.557   9.754   7.664
  157POPC   C1B 5611  34.377   9.879   8.564
  157POPC   C2B 5612  34.352   9.816   8.264
  157POPC   C3B 5613  34.302   9.779   7.964
  157POPC   C4B 5614  34.381   9.828   7.664
  158POPC   NC3 5615  22.922   0.481   9.464
  158POPC   PO4 5616  22.940   0.444   9.164
  158POPC   GL1 5617  22.951   0.446   8.864
  158POPC   GL2 5618  23.064   0.340   8.864
  158POPC   C1A 5619  22.938   0.454   8.564
  158POPC   D2A 5620  22.941   0.448   8.264
  158POPC   C3A 5621  22.971   0.454   7.964
  158POPC   C4A 5622  22.920   0.455   7.664
  158POPC   C1B 5623  23.171   0.311   8.564
  158POPC   C2B 5624  23.145   0.388   8.264
  158POPC   C3B 5625  23.183   0.355   7.964
  158POPC   C4B 5626  23.153   0.295   7.664
  159POPC   NC3 5627   2.802  22.958   9.464
  159POPC   PO4 5628   2.745  22.926   9.164
  159POPC   GL1 5629   2.758  22.957   8.864
  159POPC   GL2 5630   2.764  23.104   8.864
  159POPC   C1A 5631   2.759  22.922   8.564
  159POPC   D2A 5632   2.781  22.893   8.264
  159POPC   C3A 5633   2.732  22.972   7.964
  159POPC   C4A 5634   2.812  22.907   7.664
  159POPC   C1B 5635   2.801  23.184   8.564
  159POPC   C2B 5636   2.809  23.156   8.264
  159POPC   C3B 5637   2.821  23.159   7.964
  159POPC   C4B 5638   2.767  23.218   7.664
  160POPC   NC3 5639  12.085  43.084   9.464
  160POPC   PO4 5640  12.038  43.073   9.164
  160POPC   GL1 5641  12.122  43.151   8.864
  160POPC   GL2 5642  11.996  43.103   8.864
  160POPC   C1A 5643  12.095  43.071   8.564
  160POPC   D2A 5644  12.046  43.149   8.264
  160POPC   C3A 5645  12.086  43.098   7.964
  160POPC   C4A 5646  12.083  43.139   7.664
  160POPC   C1B 5647  11.835  43.139   8.564
  160POPC   C2B 5648  11.810  43.074   8.264
  160POPC   C3B 5649  11.781  43.122   7.964
  160POPC   C4B 5650  11.846  43.094   7.664
  161POPC   NC3 5651  23.675  21.368   9.464
  161POPC   PO4 5652  23.668  21.393   9.164
  161POPC   GL1 5653  23.705  21.415   8.864
  161POPC   GL2 5654  23.826  21.243   8.864
  161POPC   C1A 5655  23.684  21.415   8.564
  161POPC   D2A 5656  23.739  21.385   8.264
  161POPC   C3A 5657  23.683  21.417   7.964
  161POPC   C4A 5658  23.724  21.358   7.664
  161POPC   C1B 5659  23.906  21.220   8.564
  161POPC   C2B 5660  23.832  21.193   8.264
  161POPC   C3B 5661  23.828  21.180   7.964
  161POPC   C4B 5662  23.880  21.185   7.664
  162POPC   NC3 5663   5.081  11.306   9.464
  162POPC   PO4 5664   5.139  11.295   9.164
  162POPC   GL1 5665   5.141  11.324   8.864
  162POPC   GL2 5666   5.053  11.449   8.864
  162POPC   C1A 5667   5.074  11.279   8.564
  162POPC   D2A 5668   5.055  11.320   8.264
  162POPC   C3A 5669   5.077  11.321   7.964
  162POPC   C4A 5670   5.090  11.293   7.664
  162POPC   C1B 5671   5.063  11.499   8.564
  162POPC   C2B 5672   5.055  11.578   8.264
  162POPC   C3B 5673   5.066  11.533   7.964
  162POPC   C4B 5674   5.066  11.505   7.664
  163POPC   NC3 5675  26.058  24.518   9.464
  163POPC   PO4 5676  26.052  24.503   9.164
  163POPC   GL1 5677  26.080  24.461   8.864
  163POPC   GL2 5678  26.121  24.581   8.864
  163POPC   C1A 5679  26.037  24.459   8.564
  163POPC   D2A 5680  26.061  24.535   8.264
  163POPC   C3A 5681  26.085  24.506   7.964
  163POPC   C4A 5682  26.081  24.521   7.664
  163POPC   C1B 5683  26.243  24.681   8.564
  163POPC   C2B 5684  26.217  24.648   8.264
  163POPC   C3B 5685  26.228  24.655   7.964
  163POPC   C4B 5686  26.213  24.673   7.664
  164POPC   NC3 5687  25.216   1.174   9.464
  164POPC   PO4 5688  25.257   1.204   9.164
  164POPC   GL1 5689  25.238   1.234   8.864
  164POPC   GL2 5690  25.269   1.079   8.864
  164POPC   C1A 5691  25.315   1.188   8.564
  164POPC   D2A 5692  25.291   1.219   8.264
  164POPC   C3A 5693  25.248   1.171   7.964
  164POPC   C4A 5694  25.302   1.178   7.664
  164POPC   C1B 5695  25.345   0.986   8.564
  164POPC   C2B 5696  25.354   1.010   8.264
  164POPC   C3B 5697  25.287   0.980   7.964
  164POPC   C4B 5698  25.364   0.942   7.664
  165POPC   NC3 5699   6.679  37.665   9.464
  165POPC   PO4 5700   6.598  37.718   9.164
  165POPC   GL1 5701   6.620  37.674   8.864
  165POPC   GL2 5702   6.595  37.595   8.864
  165POPC   C1A 5703   6.648  37.686   8.564
  165POPC   D2A 5704   6.620  37.710   8.264
  165POPC   C3A 5705   6.648  37.702   7.964
  165POPC   C4A 5706   6.657  37.656   7.664
  165POPC   C1B 5707   6.595  37.385   8.564
  165POPC   C2B 5708   6.564  37.439   8.264
  165POPC   C3B 5709   6.573  37.442   7.964
  165POPC   C4B 5710   6.568  37.395   7.664
  166POPC   NC3 5711  23.742  19.836   9.464
  166POPC   PO4 5712  23.694  19.829   9.164
  166POPC   GL1 5713  23.679  19.786   8.864
  166POPC   GL2 5714  23.668  19.707   8.864
  166POPC   C1A 5715  23.741  19.845   8.564
  166POPC   D2A 5716  23.751  19.860   8.264
  166POPC   C3A 5717  23.694  19.875   7.964
  166POPC   C4A 5718  23.687  19.792   7.664
  166POPC   C1B 5719  23.489  19.632   8.564
  166POPC   C2B 5720  23.520  19.626   8.264
  166POPC   C3B 5721  23.552  19.616   7.964
  166POPC   C4B 5722  23.513  19.672   7.664
  167POPC   NC3 5723  15.949  43.091   9.464
  167POPC   PO4 5724  15.946  43.091   9.164
  167POPC   GL1 5725  15.977  43.150   8.864
  167POPC   GL2 5726  15.903  43.014   8.864
  167POPC   C1A 5727  15.951  43.099   8.564
  167POPC   D2A 5728  15.924  43.156   8.264
  167POPC   C3A 5729  15.964  43.127   7.964
  167POPC   C4A 5730  15.993  43.145   7.664
  167POPC   C1B 5731  15.852  42.930   8.564
  167POPC   C2B 5732  15.825  42.900   8.264
  167POPC   C3B 5733  15.787  42.910   7.964
  167POPC   C4B 5734  15.810  42.917   7.664
  168POPC   NC3 5735  41.563  12.888   9.464
  168POPC   PO4 5736  41.520  12.877   9.164
  168POPC   GL1 5737  41.550  12.820   8.864
  168POPC   GL2 5738  41.706  12.859   8.864
  168POPC   C1A 5739  41.546  12.872   8.564
  168POPC   D2A 5740  41.569  12.891   8.264
  168POPC   C3A 5741  41.562  12.844   7.964
  168POPC   C4A 5742  41.594  12.818   7.664
  168POPC   C1B 5743  41.794  12.776   8.564
  168POPC   C2B 5744  41.844  12.836   8.264
  168POPC   C3B 5745  41.814  12.803   7.964
  168POPC   C4B 5746  41.831  12.757   7.664
  169POPC   NC3 5747  30.670   4.328   9.464
  169POPC   PO4 5748  30.746   4.365   9.164
  169POPC   GL1 5749  30.743   4.330   8.864
  169POPC   GL2 5750  30.822   4.304   8.864
  169POPC   C1A 5751  30.679   4.331   8.564
  169POPC   D2A 5752  30.695   4.297   8.264
  169POPC   C3A 5753  30.676   4.301   7.964
  169POPC   C4A 5754  30.712   4.310   7.664
  169POPC   C1B 5755  30.950   4.324   8.564
  169POPC   C2B 5756  30.988   4.266   8.264
  169POPC   C3B 5757  30.937   4.297   7.964
  169POPC   C4B 5758  30.961   4.306   7.664
  170POPC   NC3 5759  12.102   5.121   9.464
  170POPC   PO4 5760  12.050   5.090   9.164
  170POPC   GL1 5761  12.112   5.095   8.864
  170POPC   GL2 5762  12.023   5.045   8.864
  170POPC   C1A 5763  12.068   5.073   8.564
  170POPC   D2A 5764  12.043   5.055   8.264
  170POPC   C3A 5765  12.115   5.099   7.964
  170POPC   C4A 5766  12.090   5.044   7.664
  170POPC   C1B 5767  11.886   4.958   8.564
  170POPC   C2B 5768  11.883   4.952   8.264
  170POPC   C3B 5769  11.909   4.916   7.964
  170POPC   C4B 5770  11.885   4.953   7.664
  171POPC   NC3 5771  41.558  33.053   9.464
  171POPC   PO4 5772  41.513  33.073   9.164
  171POPC   GL1 5773  41.561  33.004   8.864
  171POPC   GL2 5774  41.692  32.995   8.864
  171POPC   C1A 5775  41.556  32.974   8.564
  171POPC   D2A 5776  41.588  33.002   8.264
  171POPC   C3A 5777  41.515  33.026   7.964
  171POPC   C4A 5778  41.551  33.001   7.664
  171POPC   C1B 5779  41.825  33.003   8.564
  171POPC   C2B 5780  41.813  33.036   8.264
  171POPC   C3B 5781  41.769  33.012   7.964
  171POPC   C4B 5782  41.834  33.037   7.664
  172POPC   NC3 5783  28.376  33.806   9.464
  172POPC   PO4 5784  28.391  33.789   9.164
  172POPC   GL1 5785  28.390  33.843   8.864
  172POPC   GL2 5786  28.434  33.913   8.864
  172POPC   C1A 5787  28.401  33.837   8.564
  172POPC   D2A 5788  28.398  33.841   8.264
  172POPC   C3A 5789  28.405  33.812   7.964
  172POPC   C4A 5790  28.332  33.808   7.664
  172POPC   C1B 5791  28.455  34.067   8.564
  172POPC   C2B 5792  28.465  33.990   8.264
  172POPC   C3B 5793  28.523  33.984   7.964
  172POPC   C4B 5794  28.516  34.041   7.664
  173POPC   NC3 5795  35.384  30.737   9.464
  173POPC   PO4 5796  35.346  30.721   9.164
  173POPC   GL1 5797  35.346  30.659   8.864
  173POPC   GL2 5798  35.227  30.775   8.864
  173POPC   C1A 5799  35.307  30.743   8.564
  173POPC   D2A 5800  35.363  30.711   8.264
  173POPC   C3A 5801  35.322  30.668   7.964
  173POPC   C4A 5802  35.312  30.669   7.664
  173POPC   C1B 5803  35.191  30.850   8.564
  173POPC   C2B 5804  35.213  30.924   8.264
  173POPC   C3B 5805  35.196  30.841   7.964
  173POPC   C4B 5806  35.153  30.828   7.664
  174POPC   NC3 5807  36.138   1.253   9.464
  174POPC   PO4 5808  36.119   1.202   9.164
  174POPC   GL1 5809  36.085   1.229   8.864
  174POPC   GL2 5810  36.129   1.116   8.864
  174POPC   C1A 5811  36.094   1.225   8.564
  174POPC   D2A 5812  36.100   1.199   8.264
  174POPC   C3A 5813  36.164   1.244   7.964
  174POPC   C4A 5814  36.168   1.225   7.664
  174POPC   C1B 5815  36.061   0.994   8.564
  174POPC   C2B 5816  36.085   0.973   8.264
  174POPC   C3B 5817  36.082   0.981   7.964
  174POPC   C4B 5818  36.084   0.981   7.664
  175POPC   NC3 5819  31.481   7.466   9.464
  175POPC   PO4 5820  31.460   7.385   9.164
  175POPC   GL1 5821  31.465   7.378   8.864
  175POPC   GL2 5822  31.569   7.354   8.864
  175POPC   C1A 5823  31.507   7.397   8.564
  175POPC   D2A 5824  31.512   7.373   8.264
  175POPC   C3A 5825  31.432   7.457   7.964
  175POPC   C4A 5826  31.515   7.372   7.664
  175POPC   C1B 5827  31.595   7.193   8.564
  175POPC   C2B 5828  31.589   7.212   8.264
  175POPC   C3B 5829  31.623   7.157   7.964
  175POPC   C4B 5830  31.622   7.231   7.664
  176POPC   NC3 5831   5.093  42.317   9.464
  176POPC   PO4 5832   5.047  42.362   9.164
  176POPC   GL1 5833   5.072  42.295   8.864
  176POPC   GL2 5834   4.954  42.363   8.864
  176POPC   C1A 5835   5.084  42.337   8.564
  176POPC   D2A 5836   5.103  42.300   8.264
  176POPC   C3A 5837   5.117  42.330   7.964
  176POPC   C4A 5838   5.092  42.353   7.664
  176POPC   C1B 5839   4.800  42.388   8.564
  176POPC   C2B 5840   4.839  42.303   8.264
  176POPC   C3B 5841   4.852  42.311   7.964
  176POPC   C4B 5842   4.859  42.314   7.664
  177POPC   NC3 5843  36.094   2.023   9.464
  177POPC   PO4 5844  36.094   2.032   9.164
  177POPC   GL1 5845  36.146   2.016   8.864
  177POPC   GL2 5846  36.044   1.861   8.864
  177POPC   C1A 5847  36.084   1.962   8.564
  177POPC   D2A 5848  36.176   2.028   8.264
  177POPC   C3A 5849  36.150   1.975   7.964
  177POPC   C4A 5850  36.095   2.019   7.664
  177POPC   C1B 5851  35.980   1.801   8.564
  177POPC   C2B 5852  35.970   1.745   8.264
  177POPC   C3B 5853  36.026   1.798   7.964
  177POPC   C4B 5854  36.034   1.771   7.664
  178POPC   NC3 5855  26.029  22.117   9.464
  178POPC   PO4 5856  26.078  22.195   9.164
  178POPC   GL1 5857  26.038  22.154   8.864
  178POPC   GL2 5858  26.175  22.167   8.864
  178POPC   C1A 5859  26.051  22.144   8.564
  178POPC   D2A 5860  26.052  22.125   8.264
  178POPC   C3A 5861  26.082  22.202   7.964
  178POPC   C4A 5862  26.043  22.168   7.664
  178POPC   C1B 5863  26.280  22.201   8.564
  178POPC   C2B 5864  26.278  22.191   8.264
  178POPC   C3B 5865  26.308  22.201   7.964
  178POPC   C4B 5866  26.331  22.185   7.664
  179POPC   NC3 5867  15.169  38.420   9.464
  179POPC   PO4 5868  15.188  38.463   9.164
  179POPC   GL1 5869  15.166  38.451   8.864
  179POPC   GL2 5870  15.123  38.370   8.864
  179POPC   C1A 5871  15.153  38.468   8.564
  179POPC   D2A 5872  15.221  38.477   8.264
  179POPC   C3A 5873  15.180  38.423   7.964
  179POPC   C4A 5874  15.141  38.445   7.664
  179POPC   C1B 5875  14.953  38.318   8.564
  179POPC   C2B 5876  14.945  38.288   8.264
  179POPC   C3B 5877  15.018  38.315   7.964
  179POPC   C4B 5878  15.002  38.273   7.664
  180POPC   NC3 5879  38.482  15.138   9.464
  180POPC   PO4 5880  38.424  15.185   9.164
  180POPC   GL1 5881  38.505  15.198   8.864
  180POPC   GL2 5882  38.501  15.074   8.864
  180POPC   C1A 5883  38.439  15.130   8.564
  180POPC   D2A 5884  38.424  15.199   8.264
  180POPC   C3A 5885  38.409  15.159   7.964
  180POPC   C4A 5886  38.416  15.163   7.664
  180POPC   C1B 5887  38.589  14.921   8.564
  180POPC   C2B 5888  38.630  14.976   8.264
  180POPC   C3B 5889  38.590  14.929   7.964
  180POPC   C4B 5890  38.596  14.921   7.664
  181POPC   NC3 5891  37.636  41.581   9.464
  181POPC   PO4 5892  37.658  41.526   9.164
  181POPC   GL1 5893  37.679  41.540   8.864
  181POPC   GL2 5894  37.570  41.426   8.864
  181POPC   C1A 5895  37.688  41.542   8.564
  181POPC   D2A 5896  37.663  41.572   8.264
  181POPC   C3A 5897  37.655  41.520   7.964
  181POPC   C4A 5898  37.724  41.595   7.664
  181POPC   C1B 5899  37.534  41.320   8.564
  181POPC   C2B 5900  37.514  41.327   8.264
  181POPC   C3B 5901  37.515  41.328   7.964
  181POPC   C4B 5902  37.522  41.311   7.664
  182POPC   NC3 5903  21.355  29.182   9.464
  182POPC   PO4 5904  21.407  29.125   9.164
  182POPC   GL1 5905  21.426  29.130   8.864
  182POPC   GL2 5906  21.408  29.034   8.864
  182POPC   C1A 5907  21.412  29.144   8.564
  182POPC   D2A 5908  21.396  29.145   8.264
  182POPC   C3A 5909  21.381  29.125   7.964
  182POPC   C4A 5910  21.338  29.144   7.664
  182POPC   C1B 5911  21.453  28.861   8.564
  182POPC   C2B 5912  21.501  28.912   8.264
  182POPC   C3B 5913  21.463  28.937   7.964
  182POPC   C4B 5914  21.450  28.857   7.664
  183POPC   NC3 5915  19.814  34.625   9.464
  183POPC   PO4 5916  19.825  34.619   9.164
  183POPC   GL1 5917  19.841  34.566   8.864
  183POPC   GL2 5918  19.699  34.610   8.864
  183POPC   C1A 5919  19.867  34.553   8.564
  183POPC   D2A 5920  19.869  34.622   8.264
  183POPC   C3A 5921  19.871  34.598   7.964
  183POPC   C4A 5922  19.787  34.599   7.664
  183POPC   C1B 5923  19.624  34.705   8.564
  183POPC   C2B 5924  19.615  34.773   8.264
  183POPC   C3B 5925  19.665  34.680   7.964
  183POPC   C4B 5926  19.675  34.719   7.664
  184POPC   NC3 5927  33.795  40.828   9.464
  184POPC   PO4 5928  33.830  40.753   9.164
  184POPC   GL1 5929  33.812  40.777   8.864
  184POPC   GL2 5930  33.714  40.824   8.864
  184POPC   C1A 5931  33.806  40.759   8.564
  184POPC   D2A 5932  33.826  40.811   8.264
  184POPC   C3A 5933  33.782  40.775   7.964
  184POPC   C4A 5934  33.778  40.832   7.664
  184POPC   C1B 5935  33.507  40.815   8.564
  184POPC   C2B 5936  33.540  40.774   8.264
  184POPC   C3B 5937  33.529  40.795   7.964
  184POPC   C4B 5938  33.540  40.788   7.664
  185POPC   NC3 5939  39.203  33.028   9.464
  185POPC   PO4 5940  39.249  33.034   9.164
  185POPC   GL1 5941  39.189  33.018   8.864
  185POPC   GL2 5942  39.257  32.861   8.864
  185POPC   C1A 5943  39.196  33.000   8.564
  185POPC   D2A 5944  39.183  33.035   8.264
  185POPC   C3A 5945  39.205  33.028   7.964
  185POPC   C4A 5946  39.226  33.047   7.664
  185POPC   C1B 5947  39.240  32.793   8.564
  185POPC   C2B 5948  39.241  32.822   8.264
  185POPC   C3B 5949  39.235  32.820   7.964
  185POPC   C4B 5950  39.226  32.730   7.664
  186POPC   NC3 5951  17.461  13.670   9.464
  186POPC   PO4 5952  17.518  13.663   9.164
  186POPC   GL1 5953  17.470  13.587   8.864
  186POPC   GL2 5954  17.348  13.638   8.864
  186POPC   C1A 5955  17.489  13.616   8.564
  186POPC   D2A 5956  17.475  13.600   8.264
  186POPC   C3A 5957  17.485  13.604   7.964
  186POPC   C4A 5958  17.501  13.600   7.664
  186POPC   C1B 5959  17.237  13.610   8.564
  186POPC   C2B 5960  17.271  13.644   8.264
  186POPC   C3B 5961  17.248  13.640   7.964
  186POPC   C4B 5962  17.293  13.630   7.664
  187POPC   NC3 5963  26.773   7.446   9.464
  187POPC   PO4 5964  26.859   7.445   9.164
  187POPC   GL1 5965  26.770   7.402   8.864
  187POPC   GL2 5966  26.925   7.369   8.864
  187POPC   C1A 5967  26.796   7.449   8.564
  187POPC   D2A 5968  26.813   7.426   8.264
  187POPC   C3A 5969  26.777   7.438   7.964
  187POPC   C4A 5970  26.854   7.393   7.664
  187POPC   C1B 5971  27.042   7.378   8.564
  187POPC   C2B 5972  27.077   7.389   8.264
  187POPC   C3B 5973  27.068   7.372   7.964
  187POPC   C4B 5974  27.064   7.373   7.664
  188POPC   NC3 5975  40.783  24.534   9.464
  188POPC   PO4 5976  40.774  24.500   9.164
  188POPC   GL1 5977  40.817  24.489   8.864
  188POPC   GL2 5978  40.813  24.363   8.864
  188POPC   C1A 5979  40.801  24.515   8.564
  188POPC   D2A 5980  40.829  24.496   8.264
  188POPC   C3A 5981  40.761  24.531   7.964
  188POPC   C4A 5982  40.774  24.532   7.664
  188POPC   C1B 5983  40.841  24.237   8.564
  188POPC   C2B 5984  40.790  24.236   8.264
  188POPC   C3B 5985  40.865  24.292   7.964
  188POPC   C4B 5986  40.856  24.268   7.664
  189POPC   NC3 5987  39.225  12.871   9.464
  189POPC   PO4 5988  39.230  12.881   9.164
  189POPC   GL1 5989  39.255  12.821   8.864
  189POPC   GL2 5990  39.322  12.829   8.864
  189POPC   C1A 5991  39.238  12.867   8.564
  189POPC   D2A 5992  39.187  12.812   8.264
  189POPC   C3A 5993  39.273  12.863   7.964
  189POPC   C4A 5994  39.253  12.812   7.664
  189POPC   C1B 5995  39.469  12.690   8.564
  189POPC   C2B 5996  39.404  12.683   8.264
  189POPC   C3B 5997  39.491  12.690   7.964
  189POPC   C4B 5998  39.420  12.726   7.664
  190POPC   NC3 5999  43.087  43.892   9.464
  190POPC   PO4 6000  43.125  43.838   9.164
  190POPC   GL1 6001  43.116  43.926   8.864
  190POPC   GL2 6002  43.217  43.982   8.864
  190POPC   C1A 6003  43.112  43.875   8.564
  190POPC   D2A 6004  43.099  43.860   8.264
  190POPC   C3A 6005  43.147  43.863   7.964
  190POPC   C4A 6006  43.066  43.921   7.664
  190POPC   C1B 6007  43.260  44.101   8.564
  190POPC   C2B 6008  43.253  44.069   8.264
  190POPC   C3B 6009  43.287  44.076   7.964
  190POPC   C4B 6010  43.276  44.026   7.664
  191POPC   NC3 6011  24.490  37.702   9.464
  191POPC   PO4 6012  24.456  37.670   9.164
  191POPC   GL1 6013  24.528  37.653   8.864
  191POPC   GL2 6014  24.378  37.596   8.864
  191POPC   C1A 6015  24.473  37.723   8.564
  191POPC   D2A 6016  24.498  37.632   8.264
  191POPC   C3A 6017  24.475  37.682   7.964
  191POPC   C4A 6018  24.452  37.639   7.664
  191POPC   C1B 6019  24.297  37.532   8.564
  191POPC   C2B 6020  24.366  37.505   8.264
  191POPC   C3B 6021  24.360  37.484   7.964
  191POPC   C4B 6022  24.336  37.518   7.664
  192POPC   NC3 6023  30.707  17.487   9.464
  192POPC   PO4 6024  30.697  17.543   9.164
  192POPC   GL1 6025  30.731  17.507   8.864
  192POPC   GL2 6026  30.588  17.605   8.864
  192POPC   C1A 6027  30.673  17.555   8.564
  192POPC   D2A 6028  30.675  17.531   8.264
  192POPC   C3A 6029  30.726  17.471   7.964
  192POPC   C4A 6030  30.647  17.471   7.664
  192POPC   C1B 6031  30.516  17.661   8.564
  192POPC   C2B 6032  30.466  17.629   8.264
  192POPC   C3B 6033  30.528  17.641   7.964
  192POPC   C4B 6034  30.498  17.603   7.664
  193POPC   NC3 6035   5.142  12.046   9.464
  193POPC   PO4 6036   5.069  12.124   9.164
  193POPC   GL1 6037   5.055  12.080   8.864
  193POPC   GL2 6038   4.944  12.025   8.864
  193POPC   C1A 6039   5.046  12.112   8.564
  193POPC   D2A 6040   5.135  12.078   8.264
  193POPC   C3A 6041   5.070  12.091   7.964
  193POPC   C4A 6042   5.104  12.095   7.664
  193POPC   C1B 6043   4.915  11.992   8.564
  193POPC   C2B 6044   4.830  11.939   8.264
  193POPC   C3B 6045   4.913  11.993   7.964
  193POPC   C4B 6046   4.872  11.957   7.664
  194POPC   NC3 6047  43.881  37.638   9.464
  194POPC   PO4 6048  43.870  37.658   9.164
  194POPC   GL1 6049  43.864  37.675   8.864
  194POPC   GL2 6050  43.829  37.556   8.864
  194POPC   C1A 6051  43.905  37.727   8.564
  194POPC   D2A 6052  43.924  37.645   8.264
  194POPC   C3A 6053  43.928  37.661   7.964
  194POPC   C4A 6054  43.933  37.677   7.664
  194POPC   C1B 6055  43.794  37.405   8.564
  194POPC   C2B 6056  43.763  37.405   8.264
  194POPC   C3B 6057  43.822  37.406   7.964
  194POPC   C4B 6058  43.754  37.456   7.664
  195POPC   NC3 6059  14.428   2.744   9.464
  195POPC   PO4 6060  14.373   2.783   9.164
  195POPC   GL1 6061  14.444   2.805   8.864
  195POPC   GL2 6062  14.473   2.833   8.864
  195POPC   C1A 6063  14.405   2.719   8.564
  195POPC   D2A 6064  14.364   2.766   8.264
  195POPC   C3A 6065  14.370   2.739   7.964
  195POPC   C4A 6066  14.417   2.795   7.664
  195POPC   C1B 6067  14.551   2.915   8.564
  195POPC   C2B 6068  14.594   2.972   8.264
  195POPC   C3B 6069  14.548   2.895   7.964
  195POPC   C4B 6070  14.554   2.927   7.664
  196POPC   NC3 6071  31.522   4.349   9.464
  196POPC   PO4 6072  31.468   4.294   9.164
  196POPC   GL1 6073  31.503   4.273   8.864
  196POPC   GL2 6074  31.620   4.299   8.864
  196POPC   C1A 6075  31.453   4.367   8.564
  196POPC   D2A 6076  31.482   4.295   8.264
  196POPC   C3A 6077  31.463   4.324   7.964
  196POPC   C4A 6078  31.503   4.317   7.664
  196POPC   C1B 6079  31.712   4.309   8.564
  196POPC   C2B 6080  31.753   4.267   8.264
  196POPC   C3B 6081  31.697   4.289   7.964
  196POPC   C4B 6082  31.763   4.311   7.664
  197POPC   NC3 6083  19.089  13.589   9.464
  197POPC   PO4 6084  19.096  13.596   9.164
  197POPC   GL1 6085  19.080  13.645   8.864
  197POPC   GL2 6086  18.907  13.665   8.864
  197POPC   C1A 6087  19.020  13.613   8.564
  197POPC   D2A 6088  19.047  13.588   8.264
  197POPC   C3A 6089  19.033  13.643   7.964
  197POPC   C4A 6090  19.037  13.660   7.664
  197POPC   C1B 6091  18.838  13.643   8.564
  197POPC   C2B 6092  18.779  13.729   8.264
  197POPC   C3B 6093  18.842  13.683   7.964
  197POPC   C4B 6094  18.865  13.698   7.664
  198POPC   NC3 6095  27.561  34.535   9.464
  198POPC   PO4 6096  27.597  34.615   9.164
  198POPC   GL1 6097  27.598  34.625   8.864
  198POPC   GL2 6098  27.751  34.526   8.864
  198POPC   C1A 6099  27.556  34.542   8.564
  198POPC   D2A 6100  27.626  34.543   8.264
  198POPC   C3A 6101  27.625  34.577   7.964
  198POPC   C4A 6102  27.606  34.539   7.664
  198POPC   C1B 6103  27.885  34.489   8.564
  198POPC   C2B 6104  27.864  34.555   8.264
  198POPC   C3B 6105  27.828  34.511   7.964
  198POPC   C4B 6106  27.795  34.485   7.664
  199POPC   NC3 6107  12.076   8.936   9.464
  199POPC   PO4 6108  12.038   8.950   9.164
  199POPC   GL1 6109  12.106   8.926   8.864
  199POPC   GL2 6110  12.152   9.042   8.864
  199POPC   C1A 6111  12.075   8.974   8.564
  199POPC   D2A 6112  12.029   8.969   8.264
  199POPC   C3A 6113  12.071   8.971   7.964
  199POPC   C4A 6114  12.065   9.005   7.664
  199POPC   C1B 6115  12.297   9.077   8.564
  199POPC   C2B 6116  12.329   9.070   8.264
  199POPC   C3B 6117  12.341   9.112   7.964
  199POPC   C4B 6118  12.331   9.126   7.664
  200POPC   NC3 6119  19.871  11.320   9.464
  200POPC   PO4 6120  19.879  11.308   9.164
  200POPC   GL1 6121  19.855  11.284   8.864
  200POPC   GL2 6122  19.860  11.443   8.864
  200POPC   C1A 6123  19.833  11.303   8.564
  200POPC   D2A 6124  19.833  11.275   8.264
  200POPC   C3A 6125  19.851  11.277   7.964
  200POPC   C4A 6126  19.880  11.323   7.664
  200POPC   C1B 6127  19.941  11.576   8.564
  200POPC   C2B 6128  19.915  11.516   8.264
  200POPC   C3B 6129  19.938  11.534   7.964
  200POPC   C4B 6130  19.882  11.554   7.664
  201POPC   NC3 6131  41.592  23.724   9.464
  201POPC   PO4 6132  41.542  23.734   9.164
  201POPC   GL1 6133  41.579  23.736   8.864
  201POPC   GL2 6134  41.597  23.650   8.864
  201POPC   C1A 6135  41.579  23.674   8.564
  201POPC   D2A 6136  41.541  23.723   8.264
  201POPC   C3A 6137  41.549  23.734   7.964
  201POPC   C4A 6138  41.559  23.759   7.664
  201POPC   C1B 6139  41.745  23.482   8.564
  201POPC   C2B 6140  41.722  23.477   8.264
  201POPC   C3B 6141  41.686  23.541   7.964
  201POPC   C4B 6142  41.693  23.482   7.664
  202POPC   NC3 6143   4.302  29.904   9.464
  202POPC   PO4 6144   4.342  29.920   9.164
  202POPC   GL1 6145   4.363  29.949   8.864
  202POPC   GL2 6146   4.382  30.031   8.864
  202POPC   C1A 6147   4.366  29.933   8.564
  202POPC   D2A 6148   4.292  29.923   8.264
  202POPC   C3A 6149   4.315  29.947   7.964
  202POPC   C4A 6150   4.284  29.939   7.664
  202POPC   C1B 6151   4.426  30.124   8.564
  202POPC   C2B 6152   4.418  30.171   8.264
  202POPC   C3B 6153   4.397  30.160   7.964
  202POPC   C4B 6154   4.398  30.141   7.664
  203POPC   NC3 6155  35.309   1.946   9.464
  203POPC   PO4 6156  35.326   1.978   9.164
  203POPC   GL1 6157  35.388   1.991   8.864
  203POPC   GL2 6158  35.469   2.003   8.864
  203POPC   C1A 6159  35.392   1.952   8.564
  203POPC   D2A 6160  35.358   2.004   8.264
  203POPC   C3A 6161  35.356   1.945   7.964
  203POPC   C4A 6162  35.393   2.036   7.664
  203POPC   C1B 6163  35.627   2.104   8.564
  203POPC   C2B 6164  35.551   2.063   8.264
  203POPC   C3B 6165  35.616   2.102   7.964
  203POPC   C4B 6166  35.577   2.072   7.664
  204POPC   NC3 6167  40.756  43.899   9.464
  204POPC   PO4 6168  40.831  43.931   9.164
  204POPC   GL1 6169  40.805  43.919   8.864
  204POPC   GL2 6170  40.734  43.964   8.864
  204POPC   C1A 6171  40.734  43.899   8.564
  204POPC   D2A 6172  40.813  43.875   8.264
  204POPC   C3A 6173  40.790  43.871   7.964
  204POPC   C4A 6174  40.798  43.876   7.664
  204POPC   C1B 6175  40.740  44.133   8.564
  204POPC   C2B 6176  40.696  44.106   8.264
  204POPC   C3B 6177  40.715  44.162   7.964
  204POPC   C4B 6178  40.717  44.106   7.664
  205POPC   NC3 6179   6.602   3.552   9.464
  205POPC   PO4 6180   6.626   3.543   9.164
  205POPC   GL1 6181   6.682   3.550   8.864
  205POPC   GL2 6182   6.712   3.457   8.864
  205POPC   C1A 6183   6.621   3.581   8.564
  205POPC   D2A 6184   6.635   3.578   8.264
  205POPC   C3A 6185   6.684   3.515   7.964
  205POPC   C4A 6186   6.686   3.565   7.664
  205POPC   C1B 6187   6.773   3.289   8.564
  205POPC   C2B 6188   6.718   3.261   8.264
  205POPC   C3B 6189   6.687   3.268   7.964
  205POPC   C4B 6190   6.738   3.356   7.664
  206POPC   NC3 6191   9.736  32.988   9.464
  206POPC   PO4 6192   9.748  33.049   9.164
  206POPC   GL1 6193   9.764  33.052   8.864
  206POPC   GL2 6194   9.908  33.024   8.864
  206POPC   C1A 6195   9.731  33.036   8.564
  206POPC   D2A 6196   9.704  33.029   8.264
  206POPC   C3A 6197   9.790  33.044   7.964
  206POPC   C4A 6198   9.774  33.027   7.664
  206POPC   C1B 6199  10.036  33.077   8.564
  206POPC   C2B 6200   9.983  33.079   8.264
  206POPC   C3B 6201   9.961  33.031   7.964
  206POPC   C4B 6202   9.948  33.105   7.664
  207POPC   NC3 6203   1.191  36.130   9.464
  207POPC   PO4 6204   1.174  36.104   9.164
  207POPC   GL1 6205   1.168  36.162   8.864
  207POPC   GL2 6206   1.136  36.053   8.864
  207POPC   C1A 6207   1.262  36.093   8.564
  207POPC   D2A 6208   1.259  36.152   8.264
  207POPC   C3A 6209   1.219  36.086   7.964
  207POPC   C4A 6210   1.215  36.135   7.664
  207POPC   C1B 6211   1.141  35.896   8.564
  207POPC   C2B 6212   1.178  35.849   8.264
  207POPC   C3B 6213   1.121  35.882   7.964
  207POPC   C4B 6214   1.091  35.861   7.664
  208POPC   NC3 6215  26.805  13.587   9.464
  208POPC   PO4 6216  26.788  13.603   9.164
  208POPC   GL1 6217  26.782  13.645   8.864
  208POPC   GL2 6218  26.744  13.584   8.864
  208POPC   C1A 6219  26.842  13.610   8.564
  208POPC   D2A 6220  26.860  13.614   8.264
  208POPC   C3A 6221  26.840  13.609   7.964
  208POPC   C4A 6222  26.825  13.583   7.664
  208POPC   C1B 6223  26.608  13.446   8.564
  208POPC   C2B 6224  26.609  13.454   8.264
  208POPC   C3B 6225  26.646  13.468   7.964
  208POPC   C4B 6226  26.642  13.456   7.664
  209POPC   NC3 6227  28.335  20.614   9.464
  209POPC   PO4 6228  28.410  20.597   9.164
  209POPC   GL1 6229  28.396  20.651   8.864
  209POPC   GL2 6230  28.391  20.526   8.864
  209POPC   C1A 6231  28.329  20.610   8.564
  209POPC   D2A 6232  28.325  20.641   8.264
  209POPC   C3A 6233  28.328  20.638   7.964
  209POPC   C4A 6234  28.406  20.626   7.664
  209POPC   C1B 6235  28.323  20.332   8.564
  209POPC   C2B 6236  28.296  20.356   8.264
  209POPC   C3B 6237  28.365  20.322   7.964
  209POPC   C4B 6238  28.347  20.375   7.664
  210POPC   NC3 6239   1.974  18.323   9.464
  210POPC   PO4 6240   2.001  18.289   9.164
  210POPC   GL1 6241   1.948  18.236   8.864
  210POPC   GL2 6242   2.033  18.365   8.864
  210POPC   C1A 6243   1.942  18.245   8.564
  210POPC   D2A 6244   1.960  18.264   8.264
  210POPC   C3A 6245   1.977  18.298   7.964
  210POPC   C4A 6246   1.998  18.323   7.664
  210POPC   C1B 6247   2.142  18.470   8.564
  210POPC   C2B 6248   2.198  18.427   8.264
  210POPC   C3B 6249   2.193  18.436   7.964
  210POPC   C4B 6250   2.126  18.414   7.664
  211POPC   NC3 6251  12.851  36.132   9.464
  211POPC   PO4 6252  12.813  36.124   9.164
  211POPC   GL1 6253  12.897  36.109   8.864
  211POPC   GL2 6254  12.826  36.036   8.864
  211POPC   C1A 6255  12.814  36.119   8.564
  211POPC   D2A 6256  12.841  36.125   8.264
  211POPC   C3A 6257  12.831  36.140   7.964
  211POPC   C4A 6258  12.862  36.081   7.664
  211POPC   C1B 6259  12.839  35.879   8.564
  211POPC   C2B 6260  12.860  35.910   8.264
  211POPC   C3B 6261  12.829  35.927   7.964
  211POPC   C4B 6262  12.865  35.907   7.664
  212POPC   NC3 6263  14.445  43.070   9.464
  212POPC   PO4 6264  14.432  43.089   9.164
  212POPC   GL1 6265  14.358  43.134   8.864
  212POPC   GL2 6266  14.444  43.263   8.864
  212POPC   C1A 6267  14.407  43.157   8.564
  212POPC   D2A 6268  14.429  43.149   8.264
  212POPC   C3A 6269  14.404  43.140   7.964
  212POPC   C4A 6270  14.430  43.108   7.664
  212POPC   C1B 6271  14.514  43.380   8.564
  212POPC   C2B 6272  14.525  43.335   8.264
  212POPC   C3B 6273  14.531  43.361   7.964
  212POPC   C4B 6274  14.488  43.374   7.664
  213POPC   NC3 6275  15.962  24.508   9.464
  213POPC   PO4 6276  15.983  24.514   9.164
  213POPC   GL1 6277  15.973  24.458   8.864
  213POPC   GL2 6278  15.966  24.352   8.864
  213POPC   C1A 6279  15.965  24.481   8.564
  213POPC   D2A 6280  15.981  24.462   8.264
  213POPC   C3A 6281  15.992  24.459   7.964
  213POPC   C4A 6282  15.957  24.486   7.664
  213POPC   C1B 6283  16.005  24.258   8.564
  213POPC   C2B 6284  16.012  24.196   8.264
  213POPC   C3B 6285  15.992  24.206   7.964
  213POPC   C4B 6286  15.946  24.267   7.664
  214POPC   NC3 6287  40.798  26.769   9.464
  214POPC   PO4 6288  40.764  26.802   9.164
  214POPC   GL1 6289  40.814  26.834   8.864
  214POPC   GL2 6290  40.783  26.978   8.864
  214POPC   C1A 6291  40.746  26.813   8.564
  214POPC   D2A 6292  40.818  26.818   8.264
  214POPC   C3A 6293  40.734  26.844   7.964
  214POPC   C4A 6294  40.792  26.799   7.664
  214POPC   C1B 6295  40.711  27.008   8.564
  214POPC   C2B 6296  40.708  27.051   8.264
  214POPC   C3B 6297  40.716  27.010   7.964
  214POPC   C4B 6298  40.642  27.031   7.664
  215POPC   NC3 6299  40.040  27.567   9.464
  215POPC   PO4 6300  39.970  27.609   9.164
  215POPC   GL1 6301  39.996  27.575   8.864
  215POPC   GL2 6302  39.914  27.623   8.864
  215POPC   C1A 6303  39.968  27.564   8.564
  215POPC   D2A 6304  40.048  27.566   8.264
  215POPC   C3A 6305  39.961  27.587   7.964
  215POPC   C4A 6306  39.986  27.559   7.664
  215POPC   C1B 6307  39.841  27.685   8.564
  215POPC   C2B 6308  39.765  27.719   8.264
  215POPC   C3B 6309  39.762  27.734   7.964
  215POPC   C4B 6310  39.803  27.689   7.664
  216POPC   NC3 6311   2.007  44.709   9.464
  216POPC   PO4 6312   1.955  44.706   9.164
  216POPC   GL1 6313   1.996  44.674   8.864
  216POPC   GL2 6314   1.900  44.499   8.864
  216POPC   C1A 6315   1.968  44.674   8.564
  216POPC   D2A 6316   2.005  44.685   8.264
  216POPC   C3A 6317   1.943  44.695   7.964
  216POPC   C4A 6318   2.025  44.675   7.664
  216POPC   C1B 6319   1.896  44.455   8.564
  216POPC   C2B 6320   1.912  44.482   8.264
  216POPC   C3B 6321   1.878  44.401   7.964
  216POPC   C4B 6322   1.849  44.477   7.664
  217POPC   NC3 6323  22.159  37.658   9.464
  217POPC   PO4 6324  22.131  37.706   9.164
  217POPC   GL1 6325  22.201  37.677   8.864
  217POPC   GL2 6326  22.327  37.646   8.864
  217POPC   C1A 6327  22.128  37.675   8.564
  217POPC   D2A 6328  22.140  37.668   8.264
  217POPC   C3A 6329  22.166  37.663   7.964
  217POPC   C4A 6330  22.140  37.729   7.664
  217POPC   C1B 6331  22.391  37.599   8.564
  217POPC   C2B 6332  22.370  37.604   8.264
  217POPC   C3B 6333  22.410  37.642   7.964
  217POPC   C4B 6334  22.432  37.569   7.664
  218POPC   NC3 6335  11.280   3.549   9.464
  218POPC   PO4 6336  11.295   3.569   9.164
  218POPC   GL1 6337  11.342   3.542   8.864
  218POPC   GL2 6338  11.246   3.637   8.864
  218POPC   C1A 6339  11.321   3.539   8.564
  218POPC   D2A 6340  11.339   3.499   8.264
  218POPC   C3A 6341  11.286   3.537   7.964
  218POPC   C4A 6342  11.263   3.563   7.664
  218POPC   C1B 6343  11.308   3.818   8.564
  218POPC   C2B 6344  11.240   3.781   8.264
  218POPC   C3B 6345  11.225   3.799   7.964
  218POPC   C4B 6346  11.294   3.806   7.664
  219POPC   NC3 6347  19.843  10.532   9.464
  219POPC   PO4 6348  19.803  10.533   9.164
  219POPC   GL1 6349  19.823  10.537   8.864
  219POPC   GL2 6350  19.707  10.469   8.864
  219POPC   C1A 6351  19.795  10.526   8.564
  219POPC   D2A 6352  19.840  10.511   8.264
  219POPC   C3A 6353  19.808  10.525   7.964
  219POPC   C4A 6354  19.806  10.564   7.664
  219POPC   C1B 6355  19.647  10.366   8.564
  219POPC   C2B 6356  19.653  10.341   8.264
  219POPC   C3B 6357  19.635  10.399   7.964
  219POPC   C4B 6358  19.642  10.355   7.664
  220POPC   NC3 6359   7.413   1.231   9.464
  220POPC   PO4 6360   7.420   1.229   9.164
  220POPC   GL1 6361   7.446   1.219   8.864
  220POPC   GL2 6362   7.563   1.143   8.864
  220POPC   C1A 6363   7.394   1.254   8.564
  220POPC   D2A 6364   7.468   1.224   8.264
  220POPC   C3A 6365   7.444   1.175   7.964
  220POPC   C4A 6366   7.413   1.184   7.664
  220POPC   C1B 6367   7.683   1.117   8.564
  220POPC   C2B 6368   7.678   1.114   8.264
  220POPC   C3B 6369   7.686   1.071   7.964
  220POPC   C4B 6370   7.621   1.072   7.664
  221POPC   NC3 6371  35.351  26.061   9.464
  221POPC   PO4 6372  35.376  26.055   9.164
  221POPC   GL1 6373  35.389  26.049   8.864
  221POPC   GL2 6374  35.300  25.873   8.864
  221POPC   C1A 6375  35.349  26.042   8.564
  221POPC   D2A 6376  35.314  26.027   8.264
  221POPC   C3A 6377  35.333  26.002   7.964
  221POPC   C4A 6378  35.397  26.073   7.664
  221POPC   C1B 6379  35.247  25.832   8.564
  221POPC   C2B 6380  35.312  25.842   8.264
  221POPC   C3B 6381  35.296  25.838   7.964
  221POPC   C4B 6382  35.296  25.773   7.664
  222POPC   NC3 6383  35.306  42.325   9.464
  222POPC   PO4 6384  35.398  42.349   9.164
  222POPC   GL1 6385  35.366  42.303   8.864
  222POPC   GL2 6386  35.263  42.248   8.864
  222POPC   C1A 6387  35.317  42.349   8.564
  222POPC   D2A 6388  35.353  42.337   8.264
  222POPC   C3A 6389  35.371  42.353   7.964
  222POPC   C4A 6390  35.314  42.383   7.664
  222POPC   C1B 6391  35.147  42.180   8.564
  222POPC   C2B 6392  35.085  42.209   8.264
  222POPC   C3B 6393  35.183  42.220   7.964
  222POPC   C4B 6394  35.180  42.180   7.664
  223POPC   NC3 6395  40.051  14.365   9.464
  223POPC   PO4 6396  40.030  14.397   9.164
  223POPC   GL1 6397  39.980  14.374   8.864
  223POPC   GL2 6398  40.007  14.326   8.864
  223POPC   C1A 6399  39.958  14.450   8.564
  223POPC   D2A 6400  39.973  14.375   8.264
  223POPC   C3A 6401  40.049  14.381   7.964
  223POPC   C4A 6402  40.039  14.406   7.664
  223POPC   C1B 6403  39.947  14.151   8.564
  223POPC   C2B 6404  39.951  14.121   8.264
  223POPC   C3B 6405  39.953  14.153   7.964
  223POPC   C4B 6406  39.875  14.158   7.664
  224POPC   NC3 6407  42.285   5.079   9.464
  224POPC   PO4 6408  42.298   5.116   9.164
  224POPC   GL1 6409  42.319   5.133   8.864
  224POPC   GL2 6410  42.399   5.255   8.864
  224POPC   C1A 6411  42.344   5.126   8.564
  224POPC   D2A 6412  42.384   5.111   8.264
  224POPC   C3A 6413  42.381   5.123   7.964
  224POPC   C4A 6414  42.372   5.044   7.664
  224POPC   C1B 6415  42.398   5.360   8.564
  224POPC   C2B 6416  42.425   5.300   8.264
  224POPC   C3B 6417  42.437   5.337   7.964
  224POPC   C4B 6418  42.380   5.299   7.664
  225POPC   NC3 6419  29.895  14.387   9.464
  225POPC   PO4 6420  29.900  14.382   9.164
  225POPC   GL1 6421  29.919  14.400   8.864
  225POPC   GL2 6422  30.085  14.365   8.864
  225POPC   C1A 6423  29.883  14.409   8.564
  225POPC   D2A 6424  29.917  14.384   8.264
  225POPC   C3A 6425  29.933  14.356   7.964
  225POPC   C4A 6426  29.918  14.371   7.664
  225POPC   C1B 6427  30.177  14.442   8.564
  225POPC   C2B 6428  30.216  14.411   8.264
  225POPC   C3B 6429  30.192  14.405   7.964
  225POPC   C4B 6430  30.139  14.429   7.664
  226POPC   NC3 6431  39.199   5.906   9.464
  226POPC   PO4 6432  39.270   5.902   9.164
  226POPC   GL1 6433  39.271   5.826   8.864
  226POPC   GL2 6434  39.083   5.915   8.864
  226POPC   C1A 6435  39.195   5.825   8.564
  226POPC   D2A 6436  39.274   5.915   8.264
  226POPC   C3A 6437  39.267   5.819   7.964
  226POPC   C4A 6438  39.204   5.850   7.664
  226POPC   C1B 6439  38.960   5.963   8.564
  226POPC   C2B 6440  38.952   5.960   8.264
  226POPC   C3B 6441  39.021   5.971   7.964
  226POPC   C4B 6442  38.978   6.008   7.664
  227POPC   NC3 6443  36.931  36.175   9.464
  227POPC   PO4 6444  36.933  36.090   9.164
  227POPC   GL1 6445  36.949  36.111   8.864
  227POPC   GL2 6446  36.755  36.103   8.864
  227POPC   C1A 6447  36.935  36.153   8.564
  227POPC   D2A 6448  36.899  36.081   8.264
  227POPC   C3A 6449  36.868  36.177   7.964
  227POPC   C4A 6450  36.944  36.100   7.664
  227POPC   C1B 6451  36.626  36.125   8.564
  227POPC   C2B 6452  36.629  36.191   8.264
  227POPC   C3B 6453  36.615  36.130   7.964
  227POPC   C4B 6454  36.698  36.174   7.664
  228POPC   NC3 6455  26.811   5.866   9.464
  228POPC   PO4 6456  26.866   5.911   9.164
  228POPC   GL1 6457  26.810   5.916   8.864
  228POPC   GL2 6458  26.701   5.814   8.864
  228POPC   C1A 6459  26.855   5.831   8.564
  228POPC   D2A 6460  26.783   5.882   8.264
  228POPC   C3A 6461  26.843   5.840   7.964
  228POPC   C4A 6462  26.780   5.838   7.664
  228POPC   C1B 6463  26.580   5.797   8.564
  228POPC   C2B 6464  26.565   5.853   8.264
  228POPC   C3B 6465  26.597   5.808   7.964
  228POPC   C4B 6466  26.526   5.786   7.664
  229POPC   NC3 6467  13.671   7.388   9.464
  229POPC   PO4 6468  13.641   7.434   9.164
  229POPC   GL1 6469  13.664   7.442   8.864
  229POPC   GL2 6470  13.721   7.301   8.864
  229POPC   C1A 6471  13.615   7.411   8.564
  229POPC   D2A 6472  13.618   7.383   8.264
  229POPC   C3A 6473  13.651   7.459   7.964
  229POPC   C4A 6474  13.586   7.403   7.664
  229POPC   C1B 6475  13.753   7.225   8.564
  229POPC   C2B 6476  13.727   7.207   8.264
  229POPC   C3B 6477  13.797   7.248   7.964
  229POPC   C4B 6478  13.736   7.252   7.664
  230POPC   NC3 6479   2.024  34.593   9.464
  230POPC   PO4 6480   2.022  34.575   9.164
  230POPC   GL1 6481   2.026  34.545   8.864
  230POPC   GL2 6482   2.152  34.529   8.864
  230POPC   C1A 6483   1.966  34.598   8.564
  230POPC   D2A 6484   1.965  34.590   8.264
  230POPC   C3A 6485   1.994  34.582   7.964
  230POPC   C4A 6486   1.947  34.594   7.664
  230POPC   C1B 6487   2.244  34.577   8.564
  230POPC   C2B 6488   2.241  34.534   8.264
  230POPC   C3B 6489   2.192  34.532   7.964
  230POPC   C4B 6490   2.232  34.496   7.664
  231POPC   NC3 6491  17.544   9.699   9.464
  231POPC   PO4 6492  17.518   9.792   9.164
  231POPC   GL1 6493  17.457   9.710   8.864
  231POPC   GL2 6494  17.351   9.750   8.864
  231POPC   C1A 6495  17.492   9.797   8.564
  231POPC   D2A 6496  17.494   9.748   8.264
  231POPC   C3A 6497  17.469   9.740   7.964
  231POPC   C4A 6498  17.475   9.732   7.664
  231POPC   C1B 6499  17.265   9.750   8.564
  231POPC   C2B 6500  17.302   9.707   8.264
  231POPC   C3B 6501  17.299   9.705   7.964
  231POPC   C4B 6502  17.222   9.684   7.664
  232POPC   NC3 6503  14.452  26.036   9.464
  232POPC   PO4 6504  14.440  26.010   9.164
  232POPC   GL1 6505  14.395  26.082   8.864
  232POPC   GL2 6506  14.548  26.114   8.864
  232POPC   C1A 6507  14.453  26.033   8.564
  232POPC   D2A 6508  14.375  26.058   8.264
  232POPC   C3A 6509  14.433  26.042   7.964
  232POPC   C4A 6510  14.430  26.028   7.664
  232POPC   C1B 6511  14.606  26.101   8.564
  232POPC   C2B 6512  14.623  26.097   8.264
  232POPC   C3B 6513  14.595  26.143   7.964
  232POPC   C4B 6514  14.678  26.109   7.664
  233POPC   NC3 6515  31.478   8.159   9.464
  233POPC   PO4 6516  31.441   8.182   9.164
  233POPC   GL1 6517  31.447   8.153   8.864
  233POPC   GL2 6518  31.342   8.328   8.864
  233POPC   C1A 6519  31.431   8.162   8.564
  233POPC   D2A 6520  31.452   8.217   8.264
  233POPC   C3A 6521  31.512   8.209   7.964
  233POPC   C4A 6522  31.465   8.188   7.664
  233POPC   C1B 6523  31.343   8.388   8.564
  233POPC   C2B 6524  31.257   8.330   8.264
  233POPC   C3B 6525  31.262   8.417   7.964
  233POPC   C4B 6526  31.282   8.390   7.664
  234POPC   NC3 6527  12.090  35.349   9.464
  234POPC   PO4 6528  12.032  35.390   9.164
  234POPC   GL1 6529  12.051  35.347   8.864
  234POPC   GL2 6530  11.939  35.442   8.864
  234POPC   C1A 6531  12.091  35.352   8.564
  234POPC   D2A 6532  12.051  35.318   8.264
  234POPC   C3A 6533  12.030  35.355   7.964
  234POPC   C4A 6534  12.038  35.394   7.664
  234POPC   C1B 6535  11.839  35.484   8.564
  234POPC   C2B 6536  11.801  35.496   8.264
  234POPC   C3B 6537  11.880  35.444   7.964
  234POPC   C4B 6538  11.862  35.411   7.664
  235POPC   NC3 6539   3.502  13.633   9.464
  235POPC   PO4 6540   3.550  13.589   9.164
  235POPC   GL1 6541   3.539  13.614   8.864
  235POPC   GL2 6542   3.708  13.625   8.864
  235POPC   C1A 6543   3.510  13.650   8.564
  235POPC   D2A 6544   3.565  13.586   8.264
  235POPC   C3A 6545   3.589  13.635   7.964
  235POPC   C4A 6546   3.528  13.669   7.664
  235POPC   C1B 6547   3.830  13.664   8.564
  235POPC   C2B 6548   3.812  13.656   8.264
  235POPC   C3B 6549   3.760  13.695   7.964
  235POPC   C4B 6550   3.770  13.622   7.664
  236POPC   NC3 6551   9.792  23.683   9.464
  236POPC   PO4 6552   9.771  23.703   9.164
  236POPC   GL1 6553   9.771  23.731   8.864
  236POPC   GL2 6554   9.722  23.786   8.864
  236POPC   C1A 6555   9.755  23.754   8.564
  236POPC   D2A 6556   9.786  23.707   8.264
  236POPC   C3A 6557   9.769  23.685   7.964
  236POPC   C4A 6558   9.788  23.701   7.664
  236POPC   C1B 6559   9.572  23.914   8.564
  236POPC   C2B 6560   9.653  23.920   8.264
  236POPC   C3B 6561   9.604  23.874   7.964
  236POPC   C4B 6562   9.606  23.915   7.664
  237POPC   NC3 6563   2.787   1.201   9.464
  237POPC   PO4 6564   2.801   1.175   9.164
  237POPC   GL1 6565   2.790   1.173   8.864
  237POPC   GL2 6566   2.652   1.166   8.864
  237POPC   C1A 6567   2.778   1.217   8.564
  237POPC   D2A 6568   2.731   1.209   8.264
  237POPC   C3A 6569   2.721   1.179   7.964
  237POPC   C4A 6570   2.798   1.245   7.664
  237POPC   C1B 6571   2.559   1.068   8.564
  237POPC   C2B 6572   2.569   1.085   8.264
  237POPC   C3B 6573   2.524   1.096   7.964
  237POPC   C4B 6574   2.568   1.061   7.664
  238POPC   NC3 6575  43.913  24.484   9.464
  238POPC   PO4 6576  43.843  24.513   9.164
  238POPC   GL1 6577  43.898  24.445   8.864
  238POPC   GL2 6578  43.746  24.530   8.864
  238POPC   C1A 6579  43.885  24.479   8.564
  238POPC   D2A 6580  43.899  24.529   8.264
  238POPC   C3A 6581  43.839  24.528   7.964
  238POPC   C4A 6582  43.904  24.523   7.664
  238POPC   C1B 6583  43.708  24.646   8.564
  238POPC   C2B 6584  43.667  24.618   8.264
  238POPC   C3B 6585  43.659  24.584   7.964
  238POPC   C4B 6586  43.706  24.670   7.664
  239POPC   NC3 6587  37.671  12.839   9.464
  239POPC   PO4 6588  37.684  12.812   9.164
  239POPC   GL1 6589  37.679  12.809   8.864
  239POPC   GL2 6590  37.664  13.003   8.864
  239POPC   C1A 6591  37.671  12.824   8.564
  239POPC   D2A 6592  37.633  12.803   8.264
  239POPC   C3A 6593  37.646  12.895   7.964
  239POPC   C4A 6594  37.659  12.835   7.664
  239POPC   C1B 6595  37.602  13.095   8.564
  239POPC   C2B 6596  37.550  13.112   8.264
  239POPC   C3B 6597  37.542  13.071   7.964
  239POPC   C4B 6598  37.608  13.034   7.664
  240POPC   NC3 6599  18.292  30.735   9.464
  240POPC   PO4 6600  18.321  30.708   9.164
  240POPC   GL1 6601  18.312  30.739   8.864
  240POPC   GL2 6602  18.285  30.841   8.864
  240POPC   C1A 6603  18.301  30.709   8.564
  240POPC   D2A 6604  18.315  30.647   8.264
  240POPC   C3A 6605  18.313  30.695   7.964
  240POPC   C4A 6606  18.240  30.695   7.664
  240POPC   C1B 6607  18.287  30.964   8.564
  240POPC   C2B 6608  18.299  30.951   8.264
  240POPC   C3B 6609  18.270  30.944   7.964
  240POPC   C4B 6610  18.230  30.926   7.664
  241POPC   NC3 6611  26.817  44.689   9.464
  241POPC   PO4 6612  26.805  44.675   9.164
  241POPC   GL1 6613  26.858  44.689   8.864
  241POPC   GL2 6614  26.953  44.593   8.864
  241POPC   C1A 6615  26.837  44.688   8.564
  241POPC   D2A 6616  26.842  44.701   8.264
  241POPC   C3A 6617  26.851  44.627   7.964
  241POPC   C4A 6618  26.847  44.649   7.664
  241POPC   C1B 6619  27.054  44.556   8.564
  241POPC   C2B 6620  27.038  44.568   8.264
  241POPC   C3B 6621  27.056  44.521   7.964
  241POPC   C4B 6622  27.077  44.538   7.664
  242POPC   NC3 6623  41.601  22.896   9.464
  242POPC   PO4 6624  41.570  22.904   9.164
  242POPC   GL1 6625  41.573  22.952   8.864
  242POPC   GL2 6626  41.463  23.060   8.864
  242POPC   C1A 6627  41.524  22.985   8.564
  242POPC   D2A 6628  41.548  22.949   8.264
  242POPC   C3A 6629  41.530  22.967   7.964
  242POPC   C4A 6630  41.567  22.910   7.664
  242POPC   C1B 6631  41.415  23.101   8.564
  242POPC   C2B 6632  41.341  23.089   8.264
  242POPC   C3B 6633  41.410  23.091   7.964
  242POPC   C4B 6634  41.341  23.107   7.664
  243POPC   NC3 6635  10.533  32.261   9.464
  243POPC   PO4 6636  10.514  32.246   9.164
  243POPC   GL1 6637  10.486  32.244   8.864
  243POPC   GL2 6638  10.559  32.139   8.864
  243POPC   C1A 6639  10.537  32.258   8.564
  243POPC   D2A 6640  10.518  32.205   8.264
  243POPC   C3A 6641  10.505  32.234   7.964
  243POPC   C4A 6642  10.571  32.290   7.664
  243POPC   C1B 6643  10.719  32.049   8.564
  243POPC   C2B 6644  10.734  32.016   8.264
  243POPC   C3B 6645  10.669  32.085   7.964
  243POPC   C4B 6646  10.648  32.102   7.664
  244POPC   NC3 6647  12.832  33.792   9.464
  244POPC   PO4 6648  12.876  33.784   9.164
  244POPC   GL1 6649  12.897  33.753   8.864
  244POPC   GL2 6650  12.938  33.688   8.864
  244POPC   C1A 6651  12.881  33.808   8.564
  244POPC   D2A 6652  12.815  33.800   8.264
  244POPC   C3A 6653  12.874  33.818   7.964
  244POPC   C4A 6654  12.872  33.777   7.664
  244POPC   C1B 6655  13.021  33.662   8.564
  244POPC   C2B 6656  13.018  33.679   8.264
  244POPC   C3B 6657  13.010  33.679   7.964
  244POPC   C4B 6658  13.044  33.653   7.664
  245POPC   NC3 6659  31.439   6.596   9.464
  245POPC   PO4 6660  31.439   6.634   9.164
  245POPC   GL1 6661  31.493   6.619   8.864
  245POPC   GL2 6662  31.363   6.556   8.864
  245POPC   C1A 6663  31.449   6.616   8.564
  245POPC   D2A 6664  31.492   6.610   8.264
  245POPC   C3A 6665  31.477   6.669   7.964
  245POPC   C4A 6666  31.438   6.601   7.664
  245POPC   C1B 6667  31.312   6.489   8.564
  245POPC   C2B 6668  31.304   6.488   8.264
  245POPC   C3B 6669  31.310   6.435   7.964
  245POPC   C4B 6670  31.284   6.461   7.664
  246POPC   NC3 6671  22.932  15.992   9.464
  246POPC   PO4 6672  22.912  15.906   9.164
  246POPC   GL1 6673  22.970  15.985   8.864
  246POPC   GL2 6674  23.007  15.883   8.864
  246POPC   C1A 6675  22.947  16.001   8.564
  246POPC   D2A 6676  22.902  15.916   8.264
  246POPC   C3A 6677  22.954  15.955   7.964
  246POPC   C4A 6678  22.963  16.000   7.664
  246POPC   C1B 6679  23.052  15.686   8.564
  246POPC   C2B 6680  23.022  15.760   8.264
  246POPC   C3B 6681  23.031  15.745   7.964
  246POPC   C4B 6682  23.090  15.754   7.664
  247POPC   NC3 6683  38.455  38.476   9.464
  247POPC   PO4 6684  38.466  38.444   9.164
  247POPC   GL1 6685  38.422  38.488   8.864
  247POPC   GL2 6686  38.377  38.490   8.864
  247POPC   C1A 6687  38.448  38.432   8.564
  247POPC   D2A 6688  38.432  38.484   8.264
  247POPC   C3A 6689  38.450  38.440   7.964
  247POPC   C4A 6690  38.419  38.464   7.664
  247POPC   C1B 6691  38.233  38.604   8.564
  247POPC   C2B 6692  38.265  38.621   8.264
  247POPC   C3B 6693  38.258  38.560   7.964
  247POPC   C4B 6694  38.242  38.580   7.664
  248POPC   NC3 6695  32.982  37.683   9.464
  248POPC   PO4 6696  33.002  37.662   9.164
  248POPC   GL1 6697  32.978  37.696   8.864
  248POPC   GL2 6698  33.051  37.530   8.864
  248POPC   C1A 6699  33.026  37.654   8.564
  248POPC   D2A 6700  33.072  37.689   8.264
  248POPC   C3A 6701  33.016  37.642   7.964
  248POPC   C4A 6702  33.053  37.679   7.664
  248POPC   C1B 6703  33.036  37.478   8.564
  248POPC   C2B 6704  32.970  37.410   8.264
  248POPC   C3B 6705  32.996  37.381   7.964
  248POPC   C4B 6706  32.957  37.405   7.664
  249POPC   NC3 6707  12.816   8.147   9.464
  249POPC   PO4 6708  12.880   8.176   9.164
  249POPC   GL1 6709  12.865   8.180   8.864
  249POPC   GL2 6710  12.841   8.366   8.864
  249POPC   C1A 6711  12.891   8.178   8.564
  249POPC   D2A 6712  12.810   8.162   8.264
  249POPC   C3A 6713  12.861   8.244   7.964
  249POPC   C4A 6714  12.839   8.219   7.664
  249POPC   C1B 6715  12.815   8.416   8.564
  249POPC   C2B 6716  12.902   8.442   8.264
  249POPC   C3B 6717  12.907   8.493   7.964
  249POPC   C4B 6718  12.891   8.493   7.664
  250POPC   NC3 6719   2.791  36.952   9.464
  250POPC   PO4 6720   2.772  36.926   9.164
  250POPC   GL1 6721   2.769  36.855   8.864
  250POPC   GL2 6722   2.779  36.751   8.864
  250POPC   C1A 6723   2.803  36.886   8.564
  250POPC   D2A 6724   2.776  36.920   8.264
  250POPC   C3A 6725   2.811  36.862   7.964
  250POPC   C4A 6726   2.720  36.944   7.664
  250POPC   C1B 6727   2.751  36.668   8.564
  250POPC   C2B 6728   2.774  36.629   8.264
  250POPC   C3B 6729   2.781  36.643   7.964
  250POPC   C4B 6730   2.803  36.633   7.664
  251POPC   NC3 6731  15.981  44.648   9.464
  251POPC   PO4 6732  15.981  44.661   9.164
  251POPC   GL1 6733  15.910  44.615   8.864
  251POPC   GL2 6734  15.970  44.816   8.864
  251POPC   C1A 6735  15.935  44.639   8.564
  251POPC   D2A 6736  15.915  44.648   8.264
  251POPC   C3A 6737  15.910  44.708   7.964
  251POPC   C4A 6738  15.956  44.684   7.664
  251POPC   C1B 6739  15.898  44.886   8.564
  251POPC   C2B 6740  15.958  44.876   8.264
  251POPC   C3B 6741  15.898  44.922   7.964
  251POPC   C4B 6742  15.985  44.900   7.664
  252POPC   NC3 6743   5.117  16.739   9.464
  252POPC   PO4 6744   5.131  16.729   9.164
  252POPC   GL1 6745   5.142  16.764   8.864
  252POPC   GL2 6746   5.203  16.867   8.864
  252POPC   C1A 6747   5.092  16.695   8.564
  252POPC   D2A 6748   5.106  16.684   8.264
  252POPC   C3A 6749   5.129  16.749   7.964
  252POPC   C4A 6750   5.140  16.776   7.664
  252POPC   C1B 6751   5.236  16.934   8.564
  252POPC   C2B 6752   5.210  16.918   8.264
  252POPC   C3B 6753   5.242  16.944   7.964
  252POPC   C4B 6754   5.264  16.939   7.664
  253POPC   NC3 6755  27.623   5.900   9.464
  253POPC   PO4 6756  27.589   5.866   9.164
  253POPC   GL1 6757  27.562   5.867   8.864
  253POPC   GL2 6758  27.547   5.702   8.864
  253POPC   C1A 6759  27.568   5.875   8.564
  253POPC   D2A 6760  27.569   5.874   8.264
  253POPC   C3A 6761  27.623   5.867   7.964
  253POPC   C4A 6762  27.607   5.894   7.664
  253POPC   C1B 6763  27.606   5.572   8.564
  253POPC   C2B 6764  27.538   5.664   8.264
  253POPC   C3B 6765  27.612   5.583   7.964
  253POPC   C4B 6766  27.613   5.592   7.664
  254POPC   NC3 6767  29.166  40.757   9.464
  254POPC   PO4 6768  29.153  40.809   9.164
  254POPC   GL1 6769  29.102  40.763   8.864
  254POPC   GL2 6770  29.304  40.818   8.864
  254POPC   C1A 6771  29.132  40.781   8.564
  254POPC   D2A 6772  29.132  40.775   8.264
  254POPC   C3A 6773  29.106  40.803   7.964
  254POPC   C4A 6774  29.193  40.760   7.664
  254POPC   C1B 6775  29.395  40.865   8.564
  254POPC   C2B 6776  29.381  40.911   8.264
  254POPC   C3B 6777  29.354  40.840   7.964
  254POPC   C4B 6778  29.407  40.885   7.664
  255POPC   NC3 6779  17.513  11.284   9.464
  255POPC   PO4 6780  17.482  11.304   9.164
  255POPC   GL1 6781  17.554  11.270   8.864
  255POPC   GL2 6782  17.550  11.220   8.864
  255POPC   C1A 6783  17.537  11.328   8.564
  255POPC   D2A 6784  17.520  11.321   8.264
  255POPC   C3A 6785  17.485  11.289   7.964
  255POPC   C4A 6786  17.501  11.307   7.664
  255POPC   C1B 6787  17.588  11.067   8.564
  255POPC   C2B 6788  17.594  11.031   8.264
  255POPC   C3B 6789  17.633  11.063   7.964
  255POPC   C4B 6790  17.668  11.041   7.664
  256POPC   NC3 6791  28.340  34.565   9.464
  256POPC   PO4 6792  28.331  34.569   9.164
  256POPC   GL1 6793  28.406  34.612   8.864
  256POPC   GL2 6794  28.530  34.619   8.864
  256POPC   C1A 6795  28.371  34.572   8.564
  256POPC   D2A 6796  28.364  34.530   8.264
  256POPC   C3A 6797  28.410  34.553   7.964
  256POPC   C4A 6798  28.380  34.619   7.664
  256POPC   C1B 6799  28.617  34.647   8.564
  256POPC   C2B 6800  28.615  34.592   8.264
  256POPC   C3B 6801  28.635  34.613   7.964
  256POPC   C4B 6802  28.617  34.652   7.664
  257POPC   NC3 6803   8.954   6.682   9.464
  257POPC   PO4 6804   8.955   6.647   9.164
  257POPC   GL1 6805   8.973   6.651   8.864
  257POPC   GL2 6806   9.108   6.561   8.864
  257POPC   C1A 6807   8.937   6.683   8.564
  257POPC   D2A 6808   8.967   6.648   8.264
  257POPC   C3A 6809   8.999   6.664   7.964
  257POPC   C4A 6810   8.991   6.644   7.664
  257POPC   C1B 6811   9.145   6.431   8.564
  257POPC   C2B 6812   9.175   6.501   8.264
  257POPC   C3B 6813   9.133   6.527   7.964
  257POPC   C4B 6814   9.131   6.484   7.664
  258POPC   NC3 6815  39.209  15.969   9.464
  258POPC   PO4 6816  39.201  15.931   9.164
  258POPC   GL1 6817  39.226  15.921   8.864
  258POPC   GL2 6818  39.227  15.818   8.864
  258POPC   C1A 6819  39.218  15.940   8.564
  258POPC   D2A 6820  39.184  15.988   8.264
  258POPC   C3A 6821  39.218  15.932   7.964
  258POPC   C4A 6822  39.203  15.976   7.664
  258POPC   C1B 6823  39.294  15.724   8.564
  258POPC   C2B 6824  39.264  15.710   8.264
  258POPC   C3B 6825  39.263  15.671   7.964
  258POPC   C4B 6826  39.270  15.688   7.664
  259POPC   NC3 6827  43.129  18.239   9.464
  259POPC   PO4 6828  43.075  18.302   9.164
  259POPC   GL1 6829  43.111  18.246   8.864
  259POPC   GL2 6830  43.114  18.426   8.864
  259POPC   C1A 6831  43.099  18.286   8.564
  259POPC   D2A 6832  43.105  18.283   8.264
  259POPC   C3A 6833  43.141  18.315   7.964
  259POPC   C4A 6834  43.139  18.258   7.664
  259POPC   C1B 6835  43.131  18.492   8.564
  259POPC   C2B 6836  43.115  18.540   8.264
  259POPC   C3B 6837  43.107  18.549   7.964
  259POPC   C4B 6838  43.103  18.546   7.664
  260POPC   NC3 6839  33.776  15.221   9.464
  260POPC   PO4 6840  33.787  15.229   9.164
  260POPC   GL1 6841  33.785  15.167   8.864
  260POPC   GL2 6842  33.774  15.047   8.864
  260POPC   C1A 6843  33.780  15.184   8.564
  260POPC   D2A 6844  33.761  15.135   8.264
  260POPC   C3A 6845  33.793  15.189   7.964
  260POPC   C4A 6846  33.759  15.202   7.664
  260POPC   C1B 6847  33.679  14.929   8.564
  260POPC   C2B 6848  33.651  14.943   8.264
  260POPC   C3B 6849  33.641  14.986   7.964
  260POPC   C4B 6850  33.696  14.938   7.664
  261POPC   NC3 6851   1.263  23.718   9.464
  261POPC   PO4 6852   1.220  23.736   9.164
  261POPC   GL1 6853   1.168  23.720   8.864
  261POPC   GL2 6854   1.076  23.689   8.864
  261POPC   C1A 6855   1.221  23.735   8.564
  261POPC   D2A 6856   1.214  23.754   8.264
  261POPC   C3A 6857   1.241  23.687   7.964
  261POPC   C4A 6858   1.197  23.755   7.664
  261POPC   C1B 6859   0.945  23.647   8.564
  261POPC   C2B 6860   0.987  23.693   8.264
  261POPC   C3B 6861   0.932  23.642   7.964
  261POPC   C4B 6862   0.979  23.691   7.664
  262POPC   NC3 6863   1.169  38.458   9.464
  262POPC   PO4 6864   1.227  38.495   9.164
  262POPC   GL1 6865   1.240  38.462   8.864
  262POPC   GL2 6866   1.146  38.553   8.864
  262POPC   C1A 6867   1.205  38.435   8.564
  262POPC   D2A 6868   1.188  38.417   8.264
  262POPC   C3A 6869   1.226  38.497   7.964
  262POPC   C4A 6870   1.217  38.496   7.664
  262POPC   C1B 6871   1.034  38.587   8.564
  262POPC   C2B 6872   0.939  38.599   8.264
  262POPC   C3B 6873   1.022  38.518   7.964
  262POPC   C4B 6874   0.976  38.542   7.664
  263POPC   NC3 6875  39.222  12.097   9.464
  263POPC   PO4 6876  39.193  12.036   9.164
  263POPC   GL1 6877  39.182  12.114   8.864
  263POPC   GL2 6878  39.114  12.012   8.864
  263POPC   C1A 6879  39.196  12.077   8.564
  263POPC   D2A 6880  39.237  12.062   8.264
  263POPC   C3A 6881  39.244  12.122   7.964
  263POPC   C4A 6882  39.189  12.088   7.664
  263POPC   C1B 6883  38.982  12.017   8.564
  263POPC   C2B 6884  39.014  11.973   8.264
  263POPC   C3B 6885  39.018  12.044   7.964
  263POPC   C4B 6886  38.977  12.007   7.664
  264POPC   NC3 6887   3.495   5.893   9.464
  264POPC   PO4 6888   3.507   5.849   9.164
  264POPC   GL1 6889   3.503   5.849   8.864
  264POPC   GL2 6890   3.482   5.802   8.864
  264POPC   C1A 6891   3.493   5.885   8.564
  264POPC   D2A 6892   3.512   5.914   8.264
  264POPC   C3A 6893   3.519   5.875   7.964
  264POPC   C4A 6894   3.545   5.835   7.664
  264POPC   C1B 6895   3.354   5.704   8.564
  264POPC   C2B 6896   3.414   5.677   8.264
  264POPC   C3B 6897   3.341   5.726   7.964
  264POPC   C4B 6898   3.390   5.668   7.664
  265POPC   NC3 6899  33.775  34.540   9.464
  265POPC   PO4 6900  33.829  34.563   9.164
  265POPC   GL1 6901  33.830  34.614   8.864
  265POPC   GL2 6902  33.742  34.650   8.864
  265POPC   C1A 6903  33.841  34.601   8.564
  265POPC   D2A 6904  33.820  34.589   8.264
  265POPC   C3A 6905  33.795  34.532   7.964
  265POPC   C4A 6906  33.771  34.584   7.664
  265POPC   C1B 6907  33.552  34.693   8.564
  265POPC   C2B 6908  33.629  34.716   8.264
  265POPC   C3B 6909  33.551  34.709   7.964
  265POPC   C4B 6910  33.591  34.691   7.664
  266POPC   NC3 6911  23.759   8.213   9.464
  266POPC   PO4 6912  23.751   8.172   9.164
  266POPC   GL1 6913  23.692   8.154   8.864
  266POPC   GL2 6914  23.636   8.256   8.864
  266POPC   C1A 6915  23.686   8.241   8.564
  266POPC   D2A 6916  23.695   8.216   8.264
  266POPC   C3A 6917  23.696   8.159   7.964
  266POPC   C4A 6918  23.671   8.225   7.664
  266POPC   C1B 6919  23.459   8.209   8.564
  266POPC   C2B 6920  23.450   8.245   8.264
  266POPC   C3B 6921  23.452   8.249   7.964
  266POPC   C4B 6922  23.424   8.248   7.664
  267POPC   NC3 6923  40.758  29.971   9.464
  267POPC   PO4 6924  40.807  29.887   9.164
  267POPC   GL1 6925  40.754  29.957   8.864
  267POPC   GL2 6926  40.872  29.909   8.864
  267POPC   C1A 6927  40.811  29.892   8.564
  267POPC   D2A 6928  40.740  29.941   8.264
  267POPC   C3A 6929  40.803  29.932   7.964
  267POPC   C4A 6930  40.790  29.937   7.664
  267POPC   C1B 6931  41.045  29.843   8.564
  267POPC   C2B 6932  41.013  29.903   8.264
  267POPC   C3B 6933  40.988  29.818   7.964
  267POPC   C4B 6934  41.001  29.869   7.664
  268POPC   NC3 6935  33.068   5.876   9.464
  268POPC   PO4 6936  33.037   5.890   9.164
  268POPC   GL1 6937  33.042   5.905   8.864
  268POPC   GL2 6938  33.114   5.896   8.864
  268POPC   C1A 6939  32.999   5.884   8.564
  268POPC   D2A 6940  32.981   5.853   8.264
  268POPC   C3A 6941  33.061   5.849   7.964
  268POPC   C4A 6942  33.044   5.881   7.664
  268POPC   C1B 6943  33.265   6.034   8.564
  268POPC   C2B 6944  33.266   5.978   8.264
  268POPC   C3B 6945  33.232   6.003   7.964
  268POPC   C4B 6946  33.270   6.019   7.664
  269POPC   NC3 6947  24.441   5.893   9.464
  269POPC   PO4 6948  24.453   5.834   9.164
  269POPC   GL1 6949  24.508   5.853   8.864
  269POPC   GL2 6950  24.409   5.931   8.864
  269POPC   C1A 6951  24.498   5.906   8.564
  269POPC   D2A 6952  24.501   5.870   8.264
  269POPC   C3A 6953  24.497   5.909   7.964
  269POPC   C4A 6954  24.532   5.891   7.664
  269POPC   C1B 6955  24.323   6.045   8.564
  269POPC   C2B 6956  24.298   6.043   8.264
  269POPC   C3B 6957  24.322   6.025   7.964
  269POPC   C4B 6958  24.317   6.029   7.664
  270POPC   NC3 6959   4.336  39.204   9.464
  270POPC   PO4 6960   4.297  39.219   9.164
  270POPC   GL1 6961   4.366  39.204   8.864
  270POPC   GL2 6962   4.321  39.061   8.864
  270POPC   C1A 6963   4.349  39.242   8.564
  270POPC   D2A 6964   4.302  39.251   8.264
  270POPC   C3A 6965   4.305  39.237   7.964
  270POPC   C4A 6966   4.348  39.191   7.664
  270POPC   C1B 6967   4.290  38.970   8.564
  270POPC   C2B 6968   4.224  38.978   8.264
  270POPC   C3B 6969   4.301  38.976   7.964
  270POPC   C4B 6970   4.303  39.013   7.664
  271POPC   NC3 6971  39.195  14.446   9.464
  271POPC   PO4 6972  39.255  14.434   9.164
  271POPC   GL1 6973  39.243  14.362   8.864
  271POPC   GL2 6974  39.203  14.564   8.864
  271POPC   C1A 6975  39.181  14.428   8.564
  271POPC   D2A 6976  39.210  14.447   8.264
  271POPC   C3A 6977  39.184  14.398   7.964
  271POPC   C4A 6978  39.255  14.426   7.664
  271POPC   C1B 6979  39.202  14.605   8.564
  271POPC   C2B 6980  39.196  14.636   8.264
  271POPC   C3B 6981  39.196  14.686   7.964
  271POPC   C4B 6982  39.176  14.631   7.664
  272POPC   NC3 6983  22.984  29.876   9.464
  272POPC   PO4 6984  22.942  29.924   9.164
  272POPC   GL1 6985  22.889  29.968   8.864
  272POPC   GL2 6986  23.056  29.988   8.864
  272POPC   C1A 6987  22.967  29.898   8.564
  272POPC   D2A 6988  22.902  29.952   8.264
  272POPC   C3A 6989  22.944  29.875   7.964
  272POPC   C4A 6990  22.934  29.908   7.664
  272POPC   C1B 6991  23.134  30.141   8.564
  272POPC   C2B 6992  23.072  30.136   8.264
  272POPC   C3B 6993  23.063  30.142   7.964
  272POPC   C4B 6994  23.100  30.119   7.664
  273POPC   NC3 6995  22.897  41.596   9.464
  273POPC   PO4 6996  22.941  41.562   9.164
  273POPC   GL1 6997  22.975  41.580   8.864
  273POPC   GL2 6998  22.828  41.535   8.864
  273POPC   C1A 6999  22.939  41.587   8.564
  273POPC   D2A 7000  22.906  41.550   8.264
  273POPC   C3A 7001  22.971  41.552   7.964
  273POPC   C4A 7002  22.932  41.547   7.664
  273POPC   C1B 7003  22.751  41.406   8.564
  273POPC   C2B 7004  22.755  41.417   8.264
  273POPC   C3B 7005  22.682  41.465   7.964
  273POPC   C4B 7006  22.700  41.462   7.664
  274POPC   NC3 7007  31.478   3.499   9.464
  274POPC   PO4 7008  31.518   3.495   9.164
  274POPC   GL1 7009  31.426   3.582   8.864
  274POPC   GL2 7010  31.319   3.651   8.864
  274POPC   C1A 7011  31.484   3.552   8.564
  274POPC   D2A 7012  31.499   3.580   8.264
  274POPC   C3A 7013  31.505   3.538   7.964
  274POPC   C4A 7014  31.425   3.494   7.664
  274POPC   C1B 7015  31.265   3.651   8.564
  274POPC   C2B 7016  31.309   3.712   8.264
  274POPC   C3B 7017  31.247   3.696   7.964
  274POPC   C4B 7018  31.272   3.683   7.664
  275POPC   NC3 7019   8.244   9.748   9.464
  275POPC   PO4 7020   8.233   9.782   9.164
  275POPC   GL1 7021   8.195   9.729   8.864
  275POPC   GL2 7022   8.065   9.729   8.864
  275POPC   C1A 7023   8.177   9.771   8.564
  275POPC   D2A 7024   8.241   9.784   8.264
  275POPC   C3A 7025   8.199   9.744   7.964
  275POPC   C4A 7026   8.221   9.776   7.664
  275POPC   C1B 7027   7.957   9.713   8.564
  275POPC   C2B 7028   7.963   9.639   8.264
  275POPC   C3B 7029   7.923   9.643   7.964
  275POPC   C4B 7030   8.001   9.708   7.664
  276POPC   NC3 7031  11.319  18.317   9.464
  276POPC   PO4 7032  11.314  18.321   9.164
  276POPC   GL1 7033  11.313  18.311   8.864
  276POPC   GL2 7034  11.176  18.306   8.864
  276POPC   C1A 7035  11.259  18.271   8.564
  276POPC   D2A 7036  11.271  18.333   8.264
  276POPC   C3A 7037  11.290  18.285   7.964
  276POPC   C4A 7038  11.259  18.302   7.664
  276POPC   C1B 7039  11.097  18.425   8.564
  276POPC   C2B 7040  11.062  18.445   8.264
  276POPC   C3B 7041  11.076  18.384   7.964
  276POPC   C4B 7042  11.097  18.440   7.664
  277POPC   NC3 7043   6.600  18.332   9.464
  277POPC   PO4 7044   6.606  18.269   9.164
  277POPC   GL1 7045   6.604  18.314   8.864
  277POPC   GL2 7046   6.599  18.153   8.864
  277POPC   C1A 7047   6.618  18.275   8.564
  277POPC   D2A 7048   6.644  18.290   8.264
  277POPC   C3A 7049   6.605  18.285   7.964
  277POPC   C4A 7050   6.692  18.273   7.664
  277POPC   C1B 7051   6.565  18.074   8.564
  277POPC   C2B 7052   6.579  18.050   8.264
  277POPC   C3B 7053   6.571  18.084   7.964
  277POPC   C4B 7054   6.583  18.033   7.664
  278POPC   NC3 7055  33.809  12.121   9.464
  278POPC   PO4 7056  33.846  12.081   9.164
  278POPC   GL1 7057  33.804  12.063   8.864
  278POPC   GL2 7058  33.745  12.138   8.864
  278POPC   C1A 7059  33.759  12.086   8.564
  278POPC   D2A 7060  33.797  12.094   8.264
  278POPC   C3A 7061  33.834  12.065   7.964
  278POPC   C4A 7062  33.776  12.117   7.664
  278POPC   C1B 7063  33.638  12.238   8.564
  278POPC   C2B 7064  33.596  12.213   8.264
  278POPC   C3B 7065  33.549  12.271   7.964
  278POPC   C4B 7066  33.565  12.254   7.664
  279POPC   NC3 7067  26.854  32.225   9.464
  279POPC   PO4 7068  26.839  32.287   9.164
  279POPC   GL1 7069  26.769  32.245   8.864
  279POPC   GL2 7070  26.855  32.101   8.864
  279POPC   C1A 7071  26.830  32.292   8.564
  279POPC   D2A 7072  26.839  32.258   8.264
  279POPC   C3A 7073  26.794  32.212   7.964
  279POPC   C4A 7074  26.803  32.205   7.664
  279POPC   C1B 7075  26.878  32.045   8.564
  279POPC   C2B 7076  26.807  32.017   8.264
  279POPC   C3B 7077  26.883  31.994   7.964
  279POPC   C4B 7078  26.846  32.044   7.664
  280POPC   NC3 7079   3.588   5.082   9.464
  280POPC   PO4 7080   3.539   5.088   9.164
  280POPC   GL1 7081   3.508   5.074   8.864
  280POPC   GL2 7082   3.632   5.069   8.864
  280POPC   C1A 7083   3.522   5.068   8.564
  280POPC   D2A 7084   3.534   5.098   8.264
  280POPC   C3A 7085   3.541   5.089   7.964
  280POPC   C4A 7086   3.522   5.087   7.664
  280POPC   C1B 7087   3.770   5.004   8.564
  280POPC   C2B 7088   3.769   5.045   8.264
  280POPC   C3B 7089   3.745   5.067   7.964
  280POPC   C4B 7090   3.765   5.093   7.664
  281POPC   NC3 7091   7.444  14.441   9.464
  281POPC   PO4 7092   7.424  14.383   9.164
  281POPC   GL1 7093   7.461  14.391   8.864
  281POPC   GL2 7094   7.406  14.265   8.864
  281POPC   C1A 7095   7.443  14.398   8.564
  281POPC   D2A 7096   7.387  14.401   8.264
  281POPC   C3A 7097   7.398  14.393   7.964
  281POPC   C4A 7098   7.460  14.451   7.664
  281POPC   C1B 7099   7.465  14.131   8.564
  281POPC   C2B 7100   7.466  14.106   8.264
  281POPC   C3B 7101   7.391  14.135   7.964
  281POPC   C4B 7102   7.441  14.137   7.664
  282POPC   NC3 7103  20.656  42.383   9.464
  282POPC   PO4 7104  20.619  42.343   9.164
  282POPC   GL1 7105  20.579  42.319   8.864
  282POPC   GL2 7106  20.478  42.226   8.864
  282POPC   C1A 7107  20.565  42.290   8.564
  282POPC   D2A 7108  20.640  42.354   8.264
  282POPC   C3A 7109  20.599  42.319   7.964
  282POPC   C4A 7110  20.573  42.343   7.664
  282POPC   C1B 7111  20.357  42.172   8.564
  282POPC   C2B 7112  20.403  42.156   8.264
  282POPC   C3B 7113  20.432  42.251   7.964
  282POPC   C4B 7114  20.415  42.221   7.664
  283POPC   NC3 7115   8.233  22.984   9.464
  283POPC   PO4 7116   8.171  22.978   9.164
  283POPC   GL1 7117   8.186  22.915   8.864
  283POPC   GL2 7118   8.242  22.875   8.864
  283POPC   C1A 7119   8.228  22.953   8.564
  283POPC   D2A 7120   8.205  22.967   8.264
  283POPC   C3A 7121   8.207  22.901   7.964
  283POPC   C4A 7122   8.240  22.972   7.664
  283POPC   C1B 7123   8.372  22.705   8.564
  283POPC   C2B 7124   8.287  22.691   8.264
  283POPC   C3B 7125   8.287  22.682   7.964
  283POPC   C4B 7126   8.350  22.702   7.664
  284POPC   NC3 7127   9.797  12.065   9.464
  284POPC   PO4 7128   9.742  12.087   9.164
  284POPC   GL1 7129   9.699  12.063   8.864
  284POPC   GL2 7130   9.756  11.935   8.864
  284POPC   C1A 7131   9.701  12.094   8.564
  284POPC   D2A 7132   9.714  12.074   8.264
  284POPC   C3A 7133   9.726  12.043   7.964
  284POPC   C4A 7134   9.730  12.033   7.664
  284POPC   C1B 7135   9.699  11.856   8.564
  284POPC   C2B 7136   9.669  11.801   8.264
  284POPC   C3B 7137   9.666  11.882   7.964
  284POPC   C4B 7138   9.684  11.867   7.664
  285POPC   NC3 7139   5.888  19.798   9.464
  285POPC   PO4 7140   5.872  19.799   9.164
  285POPC   GL1 7141   5.906  19.840   8.864
  285POPC   GL2 7142   5.904  19.972   8.864
  285POPC   C1A 7143   5.858  19.858   8.564
  285POPC   D2A 7144   5.868  19.810   8.264
  285POPC   C3A 7145   5.883  19.815   7.964
  285POPC   C4A 7146   5.868  19.830   7.664
  285POPC   C1B 7147   5.972  20.069   8.564
  285POPC   C2B 7148   5.986  20.101   8.264
  285POPC   C3B 7149   6.011  20.012   7.964
  285POPC   C4B 7150   5.932  20.088   7.664
  286POPC   NC3 7151  34.561   4.304   9.464
  286POPC   PO4 7152  34.596   4.346   9.164
  286POPC   GL1 7153  34.597   4.316   8.864
  286POPC   GL2 7154  34.570   4.396   8.864
  286POPC   C1A 7155  34.619   4.293   8.564
  286POPC   D2A 7156  34.566   4.315   8.264
  286POPC   C3A 7157  34.540   4.320   7.964
  286POPC   C4A 7158  34.597   4.277   7.664
  286POPC   C1B 7159  34.458   4.537   8.564
  286POPC   C2B 7160  34.441   4.514   8.264
  286POPC   C3B 7161  34.443   4.562   7.964
  286POPC   C4B 7162  34.468   4.566   7.664
  287POPC   NC3 7163  21.355  40.833   9.464
  287POPC   PO4 7164  21.403  40.783   9.164
  287POPC   GL1 7165  21.371  40.742   8.864
  287POPC   GL2 7166  21.519  40.755   8.864
  287POPC   C1A 7167  21.378  40.798   8.564
  287POPC   D2A 7168  21.371  40.791   8.264
  287POPC   C3A 7169  21.429  40.824   7.964
  287POPC   C4A 7170  21.397  40.737   7.664
  287POPC   C1B 7171  21.626  40.714   8.564
  287POPC   C2B 7172  21.676  40.728   8.264
  287POPC   C3B 7173  21.667  40.744   7.964
  287POPC   C4B 7174  21.635  40.716   7.664
  288POPC   NC3 7175  41.535  25.277   9.464
  288POPC   PO4 7176  41.571  25.264   9.164
  288POPC   GL1 7177  41.567  25.227   8.864
  288POPC   GL2 7178  41.666  25.371   8.864
  288POPC   C1A 7179  41.527  25.221   8.564
  288POPC   D2A 7180  41.579  25.285   8.264
  288POPC   C3A 7181  41.581  25.304   7.964
  288POPC   C4A 7182  41.565  25.310   7.664
  288POPC   C1B 7183  41.781  25.425   8.564
  288POPC   C2B 7184  41.793  25.409   8.264
  288POPC   C3B 7185  41.729  25.439   7.964
  288POPC   C4B 7186  41.794  25.385   7.664
  289POPC   NC3 7187  24.516  13.589   9.464
  289POPC   PO4 7188  24.458  13.665   9.164
  289POPC   GL1 7189  24.441  13.629   8.864
  289POPC   GL2 7190  24.350  13.662   8.864
  289POPC   C1A 7191  24.497  13.663   8.564
  289POPC   D2A 7192  24.487  13.672   8.264
  289POPC   C3A 7193  24.483  13.592   7.964
  289POPC   C4A 7194  24.486  13.627   7.664
  289POPC   C1B 7195  24.203  13.627   8.564
  289POPC   C2B 7196  24.211  13.626   8.264
  289POPC   C3B 7197  24.270  13.609   7.964
  289POPC   C4B 7198  24.275  13.590   7.664
  290POPC   NC3 7199   2.753  20.572   9.464
  290POPC   PO4 7200   2.734  20.564   9.164
  290POPC   GL1 7201   2.741  20.639   8.864
  290POPC   GL2 7202   2.648  20.471   8.864
  290POPC   C1A 7203   2.742  20.637   8.564
  290POPC   D2A 7204   2.717  20.623   8.264
  290POPC   C3A 7205   2.725  20.597   7.964
  290POPC   C4A 7206   2.756  20.563   7.664
  290POPC   C1B 7207   2.640  20.391   8.564
  290POPC   C2B 7208   2.581  20.451   8.264
  290POPC   C3B 7209   2.580  20.414   7.964
  290POPC   C4B 7210   2.619  20.378   7.664
  291POPC   NC3 7211   3.520  12.123   9.464
  291POPC   PO4 7212   3.498  12.041   9.164
  291POPC   GL1 7213   3.569  12.051   8.864
  291POPC   GL2 7214   3.482  11.980   8.864
  291POPC   C1A 7215   3.530  12.093   8.564
  291POPC   D2A 7216   3.573  12.116   8.264
  291POPC   C3A 7217   3.588  12.120   7.964
  291POPC   C4A 7218   3.559  12.111   7.664
  291POPC   C1B 7219   3.313  11.898   8.564
  291POPC   C2B 7220   3.326  11.876   8.264
  291POPC   C3B 7221   3.397  11.887   7.964
  291POPC   C4B 7222   3.354  11.914   7.664
  292POPC   NC3 7223  27.612  21.361   9.464
  292POPC   PO4 7224  27.637  21.344   9.164
  292POPC   GL1 7225  27.642  21.379   8.864
  292POPC   GL2 7226  27.502  21.481   8.864
  292POPC   C1A 7227  27.588  21.412   8.564
  292POPC   D2A 7228  27.600  21.404   8.264
  292POPC   C3A 7229  27.570  21.344   7.964
  292POPC   C4A 7230  27.621  21.342   7.664
  292POPC   C1B 7231  27.442  21.575   8.564
  292POPC   C2B 7232  27.407  21.553   8.264
  292POPC   C3B 7233  27.462  21.614   7.964
  292POPC   C4B 7234  27.462  21.608   7.664
  293POPC   NC3 7235  21.382  37.692   9.464
  293POPC   PO4 7236  21.342  37.716   9.164
  293POPC   GL1 7237  21.356  37.684   8.864
  293POPC   GL2 7238  21.392  37.805   8.864
  293POPC   C1A 7239  21.378  37.674   8.564
  293POPC   D2A 7240  21.433  37.693   8.264
  293POPC   C3A 7241  21.363  37.701   7.964
  293POPC   C4A 7242  21.365  37.656   7.664
  293POPC   C1B 7243  21.308  37.930   8.564
  293POPC   C2B 7244  21.355  37.894   8.264
  293POPC   C3B 7245  21.374  37.970   7.964
  293POPC   C4B 7246  21.356  37.917   7.664
  294POPC   NC3 7247   7.380   2.011   9.464
  294POPC   PO4 7248   7.399   1.950   9.164
  294POPC   GL1 7249   7.447   2.004   8.864
  294POPC   GL2 7250   7.552   2.063   8.864
  294POPC   C1A 7251   7.470   1.976   8.564
  294POPC   D2A 7252   7.394   2.008   8.264
  294POPC   C3A 7253   7.414   1.977   7.964
  294POPC   C4A 7254   7.400   1.969   7.664
  294POPC   C1B 7255   7.676   2.067   8.564
  294POPC   C2B 7256   7.665   2.029   8.264
  294POPC   C3B 7257   7.632   2.038   7.964
  294POPC   C4B 7258   7.669   2.064   7.664
  295POPC   NC3 7259  16.714  32.243   9.464
  295POPC   PO4 7260  16.735  32.258   9.164
  295POPC   GL1 7261  16.775  32.270   8.864
  295POPC   GL2 7262  16.893  32.292   8.864
  295POPC   C1A 7263  16.692  32.217   8.564
  295POPC   D2A 7264  16.692  32.256   8.264
  295POPC   C3A 7265  16.716  32.271   7.964
  295POPC   C4A 7266  16.719  32.222   7.664
  295POPC   C1B 7267  16.967  32.220   8.564
  295POPC   C2B 7268  17.002  32.236   8.264
  295POPC   C3B 7269  16.989  32.274   7.964
  295POPC   C4B 7270  17.016  32.222   7.664
  296POPC   NC3 7271  19.073  15.143   9.464
  296POPC   PO4 7272  19.066  15.215   9.164
  296POPC   GL1 7273  19.053  15.211   8.864
  296POPC   GL2 7274  18.932  15.072   8.864
  296POPC   C1A 7275  19.030  15.178   8.564
  296POPC   D2A 7276  19.087  15.157   8.264
  296POPC   C3A 7277  19.082  15.213   7.964
  296POPC   C4A 7278  19.028  15.189   7.664
  296POPC   C1B 7279  18.814  15.003   8.564
  296POPC   C2B 7280  18.802  15.008   8.264
  296POPC   C3B 7281  18.858  15.093   7.964
  296POPC   C4B 7282  18.798  15.009   7.664
  297POPC   NC3 7283  20.626  37.649   9.464
  297POPC   PO4 7284  20.563  37.679   9.164
  297POPC   GL1 7285  20.654  37.682   8.864
  297POPC   GL2 7286  20.627  37.591   8.864
  297POPC   C1A 7287  20.642  37.726   8.564
  297POPC   D2A 7288  20.638  37.689   8.264
  297POPC   C3A 7289  20.623  37.668   7.964
  297POPC   C4A 7290  20.611  37.674   7.664
  297POPC   C1B 7291  20.661  37.458   8.564
  297POPC   C2B 7292  20.626  37.450   8.264
  297POPC   C3B 7293  20.600  37.409   7.964
  297POPC   C4B 7294  20.656  37.401   7.664
  298POPC   NC3 7295  29.888   5.876   9.464
  298POPC   PO4 7296  29.893   5.881   9.164
  298POPC   GL1 7297  29.884   5.847   8.864
  298POPC   GL2 7298  30.083   5.817   8.864
  298POPC   C1A 7299  29.904   5.858   8.564
  298POPC   D2A 7300  29.941   5.844   8.264
  298POPC   C3A 7301  29.911   5.888   7.964
  298POPC   C4A 7302  29.901   5.910   7.664
  298POPC   C1B 7303  30.124   5.728   8.564
  298POPC   C2B 7304  30.183   5.728   8.264
  298POPC   C3B 7305  30.145   5.763   7.964
  298POPC   C4B 7306  30.191   5.782   7.664
  299POPC   NC3 7307  32.249  15.203   9.464
  299POPC   PO4 7308  32.221  15.213   9.164
  299POPC   GL1 7309  32.279  15.192   8.864
  299POPC   GL2 7310  32.117  15.135   8.864
  299POPC   C1A 7311  32.226  15.146   8.564
  299POPC   D2A 7312  32.241  15.193   8.264
  299POPC   C3A 7313  32.297  15.190   7.964
  299POPC   C4A 7314  32.217  15.183   7.664
  299POPC   C1B 7315  32.062  15.011   8.564
  299POPC   C2B 7316  31.997  15.066   8.264
  299POPC   C3B 7317  31.984  15.060   7.964
  299POPC   C4B 7318  31.989  15.078   7.664
  300POPC   NC3 7319  29.894  20.602   9.464
  300POPC   PO4 7320  29.903  20.641   9.164
  300POPC   GL1 7321  29.925  20.617   8.864
  300POPC   GL2 7322  29.879  20.502   8.864
  300POPC   C1A 7323  29.948  20.580   8.564
  300POPC   D2A 7324  29.919  20.597   8.264
  300POPC   C3A 7325  29.900  20.607   7.964
  300POPC   C4A 7326  29.934  20.584   7.664
  300POPC   C1B 7327  29.871  20.359   8.564
  300POPC   C2B 7328  29.885  20.322   8.264
  300POPC   C3B 7329  29.842  20.364   7.964
  300POPC   C4B 7330  29.907  20.358   7.664
  301POPC   NC3 7331  23.700  15.955   9.464
  301POPC   PO4 7332  23.742  15.984   9.164
  301POPC   GL1 7333  23.734  15.980   8.864
  301POPC   GL2 7334  23.782  16.029   8.864
  301POPC   C1A 7335  23.742  15.952   8.564
  301POPC   D2A 7336  23.668  15.921   8.264
  301POPC   C3A 7337  23.726  15.911   7.964
  301POPC   C4A 7338  23.756  15.993   7.664
  301POPC   C1B 7339  23.961  16.120   8.564
  301POPC   C2B 7340  23.961  16.116   8.264
  301POPC   C3B 7341  23.885  16.093   7.964
  301POPC   C4B 7342  23.921  16.071   7.664
  302POPC   NC3 7343  21.367   4.293   9.464
  302POPC   PO4 7344  21.348   4.286   9.164
  302POPC   GL1 7345  21.356   4.335   8.864
  302POPC   GL2 7346  21.387   4.453   8.864
  302POPC   C1A 7347  21.385   4.323   8.564
  302POPC   D2A 7348  21.367   4.348   8.264
  302POPC   C3A 7349  21.352   4.269   7.964
  302POPC   C4A 7350  21.413   4.299   7.664
  302POPC   C1B 7351  21.371   4.539   8.564
  302POPC   C2B 7352  21.387   4.560   8.264
  302POPC   C3B 7353  21.404   4.566   7.964
  302POPC   C4B 7354  21.399   4.518   7.664
  303POPC   NC3 7355   8.162  24.487   9.464
  303POPC   PO4 7356   8.201  24.448   9.164
  303POPC   GL1 7357   8.203  24.454   8.864
  303POPC   GL2 7358   8.249  24.574   8.864
  303POPC   C1A 7359   8.150  24.471   8.564
  303POPC   D2A 7360   8.204  24.505   8.264
  303POPC   C3A 7361   8.245  24.537   7.964
  303POPC   C4A 7362   8.178  24.508   7.664
  303POPC   C1B 7363   8.339  24.754   8.564
  303POPC   C2B 7364   8.335  24.749   8.264
  303POPC   C3B 7365   8.350  24.751   7.964
  303POPC   C4B 7366   8.341  24.692   7.664
  304POPC   NC3 7367  30.705   6.671   9.464
  304POPC   PO4 7368  30.715   6.656   9.164
  304POPC   GL1 7369  30.667   6.684   8.864
  304POPC   GL2 7370  30.578   6.693   8.864
  304POPC   C1A 7371  30.699   6.624   8.564
  304POPC   D2A 7372  30.743   6.637   8.264
  304POPC   C3A 7373  30.729   6.665   7.964
  304POPC   C4A 7374  30.721   6.663   7.664
  304POPC   C1B 7375  30.423   6.723   8.564
  304POPC   C2B 7376  30.499   6.721   8.264
  304POPC   C3B 7377  30.492   6.692   7.964
  304POPC   C4B 7378  30.442   6.728   7.664
  305POPC   NC3 7379   9.764  25.253   9.464
  305POPC   PO4 7380   9.766  25.304   9.164
  305POPC   GL1 7381   9.768  25.248   8.864
  305POPC   GL2 7382   9.835  25.293   8.864
  305POPC   C1A 7383   9.749  25.243   8.564
  305POPC   D2A 7384   9.779  25.305   8.264
  305POPC   C3A 7385   9.772  25.282   7.964
  305POPC   C4A 7386   9.707  25.284   7.664
  305POPC   C1B 7387   9.958  25.220   8.564
  305POPC   C2B 7388   9.994  25.242   8.264
  305POPC   C3B 7389  10.043  25.260   7.964
  305POPC   C4B 7390   9.966  25.246   7.664
  306POPC   NC3 7391  43.891  23.681   9.464
  306POPC   PO4 7392  43.859  23.680   9.164
  306POPC   GL1 7393  43.934  23.756   8.864
  306POPC   GL2 7394  44.056  23.694   8.864
  306POPC   C1A 7395  43.892  23.719   8.564
  306POPC   D2A 7396  43.878  23.685   8.264
  306POPC   C3A 7397  43.908  23.758   7.964
  306POPC   C4A 7398  43.847  23.726   7.664
  306POPC   C1B 7399  44.130  23.719   8.564
  306POPC   C2B 7400  44.091  23.681   8.264
  306POPC   C3B 7401  44.112  23.705   7.964
  306POPC   C4B 7402  44.106  23.734   7.664
  307POPC   NC3 7403   6.691   1.249   9.464
  307POPC   PO4 7404   6.645   1.171   9.164
  307POPC   GL1 7405   6.651   1.220   8.864
  307POPC   GL2 7406   6.655   1.340   8.864
  307POPC   C1A 7407   6.652   1.212   8.564
  307POPC   D2A 7408   6.624   1.262   8.264
  307POPC   C3A 7409   6.624   1.261   7.964
  307POPC   C4A 7410   6.607   1.187   7.664
  307POPC   C1B 7411   6.541   1.476   8.564
  307POPC   C2B 7412   6.602   1.466   8.264
  307POPC   C3B 7413   6.594   1.418   7.964
  307POPC   C4B 7414   6.612   1.493   7.664
  308POPC   NC3 7415  28.412  10.476   9.464
  308POPC   PO4 7416  28.357  10.547   9.164
  308POPC   GL1 7417  28.333  10.478   8.864
  308POPC   GL2 7418  28.268  10.400   8.864
  308POPC   C1A 7419  28.384  10.538   8.564
  308POPC   D2A 7420  28.390  10.536   8.264
  308POPC   C3A 7421  28.411  10.534   7.964
  308POPC   C4A 7422  28.342  10.476   7.664
  308POPC   C1B 7423  28.200  10.324   8.564
  308POPC   C2B 7424  28.272  10.335   8.264
  308POPC   C3B 7425  28.193  10.323   7.964
  308POPC   C4B 7426  28.278  10.359   7.664
  309POPC   NC3 7427  22.144   8.191   9.464
  309POPC   PO4 7428  22.211   8.170   9.164
  309POPC   GL1 7429  22.124   8.216   8.864
  309POPC   GL2 7430  22.277   8.272   8.864
  309POPC   C1A 7431  22.172   8.224   8.564
  309POPC   D2A 7432  22.152   8.185   8.264
  309POPC   C3A 7433  22.140   8.164   7.964
  309POPC   C4A 7434  22.148   8.230   7.664
  309POPC   C1B 7435  22.289   8.338   8.564
  309POPC   C2B 7436  22.299   8.349   8.264
  309POPC   C3B 7437  22.329   8.404   7.964
  309POPC   C4B 7438  22.355   8.418   7.664
  310POPC   NC3 7439  36.121   4.328   9.464
  310POPC   PO4 7440  36.116   4.268   9.164
  310POPC   GL1 7441  36.084   4.337   8.864
  310POPC   GL2 7442  36.232   4.264   8.864
  310POPC   C1A 7443  36.174   4.299   8.564
  310POPC   D2A 7444  36.097   4.345   8.264
  310POPC   C3A 7445  36.153   4.329   7.964
  310POPC   C4A 7446  36.085   4.268   7.664
  310POPC   C1B 7447  36.365   4.221   8.564
  310POPC   C2B 7448  36.375   4.245   8.264
  310POPC   C3B 7449  36.388   4.251   7.964
  310POPC   C4B 7450  36.353   4.208   7.664
  311POPC   NC3 7451  35.387  22.146   9.464
  311POPC   PO4 7452  35.347  22.168   9.164
  311POPC   GL1 7453  35.389  22.203   8.864
  311POPC   GL2 7454  35.469  22.259   8.864
  311POPC   C1A 7455  35.375  22.123   8.564
  311POPC   D2A 7456  35.361  22.157   8.264
  311POPC   C3A 7457  35.305  22.156   7.964
  311POPC   C4A 7458  35.384  22.129   7.664
  311POPC   C1B 7459  35.553  22.287   8.564
  311POPC   C2B 7460  35.527  22.308   8.264
  311POPC   C3B 7461  35.540  22.315   7.964
  311POPC   C4B 7462  35.598  22.249   7.664
  312POPC   NC3 7463   8.158  11.312   9.464
  312POPC   PO4 7464   8.216  11.331   9.164
  312POPC   GL1 7465   8.157  11.285   8.864
  312POPC   GL2 7466   8.220  11.421   8.864
  312POPC   C1A 7467   8.175  11.271   8.564
  312POPC   D2A 7468   8.227  11.283   8.264
  312POPC   C3A 7469   8.246  11.266   7.964
  312POPC   C4A 7470   8.171  11.328   7.664
  312POPC   C1B 7471   8.245  11.531   8.564
  312POPC   C2B 7472   8.196  11.504   8.264
  312POPC   C3B 7473   8.199  11.538   7.964
  312POPC   C4B 7474   8.277  11.529   7.664
  313POPC   NC3 7475  19.829   9.748   9.464
  313POPC   PO4 7476  19.834   9.706   9.164
  313POPC   GL1 7477  19.802   9.726   8.864
  313POPC   GL2 7478  19.932   9.874   8.864
  313POPC   C1A 7479  19.827   9.758   8.564
  313POPC   D2A 7480  19.867   9.727   8.264
  313POPC   C3A 7481  19.869   9.767   7.964
  313POPC   C4A 7482  19.843   9.763   7.664
  313POPC   C1B 7483  19.985   9.933   8.564
  313POPC   C2B 7484  20.002   9.976   8.264
  313POPC   C3B 7485  20.014   9.983   7.964
  313POPC   C4B 7486  19.938   9.936   7.664
  314POPC   NC3 7487   8.997  37.696   9.464
  314POPC   PO4 7488   8.987  37.679   9.164
  314POPC   GL1 7489   8.953  37.672   8.864
  314POPC   GL2 7490   9.090  37.712   8.864
  314POPC   C1A 7491   8.965  37.684   8.564
  314POPC   D2A 7492   8.970  37.641   8.264
  314POPC   C3A 7493   8.983  37.657   7.964
  314POPC   C4A 7494   9.020  37.660   7.664
  314POPC   C1B 7495   9.236  37.657   8.564
  314POPC   C2B 7496   9.198  37.693   8.264
  314POPC   C3B 7497   9.211  37.708   7.964
  314POPC   C4B 7498   9.256  37.705   7.664
  315POPC   NC3 7499  34.612  35.349   9.464
  315POPC   PO4 7500  34.624  35.304   9.164
  315POPC   GL1 7501  34.549  35.384   8.864
  315POPC   GL2 7502  34.725  35.338   8.864
  315POPC   C1A 7503  34.571  35.345   8.564
  315POPC   D2A 7504  34.587  35.362   8.264
  315POPC   C3A 7505  34.614  35.389   7.964
  315POPC   C4A 7506  34.563  35.306   7.664
  315POPC   C1B 7507  34.759  35.248   8.564
  315POPC   C2B 7508  34.838  35.236   8.264
  315POPC   C3B 7509  34.790  35.273   7.964
  315POPC   C4B 7510  34.798  35.255   7.664
  316POPC   NC3 7511  35.376  15.928   9.464
  316POPC   PO4 7512  35.319  15.948   9.164
  316POPC   GL1 7513  35.394  15.949   8.864
  316POPC   GL2 7514  35.468  16.015   8.864
  316POPC   C1A 7515  35.302  15.936   8.564
  316POPC   D2A 7516  35.381  15.936   8.264
  316POPC   C3A 7517  35.395  15.976   7.964
  316POPC   C4A 7518  35.348  15.976   7.664
  316POPC   C1B 7519  35.562  16.079   8.564
  316POPC   C2B 7520  35.541  16.091   8.264
  316POPC   C3B 7521  35.631  16.070   7.964
  316POPC   C4B 7522  35.577  16.060   7.664
  317POPC   NC3 7523  29.914  19.034   9.464
  317POPC   PO4 7524  29.885  19.048   9.164
  317POPC   GL1 7525  29.949  19.108   8.864
  317POPC   GL2 7526  30.015  19.050   8.864
  317POPC   C1A 7527  29.954  19.048   8.564
  317POPC   D2A 7528  29.899  19.067   8.264
  317POPC   C3A 7529  29.898  19.046   7.964
  317POPC   C4A 7530  29.915  19.054   7.664
  317POPC   C1B 7531  30.152  19.142   8.564
  317POPC   C2B 7532  30.169  19.056   8.264
  317POPC   C3B 7533  30.170  19.048   7.964
  317POPC   C4B 7534  30.214  19.110   7.664
  318POPC   NC3 7535  27.627  16.686   9.464
  318POPC   PO4 7536  27.616  16.709   9.164
  318POPC   GL1 7537  27.616  16.751   8.864
  318POPC   GL2 7538  27.716  16.667   8.864
  318POPC   C1A 7539  27.578  16.701   8.564
  318POPC   D2A 7540  27.577  16.711   8.264
  318POPC   C3A 7541  27.544  16.739   7.964
  318POPC   C4A 7542  27.545  16.682   7.664
  318POPC   C1B 7543  27.781  16.656   8.564
  318POPC   C2B 7544  27.868  16.610   8.264
  318POPC   C3B 7545  27.827  16.606   7.964
  318POPC   C4B 7546  27.822  16.596   7.664
  319POPC   NC3 7547  22.207   9.010   9.464
  319POPC   PO4 7548  22.140   8.932   9.164
  319POPC   GL1 7549  22.183   8.986   8.864
  319POPC   GL2 7550  22.026   8.889   8.864
  319POPC   C1A 7551  22.205   8.937   8.564
  319POPC   D2A 7552  22.197   8.934   8.264
  319POPC   C3A 7553  22.204   9.014   7.964
  319POPC   C4A 7554  22.129   9.013   7.664
  319POPC   C1B 7555  21.966   8.923   8.564
  319POPC   C2B 7556  21.946   8.903   8.264
  319POPC   C3B 7557  21.935   8.840   7.964
  319POPC   C4B 7558  21.930   8.828   7.664
  320POPC   NC3 7559  40.765  41.540   9.464
  320POPC   PO4 7560  40.829  41.531   9.164
  320POPC   GL1 7561  40.774  41.590   8.864
  320POPC   GL2 7562  40.884  41.530   8.864
  320POPC   C1A 7563  40.770  41.528   8.564
  320POPC   D2A 7564  40.764  41.551   8.264
  320POPC   C3A 7565  40.740  41.550   7.964
  320POPC   C4A 7566  40.793  41.544   7.664
  320POPC   C1B 7567  41.025  41.479   8.564
  320POPC   C2B 7568  41.003  41.462   8.264
  320POPC   C3B 7569  41.001  41.527   7.964
  320POPC   C4B 7570  41.025  41.480   7.664
  321POPC   NC3 7571  43.873  38.472   9.464
  321POPC   PO4 7572  43.891  38.429   9.164
  321POPC   GL1 7573  43.854  38.412   8.864
  321POPC   GL2 7574  43.915  38.348   8.864
  321POPC   C1A 7575  43.926  38.471   8.564
  321POPC   D2A 7576  43.837  38.470   8.264
  321POPC   C3A 7577  43.901  38.406   7.964
  321POPC   C4A 7578  43.932  38.436   7.664
  321POPC   C1B 7579  43.996  38.209   8.564
  321POPC   C2B 7580  44.026  38.192   8.264
  321POPC   C3B 7581  44.015  38.230   7.964
  321POPC   C4B 7582  43.943  38.257   7.664
  322POPC   NC3 7583   5.119  29.119   9.464
  322POPC   PO4 7584   5.063  29.125   9.164
  322POPC   GL1 7585   5.052  29.167   8.864
  322POPC   GL2 7586   4.919  29.112   8.864
  322POPC   C1A 7587   5.105  29.175   8.564
  322POPC   D2A 7588   5.089  29.191   8.264
  322POPC   C3A 7589   5.090  29.146   7.964
  322POPC   C4A 7590   5.115  29.195   7.664
  322POPC   C1B 7591   4.858  29.174   8.564
  322POPC   C2B 7592   4.845  29.155   8.264
  322POPC   C3B 7593   4.821  29.084   7.964
  322POPC   C4B 7594   4.854  29.154   7.664
  323POPC   NC3 7595  25.251  37.677   9.464
  323POPC   PO4 7596  25.301  37.679   9.164
  323POPC   GL1 7597  25.315  37.677   8.864
  323POPC   GL2 7598  25.095  37.655   8.864
  323POPC   C1A 7599  25.238  37.673   8.564
  323POPC   D2A 7600  25.251  37.689   8.264
  323POPC   C3A 7601  25.248  37.679   7.964
  323POPC   C4A 7602  25.230  37.677   7.664
  323POPC   C1B 7603  24.977  37.636   8.564
  323POPC   C2B 7604  24.986  37.600   8.264
  323POPC   C3B 7605  24.969  37.678   7.964
  323POPC   C4B 7606  25.031  37.665   7.664
  324POPC   NC3 7607   5.856  23.716   9.464
  324POPC   PO4 7608   5.822  23.738   9.164
  324POPC   GL1 7609   5.830  23.741   8.864
  324POPC   GL2 7610   5.980  23.658   8.864
  324POPC   C1A 7611   5.843  23.712   8.564
  324POPC   D2A 7612   5.905  23.739   8.264
  324POPC   C3A 7613   5.835  23.702   7.964
  324POPC   C4A 7614   5.862  23.683   7.664
  324POPC   C1B 7615   6.028  23.576   8.564
  324POPC   C2B 7616   6.078  23.545   8.264
  324POPC   C3B 7617   6.028  23.527   7.964
  324POPC   C4B 7618   6.091  23.569   7.664
  325POPC   NC3 7619  12.878  33.069   9.464
  325POPC   PO4 7620  12.820  33.058   9.164
  325POPC   GL1 7621  12.805  33.013   8.864
  325POPC   GL2 7622  12.832  32.867   8.864
  325POPC   C1A 7623  12.863  33.032   8.564
  325POPC   D2A 7624  12.882  33.004   8.264
  325POPC   C3A 7625  12.844  33.029   7.964
  325POPC   C4A 7626  12.871  33.072   7.664
  325POPC   C1B 7627  12.756  32.809   8.564
  325POPC   C2B 7628  12.783  32.748   8.264
  325POPC   C3B 7629  12.790  32.838   7.964
  325POPC   C4B 7630  12.765  32.792   7.664
  326POPC   NC3 7631  38.409  26.069   9.464
  326POPC   PO4 7632  38.480  25.999   9.164
  326POPC   GL1 7633  38.488  26.057   8.864
  326POPC   GL2 7634  38.382  25.958   8.864
  326POPC   C1A 7635  38.438  26.032   8.564
  326POPC   D2A 7636  38.442  26.047   8.264
  326POPC   C3A 7637  38.502  26.036   7.964
  326POPC   C4A 7638  38.421  26.068   7.664
  326POPC   C1B 7639  38.328  25.813   8.564
  326POPC   C2B 7640  38.268  25.839   8.264
  326POPC   C3B 7641  38.246  25.871   7.964
  326POPC   C4B 7642  38.233  25.907   7.664
  327POPC   NC3 7643  20.569  24.451   9.464
  327POPC   PO4 7644  20.628  24.446   9.164
  327POPC   GL1 7645  20.646  24.470   8.864
  327POPC   GL2 7646  20.740  24.419   8.864
  327POPC   C1A 7647  20.654  24.475   8.564
  327POPC   D2A 7648  20.621  24.516   8.264
  327POPC   C3A 7649  20.625  24.493   7.964
  327POPC   C4A 7650  20.599  24.453   7.664
  327POPC   C1B 7651  20.749  24.360   8.564
  327POPC   C2B 7652  20.811  24.314   8.264
  327POPC   C3B 7653  20.757  24.301   7.964
  327POPC   C4B 7654  20.806  24.297   7.664
  328POPC   NC3 7655  43.114  22.903   9.464
  328POPC   PO4 7656  43.144  22.938   9.164
  328POPC   GL1 7657  43.133  22.964   8.864
  328POPC   GL2 7658  43.051  22.787   8.864
  328POPC   C1A 7659  43.154  22.909   8.564
  328POPC   D2A 7660  43.143  22.930   8.264
  328POPC   C3A 7661  43.063  22.890   7.964
  328POPC   C4A 7662  43.147  22.916   7.664
  328POPC   C1B 7663  43.087  22.692   8.564
  328POPC   C2B 7664  43.105  22.699   8.264
  328POPC   C3B 7665  43.136  22.693   7.964
  328POPC   C4B 7666  43.110  22.652   7.664
  329POPC   NC3 7667  41.567  14.444   9.464
  329POPC   PO4 7668  41.567  14.398   9.164
  329POPC   GL1 7669  41.565  14.423   8.864
  329POPC   GL2 7670  41.459  14.469   8.864
  329POPC   C1A 7671  41.535  14.414   8.564
  329POPC   D2A 7672  41.532  14.385   8.264
  329POPC   C3A 7673  41.515  14.444   7.964
  329POPC   C4A 7674  41.578  14.365   7.664
  329POPC   C1B 7675  41.298  14.501   8.564
  329POPC   C2B 7676  41.319  14.489   8.264
  329POPC   C3B 7677  41.332  14.419   7.964
  329POPC   C4B 7678  41.307  14.454   7.664
  330POPC   NC3 7679  11.300  32.240   9.464
  330POPC   PO4 7680  11.321  32.230   9.164
  330POPC   GL1 7681  11.341  32.276   8.864
  330POPC   GL2 7682  11.318  32.123   8.864
  330POPC   C1A 7683  11.257  32.223   8.564
  330POPC   D2A 7684  11.266  32.230   8.264
  330POPC   C3A 7685  11.291  32.239   7.964
  330POPC   C4A 7686  11.291  32.262   7.664
  330POPC   C1B 7687  11.334  32.025   8.564
  330POPC   C2B 7688  11.272  32.023   8.264
  330POPC   C3B 7689  11.335  32.006   7.964
  330POPC   C4B 7690  11.283  32.003   7.664
  331POPC   NC3 7691  26.819   9.022   9.464
  331POPC   PO4 7692  26.794   8.938   9.164
  331POPC   GL1 7693  26.828   8.994   8.864
  331POPC   GL2 7694  26.909   9.056   8.864
  331POPC   C1A 7695  26.841   8.980   8.564
  331POPC   D2A 7696  26.835   9.013   8.264
  331POPC   C3A 7697  26.836   8.969   7.964
  331POPC   C4A 7698  26.830   8.956   7.664
  331POPC   C1B 7699  26.971   9.118   8.564
  331POPC   C2B 7700  27.014   9.202   8.264
  331POPC   C3B 7701  27.014   9.107   7.964
  331POPC   C4B 7702  26.940   9.106   7.664
  332POPC   NC3 7703   8.951  44.711   9.464
  332POPC   PO4 7704   8.972  44.671   9.164
  332POPC   GL1 7705   8.939  44.691   8.864
  332POPC   GL2 7706   8.897  44.573   8.864
  332POPC   C1A 7707   8.963  44.690   8.564
  332POPC   D2A 7708   8.977  44.613   8.264
  332POPC   C3A 7709   8.989  44.624   7.964
  332POPC   C4A 7710   9.013  44.644   7.664
  332POPC   C1B 7711   8.769  44.498   8.564
  332POPC   C2B 7712   8.840  44.519   8.264
  332POPC   C3B 7713   8.830  44.515   7.964
  332POPC   C4B 7714   8.809  44.458   7.664
  333POPC   NC3 7715   2.029  35.368   9.464
  333POPC   PO4 7716   1.959  35.378   9.164
  333POPC   GL1 7717   2.003  35.357   8.864
  333POPC   GL2 7718   2.149  35.331   8.864
  333POPC   C1A 7719   2.012  35.367   8.564
  333POPC   D2A 7720   1.998  35.317   8.264
  333POPC   C3A 7721   2.007  35.340   7.964
  333POPC   C4A 7722   1.970  35.387   7.664
  333POPC   C1B 7723   2.249  35.439   8.564
  333POPC   C2B 7724   2.205  35.440   8.264
  333POPC   C3B 7725   2.257  35.417   7.964
  333POPC   C4B 7726   2.195  35.355   7.664
  334POPC   NC3 7727  13.632  37.673   9.464
  334POPC   PO4 7728  13.637  37.641   9.164
  334POPC   GL1 7729  13.612  37.719   8.864
  334POPC   GL2 7730  13.660  37.830   8.864
  334POPC   C1A 7731  13.584  37.723   8.564
  334POPC   D2A 7732  13.643  37.638   8.264
  334POPC   C3A 7733  13.597  37.698   7.964
  334POPC   C4A 7734  13.617  37.631   7.664
  334POPC   C1B 7735  13.632  37.960   8.564
  334POPC   C2B 7736  13.605  37.901   8.264
  334POPC   C3B 7737  13.589  37.940   7.964
  334POPC   C4B 7738  13.643  37.891   7.664
  335POPC   NC3 7739  36.910  39.216   9.464
  335POPC   PO4 7740  36.952  39.196   9.164
  335POPC   GL1 7741  36.905  39.200   8.864
  335POPC   GL2 7742  37.029  39.203   8.864
  335POPC   C1A 7743  36.915  39.221   8.564
  335POPC   D2A 7744  36.915  39.229   8.264
  335POPC   C3A 7745  36.913  39.208   7.964
  335POPC   C4A 7746  36.872  39.261   7.664
  335POPC   C1B 7747  37.109  39.096   8.564
  335POPC   C2B 7748  37.167  39.115   8.264
  335POPC   C3B 7749  37.116  39.136   7.964
  335POPC   C4B 7750  37.118  39.093   7.664
  336POPC   NC3 7751  11.316  30.675   9.464
  336POPC   PO4 7752  11.255  30.734   9.164
  336POPC   GL1 7753  11.339  30.700   8.864
  336POPC   GL2 7754  11.324  30.575   8.864
  336POPC   C1A 7755  11.268  30.677   8.564
  336POPC   D2A 7756  11.349  30.702   8.264
  336POPC   C3A 7757  11.331  30.702   7.964
  336POPC   C4A 7758  11.306  30.668   7.664
  336POPC   C1B 7759  11.353  30.458   8.564
  336POPC   C2B 7760  11.282  30.450   8.264
  336POPC   C3B 7761  11.272  30.418   7.964
  336POPC   C4B 7762  11.291  30.443   7.664
  337POPC   NC3 7763   5.918  38.424   9.464
  337POPC   PO4 7764   5.821  38.499   9.164
  337POPC   GL1 7765   5.918  38.469   8.864
  337POPC   GL2 7766   5.821  38.362   8.864
  337POPC   C1A 7767   5.899  38.442   8.564
  337POPC   D2A 7768   5.876  38.453   8.264
  337POPC   C3A 7769   5.870  38.430   7.964
  337POPC   C4A 7770   5.851  38.472   7.664
  337POPC   C1B 7771   5.700  38.252   8.564
  337POPC   C2B 7772   5.761  38.274   8.264
  337POPC   C3B 7773   5.724  38.270   7.964
  337POPC   C4B 7774   5.746  38.227   7.664
  338POPC   NC3 7775  16.742  19.859   9.464
  338POPC   PO4 7776  16.718  19.816   9.164
  338POPC   GL1 7777  16.711  19.853   8.864
  338POPC   GL2 7778  16.839  19.903   8.864
  338POPC   C1A 7779  16.693  19.805   8.564
  338POPC   D2A 7780  16.748  19.797   8.264
  338POPC   C3A 7781  16.717  19.817   7.964
  338POPC   C4A 7782  16.732  19.791   7.664
  338POPC   C1B 7783  16.927  19.942   8.564
  338POPC   C2B 7784  16.992  19.915   8.264
  338POPC   C3B 7785  16.989  19.933   7.964
  338POPC   C4B 7786  16.975  19.957   7.664
  339POPC   NC3 7787  14.447  21.346   9.464
  339POPC   PO4 7788  14.409  21.379   9.164
  339POPC   GL1 7789  14.377  21.360   8.864
  339POPC   GL2 7790  14.532  21.482   8.864
  339POPC   C1A 7791  14.416  21.366   8.564
  339POPC   D2A 7792  14.381  21.412   8.264
  339POPC   C3A 7793  14.386  21.373   7.964
  339POPC   C4A 7794  14.429  21.431   7.664
  339POPC   C1B 7795  14.604  21.572   8.564
  339POPC   C2B 7796  14.602  21.593   8.264
  339POPC   C3B 7797  14.618  21.578   7.964
  339POPC   C4B 7798  14.590  21.527   7.664
  340POPC   NC3 7799   7.405   5.878   9.464
  340POPC   PO4 7800   7.430   5.824   9.164
  340POPC   GL1 7801   7.425   5.882   8.864
  340POPC   GL2 7802   7.385   5.726   8.864
  340POPC   C1A 7803   7.414   5.840   8.564
  340POPC   D2A 7804   7.467   5.897   8.264
  340POPC   C3A 7805   7.387   5.824   7.964
  340POPC   C4A 7806   7.428   5.887   7.664
  340POPC   C1B 7807   7.397   5.596   8.564
  340POPC   C2B 7808   7.381   5.610   8.264
  340POPC   C3B 7809   7.384   5.650   7.964
  340POPC   C4B 7810   7.437   5.584   7.664
  341POPC   NC3 7811   5.057  34.610   9.464
  341POPC   PO4 7812   5.143  34.570   9.164
  341POPC   GL1 7813   5.104  34.537   8.864
  341POPC   GL2 7814   5.021  34.611   8.864
  341POPC   C1A 7815   5.066  34.542   8.564
  341POPC   D2A 7816   5.128  34.616   8.264
  341POPC   C3A 7817   5.118  34.564   7.964
  341POPC   C4A 7818   5.045  34.546   7.664
  341POPC   C1B 7819   4.891  34.697   8.564
  341POPC   C2B 7820   4.926  34.766   8.264
  341POPC   C3B 7821   4.900  34.729   7.964
  341POPC   C4B 7822   4.874  34.724   7.664
  342POPC   NC3 7823  36.156  23.750   9.464
  342POPC   PO4 7824  36.139  23.718   9.164
  342POPC   GL1 7825  36.157  23.666   8.864
  342POPC   GL2 7826  36.192  23.796   8.864
  342POPC   C1A 7827  36.136  23.692   8.564
  342POPC   D2A 7828  36.167  23.700   8.264
  342POPC   C3A 7829  36.101  23.760   7.964
  342POPC   C4A 7830  36.138  23.700   7.664
  342POPC   C1B 7831  36.339  23.936   8.564
  342POPC   C2B 7832  36.305  23.911   8.264
  342POPC   C3B 7833  36.292  23.910   7.964
  342POPC   C4B 7834  36.297  23.927   7.664
  343POPC   NC3 7835   6.666  35.365   9.464
  343POPC   PO4 7836   6.683  35.397   9.164
  343POPC   GL1 7837   6.639  35.361   8.864
  343POPC   GL2 7838   6.581  35.239   8.864
  343POPC   C1A 7839   6.665  35.356   8.564
  343POPC   D2A 7840   6.644  35.367   8.264
  343POPC   C3A 7841   6.644  35.381   7.964
  343POPC   C4A 7842   6.668  35.360   7.664
  343POPC   C1B 7843   6.535  35.169   8.564
  343POPC   C2B 7844   6.553  35.076   8.264
  343POPC   C3B 7845   6.545  35.144   7.964
  343POPC   C4B 7846   6.534  35.113   7.664
  344POPC   NC3 7847   5.902  10.478   9.464
  344POPC   PO4 7848   5.832  10.571   9.164
  344POPC   GL1 7849   5.882  10.549   8.864
  344POPC   GL2 7850   5.922  10.362   8.864
  344POPC   C1A 7851   5.851  10.560   8.564
  344POPC   D2A 7852   5.859  10.540   8.264
  344POPC   C3A 7853   5.887  10.537   7.964
  344POPC   C4A 7854   5.914  10.494   7.664
  344POPC   C1B 7855   5.929  10.263   8.564
  344POPC   C2B 7856   5.876  10.325   8.264
  344POPC   C3B 7857   5.878  10.260   7.964
  344POPC   C4B 7858   5.952  10.261   7.664
  345POPC   NC3 7859  15.913  34.622   9.464
  345POPC   PO4 7860  15.992  34.592   9.164
  345POPC   GL1 7861  15.924  34.625   8.864
  345POPC   GL2 7862  16.076  34.631   8.864
  345POPC   C1A 7863  15.970  34.619   8.564
  345POPC   D2A 7864  15.949  34.577   8.264
  345POPC   C3A 7865  15.980  34.561   7.964
  345POPC   C4A 7866  15.987  34.576   7.664
  345POPC   C1B 7867  16.202  34.703   8.564
  345POPC   C2B 7868  16.167  34.696   8.264
  345POPC   C3B 7869  16.229  34.612   7.964
  345POPC   C4B 7870  16.220  34.668   7.664
  346POPC   NC3 7871  13.651  38.427   9.464
  346POPC   PO4 7872  13.648  38.490   9.164
  346POPC   GL1 7873  13.672  38.432   8.864
  346POPC   GL2 7874  13.687  38.559   8.864
  346POPC   C1A 7875  13.675  38.473   8.564
  346POPC   D2A 7876  13.676  38.464   8.264
  346POPC   C3A 7877  13.651  38.474   7.964
  346POPC   C4A 7878  13.598  38.427   7.664
  346POPC   C1B 7879  13.804  38.671   8.564
  346POPC   C2B 7880  13.778  38.628   8.264
  346POPC   C3B 7881  13.830  38.625   7.964
  346POPC   C4B 7882  13.850  38.647   7.664
  347POPC   NC3 7883  23.730  22.987   9.464
  347POPC   PO4 7884  23.758  22.946   9.164
  347POPC   GL1 7885  23.690  22.977   8.864
  347POPC   GL2 7886  23.810  22.845   8.864
  347POPC   C1A 7887  23.680  22.953   8.564
  347POPC   D2A 7888  23.726  22.934   8.264
  347POPC   C3A 7889  23.736  22.908   7.964
  347POPC   C4A 7890  23.717  22.960   7.664
  347POPC   C1B 7891  23.965  22.844   8.564
  347POPC   C2B 7892  23.951  22.827   8.264
  347POPC   C3B 7893  23.958  22.861   7.964
  347POPC   C4B 7894  23.929  22.828   7.664
  348POPC   NC3 7895  26.853  30.724   9.464
  348POPC   PO4 7896  26.797  30.694   9.164
  348POPC   GL1 7897  26.793  30.724   8.864
  348POPC   GL2 7898  26.969  30.683   8.864
  348POPC   C1A 7899  26.769  30.653   8.564
  348POPC   D2A 7900  26.809  30.736   8.264
  348POPC   C3A 7901  26.848  30.702   7.964
  348POPC   C4A 7902  26.794  30.660   7.664
  348POPC   C1B 7903  27.099  30.670   8.564
  348POPC   C2B 7904  27.031  30.672   8.264
  348POPC   C3B 7905  27.045  30.696   7.964
  348POPC   C4B 7906  27.019  30.747   7.664
  349POPC   NC3 7907  44.684   2.012   9.464
  349POPC   PO4 7908  44.705   1.962   9.164
  349POPC   GL1 7909  44.636   2.022   8.864
  349POPC   GL2 7910  44.758   2.040   8.864
  349POPC   C1A 7911  44.632   1.981   8.564
  349POPC   D2A 7912  44.658   2.009   8.264
  349POPC   C3A 7913  44.643   2.036   7.964
  349POPC   C4A 7914  44.683   1.999   7.664
  349POPC   C1B 7915  44.871   2.138   8.564
  349POPC   C2B 7916  44.842   2.078   8.264
  349POPC   C3B 7917  44.888   2.156   7.964
  349POPC   C4B 7918  44.834   2.095   7.664
  350POPC   NC3 7919   5.080  10.485   9.464
  350POPC   PO4 7920   5.088  10.475   9.164
  350POPC   GL1 7921   5.119  10.488   8.864
  350POPC   GL2 7922   5.116  10.633   8.864
  350POPC   C1A 7923   5.132  10.561   8.564
  350POPC   D2A 7924   5.143  10.543   8.264
  350POPC   C3A 7925   5.081  10.521   7.964
  350POPC   C4A 7926   5.066  10.561   7.664
  350POPC   C1B 7927   5.209  10.704   8.564
  350POPC   C2B 7928   5.252  10.791   8.264
  350POPC   C3B 7929   5.251  10.772   7.964
  350POPC   C4B 7930   5.189  10.706   7.664
  351POPC   NC3 7931  29.933  43.156   9.464
  351POPC   PO4 7932  29.966  43.127   9.164
  351POPC   GL1 7933  29.908  43.067   8.864
  351POPC   GL2 7934  30.005  43.083   8.864
  351POPC   C1A 7935  29.951  43.095   8.564
  351POPC   D2A 7936  29.936  43.111   8.264
  351POPC   C3A 7937  29.960  43.093   7.964
  351POPC   C4A 7938  29.936  43.147   7.664
  351POPC   C1B 7939  30.191  43.162   8.564
  351POPC   C2B 7940  30.190  43.154   8.264
  351POPC   C3B 7941  30.165  43.155   7.964
  351POPC   C4B 7942  30.146  43.098   7.664
  352POPC   NC3 7943  38.504  15.950   9.464
  352POPC   PO4 7944  38.407  15.929   9.164
  352POPC   GL1 7945  38.479  15.988   8.864
  352POPC   GL2 7946  38.445  16.098   8.864
  352POPC   C1A 7947  38.467  15.929   8.564
  352POPC   D2A 7948  38.486  15.923   8.264
  352POPC   C3A 7949  38.438  15.944   7.964
  352POPC   C4A 7950  38.490  15.929   7.664
  352POPC   C1B 7951  38.472  16.226   8.564
  352POPC   C2B 7952  38.507  16.222   8.264
  352POPC   C3B 7953  38.470  16.160   7.964
  352POPC   C4B 7954  38.486  16.232   7.664
  353POPC   NC3 7955  22.947  34.568   9.464
  353POPC   PO4 7956  22.971  34.613   9.164
  353POPC   GL1 7957  22.932  34.544   8.864
  353POPC   GL2 7958  22.984  34.412   8.864
  353POPC   C1A 7959  22.903  34.537   8.564
  353POPC   D2A 7960  22.889  34.614   8.264
  353POPC   C3A 7961  22.968  34.561   7.964
  353POPC   C4A 7962  22.935  34.597   7.664
  353POPC   C1B 7963  22.932  34.320   8.564
  353POPC   C2B 7964  22.927  34.296   8.264
  353POPC   C3B 7965  22.943  34.316   7.964
  353POPC   C4B 7966  22.982  34.350   7.664
  354POPC   NC3 7967  39.960  22.205   9.464
  354POPC   PO4 7968  40.007  22.186   9.164
  354POPC   GL1 7969  40.047  22.117   8.864
  354POPC   GL2 7970  39.914  22.260   8.864
  354POPC   C1A 7971  40.035  22.129   8.564
  354POPC   D2A 7972  39.962  22.159   8.264
  354POPC   C3A 7973  39.962  22.180   7.964
  354POPC   C4A 7974  39.998  22.164   7.664
  354POPC   C1B 7975  39.786  22.363   8.564
  354POPC   C2B 7976  39.826  22.335   8.264
  354POPC   C3B 7977  39.833  22.362   7.964
  354POPC   C4B 7978  39.810  22.349   7.664
  355POPC   NC3 7979   6.604  39.186   9.464
  355POPC   PO4 7980   6.599  39.273   9.164
  355POPC   GL1 7981   6.692  39.186   8.864
  355POPC   GL2 7982   6.748  39.281   8.864
  355POPC   C1A 7983   6.596  39.226   8.564
  355POPC   D2A 7984   6.598  39.196   8.264
  355POPC   C3A 7985   6.598  39.221   7.964
  355POPC   C4A 7986   6.595  39.202   7.664
  355POPC   C1B 7987   6.878  39.295   8.564
  355POPC   C2B 7988   6.925  39.244   8.264
  355POPC   C3B 7989   6.880  39.301   7.964
  355POPC   C4B 7990   6.930  39.293   7.664
  356POPC   NC3 7991  20.642  43.094   9.464
  356POPC   PO4 7992  20.578  43.075   9.164
  356POPC   GL1 7993  20.619  43.144   8.864
  356POPC   GL2 7994  20.745  43.044   8.864
  356POPC   C1A 7995  20.606  43.063   8.564
  356POPC   D2A 7996  20.605  43.063   8.264
  356POPC   C3A 7997  20.594  43.076   7.964
  356POPC   C4A 7998  20.571  43.114   7.664
  356POPC   C1B 7999  20.813  42.939   8.564
  356POPC   C2B 8000  20.785  42.892   8.264
  356POPC   C3B 8001  20.796  42.928   7.964
  356POPC   C4B 8002  20.833  42.948   7.664
  357POPC   NC3 8003  10.504  13.670   9.464
  357POPC   PO4 8004  10.531  13.655   9.164
  357POPC   GL1 8005  10.482  13.643   8.864
  357POPC   GL2 8006  10.671  13.545   8.864
  357POPC   C1A 8007  10.538  13.623   8.564
  357POPC   D2A 8008  10.524  13.638   8.264
  357POPC   C3A 8009  10.546  13.662   7.964
  357POPC   C4A 8010  10.493  13.639   7.664
  357POPC   C1B 8011  10.785  13.533   8.564
  357POPC   C2B 8012  10.748  13.552   8.264
  357POPC   C3B 8013  10.749  13.549   7.964
  357POPC   C4B 8014  10.732  13.583   7.664
  358POPC   NC3 8015  33.825  17.510   9.464
  358POPC   PO4 8016  33.807  17.526   9.164
  358POPC   GL1 8017  33.771  17.500   8.864
  358POPC   GL2 8018  33.720  17.578   8.864
  358POPC   C1A 8019  33.782  17.517   8.564
  358POPC   D2A 8020  33.767  17.481   8.264
  358POPC   C3A 8021  33.846  17.554   7.964
  358POPC   C4A 8022  33.840  17.504   7.664
  358POPC   C1B 8023  33.610  17.646   8.564
  358POPC   C2B 8024  33.617  17.683   8.264
  358POPC   C3B 8025  33.639  17.605   7.964
  358POPC   C4B 8026  33.596  17.628   7.664
  359POPC   NC3 8027  44.623  11.320   9.464
  359POPC   PO4 8028  44.708  11.271   9.164
  359POPC   GL1 8029  44.696  11.302   8.864
  359POPC   GL2 8030  44.794  11.337   8.864
  359POPC   C1A 8031  44.676  11.349   8.564
  359POPC   D2A 8032  44.672  11.313   8.264
  359POPC   C3A 8033  44.636  11.328   7.964
  359POPC   C4A 8034  44.628  11.312   7.664
  359POPC   C1B 8035  44.918  11.260   8.564
  359POPC   C2B 8036  44.949  11.339   8.264
  359POPC   C3B 8037  44.926  11.281   7.964
  359POPC   C4B 8038  44.931  11.334   7.664
  360POPC   NC3 8039  29.939   0.464   9.464
  360POPC   PO4 8040  29.873   0.420   9.164
  360POPC   GL1 8041  29.891   0.482   8.864
  360POPC   GL2 8042  30.071   0.374   8.864
  360POPC   C1A 8043  29.901   0.442   8.564
  360POPC   D2A 8044  29.961   0.477   8.264
  360POPC   C3A 8045  29.953   0.426   7.964
  360POPC   C4A 8046  29.890   0.446   7.664
  360POPC   C1B 8047  30.189   0.414   8.564
  360POPC   C2B 8048  30.216   0.425   8.264
  360POPC   C3B 8049  30.131   0.380   7.964
  360POPC   C4B 8050  30.213   0.446   7.664
  361POPC   NC3 8051  42.378  40.764   9.464
  361POPC   PO4 8052  42.338  40.806   9.164
  361POPC   GL1 8053  42.285  40.788   8.864
  361POPC   GL2 8054  42.413  40.822   8.864
  361POPC   C1A 8055  42.317  40.741   8.564
  361POPC   D2A 8056  42.305  40.785   8.264
  361POPC   C3A 8057  42.330  40.818   7.964
  361POPC   C4A 8058  42.340  40.740   7.664
  361POPC   C1B 8059  42.576  40.892   8.564
  361POPC   C2B 8060  42.570  40.841   8.264
  361POPC   C3B 8061  42.605  40.899   7.964
  361POPC   C4B 8062  42.575  40.853   7.664
  362POPC   NC3 8063  33.774  26.851   9.464
  362POPC   PO4 8064  33.792  26.776   9.164
  362POPC   GL1 8065  33.756  26.771   8.864
  362POPC   GL2 8066  33.763  26.733   8.864
  362POPC   C1A 8067  33.761  26.866   8.564
  362POPC   D2A 8068  33.795  26.848   8.264
  362POPC   C3A 8069  33.835  26.839   7.964
  362POPC   C4A 8070  33.830  26.847   7.664
  362POPC   C1B 8071  33.638  26.625   8.564
  362POPC   C2B 8072  33.691  26.641   8.264
  362POPC   C3B 8073  33.675  26.630   7.964
  362POPC   C4B 8074  33.640  26.604   7.664
  363POPC   NC3 8075  36.951  31.464   9.464
  363POPC   PO4 8076  36.946  31.470   9.164
  363POPC   GL1 8077  36.889  31.520   8.864
  363POPC   GL2 8078  36.891  31.599   8.864
  363POPC   C1A 8079  36.931  31.450   8.564
  363POPC   D2A 8080  36.908  31.517   8.264
  363POPC   C3A 8081  36.919  31.493   7.964
  363POPC   C4A 8082  36.894  31.495   7.664
  363POPC   C1B 8083  36.810  31.681   8.564
  363POPC   C2B 8084  36.794  31.688   8.264
  363POPC   C3B 8085  36.793  31.656   7.964
  363POPC   C4B 8086  36.768  31.684   7.664
  364POPC   NC3 8087  29.172  12.851   9.464
  364POPC   PO4 8088  29.160  12.833   9.164
  364POPC   GL1 8089  29.188  12.864   8.864
  364POPC   GL2 8090  29.097  12.775   8.864
  364POPC   C1A 8091  29.158  12.884   8.564
  364POPC   D2A 8092  29.155  12.898   8.264
  364POPC   C3A 8093  29.109  12.873   7.964
  364POPC   C4A 8094  29.167  12.870   7.664
  364POPC   C1B 8095  29.080  12.579   8.564
  364POPC   C2B 8096  29.100  12.640   8.264
  364POPC   C3B 8097  29.064  12.562   7.964
  364POPC   C4B 8098  29.026  12.603   7.664
  365POPC   NC3 8099  27.565   2.032   9.464
  365POPC   PO4 8100  27.633   1.973   9.164
  365POPC   GL1 8101  27.624   2.022   8.864
  365POPC   GL2 8102  27.547   1.907   8.864
  365POPC   C1A 8103  27.576   2.029   8.564
  365POPC   D2A 8104  27.621   1.980   8.264
  365POPC   C3A 8105  27.640   1.948   7.964
  365POPC   C4A 8106  27.563   2.035   7.664
  365POPC   C1B 8107  27.549   1.753   8.564
  365POPC   C2B 8108  27.626   1.774   8.264
  365POPC   C3B 8109  27.554   1.716   7.964
  365POPC   C4B 8110  27.640   1.746   7.664
  366POPC   NC3 8111   5.917  24.465   9.464
  366POPC   PO4 8112   5.884  24.508   9.164
  366POPC   GL1 8113   5.885  24.520   8.864
  366POPC   GL2 8114   5.724  24.484   8.864
  366POPC   C1A 8115   5.901  24.460   8.564
  366POPC   D2A 8116   5.820  24.468   8.264
  366POPC   C3A 8117   5.898  24.519   7.964
  366POPC   C4A 8118   5.919  24.504   7.664
  366POPC   C1B 8119   5.673  24.369   8.564
  366POPC   C2B 8120   5.652  24.418   8.264
  366POPC   C3B 8121   5.678  24.413   7.964
  366POPC   C4B 8122   5.607  24.445   7.664
  367POPC   NC3 8123  11.298  21.409   9.464
  367POPC   PO4 8124  11.289  21.408   9.164
  367POPC   GL1 8125  11.276  21.425   8.864
  367POPC   GL2 8126  11.277  21.291   8.864
  367POPC   C1A 8127  11.288  21.370   8.564
  367POPC   D2A 8128  11.322  21.414   8.264
  367POPC   C3A 8129  11.306  21.380   7.964
  367POPC   C4A 8130  11.306  21.350   7.664
  367POPC   C1B 8131  11.274  21.146   8.564
  367POPC   C2B 8132  11.280  21.131   8.264
  367POPC   C3B 8133  11.347  21.089   7.964
  367POPC   C4B 8134  11.305  21.133   7.664
  368POPC   NC3 8135  44.691   5.046   9.464
  368POPC   PO4 8136  44.620   5.088   9.164
  368POPC   GL1 8137  44.666   5.086   8.864
  368POPC   GL2 8138  44.674   4.949   8.864
  368POPC   C1A 8139  44.711   5.098   8.564
  368POPC   D2A 8140  44.696   5.067   8.264
  368POPC   C3A 8141  44.688   5.090   7.964
  368POPC   C4A 8142  44.666   5.069   7.664
  368POPC   C1B 8143  44.683   4.838   8.564
  368POPC   C2B 8144  44.661   4.865   8.264
  368POPC   C3B 8145  44.719   4.836   7.964
  368POPC   C4B 8146  44.636   4.820   7.664
  369POPC   NC3 8147   4.305  19.103   9.464
  369POPC   PO4 8148   4.354  19.034   9.164
  369POPC   GL1 8149   4.319  19.101   8.864
  369POPC   GL2 8150   4.296  18.900   8.864
  369POPC   C1A 8151   4.280  19.014   8.564
  369POPC   D2A 8152   4.341  19.051   8.264
  369POPC   C3A 8153   4.301  19.107   7.964
  369POPC   C4A 8154   4.325  19.025   7.664
  369POPC   C1B 8155   4.161  18.792   8.564
  369POPC   C2B 8156   4.185  18.848   8.264
  369POPC   C3B 8157   4.197  18.792   7.964
  369POPC   C4B 8158   4.209  18.824   7.664
  370POPC   NC3 8159  35.312   7.449   9.464
  370POPC   PO4 8160  35.338   7.447   9.164
  370POPC   GL1 8161  35.316   7.456   8.864
  370POPC   GL2 8162  35.455   7.533   8.864
  370POPC   C1A 8163  35.386   7.425   8.564
  370POPC   D2A 8164  35.400   7.445   8.264
  370POPC   C3A 8165  35.392   7.453   7.964
  370POPC   C4A 8166  35.362   7.397   7.664
  370POPC   C1B 8167  35.549   7.602   8.564
  370POPC   C2B 8168  35.556   7.553   8.264
  370POPC   C3B 8169  35.483   7.631   7.964
  370POPC   C4B 8170  35.539   7.609   7.664
  371POPC   NC3 8171  14.402  11.278   9.464
  371POPC   PO4 8172  14.390  11.279   9.164
  371POPC   GL1 8173  14.392  11.258   8.864
  371POPC   GL2 8174  14.438  11.162   8.864
  371POPC   C1A 8175  14.355  11.304   8.564
  371POPC   D2A 8176  14.368  11.310   8.264
  371POPC   C3A 8177  14.375  11.312   7.964
  371POPC   C4A 8178  14.422  11.291   7.664
  371POPC   C1B 8179  14.505  11.095   8.564
  371POPC   C2B 8180  14.499  11.062   8.264
  371POPC   C3B 8181  14.587  11.116   7.964
  371POPC   C4B 8182  14.496  11.052   7.664
  372POPC   NC3 8183  29.939  26.772   9.464
  372POPC   PO4 8184  29.927  26.846   9.164
  372POPC   GL1 8185  29.871  26.849   8.864
  372POPC   GL2 8186  29.849  26.883   8.864
  372POPC   C1A 8187  29.968  26.767   8.564
  372POPC   D2A 8188  29.968  26.785   8.264
  372POPC   C3A 8189  29.891  26.775   7.964
  372POPC   C4A 8190  29.937  26.784   7.664
  372POPC   C1B 8191  29.740  26.925   8.564
  372POPC   C2B 8192  29.714  26.938   8.264
  372POPC   C3B 8193  29.718  26.937   7.964
  372POPC   C4B 8194  29.726  26.921   7.664
  373POPC   NC3 8195  27.635  44.664   9.464
  373POPC   PO4 8196  27.613  44.695   9.164
  373POPC   GL1 8197  27.572  44.695   8.864
  373POPC   GL2 8198  27.446  44.666   8.864
  373POPC   C1A 8199  27.551  44.618   8.564
  373POPC   D2A 8200  27.590  44.680   8.264
  373POPC   C3A 8201  27.607  44.643   7.964
  373POPC   C4A 8202  27.544  44.630   7.664
  373POPC   C1B 8203  27.373  44.737   8.564
  373POPC   C2B 8204  27.353  44.749   8.264
  373POPC   C3B 8205  27.311  44.770   7.964
  373POPC   C4B 8206  27.338  44.763   7.664
  374POPC   NC3 8207   0.395  37.706   9.464
  374POPC   PO4 8208   0.486  37.697   9.164
  374POPC   GL1 8209   0.466  37.652   8.864
  374POPC   GL2 8210   0.379  37.518   8.864
  374POPC   C1A 8211   0.477  37.648   8.564
  374POPC   D2A 8212   0.471  37.633   8.264
  374POPC   C3A 8213   0.410  37.720   7.964
  374POPC   C4A 8214   0.470  37.719   7.664
  374POPC   C1B 8215   0.298  37.452   8.564
  374POPC   C2B 8216   0.367  37.463   8.264
  374POPC   C3B 8217   0.339  37.482   7.964
  374POPC   C4B 8218   0.336  37.415   7.664
  375POPC   NC3 8219  36.168  16.752   9.464
  375POPC   PO4 8220  36.092  16.743   9.164
  375POPC   GL1 8221  36.114  16.754   8.864
  375POPC   GL2 8222  36.280  16.655   8.864
  375POPC   C1A 8223  36.137  16.694   8.564
  375POPC   D2A 8224  36.127  16.712   8.264
  375POPC   C3A 8225  36.153  16.696   7.964
  375POPC   C4A 8226  36.082  16.763   7.664
  375POPC   C1B 8227  36.374  16.643   8.564
  375POPC   C2B 8228  36.363  16.671   8.264
  375POPC   C3B 8229  36.349  16.673   7.964
  375POPC   C4B 8230  36.321  16.665   7.664
  376POPC   NC3 8231  30.685  35.336   9.464
  376POPC   PO4 8232  30.745  35.313   9.164
  376POPC   GL1 8233  30.731  35.360   8.864
  376POPC   GL2 8234  30.777  35.458   8.864
  376POPC   C1A 8235  30.704  35.368   8.564
  376POPC   D2A 8236  30.662  35.374   8.264
  376POPC   C3A 8237  30.687  35.361   7.964
  376POPC   C4A 8238  30.745  35.326   7.664
  376POPC   C1B 8239  30.837  35.538   8.564
  376POPC   C2B 8240  30.815  35.594   8.264
  376POPC   C3B 8241  30.873  35.578   7.964
  376POPC   C4B 8242  30.795  35.606   7.664
  377POPC   NC3 8243  42.336  17.467   9.464
  377POPC   PO4 8244  42.345  17.470   9.164
  377POPC   GL1 8245  42.302  17.519   8.864
  377POPC   GL2 8246  42.380  17.431   8.864
  377POPC   C1A 8247  42.364  17.473   8.564
  377POPC   D2A 8248  42.295  17.466   8.264
  377POPC   C3A 8249  42.296  17.493   7.964
  377POPC   C4A 8250  42.371  17.540   7.664
  377POPC   C1B 8251  42.385  17.227   8.564
  377POPC   C2B 8252  42.389  17.253   8.264
  377POPC   C3B 8253  42.334  17.264   7.964
  377POPC   C4B 8254  42.359  17.230   7.664
  378POPC   NC3 8255   9.758  21.372   9.464
  378POPC   PO4 8256   9.734  21.344   9.164
  378POPC   GL1 8257   9.744  21.386   8.864
  378POPC   GL2 8258   9.892  21.317   8.864
  378POPC   C1A 8259   9.726  21.347   8.564
  378POPC   D2A 8260   9.734  21.339   8.264
  378POPC   C3A 8261   9.725  21.393   7.964
  378POPC   C4A 8262   9.795  21.338   7.664
  378POPC   C1B 8263   9.968  21.362   8.564
  378POPC   C2B 8264  10.003  21.306   8.264
  378POPC   C3B 8265  10.033  21.280   7.964
  378POPC   C4B 8266  10.033  21.352   7.664
  379POPC   NC3 8267  19.071  35.335   9.464
  379POPC   PO4 8268  19.059  35.385   9.164
  379POPC   GL1 8269  19.068  35.386   8.864
  379POPC   GL2 8270  18.930  35.268   8.864
  379POPC   C1A 8271  19.094  35.312   8.564
  379POPC   D2A 8272  19.081  35.389   8.264
  379POPC   C3A 8273  19.074  35.336   7.964
  379POPC   C4A 8274  19.104  35.356   7.664
  379POPC   C1B 8275  18.836  35.184   8.564
  379POPC   C2B 8276  18.817  35.178   8.264
  379POPC   C3B 8277  18.883  35.232   7.964
  379POPC   C4B 8278  18.814  35.211   7.664
  380POPC   NC3 8279  36.921  43.845   9.464
  380POPC   PO4 8280  36.889  43.932   9.164
  380POPC   GL1 8281  36.862  43.924   8.864
  380POPC   GL2 8282  36.972  44.059   8.864
  380POPC   C1A 8283  36.912  43.924   8.564
  380POPC   D2A 8284  36.949  43.865   8.264
  380POPC   C3A 8285  36.944  43.861   7.964
  380POPC   C4A 8286  36.908  43.838   7.664
  380POPC   C1B 8287  36.932  44.175   8.564
  380POPC   C2B 8288  36.995  44.113   8.264
  380POPC   C3B 8289  36.964  44.106   7.964
  380POPC   C4B 8290  36.898  44.101   7.664
  381POPC   NC3 8291  36.939  33.011   9.464
  381POPC   PO4 8292  36.930  33.016   9.164
  381POPC   GL1 8293  36.907  33.048   8.864
  381POPC   GL2 8294  37.052  33.008   8.864
  381POPC   C1A 8295  36.913  33.023   8.564
  381POPC   D2A 8296  36.883  32.988   8.264
  381POPC   C3A 8297  36.912  32.985   7.964
  381POPC   C4A 8298  36.894  32.981   7.664
  381POPC   C1B 8299  37.142  32.992   8.564
  381POPC   C2B 8300  37.165  33.013   8.264
  381POPC   C3B 8301  37.103  33.011   7.964
  381POPC   C4B 8302  37.147  33.003   7.664
  382POPC   NC3 8303  26.774   5.117   9.464
  382POPC   PO4 8304  26.867   5.094   9.164
  382POPC   GL1 8305  26.794   5.064   8.864
  382POPC   GL2 8306  26.986   5.084   8.864
  382POPC   C1A 8307  26.861   5.076   8.564
  382POPC   D2A 8308  26.811   5.054   8.264
  382POPC   C3A 8309  26.828   5.140   7.964
  382POPC   C4A 8310  26.771   5.134   7.664
  382POPC   C1B 8311  27.030   5.078   8.564
  382POPC   C2B 8312  27.043   5.080   8.264
  382POPC   C3B 8313  27.115   5.131   7.964
  382POPC   C4B 8314  27.063   5.082   7.664
  383POPC   NC3 8315  12.047  37.663   9.464
  383POPC   PO4 8316  12.047  37.666   9.164
  383POPC   GL1 8317  12.038  37.725   8.864
  383POPC   GL2 8318  12.030  37.547   8.864
  383POPC   C1A 8319  12.040  37.643   8.564
  383POPC   D2A 8320  12.059  37.657   8.264
  383POPC   C3A 8321  12.056  37.719   7.964
  383POPC   C4A 8322  12.093  37.711   7.664
  383POPC   C1B 8323  11.956  37.446   8.564
  383POPC   C2B 8324  11.973  37.437   8.264
  383POPC   C3B 8325  11.999  37.458   7.964
  383POPC   C4B 8326  11.994  37.462   7.664
  384POPC   NC3 8327  44.631  25.993   9.464
  384POPC   PO4 8328  44.661  26.024   9.164
  384POPC   GL1 8329  44.616  26.022   8.864
  384POPC   GL2 8330  44.674  25.956   8.864
  384POPC   C1A 8331  44.656  26.005   8.564
  384POPC   D2A 8332  44.665  26.071   8.264
  384POPC   C3A 8333  44.674  26.041   7.964
  384POPC   C4A 8334  44.625  26.084   7.664
  384POPC   C1B 8335  44.803  25.791   8.564
  384POPC   C2B 8336  44.743  25.791   8.264
  384POPC   C3B 8337  44.769  25.837   7.964
  384POPC   C4B 8338  44.720  25.849   7.664
  385POPC   NC3 8339  27.586  15.135   9.464
  385POPC   PO4 8340  27.555  15.154   9.164
  385POPC   GL1 8341  27.563  15.166   8.864
  385POPC   GL2 8342  27.524  15.174   8.864
  385POPC   C1A 8343  27.582  15.201   8.564
  385POPC   D2A 8344  27.558  15.166   8.264
  385POPC   C3A 8345  27.622  15.213   7.964
  385POPC   C4A 8346  27.604  15.191   7.664
  385POPC   C1B 8347  27.389  15.110   8.564
  385POPC   C2B 8348  27.393  15.044   8.264
  385POPC   C3B 8349  27.338  15.067   7.964
  385POPC   C4B 8350  27.405  15.086   7.664
  386POPC   NC3 8351  40.750  33.804   9.464
  386POPC   PO4 8352  40.760  33.831   9.164
  386POPC   GL1 8353  40.800  33.810   8.864
  386POPC   GL2 8354  40.913  33.804   8.864
  386POPC   C1A 8355  40.751  33.759   8.564
  386POPC   D2A 8356  40.761  33.849   8.264
  386POPC   C3A 8357  40.772  33.785   7.964
  386POPC   C4A 8358  40.786  33.793   7.664
  386POPC   C1B 8359  41.003  33.771   8.564
  386POPC   C2B 8360  40.996  33.841   8.264
  386POPC   C3B 8361  41.072  33.791   7.964
  386POPC   C4B 8362  41.008  33.850   7.664
  387POPC   NC3 8363   3.589  43.091   9.464
  387POPC   PO4 8364   3.513  43.144   9.164
  387POPC   GL1 8365   3.528  43.068   8.864
  387POPC   GL2 8366   3.469  43.125   8.864
  387POPC   C1A 8367   3.574  43.097   8.564
  387POPC   D2A 8368   3.560  43.143   8.264
  387POPC   C3A 8369   3.578  43.136   7.964
  387POPC   C4A 8370   3.530  43.077   7.664
  387POPC   C1B 8371   3.286  43.175   8.564
  387POPC   C2B 8372   3.264  43.176   8.264
  387POPC   C3B 8373   3.306  43.155   7.964
  387POPC   C4B 8374   3.349  43.153   7.664
  388POPC   NC3 8375  23.725  35.387   9.464
  388POPC   PO4 8376  23.730  35.396   9.164
  388POPC   GL1 8377  23.709  35.401   8.864
  388POPC   GL2 8378  23.815  35.441   8.864
  388POPC   C1A 8379  23.739  35.379   8.564
  388POPC   D2A 8380  23.700  35.355   8.264
  388POPC   C3A 8381  23.753  35.303   7.964
  388POPC   C4A 8382  23.740  35.393   7.664
  388POPC   C1B 8383  23.911  35.538   8.564
  388POPC   C2B 8384  23.936  35.542   8.264
  388POPC   C3B 8385  23.860  35.496   7.964
  388POPC   C4B 8386  23.915  35.566   7.664
  389POPC   NC3 8387  30.685  29.180   9.464
  389POPC   PO4 8388  30.714  29.172   9.164
  389POPC   GL1 8389  30.648  29.115   8.864
  389POPC   GL2 8390  30.791  29.167   8.864
  389POPC   C1A 8391  30.677  29.160   8.564
  389POPC   D2A 8392  30.647  29.138   8.264
  389POPC   C3A 8393  30.665  29.143   7.964
  389POPC   C4A 8394  30.701  29.135   7.664
  389POPC   C1B 8395  30.940  29.186   8.564
  389POPC   C2B 8396  30.954  29.120   8.264
  389POPC   C3B 8397  30.967  29.155   7.964
  389POPC   C4B 8398  30.926  29.185   7.664
  390POPC   NC3 8399  37.675  36.937   9.464
  390POPC   PO4 8400  37.715  36.873   9.164
  390POPC   GL1 8401  37.696  36.933   8.864
  390POPC   GL2 8402  37.786  36.798   8.864
  390POPC   C1A 8403  37.639  36.907   8.564
  390POPC   D2A 8404  37.650  36.871   8.264
  390POPC   C3A 8405  37.692  36.913   7.964
  390POPC   C4A 8406  37.687  36.914   7.664
  390POPC   C1B 8407  37.909  36.797   8.564
  390POPC   C2B 8408  37.880  36.725   8.264
  390POPC   C3B 8409  37.937  36.783   7.964
  390POPC   C4B 8410  37.939  36.794   7.664
  391POPC   NC3 8411  33.027  20.636   9.464
  391POPC   PO4 8412  33.036  20.566   9.164
  391POPC   GL1 8413  33.000  20.585   8.864
  391POPC   GL2 8414  32.982  20.776   8.864
  391POPC   C1A 8415  33.026  20.656   8.564
  391POPC   D2A 8416  33.043  20.599   8.264
  391POPC   C3A 8417  32.985  20.610   7.964
  391POPC   C4A 8418  32.998  20.637   7.664
  391POPC   C1B 8419  32.927  20.836   8.564
  391POPC   C2B 8420  32.908  20.858   8.264
  391POPC   C3B 8421  32.956  20.879   7.964
  391POPC   C4B 8422  32.905  20.852   7.664
  392POPC   NC3 8423  22.955  33.835   9.464
  392POPC   PO4 8424  22.939  33.832   9.164
  392POPC   GL1 8425  22.908  33.798   8.864
  392POPC   GL2 8426  22.828  33.854   8.864
  392POPC   C1A 8427  22.925  33.841   8.564
  392POPC   D2A 8428  22.910  33.789   8.264
  392POPC   C3A 8429  22.889  33.832   7.964
  392POPC   C4A 8430  22.981  33.790   7.664
  392POPC   C1B 8431  22.760  33.965   8.564
  392POPC   C2B 8432  22.759  33.925   8.264
  392POPC   C3B 8433  22.744  34.003   7.964
  392POPC   C4B 8434  22.752  33.976   7.664
  393POPC   NC3 8435  14.367  37.707   9.464
  393POPC   PO4 8436  14.412  37.687   9.164
  393POPC   GL1 8437  14.384  37.715   8.864
  393POPC   GL2 8438  14.348  37.788   8.864
  393POPC   C1A 8439  14.400  37.641   8.564
  393POPC   D2A 8440  14.421  37.665   8.264
  393POPC   C3A 8441  14.434  37.719   7.964
  393POPC   C4A 8442  14.427  37.686   7.664
  393POPC   C1B 8443  14.390  37.922   8.564
  393POPC   C2B 8444  14.388  37.958   8.264
  393POPC   C3B 8445  14.407  37.925   7.964
  393POPC   C4B 8446  14.314  37.909   7.664
  394POPC   NC3 8447   2.747   2.001   9.464
  394POPC   PO4 8448   2.746   1.984   9.164
  394POPC   GL1 8449   2.717   1.974   8.864
  394POPC   GL2 8450   2.857   1.893   8.864
  394POPC   C1A 8451   2.763   2.028   8.564
  394POPC   D2A 8452   2.807   1.980   8.264
  394POPC   C3A 8453   2.723   2.018   7.964
  394POPC   C4A 8454   2.785   1.993   7.664
  394POPC   C1B 8455   2.987   1.898   8.564
  394POPC   C2B 8456   2.990   1.810   8.264
  394POPC   C3B 8457   3.000   1.892   7.964
  394POPC   C4B 8458   3.017   1.857   7.664
  395POPC   NC3 8459  13.656  23.724   9.464
  395POPC   PO4 8460  13.612  23.729   9.164
  395POPC   GL1 8461  13.630  23.741   8.864
  395POPC   GL2 8462  13.492  23.742   8.864
  395POPC   C1A 8463  13.631  23.674   8.564
  395POPC   D2A 8464  13.603  23.702   8.264
  395POPC   C3A 8465  13.665  23.717   7.964
  395POPC   C4A 8466  13.631  23.685   7.664
  395POPC   C1B 8467  13.372  23.754   8.564
  395POPC   C2B 8468  13.393  23.767   8.264
  395POPC   C3B 8469  13.421  23.767   7.964
  395POPC   C4B 8470  13.363  23.794   7.664
  396POPC   NC3 8471  12.891  18.279   9.464
  396POPC   PO4 8472  12.856  18.303   9.164
  396POPC   GL1 8473  12.898  18.330   8.864
  396POPC   GL2 8474  12.882  18.424   8.864
  396POPC   C1A 8475  12.827  18.329   8.564
  396POPC   D2A 8476  12.891  18.330   8.264
  396POPC   C3A 8477  12.864  18.281   7.964
  396POPC   C4A 8478  12.885  18.259   7.664
  396POPC   C1B 8479  12.927  18.504   8.564
  396POPC   C2B 8480  12.935  18.500   8.264
  396POPC   C3B 8481  12.911  18.502   7.964
  396POPC   C4B 8482  12.860  18.534   7.664
  397POPC   NC3 8483   8.999  35.385   9.464
  397POPC   PO4 8484   8.982  35.328   9.164
  397POPC   GL1 8485   8.977  35.363   8.864
  397POPC   GL2 8486   9.105  35.338   8.864
  397POPC   C1A 8487   8.958  35.306   8.564
  397POPC   D2A 8488   9.019  35.378   8.264
  397POPC   C3A 8489   9.019  35.350   7.964
  397POPC   C4A 8490   8.993  35.387   7.664
  397POPC   C1B 8491   9.205  35.316   8.564
  397POPC   C2B 8492   9.258  35.291   8.264
  397POPC   C3B 8493   9.264  35.287   7.964
  397POPC   C4B 8494   9.182  35.322   7.664
  398POPC   NC3 8495   5.061   7.390   9.464
  398POPC   PO4 8496   5.085   7.397   9.164
  398POPC   GL1 8497   5.079   7.435   8.864
  398POPC   GL2 8498   4.952   7.456   8.864
  398POPC   C1A 8499   5.120   7.420   8.564
  398POPC   D2A 8500   5.141   7.440   8.264
  398POPC   C3A 8501   5.105   7.429   7.964
  398POPC   C4A 8502   5.092   7.381   7.664
  398POPC   C1B 8503   4.837   7.440   8.564
  398POPC   C2B 8504   4.877   7.489   8.264
  398POPC   C3B 8505   4.812   7.421   7.964
  398POPC   C4B 8506   4.880   7.482   7.664
  399POPC   NC3 8507  38.474  37.722   9.464
  399POPC   PO4 8508  38.449  37.663   9.164
  399POPC   GL1 8509  38.423  37.651   8.864
  399POPC   GL2 8510  38.336  37.694   8.864
  399POPC   C1A 8511  38.429  37.708   8.564
  399POPC   D2A 8512  38.420  37.657   8.264
  399POPC   C3A 8513  38.451  37.699   7.964
  399POPC   C4A 8514  38.467  37.657   7.664
  399POPC   C1B 8515  38.190  37.683   8.564
  399POPC   C2B 8516  38.244  37.682   8.264
  399POPC   C3B 8517  38.160  37.685   7.964
  399POPC   C4B 8518  38.167  37.597   7.664
  400POPC   NC3 8519  19.044  44.626   9.464
  400POPC   PO4 8520  19.059  44.657   9.164
  400POPC   GL1 8521  19.098  44.687   8.864
  400POPC   GL2 8522  18.987  44.564   8.864
  400POPC   C1A 8523  19.014  44.682   8.564
  400POPC   D2A 8524  19.065  44.634   8.264
  400POPC   C3A 8525  19.084  44.632   7.964
  400POPC   C4A 8526  19.018  44.686   7.664
  400POPC   C1B 8527  18.868  44.564   8.564
  400POPC   C2B 8528  18.798  44.590   8.264
  400POPC   C3B 8529  18.794  44.545   7.964
  400POPC   C4B 8530  18.821  44.572   7.664
  401POPC   NC3 8531   0.484  15.954   9.464
  401POPC   PO4 8532   0.394  15.947   9.164
  401POPC   GL1 8533   0.427  15.911   8.864
  401POPC   GL2 8534   0.404  15.834   8.864
  401POPC   C1A 8535   0.453  15.999   8.564
  401POPC   D2A 8536   0.405  15.990   8.264
  401POPC   C3A 8537   0.430  15.944   7.964
  401POPC   C4A 8538   0.436  15.906   7.664
  401POPC   C1B 8539   0.311  15.785   8.564
  401POPC   C2B 8540   0.288  15.814   8.264
  401POPC   C3B 8541   0.308  15.752   7.964
  401POPC   C4B 8542   0.315  15.780   7.664
  402POPC   NC3 8543  12.091  13.591   9.464
  402POPC   PO4 8544  12.106  13.593   9.164
  402POPC   GL1 8545  12.031  13.622   8.864
  402POPC   GL2 8546  12.247  13.686   8.864
  402POPC   C1A 8547  12.052  13.592   8.564
  402POPC   D2A 8548  12.104  13.635   8.264
  402POPC   C3A 8549  12.092  13.585   7.964
  402POPC   C4A 8550  12.030  13.608   7.664
  402POPC   C1B 8551  12.296  13.665   8.564
  402POPC   C2B 8552  12.287  13.705   8.264
  402POPC   C3B 8553  12.331  13.703   7.964
  402POPC   C4B 8554  12.328  13.687   7.664
  403POPC   NC3 8555   5.047   5.912   9.464
  403POPC   PO4 8556   5.098   5.859   9.164
  403POPC   GL1 8557   5.133   5.858   8.864
  403POPC   GL2 8558   5.029   6.019   8.864
  403POPC   C1A 8559   5.081   5.860   8.564
  403POPC   D2A 8560   5.114   5.890   8.264
  403POPC   C3A 8561   5.097   5.866   7.964
  403POPC   C4A 8562   5.087   5.845   7.664
  403POPC   C1B 8563   4.985   6.084   8.564
  403POPC   C2B 8564   4.929   6.100   8.264
  403POPC   C3B 8565   4.907   6.067   7.964
  403POPC   C4B 8566   4.955   6.060   7.664
  404POPC   NC3 8567  43.840  27.572   9.464
  404POPC   PO4 8568  43.852  27.601   9.164
  404POPC   GL1 8569  43.868  27.596   8.864
  404POPC   GL2 8570  44.023  27.489   8.864
  404POPC   C1A 8571  43.906  27.545   8.564
  404POPC   D2A 8572  43.839  27.568   8.264
  404POPC   C3A 8573  43.928  27.578   7.964
  404POPC   C4A 8574  43.874  27.597   7.664
  404POPC   C1B 8575  44.107  27.518   8.564
  404POPC   C2B 8576  44.073  27.511   8.264
  404POPC   C3B 8577  44.111  27.463   7.964
  404POPC   C4B 8578  44.093  27.515   7.664
  405POPC   NC3 8579  33.752   5.090   9.464
  405POPC   PO4 8580  33.832   5.097   9.164
  405POPC   GL1 8581  33.807   5.096   8.864
  405POPC   GL2 8582  33.853   5.006   8.864
  405POPC   C1A 8583  33.819   5.104   8.564
  405POPC   D2A 8584  33.811   5.098   8.264
  405POPC   C3A 8585  33.761   5.135   7.964
  405POPC   C4A 8586  33.831   5.142   7.664
  405POPC   C1B 8587  33.924   4.910   8.564
  405POPC   C2B 8588  33.944   4.902   8.264
  405POPC   C3B 8589  33.930   4.862   7.964
  405POPC   C4B 8590  33.925   4.869   7.664
  406POPC   NC3 8591  17.539  44.690   9.464
  406POPC   PO4 8592  17.510  44.680   9.164
  406POPC   GL1 8593  17.528  44.616   8.864
  406POPC   GL2 8594  17.617  44.665   8.864
  406POPC   C1A 8595  17.471  44.709   8.564
  406POPC   D2A 8596  17.537  44.697   8.264
  406POPC   C3A 8597  17.547  44.650   7.964
  406POPC   C4A 8598  17.459  44.699   7.664
  406POPC   C1B 8599  17.779  44.662   8.564
  406POPC   C2B 8600  17.707  44.622   8.264
  406POPC   C3B 8601  17.803  44.669   7.964
  406POPC   C4B 8602  17.721  44.715   7.664
  407POPC   NC3 8603  24.496   5.111   9.464
  407POPC   PO4 8604  24.537   5.073   9.164
  407POPC   GL1 8605  24.493   5.120   8.864
  407POPC   GL2 8606  24.433   5.117   8.864
  407POPC   C1A 8607  24.472   5.081   8.564
  407POPC   D2A 8608  24.467   5.118   8.264
  407POPC   C3A 8609  24.477   5.049   7.964
  407POPC   C4A 8610  24.479   5.055   7.664
  407POPC   C1B 8611  24.277   5.196   8.564
  407POPC   C2B 8612  24.327   5.215   8.264
  407POPC   C3B 8613  24.282   5.251   7.964
  407POPC   C4B 8614  24.279   5.187   7.664
  408POPC   NC3 8615  40.819   3.536   9.464
  408POPC   PO4 8616  40.806   3.591   9.164
  408POPC   GL1 8617  40.798   3.562   8.864
  408POPC   GL2 8618  40.921   3.499   8.864
  408POPC   C1A 8619  40.752   3.584   8.564
  408POPC   D2A 8620  40.740   3.500   8.264
  408POPC   C3A 8621  40.802   3.558   7.964
  408POPC   C4A 8622  40.809   3.590   7.664
  408POPC   C1B 8623  41.013   3.498   8.564
  408POPC   C2B 8624  41.024   3.440   8.264
  408POPC   C3B 8625  40.998   3.492   7.964
  408POPC   C4B 8626  40.989   3.489   7.664
  409POPC   NC3 8627  15.976  31.462   9.464
  409POPC   PO4 8628  15.967  31.433   9.164
  409POPC   GL1 8629  15.906  31.449   8.864
  409POPC   GL2 8630  16.107  31.483   8.864
  409POPC   C1A 8631  15.919  31.512   8.564
  409POPC   D2A 8632  15.981  31.436   8.264
  409POPC   C3A 8633  15.954  31.432   7.964
  409POPC   C4A 8634  15.974  31.467   7.664
  409POPC   C1B 8635  16.228  31.406   8.564
  409POPC   C2B 8636  16.221  31.370   8.264
  409POPC   C3B 8637  16.213  31.371   7.964
  409POPC   C4B 8638  16.197  31.380   7.664
  410POPC   NC3 8639   8.983  19.852   9.464
  410POPC   PO4 8640   9.021  19.830   9.164
  410POPC   GL1 8641   9.010  19.826   8.864
  410POPC   GL2 8642   9.087  19.919   8.864
  410POPC   C1A 8643   8.973  19.793   8.564
  410POPC   D2A 8644   8.927  19.857   8.264
  410POPC   C3A 8645   8.973  19.802   7.964
  410POPC   C4A 8646   8.961  19.827   7.664
  410POPC   C1B 8647   9.190  20.028   8.564
  410POPC   C2B 8648   9.144  20.013   8.264
  410POPC   C3B 8649   9.123  20.055   7.964
  410POPC   C4B 8650   9.143  19.973   7.664
  411POPC   NC3 8651   9.732  36.097   9.464
  411POPC   PO4 8652   9.773  36.152   9.164
  411POPC   GL1 8653   9.734  36.128   8.864
  411POPC   GL2 8654   9.813  36.216   8.864
  411POPC   C1A 8655   9.729  36.137   8.564
  411POPC   D2A 8656   9.775  36.175   8.264
  411POPC   C3A 8657   9.709  36.138   7.964
  411POPC   C4A 8658   9.734  36.176   7.664
  411POPC   C1B 8659   9.880  36.341   8.564
  411POPC   C2B 8660   9.866  36.368   8.264
  411POPC   C3B 8661   9.853  36.369   7.964
  411POPC   C4B 8662   9.809  36.352   7.664
  412POPC   NC3 8663  12.838   0.398   9.464
  412POPC   PO4 8664  12.835   0.452   9.164
  412POPC   GL1 8665  12.811   0.447   8.864
  412POPC   GL2 8666  12.724   0.539   8.864
  412POPC   C1A 8667  12.883   0.478   8.564
  412POPC   D2A 8668  12.824   0.444   8.264
  412POPC   C3A 8669  12.866   0.454   7.964
  412POPC   C4A 8670  12.850   0.428   7.664
  412POPC   C1B 8671  12.658   0.583   8.564
  412POPC   C2B 8672  12.686   0.554   8.264
  412POPC   C3B 8673  12.659   0.557   7.964
  412POPC   C4B 8674  12.631   0.552   7.664
  413POPC   NC3 8675  12.876  21.420   9.464
  413POPC   PO4 8676  12.884  21.337   9.164
  413POPC   GL1 8677  12.888  21.364   8.864
  413POPC   GL2 8678  12.885  21.214   8.864
  413POPC   C1A 8679  12.881  21.346   8.564
  413POPC   D2A 8680  12.856  21.356   8.264
  413POPC   C3A 8681  12.810  21.340   7.964
  413POPC   C4A 8682  12.811  21.397   7.664
  413POPC   C1B 8683  12.883  21.140   8.564
  413POPC   C2B 8684  12.845  21.174   8.264
  413POPC   C3B 8685  12.798  21.127   7.964
  413POPC   C4B 8686  12.792  21.088   7.664
  414POPC   NC3 8687  42.295  25.227   9.464
  414POPC   PO4 8688  42.327  25.235   9.164
  414POPC   GL1 8689  42.349  25.311   8.864
  414POPC   GL2 8690  42.293  25.398   8.864
  414POPC   C1A 8691  42.305  25.242   8.564
  414POPC   D2A 8692  42.301  25.235   8.264
  414POPC   C3A 8693  42.352  25.292   7.964
  414POPC   C4A 8694  42.354  25.311   7.664
  414POPC   C1B 8695  42.293  25.522   8.564
  414POPC   C2B 8696  42.329  25.551   8.264
  414POPC   C3B 8697  42.315  25.514   7.964
  414POPC   C4B 8698  42.278  25.528   7.664
  415POPC   NC3 8699  18.253  43.128   9.464
  415POPC   PO4 8700  18.324  43.085   9.164
  415POPC   GL1 8701  18.309  43.062   8.864
  415POPC   GL2 8702  18.270  42.973   8.864
  415POPC   C1A 8703  18.310  43.089   8.564
  415POPC   D2A 8704  18.292  43.154   8.264
  415POPC   C3A 8705  18.309  43.144   7.964
  415POPC   C4A 8706  18.297  43.064   7.664
  415POPC   C1B 8707  18.381  42.887   8.564
  415POPC   C2B 8708  18.362  42.906   8.264
  415POPC   C3B 8709  18.325  42.862   7.964
  415POPC   C4B 8710  18.319  42.871   7.664
  416POPC   NC3 8711  10.526   5.122   9.464
  416POPC   PO4 8712  10.568   5.118   9.164
  416POPC   GL1 8713  10.479   5.057   8.864
  416POPC   GL2 8714  10.557   5.259   8.864
  416POPC   C1A 8715  10.574   5.106   8.564
  416POPC   D2A 8716  10.490   5.123   8.264
  416POPC   C3A 8717  10.552   5.130   7.964
  416POPC   C4A 8718  10.538   5.116   7.664
  416POPC   C1B 8719  10.561   5.378   8.564
  416POPC   C2B 8720  10.547   5.296   8.264
  416POPC   C3B 8721  10.538   5.313   7.964
  416POPC   C4B 8722  10.557   5.359   7.664
  417POPC   NC3 8723  40.779  33.030   9.464
  417POPC   PO4 8724  40.826  33.033   9.164
  417POPC   GL1 8725  40.803  33.045   8.864
  417POPC   GL2 8726  40.855  33.113   8.864
  417POPC   C1A 8727  40.820  33.008   8.564
  417POPC   D2A 8728  40.741  32.995   8.264
  417POPC   C3A 8729  40.779  33.073   7.964
  417POPC   C4A 8730  40.796  33.073   7.664
  417POPC   C1B 8731  40.979  33.178   8.564
  417POPC   C2B 8732  41.019  33.139   8.264
  417POPC   C3B 8733  40.962  33.222   7.964
  417POPC   C4B 8734  40.997  33.226   7.664
  418POPC   NC3 8735  43.108  32.241   9.464
  418POPC   PO4 8736  43.160  32.230   9.164
  418POPC   GL1 8737  43.148  32.238   8.864
  418POPC   GL2 8738  43.215  32.119   8.864
  418POPC   C1A 8739  43.107  32.277   8.564
  418POPC   D2A 8740  43.094  32.231   8.264
  418POPC   C3A 8741  43.156  32.293   7.964
  418POPC   C4A 8742  43.138  32.274   7.664
  418POPC   C1B 8743  43.329  32.121   8.564
  418POPC   C2B 8744  43.273  32.083   8.264
  418POPC   C3B 8745  43.292  32.042   7.964
  418POPC   C4B 8746  43.280  32.042   7.664
  419POPC   NC3 8747  32.224  43.154   9.464
  419POPC   PO4 8748  32.207  43.079   9.164
  419POPC   GL1 8749  32.225  43.105   8.864
  419POPC   GL2 8750  32.295  43.055   8.864
  419POPC   C1A 8751  32.224  43.064   8.564
  419POPC   D2A 8752  32.215  43.062   8.264
  419POPC   C3A 8753  32.203  43.123   7.964
  419POPC   C4A 8754  32.281  43.069   7.664
  419POPC   C1B 8755  32.457  42.971   8.564
  419POPC   C2B 8756  32.417  42.901   8.264
  419POPC   C3B 8757  32.472  42.947   7.964
  419POPC   C4B 8758  32.422  42.954   7.664
  420POPC   NC3 8759  39.979  19.825   9.464
  420POPC   PO4 8760  40.021  19.819   9.164
  420POPC   GL1 8761  39.984  19.841   8.864
  420POPC   GL2 8762  39.944  19.780   8.864
  420POPC   C1A 8763  39.981  19.843   8.564
  420POPC   D2A 8764  40.052  19.862   8.264
  420POPC   C3A 8765  40.053  19.840   7.964
  420POPC   C4A 8766  39.967  19.841   7.664
  420POPC   C1B 8767  39.907  19.604   8.564
  420POPC   C2B 8768  39.875  19.677   8.264
  420POPC   C3B 8769  39.842  19.589   7.964
  420POPC   C4B 8770  39.864  19.640   7.664
  421POPC   NC3 8771   8.997  41.584   9.464
  421POPC   PO4 8772   9.002  41.530   9.164
  421POPC   GL1 8773   8.992  41.581   8.864
  421POPC   GL2 8774   8.809  41.648   8.864
  421POPC   C1A 8775   8.926  41.530   8.564
  421POPC   D2A 8776   9.005  41.606   8.264
  421POPC   C3A 8777   8.967  41.601   7.964
  421POPC   C4A 8778   8.975  41.545   7.664
  421POPC   C1B 8779   8.777  41.605   8.564
  421POPC   C2B 8780   8.727  41.695   8.264
  421POPC   C3B 8781   8.718  41.634   7.964
  421POPC   C4B 8782   8.765  41.609   7.664
  422POPC   NC3 8783  32.208  40.009   9.464
  422POPC   PO4 8784  32.201  39.999   9.164
  422POPC   GL1 8785  32.245  39.990   8.864
  422POPC   GL2 8786  32.115  39.932   8.864
  422POPC   C1A 8787  32.240  39.994   8.564
  422POPC   D2A 8788  32.272  40.011   8.264
  422POPC   C3A 8789  32.248  39.976   7.964
  422POPC   C4A 8790  32.259  39.987   7.664
  422POPC   C1B 8791  32.037  39.922   8.564
  422POPC   C2B 8792  32.050  39.892   8.264
  422POPC   C3B 8793  31.965  39.965   7.964
  422POPC   C4B 8794  31.999  39.946   7.664
  423POPC   NC3 8795  42.346  35.308   9.464
  423POPC   PO4 8796  42.378  35.329   9.164
  423POPC   GL1 8797  42.327  35.367   8.864
  423POPC   GL2 8798  42.253  35.284   8.864
  423POPC   C1A 8799  42.366  35.365   8.564
  423POPC   D2A 8800  42.290  35.385   8.264
  423POPC   C3A 8801  42.380  35.381   7.964
  423POPC   C4A 8802  42.290  35.391   7.664
  423POPC   C1B 8803  42.164  35.194   8.564
  423POPC   C2B 8804  42.205  35.129   8.264
  423POPC   C3B 8805  42.229  35.108   7.964
  423POPC   C4B 8806  42.215  35.176   7.664
  424POPC   NC3 8807  22.165  43.099   9.464
  424POPC   PO4 8808  22.155  43.102   9.164
  424POPC   GL1 8809  22.153  43.135   8.864
  424POPC   GL2 8810  22.019  43.144   8.864
  424POPC   C1A 8811  22.187  43.118   8.564
  424POPC   D2A 8812  22.122  43.085   8.264
  424POPC   C3A 8813  22.144  43.061   7.964
  424POPC   C4A 8814  22.161  43.159   7.664
  424POPC   C1B 8815  21.921  43.254   8.564
  424POPC   C2B 8816  21.941  43.254   8.264
  424POPC   C3B 8817  21.960  43.240   7.964
  424POPC   C4B 8818  21.993  43.319   7.664
  425POPC   NC3 8819  18.241  40.769   9.464
  425POPC   PO4 8820  18.323  40.832   9.164
  425POPC   GL1 8821  18.298  40.746   8.864
  425POPC   GL2 8822  18.193  40.723   8.864
  425POPC   C1A 8823  18.332  40.782   8.564
  425POPC   D2A 8824  18.242  40.787   8.264
  425POPC   C3A 8825  18.281  40.744   7.964
  425POPC   C4A 8826  18.271  40.802   7.664
  425POPC   C1B 8827  18.016  40.701   8.564
  425POPC   C2B 8828  18.025  40.720   8.264
  425POPC   C3B 8829  17.995  40.673   7.964
  425POPC   C4B 8830  18.065  40.728   7.664
  426POPC   NC3 8831  29.154   7.387   9.464
  426POPC   PO4 8832  29.169   7.396   9.164
  426POPC   GL1 8833  29.100   7.454   8.864
  426POPC   GL2 8834  29.067   7.386   8.864
  426POPC   C1A 8835  29.103   7.401   8.564
  426POPC   D2A 8836  29.143   7.412   8.264
  426POPC   C3A 8837  29.138   7.377   7.964
  426POPC   C4A 8838  29.190   7.436   7.664
  426POPC   C1B 8839  28.888   7.441   8.564
  426POPC   C2B 8840  28.880   7.433   8.264
  426POPC   C3B 8841  28.892   7.387   7.964
  426POPC   C4B 8842  28.867   7.428   7.664
  427POPC   NC3 8843  21.412  41.511   9.464
  427POPC   PO4 8844  21.409  41.595   9.164
  427POPC   GL1 8845  21.427  41.570   8.864
  427POPC   GL2 8846  21.437  41.654   8.864
  427POPC   C1A 8847  21.411  41.548   8.564
  427POPC   D2A 8848  21.402  41.551   8.264
  427POPC   C3A 8849  21.391  41.606   7.964
  427POPC   C4A 8850  21.416  41.553   7.664
  427POPC   C1B 8851  21.531  41.798   8.564
  427POPC   C2B 8852  21.440  41.764   8.264
  427POPC   C3B 8853  21.469  41.763   7.964
  427POPC   C4B 8854  21.501  41.747   7.664
  428POPC   NC3 8855  12.088  18.296   9.464
  428POPC   PO4 8856  12.045  18.302   9.164
  428POPC   GL1 8857  12.119  18.250   8.864
  428POPC   GL2 8858  12.002  18.269   8.864
  428POPC   C1A 8859  12.038  18.314   8.564
  428POPC   D2A 8860  12.105  18.258   8.264
  428POPC   C3A 8861  12.072  18.265   7.964
  428POPC   C4A 8862  12.122  18.262   7.664
  428POPC   C1B 8863  11.805  18.198   8.564
  428POPC   C2B 8864  11.790  18.283   8.264
  428POPC   C3B 8865  11.859  18.233   7.964
  428POPC   C4B 8866  11.849  18.219   7.664
  429POPC   NC3 8867  38.461  24.451   9.464
  429POPC   PO4 8868  38.410  24.485   9.164
  429POPC   GL1 8869  38.442  24.452   8.864
  429POPC   GL2 8870  38.398  24.652   8.864
  429POPC   C1A 8871  38.435  24.519   8.564
  429POPC   D2A 8872  38.505  24.476   8.264
  429POPC   C3A 8873  38.495  24.460   7.964
  429POPC   C4A 8874  38.430  24.484   7.664
  429POPC   C1B 8875  38.417  24.739   8.564
  429POPC   C2B 8876  38.458  24.756   8.264
  429POPC   C3B 8877  38.429  24.759   7.964
  429POPC   C4B 8878  38.377  24.784   7.664
  430POPC   NC3 8879  36.111  26.051   9.464
  430POPC   PO4 8880  36.148  26.090   9.164
  430POPC   GL1 8881  36.101  26.034   8.864
  430POPC   GL2 8882  36.156  26.194   8.864
  430POPC   C1A 8883  36.135  26.058   8.564
  430POPC   D2A 8884  36.128  26.004   8.264
  430POPC   C3A 8885  36.096  26.009   7.964
  430POPC   C4A 8886  36.105  26.077   7.664
  430POPC   C1B 8887  36.153  26.259   8.564
  430POPC   C2B 8888  36.096  26.293   8.264
  430POPC   C3B 8889  36.154  26.317   7.964
  430POPC   C4B 8890  36.121  26.243   7.664
  431POPC   NC3 8891  43.074  23.707   9.464
  431POPC   PO4 8892  43.156  23.695   9.164
  431POPC   GL1 8893  43.085  23.719   8.864
  431POPC   GL2 8894  43.215  23.648   8.864
  431POPC   C1A 8895  43.098  23.683   8.564
  431POPC   D2A 8896  43.111  23.690   8.264
  431POPC   C3A 8897  43.074  23.750   7.964
  431POPC   C4A 8898  43.085  23.742   7.664
  431POPC   C1B 8899  43.230  23.556   8.564
  431POPC   C2B 8900  43.267  23.536   8.264
  431POPC   C3B 8901  43.229  23.548   7.964
  431POPC   C4B 8902  43.248  23.466   7.664
  432POPC   NC3 8903  31.447  36.137   9.464
  432POPC   PO4 8904  31.509  36.111   9.164
  432POPC   GL1 8905  31.437  36.140   8.864
  432POPC   GL2 8906  31.530  36.011   8.864
  432POPC   C1A 8907  31.428  36.174   8.564
  432POPC   D2A 8908  31.428  36.079   8.264
  432POPC   C3A 8909  31.424  36.091   7.964
  432POPC   C4A 8910  31.426  36.132   7.664
  432POPC   C1B 8911  31.547  35.911   8.564
  432POPC   C2B 8912  31.570  35.922   8.264
  432POPC   C3B 8913  31.561  35.848   7.964
  432POPC   C4B 8914  31.594  35.938   7.664
  433POPC   NC3 8915  17.532  24.447   9.464
  433POPC   PO4 8916  17.502  24.454   9.164
  433POPC   GL1 8917  17.543  24.538   8.864
  433POPC   GL2 8918  17.358  24.507   8.864
  433POPC   C1A 8919  17.550  24.440   8.564
  433POPC   D2A 8920  17.519  24.485   8.264
  433POPC   C3A 8921  17.510  24.460   7.964
  433POPC   C4A 8922  17.488  24.508   7.664
  433POPC   C1B 8923  17.276  24.574   8.564
  433POPC   C2B 8924  17.291  24.564   8.264
  433POPC   C3B 8925  17.230  24.551   7.964
  433POPC   C4B 8926  17.281  24.542   7.664
  434POPC   NC3 8927  39.213  42.351   9.464
  434POPC   PO4 8928  39.214  42.305   9.164
  434POPC   GL1 8929  39.220  42.364   8.864
  434POPC   GL2 8930  39.262  42.412   8.864
  434POPC   C1A 8931  39.245  42.354   8.564
  434POPC   D2A 8932  39.260  42.381   8.264
  434POPC   C3A 8933  39.220  42.356   7.964
  434POPC   C4A 8934  39.232  42.381   7.664
  434POPC   C1B 8935  39.310  42.540   8.564
  434POPC   C2B 8936  39.331  42.588   8.264
  434POPC   C3B 8937  39.329  42.612   7.964
  434POPC   C4B 8938  39.296  42.566   7.664
  435POPC   NC3 8939  19.815  29.141   9.464
  435POPC   PO4 8940  19.878  29.099   9.164
  435POPC   GL1 8941  19.850  29.180   8.864
  435POPC   GL2 8942  19.719  29.116   8.864
  435POPC   C1A 8943  19.866  29.178   8.564
  435POPC   D2A 8944  19.839  29.189   8.264
  435POPC   C3A 8945  19.822  29.165   7.964
  435POPC   C4A 8946  19.855  29.190   7.664
  435POPC   C1B 8947  19.624  29.084   8.564
  435POPC   C2B 8948  19.569  29.107   8.264
  435POPC   C3B 8949  19.571  29.091   7.964
  435POPC   C4B 8950  19.550  29.133   7.664
  436POPC   NC3 8951  44.651   5.871   9.464
  436POPC   PO4 8952  44.701   5.876   9.164
  436POPC   GL1 8953  44.624   5.875   8.864
  436POPC   GL2 8954  44.672   5.983   8.864
  436POPC   C1A 8955  44.705   5.909   8.564
  436POPC   D2A 8956  44.639   5.897   8.264
  436POPC   C3A 8957  44.683   5.835   7.964
  436POPC   C4A 8958  44.692   5.901   7.664
  436POPC   C1B 8959  44.737   6.121   8.564
  436POPC   C2B 8960  44.721   6.066   8.264
  436POPC   C3B 8961  44.787   6.111   7.964
  436POPC   C4B 8962  44.708   6.061   7.664
  437POPC   NC3 8963  21.409  10.537   9.464
  437POPC   PO4 8964  21.404  10.481   9.164
  437POPC   GL1 8965  21.376  10.494   8.864
  437POPC   GL2 8966  21.411  10.624   8.864
  437POPC   C1A 8967  21.419  10.564   8.564
  437POPC   D2A 8968  21.394  10.565   8.264
  437POPC   C3A 8969  21.382  10.567   7.964
  437POPC   C4A 8970  21.343  10.498   7.664
  437POPC   C1B 8971  21.432  10.785   8.564
  437POPC   C2B 8972  21.461  10.811   8.264
  437POPC   C3B 8973  21.369  10.739   7.964
  437POPC   C4B 8974  21.366  10.776   7.664
  438POPC   NC3 8975  37.687  28.340   9.464
  438POPC   PO4 8976  37.663  28.395   9.164
  438POPC   GL1 8977  37.693  28.411   8.864
  438POPC   GL2 8978  37.728  28.259   8.864
  438POPC   C1A 8979  37.712  28.353   8.564
  438POPC   D2A 8980  37.650  28.417   8.264
  438POPC   C3A 8981  37.693  28.325   7.964
  438POPC   C4A 8982  37.681  28.390   7.664
  438POPC   C1B 8983  37.774  28.104   8.564
  438POPC   C2B 8984  37.765  28.095   8.264
  438POPC   C3B 8985  37.769  28.130   7.964
  438POPC   C4B 8986  37.762  28.163   7.664
  439POPC   NC3 8987  35.306   3.530   9.464
  439POPC   PO4 8988  35.348   3.590   9.164
  439POPC   GL1 8989  35.341   3.584   8.864
  439POPC   GL2 8990  35.339   3.629   8.864
  439POPC   C1A 8991  35.366   3.493   8.564
  439POPC   D2A 8992  35.356   3.505   8.264
  439POPC   C3A 8993  35.370   3.532   7.964
  439POPC   C4A 8994  35.395   3.507   7.664
  439POPC   C1B 8995  35.400   3.817   8.564
  439POPC   C2B 8996  35.376   3.754   8.264
  439POPC   C3B 8997  35.429   3.759   7.964
  439POPC   C4B 8998  35.393   3.778   7.664
  440POPC   NC3 8999  11.265   8.173   9.464
  440POPC   PO4 9000  11.305   8.159   9.164
  440POPC   GL1 9001  11.269   8.176   8.864
  440POPC   GL2 9002  11.211   8.038   8.864
  440POPC   C1A 9003  11.284   8.245   8.564
  440POPC   D2A 9004  11.269   8.155   8.264
  440POPC   C3A 9005  11.339   8.234   7.964
  440POPC   C4A 9006  11.270   8.237   7.664
  440POPC   C1B 9007  11.205   7.942   8.564
  440POPC   C2B 9008  11.197   7.937   8.264
  440POPC   C3B 9009  11.179   7.979   7.964
  440POPC   C4B 9010  11.175   7.937   7.664
  441POPC   NC3 9011  20.638  36.871   9.464
  441POPC   PO4 9012  20.631  36.921   9.164
  441POPC   GL1 9013  20.636  36.940   8.864
  441POPC   GL2 9014  20.491  36.792   8.864
  441POPC   C1A 9015  20.587  36.879   8.564
  441POPC   D2A 9016  20.623  36.889   8.264
  441POPC   C3A 9017  20.613  36.939   7.964
  441POPC   C4A 9018  20.609  36.882   7.664
  441POPC   C1B 9019  20.425  36.727   8.564
  441POPC   C2B 9020  20.429  36.779   8.264
  441POPC   C3B 9021  20.437  36.794   7.964
  441POPC   C4B 9022  20.409  36.722   7.664
  442POPC   NC3 9023  16.780   3.543   9.464
  442POPC   PO4 9024  16.780   3.580   9.164
  442POPC   GL1 9025  16.742   3.560   8.864
  442POPC   GL2 9026  16.711   3.371   8.864
  442POPC   C1A 9027  16.686   3.564   8.564
  442POPC   D2A 9028  16.757   3.497   8.264
  442POPC   C3A 9029  16.754   3.571   7.964
  442POPC   C4A 9030  16.764   3.555   7.664
  442POPC   C1B 9031  16.721   3.274   8.564
  442POPC   C2B 9032  16.723   3.303   8.264
  442POPC   C3B 9033  16.644   3.282   7.964
  442POPC   C4B 9034  16.717   3.330   7.664
  443POPC   NC3 9035  21.396  31.462   9.464
  443POPC   PO4 9036  21.404  31.457   9.164
  443POPC   GL1 9037  21.379  31.519   8.864
  443POPC   GL2 9038  21.389  31.353   8.864
  443POPC   C1A 9039  21.364  31.478   8.564
  443POPC   D2A 9040  21.360  31.514   8.264
  443POPC   C3A 9041  21.361  31.478   7.964
  443POPC   C4A 9042  21.423  31.459   7.664
  443POPC   C1B 9043  21.435  31.200   8.564
  443POPC   C2B 9044  21.420  31.213   8.264
  443POPC   C3B 9045  21.395  31.198   7.964
  443POPC   C4B 9046  21.466  31.247   7.664
  444POPC   NC3 9047   9.777  30.734   9.464
  444POPC   PO4 9048   9.747  30.716   9.164
  444POPC   GL1 9049   9.737  30.704   8.864
  444POPC   GL2 9050   9.699  30.609   8.864
  444POPC   C1A 9051   9.728  30.659   8.564
  444POPC   D2A 9052   9.757  30.733   8.264
  444POPC   C3A 9053   9.728  30.677   7.964
  444POPC   C4A 9054   9.760  30.661   7.664
  444POPC   C1B 9055   9.559  30.538   8.564
  444POPC   C2B 9056   9.561  30.554   8.264
  444POPC   C3B 9057   9.528  30.494   7.964
  444POPC   C4B 9058   9.597  30.562   7.664
  445POPC   NC3 9059   8.233  30.707   9.464
  445POPC   PO4 9060   8.184  30.723   9.164
  445POPC   GL1 9061   8.179  30.715   8.864
  445POPC   GL2 9062   8.249  30.583   8.864
  445POPC   C1A 9063   8.218  30.689   8.564
  445POPC   D2A 9064   8.173  30.696   8.264
  445POPC   C3A 9065   8.213  30.665   7.964
  445POPC   C4A 9066   8.205  30.675   7.664
  445POPC   C1B 9067   8.268  30.454   8.564
  445POPC   C2B 9068   8.234  30.489   8.264
  445POPC   C3B 9069   8.299  30.477   7.964
  445POPC   C4B 9070   8.313  30.458   7.664
  446POPC   NC3 9071  30.698  21.353   9.464
  446POPC   PO4 9072  30.666  21.423   9.164
  446POPC   GL1 9073  30.703  21.367   8.864
  446POPC   GL2 9074  30.731  21.262   8.864
  446POPC   C1A 9075  30.724  21.353   8.564
  446POPC   D2A 9076  30.673  21.384   8.264
  446POPC   C3A 9077  30.713  21.432   7.964
  446POPC   C4A 9078  30.742  21.342   7.664
  446POPC   C1B 9079  30.713  21.127   8.564
  446POPC   C2B 9080  30.747  21.117   8.264
  446POPC   C3B 9081  30.776  21.159   7.964
  446POPC   C4B 9082  30.745  21.167   7.664
  447POPC   NC3 9083  11.292  26.827   9.464
  447POPC   PO4 9084  11.273  26.832   9.164
  447POPC   GL1 9085  11.286  26.791   8.864
  447POPC   GL2 9086  11.188  26.923   8.864
  447POPC   C1A 9087  11.302  26.824   8.564
  447POPC   D2A 9088  11.301  26.811   8.264
  447POPC   C3A 9089  11.300  26.798   7.964
  447POPC   C4A 9090  11.336  26.837   7.664
  447POPC   C1B 9091  11.115  27.004   8.564
  447POPC   C2B 9092  11.128  27.025   8.264
  447POPC   C3B 9093  11.179  27.061   7.964
  447POPC   C4B 9094  11.170  27.074   7.664
  448POPC   NC3 9095  42.296  34.583   9.464
  448POPC   PO4 9096  42.290  34.582   9.164
  448POPC   GL1 9097  42.357  34.625   8.864
  448POPC   GL2 9098  42.342  34.740   8.864
  448POPC   C1A 9099  42.348  34.561   8.564
  448POPC   D2A 9100  42.320  34.546   8.264
  448POPC   C3A 9101  42.354  34.595   7.964
  448POPC   C4A 9102  42.371  34.577   7.664
  448POPC   C1B 9103  42.295  34.787   8.564
  448POPC   C2B 9104  42.251  34.771   8.264
  448POPC   C3B 9105  42.219  34.826   7.964
  448POPC   C4B 9106  42.239  34.865   7.664
  449POPC   NC3 9107  32.248   3.539   9.464
  449POPC   PO4 9108  32.228   3.543   9.164
  449POPC   GL1 9109  32.285   3.555   8.864
  449POPC   GL2 9110  32.076   3.525   8.864
  449POPC   C1A 9111  32.216   3.590   8.564
  449POPC   D2A 9112  32.223   3.551   8.264
  449POPC   C3A 9113  32.265   3.591   7.964
  449POPC   C4A 9114  32.208   3.558   7.664
  449POPC   C1B 9115  32.005   3.546   8.564
  449POPC   C2B 9116  31.984   3.520   8.264
  449POPC   C3B 9117  32.017   3.504   7.964
  449POPC   C4B 9118  31.962   3.488   7.664
  450POPC   NC3 9119  32.270  38.422   9.464
  450POPC   PO4 9120  32.269  38.442   9.164
  450POPC   GL1 9121  32.229  38.464   8.864
  450POPC   GL2 9122  32.232  38.523   8.864
  450POPC   C1A 9123  32.277  38.430   8.564
  450POPC   D2A 9124  32.215  38.489   8.264
  450POPC   C3A 9125  32.229  38.411   7.964
  450POPC   C4A 9126  32.289  38.493   7.664
  450POPC   C1B 9127  32.158  38.641   8.564
  450POPC   C2B 9128  32.120  38.656   8.264
  450POPC   C3B 9129  32.092  38.624   7.964
  450POPC   C4B 9130  32.127  38.713   7.664
  451POPC   NC3 9131   0.431  26.795   9.464
  451POPC   PO4 9132   0.448  26.821   9.164
  451POPC   GL1 9133   0.419  26.783   8.864
  451POPC   GL2 9134   0.333  26.951   8.864
  451POPC   C1A 9135   0.486  26.849   8.564
  451POPC   D2A 9136   0.451  26.857   8.264
  451POPC   C3A 9137   0.430  26.798   7.964
  451POPC   C4A 9138   0.420  26.776   7.664
  451POPC   C1B 9139   0.263  27.045   8.564
  451POPC   C2B 9140   0.337  26.986   8.264
  451POPC   C3B 9141   0.326  26.996   7.964
  451POPC   C4B 9142   0.333  26.981   7.664
  452POPC   NC3 9143   1.256  25.268   9.464
  452POPC   PO4 9144   1.260  25.223   9.164
  452POPC   GL1 9145   1.211  25.285   8.864
  452POPC   GL2 9146   1.260  25.155   8.864
  452POPC   C1A 9147   1.261  25.275   8.564
  452POPC   D2A 9148   1.171  25.249   8.264
  452POPC   C3A 9149   1.260  25.292   7.964
  452POPC   C4A 9150   1.228  25.241   7.664
  452POPC   C1B 9151   1.267  24.971   8.564
  452POPC   C2B 9152   1.269  25.004   8.264
  452POPC   C3B 9153   1.236  25.030   7.964
  452POPC   C4B 9154   1.220  25.020   7.664
  453POPC   NC3 9155   1.957  43.910   9.464
  453POPC   PO4 9156   2.000  43.894   9.164
  453POPC   GL1 9157   1.991  43.874   8.864
  453POPC   GL2 9158   1.892  43.851   8.864
  453POPC   C1A 9159   1.978  43.882   8.564
  453POPC   D2A 9160   2.020  43.869   8.264
  453POPC   C3A 9161   1.959  43.889   7.964
  453POPC   C4A 9162   2.010  43.900   7.664
  453POPC   C1B 9163   1.719  43.925   8.564
  453POPC   C2B 9164   1.696  43.878   8.264
  453POPC   C3B 9165   1.770  43.870   7.964
  453POPC   C4B 9166   1.775  43.892   7.664
  454POPC   NC3 9167  34.599  39.232   9.464
  454POPC   PO4 9168  34.604  39.200   9.164
  454POPC   GL1 9169  34.567  39.192   8.864
  454POPC   GL2 9170  34.549  39.392   8.864
  454POPC   C1A 9171  34.546  39.211   8.564
  454POPC   D2A 9172  34.574  39.188   8.264
  454POPC   C3A 9173  34.615  39.261   7.964
  454POPC   C4A 9174  34.615  39.224   7.664
  454POPC   C1B 9175  34.521  39.488   8.564
  454POPC   C2B 9176  34.524  39.454   8.264
  454POPC   C3B 9177  34.471  39.495   7.964
  454POPC   C4B 9178  34.542  39.442   7.664
  455POPC   NC3 9179   6.650  33.755   9.464
  455POPC   PO4 9180   6.621  33.753   9.164
  455POPC   GL1 9181   6.690  33.816   8.864
  455POPC   GL2 9182   6.713  33.716   8.864
  455POPC   C1A 9183   6.662  33.831   8.564
  455POPC   D2A 9184   6.689  33.837   8.264
  455POPC   C3A 9185   6.679  33.811   7.964
  455POPC   C4A 9186   6.633  33.807   7.664
  455POPC   C1B 9187   6.848  33.697   8.564
  455POPC   C2B 9188   6.852  33.619   8.264
  455POPC   C3B 9189   6.853  33.628   7.964
  455POPC   C4B 9190   6.866  33.619   7.664
  456POPC   NC3 9191  20.572  36.110   9.464
  456POPC   PO4 9192  20.636  36.094   9.164
  456POPC   GL1 9193  20.612  36.163   8.864
  456POPC   GL2 9194  20.530  36.119   8.864
  456POPC   C1A 9195  20.563  36.078   8.564
  456POPC   D2A 9196  20.584  36.082   8.264
  456POPC   C3A 9197  20.646  36.085   7.964
  456POPC   C4A 9198  20.644  36.111   7.664
  456POPC   C1B 9199  20.339  36.030   8.564
  456POPC   C2B 9200  20.365  36.049   8.264
  456POPC   C3B 9201  20.350  36.042   7.964
  456POPC   C4B 9202  20.383  36.053   7.664
  457POPC   NC3 9203  36.173  13.601   9.464
  457POPC   PO4 9204  36.090  13.633   9.164
  457POPC   GL1 9205  36.168  13.665   8.864
  457POPC   GL2 9206  35.967  13.571   8.864
  457POPC   C1A 9207  36.087  13.607   8.564
  457POPC   D2A 9208  36.172  13.593   8.264
  457POPC   C3A 9209  36.092  13.660   7.964
  457POPC   C4A 9210  36.168  13.581   7.664
  457POPC   C1B 9211  35.871  13.522   8.564
  457POPC   C2B 9212  35.877  13.493   8.264
  457POPC   C3B 9213  35.941  13.554   7.964
  457POPC   C4B 9214  35.875  13.501   7.664
  458POPC   NC3 9215  36.946  23.720   9.464
  458POPC   PO4 9216  36.899  23.691   9.164
  458POPC   GL1 9217  36.908  23.708   8.864
  458POPC   GL2 9218  36.933  23.640   8.864
  458POPC   C1A 9219  36.890  23.686   8.564
  458POPC   D2A 9220  36.868  23.707   8.264
  458POPC   C3A 9221  36.952  23.763   7.964
  458POPC   C4A 9222  36.928  23.688   7.664
  458POPC   C1B 9223  37.020  23.459   8.564
  458POPC   C2B 9224  37.060  23.548   8.264
  458POPC   C3B 9225  37.064  23.547   7.964
  458POPC   C4B 9226  37.024  23.537   7.664
  459POPC   NC3 9227  29.119  17.542   9.464
  459POPC   PO4 9228  29.176  17.503   9.164
  459POPC   GL1 9229  29.155  17.491   8.864
  459POPC   GL2 9230  29.181  17.660   8.864
  459POPC   C1A 9231  29.139  17.514   8.564
  459POPC   D2A 9232  29.168  17.481   8.264
  459POPC   C3A 9233  29.184  17.474   7.964
  459POPC   C4A 9234  29.106  17.459   7.664
  459POPC   C1B 9235  29.156  17.748   8.564
  459POPC   C2B 9236  29.141  17.801   8.264
  459POPC   C3B 9237  29.155  17.784   7.964
  459POPC   C4B 9238  29.196  17.728   7.664
  460POPC   NC3 9239  30.689  11.326   9.464
  460POPC   PO4 9240  30.696  11.274   9.164
  460POPC   GL1 9241  30.720  11.346   8.864
  460POPC   GL2 9242  30.764  11.205   8.864
  460POPC   C1A 9243  30.678  11.279   8.564
  460POPC   D2A 9244  30.660  11.270   8.264
  460POPC   C3A 9245  30.671  11.281   7.964
  460POPC   C4A 9246  30.729  11.347   7.664
  460POPC   C1B 9247  30.867  11.139   8.564
  460POPC   C2B 9248  30.869  11.169   8.264
  460POPC   C3B 9249  30.883  11.180   7.964
  460POPC   C4B 9250  30.942  11.108   7.664
  461POPC   NC3 9251  29.886  38.451   9.464
  461POPC   PO4 9252  29.881  38.407   9.164
  461POPC   GL1 9253  29.931  38.499   8.864
  461POPC   GL2 9254  29.783  38.553   8.864
  461POPC   C1A 9255  29.873  38.498   8.564
  461POPC   D2A 9256  29.941  38.411   8.264
  461POPC   C3A 9257  29.961  38.499   7.964
  461POPC   C4A 9258  29.954  38.406   7.664
  461POPC   C1B 9259  29.715  38.625   8.564
  461POPC   C2B 9260  29.713  38.626   8.264
  461POPC   C3B 9261  29.694  38.577   7.964
  461POPC   C4B 9262  29.743  38.611   7.664
  462POPC   NC3 9263   4.273  42.311   9.464
  462POPC   PO4 9264   4.324  42.311   9.164
  462POPC   GL1 9265   4.297  42.343   8.864
  462POPC   GL2 9266   4.407  42.415   8.864
  462POPC   C1A 9267   4.342  42.355   8.564
  462POPC   D2A 9268   4.282  42.341   8.264
  462POPC   C3A 9269   4.278  42.314   7.964
  462POPC   C4A 9270   4.315  42.343   7.664
  462POPC   C1B 9271   4.561  42.488   8.564
  462POPC   C2B 9272   4.464  42.518   8.264
  462POPC   C3B 9273   4.464  42.446   7.964
  462POPC   C4B 9274   4.516  42.454   7.664
  463POPC   NC3 9275  22.946  31.450   9.464
  463POPC   PO4 9276  22.900  31.491   9.164
  463POPC   GL1 9277  22.933  31.511   8.864
  463POPC   GL2 9278  22.906  31.329   8.864
  463POPC   C1A 9279  22.897  31.504   8.564
  463POPC   D2A 9280  22.900  31.473   8.264
  463POPC   C3A 9281  22.909  31.487   7.964
  463POPC   C4A 9282  22.938  31.488   7.664
  463POPC   C1B 9283  22.737  31.255   8.564
  463POPC   C2B 9284  22.733  31.296   8.264
  463POPC   C3B 9285  22.787  31.317   7.964
  463POPC   C4B 9286  22.781  31.308   7.664
  464POPC   NC3 9287  22.192  41.513   9.464
  464POPC   PO4 9288  22.159  41.548   9.164
  464POPC   GL1 9289  22.208  41.542   8.864
  464POPC   GL2 9290  22.123  41.461   8.864
  464POPC   C1A 9291  22.188  41.533   8.564
  464POPC   D2A 9292  22.120  41.556   8.264
  464POPC   C3A 9293  22.176  41.583   7.964
  464POPC   C4A 9294  22.164  41.531   7.664
  464POPC   C1B 9295  22.215  41.325   8.564
  464POPC   C2B 9296  22.135  41.292   8.264
  464POPC   C3B 9297  22.177  41.262   7.964
  464POPC   C4B 9298  22.136  41.312   7.664
  465POPC   NC3 9299  15.931   8.947   9.464
  465POPC   PO4 9300  15.989   8.942   9.164
  465POPC   GL1 9301  15.958   8.927   8.864
  465POPC   GL2 9302  15.852   8.957   8.864
  465POPC   C1A 9303  15.955   8.922   8.564
  465POPC   D2A 9304  15.919   8.981   8.264
  465POPC   C3A 9305  15.997   9.009   7.964
  465POPC   C4A 9306  15.979   8.951   7.664
  465POPC   C1B 9307  15.690   8.943   8.564
  465POPC   C2B 9308  15.692   8.970   8.264
  465POPC   C3B 9309  15.711   8.998   7.964
  465POPC   C4B 9310  15.750   8.935   7.664
  466POPC   NC3 9311  18.261  15.222   9.464
  466POPC   PO4 9312  18.273  15.207   9.164
  466POPC   GL1 9313  18.236  15.189   8.864
  466POPC   GL2 9314  18.117  15.221   8.864
  466POPC   C1A 9315  18.277  15.227   8.564
  466POPC   D2A 9316  18.254  15.149   8.264
  466POPC   C3A 9317  18.301  15.159   7.964
  466POPC   C4A 9318  18.287  15.133   7.664
  466POPC   C1B 9319  18.055  15.185   8.564
  466POPC   C2B 9320  17.998  15.197   8.264
  466POPC   C3B 9321  18.004  15.154   7.964
  466POPC   C4B 9322  17.994  15.207   7.664
  467POPC   NC3 9323  39.206  36.890   9.464
  467POPC   PO4 9324  39.272  36.896   9.164
  467POPC   GL1 9325  39.259  36.879   8.864
  467POPC   GL2 9326  39.111  36.856   8.864
  467POPC   C1A 9327  39.267  36.926   8.564
  467POPC   D2A 9328  39.258  36.918   8.264
  467POPC   C3A 9329  39.245  36.924   7.964
  467POPC   C4A 9330  39.210  36.946   7.664
  467POPC   C1B 9331  38.984  36.902   8.564
  467POPC   C2B 9332  38.977  36.852   8.264
  467POPC   C3B 9333  38.955  36.909   7.964
  467POPC   C4B 9334  38.995  36.856   7.664
  468POPC   NC3 9335  34.568  26.035   9.464
  468POPC   PO4 9336  34.584  26.089   9.164
  468POPC   GL1 9337  34.620  26.016   8.864
  468POPC   GL2 9338  34.458  25.975   8.864
  468POPC   C1A 9339  34.594  26.009   8.564
  468POPC   D2A 9340  34.600  26.040   8.264
  468POPC   C3A 9341  34.564  26.090   7.964
  468POPC   C4A 9342  34.583  26.010   7.664
  468POPC   C1B 9343  34.374  25.870   8.564
  468POPC   C2B 9344  34.360  25.871   8.264
  468POPC   C3B 9345  34.395  25.874   7.964
  468POPC   C4B 9346  34.382  25.866   7.664
  469POPC   NC3 9347  40.007  15.955   9.464
  469POPC   PO4 9348  40.034  15.973   9.164
  469POPC   GL1 9349  39.965  15.980   8.864
  469POPC   GL2 9350  39.945  15.810   8.864
  469POPC   C1A 9351  40.047  15.977   8.564
  469POPC   D2A 9352  39.967  15.963   8.264
  469POPC   C3A 9353  40.019  15.914   7.964
  469POPC   C4A 9354  40.036  15.973   7.664
  469POPC   C1B 9355  39.901  15.738   8.564
  469POPC   C2B 9356  39.892  15.755   8.264
  469POPC   C3B 9357  39.855  15.753   7.964
  469POPC   C4B 9358  39.816  15.768   7.664
  470POPC   NC3 9359  39.963  43.126   9.464
  470POPC   PO4 9360  40.018  43.141   9.164
  470POPC   GL1 9361  40.030  43.160   8.864
  470POPC   GL2 9362  40.080  43.231   8.864
  470POPC   C1A 9363  39.989  43.130   8.564
  470POPC   D2A 9364  40.056  43.158   8.264
  470POPC   C3A 9365  40.028  43.145   7.964
  470POPC   C4A 9366  40.004  43.118   7.664
  470POPC   C1B 9367  40.147  43.340   8.564
  470POPC   C2B 9368  40.097  43.361   8.264
  470POPC   C3B 9369  40.106  43.365   7.964
  470POPC   C4B 9370  40.142  43.290   7.664
  471POPC   NC3 9371  32.996   1.198   9.464
  471POPC   PO4 9372  33.019   1.206   9.164
  471POPC   GL1 9373  33.067   1.200   8.864
  471POPC   GL2 9374  32.945   1.238   8.864
  471POPC   C1A 9375  33.047   1.168   8.564
  471POPC   D2A 9376  32.988   1.210   8.264
  471POPC   C3A 9377  33.011   1.177   7.964
  471POPC   C4A 9378  33.063   1.234   7.664
  471POPC   C1B 9379  32.844   1.403   8.564
  471POPC   C2B 9380  32.834   1.363   8.264
  471POPC   C3B 9381  32.771   1.314   7.964
  471POPC   C4B 9382  32.805   1.305   7.664
  472POPC   NC3 9383   7.457   9.775   9.464
  472POPC   PO4 9384   7.383   9.781   9.164
  472POPC   GL1 9385   7.460   9.756   8.864
  472POPC   GL2 9386   7.266   9.856   8.864
  472POPC   C1A 9387   7.445   9.780   8.564
  472POPC   D2A 9388   7.422   9.698   8.264
  472POPC   C3A 9389   7.453   9.704   7.964
  472POPC   C4A 9390   7.447   9.793   7.664
  472POPC   C1B 9391   7.247   9.858   8.564
  472POPC   C2B 9392   7.193   9.891   8.264
  472POPC   C3B 9393   7.195   9.850   7.964
  472POPC   C4B 9394   7.240   9.851   7.664
  473POPC   NC3 9395  29.109   8.202   9.464
  473POPC   PO4 9396  29.114   8.234   9.164
  473POPC   GL1 9397  29.171   8.164   8.864
  473POPC   GL2 9398  29.052   8.216   8.864
  473POPC   C1A 9399  29.194   8.244   8.564
  473POPC   D2A 9400  29.154   8.180   8.264
  473POPC   C3A 9401  29.148   8.151   7.964
  473POPC   C4A 9402  29.177   8.239   7.664
  473POPC   C1B 9403  28.913   8.325   8.564
  473POPC   C2B 9404  28.943   8.284   8.264
  473POPC   C3B 9405  28.922   8.321   7.964
  473POPC   C4B 9406  28.916   8.349   7.664
  474POPC   NC3 9407  33.762   0.405   9.464
  474POPC   PO4 9408  33.763   0.457   9.164
  474POPC   GL1 9409  33.804   0.410   8.864
  474POPC   GL2 9410  33.936   0.344   8.864
  474POPC   C1A 9411  33.775   0.460   8.564
  474POPC   D2A 9412  33.753   0.389   8.264
  474POPC   C3A 9413  33.801   0.454   7.964
  474POPC   C4A 9414  33.765   0.484   7.664
  474POPC   C1B 9415  33.960   0.296   8.564
  474POPC   C2B 9416  33.968   0.317   8.264
  474POPC   C3B 9417  34.025   0.326   7.964
  474POPC   C4B 9418  33.964   0.264   7.664
  475POPC   NC3 9419  19.884  18.311   9.464
  475POPC   PO4 9420  19.840  18.283   9.164
  475POPC   GL1 9421  19.866  18.279   8.864
  475POPC   GL2 9422  19.826  18.177   8.864
  475POPC   C1A 9423  19.880  18.317   8.564
  475POPC   D2A 9424  19.785  18.326   8.264
  475POPC   C3A 9425  19.863  18.288   7.964
  475POPC   C4A 9426  19.801  18.257   7.664
  475POPC   C1B 9427  19.808  18.048   8.564
  475POPC   C2B 9428  19.720  18.004   8.264
  475POPC   C3B 9429  19.761  18.091   7.964
  475POPC   C4B 9430  19.721  18.026   7.664
  476POPC   NC3 9431  43.087  13.647   9.464
  476POPC   PO4 9432  43.158  13.642   9.164
  476POPC   GL1 9433  43.107  13.627   8.864
  476POPC   GL2 9434  43.104  13.501   8.864
  476POPC   C1A 9435  43.101  13.658   8.564
  476POPC   D2A 9436  43.071  13.635   8.264
  476POPC   C3A 9437  43.123  13.590   7.964
  476POPC   C4A 9438  43.078  13.663   7.664
  476POPC   C1B 9439  43.135  13.376   8.564
  476POPC   C2B 9440  43.133  13.366   8.264
  476POPC   C3B 9441  43.169  13.393   7.964
  476POPC   C4B 9442  43.211  13.357   7.664
  477POPC   NC3 9443  16.749  10.488   9.464
  477POPC   PO4 9444  16.732  10.485   9.164
  477POPC   GL1 9445  16.689  10.566   8.864
  477POPC   GL2 9446  16.613  10.537   8.864
  477POPC   C1A 9447  16.749  10.530   8.564
  477POPC   D2A 9448  16.758  10.481   8.264
  477POPC   C3A 9449  16.707  10.519   7.964
  477POPC   C4A 9450  16.751  10.542   7.664
  477POPC   C1B 9451  16.535  10.635   8.564
  477POPC   C2B 9452  16.528  10.559   8.264
  477POPC   C3B 9453  16.491  10.580   7.964
  477POPC   C4B 9454  16.518  10.632   7.664
  478POPC   NC3 9455  22.959   8.211   9.464
  478POPC   PO4 9456  22.924   8.229   9.164
  478POPC   GL1 9457  22.901   8.150   8.864
  478POPC   GL2 9458  23.016   8.111   8.864
  478POPC   C1A 9459  22.976   8.239   8.564
  478POPC   D2A 9460  22.980   8.199   8.264
  478POPC   C3A 9461  22.986   8.194   7.964
  478POPC   C4A 9462  22.897   8.172   7.664
  478POPC   C1B 9463  23.096   7.998   8.564
  478POPC   C2B 9464  23.141   8.039   8.264
  478POPC   C3B 9465  23.153   8.086   7.964
  478POPC   C4B 9466  23.127   8.035   7.664
  479POPC   NC3 9467  30.730  26.859   9.464
  479POPC   PO4 9468  30.721  26.787   9.164
  479POPC   GL1 9469  30.744  26.818   8.864
  479POPC   GL2 9470  30.728  26.899   8.864
  479POPC   C1A 9471  30.671  26.845   8.564
  479POPC   D2A 9472  30.688  26.853   8.264
  479POPC   C3A 9473  30.716  26.821   7.964
  479POPC   C4A 9474  30.702  26.791   7.664
  479POPC   C1B 9475  30.715  27.028   8.564
  479POPC   C2B 9476  30.669  27.097   8.264
  479POPC   C3B 9477  30.696  27.065   7.964
  479POPC   C4B 9478  30.732  27.063   7.664
  480POPC   NC3 9479  28.409   7.379   9.464
  480POPC   PO4 9480  28.394   7.411   9.164
  480POPC   GL1 9481  28.348   7.464   8.864
  480POPC   GL2 9482  28.362   7.316   8.864
  480POPC   C1A 9483  28.393   7.419   8.564
  480POPC   D2A 9484  28.415   7.444   8.264
  480POPC   C3A 9485  28.348   7.413   7.964
  480POPC   C4A 9486  28.389   7.465   7.664
  480POPC   C1B 9487  28.280   7.224   8.564
  480POPC   C2B 9488  28.249   7.154   8.264
  480POPC   C3B 9489  28.266   7.223   7.964
  480POPC   C4B 9490  28.305   7.234   7.664
  481POPC   NC3 9491  16.765   0.460   9.464
  481POPC   PO4 9492  16.682   0.469   9.164
  481POPC   GL1 9493  16.704   0.478   8.864
  481POPC   GL2 9494  16.615   0.350   8.864
  481POPC   C1A 9495  16.706   0.419   8.564
  481POPC   D2A 9496  16.743   0.406   8.264
  481POPC   C3A 9497  16.734   0.456   7.964
  481POPC   C4A 9498  16.715   0.395   7.664
  481POPC   C1B 9499  16.528   0.272   8.564
  481POPC   C2B 9500  16.569   0.343   8.264
  481POPC   C3B 9501  16.566   0.307   7.964
  481POPC   C4B 9502  16.490   0.306   7.664
  482POPC   NC3 9503  36.118  32.200   9.464
  482POPC   PO4 9504  36.086  32.256   9.164
  482POPC   GL1 9505  36.174  32.253   8.864
  482POPC   GL2 9506  36.041  32.184   8.864
  482POPC   C1A 9507  36.119  32.203   8.564
  482POPC   D2A 9508  36.140  32.259   8.264
  482POPC   C3A 9509  36.164  32.261   7.964
  482POPC   C4A 9510  36.094  32.281   7.664
  482POPC   C1B 9511  35.940  32.134   8.564
  482POPC   C2B 9512  35.949  32.136   8.264
  482POPC   C3B 9513  35.968  32.098   7.964
  482POPC   C4B 9514  35.929  32.121   7.664
  483POPC   NC3 9515  33.797  22.138   9.464
  483POPC   PO4 9516  33.838  22.174   9.164
  483POPC   GL1 9517  33.768  22.204   8.864
  483POPC   GL2 9518  33.941  22.169   8.864
  483POPC   C1A 9519  33.832  22.153   8.564
  483POPC   D2A 9520  33.815  22.180   8.264
  483POPC   C3A 9521  33.751  22.135   7.964
  483POPC   C4A 9522  33.771  22.114   7.664
  483POPC   C1B 9523  34.066  22.142   8.564
  483POPC   C2B 9524  34.052  22.055   8.264
  483POPC   C3B 9525  34.012  22.049   7.964
  483POPC   C4B 9526  34.080  22.081   7.664
  484POPC   NC3 9527  24.529  15.912   9.464
  484POPC   PO4 9528  24.505  15.949   9.164
  484POPC   GL1 9529  24.501  15.998   8.864
  484POPC   GL2 9530  24.636  15.854   8.864
  484POPC   C1A 9531  24.454  15.999   8.564
  484POPC   D2A 9532  24.508  15.960   8.264
  484POPC   C3A 9533  24.479  15.943   7.964
  484POPC   C4A 9534  24.505  15.970   7.664
  484POPC   C1B 9535  24.744  15.866   8.564
  484POPC   C2B 9536  24.691  15.805   8.264
  484POPC   C3B 9537  24.718  15.853   7.964
  484POPC   C4B 9538  24.663  15.882   7.664
  485POPC   NC3 9539  29.909   1.166   9.464
  485POPC   PO4 9540  29.906   1.214   9.164
  485POPC   GL1 9541  29.884   1.181   8.864
  485POPC   GL2 9542  30.005   1.351   8.864
  485POPC   C1A 9543  29.882   1.239   8.564
  485POPC   D2A 9544  29.937   1.252   8.264
  485POPC   C3A 9545  29.892   1.249   7.964
  485POPC   C4A 9546  29.899   1.252   7.664
  485POPC   C1B 9547  30.100   1.396   8.564
  485POPC   C2B 9548  30.141   1.424   8.264
  485POPC   C3B 9549  30.139   1.370   7.964
  485POPC   C4B 9550  30.104   1.423   7.664
  486POPC   NC3 9551  37.634  39.985   9.464
  486POPC   PO4 9552  37.724  40.023   9.164
  486POPC   GL1 9553  37.630  40.038   8.864
  486POPC   GL2 9554  37.610  40.105   8.864
  486POPC   C1A 9555  37.663  40.048   8.564
  486POPC   D2A 9556  37.650  40.006   8.264
  486POPC   C3A 9557  37.706  40.015   7.964
  486POPC   C4A 9558  37.718  40.040   7.664
  486POPC   C1B 9559  37.464  40.110   8.564
  486POPC   C2B 9560  37.513  40.118   8.264
  486POPC   C3B 9561  37.457  40.134   7.964
  486POPC   C4B 9562  37.473  40.180   7.664
  487POPC   NC3 9563   2.756  39.185   9.464
  487POPC   PO4 9564   2.767  39.276   9.164
  487POPC   GL1 9565   2.808  39.256   8.864
  487POPC   GL2 9566   2.736  39.315   8.864
  487POPC   C1A 9567   2.720  39.248   8.564
  487POPC   D2A 9568   2.740  39.187   8.264
  487POPC   C3A 9569   2.735  39.223   7.964
  487POPC   C4A 9570   2.738  39.275   7.664
  487POPC   C1B 9571   2.756  39.514   8.564
  487POPC   C2B 9572   2.748  39.464   8.264
  487POPC   C3B 9573   2.748  39.443   7.964
  487POPC   C4B 9574   2.831  39.522   7.664
  488POPC   NC3 9575  18.315  40.009   9.464
  488POPC   PO4 9576  18.326  39.973   9.164
  488POPC   GL1 9577  18.289  40.043   8.864
  488POPC   GL2 9578  18.339  39.867   8.864
  488POPC   C1A 9579  18.299  40.026   8.564
  488POPC   D2A 9580  18.325  40.040   8.264
  488POPC   C3A 9581  18.278  40.054   7.964
  488POPC   C4A 9582  18.270  40.030   7.664
  488POPC   C1B 9583  18.347  39.745   8.564
  488POPC   C2B 9584  18.309  39.786   8.264
  488POPC   C3B 9585  18.325  39.766   7.964
  488POPC   C4B 9586  18.328  39.781   7.664
  489POPC   NC3 9587  35.339   1.234   9.464
  489POPC   PO4 9588  35.307   1.252   9.164
  489POPC   GL1 9589  35.305   1.247   8.864
  489POPC   GL2 9590  35.374   1.360   8.864
  489POPC   C1A 9591  35.365   1.192   8.564
  489POPC   D2A 9592  35.352   1.204   8.264
  489POPC   C3A 9593  35.315   1.213   7.964
  489POPC   C4A 9594  35.345   1.212   7.664
  489POPC   C1B 9595  35.358   1.487   8.564
  489POPC   C2B 9596  35.300   1.448   8.264
  489POPC   C3B 9597  35.299   1.494   7.964
  489POPC   C4B 9598  35.323   1.500   7.664
  490POPC   NC3 9599  26.775  33.015   9.464
  490POPC   PO4 9600  26.788  33.042   9.164
  490POPC   GL1 9601  26.767  33.051   8.864
  490POPC   GL2 9602  26.662  32.991   8.864
  490POPC   C1A 9603  26.851  32.985   8.564
  490POPC   D2A 9604  26.808  32.981   8.264
  490POPC   C3A 9605  26.807  32.990   7.964
  490POPC   C4A 9606  26.787  33.040   7.664
  490POPC   C1B 9607  26.530  33.015   8.564
  490POPC   C2B 9608  26.586  33.038   8.264
  490POPC   C3B 9609  26.520  33.062   7.964
  490POPC   C4B 9610  26.581  33.087   7.664
  491POPC   NC3 9611  32.230  19.884   9.464
  491POPC   PO4 9612  32.230  19.837   9.164
  491POPC   GL1 9613  32.209  19.874   8.864
  491POPC   GL2 9614  32.125  19.836   8.864
  491POPC   C1A 9615  32.237  19.865   8.564
  491POPC   D2A 9616  32.261  19.835   8.264
  491POPC   C3A 9617  32.234  19.799   7.964
  491POPC   C4A 9618  32.200  19.878   7.664
  491POPC   C1B 9619  32.028  19.876   8.564
  491POPC   C2B 9620  31.970  19.860   8.264
  491POPC   C3B 9621  31.960  19.895   7.964
  491POPC   C4B 9622  32.021  19.946   7.664
  492POPC   NC3 9623  29.108  39.997   9.464
  492POPC   PO4 9624  29.121  40.051   9.164
  492POPC   GL1 9625  29.106  40.016   8.864
  492POPC   GL2 9626  29.071  40.122   8.864
  492POPC   C1A 9627  29.146  39.994   8.564
  492POPC   D2A 9628  29.103  39.976   8.264
  492POPC   C3A 9629  29.105  39.969   7.964
  492POPC   C4A 9630  29.174  40.004   7.664
  492POPC   C1B 9631  29.041  40.178   8.564
  492POPC   C2B 9632  29.015  40.166   8.264
  492POPC   C3B 9633  29.040  40.245   7.964
  492POPC   C4B 9634  29.022  40.196   7.664
  493POPC   NC3 9635  42.333  19.854   9.464
  493POPC   PO4 9636  42.301  19.810   9.164
  493POPC   GL1 9637  42.304  19.876   8.864
  493POPC   GL2 9638  42.429  19.837   8.864
  493POPC   C1A 9639  42.354  19.821   8.564
  493POPC   D2A 9640  42.328  19.879   8.264
  493POPC   C3A 9641  42.319  19.791   7.964
  493POPC   C4A 9642  42.334  19.802   7.664
  493POPC   C1B 9643  42.623  19.862   8.564
  493POPC   C2B 9644  42.585  19.911   8.264
  493POPC   C3B 9645  42.555  19.890   7.964
  493POPC   C4B 9646  42.538  19.826   7.664
  494POPC   NC3 9647  12.835  37.645   9.464
  494POPC   PO4 9648  12.821  37.651   9.164
  494POPC   GL1 9649  12.883  37.702   8.864
  494POPC   GL2 9650  12.956  37.720   8.864
  494POPC   C1A 9651  12.853  37.667   8.564
  494POPC   D2A 9652  12.838  37.639   8.264
  494POPC   C3A 9653  12.832  37.709   7.964
  494POPC   C4A 9654  12.877  37.695   7.664
  494POPC   C1B 9655  13.085  37.830   8.564
  494POPC   C2B 9656  13.085  37.792   8.264
  494POPC   C3B 9657  13.100  37.776   7.964
  494POPC   C4B 9658  13.110  37.816   7.664
  495POPC   NC3 9659   2.014  16.741   9.464
  495POPC   PO4 9660   1.997  16.743   9.164
  495POPC   GL1 9661   1.985  16.720   8.864
  495POPC   GL2 9662   1.875  16.616   8.864
  495POPC   C1A 9663   2.035  16.779   8.564
  495POPC   D2A 9664   1.995  16.780   8.264
  495POPC   C3A 9665   1.994  16.712   7.964
  495POPC   C4A 9666   1.970  16.703   7.664
  495POPC   C1B 9667   1.862  16.579   8.564
  495POPC   C2B 9668   1.793  16.551   8.264
  495POPC   C3B 9669   1.859  16.578   7.964
  495POPC   C4B 9670   1.843  16.549   7.664
  496POPC   NC3 9671  18.285  29.953   9.464
  496POPC   PO4 9672  18.315  29.920   9.164
  496POPC   GL1 9673  18.294  29.896   8.864
  496POPC   GL2 9674  18.183  29.989   8.864
  496POPC   C1A 9675  18.274  29.901   8.564
  496POPC   D2A 9676  18.265  29.921   8.264
  496POPC   C3A 9677  18.331  29.939   7.964
  496POPC   C4A 9678  18.313  29.931   7.664
  496POPC   C1B 9679  18.017  29.986   8.564
  496POPC   C2B 9680  18.031  29.925   8.264
  496POPC   C3B 9681  18.036  29.948   7.964
  496POPC   C4B 9682  18.017  29.989   7.664
  497POPC   NC3 9683  28.398  43.098   9.464
  497POPC   PO4 9684  28.356  43.107   9.164
  497POPC   GL1 9685  28.328  43.107   8.864
  497POPC   GL2 9686  28.273  43.083   8.864
  497POPC   C1A 9687  28.394  43.131   8.564
  497POPC   D2A 9688  28.395  43.093   8.264
  497POPC   C3A 9689  28.336  43.103   7.964
  497POPC   C4A 9690  28.333  43.158   7.664
  497POPC   C1B 9691  28.155  43.107   8.564
  497POPC   C2B 9692  28.107  43.097   8.264
  497POPC   C3B 9693  28.121  43.109   7.964
  497POPC   C4B 9694  28.144  43.064   7.664
  498POPC   NC3 9695  43.061  15.969   9.464
  498POPC   PO4 9696  43.075  15.969   9.164
  498POPC   GL1 9697  43.148  16.002   8.864
  498POPC   GL2 9698  43.185  15.947   8.864
  498POPC   C1A 9699  43.083  15.967   8.564
  498POPC   D2A 9700  43.091  15.943   8.264
  498POPC   C3A 9701  43.129  15.960   7.964
  498POPC   C4A 9702  43.119  15.937   7.664
  498POPC   C1B 9703  43.399  15.923   8.564
  498POPC   C2B 9704  43.326  15.924   8.264
  498POPC   C3B 9705  43.405  15.865   7.964
  498POPC   C4B 9706  43.345  15.954   7.664
  499POPC   NC3 9707  33.844  44.677   9.464
  499POPC   PO4 9708  33.799  44.613   9.164
  499POPC   GL1 9709  33.758  44.648   8.864
  499POPC   GL2 9710  33.729  44.561   8.864
  499POPC   C1A 9711  33.802  44.683   8.564
  499POPC   D2A 9712  33.788  44.703   8.264
  499POPC   C3A 9713  33.842  44.640   7.964
  499POPC   C4A 9714  33.757  44.701   7.664
  499POPC   C1B 9715  33.587  44.502   8.564
  499POPC   C2B 9716  33.659  44.495   8.264
  499POPC   C3B 9717  33.586  44.442   7.964
  499POPC   C4B 9718  33.588  44.507   7.664
  500POPC   NC3 9719   6.609  10.556   9.464
  500POPC   PO4 9720   6.633  10.538   9.164
  500POPC   GL1 9721   6.677  10.558   8.864
  500POPC   GL2 9722   6.748  10.561   8.864
  500POPC   C1A 9723   6.674  10.512   8.564
  500POPC   D2A 9724   6.677  10.517   8.264
  500POPC   C3A 9725   6.664  10.546   7.964
  500POPC   C4A 9726   6.624  10.530   7.664
  500POPC   C1B 9727   6.863  10.526   8.564
  500POPC   C2B 9728   6.926  10.521   8.264
  500POPC   C3B 9729   6.918  10.564   7.964
  500POPC   C4B 9730   6.923  10.481   7.664
  501POPC   NC3 9731   1.218  17.552   9.464
  501POPC   PO4 9732   1.190  17.464   9.164
  501POPC   GL1 9733   1.215  17.483   8.864
  501POPC   GL2 9734   1.111  17.652   8.864
  501POPC   C1A 9735   1.219  17.457   8.564
  501POPC   D2A 9736   1.197  17.479   8.264
  501POPC   C3A 9737   1.222  17.550   7.964
  501POPC   C4A 9738   1.234  17.543   7.664
  501POPC   C1B 9739   1.098  17.709   8.564
  501POPC   C2B 9740   1.080  17.680   8.264
  501POPC   C3B 9741   1.014  17.697   7.964
  501POPC   C4B 9742   1.101  17.687   7.664
  502POPC   NC3 9743  23.754  34.608   9.464
  502POPC   PO4 9744  23.691  34.582   9.164
  502POPC   GL1 9745  23.759  34.553   8.864
  502POPC   GL2 9746  23.850  34.698   8.864
  502POPC   C1A 9747  23.665  34.564   8.564
  502POPC   D2A 9748  23.742  34.528   8.264
  502POPC   C3A 9749  23.734  34.541   7.964
  502POPC   C4A 9750  23.711  34.532   7.664
  502POPC   C1B 9751  23.879  34.768   8.564
  502POPC   C2B 9752  23.895  34.726   8.264
  502POPC   C3B 9753  23.901  34.751   7.964
  502POPC   C4B 9754  23.918  34.708   7.664
  503POPC   NC3 9755  33.764  42.346   9.464
  503POPC   PO4 9756  33.798  42.309   9.164
  503POPC   GL1 9757  33.761  42.359   8.864
  503POPC   GL2 9758  33.856  42.435   8.864
  503POPC   C1A 9759  33.775  42.343   8.564
  503POPC   D2A 9760  33.817  42.346   8.264
  503POPC   C3A 9761  33.776  42.312   7.964
  503POPC   C4A 9762  33.753  42.356   7.664
  503POPC   C1B 9763  33.937  42.563   8.564
  503POPC   C2B 9764  33.947  42.551   8.264
  503POPC   C3B 9765  34.003  42.494   7.964
  503POPC   C4B 9766  34.005  42.513   7.664
  504POPC   NC3 9767   8.969   0.475   9.464
  504POPC   PO4 9768   9.015   0.412   9.164
  504POPC   GL1 9769   8.926   0.389   8.864
  504POPC   GL2 9770   9.133   0.466   8.864
  504POPC   C1A 9771   8.940   0.470   8.564
  504POPC   D2A 9772   8.935   0.441   8.264
  504POPC   C3A 9773   8.958   0.470   7.964
  504POPC   C4A 9774   8.983   0.475   7.664
  504POPC   C1B 9775   9.267   0.415   8.564
  504POPC   C2B 9776   9.236   0.486   8.264
  504POPC   C3B 9777   9.191   0.450   7.964
  504POPC   C4B 9778   9.232   0.489   7.664
  505POPC   NC3 9779   5.112  33.043   9.464
  505POPC   PO4 9780   5.127  32.998   9.164
  505POPC   GL1 9781   5.066  33.009   8.864
  505POPC   GL2 9782   5.053  33.199   8.864
  505POPC   C1A 9783   5.129  33.037   8.564
  505POPC   D2A 9784   5.140  33.064   8.264
  505POPC   C3A 9785   5.120  33.052   7.964
  505POPC   C4A 9786   5.080  32.999   7.664
  505POPC   C1B 9787   5.061  33.291   8.564
  505POPC   C2B 9788   5.110  33.310   8.264
  505POPC   C3B 9789   5.080  33.292   7.964
  505POPC   C4B 9790   5.053  33.277   7.664
  506POPC   NC3 9791  21.399  33.826   9.464
  506POPC   PO4 9792  21.374  33.782   9.164
  506POPC   GL1 9793  21.359  33.773   8.864
  506POPC   GL2 9794  21.372  33.658   8.864
  506POPC   C1A 9795  21.436  33.845   8.564
  506POPC   D2A 9796  21.435  33.752   8.264
  506POPC   C3A 9797  21.372  33.757   7.964
  506POPC   C4A 9798  21.351  33.751   7.664
  506POPC   C1B 9799  21.428  33.536   8.564
  506POPC   C2B 9800  21.422  33.537   8.264
  506POPC   C3B 9801  21.428  33.524   7.964
  506POPC   C4B 9802  21.392  33.523   7.664
  507POPC   NC3 9803   1.960  15.920   9.464
  507POPC   PO4 9804   1.975  15.998   9.164
  507POPC   GL1 9805   1.973  15.956   8.864
  507POPC   GL2 9806   1.935  16.008   8.864
  507POPC   C1A 9807   2.022  15.971   8.564
  507POPC   D2A 9808   2.015  15.985   8.264
  507POPC   C3A 9809   1.988  15.956   7.964
  507POPC   C4A 9810   2.012  15.980   7.664
  507POPC   C1B 9811   1.823  16.169   8.564
  507POPC   C2B 9812   1.811  16.125   8.264
  507POPC   C3B 9813   1.816  16.116   7.964
  507POPC   C4B 9814   1.816  16.117   7.664
  508POPC   NC3 9815   4.295  23.667   9.464
  508POPC   PO4 9816   4.347  23.664   9.164
  508POPC   GL1 9817   4.288  23.700   8.864
  508POPC   GL2 9818   4.203  23.732   8.864
  508POPC   C1A 9819   4.300  23.683   8.564
  508POPC   D2A 9820   4.326  23.667   8.264
  508POPC   C3A 9821   4.315  23.679   7.964
  508POPC   C4A 9822   4.361  23.686   7.664
  508POPC   C1B 9823   4.092  23.758   8.564
  508POPC   C2B 9824   4.108  23.822   8.264
  508POPC   C3B 9825   4.039  23.836   7.964
  508POPC   C4B 9826   4.041  23.835   7.664
  509POPC   NC3 9827   9.725  26.089   9.464
  509POPC   PO4 9828   9.745  26.047   9.164
  509POPC   GL1 9829   9.743  26.053   8.864
  509POPC   GL2 9830   9.876  26.066   8.864
  509POPC   C1A 9831   9.769  26.048   8.564
  509POPC   D2A 9832   9.731  26.010   8.264
  509POPC   C3A 9833   9.735  26.043   7.964
  509POPC   C4A 9834   9.786  26.067   7.664
  509POPC   C1B 9835  10.033  26.066   8.564
  509POPC   C2B 9836  10.025  26.106   8.264
  509POPC   C3B 9837  10.014  26.111   7.964
  509POPC   C4B 9838   9.983  26.136   7.664
  510POPC   NC3 9839   0.406  22.165   9.464
  510POPC   PO4 9840   0.409  22.163   9.164
  510POPC   GL1 9841   0.401  22.137   8.864
  510POPC   GL2 9842   0.311  22.145   8.864
  510POPC   C1A 9843   0.470  22.130   8.564
  510POPC   D2A 9844   0.432  22.196   8.264
  510POPC   C3A 9845   0.461  22.169   7.964
  510POPC   C4A 9846   0.405  22.146   7.664
  510POPC   C1B 9847   0.185  22.018   8.564
  510POPC   C2B 9848   0.232  22.026   8.264
  510POPC   C3B 9849   0.223  22.060   7.964
  510POPC   C4B 9850   0.190  22.031   7.664
  511POPC   NC3 9851   9.007  32.249   9.464
  511POPC   PO4 9852   9.000  32.237   9.164
  511POPC   GL1 9853   8.932  32.253   8.864
  511POPC   GL2 9854   9.012  32.115   8.864
  511POPC   C1A 9855   9.022  32.249   8.564
  511POPC   D2A 9856   8.924  32.286   8.264
  511POPC   C3A 9857   8.960  32.276   7.964
  511POPC   C4A 9858   8.924  32.220   7.664
  511POPC   C1B 9859   8.997  32.015   8.564
  511POPC   C2B 9860   8.997  32.035   8.264
  511POPC   C3B 9861   8.948  32.042   7.964
  511POPC   C4B 9862   8.978  31.997   7.664
  512POPC   NC3 9863  28.409   6.653   9.464
  512POPC   PO4 9864  28.320   6.641   9.164
  512POPC   GL1 9865  28.358   6.669   8.864
  512POPC   GL2 9866  28.249   6.548   8.864
  512POPC   C1A 9867  28.363   6.644   8.564
  512POPC   D2A 9868  28.391   6.654   8.264
  512POPC   C3A 9869  28.412   6.654   7.964
  512POPC   C4A 9870  28.388   6.666   7.664
  512POPC   C1B 9871  28.106   6.538   8.564
  512POPC   C2B 9872  28.169   6.501   8.264
  512POPC   C3B 9873  28.107   6.523   7.964
  512POPC   C4B 9874  28.126   6.572   7.664
  513POPC   NC3 9875  14.419  40.044   9.464
  513POPC   PO4 9876  14.429  40.012   9.164
  513POPC   GL1 9877  14.436  40.040   8.864
  513POPC   GL2 9878  14.355  40.091   8.864
  513POPC   C1A 9879  14.371  39.975   8.564
  513POPC   D2A 9880  14.428  40.039   8.264
  513POPC   C3A 9881  14.419  39.995   7.964
  513POPC   C4A 9882  14.368  40.043   7.664
  513POPC   C1B 9883  14.320  40.191   8.564
  513POPC   C2B 9884  14.263  40.237   8.264
  513POPC   C3B 9885  14.319  40.212   7.964
  513POPC   C4B 9886  14.253  40.245   7.664
  514POPC   NC3 9887  16.749  34.588   9.464
  514POPC   PO4 9888  16.768  34.540   9.164
  514POPC   GL1 9889  16.752  34.605   8.864
  514POPC   GL2 9890  16.699  34.491   8.864
  514POPC   C1A 9891  16.780  34.549   8.564
  514POPC   D2A 9892  16.779  34.567   8.264
  514POPC   C3A 9893  16.682  34.626   7.964
  514POPC   C4A 9894  16.767  34.594   7.664
  514POPC   C1B 9895  16.693  34.375   8.564
  514POPC   C2B 9896  16.608  34.387   8.264
  514POPC   C3B 9897  16.699  34.375   7.964
  514POPC   C4B 9898  16.688  34.305   7.664
  515POPC   NC3 9899  34.528  23.666   9.464
  515POPC   PO4 9900  34.550  23.722   9.164
  515POPC   GL1 9901  34.568  23.760   8.864
  515POPC   GL2 9902  34.521  23.596   8.864
  515POPC   C1A 9903  34.526  23.696   8.564
  515POPC   D2A 9904  34.527  23.678   8.264
  515POPC   C3A 9905  34.562  23.694   7.964
  515POPC   C4A 9906  34.565  23.708   7.664
  515POPC   C1B 9907  34.414  23.558   8.564
  515POPC   C2B 9908  34.419  23.588   8.264
  515POPC   C3B 9909  34.369  23.559   7.964
  515POPC   C4B 9910  34.379  23.511   7.664
  516POPC   NC3 9911  12.872  43.924   9.464
  516POPC   PO4 9912  12.873  43.855   9.164
  516POPC   GL1 9913  12.822  43.907   8.864
  516POPC   GL2 9914  12.908  43.778   8.864
  516POPC   C1A 9915  12.868  43.853   8.564
  516POPC   D2A 9916  12.835  43.925   8.264
  516POPC   C3A 9917  12.868  43.882   7.964
  516POPC   C4A 9918  12.855  43.888   7.664
  516POPC   C1B 9919  13.045  43.713   8.564
  516POPC   C2B 9920  13.008  43.662   8.264
  516POPC   C3B 9921  13.037  43.633   7.964
  516POPC   C4B 9922  12.994  43.663   7.664
  517POPC   NC3 9923  22.946  12.816   9.464
  517POPC   PO4 9924  22.919  12.850   9.164
  517POPC   GL1 9925  22.963  12.867   8.864
  517POPC   GL2 9926  23.081  12.872   8.864
  517POPC   C1A 9927  22.954  12.896   8.564
  517POPC   D2A 9928  22.935  12.893   8.264
  517POPC   C3A 9929  22.895  12.848   7.964
  517POPC   C4A 9930  22.978  12.820   7.664
  517POPC   C1B 9931  23.200  12.748   8.564
  517POPC   C2B 9932  23.201  12.811   8.264
  517POPC   C3B 9933  23.226  12.795   7.964
  517POPC   C4B 9934  23.198  12.806   7.664
  518POPC   NC3 9935  43.110   7.424   9.464
  518POPC   PO4 9936  43.115   7.378   9.164
  518POPC   GL1 9937  43.096   7.427   8.864
  518POPC   GL2 9938  43.189   7.305   8.864
  518POPC   C1A 9939  43.086   7.443   8.564
  518POPC   D2A 9940  43.115   7.384   8.264
  518POPC   C3A 9941  43.085   7.384   7.964
  518POPC   C4A 9942  43.068   7.411   7.664
  518POPC   C1B 9943  43.292   7.275   8.564
  518POPC   C2B 9944  43.259   7.227   8.264
  518POPC   C3B 9945  43.291   7.290   7.964
  518POPC   C4B 9946  43.336   7.299   7.664
  519POPC   NC3 9947  43.122  28.344   9.464
  519POPC   PO4 9948  43.116  28.389   9.164
  519POPC   GL1 9949  43.116  28.406   8.864
  519POPC   GL2 9950  43.139  28.504   8.864
  519POPC   C1A 9951  43.125  28.330   8.564
  519POPC   D2A 9952  43.118  28.410   8.264
  519POPC   C3A 9953  43.080  28.401   7.964
  519POPC   C4A 9954  43.065  28.344   7.664
  519POPC   C1B 9955  43.228  28.592   8.564
  519POPC   C2B 9956  43.164  28.612   8.264
  519POPC   C3B 9957  43.183  28.619   7.964
  519POPC   C4B 9958  43.210  28.612   7.664
  520POPC   NC3 9959  25.234  20.615   9.464
  520POPC   PO4 9960  25.269  20.612   9.164
  520POPC   GL1 9961  25.281  20.625   8.864
  520POPC   GL2 9962  25.154  20.731   8.864
  520POPC   C1A 9963  25.264  20.565   8.564
  520POPC   D2A 9964  25.219  20.565   8.264
  520POPC   C3A 9965  25.264  20.655   7.964
  520POPC   C4A 9966  25.237  20.644   7.664
  520POPC   C1B 9967  25.105  20.723   8.564
  520POPC   C2B 9968  25.072  20.737   8.264
  520POPC   C3B 9969  25.110  20.736   7.964
  520POPC   C4B 9970  25.085  20.744   7.664
  521POPC   NC3 9971   0.418  16.759   9.464
  521POPC   PO4 9972   0.477  16.731   9.164
  521POPC   GL1 9973   0.462  16.743   8.864
  521POPC   GL2 9974   0.307  16.770   8.864
  521POPC   C1A 9975   0.474  16.779   8.564
  521POPC   D2A 9976   0.466  16.773   8.264
  521POPC   C3A 9977   0.432  16.692   7.964
  521POPC   C4A 9978   0.444  16.730   7.664
  521POPC   C1B 9979   0.149  16.831   8.564
  521POPC   C2B 9980   0.155  16.803   8.264
  521POPC   C3B 9981   0.203  16.752   7.964
  521POPC   C4B 9982   0.179  16.831   7.664
  522POPC   NC3 9983   7.429  24.446   9.464
  522POPC   PO4 9984   7.380  24.481   9.164
  522POPC   GL1 9985   7.421  24.490   8.864
  522POPC   GL2 9986   7.313  24.598   8.864
  522POPC   C1A 9987   7.405  24.523   8.564
  522POPC   D2A 9988   7.471  24.505   8.264
  522POPC   C3A 9989   7.417  24.451   7.964
  522POPC   C4A 9990   7.387  24.453   7.664
  522POPC   C1B 9991   7.304  24.655   8.564
  522POPC   C2B 9992   7.312  24.664   8.264
  522POPC   C3B 9993   7.298  24.692   7.964
  522POPC   C4B 9994   7.263  24.677   7.664
  523POPC   NC3 9995  39.196  39.993   9.464
  523POPC   PO4 9996  39.260  40.036   9.164
  523POPC   GL1 9997  39.254  39.992   8.864
  523POPC   GL2 9998  39.167  39.925   8.864
  523POPC   C1A 9999  39.194  40.016   8.564
  523POPC   D2A10000  39.268  39.960   8.264
  523POPC   C3A10001  39.274  40.032   7.964
  523POPC   C4A10002  39.268  40.057   7.664
  523POPC   C1B10003  39.021  39.833   8.564
  523POPC   C2B10004  39.017  39.888   8.264
  523POPC   C3B10005  38.982  39.848   7.964
  523POPC   C4B10006  39.013  39.872   7.664
  524POPC   NC310007  24.522   7.444   9.464
  524POPC   PO410008  24.528   7.453   9.164
  524POPC   GL110009  24.443   7.429   8.864
  524POPC   GL210010  24.423   7.400   8.864
  524POPC   C1A10011  24.497   7.376   8.564
  524POPC   D2A10012  24.511   7.431   8.264
  524POPC   C3A10013  24.467   7.390   7.964
  524POPC   C4A10014  24.447   7.379   7.664
  524POPC   C1B10015  24.282   7.322   8.564
  524POPC   C2B10016  24.266   7.276   8.264
  524POPC   C3B10017  24.274   7.311   7.964
  524POPC   C4B10018  24.324   7.333   7.664
  525POPC   NC310019  31.518  38.471   9.464
  525POPC   PO410020  31.511  38.478   9.164
  525POPC   GL110021  31.517  38.493   8.864
  525POPC   GL210022  31.541  38.507   8.864
  525POPC   C1A10023  31.514  38.426   8.564
  525POPC   D2A10024  31.484  38.440   8.264
  525POPC   C3A10025  31.429  38.406   7.964
  525POPC   C4A10026  31.468  38.465   7.664
  525POPC   C1B10027  31.687  38.567   8.564
  525POPC   C2B10028  31.751  38.538   8.264
  525POPC   C3B10029  31.696  38.515   7.964
  525POPC   C4B10030  31.697  38.604   7.664
  526POPC   NC310031   9.738   8.982   9.464
  526POPC   PO410032   9.764   8.951   9.164
  526POPC   GL110033   9.755   9.021   8.864
  526POPC   GL210034   9.810   8.872   8.864
  526POPC   C1A10035   9.742   8.949   8.564
  526POPC   D2A10036   9.737   8.965   8.264
  526POPC   C3A10037   9.795   8.949   7.964
  526POPC   C4A10038   9.733   8.972   7.664
  526POPC   C1B10039   9.852   8.777   8.564
  526POPC   C2B10040   9.848   8.727   8.264
  526POPC   C3B10041   9.823   8.757   7.964
  526POPC   C4B10042   9.833   8.712   7.664
  527POPC   NC310043  14.360  43.898   9.464
  527POPC   PO410044  14.446  43.851   9.164
  527POPC   GL110045  14.439  43.858   8.864
  527POPC   GL210046  14.444  43.943   8.864
  527POPC   C1A10047  14.407  43.886   8.564
  527POPC   D2A10048  14.369  43.848   8.264
  527POPC   C3A10049  14.374  43.934   7.964
  527POPC   C4A10050  14.359  43.837   7.664
  527POPC   C1B10051  14.583  44.103   8.564
  527POPC   C2B10052  14.594  44.064   8.264
  527POPC   C3B10053  14.572  44.092   7.964
  527POPC   C4B10054  14.559  44.053   7.664
  528POPC   NC310055   8.996  31.468   9.464
  528POPC   PO410056   8.941  31.468   9.164
  528POPC   GL110057   8.957  31.467   8.864
  528POPC   GL210058   9.049  31.457   8.864
  528POPC   C1A10059   8.945  31.497   8.564
  528POPC   D2A10060   9.013  31.447   8.264
  528POPC   C3A10061   8.925  31.449   7.964
  528POPC   C4A10062   8.976  31.465   7.664
  528POPC   C1B10063   9.224  31.350   8.564
  528POPC   C2B10064   9.232  31.395   8.264
  528POPC   C3B10065   9.189  31.399   7.964
  528POPC   C4B10066   9.209  31.363   7.664
  529POPC   NC310067  26.822  34.590   9.464
  529POPC   PO410068  26.768  34.582   9.164
  529POPC   GL110069  26.845  34.572   8.864
  529POPC   GL210070  26.839  34.436   8.864
  529POPC   C1A10071  26.841  34.530   8.564
  529POPC   D2A10072  26.837  34.529   8.264
  529POPC   C3A10073  26.786  34.551   7.964
  529POPC   C4A10074  26.789  34.590   7.664
  529POPC   C1B10075  26.934  34.362   8.564
  529POPC   C2B10076  26.893  34.390   8.264
  529POPC   C3B10077  26.922  34.387   7.964
  529POPC   C4B10078  26.953  34.387   7.664
  530POPC   NC310079  36.910  29.873   9.464
  530POPC   PO410080  36.854  29.963   9.164
  530POPC   GL110081  36.952  29.875   8.864
  530POPC   GL210082  36.831  30.044   8.864
  530POPC   C1A10083  36.941  29.923   8.564
  530POPC   D2A10084  36.871  29.917   8.264
  530POPC   C3A10085  36.932  29.939   7.964
  530POPC   C4A10086  36.892  29.908   7.664
  530POPC   C1B10087  36.800  30.182   8.564
  530POPC   C2B10088  36.869  30.122   8.264
  530POPC   C3B10089  36.836  30.148   7.964
  530POPC   C4B10090  36.845  30.211   7.664
  531POPC   NC310091  38.423  33.038   9.464
  531POPC   PO410092  38.421  33.047   9.164
  531POPC   GL110093  38.478  33.035   8.864
  531POPC   GL210094  38.547  33.165   8.864
  531POPC   C1A10095  38.449  33.073   8.564
  531POPC   D2A10096  38.478  33.053   8.264
  531POPC   C3A10097  38.499  33.069   7.964
  531POPC   C4A10098  38.473  33.063   7.664
  531POPC   C1B10099  38.523  33.217   8.564
  531POPC   C2B10100  38.556  33.254   8.264
  531POPC   C3B10101  38.500  33.271   7.964
  531POPC   C4B10102  38.578  33.285   7.664
  532POPC   NC310103   8.167  13.602   9.464
  532POPC   PO410104   8.163  13.647   9.164
  532POPC   GL110105   8.237  13.650   8.864
  532POPC   GL210106   8.045  13.622   8.864
  532POPC   C1A10107   8.161  13.628   8.564
  532POPC   D2A10108   8.148  13.614   8.264
  532POPC   C3A10109   8.241  13.650   7.964
  532POPC   C4A10110   8.191  13.665   7.664
  532POPC   C1B10111   7.941  13.652   8.564
  532POPC   C2B10112   7.906  13.612   8.264
  532POPC   C3B10113   7.972  13.613   7.964
  532POPC   C4B10114   7.980  13.593   7.664
  533POPC   NC310115   1.172  39.976   9.464
  533POPC   PO410116   1.228  39.965   9.164
  533POPC   GL110117   1.257  39.999   8.864
  533POPC   GL210118   1.309  40.023   8.864
  533POPC   C1A10119   1.220  40.038   8.564
  533POPC   D2A10120   1.229  40.006   8.264
  533POPC   C3A10121   1.211  39.973   7.964
  533POPC   C4A10122   1.262  39.971   7.664
  533POPC   C1B10123   1.450  40.040   8.564
  533POPC   C2B10124   1.492  40.079   8.264
  533POPC   C3B10125   1.478  40.046   7.964
  533POPC   C4B10126   1.414  40.042   7.664
  534POPC   NC310127  29.913  25.268   9.464
  534POPC   PO410128  29.887  25.307   9.164
  534POPC   GL110129  29.967  25.296   8.864
  534POPC   GL210130  29.964  25.188   8.864
  534POPC   C1A10131  29.956  25.243   8.564
  534POPC   D2A10132  29.947  25.222   8.264
  534POPC   C3A10133  29.939  25.304   7.964
  534POPC   C4A10134  29.958  25.301   7.664
  534POPC   C1B10135  30.139  25.112   8.564
  534POPC   C2B10136  30.072  25.079   8.264
  534POPC   C3B10137  30.104  25.053   7.964
  534POPC   C4B10138  30.067  25.049   7.664
  535POPC   NC310139  31.446  40.788   9.464
  535POPC   PO410140  31.444  40.774   9.164
  535POPC   GL110141  31.441  40.756   8.864
  535POPC   GL210142  31.369  40.777   8.864
  535POPC   C1A10143  31.506  40.818   8.564
  535POPC   D2A10144  31.430  40.826   8.264
  535POPC   C3A10145  31.484  40.820   7.964
  535POPC   C4A10146  31.492  40.743   7.664
  535POPC   C1B10147  31.208  40.814   8.564
  535POPC   C2B10148  31.187  40.790   8.264
  535POPC   C3B10149  31.250  40.880   7.964
  535POPC   C4B10150  31.180  40.823   7.664
  536POPC   NC310151  10.517  24.493   9.464
  536POPC   PO410152  10.479  24.505   9.164
  536POPC   GL110153  10.565  24.453   8.864
  536POPC   GL210154  10.658  24.465   8.864
  536POPC   C1A10155  10.510  24.511   8.564
  536POPC   D2A10156  10.534  24.461   8.264
  536POPC   C3A10157  10.547  24.494   7.964
  536POPC   C4A10158  10.519  24.459   7.664
  536POPC   C1B10159  10.783  24.416   8.564
  536POPC   C2B10160  10.746  24.390   8.264
  536POPC   C3B10161  10.781  24.436   7.964
  536POPC   C4B10162  10.757  24.416   7.664
  537POPC   NC310163  11.303  34.586   9.464
  537POPC   PO410164  11.318  34.553   9.164
  537POPC   GL110165  11.291  34.611   8.864
  537POPC   GL210166  11.446  34.550   8.864
  537POPC   C1A10167  11.304  34.570   8.564
  537POPC   D2A10168  11.274  34.585   8.264
  537POPC   C3A10169  11.329  34.615   7.964
  537POPC   C4A10170  11.308  34.529   7.664
  537POPC   C1B10171  11.566  34.615   8.564
  537POPC   C2B10172  11.597  34.576   8.264
  537POPC   C3B10173  11.588  34.603   7.964
  537POPC   C4B10174  11.569  34.528   7.664
  538POPC   NC310175   5.864  22.927   9.464
  538POPC   PO410176   5.882  22.961   9.164
  538POPC   GL110177   5.885  22.908   8.864
  538POPC   GL210178   5.807  22.802   8.864
  538POPC   C1A10179   5.841  22.959   8.564
  538POPC   D2A10180   5.891  22.890   8.264
  538POPC   C3A10181   5.894  22.973   7.964
  538POPC   C4A10182   5.874  22.924   7.664
  538POPC   C1B10183   5.811  22.678   8.564
  538POPC   C2B10184   5.826  22.736   8.264
  538POPC   C3B10185   5.816  22.736   7.964
  538POPC   C4B10186   5.823  22.676   7.664
  539POPC   NC310187  10.550  44.660   9.464
  539POPC   PO410188  10.525  44.614   9.164
  539POPC   GL110189  10.520  44.679   8.864
  539POPC   GL210190  10.630  44.720   8.864
  539POPC   C1A10191  10.567  44.648   8.564
  539POPC   D2A10192  10.540  44.619   8.264
  539POPC   C3A10193  10.508  44.700   7.964
  539POPC   C4A10194  10.564  44.647   7.664
  539POPC   C1B10195  10.789  44.735   8.564
  539POPC   C2B10196  10.813  44.682   8.264
  539POPC   C3B10197  10.729  44.713   7.964
  539POPC   C4B10198  10.777  44.711   7.664
  540POPC   NC310199  18.283  24.477   9.464
  540POPC   PO410200  18.286  24.494   9.164
  540POPC   GL110201  18.279  24.493   8.864
  540POPC   GL210202  18.239  24.370   8.864
  540POPC   C1A10203  18.313  24.539   8.564
  540POPC   D2A10204  18.259  24.539   8.264
  540POPC   C3A10205  18.320  24.461   7.964
  540POPC   C4A10206  18.277  24.465   7.664
  540POPC   C1B10207  18.114  24.286   8.564
  540POPC   C2B10208  18.165  24.277   8.264
  540POPC   C3B10209  18.178  24.294   7.964
  540POPC   C4B10210  18.109  24.263   7.664
  541POPC   NC310211   0.454  27.586   9.464
  541POPC   PO410212   0.406  27.574   9.164
  541POPC   GL110213   0.406  27.560   8.864
  541POPC   GL210214   0.340  27.560   8.864
  541POPC   C1A10215   0.410  27.589   8.564
  541POPC   D2A10216   0.436  27.612   8.264
  541POPC   C3A10217   0.438  27.643   7.964
  541POPC   C4A10218   0.478  27.591   7.664
  541POPC   C1B10219   0.164  27.584   8.564
  541POPC   C2B10220   0.161  27.630   8.264
  541POPC   C3B10221   0.174  27.616   7.964
  541POPC   C4B10222   0.211  27.605   7.664
  542POPC   NC310223   5.893   3.547   9.464
  542POPC   PO410224   5.882   3.523   9.164
  542POPC   GL110225   5.820   3.498   8.864
  542POPC   GL210226   5.756   3.674   8.864
  542POPC   C1A10227   5.865   3.510   8.564
  542POPC   D2A10228   5.875   3.526   8.264
  542POPC   C3A10229   5.836   3.501   7.964
  542POPC   C4A10230   5.887   3.506   7.664
  542POPC   C1B10231   5.707   3.728   8.564
  542POPC   C2B10232   5.784   3.712   8.264
  542POPC   C3B10233   5.749   3.717   7.964
  542POPC   C4B10234   5.765   3.799   7.664
  543POPC   NC310235  19.101  40.820   9.464
  543POPC   PO410236  19.040  40.800   9.164
  543POPC   GL110237  19.065  40.825   8.864
  543POPC   GL210238  19.125  40.947   8.864
  543POPC   C1A10239  19.099  40.745   8.564
  543POPC   D2A10240  19.036  40.798   8.264
  543POPC   C3A10241  19.037  40.784   7.964
  543POPC   C4A10242  19.014  40.733   7.664
  543POPC   C1B10243  19.109  41.013   8.564
  543POPC   C2B10244  19.159  40.993   8.264
  543POPC   C3B10245  19.167  41.049   7.964
  543POPC   C4B10246  19.149  40.966   7.664
  544POPC   NC310247  35.398  33.796   9.464
  544POPC   PO410248  35.332  33.803   9.164
  544POPC   GL110249  35.310  33.803   8.864
  544POPC   GL210250  35.514  33.779   8.864
  544POPC   C1A10251  35.333  33.802   8.564
  544POPC   D2A10252  35.378  33.815   8.264
  544POPC   C3A10253  35.329  33.757   7.964
  544POPC   C4A10254  35.328  33.847   7.664
  544POPC   C1B10255  35.581  33.754   8.564
  544POPC   C2B10256  35.605  33.765   8.264
  544POPC   C3B10257  35.640  33.758   7.964
  544POPC   C4B10258  35.566  33.754   7.664
  545POPC   NC310259  26.003  17.510   9.464
  545POPC   PO410260  26.021  17.523   9.164
  545POPC   GL110261  26.052  17.472   8.864
  545POPC   GL210262  25.996  17.649   8.864
  545POPC   C1A10263  26.035  17.551   8.564
  545POPC   D2A10264  26.080  17.554   8.264
  545POPC   C3A10265  26.023  17.546   7.964
  545POPC   C4A10266  26.056  17.482   7.664
  545POPC   C1B10267  25.975  17.763   8.564
  545POPC   C2B10268  25.989  17.739   8.264
  545POPC   C3B10269  26.001  17.782   7.964
  545POPC   C4B10270  25.950  17.766   7.664
  546POPC   NC310271  20.656  40.808   9.464
  546POPC   PO410272  20.620  40.774   9.164
  546POPC   GL110273  20.615  40.801   8.864
  546POPC   GL210274  20.660  40.905   8.864
  546POPC   C1A10275  20.582  40.765   8.564
  546POPC   D2A10276  20.567  40.761   8.264
  546POPC   C3A10277  20.638  40.739   7.964
  546POPC   C4A10278  20.638  40.830   7.664
  546POPC   C1B10279  20.734  40.949   8.564
  546POPC   C2B10280  20.777  41.011   8.264
  546POPC   C3B10281  20.740  40.949   7.964
  546POPC   C4B10282  20.707  40.985   7.664
  547POPC   NC310283  17.486  29.887   9.464
  547POPC   PO410284  17.505  29.908   9.164
  547POPC   GL110285  17.518  29.961   8.864
  547POPC   GL210286  17.427  29.840   8.864
  547POPC   C1A10287  17.464  29.892   8.564
  547POPC   D2A10288  17.473  29.937   8.264
  547POPC   C3A10289  17.464  29.885   7.964
  547POPC   C4A10290  17.500  29.908   7.664
  547POPC   C1B10291  17.339  29.783   8.564
  547POPC   C2B10292  17.313  29.729   8.264
  547POPC   C3B10293  17.328  29.754   7.964
  547POPC   C4B10294  17.328  29.697   7.664
  548POPC   NC310295   5.900   1.987   9.464
  548POPC   PO410296   5.847   1.976   9.164
  548POPC   GL110297   5.905   1.950   8.864
  548POPC   GL210298   5.796   2.002   8.864
  548POPC   C1A10299   5.895   1.982   8.564
  548POPC   D2A10300   5.820   1.960   8.264
  548POPC   C3A10301   5.896   2.024   7.964
  548POPC   C4A10302   5.875   1.977   7.664
  548POPC   C1B10303   5.638   2.082   8.564
  548POPC   C2B10304   5.641   2.042   8.264
  548POPC   C3B10305   5.631   2.044   7.964
  548POPC   C4B10306   5.600   2.013   7.664
  549POPC   NC310307  22.898  12.097   9.464
  549POPC   PO410308  22.943  12.046   9.164
  549POPC   GL110309  22.935  12.049   8.864
  549POPC   GL210310  22.993  12.200   8.864
  549POPC   C1A10311  22.985  12.066   8.564
  549POPC   D2A10312  22.982  12.103   8.264
  549POPC   C3A10313  22.929  12.049   7.964
  549POPC   C4A10314  22.933  12.055   7.664
  549POPC   C1B10315  23.066  12.281   8.564
  549POPC   C2B10316  23.098  12.214   8.264
  549POPC   C3B10317  23.086  12.248   7.964
  549POPC   C4B10318  23.095  12.209   7.664
  550POPC   NC310319   1.973  12.104   9.464
  550POPC   PO410320   1.954  12.039   9.164
  550POPC   GL110321   2.030  12.113   8.864
  550POPC   GL210322   2.096  12.173   8.864
  550POPC   C1A10323   2.011  12.082   8.564
  550POPC   D2A10324   1.973  12.081   8.264
  550POPC   C3A10325   2.020  12.084   7.964
  550POPC   C4A10326   2.022  12.116   7.664
  550POPC   C1B10327   2.120  12.278   8.564
  550POPC   C2B10328   2.110  12.305   8.264
  550POPC   C3B10329   2.133  12.308   7.964
  550POPC   C4B10330   2.099  12.328   7.664
  551POPC   NC310331  12.052  17.529   9.464
  551POPC   PO410332  12.076  17.478   9.164
  551POPC   GL110333  12.042  17.525   8.864
  551POPC   GL210334  12.089  17.596   8.864
  551POPC   C1A10335  12.083  17.466   8.564
  551POPC   D2A10336  12.115  17.522   8.264
  551POPC   C3A10337  12.060  17.495   7.964
  551POPC   C4A10338  12.026  17.496   7.664
  551POPC   C1B10339  12.021  17.757   8.564
  551POPC   C2B10340  12.005  17.754   8.264
  551POPC   C3B10341  12.017  17.730   7.964
  551POPC   C4B10342  12.067  17.791   7.664
  552POPC   NC310343   5.901  37.649   9.464
  552POPC   PO410344   5.848  37.676   9.164
  552POPC   GL110345   5.912  37.688   8.864
  552POPC   GL210346   5.701  37.715   8.864
  552POPC   C1A10347   5.852  37.680   8.564
  552POPC   D2A10348   5.853  37.640   8.264
  552POPC   C3A10349   5.823  37.630   7.964
  552POPC   C4A10350   5.831  37.642   7.664
  552POPC   C1B10351   5.656  37.749   8.564
  552POPC   C2B10352   5.571  37.662   8.264
  552POPC   C3B10353   5.632  37.669   7.964
  552POPC   C4B10354   5.661  37.732   7.664
  553POPC   NC310355  32.237  11.314   9.464
  553POPC   PO410356  32.284  11.258   9.164
  553POPC   GL110357  32.254  11.320   8.864
  553POPC   GL210358  32.149  11.253   8.864
  553POPC   C1A10359  32.229  11.332   8.564
  553POPC   D2A10360  32.258  11.258   8.264
  553POPC   C3A10361  32.262  11.327   7.964
  553POPC   C4A10362  32.243  11.256   7.664
  553POPC   C1B10363  32.011  11.309   8.564
  553POPC   C2B10364  32.010  11.251   8.264
  553POPC   C3B10365  32.021  11.321   7.964
  553POPC   C4B10366  31.968  11.298   7.664
  554POPC   NC310367  43.908  34.576   9.464
  554POPC   PO410368  43.912  34.602   9.164
  554POPC   GL110369  43.849  34.573   8.864
  554POPC   GL210370  43.902  34.491   8.864
  554POPC   C1A10371  43.862  34.602   8.564
  554POPC   D2A10372  43.881  34.599   8.264
  554POPC   C3A10373  43.908  34.536   7.964
  554POPC   C4A10374  43.861  34.552   7.664
  554POPC   C1B10375  43.825  34.364   8.564
  554POPC   C2B10376  43.874  34.343   8.264
  554POPC   C3B10377  43.873  34.345   7.964
  554POPC   C4B10378  43.837  34.306   7.664
  555POPC   NC310379  33.824  41.559   9.464
  555POPC   PO410380  33.808  41.517   9.164
  555POPC   GL110381  33.771  41.528   8.864
  555POPC   GL210382  33.821  41.391   8.864
  555POPC   C1A10383  33.759  41.567   8.564
  555POPC   D2A10384  33.831  41.572   8.264
  555POPC   C3A10385  33.752  41.600   7.964
  555POPC   C4A10386  33.840  41.559   7.664
  555POPC   C1B10387  33.868  41.267   8.564
  555POPC   C2B10388  33.890  41.316   8.264
  555POPC   C3B10389  33.813  41.286   7.964
  555POPC   C4B10390  33.837  41.350   7.664
  556POPC   NC310391  39.278  34.591   9.464
  556POPC   PO410392  39.201  34.577   9.164
  556POPC   GL110393  39.256  34.556   8.864
  556POPC   GL210394  39.350  34.599   8.864
  556POPC   C1A10395  39.212  34.531   8.564
  556POPC   D2A10396  39.263  34.585   8.264
  556POPC   C3A10397  39.202  34.563   7.964
  556POPC   C4A10398  39.189  34.620   7.664
  556POPC   C1B10399  39.436  34.578   8.564
  556POPC   C2B10400  39.482  34.505   8.264
  556POPC   C3B10401  39.450  34.560   7.964
  556POPC   C4B10402  39.509  34.567   7.664
  557POPC   NC310403  33.831  43.126   9.464
  557POPC   PO410404  33.829  43.159   9.164
  557POPC   GL110405  33.764  43.113   8.864
  557POPC   GL210406  33.859  43.195   8.864
  557POPC   C1A10407  33.797  43.062   8.564
  557POPC   D2A10408  33.827  43.078   8.264
  557POPC   C3A10409  33.770  43.128   7.964
  557POPC   C4A10410  33.755  43.124   7.664
  557POPC   C1B10411  33.818  43.338   8.564
  557POPC   C2B10412  33.879  43.357   8.264
  557POPC   C3B10413  33.792  43.328   7.964
  557POPC   C4B10414  33.818  43.396   7.664
  558POPC   NC310415  44.702  36.135   9.464
  558POPC   PO410416  44.676  36.130   9.164
  558POPC   GL110417  44.640  36.113   8.864
  558POPC   GL210418  44.611  36.267   8.864
  558POPC   C1A10419  44.685  36.078   8.564
  558POPC   D2A10420  44.656  36.139   8.264
  558POPC   C3A10421  44.640  36.138   7.964
  558POPC   C4A10422  44.705  36.111   7.664
  558POPC   C1B10423  44.604  36.382   8.564
  558POPC   C2B10424  44.592  36.343   8.264
  558POPC   C3B10425  44.512  36.333   7.964
  558POPC   C4B10426  44.547  36.387   7.664
  559POPC   NC310427  43.117  35.310   9.464
  559POPC   PO410428  43.063  35.305   9.164
  559POPC   GL110429  43.112  35.356   8.864
  559POPC   GL210430  43.215  35.356   8.864
  559POPC   C1A10431  43.081  35.361   8.564
  559POPC   D2A10432  43.078  35.332   8.264
  559POPC   C3A10433  43.160  35.357   7.964
  559POPC   C4A10434  43.077  35.365   7.664
  559POPC   C1B10435  43.379  35.271   8.564
  559POPC   C2B10436  43.329  35.335   8.264
  559POPC   C3B10437  43.389  35.257   7.964
  559POPC   C4B10438  43.307  35.341   7.664
  560POPC   NC310439   3.555  41.531   9.464
  560POPC   PO410440   3.547  41.531   9.164
  560POPC   GL110441   3.583  41.530   8.864
  560POPC   GL210442   3.444  41.584   8.864
  560POPC   C1A10443   3.524  41.571   8.564
  560POPC   D2A10444   3.532  41.578   8.264
  560POPC   C3A10445   3.518  41.569   7.964
  560POPC   C4A10446   3.504  41.559   7.664
  560POPC   C1B10447   3.298  41.676   8.564
  560POPC   C2B10448   3.317  41.610   8.264
  560POPC   C3B10449   3.353  41.603   7.964
  560POPC   C4B10450   3.331  41.672   7.664
  561POPC   NC310451  32.217   1.202   9.464
  561POPC   PO410452  32.296   1.259   9.164
  561POPC   GL110453  32.279   1.241   8.864
  561POPC   GL210454  32.182   1.122   8.864
  561POPC   C1A10455  32.280   1.218   8.564
  561POPC   D2A10456  32.288   1.173   8.264
  561POPC   C3A10457  32.256   1.164   7.964
  561POPC   C4A10458  32.201   1.178   7.664
  561POPC   C1B10459  32.001   1.041   8.564
  561POPC   C2B10460  31.991   1.081   8.264
  561POPC   C3B10461  32.019   1.082   7.964
  561POPC   C4B10462  32.069   1.034   7.664
  562POPC   NC310463  43.105   9.738   9.464
  562POPC   PO410464  43.148   9.752   9.164
  562POPC   GL110465  43.156   9.713   8.864
  562POPC   GL210466  43.150   9.831   8.864
  562POPC   C1A10467  43.106   9.724   8.564
  562POPC   D2A10468  43.103   9.797   8.264
  562POPC   C3A10469  43.082   9.769   7.964
  562POPC   C4A10470  43.112   9.730   7.664
  562POPC   C1B10471  43.144   9.952   8.564
  562POPC   C2B10472  43.216  10.028   8.264
  562POPC   C3B10473  43.234   9.962   7.964
  562POPC   C4B10474  43.226  10.030   7.664
  563POPC   NC310475  33.837   8.234   9.464
  563POPC   PO410476  33.779   8.180   9.164
  563POPC   GL110477  33.753   8.218   8.864
  563POPC   GL210478  33.665   8.279   8.864
  563POPC   C1A10479  33.772   8.220   8.564
  563POPC   D2A10480  33.804   8.176   8.264
  563POPC   C3A10481  33.820   8.155   7.964
  563POPC   C4A10482  33.828   8.240   7.664
  563POPC   C1B10483  33.555   8.290   8.564
  563POPC   C2B10484  33.614   8.336   8.264
  563POPC   C3B10485  33.604   8.348   7.964
  563POPC   C4B10486  33.626   8.350   7.664
  564POPC   NC310487   2.787  40.808   9.464
  564POPC   PO410488   2.737  40.780   9.164
  564POPC   GL110489   2.801  40.816   8.864
  564POPC   GL210490   2.932  40.758   8.864
  564POPC   C1A10491   2.809  40.733   8.564
  564POPC   D2A10492   2.720  40.759   8.264
  564POPC   C3A10493   2.730  40.800   7.964
  564POPC   C4A10494   2.762  40.785   7.664
  564POPC   C1B10495   3.007  40.792   8.564
  564POPC   C2B10496   3.035  40.706   8.264
  564POPC   C3B10497   3.016  40.750   7.964
  564POPC   C4B10498   2.982  40.730   7.664
  565POPC   NC310499  16.740  38.470   9.464
  565POPC   PO410500  16.742  38.417   9.164
  565POPC   GL110501  16.729  38.418   8.864
  565POPC   GL210502  16.656  38.442   8.864
  565POPC   C1A10503  16.698  38.418   8.564
  565POPC   D2A10504  16.716  38.425   8.264
  565POPC   C3A10505  16.755  38.412   7.964
  565POPC   C4A10506  16.698  38.426   7.664
  565POPC   C1B10507  16.538  38.549   8.564
  565POPC   C2B10508  16.525  38.487   8.264
  565POPC   C3B10509  16.465  38.476   7.964
  565POPC   C4B10510  16.442  38.523   7.664
  566POPC   NC310511  37.726  19.850   9.464
  566POPC   PO410512  37.682  19.846   9.164
  566POPC   GL110513  37.663  19.802   8.864
  566POPC   GL210514  37.620  19.741   8.864
  566POPC   C1A10515  37.655  19.833   8.564
  566POPC   D2A10516  37.712  19.803   8.264
  566POPC   C3A10517  37.674  19.793   7.964
  566POPC   C4A10518  37.643  19.793   7.664
  566POPC   C1B10519  37.443  19.672   8.564
  566POPC   C2B10520  37.420  19.699   8.264
  566POPC   C3B10521  37.439  19.712   7.964
  566POPC   C4B10522  37.500  19.714   7.664
  567POPC   NC310523  39.280  18.318   9.464
  567POPC   PO410524  39.219  18.251   9.164
  567POPC   GL110525  39.194  18.316   8.864
  567POPC   GL210526  39.220  18.432   8.864
  567POPC   C1A10527  39.260  18.285   8.564
  567POPC   D2A10528  39.276  18.290   8.264
  567POPC   C3A10529  39.278  18.330   7.964
  567POPC   C4A10530  39.212  18.325   7.664
  567POPC   C1B10531  39.218  18.577   8.564
  567POPC   C2B10532  39.157  18.510   8.264
  567POPC   C3B10533  39.153  18.535   7.964
  567POPC   C4B10534  39.137  18.481   7.664
  568POPC   NC310535   1.249  14.426   9.464
  568POPC   PO410536   1.259  14.385   9.164
  568POPC   GL110537   1.199  14.377   8.864
  568POPC   GL210538   1.084  14.355   8.864
  568POPC   C1A10539   1.217  14.385   8.564
  568POPC   D2A10540   1.248  14.393   8.264
  568POPC   C3A10541   1.255  14.445   7.964
  568POPC   C4A10542   1.211  14.447   7.664
  568POPC   C1B10543   1.060  14.222   8.564
  568POPC   C2B10544   1.029  14.229   8.264
  568POPC   C3B10545   1.080  14.172   7.964
  568POPC   C4B10546   1.023  14.240   7.664
  569POPC   NC310547  11.283  25.248   9.464
  569POPC   PO410548  11.263  25.251   9.164
  569POPC   GL110549  11.310  25.290   8.864
  569POPC   GL210550  11.433  25.182   8.864
  569POPC   C1A10551  11.321  25.230   8.564
  569POPC   D2A10552  11.305  25.309   8.264
  569POPC   C3A10553  11.275  25.245   7.964
  569POPC   C4A10554  11.282  25.279   7.664
  569POPC   C1B10555  11.566  25.181   8.564
  569POPC   C2B10556  11.514  25.148   8.264
  569POPC   C3B10557  11.566  25.226   7.964
  569POPC   C4B10558  11.524  25.188   7.664
  570POPC   NC310559  18.311   0.472   9.464
  570POPC   PO410560  18.243   0.479   9.164
  570POPC   GL110561  18.305   0.393   8.864
  570POPC   GL210562  18.162   0.402   8.864
  570POPC   C1A10563  18.260   0.409   8.564
  570POPC   D2A10564  18.307   0.467   8.264
  570POPC   C3A10565  18.312   0.435   7.964
  570POPC   C4A10566  18.287   0.423   7.664
  570POPC   C1B10567  18.027   0.352   8.564
  570POPC   C2B10568  18.082   0.360   8.264
  570POPC   C3B10569  18.008   0.376   7.964
  570POPC   C4B10570  18.003   0.388   7.664
  571POPC   NC310571  21.384  17.458   9.464
  571POPC   PO410572  21.380  17.503   9.164
  571POPC   GL110573  21.344  17.489   8.864
  571POPC   GL210574  21.470  17.366   8.864
  571POPC   C1A10575  21.368  17.497   8.564
  571POPC   D2A10576  21.344  17.507   8.264
  571POPC   C3A10577  21.356  17.547   7.964
  571POPC   C4A10578  21.384  17.527   7.664
  571POPC   C1B10579  21.507  17.312   8.564
  571POPC   C2B10580  21.534  17.288   8.264
  571POPC   C3B10581  21.508  17.287   7.964
  571POPC   C4B10582  21.588  17.355   7.664
  572POPC   NC310583  13.666   6.674   9.464
  572POPC   PO410584  13.597   6.620   9.164
  572POPC   GL110585  13.610   6.644   8.864
  572POPC   GL210586  13.554   6.813   8.864
  572POPC   C1A10587  13.594   6.617   8.564
  572POPC   D2A10588  13.653   6.624   8.264
  572POPC   C3A10589  13.675   6.618   7.964
  572POPC   C4A10590  13.605   6.625   7.664
  572POPC   C1B10591  13.583   6.900   8.564
  572POPC   C2B10592  13.525   6.894   8.264
  572POPC   C3B10593  13.600   6.931   7.964
  572POPC   C4B10594  13.602   6.873   7.664
  573POPC   NC310595  44.662  43.116   9.464
  573POPC   PO410596  44.615  43.108   9.164
  573POPC   GL110597  44.691  43.063   8.864
  573POPC   GL210598  44.533  43.137   8.864
  573POPC   C1A10599  44.680  43.065   8.564
  573POPC   D2A10600  44.694  43.073   8.264
  573POPC   C3A10601  44.705  43.098   7.964
  573POPC   C4A10602  44.646  43.089   7.664
  573POPC   C1B10603  44.440  43.183   8.564
  573POPC   C2B10604  44.407  43.220   8.264
  573POPC   C3B10605  44.434  43.151   7.964
  573POPC   C4B10606  44.452  43.208   7.664
  574POPC   NC310607  19.874  30.658   9.464
  574POPC   PO410608  19.815  30.697   9.164
  574POPC   GL110609  19.855  30.735   8.864
  574POPC   GL210610  19.745  30.625   8.864
  574POPC   C1A10611  19.863  30.698   8.564
  574POPC   D2A10612  19.794  30.702   8.264
  574POPC   C3A10613  19.788  30.664   7.964
  574POPC   C4A10614  19.865  30.737   7.664
  574POPC   C1B10615  19.646  30.467   8.564
  574POPC   C2B10616  19.723  30.504   8.264
  574POPC   C3B10617  19.689  30.476   7.964
  574POPC   C4B10618  19.692  30.523   7.664
  575POPC   NC310619  10.538  23.726   9.464
  575POPC   PO410620  10.528  23.736   9.164
  575POPC   GL110621  10.552  23.676   8.864
  575POPC   GL210622  10.530  23.622   8.864
  575POPC   C1A10623  10.572  23.686   8.564
  575POPC   D2A10624  10.550  23.690   8.264
  575POPC   C3A10625  10.573  23.745   7.964
  575POPC   C4A10626  10.552  23.669   7.664
  575POPC   C1B10627  10.424  23.470   8.564
  575POPC   C2B10628  10.460  23.457   8.264
  575POPC   C3B10629  10.430  23.497   7.964
  575POPC   C4B10630  10.491  23.460   7.664
  576POPC   NC310631  27.589  33.050   9.464
  576POPC   PO410632  27.580  33.062   9.164
  576POPC   GL110633  27.553  33.004   8.864
  576POPC   GL210634  27.512  33.094   8.864
  576POPC   C1A10635  27.595  32.985   8.564
  576POPC   D2A10636  27.590  32.995   8.264
  576POPC   C3A10637  27.573  32.976   7.964
  576POPC   C4A10638  27.599  33.069   7.664
  576POPC   C1B10639  27.420  33.104   8.564
  576POPC   C2B10640  27.356  33.131   8.264
  576POPC   C3B10641  27.335  33.120   7.964
  576POPC   C4B10642  27.373  33.200   7.664
  577POPC   NC310643  29.933  22.180   9.464
  577POPC   PO410644  29.900  22.115   9.164
  577POPC   GL110645  29.935  22.176   8.864
  577POPC   GL210646  29.852  22.264   8.864
  577POPC   C1A10647  29.886  22.163   8.564
  577POPC   D2A10648  29.928  22.144   8.264
  577POPC   C3A10649  29.890  22.169   7.964
  577POPC   C4A10650  29.963  22.143   7.664
  577POPC   C1B10651  29.857  22.446   8.564
  577POPC   C2B10652  29.888  22.431   8.264
  577POPC   C3B10653  29.864  22.456   7.964
  577POPC   C4B10654  29.883  22.435   7.664
  578POPC   NC310655  37.665  15.912   9.464
  578POPC   PO410656  37.703  15.995   9.164
  578POPC   GL110657  37.709  15.975   8.864
  578POPC   GL210658  37.622  16.043   8.864
  578POPC   C1A10659  37.641  15.970   8.564
  578POPC   D2A10660  37.644  15.966   8.264
  578POPC   C3A10661  37.695  15.985   7.964
  578POPC   C4A10662  37.666  15.932   7.664
  578POPC   C1B10663  37.610  16.198   8.564
  578POPC   C2B10664  37.629  16.218   8.264
  578POPC   C3B10665  37.590  16.224   7.964
  578POPC   C4B10666  37.558  16.146   7.664
  579POPC   NC310667   5.063  39.962   9.464
  579POPC   PO410668   5.117  39.958   9.164
  579POPC   GL110669   5.056  40.017   8.864
  579POPC   GL210670   5.170  39.944   8.864
  579POPC   C1A10671   5.090  40.025   8.564
  579POPC   D2A10672   5.086  39.983   8.264
  579POPC   C3A10673   5.139  39.996   7.964
  579POPC   C4A10674   5.051  40.007   7.664
  579POPC   C1B10675   5.212  39.828   8.564
  579POPC   C2B10676   5.191  39.816   8.264
  579POPC   C3B10677   5.286  39.827   7.964
  579POPC   C4B10678   5.239  39.774   7.664
  580POPC   NC310679  42.321  11.322   9.464
  580POPC   PO410680  42.355  11.320   9.164
  580POPC   GL110681  42.292  11.330   8.864
  580POPC   GL210682  42.266  11.406   8.864
  580POPC   C1A10683  42.378  11.259   8.564
  580POPC   D2A10684  42.335  11.318   8.264
  580POPC   C3A10685  42.382  11.321   7.964
  580POPC   C4A10686  42.346  11.277   7.664
  580POPC   C1B10687  42.172  11.436   8.564
  580POPC   C2B10688  42.162  11.444   8.264
  580POPC   C3B10689  42.157  11.435   7.964
  580POPC   C4B10690  42.139  11.452   7.664
  581POPC   NC310691  38.443  40.829   9.464
  581POPC   PO410692  38.419  40.798   9.164
  581POPC   GL110693  38.420  40.735   8.864
  581POPC   GL210694  38.412  40.675   8.864
  581POPC   C1A10695  38.462  40.789   8.564
  581POPC   D2A10696  38.469  40.779   8.264
  581POPC   C3A10697  38.492  40.807   7.964
  581POPC   C4A10698  38.414  40.778   7.664
  581POPC   C1B10699  38.394  40.496   8.564
  581POPC   C2B10700  38.445  40.516   8.264
  581POPC   C3B10701  38.399  40.519   7.964
  581POPC   C4B10702  38.470  40.503   7.664
  582POPC   NC310703  18.295  28.346   9.464
  582POPC   PO410704  18.262  28.343   9.164
  582POPC   GL110705  18.309  28.406   8.864
  582POPC   GL210706  18.232  28.448   8.864
  582POPC   C1A10707  18.246  28.376   8.564
  582POPC   D2A10708  18.274  28.411   8.264
  582POPC   C3A10709  18.332  28.409   7.964
  582POPC   C4A10710  18.255  28.342   7.664
  582POPC   C1B10711  18.216  28.621   8.564
  582POPC   C2B10712  18.208  28.604   8.264
  582POPC   C3B10713  18.224  28.660   7.964
  582POPC   C4B10714  18.187  28.573   7.664
  583POPC   NC310715   7.466  35.320   9.464
  583POPC   PO410716   7.426  35.342   9.164
  583POPC   GL110717   7.435  35.393   8.864
  583POPC   GL210718   7.490  35.477   8.864
  583POPC   C1A10719   7.373  35.335   8.564
  583POPC   D2A10720   7.414  35.332   8.264
  583POPC   C3A10721   7.378  35.391   7.964
  583POPC   C4A10722   7.398  35.327   7.664
  583POPC   C1B10723   7.552  35.503   8.564
  583POPC   C2B10724   7.622  35.589   8.264
  583POPC   C3B10725   7.576  35.501   7.964
  583POPC   C4B10726   7.555  35.566   7.664
  584POPC   NC310727  41.521  20.590   9.464
  584POPC   PO410728  41.566  20.609   9.164
  584POPC   GL110729  41.588  20.598   8.864
  584POPC   GL210730  41.632  20.611   8.864
  584POPC   C1A10731  41.576  20.660   8.564
  584POPC   D2A10732  41.542  20.575   8.264
  584POPC   C3A10733  41.513  20.570   7.964
  584POPC   C4A10734  41.520  20.635   7.664
  584POPC   C1B10735  41.832  20.505   8.564
  584POPC   C2B10736  41.805  20.557   8.264
  584POPC   C3B10737  41.784  20.505   7.964
  584POPC   C4B10738  41.774  20.509   7.664
  585POPC   NC310739  43.138  32.997   9.464
  585POPC   PO410740  43.131  33.060   9.164
  585POPC   GL110741  43.129  33.008   8.864
  585POPC   GL210742  43.140  32.872   8.864
  585POPC   C1A10743  43.158  33.006   8.564
  585POPC   D2A10744  43.108  33.059   8.264
  585POPC   C3A10745  43.111  33.041   7.964
  585POPC   C4A10746  43.087  32.984   7.664
  585POPC   C1B10747  43.170  32.848   8.564
  585POPC   C2B10748  43.206  32.782   8.264
  585POPC   C3B10749  43.215  32.833   7.964
  585POPC   C4B10750  43.259  32.761   7.664
  586POPC   NC310751   1.191  35.393   9.464
  586POPC   PO410752   1.231  35.376   9.164
  586POPC   GL110753   1.228  35.381   8.864
  586POPC   GL210754   1.299  35.209   8.864
  586POPC   C1A10755   1.232  35.363   8.564
  586POPC   D2A10756   1.263  35.326   8.264
  586POPC   C3A10757   1.171  35.314   7.964
  586POPC   C4A10758   1.215  35.372   7.664
  586POPC   C1B10759   1.405  35.149   8.564
  586POPC   C2B10760   1.363  35.189   8.264
  586POPC   C3B10761   1.372  35.146   7.964
  586POPC   C4B10762   1.379  35.115   7.664
  587POPC   NC310763  28.368  44.641   9.464
  587POPC   PO410764  28.414  44.615   9.164
  587POPC   GL110765  28.335  44.676   8.864
  587POPC   GL210766  28.367  44.733   8.864
  587POPC   C1A10767  28.397  44.683   8.564
  587POPC   D2A10768  28.364  44.666   8.264
  587POPC   C3A10769  28.337  44.628   7.964
  587POPC   C4A10770  28.387  44.693   7.664
  587POPC   C1B10771  28.285  44.877   8.564
  587POPC   C2B10772  28.290  44.928   8.264
  587POPC   C3B10773  28.273  44.875   7.964
  587POPC   C4B10774  28.330  44.853   7.664
  588POPC   NC310775  17.531  43.851   9.464
  588POPC   PO410776  17.518  43.921   9.164
  588POPC   GL110777  17.540  43.871   8.864
  588POPC   GL210778  17.388  43.868   8.864
  588POPC   C1A10779  17.552  43.846   8.564
  588POPC   D2A10780  17.509  43.924   8.264
  588POPC   C3A10781  17.462  43.929   7.964
  588POPC   C4A10782  17.527  43.849   7.664
  588POPC   C1B10783  17.319  43.748   8.564
  588POPC   C2B10784  17.325  43.759   8.264
  588POPC   C3B10785  17.240  43.770   7.964
  588POPC   C4B10786  17.259  43.739   7.664
  589POPC   NC310787   3.573  44.621   9.464
  589POPC   PO410788   3.558  44.616   9.164
  589POPC   GL110789   3.517  44.677   8.864
  589POPC   GL210790   3.512  44.506   8.864
  589POPC   C1A10791   3.555  44.665   8.564
  589POPC   D2A10792   3.567  44.657   8.264
  589POPC   C3A10793   3.537  44.653   7.964
  589POPC   C4A10794   3.563  44.696   7.664
  589POPC   C1B10795   3.483  44.382   8.564
  589POPC   C2B10796   3.514  44.416   8.264
  589POPC   C3B10797   3.565  44.370   7.964
  589POPC   C4B10798   3.540  44.363   7.664
  590POPC   NC310799  34.556  33.801   9.464
  590POPC   PO410800  34.609  33.752   9.164
  590POPC   GL110801  34.605  33.836   8.864
  590POPC   GL210802  34.504  33.865   8.864
  590POPC   C1A10803  34.589  33.813   8.564
  590POPC   D2A10804  34.623  33.816   8.264
  590POPC   C3A10805  34.583  33.780   7.964
  590POPC   C4A10806  34.590  33.752   7.664
  590POPC   C1B10807  34.339  33.963   8.564
  590POPC   C2B10808  34.371  33.902   8.264
  590POPC   C3B10809  34.375  33.961   7.964
  590POPC   C4B10810  34.363  33.905   7.664
  591POPC   NC310811  36.922   2.771   9.464
  591POPC   PO410812  36.917   2.726   9.164
  591POPC   GL110813  36.901   2.783   8.864
  591POPC   GL210814  36.947   2.916   8.864
  591POPC   C1A10815  36.857   2.756   8.564
  591POPC   D2A10816  36.885   2.738   8.264
  591POPC   C3A10817  36.902   2.788   7.964
  591POPC   C4A10818  36.908   2.787   7.664
  591POPC   C1B10819  36.923   3.027   8.564
  591POPC   C2B10820  36.937   3.056   8.264
  591POPC   C3B10821  36.912   3.014   7.964
  591POPC   C4B10822  36.923   2.981   7.664
  592POPC   NC310823   2.745  36.129   9.464
  592POPC   PO410824   2.753  36.090   9.164
  592POPC   GL110825   2.811  36.171   8.864
  592POPC   GL210826   2.644  36.246   8.864
  592POPC   C1A10827   2.789  36.145   8.564
  592POPC   D2A10828   2.720  36.091   8.264
  592POPC   C3A10829   2.762  36.131   7.964
  592POPC   C4A10830   2.783  36.102   7.664
  592POPC   C1B10831   2.646  36.365   8.564
  592POPC   C2B10832   2.631  36.334   8.264
  592POPC   C3B10833   2.624  36.368   7.964
  592POPC   C4B10834   2.628  36.349   7.664
  593POPC   NC310835  15.174   1.246   9.464
  593POPC   PO410836  15.171   1.256   9.164
  593POPC   GL110837  15.151   1.261   8.864
  593POPC   GL210838  15.117   1.130   8.864
  593POPC   C1A10839  15.135   1.187   8.564
  593POPC   D2A10840  15.134   1.198   8.264
  593POPC   C3A10841  15.171   1.196   7.964
  593POPC   C4A10842  15.182   1.175   7.664
  593POPC   C1B10843  14.986   1.061   8.564
  593POPC   C2B10844  15.013   1.063   8.264
  593POPC   C3B10845  14.968   1.038   7.964
  593POPC   C4B10846  15.003   1.003   7.664
  594POPC   NC310847  15.988  22.186   9.464
  594POPC   PO410848  15.957  22.124   9.164
  594POPC   GL110849  15.930  22.135   8.864
  594POPC   GL210850  15.872  22.227   8.864
  594POPC   C1A10851  15.927  22.204   8.564
  594POPC   D2A10852  15.958  22.176   8.264
  594POPC   C3A10853  15.951  22.144   7.964
  594POPC   C4A10854  15.978  22.147   7.664
  594POPC   C1B10855  15.767  22.297   8.564
  594POPC   C2B10856  15.770  22.297   8.264
  594POPC   C3B10857  15.743  22.321   7.964
  594POPC   C4B10858  15.759  22.341   7.664
  595POPC   NC310859  24.483  34.581   9.464
  595POPC   PO410860  24.468  34.543   9.164
  595POPC   GL110861  24.442  34.622   8.864
  595POPC   GL210862  24.396  34.697   8.864
  595POPC   C1A10863  24.514  34.624   8.564
  595POPC   D2A10864  24.473  34.601   8.264
  595POPC   C3A10865  24.524  34.526   7.964
  595POPC   C4A10866  24.537  34.607   7.664
  595POPC   C1B10867  24.325  34.776   8.564
  595POPC   C2B10868  24.355  34.778   8.264
  595POPC   C3B10869  24.377  34.730   7.964
  595POPC   C4B10870  24.368  34.760   7.664
  596POPC   NC310871  30.703  40.756   9.464
  596POPC   PO410872  30.745  40.780   9.164
  596POPC   GL110873  30.729  40.809   8.864
  596POPC   GL210874  30.641  40.902   8.864
  596POPC   C1A10875  30.659  40.741   8.564
  596POPC   D2A10876  30.655  40.819   8.264
  596POPC   C3A10877  30.720  40.768   7.964
  596POPC   C4A10878  30.694  40.758   7.664
  596POPC   C1B10879  30.592  41.035   8.564
  596POPC   C2B10880  30.549  41.039   8.264
  596POPC   C3B10881  30.554  40.976   7.964
  596POPC   C4B10882  30.575  41.005   7.664
  597POPC   NC310883  22.145  32.209   9.464
  597POPC   PO410884  22.145  32.210   9.164
  597POPC   GL110885  22.203  32.279   8.864
  597POPC   GL210886  22.324  32.246   8.864
  597POPC   C1A10887  22.138  32.294   8.564
  597POPC   D2A10888  22.115  32.296   8.264
  597POPC   C3A10889  22.169  32.206   7.964
  597POPC   C4A10890  22.181  32.291   7.664
  597POPC   C1B10891  22.439  32.209   8.564
  597POPC   C2B10892  22.373  32.235   8.264
  597POPC   C3B10893  22.432  32.202   7.964
  597POPC   C4B10894  22.455  32.193   7.664
  598POPC   NC310895  39.965  15.229   9.464
  598POPC   PO410896  40.028  15.176   9.164
  598POPC   GL110897  40.027  15.202   8.864
  598POPC   GL210898  40.078  15.239   8.864
  598POPC   C1A10899  40.056  15.143   8.564
  598POPC   D2A10900  40.019  15.225   8.264
  598POPC   C3A10901  39.986  15.132   7.964
  598POPC   C4A10902  39.985  15.193   7.664
  598POPC   C1B10903  40.252  15.343   8.564
  598POPC   C2B10904  40.193  15.329   8.264
  598POPC   C3B10905  40.192  15.323   7.964
  598POPC   C4B10906  40.212  15.299   7.664
  599POPC   NC310907  33.019  17.499   9.464
  599POPC   PO410908  33.041  17.515   9.164
  599POPC   GL110909  33.003  17.510   8.864
  599POPC   GL210910  32.934  17.450   8.864
  599POPC   C1A10911  33.045  17.534   8.564
  599POPC   D2A10912  32.997  17.535   8.264
  599POPC   C3A10913  33.042  17.515   7.964
  599POPC   C4A10914  32.987  17.497   7.664
  599POPC   C1B10915  32.815  17.381   8.564
  599POPC   C2B10916  32.803  17.333   8.264
  599POPC   C3B10917  32.815  17.365   7.964
  599POPC   C4B10918  32.803  17.356   7.664
  600POPC   NC310919   2.797   5.908   9.464
  600POPC   PO410920   2.720   5.887   9.164
  600POPC   GL110921   2.804   5.911   8.864
  600POPC   GL210922   2.633   5.962   8.864
  600POPC   C1A10923   2.717   5.886   8.564
  600POPC   D2A10924   2.805   5.823   8.264
  600POPC   C3A10925   2.758   5.828   7.964
  600POPC   C4A10926   2.783   5.837   7.664
  600POPC   C1B10927   2.551   6.042   8.564
  600POPC   C2B10928   2.621   6.027   8.264
  600POPC   C3B10929   2.535   6.052   7.964
  600POPC   C4B10930   2.612   6.046   7.664
  601POPC   NC310931  31.491  10.528   9.464
  601POPC   PO410932  31.468  10.527   9.164
  601POPC   GL110933  31.513  10.525   8.864
  601POPC   GL210934  31.574  10.444   8.864
  601POPC   C1A10935  31.457  10.493   8.564
  601POPC   D2A10936  31.469  10.500   8.264
  601POPC   C3A10937  31.512  10.486   7.964
  601POPC   C4A10938  31.475  10.498   7.664
  601POPC   C1B10939  31.732  10.466   8.564
  601POPC   C2B10940  31.714  10.368   8.264
  601POPC   C3B10941  31.660  10.441   7.964
  601POPC   C4B10942  31.676  10.439   7.664
  602POPC   NC310943   8.208  42.362   9.464
  602POPC   PO410944   8.246  42.350   9.164
  602POPC   GL110945   8.240  42.371   8.864
  602POPC   GL210946   8.277  42.248   8.864
  602POPC   C1A10947   8.195  42.352   8.564
  602POPC   D2A10948   8.225  42.311   8.264
  602POPC   C3A10949   8.189  42.348   7.964
  602POPC   C4A10950   8.185  42.293   7.664
  602POPC   C1B10951   8.375  42.182   8.564
  602POPC   C2B10952   8.391  42.151   8.264
  602POPC   C3B10953   8.448  42.210   7.964
  602POPC   C4B10954   8.371  42.199   7.664
  603POPC   NC310955   4.304  15.984   9.464
  603POPC   PO410956   4.341  15.950   9.164
  603POPC   GL110957   4.357  15.987   8.864
  603POPC   GL210958   4.311  15.840   8.864
  603POPC   C1A10959   4.349  15.973   8.564
  603POPC   D2A10960   4.280  15.950   8.264
  603POPC   C3A10961   4.351  15.965   7.964
  603POPC   C4A10962   4.314  15.958   7.664
  603POPC   C1B10963   4.237  15.689   8.564
  603POPC   C2B10964   4.307  15.668   8.264
  603POPC   C3B10965   4.297  15.669   7.964
  603POPC   C4B10966   4.289  15.721   7.664
  604POPC   NC310967  11.334  41.543   9.464
  604POPC   PO410968  11.331  41.558   9.164
  604POPC   GL110969  11.257  41.536   8.864
  604POPC   GL210970  11.196  41.689   8.864
  604POPC   C1A10971  11.276  41.517   8.564
  604POPC   D2A10972  11.290  41.581   8.264
  604POPC   C3A10973  11.334  41.599   7.964
  604POPC   C4A10974  11.285  41.518   7.664
  604POPC   C1B10975  11.152  41.761   8.564
  604POPC   C2B10976  11.079  41.682   8.264
  604POPC   C3B10977  11.139  41.767   7.964
  604POPC   C4B10978  11.165  41.757   7.664
  605POPC   NC310979  12.845  11.330   9.464
  605POPC   PO410980  12.832  11.306   9.164
  605POPC   GL110981  12.899  11.345   8.864
  605POPC   GL210982  12.800  11.436   8.864
  605POPC   C1A10983  12.855  11.257   8.564
  605POPC   D2A10984  12.822  11.285   8.264
  605POPC   C3A10985  12.843  11.254   7.964
  605POPC   C4A10986  12.854  11.261   7.664
  605POPC   C1B10987  12.779  11.526   8.564
  605POPC   C2B10988  12.816  11.502   8.264
  605POPC   C3B10989  12.760  11.550   7.964
  605POPC   C4B10990  12.766  11.531   7.664
  606POPC   NC310991  25.231   6.654   9.464
  606POPC   PO410992  25.304   6.687   9.164
  606POPC   GL110993  25.275   6.610   8.864
  606POPC   GL210994  25.099   6.707   8.864
  606POPC   C1A10995  25.228   6.647   8.564
  606POPC   D2A10996  25.296   6.675   8.264
  606POPC   C3A10997  25.262   6.687   7.964
  606POPC   C4A10998  25.250   6.645   7.664
  606POPC   C1B10999  25.017   6.691   8.564
  606POPC   C2B11000  25.011   6.763   8.264
  606POPC   C3B11001  24.997   6.748   7.964
  606POPC   C4B11002  25.002   6.769   7.664
  607POPC   NC311003  40.007  12.040   9.464
  607POPC   PO411004  39.967  12.092   9.164
  607POPC   GL111005  40.048  12.064   8.864
  607POPC   GL211006  39.936  11.974   8.864
  607POPC   C1A11007  39.996  12.074   8.564
  607POPC   D2A11008  39.967  12.054   8.264
  607POPC   C3A11009  40.014  12.065   7.964
  607POPC   C4A11010  40.039  12.027   7.664
  607POPC   C1B11011  39.848  11.852   8.564
  607POPC   C2B11012  39.849  11.902   8.264
  607POPC   C3B11013  39.792  11.878   7.964
  607POPC   C4B11014  39.834  11.902   7.664
  608POPC   NC311015   3.557  21.370   9.464
  608POPC   PO411016   3.576  21.350   9.164
  608POPC   GL111017   3.556  21.374   8.864
  608POPC   GL211018   3.517  21.503   8.864
  608POPC   C1A11019   3.581  21.408   8.564
  608POPC   D2A11020   3.504  21.355   8.264
  608POPC   C3A11021   3.564  21.352   7.964
  608POPC   C4A11022   3.577  21.427   7.664
  608POPC   C1B11023   3.493  21.642   8.564
  608POPC   C2B11024   3.466  21.627   8.264
  608POPC   C3B11025   3.553  21.613   7.964
  608POPC   C4B11026   3.473  21.596   7.664
  609POPC   NC311027  28.336  15.223   9.464
  609POPC   PO411028  28.367  15.154   9.164
  609POPC   GL111029  28.345  15.170   8.864
  609POPC   GL211030  28.383  15.262   8.864
  609POPC   C1A11031  28.379  15.157   8.564
  609POPC   D2A11032  28.399  15.200   8.264
  609POPC   C3A11033  28.387  15.215   7.964
  609POPC   C4A11034  28.338  15.214   7.664
  609POPC   C1B11035  28.451  15.368   8.564
  609POPC   C2B11036  28.461  15.393   8.264
  609POPC   C3B11037  28.512  15.362   7.964
  609POPC   C4B11038  28.453  15.412   7.664
  610POPC   NC311039  14.387  12.895   9.464
  610POPC   PO411040  14.425  12.899   9.164
  610POPC   GL111041  14.433  12.822   8.864
  610POPC   GL211042  14.511  12.806   8.864
  610POPC   C1A11043  14.358  12.855   8.564
  610POPC   D2A11044  14.426  12.880   8.264
  610POPC   C3A11045  14.403  12.828   7.964
  610POPC   C4A11046  14.418  12.880   7.664
  610POPC   C1B11047  14.583  12.664   8.564
  610POPC   C2B11048  14.603  12.678   8.264
  610POPC   C3B11049  14.592  12.632   7.964
  610POPC   C4B11050  14.593  12.655   7.664
  611POPC   NC311051  28.395  40.771   9.464
  611POPC   PO411052  28.368  40.780   9.164
  611POPC   GL111053  28.406  40.794   8.864
  611POPC   GL211054  28.269  40.842   8.864
  611POPC   C1A11055  28.364  40.758   8.564
  611POPC   D2A11056  28.392  40.830   8.264
  611POPC   C3A11057  28.320  40.778   7.964
  611POPC   C4A11058  28.407  40.791   7.664
  611POPC   C1B11059  28.171  40.853   8.564
  611POPC   C2B11060  28.088  40.817   8.264
  611POPC   C3B11061  28.082  40.820   7.964
  611POPC   C4B11062  28.121  40.852   7.664
  612POPC   NC311063  16.699   2.016   9.464
  612POPC   PO411064  16.760   1.984   9.164
  612POPC   GL111065  16.683   2.003   8.864
  612POPC   GL211066  16.738   1.867   8.864
  612POPC   C1A11067  16.765   1.991   8.564
  612POPC   D2A11068  16.690   1.971   8.264
  612POPC   C3A11069  16.756   2.026   7.964
  612POPC   C4A11070  16.767   1.989   7.664
  612POPC   C1B11071  16.636   1.736   8.564
  612POPC   C2B11072  16.650   1.798   8.264
  612POPC   C3B11073  16.685   1.756   7.964
  612POPC   C4B11074  16.625   1.741   7.664
  613POPC   NC311075   9.011   4.303   9.464
  613POPC   PO411076   9.019   4.347   9.164
  613POPC   GL111077   8.934   4.346   8.864
  613POPC   GL211078   8.968   4.219   8.864
  613POPC   C1A11079   8.946   4.351   8.564
  613POPC   D2A11080   8.937   4.348   8.264
  613POPC   C3A11081   8.955   4.294   7.964
  613POPC   C4A11082   8.980   4.316   7.664
  613POPC   C1B11083   9.055   4.105   8.564
  613POPC   C2B11084   8.975   4.078   8.264
  613POPC   C3B11085   9.072   4.120   7.964
  613POPC   C4B11086   9.073   4.087   7.664
  614POPC   NC311087  22.139  17.537   9.464
  614POPC   PO411088  22.114  17.529   9.164
  614POPC   GL111089  22.204  17.557   8.864
  614POPC   GL211090  22.228  17.570   8.864
  614POPC   C1A11091  22.134  17.534   8.564
  614POPC   D2A11092  22.204  17.508   8.264
  614POPC   C3A11093  22.209  17.484   7.964
  614POPC   C4A11094  22.207  17.505   7.664
  614POPC   C1B11095  22.415  17.630   8.564
  614POPC   C2B11096  22.400  17.673   8.264
  614POPC   C3B11097  22.377  17.698   7.964
  614POPC   C4B11098  22.364  17.631   7.664
  615POPC   NC311099  10.481   8.232   9.464
  615POPC   PO411100  10.555   8.157   9.164
  615POPC   GL111101  10.573   8.188   8.864
  615POPC   GL211102  10.565   8.089   8.864
  615POPC   C1A11103  10.523   8.150   8.564
  615POPC   D2A11104  10.525   8.168   8.264
  615POPC   C3A11105  10.503   8.192   7.964
  615POPC   C4A11106  10.485   8.152   7.664
  615POPC   C1B11107  10.539   7.954   8.564
  615POPC   C2B11108  10.568   7.899   8.264
  615POPC   C3B11109  10.558   7.947   7.964
  615POPC   C4B11110  10.481   7.905   7.664
  616POPC   NC311111  20.614  39.203   9.464
  616POPC   PO411112  20.567  39.221   9.164
  616POPC   GL111113  20.638  39.281   8.864
  616POPC   GL211114  20.713  39.136   8.864
  616POPC   C1A11115  20.624  39.207   8.564
  616POPC   D2A11116  20.644  39.278   8.264
  616POPC   C3A11117  20.626  39.191   7.964
  616POPC   C4A11118  20.642  39.192   7.664
  616POPC   C1B11119  20.751  39.028   8.564
  616POPC   C2B11120  20.743  39.055   8.264
  616POPC   C3B11121  20.700  39.067   7.964
  616POPC   C4B11122  20.745  39.061   7.664
  617POPC   NC311123  19.806  16.775   9.464
  617POPC   PO411124  19.808  16.751   9.164
  617POPC   GL111125  19.802  16.769   8.864
  617POPC   GL211126  19.920  16.764   8.864
  617POPC   C1A11127  19.810  16.764   8.564
  617POPC   D2A11128  19.833  16.781   8.264
  617POPC   C3A11129  19.880  16.697   7.964
  617POPC   C4A11130  19.843  16.750   7.664
  617POPC   C1B11131  20.069  16.854   8.564
  617POPC   C2B11132  20.026  16.867   8.264
  617POPC   C3B11133  20.081  16.877   7.964
  617POPC   C4B11134  20.091  16.866   7.664
  618POPC   NC311135  43.129  24.487   9.464
  618POPC   PO411136  43.121  24.515   9.164
  618POPC   GL111137  43.070  24.441   8.864
  618POPC   GL211138  43.088  24.594   8.864
  618POPC   C1A11139  43.141  24.515   8.564
  618POPC   D2A11140  43.157  24.451   8.264
  618POPC   C3A11141  43.138  24.453   7.964
  618POPC   C4A11142  43.091  24.455   7.664
  618POPC   C1B11143  42.975  24.720   8.564
  618POPC   C2B11144  42.998  24.702   8.264
  618POPC   C3B11145  42.962  24.683   7.964
  618POPC   C4B11146  42.933  24.671   7.664
  619POPC   NC311147   5.866  18.263   9.464
  619POPC   PO411148   5.823  18.247   9.164
  619POPC   GL111149   5.870  18.329   8.864
  619POPC   GL211150   6.042  18.240   8.864
  619POPC   C1A11151   5.823  18.257   8.564
  619POPC   D2A11152   5.917  18.308   8.264
  619POPC   C3A11153   5.909  18.328   7.964
  619POPC   C4A11154   5.913  18.295   7.664
  619POPC   C1B11155   6.163  18.214   8.564
  619POPC   C2B11156   6.098  18.255   8.264
  619POPC   C3B11157   6.149  18.281   7.964
  619POPC   C4B11158   6.120  18.255   7.664
  620POPC   NC311159   6.662  16.687   9.464
  620POPC   PO411160   6.685  16.745   9.164
  620POPC   GL111161   6.609  16.709   8.864
  620POPC   GL211162   6.782  16.769   8.864
  620POPC   C1A11163   6.602  16.699   8.564
  620POPC   D2A11164   6.601  16.708   8.264
  620POPC   C3A11165   6.657  16.699   7.964
  620POPC   C4A11166   6.686  16.684   7.664
  620POPC   C1B11167   6.890  16.783   8.564
  620POPC   C2B11168   6.927  16.839   8.264
  620POPC   C3B11169   6.917  16.804   7.964
  620POPC   C4B11170   6.886  16.827   7.664
  621POPC   NC311171  23.719  24.492   9.464
  621POPC   PO411172  23.717  24.455   9.164
  621POPC   GL111173  23.749  24.450   8.864
  621POPC   GL211174  23.610  24.507   8.864
  621POPC   C1A11175  23.710  24.441   8.564
  621POPC   D2A11176  23.730  24.441   8.264
  621POPC   C3A11177  23.714  24.484   7.964
  621POPC   C4A11178  23.677  24.522   7.664
  621POPC   C1B11179  23.478  24.605   8.564
  621POPC   C2B11180  23.484  24.573   8.264
  621POPC   C3B11181  23.464  24.636   7.964
  621POPC   C4B11182  23.476  24.585   7.664
  622POPC   NC311183  12.844  39.211   9.464
  622POPC   PO411184  12.855  39.281   9.164
  622POPC   GL111185  12.853  39.222   8.864
  622POPC   GL211186  12.799  39.159   8.864
  622POPC   C1A11187  12.869  39.217   8.564
  622POPC   D2A11188  12.868  39.229   8.264
  622POPC   C3A11189  12.813  39.184   7.964
  622POPC   C4A11190  12.820  39.280   7.664
  622POPC   C1B11191  12.796  39.005   8.564
  622POPC   C2B11192  12.757  38.979   8.264
  622POPC   C3B11193  12.765  38.992   7.964
  622POPC   C4B11194  12.798  38.991   7.664
  623POPC   NC311195  33.804  22.968   9.464
  623POPC   PO411196  33.831  22.966   9.164
  623POPC   GL111197  33.822  22.925   8.864
  623POPC   GL211198  33.740  22.979   8.864
  623POPC   C1A11199  33.824  22.891   8.564
  623POPC   D2A11200  33.790  22.926   8.264
  623POPC   C3A11201  33.813  22.903   7.964
  623POPC   C4A11202  33.821  22.927   7.664
  623POPC   C1B11203  33.649  23.089   8.564
  623POPC   C2B11204  33.657  23.147   8.264
  623POPC   C3B11205  33.636  23.093   7.964
  623POPC   C4B11206  33.651  23.051   7.664
  624POPC   NC311207  10.550  25.220   9.464
  624POPC   PO411208  10.555  25.220   9.164
  624POPC   GL111209  10.527  25.291   8.864
  624POPC   GL211210  10.657  25.376   8.864
  624POPC   C1A11211  10.520  25.235   8.564
  624POPC   D2A11212  10.522  25.271   8.264
  624POPC   C3A11213  10.560  25.240   7.964
  624POPC   C4A11214  10.532  25.282   7.664
  624POPC   C1B11215  10.781  25.399   8.564
  624POPC   C2B11216  10.742  25.455   8.264
  624POPC   C3B11217  10.689  25.429   7.964
  624POPC   C4B11218  10.734  25.390   7.664
  625POPC   NC311219  25.266  26.802   9.464
  625POPC   PO411220  25.246  26.857   9.164
  625POPC   GL111221  25.301  26.800   8.864
  625POPC   GL211222  25.390  26.843   8.864
  625POPC   C1A11223  25.217  26.775   8.564
  625POPC   D2A11224  25.291  26.794   8.264
  625POPC   C3A11225  25.304  26.774   7.964
  625POPC   C4A11226  25.249  26.860   7.664
  625POPC   C1B11227  25.465  26.745   8.564
  625POPC   C2B11228  25.506  26.806   8.264
  625POPC   C3B11229  25.495  26.789   7.964
  625POPC   C4B11230  25.520  26.723   7.664
  626POPC   NC311231  44.681  12.813   9.464
  626POPC   PO411232  44.699  12.892   9.164
  626POPC   GL111233  44.645  12.821   8.864
  626POPC   GL211234  44.730  12.773   8.864
  626POPC   C1A11235  44.684  12.840   8.564
  626POPC   D2A11236  44.647  12.878   8.264
  626POPC   C3A11237  44.630  12.843   7.964
  626POPC   C4A11238  44.628  12.843   7.664
  626POPC   C1B11239  44.890  12.705   8.564
  626POPC   C2B11240  44.910  12.781   8.264
  626POPC   C3B11241  44.891  12.795   7.964
  626POPC   C4B11242  44.845  12.765   7.664
  627POPC   NC311243   8.190   1.943   9.464
  627POPC   PO411244   8.192   1.988   9.164
  627POPC   GL111245   8.187   1.992   8.864
  627POPC   GL211246   8.309   1.881   8.864
  627POPC   C1A11247   8.172   1.947   8.564
  627POPC   D2A11248   8.215   1.955   8.264
  627POPC   C3A11249   8.229   2.026   7.964
  627POPC   C4A11250   8.191   1.943   7.664
  627POPC   C1B11251   8.406   1.826   8.564
  627POPC   C2B11252   8.363   1.809   8.264
  627POPC   C3B11253   8.378   1.863   7.964
  627POPC   C4B11254   8.362   1.876   7.664
  628POPC   NC311255  43.853   8.956   9.464
  628POPC   PO411256  43.852   8.999   9.164
  628POPC   GL111257  43.929   8.931   8.864
  628POPC   GL211258  43.955   8.907   8.864
  628POPC   C1A11259  43.874   8.959   8.564
  628POPC   D2A11260  43.897   8.955   8.264
  628POPC   C3A11261  43.862   8.937   7.964
  628POPC   C4A11262  43.910   9.014   7.664
  628POPC   C1B11263  44.105   8.873   8.564
  628POPC   C2B11264  44.125   8.927   8.264
  628POPC   C3B11265  44.134   8.929   7.964
  628POPC   C4B11266  44.162   8.927   7.664
  629POPC   NC311267  14.365   9.021   9.464
  629POPC   PO411268  14.402   8.927   9.164
  629POPC   GL111269  14.382   8.933   8.864
  629POPC   GL211270  14.427   9.133   8.864
  629POPC   C1A11271  14.411   8.946   8.564
  629POPC   D2A11272  14.414   9.003   8.264
  629POPC   C3A11273  14.402   8.981   7.964
  629POPC   C4A11274  14.440   9.017   7.664
  629POPC   C1B11275  14.375   9.255   8.564
  629POPC   C2B11276  14.335   9.189   8.264
  629POPC   C3B11277  14.392   9.196   7.964
  629POPC   C4B11278  14.328   9.238   7.664
  630POPC   NC311279   0.411  17.513   9.464
  630POPC   PO411280   0.436  17.472   9.164
  630POPC   GL111281   0.432  17.469   8.864
  630POPC   GL211282   0.532  17.566   8.864
  630POPC   C1A11283   0.408  17.457   8.564
  630POPC   D2A11284   0.412  17.516   8.264
  630POPC   C3A11285   0.450  17.490   7.964
  630POPC   C4A11286   0.442  17.473   7.664
  630POPC   C1B11287   0.659  17.575   8.564
  630POPC   C2B11288   0.685  17.565   8.264
  630POPC   C3B11289   0.685  17.537   7.964
  630POPC   C4B11290   0.728  17.536   7.664
  631POPC   NC311291  36.100  15.961   9.464
  631POPC   PO411292  36.120  15.935   9.164
  631POPC   GL111293  36.126  15.918   8.864
  631POPC   GL211294  36.098  16.060   8.864
  631POPC   C1A11295  36.135  15.949   8.564
  631POPC   D2A11296  36.114  15.984   8.264
  631POPC   C3A11297  36.129  15.908   7.964
  631POPC   C4A11298  36.123  15.996   7.664
  631POPC   C1B11299  36.020  16.165   8.564
  631POPC   C2B11300  36.035  16.157   8.264
  631POPC   C3B11301  36.028  16.192   7.964
  631POPC   C4B11302  35.989  16.166   7.664
  632POPC   NC311303  19.807  23.694   9.464
  632POPC   PO411304  19.876  23.703   9.164
  632POPC   GL111305  19.804  23.762   8.864
  632POPC   GL211306  19.873  23.657   8.864
  632POPC   C1A11307  19.854  23.710   8.564
  632POPC   D2A11308  19.834  23.679   8.264
  632POPC   C3A11309  19.873  23.664   7.964
  632POPC   C4A11310  19.795  23.764   7.664
  632POPC   C1B11311  19.951  23.482   8.564
  632POPC   C2B11312  19.990  23.519   8.264
  632POPC   C3B11313  19.963  23.565   7.964
  632POPC   C4B11314  19.950  23.564   7.664
  633POPC   NC311315  19.072  16.753   9.464
  633POPC   PO411316  19.073  16.714   9.164
  633POPC   GL111317  19.049  16.759   8.864
  633POPC   GL211318  18.942  16.692   8.864
  633POPC   C1A11319  19.012  16.748   8.564
  633POPC   D2A11320  19.098  16.777   8.264
  633POPC   C3A11321  19.013  16.741   7.964
  633POPC   C4A11322  19.072  16.712   7.664
  633POPC   C1B11323  18.865  16.553   8.564
  633POPC   C2B11324  18.832  16.573   8.264
  633POPC   C3B11325  18.815  16.558   7.964
  633POPC   C4B11326  18.840  16.594   7.664
  634POPC   NC311327   6.667   6.599   9.464
  634POPC   PO411328   6.629   6.689   9.164
  634POPC   GL111329   6.605   6.671   8.864
  634POPC   GL211330   6.816   6.643   8.864
  634POPC   C1A11331   6.605   6.664   8.564
  634POPC   D2A11332   6.623   6.691   8.264
  634POPC   C3A11333   6.634   6.597   7.964
  634POPC   C4A11334   6.613   6.604   7.664
  634POPC   C1B11335   6.858   6.659   8.564
  634POPC   C2B11336   6.911   6.662   8.264
  634POPC   C3B11337   6.926   6.601   7.964
  634POPC   C4B11338   6.926   6.639   7.664
  635POPC   NC311339   5.902   2.804   9.464
  635POPC   PO411340   5.847   2.733   9.164
  635POPC   GL111341   5.905   2.761   8.864
  635POPC   GL211342   5.753   2.728   8.864
  635POPC   C1A11343   5.916   2.804   8.564
  635POPC   D2A11344   5.856   2.775   8.264
  635POPC   C3A11345   5.847   2.746   7.964
  635POPC   C4A11346   5.866   2.788   7.664
  635POPC   C1B11347   5.684   2.640   8.564
  635POPC   C2B11348   5.622   2.682   8.264
  635POPC   C3B11349   5.667   2.693   7.964
  635POPC   C4B11350   5.675   2.654   7.664
  636POPC   NC311351  12.881  36.935   9.464
  636POPC   PO411352  12.899  36.868   9.164
  636POPC   GL111353  12.855  36.910   8.864
  636POPC   GL211354  12.866  36.975   8.864
  636POPC   C1A11355  12.848  36.916   8.564
  636POPC   D2A11356  12.811  36.912   8.264
  636POPC   C3A11357  12.815  36.948   7.964
  636POPC   C4A11358  12.897  36.872   7.664
  636POPC   C1B11359  12.987  37.149   8.564
  636POPC   C2B11360  12.932  37.159   8.264
  636POPC   C3B11361  12.965  37.163   7.964
  636POPC   C4B11362  12.959  37.126   7.664
  637POPC   NC311363   8.193  44.708   9.464
  637POPC   PO411364   8.237  44.652   9.164
  637POPC   GL111365   8.180  44.692   8.864
  637POPC   GL211366   8.060  44.718   8.864
  637POPC   C1A11367   8.241  44.661   8.564
  637POPC   D2A11368   8.182  44.670   8.264
  637POPC   C3A11369   8.185  44.628   7.964
  637POPC   C4A11370   8.212  44.619   7.664
  637POPC   C1B11371   7.917  44.701   8.564
  637POPC   C2B11372   7.922  44.670   8.264
  637POPC   C3B11373   7.916  44.677   7.964
  637POPC   C4B11374   7.934  44.669   7.664
  638POPC   NC311375  37.725  33.052   9.464
  638POPC   PO411376  37.695  33.065   9.164
  638POPC   GL111377  37.684  32.983   8.864
  638POPC   GL211378  37.705  33.109   8.864
  638POPC   C1A11379  37.727  33.000   8.564
  638POPC   D2A11380  37.653  33.017   8.264
  638POPC   C3A11381  37.691  33.024   7.964
  638POPC   C4A11382  37.695  33.051   7.664
  638POPC   C1B11383  37.622  33.269   8.564
  638POPC   C2B11384  37.641  33.304   8.264
  638POPC   C3B11385  37.674  33.274   7.964
  638POPC   C4B11386  37.619  33.292   7.664
  639POPC   NC311387  10.561  38.424   9.464
  639POPC   PO411388  10.521  38.455   9.164
  639POPC   GL111389  10.499  38.408   8.864
  639POPC   GL211390  10.672  38.576   8.864
  639POPC   C1A11391  10.570  38.411   8.564
  639POPC   D2A11392  10.475  38.502   8.264
  639POPC   C3A11393  10.476  38.498   7.964
  639POPC   C4A11394  10.503  38.468   7.664
  639POPC   C1B11395  10.722  38.630   8.564
  639POPC   C2B11396  10.742  38.559   8.264
  639POPC   C3B11397  10.696  38.610   7.964
  639POPC   C4B11398  10.695  38.583   7.664
  640POPC   NC311399  26.786  19.828   9.464
  640POPC   PO411400  26.859  19.815   9.164
  640POPC   GL111401  26.861  19.854   8.864
  640POPC   GL211402  26.936  19.782   8.864
  640POPC   C1A11403  26.777  19.852   8.564
  640POPC   D2A11404  26.788  19.787   8.264
  640POPC   C3A11405  26.787  19.878   7.964
  640POPC   C4A11406  26.773  19.878   7.664
  640POPC   C1B11407  26.978  19.668   8.564
  640POPC   C2B11408  27.019  19.644   8.264
  640POPC   C3B11409  26.996  19.691   7.964
  640POPC   C4B11410  27.018  19.630   7.664
  641POPC   NC311411   6.631  41.545   9.464
  641POPC   PO411412   6.640  41.550   9.164
  641POPC   GL111413   6.608  41.601   8.864
  641POPC   GL211414   6.635  41.660   8.864
  641POPC   C1A11415   6.635  41.534   8.564
  641POPC   D2A11416   6.681  41.521   8.264
  641POPC   C3A11417   6.604  41.511   7.964
  641POPC   C4A11418   6.645  41.589   7.664
  641POPC   C1B11419   6.560  41.794   8.564
  641POPC   C2B11420   6.536  41.805   8.264
  641POPC   C3B11421   6.566  41.744   7.964
  641POPC   C4B11422   6.568  41.738   7.664
  642POPC   NC311423  19.102  33.035   9.464
  642POPC   PO411424  19.078  32.982   9.164
  642POPC   GL111425  19.012  33.042   8.864
  642POPC   GL211426  19.194  32.978   8.864
  642POPC   C1A11427  19.087  32.998   8.564
  642POPC   D2A11428  19.031  33.043   8.264
  642POPC   C3A11429  19.076  33.021   7.964
  642POPC   C4A11430  19.037  32.999   7.664
  642POPC   C1B11431  19.283  32.923   8.564
  642POPC   C2B11432  19.308  32.864   8.264
  642POPC   C3B11433  19.257  32.866   7.964
  642POPC   C4B11434  19.271  32.899   7.664
  643POPC   NC311435  16.681  23.702   9.464
  643POPC   PO411436  16.682  23.731   9.164
  643POPC   GL111437  16.773  23.713   8.864
  643POPC   GL211438  16.852  23.726   8.864
  643POPC   C1A11439  16.707  23.747   8.564
  643POPC   D2A11440  16.762  23.666   8.264
  643POPC   C3A11441  16.739  23.740   7.964
  643POPC   C4A11442  16.692  23.671   7.664
  643POPC   C1B11443  16.943  23.724   8.564
  643POPC   C2B11444  16.973  23.714   8.264
  643POPC   C3B11445  16.967  23.719   7.964
  643POPC   C4B11446  17.004  23.720   7.664
  644POPC   NC311447  35.328  32.205   9.464
  644POPC   PO411448  35.344  32.272   9.164
  644POPC   GL111449  35.311  32.282   8.864
  644POPC   GL211450  35.440  32.242   8.864
  644POPC   C1A11451  35.349  32.224   8.564
  644POPC   D2A11452  35.333  32.295   8.264
  644POPC   C3A11453  35.389  32.232   7.964
  644POPC   C4A11454  35.346  32.268   7.664
  644POPC   C1B11455  35.597  32.162   8.564
  644POPC   C2B11456  35.570  32.204   8.264
  644POPC   C3B11457  35.610  32.192   7.964
  644POPC   C4B11458  35.580  32.193   7.664
  645POPC   NC311459   7.458  34.584   9.464
  645POPC   PO411460   7.382  34.551   9.164
  645POPC   GL111461   7.446  34.581   8.864
  645POPC   GL211462   7.448  34.446   8.864
  645POPC   C1A11463   7.403  34.541   8.564
  645POPC   D2A11464   7.401  34.607   8.264
  645POPC   C3A11465   7.410  34.617   7.964
  645POPC   C4A11466   7.437  34.606   7.664
  645POPC   C1B11467   7.429  34.337   8.564
  645POPC   C2B11468   7.402  34.291   8.264
  645POPC   C3B11469   7.384  34.360   7.964
  645POPC   C4B11470   7.391  34.367   7.664
  646POPC   NC311471  15.935  25.291   9.464
  646POPC   PO411472  15.928  25.254   9.164
  646POPC   GL111473  15.968  25.238   8.864
  646POPC   GL211474  15.875  25.138   8.864
  646POPC   C1A11475  15.965  25.225   8.564
  646POPC   D2A11476  15.926  25.267   8.264
  646POPC   C3A11477  15.985  25.300   7.964
  646POPC   C4A11478  15.967  25.239   7.664
  646POPC   C1B11479  15.846  25.073   8.564
  646POPC   C2B11480  15.779  25.009   8.264
  646POPC   C3B11481  15.851  25.065   7.964
  646POPC   C4B11482  15.857  25.080   7.664
  647POPC   NC311483  22.891   8.976   9.464
  647POPC   PO411484  22.958   8.953   9.164
  647POPC   GL111485  22.890   8.926   8.864
  647POPC   GL211486  23.110   8.938   8.864
  647POPC   C1A11487  22.986   9.004   8.564
  647POPC   D2A11488  22.912   8.960   8.264
  647POPC   C3A11489  22.916   8.951   7.964
  647POPC   C4A11490  22.939   8.923   7.664
  647POPC   C1B11491  23.138   9.028   8.564
  647POPC   C2B11492  23.196   8.988   8.264
  647POPC   C3B11493  23.159   8.984   7.964
  647POPC   C4B11494  23.216   9.028   7.664
  648POPC   NC311495  22.955  22.900   9.464
  648POPC   PO411496  22.917  22.920   9.164
  648POPC   GL111497  22.919  22.978   8.864
  648POPC   GL211498  22.924  23.080   8.864
  648POPC   C1A11499  22.961  22.896   8.564
  648POPC   D2A11500  22.952  22.931   8.264
  648POPC   C3A11501  22.953  22.932   7.964
  648POPC   C4A11502  22.919  22.969   7.664
  648POPC   C1B11503  22.954  23.196   8.564
  648POPC   C2B11504  22.920  23.192   8.264
  648POPC   C3B11505  22.931  23.146   7.964
  648POPC   C4B11506  22.920  23.173   7.664
  649POPC   NC311507   1.261   4.325   9.464
  649POPC   PO411508   1.223   4.291   9.164
  649POPC   GL111509   1.263   4.314   8.864
  649POPC   GL211510   1.182   4.431   8.864
  649POPC   C1A11511   1.251   4.361   8.564
  649POPC   D2A11512   1.224   4.346   8.264
  649POPC   C3A11513   1.255   4.284   7.964
  649POPC   C4A11514   1.240   4.330   7.664
  649POPC   C1B11515   1.205   4.605   8.564
  649POPC   C2B11516   1.250   4.555   8.264
  649POPC   C3B11517   1.231   4.549   7.964
  649POPC   C4B11518   1.237   4.582   7.664
  650POPC   NC311519  12.080   2.747   9.464
  650POPC   PO411520  12.074   2.815   9.164
  650POPC   GL111521  12.113   2.728   8.864
  650POPC   GL211522  12.187   2.818   8.864
  650POPC   C1A11523  12.057   2.730   8.564
  650POPC   D2A11524  12.032   2.716   8.264
  650POPC   C3A11525  12.117   2.771   7.964
  650POPC   C4A11526  12.096   2.770   7.664
  650POPC   C1B11527  12.304   2.872   8.564
  650POPC   C2B11528  12.319   2.818   8.264
  650POPC   C3B11529  12.319   2.791   7.964
  650POPC   C4B11530  12.280   2.836   7.664
  651POPC   NC311531  14.365   4.323   9.464
  651POPC   PO411532  14.421   4.325   9.164
  651POPC   GL111533  14.354   4.358   8.864
  651POPC   GL211534  14.404   4.161   8.864
  651POPC   C1A11535  14.385   4.323   8.564
  651POPC   D2A11536  14.381   4.327   8.264
  651POPC   C3A11537  14.388   4.302   7.964
  651POPC   C4A11538  14.371   4.362   7.664
  651POPC   C1B11539  14.432   4.075   8.564
  651POPC   C2B11540  14.485   4.073   8.264
  651POPC   C3B11541  14.442   4.098   7.964
  651POPC   C4B11542  14.439   4.118   7.664
  652POPC   NC311543  16.725  31.429   9.464
  652POPC   PO411544  16.707  31.486   9.164
  652POPC   GL111545  16.756  31.510   8.864
  652POPC   GL211546  16.815  31.521   8.864
  652POPC   C1A11547  16.688  31.504   8.564
  652POPC   D2A11548  16.755  31.427   8.264
  652POPC   C3A11549  16.725  31.513   7.964
  652POPC   C4A11550  16.747  31.444   7.664
  652POPC   C1B11551  16.981  31.550   8.564
  652POPC   C2B11552  16.971  31.497   8.264
  652POPC   C3B11553  16.970  31.584   7.964
  652POPC   C4B11554  16.951  31.565   7.664
  653POPC   NC311555  38.425   3.499   9.464
  653POPC   PO411556  38.419   3.544   9.164
  653POPC   GL111557  38.413   3.497   8.864
  653POPC   GL211558  38.524   3.671   8.864
  653POPC   C1A11559  38.428   3.496   8.564
  653POPC   D2A11560  38.449   3.543   8.264
  653POPC   C3A11561  38.490   3.572   7.964
  653POPC   C4A11562  38.498   3.541   7.664
  653POPC   C1B11563  38.635   3.745   8.564
  653POPC   C2B11564  38.625   3.762   8.264
  653POPC   C3B11565  38.659   3.725   7.964
  653POPC   C4B11566  38.639   3.725   7.664
  654POPC   NC311567  19.807  12.088   9.464
  654POPC   PO411568  19.853  12.033   9.164
  654POPC   GL111569  19.798  12.085   8.864
  654POPC   GL211570  19.814  12.010   8.864
  654POPC   C1A11571  19.786  12.063   8.564
  654POPC   D2A11572  19.813  12.058   8.264
  654POPC   C3A11573  19.857  12.079   7.964
  654POPC   C4A11574  19.857  12.050   7.664
  654POPC   C1B11575  19.764  11.871   8.564
  654POPC   C2B11576  19.692  11.820   8.264
  654POPC   C3B11577  19.768  11.859   7.964
  654POPC   C4B11578  19.741  11.866   7.664
  655POPC   NC311579  40.733   5.136   9.464
  655POPC   PO411580  40.776   5.094   9.164
  655POPC   GL111581  40.783   5.142   8.864
  655POPC   GL211582  40.920   5.132   8.864
  655POPC   C1A11583  40.804   5.102   8.564
  655POPC   D2A11584  40.733   5.075   8.264
  655POPC   C3A11585  40.790   5.068   7.964
  655POPC   C4A11586  40.804   5.085   7.664
  655POPC   C1B11587  40.970   5.174   8.564
  655POPC   C2B11588  40.970   5.184   8.264
  655POPC   C3B11589  40.957   5.182   7.964
  655POPC   C4B11590  41.023   5.169   7.664
  656POPC   NC311591  15.217   9.713   9.464
  656POPC   PO411592  15.151   9.757   9.164
  656POPC   GL111593  15.159   9.709   8.864
  656POPC   GL211594  15.092   9.758   8.864
  656POPC   C1A11595  15.215   9.760   8.564
  656POPC   D2A11596  15.185   9.720   8.264
  656POPC   C3A11597  15.226   9.759   7.964
  656POPC   C4A11598  15.216   9.748   7.664
  656POPC   C1B11599  14.984   9.843   8.564
  656POPC   C2B11600  14.976   9.812   8.264
  656POPC   C3B11601  14.912   9.869   7.964
  656POPC   C4B11602  14.965   9.807   7.664
  657POPC   NC311603   2.764   6.669   9.464
  657POPC   PO411604   2.729   6.651   9.164
  657POPC   GL111605   2.788   6.629   8.864
  657POPC   GL211606   2.676   6.553   8.864
  657POPC   C1A11607   2.768   6.599   8.564
  657POPC   D2A11608   2.745   6.671   8.264
  657POPC   C3A11609   2.783   6.667   7.964
  657POPC   C4A11610   2.742   6.652   7.664
  657POPC   C1B11611   2.575   6.521   8.564
  657POPC   C2B11612   2.573   6.569   8.264
  657POPC   C3B11613   2.565   6.513   7.964
  657POPC   C4B11614   2.531   6.525   7.664
  658POPC   NC311615  32.979  22.968   9.464
  658POPC   PO411616  33.073  22.922   9.164
  658POPC   GL111617  32.999  22.943   8.864
  658POPC   GL211618  33.078  23.103   8.864
  658POPC   C1A11619  33.045  22.905   8.564
  658POPC   D2A11620  32.999  22.971   8.264
  658POPC   C3A11621  33.039  22.966   7.964
  658POPC   C4A11622  32.977  22.933   7.664
  658POPC   C1B11623  32.999  23.171   8.564
  658POPC   C2B11624  33.083  23.230   8.264
  658POPC   C3B11625  33.036  23.158   7.964
  658POPC   C4B11626  33.081  23.157   7.664
  659POPC   NC311627  33.787  12.891   9.464
  659POPC   PO411628  33.823  12.888   9.164
  659POPC   GL111629  33.848  12.889   8.864
  659POPC   GL211630  33.918  12.879   8.864
  659POPC   C1A11631  33.798  12.802   8.564
  659POPC   D2A11632  33.807  12.857   8.264
  659POPC   C3A11633  33.770  12.895   7.964
  659POPC   C4A11634  33.818  12.843   7.664
  659POPC   C1B11635  34.018  12.877   8.564
  659POPC   C2B11636  34.098  12.919   8.264
  659POPC   C3B11637  34.035  12.904   7.964
  659POPC   C4B11638  34.048  12.861   7.664
  660POPC   NC311639  36.908  30.745   9.464
  660POPC   PO411640  36.891  30.688   9.164
  660POPC   GL111641  36.937  30.737   8.864
  660POPC   GL211642  36.835  30.791   8.864
  660POPC   C1A11643  36.861  30.672   8.564
  660POPC   D2A11644  36.949  30.699   8.264
  660POPC   C3A11645  36.931  30.672   7.964
  660POPC   C4A11646  36.951  30.698   7.664
  660POPC   C1B11647  36.829  30.980   8.564
  660POPC   C2B11648  36.788  30.931   8.264
  660POPC   C3B11649  36.833  30.933   7.964
  660POPC   C4B11650  36.790  30.953   7.664
  661POPC   NC311651  23.692  29.149   9.464
  661POPC   PO411652  23.707  29.142   9.164
  661POPC   GL111653  23.689  29.105   8.864
  661POPC   GL211654  23.612  29.144   8.864
  661POPC   C1A11655  23.690  29.123   8.564
  661POPC   D2A11656  23.711  29.097   8.264
  661POPC   C3A11657  23.665  29.098   7.964
  661POPC   C4A11658  23.673  29.110   7.664
  661POPC   C1B11659  23.505  29.169   8.564
  661POPC   C2B11660  23.459  29.138   8.264
  661POPC   C3B11661  23.417  29.106   7.964
  661POPC   C4B11662  23.417  29.152   7.664
  662POPC   NC311663  11.341  42.330   9.464
  662POPC   PO411664  11.273  42.298   9.164
  662POPC   GL111665  11.254  42.315   8.864
  662POPC   GL211666  11.277  42.216   8.864
  662POPC   C1A11667  11.330  42.357   8.564
  662POPC   D2A11668  11.299  42.323   8.264
  662POPC   C3A11669  11.331  42.356   7.964
  662POPC   C4A11670  11.329  42.316   7.664
  662POPC   C1B11671  11.217  42.048   8.564
  662POPC   C2B11672  11.206  42.112   8.264
  662POPC   C3B11673  11.227  42.055   7.964
  662POPC   C4B11674  11.248  42.059   7.664
  663POPC   NC311675  26.081  37.711   9.464
  663POPC   PO411676  26.082  37.636   9.164
  663POPC   GL111677  26.037  37.652   8.864
  663POPC   GL211678  26.154  37.773   8.864
  663POPC   C1A11679  26.027  37.712   8.564
  663POPC   D2A11680  26.046  37.698   8.264
  663POPC   C3A11681  26.038  37.658   7.964
  663POPC   C4A11682  26.045  37.699   7.664
  663POPC   C1B11683  26.252  37.800   8.564
  663POPC   C2B11684  26.273  37.836   8.264
  663POPC   C3B11685  26.221  37.801   7.964
  663POPC   C4B11686  26.231  37.884   7.664
  664POPC   NC311687  11.292   6.649   9.464
  664POPC   PO411688  11.321   6.633   9.164
  664POPC   GL111689  11.259   6.623   8.864
  664POPC   GL211690  11.433   6.706   8.864
  664POPC   C1A11691  11.262   6.609   8.564
  664POPC   D2A11692  11.258   6.602   8.264
  664POPC   C3A11693  11.274   6.639   7.964
  664POPC   C4A11694  11.309   6.627   7.664
  664POPC   C1B11695  11.530   6.664   8.564
  664POPC   C2B11696  11.502   6.735   8.264
  664POPC   C3B11697  11.582   6.657   7.964
  664POPC   C4B11698  11.548   6.700   7.664
  665POPC   NC311699  37.695  11.295   9.464
  665POPC   PO411700  37.649  11.341   9.164
  665POPC   GL111701  37.646  11.277   8.864
  665POPC   GL211702  37.657  11.150   8.864
  665POPC   C1A11703  37.724  11.268   8.564
  665POPC   D2A11704  37.711  11.269   8.264
  665POPC   C3A11705  37.650  11.338   7.964
  665POPC   C4A11706  37.686  11.271   7.664
  665POPC   C1B11707  37.594  11.055   8.564
  665POPC   C2B11708  37.573  11.062   8.264
  665POPC   C3B11709  37.532  11.068   7.964
  665POPC   C4B11710  37.536  11.086   7.664
  666POPC   NC311711  21.396   6.601   9.464
  666POPC   PO411712  21.389   6.671   9.164
  666POPC   GL111713  21.427   6.652   8.864
  666POPC   GL211714  21.521   6.711   8.864
  666POPC   C1A11715  21.427   6.640   8.564
  666POPC   D2A11716  21.419   6.642   8.264
  666POPC   C3A11717  21.339   6.658   7.964
  666POPC   C4A11718  21.344   6.640   7.664
  666POPC   C1B11719  21.628   6.816   8.564
  666POPC   C2B11720  21.556   6.802   8.264
  666POPC   C3B11721  21.574   6.752   7.964
  666POPC   C4B11722  21.563   6.798   7.664
  667POPC   NC311723  44.664  34.586   9.464
  667POPC   PO411724  44.652  34.620   9.164
  667POPC   GL111725  44.631  34.609   8.864
  667POPC   GL211726  44.590  34.695   8.864
  667POPC   C1A11727  44.661  34.554   8.564
  667POPC   D2A11728  44.646  34.597   8.264
  667POPC   C3A11729  44.647  34.617   7.964
  667POPC   C4A11730  44.658  34.581   7.664
  667POPC   C1B11731  44.633  34.771   8.564
  667POPC   C2B11732  44.625  34.823   8.264
  667POPC   C3B11733  44.608  34.836   7.964
  667POPC   C4B11734  44.557  34.839   7.664
  668POPC   NC311735  10.565  10.508   9.464
  668POPC   PO411736  10.520  10.498   9.164
  668POPC   GL111737  10.512  10.480   8.864
  668POPC   GL211738  10.466  10.379   8.864
  668POPC   C1A11739  10.532  10.563   8.564
  668POPC   D2A11740  10.527  10.488   8.264
  668POPC   C3A11741  10.524  10.529   7.964
  668POPC   C4A11742  10.531  10.505   7.664
  668POPC   C1B11743  10.456  10.313   8.564
  668POPC   C2B11744  10.441  10.263   8.264
  668POPC   C3B11745  10.445  10.295   7.964
  668POPC   C4B11746  10.462  10.255   7.664
  669POPC   NC311747  42.285  38.498   9.464
  669POPC   PO411748  42.305  38.480   9.164
  669POPC   GL111749  42.307  38.494   8.864
  669POPC   GL211750  42.427  38.585   8.864
  669POPC   C1A11751  42.355  38.502   8.564
  669POPC   D2A11752  42.324  38.461   8.264
  669POPC   C3A11753  42.379  38.466   7.964
  669POPC   C4A11754  42.346  38.455   7.664
  669POPC   C1B11755  42.573  38.623   8.564
  669POPC   C2B11756  42.529  38.650   8.264
  669POPC   C3B11757  42.560  38.603   7.964
  669POPC   C4B11758  42.483  38.590   7.664
  670POPC   NC311759  19.040  15.923   9.464
  670POPC   PO411760  19.040  15.953   9.164
  670POPC   GL111761  19.031  15.954   8.864
  670POPC   GL211762  18.956  15.893   8.864
  670POPC   C1A11763  19.043  15.978   8.564
  670POPC   D2A11764  19.051  15.927   8.264
  670POPC   C3A11765  19.011  15.941   7.964
  670POPC   C4A11766  19.106  15.956   7.664
  670POPC   C1B11767  18.827  15.830   8.564
  670POPC   C2B11768  18.822  15.837   8.264
  670POPC   C3B11769  18.847  15.832   7.964
  670POPC   C4B11770  18.814  15.858   7.664
  671POPC   NC311771  26.003   9.768   9.464
  671POPC   PO411772  26.033   9.728   9.164
  671POPC   GL111773  26.061   9.798   8.864
  671POPC   GL211774  25.883   9.738   8.864
  671POPC   C1A11775  26.018   9.735   8.564
  671POPC   D2A11776  25.997   9.738   8.264
  671POPC   C3A11777  26.025   9.738   7.964
  671POPC   C4A11778  26.081   9.789   7.664
  671POPC   C1B11779  25.801   9.608   8.564
  671POPC   C2B11780  25.788   9.583   8.264
  671POPC   C3B11781  25.797   9.591   7.964
  671POPC   C4B11782  25.797   9.676   7.664
  672POPC   NC311783   2.725  29.932   9.464
  672POPC   PO411784   2.737  29.925   9.164
  672POPC   GL111785   2.793  29.914   8.864
  672POPC   GL211786   2.693  29.847   8.864
  672POPC   C1A11787   2.804  29.949   8.564
  672POPC   D2A11788   2.721  29.941   8.264
  672POPC   C3A11789   2.777  29.909   7.964
  672POPC   C4A11790   2.787  29.879   7.664
  672POPC   C1B11791   2.592  29.751   8.564
  672POPC   C2B11792   2.534  29.786   8.264
  672POPC   C3B11793   2.518  29.760   7.964
  672POPC   C4B11794   2.557  29.816   7.664
  673POPC   NC311795  22.181   0.459   9.464
  673POPC   PO411796  22.148   0.410   9.164
  673POPC   GL111797  22.144   0.443   8.864
  673POPC   GL211798  22.160   0.572   8.864
  673POPC   C1A11799  22.165   0.406   8.564
  673POPC   D2A11800  22.147   0.472   8.264
  673POPC   C3A11801  22.186   0.438   7.964
  673POPC   C4A11802  22.166   0.480   7.664
  673POPC   C1B11803  22.273   0.694   8.564
  673POPC   C2B11804  22.275   0.706   8.264
  673POPC   C3B11805  22.274   0.719   7.964
  673POPC   C4B11806  22.241   0.630   7.664
  674POPC   NC311807  18.332  34.559   9.464
  674POPC   PO411808  18.263  34.596   9.164
  674POPC   GL111809  18.239  34.531   8.864
  674POPC   GL211810  18.179  34.645   8.864
  674POPC   C1A11811  18.240  34.538   8.564
  674POPC   D2A11812  18.283  34.611   8.264
  674POPC   C3A11813  18.250  34.552   7.964
  674POPC   C4A11814  18.288  34.581   7.664
  674POPC   C1B11815  18.063  34.670   8.564
  674POPC   C2B11816  18.033  34.718   8.264
  674POPC   C3B11817  18.094  34.710   7.964
  674POPC   C4B11818  18.053  34.744   7.664
  675POPC   NC311819  22.116  24.442   9.464
  675POPC   PO411820  22.149  24.479   9.164
  675POPC   GL111821  22.206  24.468   8.864
  675POPC   GL211822  22.011  24.508   8.864
  675POPC   C1A11823  22.203  24.491   8.564
  675POPC   D2A11824  22.145  24.517   8.264
  675POPC   C3A11825  22.154  24.503   7.964
  675POPC   C4A11826  22.197  24.450   7.664
  675POPC   C1B11827  21.888  24.612   8.564
  675POPC   C2B11828  21.921  24.612   8.264
  675POPC   C3B11829  21.966  24.522   7.964
  675POPC   C4B11830  21.889  24.588   7.664
  676POPC   NC311831   8.945   8.928   9.464
  676POPC   PO411832   8.985   9.012   9.164
  676POPC   GL111833   8.962   8.950   8.864
  676POPC   GL211834   8.908   8.942   8.864
  676POPC   C1A11835   9.022   9.006   8.564
  676POPC   D2A11836   9.015   8.962   8.264
  676POPC   C3A11837   8.940   8.958   7.964
  676POPC   C4A11838   8.975   9.008   7.664
  676POPC   C1B11839   8.786   8.803   8.564
  676POPC   C2B11840   8.811   8.874   8.264
  676POPC   C3B11841   8.754   8.806   7.964
  676POPC   C4B11842   8.793   8.792   7.664
  677POPC   NC311843  17.486  36.115   9.464
  677POPC   PO411844  17.512  36.101   9.164
  677POPC   GL111845  17.499  36.174   8.864
  677POPC   GL211846  17.656  36.060   8.864
  677POPC   C1A11847  17.553  36.085   8.564
  677POPC   D2A11848  17.517  36.132   8.264
  677POPC   C3A11849  17.553  36.176   7.964
  677POPC   C4A11850  17.468  36.144   7.664
  677POPC   C1B11851  17.742  36.094   8.564
  677POPC   C2B11852  17.704  36.057   8.264
  677POPC   C3B11853  17.796  36.086   7.964
  677POPC   C4B11854  17.797  36.064   7.664
  678POPC   NC311855  42.331  24.521   9.464
  678POPC   PO411856  42.346  24.489   9.164
  678POPC   GL111857  42.363  24.498   8.864
  678POPC   GL211858  42.416  24.367   8.864
  678POPC   C1A11859  42.354  24.467   8.564
  678POPC   D2A11860  42.309  24.440   8.264
  678POPC   C3A11861  42.345  24.503   7.964
  678POPC   C4A11862  42.358  24.442   7.664
  678POPC   C1B11863  42.439  24.230   8.564
  678POPC   C2B11864  42.411  24.229   8.264
  678POPC   C3B11865  42.406  24.298   7.964
  678POPC   C4B11866  42.468  24.303   7.664
  679POPC   NC311867  12.874  38.491   9.464
  679POPC   PO411868  12.896  38.469   9.164
  679POPC   GL111869  12.859  38.426   8.864
  679POPC   GL211870  12.974  38.568   8.864
  679POPC   C1A11871  12.827  38.450   8.564
  679POPC   D2A11872  12.846  38.497   8.264
  679POPC   C3A11873  12.847  38.477   7.964
  679POPC   C4A11874  12.806  38.460   7.664
  679POPC   C1B11875  13.013  38.674   8.564
  679POPC   C2B11876  13.054  38.638   8.264
  679POPC   C3B11877  13.023  38.582   7.964
  679POPC   C4B11878  13.071  38.582   7.664
  680POPC   NC311879  25.217  36.148   9.464
  680POPC   PO411880  25.274  36.091   9.164
  680POPC   GL111881  25.256  36.111   8.864
  680POPC   GL211882  25.386  36.262   8.864
  680POPC   C1A11883  25.269  36.097   8.564
  680POPC   D2A11884  25.231  36.112   8.264
  680POPC   C3A11885  25.221  36.090   7.964
  680POPC   C4A11886  25.244  36.081   7.664
  680POPC   C1B11887  25.451  36.318   8.564
  680POPC   C2B11888  25.410  36.288   8.264
  680POPC   C3B11889  25.438  36.355   7.964
  680POPC   C4B11890  25.451  36.353   7.664
  681POPC   NC311891   9.775   1.261   9.464
  681POPC   PO411892   9.705   1.217   9.164
  681POPC   GL111893   9.714   1.200   8.864
  681POPC   GL211894   9.662   1.250   8.864
  681POPC   C1A11895   9.707   1.187   8.564
  681POPC   D2A11896   9.730   1.181   8.264
  681POPC   C3A11897   9.746   1.259   7.964
  681POPC   C4A11898   9.726   1.168   7.664
  681POPC   C1B11899   9.493   1.214   8.564
  681POPC   C2B11900   9.479   1.210   8.264
  681POPC   C3B11901   9.533   1.240   7.964
  681POPC   C4B11902   9.452   1.210   7.664
  682POPC   NC311903  43.889  16.766   9.464
  682POPC   PO411904  43.918  16.693   9.164
  682POPC   GL111905  43.932  16.710   8.864
  682POPC   GL211906  43.788  16.696   8.864
  682POPC   C1A11907  43.875  16.727   8.564
  682POPC   D2A11908  43.891  16.683   8.264
  682POPC   C3A11909  43.892  16.689   7.964
  682POPC   C4A11910  43.851  16.702   7.664
  682POPC   C1B11911  43.645  16.655   8.564
  682POPC   C2B11912  43.694  16.623   8.264
  682POPC   C3B11913  43.612  16.625   7.964
  682POPC   C4B11914  43.660  16.667   7.664
  683POPC   NC311915  44.696  21.389   9.464
  683POPC   PO411916  44.678  21.364   9.164
  683POPC   GL111917  44.680  21.418   8.864
  683POPC   GL211918  44.765  21.455   8.864
  683POPC   C1A11919  44.679  21.420   8.564
  683POPC   D2A11920  44.638  21.389   8.264
  683POPC   C3A11921  44.629  21.357   7.964
  683POPC   C4A11922  44.631  21.373   7.664
  683POPC   C1B11923  44.779  21.595   8.564
  683POPC   C2B11924  44.865  21.596   8.264
  683POPC   C3B11925  44.843  21.605   7.964
  683POPC   C4B11926  44.852  21.576   7.664
  684POPC   NC311927   3.522   0.463   9.464
  684POPC   PO411928   3.585   0.471   9.164
  684POPC   GL111929   3.503   0.396   8.864
  684POPC   GL211930   3.464   0.410   8.864
  684POPC   C1A11931   3.570   0.481   8.564
  684POPC   D2A11932   3.589   0.466   8.264
  684POPC   C3A11933   3.498   0.418   7.964
  684POPC   C4A11934   3.527   0.400   7.664
  684POPC   C1B11935   3.283   0.444   8.564
  684POPC   C2B11936   3.272   0.413   8.264
  684POPC   C3B11937   3.298   0.418   7.964
  684POPC   C4B11938   3.244   0.480   7.664
  685POPC   NC311939   5.893   4.339   9.464
  685POPC   PO411940   5.907   4.347   9.164
  685POPC   GL111941   5.824   4.309   8.864
  685POPC   GL211942   5.748   4.187   8.864
  685POPC   C1A11943   5.898   4.299   8.564
  685POPC   D2A11944   5.883   4.270   8.264
  685POPC   C3A11945   5.869   4.324   7.964
  685POPC   C4A11946   5.841   4.351   7.664
  685POPC   C1B11947   5.731   4.082   8.564
  685POPC   C2B11948   5.674   4.156   8.264
  685POPC   C3B11949   5.704   4.077   7.964
  685POPC   C4B11950   5.724   4.105   7.664
  686POPC   NC311951  35.303  15.205   9.464
  686POPC   PO411952  35.372  15.130   9.164
  686POPC   GL111953  35.386  15.188   8.864
  686POPC   GL211954  35.286  15.046   8.864
  686POPC   C1A11955  35.306  15.204   8.564
  686POPC   D2A11956  35.335  15.213   8.264
  686POPC   C3A11957  35.361  15.129   7.964
  686POPC   C4A11958  35.370  15.184   7.664
  686POPC   C1B11959  35.299  14.985   8.564
  686POPC   C2B11960  35.308  14.955   8.264
  686POPC   C3B11961  35.282  14.986   7.964
  686POPC   C4B11962  35.229  14.992   7.664
  687POPC   NC311963  16.768  43.105   9.464
  687POPC   PO411964  16.744  43.085   9.164
  687POPC   GL111965  16.736  43.099   8.864
  687POPC   GL211966  16.799  43.206   8.864
  687POPC   C1A11967  16.747  43.138   8.564
  687POPC   D2A11968  16.765  43.114   8.264
  687POPC   C3A11969  16.743  43.102   7.964
  687POPC   C4A11970  16.758  43.106   7.664
  687POPC   C1B11971  16.963  43.183   8.564
  687POPC   C2B11972  16.943  43.246   8.264
  687POPC   C3B11973  17.008  43.220   7.964
  687POPC   C4B11974  16.953  43.178   7.664
  688POPC   NC311975  41.607  17.533   9.464
  688POPC   PO411976  41.529  17.467   9.164
  688POPC   GL111977  41.535  17.482   8.864
  688POPC   GL211978  41.457  17.459   8.864
  688POPC   C1A11979  41.537  17.458   8.564
  688POPC   D2A11980  41.528  17.502   8.264
  688POPC   C3A11981  41.517  17.530   7.964
  688POPC   C4A11982  41.564  17.486   7.664
  688POPC   C1B11983  41.289  17.477   8.564
  688POPC   C2B11984  41.282  17.507   8.264
  688POPC   C3B11985  41.340  17.472   7.964
  688POPC   C4B11986  41.299  17.480   7.664
  689POPC   NC311987  44.616  26.839   9.464
  689POPC   PO411988  44.644  26.861   9.164
  689POPC   GL111989  44.621  26.815   8.864
  689POPC   GL211990  44.549  26.819   8.864
  689POPC   C1A11991  44.692  26.787   8.564
  689POPC   D2A11992  44.638  26.847   8.264
  689POPC   C3A11993  44.623  26.854   7.964
  689POPC   C4A11994  44.678  26.855   7.664
  689POPC   C1B11995  44.371  26.830   8.564
  689POPC   C2B11996  44.397  26.861   8.264
  689POPC   C3B11997  44.410  26.793   7.964
  689POPC   C4B11998  44.412  26.833   7.664
  690POPC   NC311999  36.129  37.667   9.464
  690POPC   PO412000  36.166  37.631   9.164
  690POPC   GL112001  36.162  37.703   8.864
  690POPC   GL212002  36.061  37.637   8.864
  690POPC   C1A12003  36.134  37.666   8.564
  690POPC   D2A12004  36.164  37.638   8.264
  690POPC   C3A12005  36.123  37.668   7.964
  690POPC   C4A12006  36.148  37.727   7.664
  690POPC   C1B12007  35.895  37.492   8.564
  690POPC   C2B12008  35.931  37.541   8.264
  690POPC   C3B12009  35.939  37.526   7.964
  690POPC   C4B12010  35.947  37.495   7.664
  691POPC   NC312011  39.234   0.450   9.464
  691POPC   PO412012  39.183   0.416   9.164
  691POPC   GL112013  39.239   0.481   8.864
  691POPC   GL212014  39.317   0.509   8.864
  691POPC   C1A12015  39.237   0.482   8.564
  691POPC   D2A12016  39.208   0.411   8.264
  691POPC   C3A12017  39.255   0.391   7.964
  691POPC   C4A12018  39.276   0.398   7.664
  691POPC   C1B12019  39.405   0.652   8.564
  691POPC   C2B12020  39.433   0.612   8.264
  691POPC   C3B12021  39.372   0.601   7.964
  691POPC   C4B12022  39.414   0.643   7.664
  692POPC   NC312023  41.520  26.012   9.464
  692POPC   PO412024  41.587  26.013   9.164
  692POPC   GL112025  41.557  26.086   8.864
  692POPC   GL212026  41.452  26.053   8.864
  692POPC   C1A12027  41.522  26.069   8.564
  692POPC   D2A12028  41.547  26.053   8.264
  692POPC   C3A12029  41.587  25.998   7.964
  692POPC   C4A12030  41.516  26.001   7.664
  692POPC   C1B12031  41.311  26.068   8.564
  692POPC   C2B12032  41.315  26.144   8.264
  692POPC   C3B12033  41.362  26.080   7.964
  692POPC   C4B12034  41.360  26.070   7.664
  693POPC   NC312035  29.105  16.770   9.464
  693POPC   PO412036  29.166  16.760   9.164
  693POPC   GL112037  29.097  16.699   8.864
  693POPC   GL212038  29.166  16.898   8.864
  693POPC   C1A12039  29.109  16.727   8.564
  693POPC   D2A12040  29.105  16.748   8.264
  693POPC   C3A12041  29.112  16.757   7.964
  693POPC   C4A12042  29.109  16.765   7.664
  693POPC   C1B12043  29.045  16.967   8.564
  693POPC   C2B12044  29.131  16.929   8.264
  693POPC   C3B12045  29.083  16.973   7.964
  693POPC   C4B12046  29.110  16.985   7.664
  694POPC   NC312047   1.261   1.249   9.464
  694POPC   PO412048   1.203   1.201   9.164
  694POPC   GL112049   1.259   1.249   8.864
  694POPC   GL212050   1.127   1.349   8.864
  694POPC   C1A12051   1.217   1.243   8.564
  694POPC   D2A12052   1.187   1.232   8.264
  694POPC   C3A12053   1.200   1.199   7.964
  694POPC   C4A12054   1.183   1.210   7.664
  694POPC   C1B12055   1.100   1.438   8.564
  694POPC   C2B12056   1.085   1.414   8.264
  694POPC   C3B12057   1.055   1.431   7.964
  694POPC   C4B12058   1.102   1.428   7.664
  695POPC   NC312059  43.865  44.656   9.464
  695POPC   PO412060  43.900  44.652   9.164
  695POPC   GL112061  43.880  44.648   8.864
  695POPC   GL212062  43.986  44.585   8.864
  695POPC   C1A12063  43.914  44.670   8.564
  695POPC   D2A12064  43.850  44.680   8.264
  695POPC   C3A12065  43.932  44.689   7.964
  695POPC   C4A12066  43.866  44.699   7.664
  695POPC   C1B12067  44.024  44.463   8.564
  695POPC   C2B12068  44.012  44.448   8.264
  695POPC   C3B12069  44.049  44.392   7.964
  695POPC   C4B12070  43.972  44.397   7.664
  696POPC   NC312071  41.581  18.277   9.464
  696POPC   PO412072  41.589  18.332   9.164
  696POPC   GL112073  41.556  18.328   8.864
  696POPC   GL212074  41.553  18.145   8.864
  696POPC   C1A12075  41.581  18.302   8.564
  696POPC   D2A12076  41.598  18.279   8.264
  696POPC   C3A12077  41.581  18.235   7.964
  696POPC   C4A12078  41.522  18.291   7.664
  696POPC   C1B12079  41.616  18.054   8.564
  696POPC   C2B12080  41.599  18.074   8.264
  696POPC   C3B12081  41.566  18.002   7.964
  696POPC   C4B12082  41.567  18.057   7.664
  697POPC   NC312083   8.999  20.578   9.464
  697POPC   PO412084   8.982  20.643   9.164
  697POPC   GL112085   8.925  20.630   8.864
  697POPC   GL212086   9.066  20.560   8.864
  697POPC   C1A12087   8.979  20.626   8.564
  697POPC   D2A12088   9.003  20.565   8.264
  697POPC   C3A12089   8.961  20.635   7.964
  697POPC   C4A12090   8.942  20.600   7.664
  697POPC   C1B12091   9.121  20.405   8.564
  697POPC   C2B12092   9.145  20.461   8.264
  697POPC   C3B12093   9.100  20.440   7.964
  697POPC   C4B12094   9.095  20.408   7.664
  698POPC   NC312095  10.517  41.602   9.464
  698POPC   PO412096  10.543  41.585   9.164
  698POPC   GL112097  10.496  41.603   8.864
  698POPC   GL212098  10.445  41.542   8.864
  698POPC   C1A12099  10.516  41.565   8.564
  698POPC   D2A12100  10.527  41.531   8.264
  698POPC   C3A12101  10.553  41.547   7.964
  698POPC   C4A12102  10.508  41.583   7.664
  698POPC   C1B12103  10.317  41.475   8.564
  698POPC   C2B12104  10.285  41.515   8.264
  698POPC   C3B12105  10.264  41.449   7.964
  698POPC   C4B12106  10.239  41.528   7.664
  699POPC   NC312107   3.532  16.003   9.464
  699POPC   PO412108   3.571  15.929   9.164
  699POPC   GL112109   3.588  15.977   8.864
  699POPC   GL212110   3.616  16.041   8.864
  699POPC   C1A12111   3.529  15.926   8.564
  699POPC   D2A12112   3.563  15.944   8.264
  699POPC   C3A12113   3.574  15.961   7.964
  699POPC   C4A12114   3.573  15.919   7.664
  699POPC   C1B12115   3.677  16.171   8.564
  699POPC   C2B12116   3.697  16.171   8.264
  699POPC   C3B12117   3.626  16.204   7.964
  699POPC   C4B12118   3.623  16.178   7.664
  700POPC   NC312119  11.278   0.477   9.464
  700POPC   PO412120  11.335   0.487   9.164
  700POPC   GL112121  11.290   0.465   8.864
  700POPC   GL212122  11.343   0.550   8.864
  700POPC   C1A12123  11.311   0.452   8.564
  700POPC   D2A12124  11.298   0.450   8.264
  700POPC   C3A12125  11.269   0.449   7.964
  700POPC   C4A12126  11.346   0.461   7.664
  700POPC   C1B12127  11.505   0.628   8.564
  700POPC   C2B12128  11.479   0.632   8.264
  700POPC   C3B12129  11.447   0.641   7.964
  700POPC   C4B12130  11.488   0.655   7.664
  701POPC   NC312131  35.368  40.788   9.464
  701POPC   PO412132  35.375  40.786   9.164
  701POPC   GL112133  35.394  40.777   8.864
  701POPC   GL212134  35.237  40.903   8.864
  701POPC   C1A12135  35.347  40.829   8.564
  701POPC   D2A12136  35.311  40.745   8.264
  701POPC   C3A12137  35.362  40.816   7.964
  701POPC   C4A12138  35.360  40.781   7.664
  701POPC   C1B12139  35.176  41.023   8.564
  701POPC   C2B12140  35.265  40.984   8.264
  701POPC   C3B12141  35.188  40.952   7.964
  701POPC   C4B12142  35.268  41.013   7.664
  702POPC   NC312143  22.964  30.661   9.464
  702POPC   PO412144  22.964  30.648   9.164
  702POPC   GL112145  22.986  30.672   8.864
  702POPC   GL212146  22.795  30.707   8.864
  702POPC   C1A12147  22.949  30.737   8.564
  702POPC   D2A12148  22.912  30.707   8.264
  702POPC   C3A12149  22.980  30.688   7.964
  702POPC   C4A12150  22.907  30.724   7.664
  702POPC   C1B12151  22.722  30.717   8.564
  702POPC   C2B12152  22.646  30.694   8.264
  702POPC   C3B12153  22.694  30.685   7.964
  702POPC   C4B12154  22.660  30.749   7.664
  703POPC   NC312155   6.644  22.170   9.464
  703POPC   PO412156   6.654  22.158   9.164
  703POPC   GL112157   6.648  22.151   8.864
  703POPC   GL212158   6.634  22.013   8.864
  703POPC   C1A12159   6.667  22.127   8.564
  703POPC   D2A12160   6.643  22.180   8.264
  703POPC   C3A12161   6.647  22.119   7.964
  703POPC   C4A12162   6.647  22.198   7.664
  703POPC   C1B12163   6.618  21.886   8.564
  703POPC   C2B12164   6.648  21.961   8.264
  703POPC   C3B12165   6.649  21.925   7.964
  703POPC   C4B12166   6.678  21.955   7.664
  704POPC   NC312167  37.727  22.172   9.464
  704POPC   PO412168  37.676  22.144   9.164
  704POPC   GL112169  37.656  22.206   8.864
  704POPC   GL212170  37.581  22.058   8.864
  704POPC   C1A12171  37.643  22.167   8.564
  704POPC   D2A12172  37.718  22.190   8.264
  704POPC   C3A12173  37.639  22.145   7.964
  704POPC   C4A12174  37.653  22.189   7.664
  704POPC   C1B12175  37.580  21.925   8.564
  704POPC   C2B12176  37.499  21.954   8.264
  704POPC   C3B12177  37.549  21.946   7.964
  704POPC   C4B12178  37.542  21.951   7.664
  705POPC   NC312179  19.022  34.568   9.464
  705POPC   PO412180  19.107  34.567   9.164
  705POPC   GL112181  19.024  34.564   8.864
  705POPC   GL212182  18.967  34.664   8.864
  705POPC   C1A12183  19.085  34.607   8.564
  705POPC   D2A12184  19.092  34.555   8.264
  705POPC   C3A12185  19.063  34.539   7.964
  705POPC   C4A12186  19.106  34.617   7.664
  705POPC   C1B12187  18.922  34.818   8.564
  705POPC   C2B12188  19.003  34.813   8.264
  705POPC   C3B12189  18.941  34.820   7.964
  705POPC   C4B12190  18.961  34.783   7.664
  706POPC   NC312191   9.777  28.340   9.464
  706POPC   PO412192   9.770  28.405   9.164
  706POPC   GL112193   9.743  28.410   8.864
  706POPC   GL212194   9.872  28.380   8.864
  706POPC   C1A12195   9.734  28.381   8.564
  706POPC   D2A12196   9.754  28.406   8.264
  706POPC   C3A12197   9.705  28.349   7.964
  706POPC   C4A12198   9.747  28.345   7.664
  706POPC   C1B12199  10.026  28.399   8.564
  706POPC   C2B12200   9.953  28.476   8.264
  706POPC   C3B12201   9.959  28.425   7.964
  706POPC   C4B12202  10.021  28.479   7.664
  707POPC   NC312203  42.371  29.905   9.464
  707POPC   PO412204  42.350  29.886   9.164
  707POPC   GL112205  42.326  29.897   8.864
  707POPC   GL212206  42.221  29.971   8.864
  707POPC   C1A12207  42.309  29.958   8.564
  707POPC   D2A12208  42.347  29.964   8.264
  707POPC   C3A12209  42.340  29.880   7.964
  707POPC   C4A12210  42.287  29.876   7.664
  707POPC   C1B12211  42.113  29.942   8.564
  707POPC   C2B12212  42.141  30.040   8.264
  707POPC   C3B12213  42.097  29.992   7.964
  707POPC   C4B12214  42.087  30.035   7.664
  708POPC   NC312215  23.729  42.294   9.464
  708POPC   PO412216  23.724  42.364   9.164
  708POPC   GL112217  23.727  42.293   8.864
  708POPC   GL212218  23.746  42.477   8.864
  708POPC   C1A12219  23.670  42.308   8.564
  708POPC   D2A12220  23.711  42.339   8.264
  708POPC   C3A12221  23.743  42.376   7.964
  708POPC   C4A12222  23.687  42.350   7.664
  708POPC   C1B12223  23.697  42.556   8.564
  708POPC   C2B12224  23.709  42.590   8.264
  708POPC   C3B12225  23.766  42.600   7.964
  708POPC   C4B12226  23.757  42.580   7.664
  709POPC   NC312227   7.454  33.060   9.464
  709POPC   PO412228   7.412  33.049   9.164
  709POPC   GL112229   7.454  33.073   8.864
  709POPC   GL212230   7.565  33.033   8.864
  709POPC   C1A12231   7.383  33.032   8.564
  709POPC   D2A12232   7.430  33.060   8.264
  709POPC   C3A12233   7.374  33.021   7.964
  709POPC   C4A12234   7.425  32.999   7.664
  709POPC   C1B12235   7.689  32.922   8.564
  709POPC   C2B12236   7.625  32.962   8.264
  709POPC   C3B12237   7.628  32.951   7.964
  709POPC   C4B12238   7.650  32.955   7.664
  710POPC   NC312239  18.288  36.894   9.464
  710POPC   PO412240  18.234  36.952   9.164
  710POPC   GL112241  18.249  36.923   8.864
  710POPC   GL212242  18.176  36.985   8.864
  710POPC   C1A12243  18.313  36.858   8.564
  710POPC   D2A12244  18.329  36.864   8.264
  710POPC   C3A12245  18.328  36.944   7.964
  710POPC   C4A12246  18.306  36.926   7.664
  710POPC   C1B12247  18.132  37.165   8.564
  710POPC   C2B12248  18.155  37.136   8.264
  710POPC   C3B12249  18.138  37.075   7.964
  710POPC   C4B12250  18.111  37.150   7.664
  711POPC   NC312251   5.136  44.663   9.464
  711POPC   PO412252   5.115  44.639   9.164
  711POPC   GL112253   5.067  44.626   8.864
  711POPC   GL212254   5.175  44.677   8.864
  711POPC   C1A12255   5.055  44.651   8.564
  711POPC   D2A12256   5.136  44.677   8.264
  711POPC   C3A12257   5.049  44.649   7.964
  711POPC   C4A12258   5.077  44.690   7.664
  711POPC   C1B12259   5.348  44.696   8.564
  711POPC   C2B12260   5.321  44.700   8.264
  711POPC   C3B12261   5.343  44.758   7.964
  711POPC   C4B12262   5.317  44.759   7.664
  712POPC   NC312263  18.321  39.261   9.464
  712POPC   PO412264  18.303  39.251   9.164
  712POPC   GL112265  18.238  39.227   8.864
  712POPC   GL212266  18.366  39.394   8.864
  712POPC   C1A12267  18.317  39.187   8.564
  712POPC   D2A12268  18.328  39.252   8.264
  712POPC   C3A12269  18.272  39.257   7.964
  712POPC   C4A12270  18.273  39.210   7.664
  712POPC   C1B12271  18.371  39.483   8.564
  712POPC   C2B12272  18.399  39.455   8.264
  712POPC   C3B12273  18.319  39.512   7.964
  712POPC   C4B12274  18.323  39.494   7.664
  713POPC   NC312275  43.905  36.120   9.464
  713POPC   PO412276  43.898  36.158   9.164
  713POPC   GL112277  43.866  36.126   8.864
  713POPC   GL212278  43.879  36.030   8.864
  713POPC   C1A12279  43.893  36.150   8.564
  713POPC   D2A12280  43.903  36.164   8.264
  713POPC   C3A12281  43.876  36.171   7.964
  713POPC   C4A12282  43.922  36.174   7.664
  713POPC   C1B12283  43.877  35.934   8.564
  713POPC   C2B12284  43.796  35.891   8.264
  713POPC   C3B12285  43.849  35.872   7.964
  713POPC   C4B12286  43.880  35.894   7.664
  714POPC   NC312287  17.531  43.132   9.464
  714POPC   PO412288  17.509  43.150   9.164
  714POPC   GL112289  17.498  43.152   8.864
  714POPC   GL212290  17.603  43.076   8.864
  714POPC   C1A12291  17.529  43.146   8.564
  714POPC   D2A12292  17.472  43.097   8.264
  714POPC   C3A12293  17.479  43.067   7.964
  714POPC   C4A12294  17.521  43.122   7.664
  714POPC   C1B12295  17.763  43.073   8.564
  714POPC   C2B12296  17.702  43.035   8.264
  714POPC   C3B12297  17.743  43.014   7.964
  714POPC   C4B12298  17.754  43.064   7.664
  715POPC   NC312299  40.011  13.643   9.464
  715POPC   PO412300  39.975  13.603   9.164
  715POPC   GL112301  40.029  13.621   8.864
  715POPC   GL212302  40.139  13.727   8.864
  715POPC   C1A12303  40.012  13.636   8.564
  715POPC   D2A12304  39.965  13.625   8.264
  715POPC   C3A12305  39.986  13.669   7.964
  715POPC   C4A12306  40.020  13.649   7.664
  715POPC   C1B12307  40.248  13.759   8.564
  715POPC   C2B12308  40.250  13.716   8.264
  715POPC   C3B12309  40.211  13.736   7.964
  715POPC   C4B12310  40.263  13.775   7.664
  716POPC   NC312311  20.580  33.051   9.464
  716POPC   PO412312  20.611  33.031   9.164
  716POPC   GL112313  20.576  33.004   8.864
  716POPC   GL212314  20.728  33.046   8.864
  716POPC   C1A12315  20.571  33.045   8.564
  716POPC   D2A12316  20.643  33.010   8.264
  716POPC   C3A12317  20.596  33.009   7.964
  716POPC   C4A12318  20.588  33.017   7.664
  716POPC   C1B12319  20.847  33.140   8.564
  716POPC   C2B12320  20.822  33.205   8.264
  716POPC   C3B12321  20.810  33.207   7.964
  716POPC   C4B12322  20.847  33.136   7.664
  717POPC   NC312323   4.281   5.067   9.464
  717POPC   PO412324   4.362   5.044   9.164
  717POPC   GL112325   4.324   5.085   8.864
  717POPC   GL212326   4.285   4.941   8.864
  717POPC   C1A12327   4.314   5.045   8.564
  717POPC   D2A12328   4.272   5.126   8.264
  717POPC   C3A12329   4.318   5.052   7.964
  717POPC   C4A12330   4.355   5.096   7.664
  717POPC   C1B12331   4.203   4.862   8.564
  717POPC   C2B12332   4.282   4.864   8.264
  717POPC   C3B12333   4.247   4.903   7.964
  717POPC   C4B12334   4.245   4.872   7.664
  718POPC   NC312335   9.739  37.683   9.464
  718POPC   PO412336   9.726  37.727   9.164
  718POPC   GL112337   9.734  37.639   8.864
  718POPC   GL212338   9.841  37.740   8.864
  718POPC   C1A12339   9.748  37.700   8.564
  718POPC   D2A12340   9.769  37.650   8.264
  718POPC   C3A12341   9.709  37.682   7.964
  718POPC   C4A12342   9.743  37.714   7.664
  718POPC   C1B12343   9.838  37.926   8.564
  718POPC   C2B12344   9.926  37.860   8.264
  718POPC   C3B12345   9.890  37.918   7.964
  718POPC   C4B12346   9.850  37.857   7.664
  719POPC   NC312347   5.900  36.111   9.464
  719POPC   PO412348   5.885  36.112   9.164
  719POPC   GL112349   5.832  36.161   8.864
  719POPC   GL212350   5.815  35.981   8.864
  719POPC   C1A12351   5.835  36.079   8.564
  719POPC   D2A12352   5.837  36.085   8.264
  719POPC   C3A12353   5.857  36.097   7.964
  719POPC   C4A12354   5.918  36.164   7.664
  719POPC   C1B12355   5.788  35.913   8.564
  719POPC   C2B12356   5.853  35.920   8.264
  719POPC   C3B12357   5.829  35.844   7.964
  719POPC   C4B12358   5.809  35.930   7.664
  720POPC   NC312359  37.674  35.350   9.464
  720POPC   PO412360  37.711  35.343   9.164
  720POPC   GL112361  37.649  35.374   8.864
  720POPC   GL212362  37.815  35.308   8.864
  720POPC   C1A12363  37.671  35.349   8.564
  720POPC   D2A12364  37.714  35.324   8.264
  720POPC   C3A12365  37.696  35.309   7.964
  720POPC   C4A12366  37.675  35.314   7.664
  720POPC   C1B12367  37.954  35.378   8.564
  720POPC   C2B12368  37.958  35.296   8.264
  720POPC   C3B12369  37.882  35.361   7.964
  720POPC   C4B12370  37.895  35.319   7.664
  721POPC   NC312371   8.998   3.510   9.464
  721POPC   PO412372   9.020   3.548   9.164
  721POPC   GL112373   8.986   3.525   8.864
  721POPC   GL212374   8.939   3.375   8.864
  721POPC   C1A12375   9.013   3.517   8.564
  721POPC   D2A12376   9.002   3.568   8.264
  721POPC   C3A12377   8.969   3.546   7.964
  721POPC   C4A12378   8.931   3.572   7.664
  721POPC   C1B12379   8.962   3.329   8.564
  721POPC   C2B12380   8.877   3.322   8.264
  721POPC   C3B12381   8.967   3.259   7.964
  721POPC   C4B12382   8.945   3.291   7.664
  722POPC   NC312383  41.594   9.734   9.464
  722POPC   PO412384  41.558   9.705   9.164
  722POPC   GL112385  41.568   9.788   8.864
  722POPC   GL212386  41.642   9.665   8.864
  722POPC   C1A12387  41.567   9.775   8.564
  722POPC   D2A12388  41.553   9.755   8.264
  722POPC   C3A12389  41.516   9.732   7.964
  722POPC   C4A12390  41.547   9.742   7.664
  722POPC   C1B12391  41.737   9.665   8.564
  722POPC   C2B12392  41.808   9.687   8.264
  722POPC   C3B12393  41.788   9.625   7.964
  722POPC   C4B12394  41.745   9.662   7.664
  723POPC   NC312395   5.906  14.447   9.464
  723POPC   PO412396   5.877  14.363   9.164
  723POPC   GL112397   5.853  14.429   8.864
  723POPC   GL212398   5.774  14.429   8.864
  723POPC   C1A12399   5.881  14.393   8.564
  723POPC   D2A12400   5.919  14.425   8.264
  723POPC   C3A12401   5.892  14.386   7.964
  723POPC   C4A12402   5.889  14.398   7.664
  723POPC   C1B12403   5.631  14.530   8.564
  723POPC   C2B12404   5.660  14.550   8.264
  723POPC   C3B12405   5.672  14.589   7.964
  723POPC   C4B12406   5.711  14.588   7.664
  724POPC   NC312407   5.058  15.925   9.464
  724POPC   PO412408   5.108  15.942   9.164
  724POPC   GL112409   5.077  15.982   8.864
  724POPC   GL212410   5.213  16.018   8.864
  724POPC   C1A12411   5.120  15.964   8.564
  724POPC   D2A12412   5.124  15.974   8.264
  724POPC   C3A12413   5.120  16.000   7.964
  724POPC   C4A12414   5.046  15.928   7.664
  724POPC   C1B12415   5.295  16.064   8.564
  724POPC   C2B12416   5.322  16.048   8.264
  724POPC   C3B12417   5.341  16.060   7.964
  724POPC   C4B12418   5.321  16.097   7.664
  725POPC   NC312419  26.867  18.277   9.464
  725POPC   PO412420  26.791  18.246   9.164
  725POPC   GL112421  26.796  18.331   8.864
  725POPC   GL212422  26.961  18.283   8.864
  725POPC   C1A12423  26.806  18.313   8.564
  725POPC   D2A12424  26.804  18.270   8.264
  725POPC   C3A12425  26.776  18.285   7.964
  725POPC   C4A12426  26.776  18.296   7.664
  725POPC   C1B12427  27.047  18.311   8.564
  725POPC   C2B12428  27.019  18.343   8.264
  725POPC   C3B12429  27.050  18.349   7.964
  725POPC   C4B12430  27.104  18.404   7.664
  726POPC   NC312431  35.318  43.072   9.464
  726POPC   PO412432  35.351  43.079   9.164
  726POPC   GL112433  35.381  43.070   8.864
  726POPC   GL212434  35.226  43.084   8.864
  726POPC   C1A12435  35.346  43.093   8.564
  726POPC   D2A12436  35.377  43.096   8.264
  726POPC   C3A12437  35.397  43.094   7.964
  726POPC   C4A12438  35.385  43.081   7.664
  726POPC   C1B12439  35.121  42.991   8.564
  726POPC   C2B12440  35.140  43.030   8.264
  726POPC   C3B12441  35.115  42.969   7.964
  726POPC   C4B12442  35.151  43.050   7.664
  727POPC   NC312443  36.119  28.336   9.464
  727POPC   PO412444  36.094  28.407   9.164
  727POPC   GL112445  36.140  28.373   8.864
  727POPC   GL212446  36.178  28.245   8.864
  727POPC   C1A12447  36.096  28.372   8.564
  727POPC   D2A12448  36.112  28.380   8.264
  727POPC   C3A12449  36.099  28.408   7.964
  727POPC   C4A12450  36.107  28.361   7.664
  727POPC   C1B12451  36.290  28.152   8.564
  727POPC   C2B12452  36.258  28.198   8.264
  727POPC   C3B12453  36.268  28.109   7.964
  727POPC   C4B12454  36.304  28.160   7.664
  728POPC   NC312455  19.792   2.024   9.464
  728POPC   PO412456  19.822   2.010   9.164
  728POPC   GL112457  19.843   1.945   8.864
  728POPC   GL212458  19.917   1.838   8.864
  728POPC   C1A12459  19.866   1.962   8.564
  728POPC   D2A12460  19.826   1.985   8.264
  728POPC   C3A12461  19.789   1.971   7.964
  728POPC   C4A12462  19.860   1.965   7.664
  728POPC   C1B12463  19.969   1.780   8.564
  728POPC   C2B12464  19.976   1.740   8.264
  728POPC   C3B12465  19.918   1.736   7.964
  728POPC   C4B12466  19.940   1.720   7.664
  729POPC   NC312467  41.554   4.330   9.464
  729POPC   PO412468  41.519   4.270   9.164
  729POPC   GL112469  41.598   4.331   8.864
  729POPC   GL212470  41.619   4.450   8.864
  729POPC   C1A12471  41.509   4.328   8.564
  729POPC   D2A12472  41.582   4.352   8.264
  729POPC   C3A12473  41.563   4.298   7.964
  729POPC   C4A12474  41.590   4.366   7.664
  729POPC   C1B12475  41.670   4.607   8.564
  729POPC   C2B12476  41.640   4.606   8.264
  729POPC   C3B12477  41.634   4.549   7.964
  729POPC   C4B12478  41.646   4.595   7.664
  730POPC   NC312479  36.951  22.123   9.464
  730POPC   PO412480  36.907  22.119   9.164
  730POPC   GL112481  36.884  22.136   8.864
  730POPC   GL212482  36.927  22.313   8.864
  730POPC   C1A12483  36.937  22.211   8.564
  730POPC   D2A12484  36.893  22.130   8.264
  730POPC   C3A12485  36.933  22.185   7.964
  730POPC   C4A12486  36.887  22.146   7.664
  730POPC   C1B12487  36.848  22.420   8.564
  730POPC   C2B12488  36.826  22.421   8.264
  730POPC   C3B12489  36.816  22.408   7.964
  730POPC   C4B12490  36.823  22.390   7.664
  731POPC   NC312491  35.356   5.911   9.464
  731POPC   PO412492  35.337   5.851   9.164
  731POPC   GL112493  35.333   5.858   8.864
  731POPC   GL212494  35.227   5.918   8.864
  731POPC   C1A12495  35.366   5.851   8.564
  731POPC   D2A12496  35.394   5.884   8.264
  731POPC   C3A12497  35.396   5.834   7.964
  731POPC   C4A12498  35.402   5.869   7.664
  731POPC   C1B12499  35.120   5.966   8.564
  731POPC   C2B12500  35.120   6.003   8.264
  731POPC   C3B12501  35.188   6.002   7.964
  731POPC   C4B12502  35.173   6.028   7.664
  732POPC   NC312503  15.936  19.105   9.464
  732POPC   PO412504  15.971  19.093   9.164
  732POPC   GL112505  15.921  19.096   8.864
  732POPC   GL212506  16.106  19.107   8.864
  732POPC   C1A12507  15.912  19.010   8.564
  732POPC   D2A12508  15.917  19.035   8.264
  732POPC   C3A12509  15.976  19.059   7.964
  732POPC   C4A12510  15.978  19.069   7.664
  732POPC   C1B12511  16.194  19.230   8.564
  732POPC   C2B12512  16.128  19.165   8.264
  732POPC   C3B12513  16.183  19.179   7.964
  732POPC   C4B12514  16.189  19.189   7.664
  733POPC   NC312515  37.674  33.796   9.464
  733POPC   PO412516  37.659  33.788   9.164
  733POPC   GL112517  37.705  33.775   8.864
  733POPC   GL212518  37.779  33.943   8.864
  733POPC   C1A12519  37.697  33.823   8.564
  733POPC   D2A12520  37.632  33.818   8.264
  733POPC   C3A12521  37.694  33.835   7.964
  733POPC   C4A12522  37.659  33.805   7.664
  733POPC   C1B12523  37.832  34.046   8.564
  733POPC   C2B12524  37.831  34.015   8.264
  733POPC   C3B12525  37.801  34.062   7.964
  733POPC   C4B12526  37.756  34.042   7.664
  734POPC   NC312527  43.140  10.537   9.464
  734POPC   PO412528  43.115  10.483   9.164
  734POPC   GL112529  43.095  10.566   8.864
  734POPC   GL212530  43.272  10.542   8.864
  734POPC   C1A12531  43.079  10.549   8.564
  734POPC   D2A12532  43.099  10.553   8.264
  734POPC   C3A12533  43.131  10.536   7.964
  734POPC   C4A12534  43.114  10.539   7.664
  734POPC   C1B12535  43.367  10.591   8.564
  734POPC   C2B12536  43.318  10.576   8.264
  734POPC   C3B12537  43.373  10.568   7.964
  734POPC   C4B12538  43.321  10.590   7.664
  735POPC   NC312539  19.883   3.504   9.464
  735POPC   PO412540  19.793   3.545   9.164
  735POPC   GL112541  19.832   3.523   8.864
  735POPC   GL212542  19.946   3.548   8.864
  735POPC   C1A12543  19.878   3.529   8.564
  735POPC   D2A12544  19.849   3.546   8.264
  735POPC   C3A12545  19.799   3.540   7.964
  735POPC   C4A12546  19.819   3.554   7.664
  735POPC   C1B12547  20.095   3.447   8.564
  735POPC   C2B12548  20.067   3.520   8.264
  735POPC   C3B12549  20.035   3.514   7.964
  735POPC   C4B12550  20.100   3.458   7.664
  736POPC   NC312551  38.456  17.486   9.464
  736POPC   PO412552  38.418  17.512   9.164
  736POPC   GL112553  38.455  17.502   8.864
  736POPC   GL212554  38.382  17.390   8.864
  736POPC   C1A12555  38.410  17.535   8.564
  736POPC   D2A12556  38.418  17.493   8.264
  736POPC   C3A12557  38.501  17.474   7.964
  736POPC   C4A12558  38.491  17.540   7.664
  736POPC   C1B12559  38.261  17.348   8.564
  736POPC   C2B12560  38.310  17.329   8.264
  736POPC   C3B12561  38.244  17.377   7.964
  736POPC   C4B12562  38.305  17.320   7.664
  737POPC   NC312563  41.559   6.601   9.464
  737POPC   PO412564  41.593   6.675   9.164
  737POPC   GL112565  41.590   6.598   8.864
  737POPC   GL212566  41.544   6.758   8.864
  737POPC   C1A12567  41.536   6.653   8.564
  737POPC   D2A12568  41.559   6.629   8.264
  737POPC   C3A12569  41.542   6.653   7.964
  737POPC   C4A12570  41.583   6.666   7.664
  737POPC   C1B12571  41.567   6.940   8.564
  737POPC   C2B12572  41.618   6.939   8.264
  737POPC   C3B12573  41.639   6.887   7.964
  737POPC   C4B12574  41.571   6.930   7.664
  738POPC   NC312575  25.227   9.766   9.464
  738POPC   PO412576  25.240   9.727   9.164
  738POPC   GL112577  25.222   9.759   8.864
  738POPC   GL212578  25.172   9.760   8.864
  738POPC   C1A12579  25.305   9.765   8.564
  738POPC   D2A12580  25.227   9.760   8.264
  738POPC   C3A12581  25.220   9.750   7.964
  738POPC   C4A12582  25.278   9.754   7.664
  738POPC   C1B12583  25.027   9.754   8.564
  738POPC   C2B12584  25.013   9.771   8.264
  738POPC   C3B12585  24.983   9.702   7.964
  738POPC   C4B12586  25.003   9.763   7.664
  739POPC   NC312587   2.026   3.536   9.464
  739POPC   PO412588   2.033   3.574   9.164
  739POPC   GL112589   2.000   3.590   8.864
  739POPC   GL212590   1.915   3.673   8.864
  739POPC   C1A12591   2.012   3.501   8.564
  739POPC   D2A12592   1.997   3.580   8.264
  739POPC   C3A12593   1.958   3.533   7.964
  739POPC   C4A12594   2.017   3.527   7.664
  739POPC   C1B12595   1.933   3.791   8.564
  739POPC   C2B12596   1.930   3.804   8.264
  739POPC   C3B12597   1.918   3.795   7.964
  739POPC   C4B12598   1.922   3.736   7.664
  740POPC   NC312599  29.939   5.096   9.464
  740POPC   PO412600  29.912   5.092   9.164
  740POPC   GL112601  29.965   5.102   8.864
  740POPC   GL212602  29.847   5.200   8.864
  740POPC   C1A12603  29.925   5.049   8.564
  740POPC   D2A12604  29.896   5.103   8.264
  740POPC   C3A12605  29.961   5.136   7.964
  740POPC   C4A12606  29.917   5.140   7.664
  740POPC   C1B12607  29.772   5.222   8.564
  740POPC   C2B12608  29.764   5.293   8.264
  740POPC   C3B12609  29.777   5.251   7.964
  740POPC   C4B12610  29.782   5.295   7.664
  741POPC   NC312611  19.823  39.272   9.464
  741POPC   PO412612  19.847  39.183   9.164
  741POPC   GL112613  19.884  39.241   8.864
  741POPC   GL212614  19.938  39.306   8.864
  741POPC   C1A12615  19.859  39.205   8.564
  741POPC   D2A12616  19.856  39.252   8.264
  741POPC   C3A12617  19.800  39.276   7.964
  741POPC   C4A12618  19.871  39.264   7.664
  741POPC   C1B12619  19.993  39.382   8.564
  741POPC   C2B12620  20.020  39.391   8.264
  741POPC   C3B12621  20.016  39.356   7.964
  741POPC   C4B12622  20.008  39.349   7.664
  742POPC   NC312623  36.155  33.063   9.464
  742POPC   PO412624  36.174  33.013   9.164
  742POPC   GL112625  36.104  33.073   8.864
  742POPC   GL212626  36.183  33.177   8.864
  742POPC   C1A12627  36.098  33.020   8.564
  742POPC   D2A12628  36.091  33.022   8.264
  742POPC   C3A12629  36.110  33.047   7.964
  742POPC   C4A12630  36.150  33.010   7.664
  742POPC   C1B12631  36.242  33.208   8.564
  742POPC   C2B12632  36.244  33.232   8.264
  742POPC   C3B12633  36.189  33.238   7.964
  742POPC   C4B12634  36.257  33.225   7.664
  743POPC   NC312635  13.618  18.255   9.464
  743POPC   PO412636  13.623  18.317   9.164
  743POPC   GL112637  13.626  18.267   8.864
  743POPC   GL212638  13.554  18.232   8.864
  743POPC   C1A12639  13.606  18.323   8.564
  743POPC   D2A12640  13.671  18.317   8.264
  743POPC   C3A12641  13.654  18.268   7.964
  743POPC   C4A12642  13.594  18.313   7.664
  743POPC   C1B12643  13.486  18.113   8.564
  743POPC   C2B12644  13.451  18.068   8.264
  743POPC   C3B12645  13.421  18.084   7.964
  743POPC   C4B12646  13.476  18.101   7.664
  744POPC   NC312647  16.739  36.084   9.464
  744POPC   PO412648  16.755  36.084   9.164
  744POPC   GL112649  16.776  36.087   8.864
  744POPC   GL212650  16.799  36.070   8.864
  744POPC   C1A12651  16.683  36.165   8.564
  744POPC   D2A12652  16.780  36.131   8.264
  744POPC   C3A12653  16.723  36.140   7.964
  744POPC   C4A12654  16.706  36.142   7.664
  744POPC   C1B12655  16.940  35.992   8.564
  744POPC   C2B12656  16.877  35.958   8.264
  744POPC   C3B12657  16.957  35.982   7.964
  744POPC   C4B12658  16.926  35.989   7.664
  745POPC   NC312659   1.194  13.639   9.464
  745POPC   PO412660   1.258  13.616   9.164
  745POPC   GL112661   1.214  13.587   8.864
  745POPC   GL212662   1.105  13.519   8.864
  745POPC   C1A12663   1.170  13.624   8.564
  745POPC   D2A12664   1.183  13.642   8.264
  745POPC   C3A12665   1.168  13.653   7.964
  745POPC   C4A12666   1.244  13.669   7.664
  745POPC   C1B12667   1.080  13.390   8.564
  745POPC   C2B12668   1.111  13.395   8.264
  745POPC   C3B12669   1.074  13.449   7.964
  745POPC   C4B12670   1.071  13.462   7.664
  746POPC   NC312671  40.800  12.868   9.464
  746POPC   PO412672  40.786  12.822   9.164
  746POPC   GL112673  40.780  12.806   8.864
  746POPC   GL212674  40.932  12.803   8.864
  746POPC   C1A12675  40.818  12.884   8.564
  746POPC   D2A12676  40.741  12.832   8.264
  746POPC   C3A12677  40.831  12.870   7.964
  746POPC   C4A12678  40.773  12.825   7.664
  746POPC   C1B12679  41.027  12.724   8.564
  746POPC   C2B12680  41.020  12.702   8.264
  746POPC   C3B12681  40.945  12.680   7.964
  746POPC   C4B12682  40.974  12.690   7.664
  747POPC   NC312683   0.405  26.023   9.464
  747POPC   PO412684   0.464  26.084   9.164
  747POPC   GL112685   0.476  26.011   8.864
  747POPC   GL212686   0.517  25.978   8.864
  747POPC   C1A12687   0.422  26.014   8.564
  747POPC   D2A12688   0.465  26.071   8.264
  747POPC   C3A12689   0.428  26.017   7.964
  747POPC   C4A12690   0.438  26.064   7.664
  747POPC   C1B12691   0.634  25.942   8.564
  747POPC   C2B12692   0.623  25.950   8.264
  747POPC   C3B12693   0.673  25.971   7.964
  747POPC   C4B12694   0.708  25.964   7.664
  748POPC   NC312695  25.308  12.074   9.464
  748POPC   PO412696  25.295  12.080   9.164
  748POPC   GL112697  25.253  12.083   8.864
  748POPC   GL212698  25.251  11.975   8.864
  748POPC   C1A12699  25.274  12.071   8.564
  748POPC   D2A12700  25.291  12.087   8.264
  748POPC   C3A12701  25.304  12.099   7.964
  748POPC   C4A12702  25.267  12.070   7.664
  748POPC   C1B12703  25.180  11.865   8.564
  748POPC   C2B12704  25.131  11.812   8.264
  748POPC   C3B12705  25.168  11.798   7.964
  748POPC   C4B12706  25.227  11.825   7.664
  749POPC   NC312707   3.529  16.694   9.464
  749POPC   PO412708   3.495  16.765   9.164
  749POPC   GL112709   3.522  16.725   8.864
  749POPC   GL212710   3.435  16.727   8.864
  749POPC   C1A12711   3.503  16.709   8.564
  749POPC   D2A12712   3.534  16.775   8.264
  749POPC   C3A12713   3.507  16.749   7.964
  749POPC   C4A12714   3.571  16.725   7.664
  749POPC   C1B12715   3.348  16.597   8.564
  749POPC   C2B12716   3.353  16.596   8.264
  749POPC   C3B12717   3.281  16.670   7.964
  749POPC   C4B12718   3.353  16.594   7.664
  750POPC   NC312719  39.979  18.240   9.464
  750POPC   PO412720  39.999  18.305   9.164
  750POPC   GL112721  39.958  18.291   8.864
  750POPC   GL212722  39.948  18.411   8.864
  750POPC   C1A12723  40.006  18.283   8.564
  750POPC   D2A12724  39.967  18.254   8.264
  750POPC   C3A12725  39.988  18.315   7.964
  750POPC   C4A12726  40.044  18.323   7.664
  750POPC   C1B12727  39.951  18.559   8.564
  750POPC   C2B12728  39.977  18.578   8.264
  750POPC   C3B12729  40.005  18.486   7.964
  750POPC   C4B12730  39.957  18.488   7.664
  751POPC   NC312731  12.027  33.059   9.464
  751POPC   PO412732  12.101  32.994   9.164
  751POPC   GL112733  12.113  33.050   8.864
  751POPC   GL212734  12.065  33.123   8.864
  751POPC   C1A12735  12.057  33.032   8.564
  751POPC   D2A12736  12.096  33.022   8.264
  751POPC   C3A12737  12.117  33.021   7.964
  751POPC   C4A12738  12.055  33.053   7.664
  751POPC   C1B12739  12.049  33.229   8.564
  751POPC   C2B12740  12.116  33.247   8.264
  751POPC   C3B12741  12.069  33.253   7.964
  751POPC   C4B12742  12.049  33.287   7.664
  752POPC   NC312743  39.219  22.899   9.464
  752POPC   PO412744  39.264  22.900   9.164
  752POPC   GL112745  39.234  22.911   8.864
  752POPC   GL212746  39.189  22.877   8.864
  752POPC   C1A12747  39.275  22.959   8.564
  752POPC   D2A12748  39.231  22.962   8.264
  752POPC   C3A12749  39.227  22.968   7.964
  752POPC   C4A12750  39.253  22.961   7.664
  752POPC   C1B12751  39.039  22.714   8.564
  752POPC   C2B12752  39.104  22.767   8.264
  752POPC   C3B12753  39.039  22.772   7.964
  752POPC   C4B12754  39.083  22.746   7.664
  753POPC   NC312755  43.134  26.035   9.464
  753POPC   PO412756  43.087  26.070   9.164
  753POPC   GL112757  43.129  26.060   8.864
  753POPC   GL212758  43.052  26.086   8.864
  753POPC   C1A12759  43.103  26.072   8.564
  753POPC   D2A12760  43.064  26.071   8.264
  753POPC   C3A12761  43.113  26.026   7.964
  753POPC   C4A12762  43.159  26.056   7.664
  753POPC   C1B12763  42.873  26.200   8.564
  753POPC   C2B12764  42.922  26.206   8.264
  753POPC   C3B12765  42.910  26.208   7.964
  753POPC   C4B12766  42.911  26.158   7.664
  754POPC   NC312767  41.538  16.706   9.464
  754POPC   PO412768  41.560  16.701   9.164
  754POPC   GL112769  41.585  16.692   8.864
  754POPC   GL212770  41.665  16.707   8.864
  754POPC   C1A12771  41.549  16.681   8.564
  754POPC   D2A12772  41.558  16.720   8.264
  754POPC   C3A12773  41.582  16.731   7.964
  754POPC   C4A12774  41.576  16.732   7.664
  754POPC   C1B12775  41.781  16.639   8.564
  754POPC   C2B12776  41.800  16.707   8.264
  754POPC   C3B12777  41.770  16.712   7.964
  754POPC   C4B12778  41.851  16.715   7.664
  755POPC   NC312779  27.579   7.406   9.464
  755POPC   PO412780  27.546   7.400   9.164
  755POPC   GL112781  27.590   7.438   8.864
  755POPC   GL212782  27.764   7.472   8.864
  755POPC   C1A12783  27.583   7.378   8.564
  755POPC   D2A12784  27.599   7.457   8.264
  755POPC   C3A12785  27.599   7.445   7.964
  755POPC   C4A12786  27.585   7.469   7.664
  755POPC   C1B12787  27.847   7.478   8.564
  755POPC   C2B12788  27.798   7.465   8.264
  755POPC   C3B12789  27.817   7.411   7.964
  755POPC   C4B12790  27.804   7.481   7.664
  756POPC   NC312791  16.711   2.791   9.464
  756POPC   PO412792  16.728   2.744   9.164
  756POPC   GL112793  16.689   2.773   8.864
  756POPC   GL212794  16.840   2.798   8.864
  756POPC   C1A12795  16.686   2.723   8.564
  756POPC   D2A12796  16.756   2.728   8.264
  756POPC   C3A12797  16.733   2.748   7.964
  756POPC   C4A12798  16.742   2.732   7.664
  756POPC   C1B12799  16.941   2.881   8.564
  756POPC   C2B12800  16.968   2.848   8.264
  756POPC   C3B12801  16.954   2.843   7.964
  756POPC   C4B12802  16.924   2.924   7.664
  757POPC   NC312803  26.810  43.114   9.464
  757POPC   PO412804  26.823  43.061   9.164
  757POPC   GL112805  26.848  43.071   8.864
  757POPC   GL212806  26.890  43.248   8.864
  757POPC   C1A12807  26.855  43.109   8.564
  757POPC   D2A12808  26.856  43.159   8.264
  757POPC   C3A12809  26.849  43.149   7.964
  757POPC   C4A12810  26.791  43.108   7.664
  757POPC   C1B12811  26.958  43.368   8.564
  757POPC   C2B12812  26.971  43.309   8.264
  757POPC   C3B12813  26.932  43.361   7.964
  757POPC   C4B12814  26.955  43.321   7.664
  758POPC   NC312815  26.809  14.365   9.464
  758POPC   PO412816  26.777  14.383   9.164
  758POPC   GL112817  26.832  14.453   8.864
  758POPC   GL212818  26.732  14.418   8.864
  758POPC   C1A12819  26.805  14.418   8.564
  758POPC   D2A12820  26.833  14.378   8.264
  758POPC   C3A12821  26.774  14.418   7.964
  758POPC   C4A12822  26.865  14.364   7.664
  758POPC   C1B12823  26.528  14.415   8.564
  758POPC   C2B12824  26.530  14.394   8.264
  758POPC   C3B12825  26.609  14.369   7.964
  758POPC   C4B12826  26.545  14.401   7.664
  759POPC   NC312827  42.364  37.711   9.464
  759POPC   PO412828  42.374  37.717   9.164
  759POPC   GL112829  42.295  37.661   8.864
  759POPC   GL212830  42.415  37.808   8.864
  759POPC   C1A12831  42.302  37.643   8.564
  759POPC   D2A12832  42.345  37.724   8.264
  759POPC   C3A12833  42.340  37.645   7.964
  759POPC   C4A12834  42.384  37.658   7.664
  759POPC   C1B12835  42.466  37.922   8.564
  759POPC   C2B12836  42.531  37.891   8.264
  759POPC   C3B12837  42.479  37.864   7.964
  759POPC   C4B12838  42.518  37.895   7.664
  760POPC   NC312839  24.482  43.130   9.464
  760POPC   PO412840  24.453  43.101   9.164
  760POPC   GL112841  24.470  43.156   8.864
  760POPC   GL212842  24.515  42.950   8.864
  760POPC   C1A12843  24.514  43.093   8.564
  760POPC   D2A12844  24.496  43.069   8.264
  760POPC   C3A12845  24.519  43.088   7.964
  760POPC   C4A12846  24.452  43.075   7.664
  760POPC   C1B12847  24.548  42.886   8.564
  760POPC   C2B12848  24.600  42.919   8.264
  760POPC   C3B12849  24.575  42.904   7.964
  760POPC   C4B12850  24.551  42.841   7.664
  761POPC   NC312851  26.785  10.505   9.464
  761POPC   PO412852  26.827  10.528   9.164
  761POPC   GL112853  26.860  10.505   8.864
  761POPC   GL212854  26.730  10.586   8.864
  761POPC   C1A12855  26.825  10.497   8.564
  761POPC   D2A12856  26.823  10.564   8.264
  761POPC   C3A12857  26.783  10.513   7.964
  761POPC   C4A12858  26.820  10.489   7.664
  761POPC   C1B12859  26.656  10.694   8.564
  761POPC   C2B12860  26.653  10.754   8.264
  761POPC   C3B12861  26.628  10.739   7.964
  761POPC   C4B12862  26.644  10.675   7.664
  762POPC   NC312863  43.863  33.847   9.464
  762POPC   PO412864  43.902  33.778   9.164
  762POPC   GL112865  43.912  33.774   8.864
  762POPC   GL212866  43.951  33.731   8.864
  762POPC   C1A12867  43.862  33.794   8.564
  762POPC   D2A12868  43.932  33.767   8.264
  762POPC   C3A12869  43.925  33.844   7.964
  762POPC   C4A12870  43.844  33.773   7.664
  762POPC   C1B12871  43.983  33.543   8.564
  762POPC   C2B12872  44.053  33.593   8.264
  762POPC   C3B12873  44.062  33.615   7.964
  762POPC   C4B12874  44.014  33.603   7.664
  763POPC   NC312875   2.803  27.584   9.464
  763POPC   PO412876   2.754  27.639   9.164
  763POPC   GL112877   2.752  27.639   8.864
  763POPC   GL212878   2.803  27.691   8.864
  763POPC   C1A12879   2.804  27.609   8.564
  763POPC   D2A12880   2.810  27.642   8.264
  763POPC   C3A12881   2.752  27.587   7.964
  763POPC   C4A12882   2.734  27.547   7.664
  763POPC   C1B12883   2.874  27.874   8.564
  763POPC   C2B12884   2.868  27.855   8.264
  763POPC   C3B12885   2.894  27.873   7.964
  763POPC   C4B12886   2.801  27.795   7.664
  764POPC   NC312887  18.319  33.032   9.464
  764POPC   PO412888  18.239  32.993   9.164
  764POPC   GL112889  18.255  33.010   8.864
  764POPC   GL212890  18.303  33.138   8.864
  764POPC   C1A12891  18.266  32.986   8.564
  764POPC   D2A12892  18.236  33.021   8.264
  764POPC   C3A12893  18.276  32.975   7.964
  764POPC   C4A12894  18.264  33.070   7.664
  764POPC   C1B12895  18.314  33.244   8.564
  764POPC   C2B12896  18.308  33.311   8.264
  764POPC   C3B12897  18.343  33.250   7.964
  764POPC   C4B12898  18.401  33.234   7.664
  765POPC   NC312899  40.742  32.259   9.464
  765POPC   PO412900  40.822  32.239   9.164
  765POPC   GL112901  40.820  32.221   8.864
  765POPC   GL212902  40.803  32.374   8.864
  765POPC   C1A12903  40.815  32.214   8.564
  765POPC   D2A12904  40.794  32.212   8.264
  765POPC   C3A12905  40.810  32.287   7.964
  765POPC   C4A12906  40.744  32.201   7.664
  765POPC   C1B12907  40.829  32.503   8.564
  765POPC   C2B12908  40.772  32.522   8.264
  765POPC   C3B12909  40.749  32.461   7.964
  765POPC   C4B12910  40.755  32.480   7.664
  766POPC   NC312911  37.682  27.576   9.464
  766POPC   PO412912  37.710  27.588   9.164
  766POPC   GL112913  37.638  27.628   8.864
  766POPC   GL212914  37.819  27.602   8.864
  766POPC   C1A12915  37.666  27.588   8.564
  766POPC   D2A12916  37.689  27.630   8.264
  766POPC   C3A12917  37.657  27.545   7.964
  766POPC   C4A12918  37.639  27.597   7.664
  766POPC   C1B12919  37.891  27.525   8.564
  766POPC   C2B12920  37.917  27.560   8.264
  766POPC   C3B12921  37.907  27.518   7.964
  766POPC   C4B12922  37.961  27.532   7.664
  767POPC   NC312923  11.283   7.393   9.464
  767POPC   PO412924  11.280   7.439   9.164
  767POPC   GL112925  11.269   7.386   8.864
  767POPC   GL212926  11.311   7.577   8.864
  767POPC   C1A12927  11.321   7.400   8.564
  767POPC   D2A12928  11.318   7.398   8.264
  767POPC   C3A12929  11.344   7.376   7.964
  767POPC   C4A12930  11.255   7.432   7.664
  767POPC   C1B12931  11.408   7.616   8.564
  767POPC   C2B12932  11.374   7.659   8.264
  767POPC   C3B12933  11.384   7.667   7.964
  767POPC   C4B12934  11.449   7.684   7.664
  768POPC   NC312935  36.913  15.947   9.464
  768POPC   PO412936  36.953  15.962   9.164
  768POPC   GL112937  36.870  15.947   8.864
  768POPC   GL212938  36.747  15.915   8.864
  768POPC   C1A12939  36.881  15.926   8.564
  768POPC   D2A12940  36.938  15.946   8.264
  768POPC   C3A12941  36.931  15.994   7.964
  768POPC   C4A12942  36.945  15.979   7.664
  768POPC   C1B12943  36.672  15.817   8.564
  768POPC   C2B12944  36.662  15.831   8.264
  768POPC   C3B12945  36.679  15.844   7.964
  768POPC   C4B12946  36.722  15.825   7.664
  769POPC   NC312947   8.233  34.540   9.464
  769POPC   PO412948   8.229  34.610   9.164
  769POPC   GL112949   8.195  34.595   8.864
  769POPC   GL212950   8.122  34.503   8.864
  769POPC   C1A12951   8.200  34.560   8.564
  769POPC   D2A12952   8.240  34.563   8.264
  769POPC   C3A12953   8.222  34.584   7.964
  769POPC   C4A12954   8.213  34.614   7.664
  769POPC   C1B12955   8.052  34.338   8.564
  769POPC   C2B12956   8.076  34.322   8.264
  769POPC   C3B12957   8.085  34.367   7.964
  769POPC   C4B12958   8.028  34.373   7.664
  770POPC   NC312959  18.306  13.583   9.464
  770POPC   PO412960  18.305  13.636   9.164
  770POPC   GL112961  18.250  13.678   8.864
  770POPC   GL212962  18.323  13.753   8.864
  770POPC   C1A12963  18.316  13.623   8.564
  770POPC   D2A12964  18.254  13.645   8.264
  770POPC   C3A12965  18.306  13.671   7.964
  770POPC   C4A12966  18.307  13.610   7.664
  770POPC   C1B12967  18.355  13.827   8.564
  770POPC   C2B12968  18.346  13.855   8.264
  770POPC   C3B12969  18.357  13.862   7.964
  770POPC   C4B12970  18.330  13.839   7.664
  771POPC   NC312971  35.365  24.447   9.464
  771POPC   PO412972  35.381  24.521   9.164
  771POPC   GL112973  35.321  24.479   8.864
  771POPC   GL212974  35.255  24.361   8.864
  771POPC   C1A12975  35.367  24.447   8.564
  771POPC   D2A12976  35.397  24.464   8.264
  771POPC   C3A12977  35.313  24.491   7.964
  771POPC   C4A12978  35.331  24.483   7.664
  771POPC   C1B12979  35.183  24.274   8.564
  771POPC   C2B12980  35.166  24.321   8.264
  771POPC   C3B12981  35.187  24.306   7.964
  771POPC   C4B12982  35.191  24.330   7.664
  772POPC   NC312983  26.804  23.713   9.464
  772POPC   PO412984  26.793  23.704   9.164
  772POPC   GL112985  26.783  23.686   8.864
  772POPC   GL212986  26.794  23.594   8.864
  772POPC   C1A12987  26.849  23.716   8.564
  772POPC   D2A12988  26.811  23.725   8.264
  772POPC   C3A12989  26.842  23.690   7.964
  772POPC   C4A12990  26.814  23.680   7.664
  772POPC   C1B12991  26.782  23.509   8.564
  772POPC   C2B12992  26.807  23.472   8.264
  772POPC   C3B12993  26.847  23.490   7.964
  772POPC   C4B12994  26.793  23.487   7.664
  773POPC   NC312995  16.728  26.019   9.464
  773POPC   PO412996  16.733  26.026   9.164
  773POPC   GL112997  16.765  26.003   8.864
  773POPC   GL212998  16.696  25.952   8.864
  773POPC   C1A12999  16.737  26.091   8.564
  773POPC   D2A13000  16.701  26.038   8.264
  773POPC   C3A13001  16.718  26.061   7.964
  773POPC   C4A13002  16.756  26.055   7.664
  773POPC   C1B13003  16.646  25.784   8.564
  773POPC   C2B13004  16.602  25.782   8.264
  773POPC   C3B13005  16.548  25.820   7.964
  773POPC   C4B13006  16.556  25.868   7.664
  774POPC   NC313007  40.773  37.666   9.464
  774POPC   PO413008  40.753  37.703   9.164
  774POPC   GL113009  40.829  37.704   8.864
  774POPC   GL213010  40.866  37.699   8.864
  774POPC   C1A13011  40.735  37.631   8.564
  774POPC   D2A13012  40.743  37.676   8.264
  774POPC   C3A13013  40.832  37.718   7.964
  774POPC   C4A13014  40.829  37.639   7.664
  774POPC   C1B13015  40.992  37.852   8.564
  774POPC   C2B13016  40.981  37.759   8.264
  774POPC   C3B13017  41.020  37.832   7.964
  774POPC   C4B13018  40.995  37.774   7.664
  775POPC   NC313019   5.894  19.094   9.464
  775POPC   PO413020   5.851  19.095   9.164
  775POPC   GL113021   5.866  19.024   8.864
  775POPC   GL213022   5.767  18.921   8.864
  775POPC   C1A13023   5.894  19.057   8.564
  775POPC   D2A13024   5.829  19.015   8.264
  775POPC   C3A13025   5.853  19.077   7.964
  775POPC   C4A13026   5.891  19.071   7.664
  775POPC   C1B13027   5.753  18.861   8.564
  775POPC   C2B13028   5.709  18.914   8.264
  775POPC   C3B13029   5.757  18.847   7.964
  775POPC   C4B13030   5.722  18.870   7.664
  776POPC   NC313031  39.239  23.732   9.464
  776POPC   PO413032  39.231  23.694   9.164
  776POPC   GL113033  39.230  23.664   8.864
  776POPC   GL213034  39.363  23.758   8.864
  776POPC   C1A13035  39.182  23.725   8.564
  776POPC   D2A13036  39.210  23.700   8.264
  776POPC   C3A13037  39.187  23.670   7.964
  776POPC   C4A13038  39.196  23.735   7.664
  776POPC   C1B13039  39.411  23.881   8.564
  776POPC   C2B13040  39.409  23.866   8.264
  776POPC   C3B13041  39.425  23.879   7.964
  776POPC   C4B13042  39.446  23.890   7.664
  777POPC   NC313043  42.367   5.827   9.464
  777POPC   PO413044  42.291   5.822   9.164
  777POPC   GL113045  42.375   5.860   8.864
  777POPC   GL213046  42.186   5.830   8.864
  777POPC   C1A13047  42.338   5.918   8.564
  777POPC   D2A13048  42.301   5.828   8.264
  777POPC   C3A13049  42.341   5.882   7.964
  777POPC   C4A13050  42.375   5.865   7.664
  777POPC   C1B13051  42.069   5.808   8.564
  777POPC   C2B13052  42.076   5.782   8.264
  777POPC   C3B13053  42.071   5.861   7.964
  777POPC   C4B13054  42.096   5.860   7.664
  778POPC   NC313055  40.774  19.108   9.464
  778POPC   PO413056  40.795  19.062   9.164
  778POPC   GL113057  40.824  19.081   8.864
  778POPC   GL213058  40.737  19.232   8.864
  778POPC   C1A13059  40.829  19.076   8.564
  778POPC   D2A13060  40.816  19.083   8.264
  778POPC   C3A13061  40.778  19.010   7.964
  778POPC   C4A13062  40.740  19.094   7.664
  778POPC   C1B13063  40.756  19.326   8.564
  778POPC   C2B13064  40.800  19.349   8.264
  778POPC   C3B13065  40.783  19.264   7.964
  778POPC   C4B13066  40.770  19.344   7.664
  779POPC   NC313067   7.391   6.649   9.464
  779POPC   PO413068   7.469   6.630   9.164
  779POPC   GL113069   7.386   6.689   8.864
  779POPC   GL213070   7.484   6.564   8.864
  779POPC   C1A13071   7.430   6.643   8.564
  779POPC   D2A13072   7.455   6.682   8.264
  779POPC   C3A13073   7.411   6.677   7.964
  779POPC   C4A13074   7.379   6.630   7.664
  779POPC   C1B13075   7.581   6.463   8.564
  779POPC   C2B13076   7.543   6.425   8.264
  779POPC   C3B13077   7.486   6.414   7.964
  779POPC   C4B13078   7.486   6.454   7.664
  780POPC   NC313079  26.027  29.128   9.464
  780POPC   PO413080  26.087  29.129   9.164
  780POPC   GL113081  26.077  29.170   8.864
  780POPC   GL213082  25.896  29.172   8.864
  780POPC   C1A13083  26.050  29.161   8.564
  780POPC   D2A13084  26.006  29.187   8.264
  780POPC   C3A13085  26.000  29.162   7.964
  780POPC   C4A13086  26.008  29.172   7.664
  780POPC   C1B13087  25.789  29.147   8.564
  780POPC   C2B13088  25.841  29.148   8.264
  780POPC   C3B13089  25.789  29.139   7.964
  780POPC   C4B13090  25.809  29.128   7.664
  781POPC   NC313091  24.459  20.577   9.464
  781POPC   PO413092  24.476  20.568   9.164
  781POPC   GL113093  24.520  20.627   8.864
  781POPC   GL213094  24.646  20.677   8.864
  781POPC   C1A13095  24.464  20.592   8.564
  781POPC   D2A13096  24.509  20.607   8.264
  781POPC   C3A13097  24.450  20.657   7.964
  781POPC   C4A13098  24.461  20.601   7.664
  781POPC   C1B13099  24.715  20.738   8.564
  781POPC   C2B13100  24.682  20.685   8.264
  781POPC   C3B13101  24.705  20.684   7.964
  781POPC   C4B13102  24.713  20.722   7.664
  782POPC   NC313103  27.548  20.601   9.464
  782POPC   PO413104  27.613  20.630   9.164
  782POPC   GL113105  27.619  20.599   8.864
  782POPC   GL213106  27.547  20.705   8.864
  782POPC   C1A13107  27.578  20.573   8.564
  782POPC   D2A13108  27.610  20.570   8.264
  782POPC   C3A13109  27.557  20.632   7.964
  782POPC   C4A13110  27.615  20.624   7.664
  782POPC   C1B13111  27.475  20.828   8.564
  782POPC   C2B13112  27.450  20.796   8.264
  782POPC   C3B13113  27.459  20.794   7.964
  782POPC   C4B13114  27.514  20.808   7.664
  783POPC   NC313115  26.039  22.943   9.464
  783POPC   PO413116  26.046  22.934   9.164
  783POPC   GL113117  26.077  22.972   8.864
  783POPC   GL213118  26.163  22.950   8.864
  783POPC   C1A13119  25.996  22.890   8.564
  783POPC   D2A13120  26.038  22.944   8.264
  783POPC   C3A13121  26.080  22.909   7.964
  783POPC   C4A13122  26.012  22.922   7.664
  783POPC   C1B13123  26.219  23.082   8.564
  783POPC   C2B13124  26.311  23.049   8.264
  783POPC   C3B13125  26.285  23.033   7.964
  783POPC   C4B13126  26.273  23.071   7.664
  784POPC   NC313127  27.612  19.815   9.464
  784POPC   PO413128  27.621  19.843   9.164
  784POPC   GL113129  27.622  19.869   8.864
  784POPC   GL213130  27.538  19.894   8.864
  784POPC   C1A13131  27.574  19.847   8.564
  784POPC   D2A13132  27.574  19.794   8.264
  784POPC   C3A13133  27.588  19.825   7.964
  784POPC   C4A13134  27.588  19.846   7.664
  784POPC   C1B13135  27.357  20.000   8.564
  784POPC   C2B13136  27.407  19.965   8.264
  784POPC   C3B13137  27.431  19.980   7.964
  784POPC   C4B13138  27.338  19.962   7.664
  785POPC   NC313139  24.471  36.152   9.464
  785POPC   PO413140  24.462  36.095   9.164
  785POPC   GL113141  24.527  36.143   8.864
  785POPC   GL213142  24.450  36.251   8.864
  785POPC   C1A13143  24.477  36.139   8.564
  785POPC   D2A13144  24.489  36.125   8.264
  785POPC   C3A13145  24.510  36.107   7.964
  785POPC   C4A13146  24.519  36.108   7.664
  785POPC   C1B13147  24.482  36.419   8.564
  785POPC   C2B13148  24.484  36.398   8.264
  785POPC   C3B13149  24.523  36.404   7.964
  785POPC   C4B13150  24.475  36.364   7.664
  786POPC   NC313151  31.485  28.400   9.464
  786POPC   PO413152  31.448  28.410   9.164
  786POPC   GL113153  31.472  28.380   8.864
  786POPC   GL213154  31.403  28.415   8.864
  786POPC   C1A13155  31.522  28.341   8.564
  786POPC   D2A13156  31.466  28.361   8.264
  786POPC   C3A13157  31.482  28.320   7.964
  786POPC   C4A13158  31.453  28.402   7.664
  786POPC   C1B13159  31.236  28.489   8.564
  786POPC   C2B13160  31.244  28.443   8.264
  786POPC   C3B13161  31.251  28.429   7.964
  786POPC   C4B13162  31.273  28.442   7.664
  787POPC   NC313163   1.943   2.813   9.464
  787POPC   PO413164   1.952   2.807   9.164
  787POPC   GL113165   1.985   2.723   8.864
  787POPC   GL213166   2.069   2.695   8.864
  787POPC   C1A13167   1.952   2.748   8.564
  787POPC   D2A13168   2.033   2.786   8.264
  787POPC   C3A13169   1.967   2.807   7.964
  787POPC   C4A13170   2.007   2.811   7.664
  787POPC   C1B13171   2.204   2.747   8.564
  787POPC   C2B13172   2.192   2.713   8.264
  787POPC   C3B13173   2.238   2.692   7.964
  787POPC   C4B13174   2.210   2.678   7.664
  788POPC   NC313175  15.172   8.245   9.464
  788POPC   PO413176  15.135   8.177   9.164
  788POPC   GL113177  15.160   8.153   8.864
  788POPC   GL213178  15.273   8.279   8.864
  788POPC   C1A13179  15.187   8.156   8.564
  788POPC   D2A13180  15.130   8.163   8.264
  788POPC   C3A13181  15.134   8.192   7.964
  788POPC   C4A13182  15.155   8.176   7.664
  788POPC   C1B13183  15.349   8.390   8.564
  788POPC   C2B13184  15.394   8.342   8.264
  788POPC   C3B13185  15.390   8.428   7.964
  788POPC   C4B13186  15.354   8.347   7.664
  789POPC   NC313187  11.310  20.589   9.464
  789POPC   PO413188  11.308  20.594   9.164
  789POPC   GL113189  11.251  20.569   8.864
  789POPC   GL213190  11.280  20.480   8.864
  789POPC   C1A13191  11.298  20.564   8.564
  789POPC   D2A13192  11.311  20.579   8.264
  789POPC   C3A13193  11.295  20.598   7.964
  789POPC   C4A13194  11.261  20.590   7.664
  789POPC   C1B13195  11.371  20.353   8.564
  789POPC   C2B13196  11.352  20.383   8.264
  789POPC   C3B13197  11.383  20.414   7.964
  789POPC   C4B13198  11.378  20.396   7.664
  790POPC   NC313199  36.150  12.126   9.464
  790POPC   PO413200  36.095  12.041   9.164
  790POPC   GL113201  36.098  12.051   8.864
  790POPC   GL213202  36.241  12.018   8.864
  790POPC   C1A13203  36.171  12.031   8.564
  790POPC   D2A13204  36.101  12.043   8.264
  790POPC   C3A13205  36.165  12.041   7.964
  790POPC   C4A13206  36.164  12.069   7.664
  790POPC   C1B13207  36.325  11.939   8.564
  790POPC   C2B13208  36.259  11.921   8.264
  790POPC   C3B13209  36.352  11.879   7.964
  790POPC   C4B13210  36.309  11.942   7.664
  791POPC   NC313211  26.843  37.719   9.464
  791POPC   PO413212  26.817  37.722   9.164
  791POPC   GL113213  26.851  37.639   8.864
  791POPC   GL213214  26.901  37.739   8.864
  791POPC   C1A13215  26.816  37.678   8.564
  791POPC   D2A13216  26.840  37.650   8.264
  791POPC   C3A13217  26.851  37.654   7.964
  791POPC   C4A13218  26.815  37.693   7.664
  791POPC   C1B13219  27.050  37.778   8.564
  791POPC   C2B13220  27.070  37.805   8.264
  791POPC   C3B13221  27.079  37.821   7.964
  791POPC   C4B13222  27.009  37.829   7.664
  792POPC   NC313223   6.670   7.438   9.464
  792POPC   PO413224   6.675   7.436   9.164
  792POPC   GL113225   6.613   7.388   8.864
  792POPC   GL213226   6.560   7.551   8.864
  792POPC   C1A13227   6.622   7.464   8.564
  792POPC   D2A13228   6.695   7.388   8.264
  792POPC   C3A13229   6.595   7.443   7.964
  792POPC   C4A13230   6.602   7.412   7.664
  792POPC   C1B13231   6.487   7.636   8.564
  792POPC   C2B13232   6.498   7.620   8.264
  792POPC   C3B13233   6.480   7.583   7.964
  792POPC   C4B13234   6.464   7.572   7.664
  793POPC   NC313235  40.832   6.611   9.464
  793POPC   PO413236  40.812   6.695   9.164
  793POPC   GL113237  40.815   6.680   8.864
  793POPC   GL213238  40.717   6.778   8.864
  793POPC   C1A13239  40.774   6.623   8.564
  793POPC   D2A13240  40.751   6.615   8.264
  793POPC   C3A13241  40.761   6.672   7.964
  793POPC   C4A13242  40.799   6.651   7.664
  793POPC   C1B13243  40.634   6.837   8.564
  793POPC   C2B13244  40.570   6.793   8.264
  793POPC   C3B13245  40.626   6.832   7.964
  793POPC   C4B13246  40.571   6.794   7.664
  794POPC   NC313247  19.852  12.883   9.464
  794POPC   PO413248  19.863  12.816   9.164
  794POPC   GL113249  19.796  12.865   8.864
  794POPC   GL213250  19.993  12.846   8.864
  794POPC   C1A13251  19.876  12.824   8.564
  794POPC   D2A13252  19.843  12.889   8.264
  794POPC   C3A13253  19.854  12.893   7.964
  794POPC   C4A13254  19.832  12.868   7.664
  794POPC   C1B13255  20.101  12.833   8.564
  794POPC   C2B13256  20.124  12.894   8.264
  794POPC   C3B13257  20.107  12.854   7.964
  794POPC   C4B13258  20.065  12.837   7.664
  795POPC   NC313259  22.938  37.713   9.464
  795POPC   PO413260  22.961  37.695   9.164
  795POPC   GL113261  22.985  37.646   8.864
  795POPC   GL213262  22.968  37.546   8.864
  795POPC   C1A13263  22.936  37.710   8.564
  795POPC   D2A13264  22.936  37.708   8.264
  795POPC   C3A13265  22.925  37.695   7.964
  795POPC   C4A13266  22.978  37.694   7.664
  795POPC   C1B13267  23.068  37.426   8.564
  795POPC   C2B13268  23.020  37.483   8.264
  795POPC   C3B13269  23.033  37.488   7.964
  795POPC   C4B13270  22.979  37.421   7.664
  796POPC   NC313271  37.715  12.068   9.464
  796POPC   PO413272  37.662  12.086   9.164
  796POPC   GL113273  37.704  12.062   8.864
  796POPC   GL213274  37.589  12.236   8.864
  796POPC   C1A13275  37.726  12.040   8.564
  796POPC   D2A13276  37.714  12.116   8.264
  796POPC   C3A13277  37.656  12.108   7.964
  796POPC   C4A13278  37.715  12.044   7.664
  796POPC   C1B13279  37.521  12.251   8.564
  796POPC   C2B13280  37.556  12.337   8.264
  796POPC   C3B13281  37.593  12.258   7.964
  796POPC   C4B13282  37.521  12.337   7.664
  797POPC   NC313283  34.528  34.622   9.464
  797POPC   PO413284  34.610  34.533   9.164
  797POPC   GL113285  34.575  34.585   8.864
  797POPC   GL213286  34.741  34.577   8.864
  797POPC   C1A13287  34.562  34.563   8.564
  797POPC   D2A13288  34.596  34.580   8.264
  797POPC   C3A13289  34.615  34.532   7.964
  797POPC   C4A13290  34.576  34.548   7.664
  797POPC   C1B13291  34.837  34.594   8.564
  797POPC   C2B13292  34.858  34.603   8.264
  797POPC   C3B13293  34.778  34.550   7.964
  797POPC   C4B13294  34.854  34.602   7.664
  798POPC   NC313295   9.716   4.278   9.464
  798POPC   PO413296   9.769   4.331   9.164
  798POPC   GL113297   9.731   4.309   8.864
  798POPC   GL213298   9.901   4.330   8.864
  798POPC   C1A13299   9.769   4.335   8.564
  798POPC   D2A13300   9.759   4.285   8.264
  798POPC   C3A13301   9.751   4.268   7.964
  798POPC   C4A13302   9.765   4.355   7.664
  798POPC   C1B13303   9.949   4.340   8.564
  798POPC   C2B13304   9.969   4.329   8.264
  798POPC   C3B13305  10.021   4.370   7.964
  798POPC   C4B13306  10.023   4.301   7.664
  799POPC   NC313307  34.592  25.287   9.464
  799POPC   PO413308  34.620  25.296   9.164
  799POPC   GL113309  34.535  25.240   8.864
  799POPC   GL213310  34.474  25.233   8.864
  799POPC   C1A13311  34.538  25.260   8.564
  799POPC   D2A13312  34.582  25.234   8.264
  799POPC   C3A13313  34.549  25.269   7.964
  799POPC   C4A13314  34.575  25.275   7.664
  799POPC   C1B13315  34.341  25.141   8.564
  799POPC   C2B13316  34.363  25.121   8.264
  799POPC   C3B13317  34.343  25.154   7.964
  799POPC   C4B13318  34.403  25.155   7.664
  800POPC   NC313319   3.505  27.568   9.464
  800POPC   PO413320   3.523  27.639   9.164
  800POPC   GL113321   3.570  27.550   8.864
  800POPC   GL213322   3.649  27.634   8.864
  800POPC   C1A13323   3.574  27.547   8.564
  800POPC   D2A13324   3.509  27.576   8.264
  800POPC   C3A13325   3.581  27.564   7.964
  800POPC   C4A13326   3.587  27.634   7.664
  800POPC   C1B13327   3.757  27.650   8.564
  800POPC   C2B13328   3.781  27.619   8.264
  800POPC   C3B13329   3.743  27.633   7.964
  800POPC   C4B13330   3.747  27.619   7.664
  801POPC   NC313331  17.489  40.043   9.464
  801POPC   PO413332  17.464  39.984   9.164
  801POPC   GL113333  17.491  40.012   8.864
  801POPC   GL213334  17.541  39.900   8.864
  801POPC   C1A13335  17.506  39.963   8.564
  801POPC   D2A13336  17.505  39.994   8.264
  801POPC   C3A13337  17.458  40.053   7.964
  801POPC   C4A13338  17.458  39.994   7.664
  801POPC   C1B13339  17.469  39.762   8.564
  801POPC   C2B13340  17.492  39.728   8.264
  801POPC   C3B13341  17.452  39.788   7.964
  801POPC   C4B13342  17.456  39.744   7.664
  802POPC   NC313343   7.450  29.100   9.464
  802POPC   PO413344   7.444  29.115   9.164
  802POPC   GL113345   7.432  29.171   8.864
  802POPC   GL213346   7.480  29.252   8.864
  802POPC   C1A13347   7.387  29.145   8.564
  802POPC   D2A13348   7.407  29.125   8.264
  802POPC   C3A13349   7.437  29.104   7.964
  802POPC   C4A13350   7.378  29.112   7.664
  802POPC   C1B13351   7.425  29.439   8.564
  802POPC   C2B13352   7.495  29.347   8.264
  802POPC   C3B13353   7.479  29.405   7.964
  802POPC   C4B13354   7.485  29.440   7.664
  803POPC   NC313355  39.253  29.191   9.464
  803POPC   PO413356  39.188  29.125   9.164
  803POPC   GL113357  39.205  29.191   8.864
  803POPC   GL213358  39.230  29.274   8.864
  803POPC   C1A13359  39.281  29.152   8.564
  803POPC   D2A13360  39.182  29.096   8.264
  803POPC   C3A13361  39.247  29.098   7.964
  803POPC   C4A13362  39.221  29.153   7.664
  803POPC   C1B13363  39.120  29.344   8.564
  803POPC   C2B13364  39.143  29.408   8.264
  803POPC   C3B13365  39.189  29.424   7.964
  803POPC   C4B13366  39.150  29.386   7.664
  804POPC   NC313367  39.205  44.698   9.464
  804POPC   PO413368  39.265  44.668   9.164
  804POPC   GL113369  39.218  44.630   8.864
  804POPC   GL213370  39.332  44.588   8.864
  804POPC   C1A13371  39.276  44.676   8.564
  804POPC   D2A13372  39.269  44.700   8.264
  804POPC   C3A13373  39.208  44.665   7.964
  804POPC   C4A13374  39.281  44.618   7.664
  804POPC   C1B13375  39.398  44.492   8.564
  804POPC   C2B13376  39.413  44.510   8.264
  804POPC   C3B13377  39.469  44.553   7.964
  804POPC   C4B13378  39.419  44.503   7.664
  805POPC   NC313379  15.208  22.187   9.464
  805POPC   PO413380  15.164  22.177   9.164
  805POPC   GL113381  15.182  22.118   8.864
  805POPC   GL213382  15.056  22.220   8.864
  805POPC   C1A13383  15.138  22.163   8.564
  805POPC   D2A13384  15.190  22.139   8.264
  805POPC   C3A13385  15.151  22.185   7.964
  805POPC   C4A13386  15.210  22.139   7.664
  805POPC   C1B13387  14.979  22.322   8.564
  805POPC   C2B13388  14.947  22.309   8.264
  805POPC   C3B13389  14.915  22.305   7.964
  805POPC   C4B13390  14.908  22.241   7.664
  806POPC   NC313391   0.480  24.443   9.464
  806POPC   PO413392   0.438  24.452   9.164
  806POPC   GL113393   0.477  24.467   8.864
  806POPC   GL213394   0.287  24.412   8.864
  806POPC   C1A13395   0.397  24.460   8.564
  806POPC   D2A13396   0.388  24.459   8.264
  806POPC   C3A13397   0.456  24.489   7.964
  806POPC   C4A13398   0.413  24.503   7.664
  806POPC   C1B13399   0.203  24.368   8.564
  806POPC   C2B13400   0.234  24.351   8.264
  806POPC   C3B13401   0.164  24.349   7.964
  806POPC   C4B13402   0.158  24.421   7.664
  807POPC   NC313403  10.499   4.286   9.464
  807POPC   PO413404  10.536   4.302   9.164
  807POPC   GL113405  10.520   4.276   8.864
  807POPC   GL213406  10.377   4.358   8.864
  807POPC   C1A13407  10.542   4.349   8.564
  807POPC   D2A13408  10.545   4.272   8.264
  807POPC   C3A13409  10.525   4.290   7.964
  807POPC   C4A13410  10.524   4.269   7.664
  807POPC   C1B13411  10.241   4.365   8.564
  807POPC   C2B13412  10.267   4.402   8.264
  807POPC   C3B13413  10.249   4.443   7.964
  807POPC   C4B13414  10.295   4.366   7.664
  808POPC   NC313415  17.548  31.438   9.464
  808POPC   PO413416  17.488  31.491   9.164
  808POPC   GL113417  17.475  31.444   8.864
  808POPC   GL213418  17.451  31.397   8.864
  808POPC   C1A13419  17.470  31.448   8.564
  808POPC   D2A13420  17.510  31.471   8.264
  808POPC   C3A13421  17.457  31.465   7.964
  808POPC   C4A13422  17.496  31.502   7.664
  808POPC   C1B13423  17.400  31.254   8.564
  808POPC   C2B13424  17.385  31.225   8.264
  808POPC   C3B13425  17.389  31.307   7.964
  808POPC   C4B13426  17.415  31.295   7.664
  809POPC   NC313427  44.664  27.610   9.464
  809POPC   PO413428  44.668  27.588   9.164
  809POPC   GL113429  44.699  27.548   8.864
  809POPC   GL213430  44.618  27.681   8.864
  809POPC   C1A13431  44.687  27.617   8.564
  809POPC   D2A13432  44.655  27.559   8.264
  809POPC   C3A13433  44.650  27.573   7.964
  809POPC   C4A13434  44.644  27.617   7.664
  809POPC   C1B13435  44.534  27.822   8.564
  809POPC   C2B13436  44.479  27.802   8.264
  809POPC   C3B13437  44.478  27.745   7.964
  809POPC   C4B13438  44.540  27.799   7.664
  810POPC   NC313439   6.621  29.884   9.464
  810POPC   PO413440   6.692  29.960   9.164
  810POPC   GL113441   6.605  29.968   8.864
  810POPC   GL213442   6.738  29.933   8.864
  810POPC   C1A13443   6.640  29.902   8.564
  810POPC   D2A13444   6.648  29.949   8.264
  810POPC   C3A13445   6.620  29.881   7.964
  810POPC   C4A13446   6.601  29.961   7.664
  810POPC   C1B13447   6.918  29.900   8.564
  810POPC   C2B13448   6.879  29.864   8.264
  810POPC   C3B13449   6.875  29.899   7.964
  810POPC   C4B13450   6.882  29.859   7.664
  811POPC   NC313451  19.854  26.832   9.464
  811POPC   PO413452  19.839  26.822   9.164
  811POPC   GL113453  19.798  26.815   8.864
  811POPC   GL213454  19.985  26.698   8.864
  811POPC   C1A13455  19.801  26.774   8.564
  811POPC   D2A13456  19.848  26.802   8.264
  811POPC   C3A13457  19.874  26.820   7.964
  811POPC   C4A13458  19.867  26.808   7.664
  811POPC   C1B13459  20.088  26.667   8.564
  811POPC   C2B13460  20.040  26.691   8.264
  811POPC   C3B13461  20.086  26.656   7.964
  811POPC   C4B13462  20.041  26.697   7.664
  812POPC   NC313463   3.540  28.417   9.464
  812POPC   PO413464   3.554  28.392   9.164
  812POPC   GL113465   3.513  28.356   8.864
  812POPC   GL213466   3.604  28.488   8.864
  812POPC   C1A13467   3.586  28.327   8.564
  812POPC   D2A13468   3.522  28.395   8.264
  812POPC   C3A13469   3.493  28.375   7.964
  812POPC   C4A13470   3.566  28.385   7.664
  812POPC   C1B13471   3.663  28.599   8.564
  812POPC   C2B13472   3.631  28.628   8.264
  812POPC   C3B13473   3.684  28.592   7.964
  812POPC   C4B13474   3.623  28.630   7.664
  813POPC   NC313475  37.708  36.171   9.464
  813POPC   PO413476  37.659  36.162   9.164
  813POPC   GL113477  37.646  36.103   8.864
  813POPC   GL213478  37.616  36.056   8.864
  813POPC   C1A13479  37.632  36.147   8.564
  813POPC   D2A13480  37.725  36.111   8.264
  813POPC   C3A13481  37.699  36.091   7.964
  813POPC   C4A13482  37.630  36.087   7.664
  813POPC   C1B13483  37.550  35.932   8.564
  813POPC   C2B13484  37.536  35.888   8.264
  813POPC   C3B13485  37.561  35.872   7.964
  813POPC   C4B13486  37.630  35.918   7.664
  814POPC   NC313487   8.938  23.737   9.464
  814POPC   PO413488   8.986  23.724   9.164
  814POPC   GL113489   8.997  23.710   8.864
  814POPC   GL213490   9.015  23.817   8.864
  814POPC   C1A13491   8.988  23.709   8.564
  814POPC   D2A13492   8.924  23.723   8.264
  814POPC   C3A13493   9.012  23.720   7.964
  814POPC   C4A13494   8.943  23.664   7.664
  814POPC   C1B13495   8.939  23.982   8.564
  814POPC   C2B13496   8.935  23.998   8.264
  814POPC   C3B13497   9.016  23.988   7.964
  814POPC   C4B13498   8.967  24.004   7.664
  815POPC   NC313499  20.627   8.224   9.464
  815POPC   PO413500  20.567   8.160   9.164
  815POPC   GL113501  20.562   8.232   8.864
  815POPC   GL213502  20.512   8.272   8.864
  815POPC   C1A13503  20.561   8.207   8.564
  815POPC   D2A13504  20.608   8.226   8.264
  815POPC   C3A13505  20.647   8.218   7.964
  815POPC   C4A13506  20.629   8.244   7.664
  815POPC   C1B13507  20.527   8.381   8.564
  815POPC   C2B13508  20.493   8.393   8.264
  815POPC   C3B13509  20.486   8.379   7.964
  815POPC   C4B13510  20.507   8.432   7.664
  816POPC   NC313511  40.029  11.280   9.464
  816POPC   PO413512  40.009  11.293   9.164
  816POPC   GL113513  39.957  11.263   8.864
  816POPC   GL213514  39.867  11.293   8.864
  816POPC   C1A13515  40.041  11.272   8.564
  816POPC   D2A13516  40.004  11.260   8.264
  816POPC   C3A13517  40.019  11.292   7.964
  816POPC   C4A13518  40.001  11.347   7.664
  816POPC   C1B13519  39.777  11.328   8.564
  816POPC   C2B13520  39.771  11.234   8.264
  816POPC   C3B13521  39.732  11.234   7.964
  816POPC   C4B13522  39.721  11.289   7.664
  817POPC   NC313523  23.686  44.629   9.464
  817POPC   PO413524  23.719  44.667   9.164
  817POPC   GL113525  23.758  44.676   8.864
  817POPC   GL213526  23.798  44.560   8.864
  817POPC   C1A13527  23.759  44.686   8.564
  817POPC   D2A13528  23.711  44.677   8.264
  817POPC   C3A13529  23.742  44.702   7.964
  817POPC   C4A13530  23.728  44.706   7.664
  817POPC   C1B13531  23.802  44.473   8.564
  817POPC   C2B13532  23.835  44.466   8.264
  817POPC   C3B13533  23.800  44.395   7.964
  817POPC   C4B13534  23.816  44.455   7.664
  818POPC   NC313535  12.096  42.320   9.464
  818POPC   PO413536  12.066  42.288   9.164
  818POPC   GL113537  12.064  42.359   8.864
  818POPC   GL213538  12.043  42.451   8.864
  818POPC   C1A13539  12.087  42.383   8.564
  818POPC   D2A13540  12.075  42.293   8.264
  818POPC   C3A13541  12.089  42.313   7.964
  818POPC   C4A13542  12.039  42.338   7.664
  818POPC   C1B13543  12.015  42.593   8.564
  818POPC   C2B13544  12.027  42.630   8.264
  818POPC   C3B13545  12.037  42.537   7.964
  818POPC   C4B13546  12.047  42.585   7.664
  819POPC   NC313547  15.986  21.363   9.464
  819POPC   PO413548  15.940  21.428   9.164
  819POPC   GL113549  15.938  21.384   8.864
  819POPC   GL213550  15.904  21.502   8.864
  819POPC   C1A13551  15.914  21.365   8.564
  819POPC   D2A13552  15.928  21.352   8.264
  819POPC   C3A13553  15.952  21.377   7.964
  819POPC   C4A13554  15.979  21.343   7.664
  819POPC   C1B13555  15.900  21.594   8.564
  819POPC   C2B13556  15.829  21.608   8.264
  819POPC   C3B13557  15.879  21.636   7.964
  819POPC   C4B13558  15.886  21.665   7.664
  820POPC   NC313559  38.420   2.797   9.464
  820POPC   PO413560  38.470   2.734   9.164
  820POPC   GL113561  38.499   2.735   8.864
  820POPC   GL213562  38.420   2.903   8.864
  820POPC   C1A13563  38.456   2.757   8.564
  820POPC   D2A13564  38.495   2.769   8.264
  820POPC   C3A13565  38.411   2.782   7.964
  820POPC   C4A13566  38.432   2.762   7.664
  820POPC   C1B13567  38.446   2.968   8.564
  820POPC   C2B13568  38.400   3.035   8.264
  820POPC   C3B13569  38.454   3.017   7.964
  820POPC   C4B13570  38.411   3.035   7.664
  821POPC   NC313571   6.645  32.234   9.464
  821POPC   PO413572   6.662  32.239   9.164
  821POPC   GL113573   6.673  32.240   8.864
  821POPC   GL213574   6.692  32.346   8.864
  821POPC   C1A13575   6.598  32.295   8.564
  821POPC   D2A13576   6.652  32.284   8.264
  821POPC   C3A13577   6.675  32.252   7.964
  821POPC   C4A13578   6.642  32.199   7.664
  821POPC   C1B13579   6.774  32.466   8.564
  821POPC   C2B13580   6.793  32.471   8.264
  821POPC   C3B13581   6.781  32.436   7.964
  821POPC   C4B13582   6.763  32.444   7.664
  822POPC   NC313583   4.361   6.664   9.464
  822POPC   PO413584   4.347   6.646   9.164
  822POPC   GL113585   4.361   6.598   8.864
  822POPC   GL213586   4.389   6.747   8.864
  822POPC   C1A13587   4.367   6.601   8.564
  822POPC   D2A13588   4.288   6.600   8.264
  822POPC   C3A13589   4.286   6.632   7.964
  822POPC   C4A13590   4.307   6.595   7.664
  822POPC   C1B13591   4.485   6.884   8.564
  822POPC   C2B13592   4.489   6.788   8.264
  822POPC   C3B13593   4.485   6.790   7.964
  822POPC   C4B13594   4.498   6.850   7.664
  823POPC   NC313595  41.598  40.791   9.464
  823POPC   PO413596  41.601  40.801   9.164
  823POPC   GL113597  41.572  40.752   8.864
  823POPC   GL213598  41.709  40.796   8.864
  823POPC   C1A13599  41.529  40.745   8.564
  823POPC   D2A13600  41.587  40.804   8.264
  823POPC   C3A13601  41.524  40.765   7.964
  823POPC   C4A13602  41.538  40.781   7.664
  823POPC   C1B13603  41.760  40.844   8.564
  823POPC   C2B13604  41.771  40.841   8.264
  823POPC   C3B13605  41.755  40.909   7.964
  823POPC   C4B13606  41.751  40.884   7.664
  824POPC   NC313607   8.949   2.736   9.464
  824POPC   PO413608   8.946   2.743   9.164
  824POPC   GL113609   8.937   2.809   8.864
  824POPC   GL213610   8.931   2.634   8.864
  824POPC   C1A13611   8.958   2.740   8.564
  824POPC   D2A13612   8.950   2.725   8.264
  824POPC   C3A13613   9.003   2.758   7.964
  824POPC   C4A13614   9.018   2.804   7.664
  824POPC   C1B13615   8.826   2.633   8.564
  824POPC   C2B13616   8.776   2.634   8.264
  824POPC   C3B13617   8.806   2.592   7.964
  824POPC   C4B13618   8.817   2.550   7.664
  825POPC   NC313619  29.943  10.553   9.464
  825POPC   PO413620  29.913  10.529   9.164
  825POPC   GL113621  29.906  10.530   8.864
  825POPC   GL213622  30.008  10.495   8.864
  825POPC   C1A13623  29.968  10.560   8.564
  825POPC   D2A13624  29.905  10.540   8.264
  825POPC   C3A13625  29.930  10.570   7.964
  825POPC   C4A13626  29.903  10.550   7.664
  825POPC   C1B13627  30.146  10.475   8.564
  825POPC   C2B13628  30.149  10.431   8.264
  825POPC   C3B13629  30.124  10.443   7.964
  825POPC   C4B13630  30.187  10.385   7.664
  826POPC   NC313631  43.866   3.572   9.464
  826POPC   PO413632  43.867   3.566   9.164
  826POPC   GL113633  43.898   3.516   8.864
  826POPC   GL213634  43.833   3.668   8.864
  826POPC   C1A13635  43.933   3.500   8.564
  826POPC   D2A13636  43.855   3.582   8.264
  826POPC   C3A13637  43.861   3.504   7.964
  826POPC   C4A13638  43.866   3.590   7.664
  826POPC   C1B13639  43.700   3.754   8.564
  826POPC   C2B13640  43.666   3.674   8.264
  826POPC   C3B13641  43.745   3.672   7.964
  826POPC   C4B13642  43.727   3.687   7.664
  827POPC   NC313643  29.900  23.740   9.464
  827POPC   PO413644  29.971  23.741   9.164
  827POPC   GL113645  29.947  23.689   8.864
  827POPC   GL213646  29.828  23.642   8.864
  827POPC   C1A13647  29.879  23.749   8.564
  827POPC   D2A13648  29.928  23.745   8.264
  827POPC   C3A13649  29.887  23.711   7.964
  827POPC   C4A13650  29.871  23.682   7.664
  827POPC   C1B13651  29.709  23.555   8.564
  827POPC   C2B13652  29.697  23.524   8.264
  827POPC   C3B13653  29.699  23.543   7.964
  827POPC   C4B13654  29.706  23.524   7.664
  828POPC   NC313655   3.585  39.191   9.464
  828POPC   PO413656   3.500  39.182   9.164
  828POPC   GL113657   3.545  39.268   8.864
  828POPC   GL213658   3.501  39.314   8.864
  828POPC   C1A13659   3.523  39.217   8.564
  828POPC   D2A13660   3.589  39.260   8.264
  828POPC   C3A13661   3.578  39.209   7.964
  828POPC   C4A13662   3.513  39.214   7.664
  828POPC   C1B13663   3.496  39.513   8.564
  828POPC   C2B13664   3.499  39.440   8.264
  828POPC   C3B13665   3.555  39.504   7.964
  828POPC   C4B13666   3.574  39.431   7.664
  829POPC   NC313667  33.757  23.725   9.464
  829POPC   PO413668  33.809  23.714   9.164
  829POPC   GL113669  33.832  23.743   8.864
  829POPC   GL213670  33.868  23.653   8.864
  829POPC   C1A13671  33.846  23.757   8.564
  829POPC   D2A13672  33.778  23.719   8.264
  829POPC   C3A13673  33.770  23.761   7.964
  829POPC   C4A13674  33.757  23.680   7.664
  829POPC   C1B13675  34.042  23.607   8.564
  829POPC   C2B13676  33.999  23.613   8.264
  829POPC   C3B13677  34.046  23.577   7.964
  829POPC   C4B13678  34.038  23.610   7.664
  830POPC   NC313679   2.736  35.316   9.464
  830POPC   PO413680   2.814  35.330   9.164
  830POPC   GL113681   2.792  35.359   8.864
  830POPC   GL213682   2.681  35.285   8.864
  830POPC   C1A13683   2.813  35.359   8.564
  830POPC   D2A13684   2.799  35.381   8.264
  830POPC   C3A13685   2.745  35.319   7.964
  830POPC   C4A13686   2.732  35.393   7.664
  830POPC   C1B13687   2.537  35.299   8.564
  830POPC   C2B13688   2.486  35.250   8.264
  830POPC   C3B13689   2.498  35.220   7.964
  830POPC   C4B13690   2.499  35.215   7.664
  831POPC   NC313691  11.297  33.833   9.464
  831POPC   PO413692  11.334  33.760   9.164
  831POPC   GL113693  11.340  33.809   8.864
  831POPC   GL213694  11.250  33.968   8.864
  831POPC   C1A13695  11.342  33.802   8.564
  831POPC   D2A13696  11.308  33.784   8.264
  831POPC   C3A13697  11.307  33.821   7.964
  831POPC   C4A13698  11.279  33.814   7.664
  831POPC   C1B13699  11.285  34.084   8.564
  831POPC   C2B13700  11.244  34.094   8.264
  831POPC   C3B13701  11.222  34.039   7.964
  831POPC   C4B13702  11.287  34.004   7.664
  832POPC   NC313703  30.724  22.985   9.464
  832POPC   PO413704  30.691  22.901   9.164
  832POPC   GL113705  30.721  22.957   8.864
  832POPC   GL213706  30.776  22.972   8.864
  832POPC   C1A13707  30.722  22.899   8.564
  832POPC   D2A13708  30.737  22.914   8.264
  832POPC   C3A13709  30.675  22.891   7.964
  832POPC   C4A13710  30.740  22.893   7.664
  832POPC   C1B13711  30.906  22.955   8.564
  832POPC   C2B13712  30.937  23.007   8.264
  832POPC   C3B13713  30.899  22.974   7.964
  832POPC   C4B13714  30.993  22.966   7.664
  833POPC   NC313715  29.192   8.960   9.464
  833POPC   PO413716  29.142   9.014   9.164
  833POPC   GL113717  29.136   8.998   8.864
  833POPC   GL213718  29.086   9.087   8.864
  833POPC   C1A13719  29.178   8.954   8.564
  833POPC   D2A13720  29.115   9.006   8.264
  833POPC   C3A13721  29.147   9.009   7.964
  833POPC   C4A13722  29.113   8.970   7.664
  833POPC   C1B13723  28.944   9.140   8.564
  833POPC   C2B13724  28.922   9.180   8.264
  833POPC   C3B13725  28.970   9.163   7.964
  833POPC   C4B13726  28.981   9.187   7.664
  834POPC   NC313727  35.372   0.482   9.464
  834POPC   PO413728  35.319   0.442   9.164
  834POPC   GL113729  35.302   0.452   8.864
  834POPC   GL213730  35.326   0.599   8.864
  834POPC   C1A13731  35.365   0.472   8.564
  834POPC   D2A13732  35.316   0.422   8.264
  834POPC   C3A13733  35.318   0.427   7.964
  834POPC   C4A13734  35.377   0.459   7.664
  834POPC   C1B13735  35.386   0.717   8.564
  834POPC   C2B13736  35.384   0.675   8.264
  834POPC   C3B13737  35.386   0.717   7.964
  834POPC   C4B13738  35.426   0.706   7.664
  835POPC   NC313739  32.273  26.023   9.464
  835POPC   PO413740  32.283  26.089   9.164
  835POPC   GL113741  32.264  25.998   8.864
  835POPC   GL213742  32.161  25.987   8.864
  835POPC   C1A13743  32.253  26.000   8.564
  835POPC   D2A13744  32.253  26.039   8.264
  835POPC   C3A13745  32.218  26.055   7.964
  835POPC   C4A13746  32.217  26.033   7.664
  835POPC   C1B13747  32.066  25.850   8.564
  835POPC   C2B13748  32.039  25.912   8.264
  835POPC   C3B13749  32.090  25.838   7.964
  835POPC   C4B13750  32.031  25.915   7.664
  836POPC   NC313751  29.143  43.903   9.464
  836POPC   PO413752  29.146  43.875   9.164
  836POPC   GL113753  29.111  43.897   8.864
  836POPC   GL213754  29.122  43.809   8.864
  836POPC   C1A13755  29.131  43.843   8.564
  836POPC   D2A13756  29.186  43.855   8.264
  836POPC   C3A13757  29.178  43.887   7.964
  836POPC   C4A13758  29.142  43.853   7.664
  836POPC   C1B13759  29.137  43.640   8.564
  836POPC   C2B13760  29.147  43.643   8.264
  836POPC   C3B13761  29.095  43.654   7.964
  836POPC   C4B13762  29.067  43.680   7.664
  837POPC   NC313763  44.666  16.753   9.464
  837POPC   PO413764  44.700  16.712   9.164
  837POPC   GL113765  44.656  16.755   8.864
  837POPC   GL213766  44.746  16.800   8.864
  837POPC   C1A13767  44.654  16.741   8.564
  837POPC   D2A13768  44.669  16.722   8.264
  837POPC   C3A13769  44.692  16.744   7.964
  837POPC   C4A13770  44.678  16.718   7.664
  837POPC   C1B13771  44.868  16.955   8.564
  837POPC   C2B13772  44.791  16.893   8.264
  837POPC   C3B13773  44.799  16.893   7.964
  837POPC   C4B13774  44.850  16.927   7.664
  838POPC   NC313775  32.230  39.277   9.464
  838POPC   PO413776  32.260  39.237   9.164
  838POPC   GL113777  32.232  39.193   8.864
  838POPC   GL213778  32.324  39.165   8.864
  838POPC   C1A13779  32.216  39.246   8.564
  838POPC   D2A13780  32.254  39.203   8.264
  838POPC   C3A13781  32.246  39.251   7.964
  838POPC   C4A13782  32.215  39.266   7.664
  838POPC   C1B13783  32.466  39.057   8.564
  838POPC   C2B13784  32.482  39.050   8.264
  838POPC   C3B13785  32.473  39.119   7.964
  838POPC   C4B13786  32.496  39.111   7.664
  839POPC   NC313787  34.597  29.131   9.464
  839POPC   PO413788  34.563  29.175   9.164
  839POPC   GL113789  34.534  29.154   8.864
  839POPC   GL213790  34.643  29.043   8.864
  839POPC   C1A13791  34.535  29.132   8.564
  839POPC   D2A13792  34.560  29.126   8.264
  839POPC   C3A13793  34.585  29.150   7.964
  839POPC   C4A13794  34.600  29.141   7.664
  839POPC   C1B13795  34.720  28.883   8.564
  839POPC   C2B13796  34.674  28.965   8.264
  839POPC   C3B13797  34.697  28.922   7.964
  839POPC   C4B13798  34.686  28.911   7.664
  840POPC   NC313799   4.308   2.037   9.464
  840POPC   PO413800   4.294   2.008   9.164
  840POPC   GL113801   4.279   1.948   8.864
  840POPC   GL213802   4.168   2.065   8.864
  840POPC   C1A13803   4.295   1.944   8.564
  840POPC   D2A13804   4.308   1.956   8.264
  840POPC   C3A13805   4.279   1.948   7.964
  840POPC   C4A13806   4.343   1.973   7.664
  840POPC   C1B13807   4.043   2.044   8.564
  840POPC   C2B13808   4.123   2.063   8.264
  840POPC   C3B13809   4.027   2.015   7.964
  840POPC   C4B13810   4.076   2.082   7.664
  841POPC   NC313811  24.503  35.398   9.464
  841POPC   PO413812  24.530  35.304   9.164
  841POPC   GL113813  24.445  35.395   8.864
  841POPC   GL213814  24.508  35.259   8.864
  841POPC   C1A13815  24.514  35.341   8.564
  841POPC   D2A13816  24.534  35.394   8.264
  841POPC   C3A13817  24.484  35.375   7.964
  841POPC   C4A13818  24.512  35.397   7.664
  841POPC   C1B13819  24.589  35.092   8.564
  841POPC   C2B13820  24.603  35.149   8.264
  841POPC   C3B13821  24.594  35.151   7.964
  841POPC   C4B13822  24.586  35.118   7.664
  842POPC   NC313823  15.928   7.401   9.464
  842POPC   PO413824  15.949   7.440   9.164
  842POPC   GL113825  15.922   7.387   8.864
  842POPC   GL213826  15.811   7.313   8.864
  842POPC   C1A13827  15.956   7.460   8.564
  842POPC   D2A13828  15.971   7.405   8.264
  842POPC   C3A13829  15.999   7.456   7.964
  842POPC   C4A13830  15.910   7.417   7.664
  842POPC   C1B13831  15.721   7.275   8.564
  842POPC   C2B13832  15.759   7.267   8.264
  842POPC   C3B13833  15.777   7.269   7.964
  842POPC   C4B13834  15.774   7.254   7.664
  843POPC   NC313835   9.751  43.083   9.464
  843POPC   PO413836   9.712  43.061   9.164
  843POPC   GL113837   9.736  43.120   8.864
  843POPC   GL213838   9.648  43.004   8.864
  843POPC   C1A13839   9.717  43.062   8.564
  843POPC   D2A13840   9.750  43.067   8.264
  843POPC   C3A13841   9.766  43.080   7.964
  843POPC   C4A13842   9.748  43.080   7.664
  843POPC   C1B13843   9.598  42.887   8.564
  843POPC   C2B13844   9.618  42.861   8.264
  843POPC   C3B13845   9.659  42.853   7.964
  843POPC   C4B13846   9.618  42.871   7.664
  844POPC   NC313847  30.711  16.726   9.464
  844POPC   PO413848  30.659  16.719   9.164
  844POPC   GL113849  30.728  16.681   8.864
  844POPC   GL213850  30.764  16.810   8.864
  844POPC   C1A13851  30.743  16.774   8.564
  844POPC   D2A13852  30.741  16.690   8.264
  844POPC   C3A13853  30.733  16.735   7.964
  844POPC   C4A13854  30.723  16.715   7.664
  844POPC   C1B13855  30.845  16.886   8.564
  844POPC   C2B13856  30.862  16.870   8.264
  844POPC   C3B13857  30.883  16.951   7.964
  844POPC   C4B13858  30.914  16.943   7.664
  845POPC   NC313859  39.997  17.554   9.464
  845POPC   PO413860  39.987  17.493   9.164
  845POPC   GL113861  40.000  17.460   8.864
  845POPC   GL213862  39.944  17.612   8.864
  845POPC   C1A13863  40.038  17.511   8.564
  845POPC   D2A13864  39.985  17.500   8.264
  845POPC   C3A13865  40.035  17.477   7.964
  845POPC   C4A13866  40.040  17.470   7.664
  845POPC   C1B13867  39.929  17.736   8.564
  845POPC   C2B13868  39.967  17.771   8.264
  845POPC   C3B13869  39.948  17.745   7.964
  845POPC   C4B13870  39.927  17.703   7.664
  846POPC   NC313871  14.394  12.064   9.464
  846POPC   PO413872  14.374  12.062   9.164
  846POPC   GL113873  14.354  12.052   8.864
  846POPC   GL213874  14.272  12.128   8.864
  846POPC   C1A13875  14.407  12.085   8.564
  846POPC   D2A13876  14.423  12.087   8.264
  846POPC   C3A13877  14.445  12.029   7.964
  846POPC   C4A13878  14.355  12.109   7.664
  846POPC   C1B13879  14.190  12.173   8.564
  846POPC   C2B13880  14.208  12.224   8.264
  846POPC   C3B13881  14.215  12.219   7.964
  846POPC   C4B13882  14.133  12.142   7.664
  847POPC   NC313883  43.858   6.657   9.464
  847POPC   PO413884  43.848   6.670   9.164
  847POPC   GL113885  43.845   6.686   8.864
  847POPC   GL213886  44.011   6.741   8.864
  847POPC   C1A13887  43.934   6.623   8.564
  847POPC   D2A13888  43.879   6.674   8.264
  847POPC   C3A13889  43.871   6.651   7.964
  847POPC   C4A13890  43.865   6.681   7.664
  847POPC   C1B13891  44.057   6.725   8.564
  847POPC   C2B13892  44.064   6.754   8.264
  847POPC   C3B13893  44.114   6.772   7.964
  847POPC   C4B13894  44.117   6.818   7.664
  848POPC   NC313895   4.268  22.117   9.464
  848POPC   PO413896   4.345  22.183   9.164
  848POPC   GL113897   4.330  22.147   8.864
  848POPC   GL213898   4.393  22.087   8.864
  848POPC   C1A13899   4.342  22.120   8.564
  848POPC   D2A13900   4.305  22.158   8.264
  848POPC   C3A13901   4.319  22.113   7.964
  848POPC   C4A13902   4.291  22.199   7.664
  848POPC   C1B13903   4.464  21.996   8.564
  848POPC   C2B13904   4.494  21.980   8.264
  848POPC   C3B13905   4.466  21.996   7.964
  848POPC   C4B13906   4.558  22.011   7.664
  849POPC   NC313907  42.317  15.188   9.464
  849POPC   PO413908  42.289  15.226   9.164
  849POPC   GL113909  42.354  15.141   8.864
  849POPC   GL213910  42.349  15.084   8.864
  849POPC   C1A13911  42.341  15.164   8.564
  849POPC   D2A13912  42.370  15.182   8.264
  849POPC   C3A13913  42.319  15.174   7.964
  849POPC   C4A13914  42.295  15.206   7.664
  849POPC   C1B13915  42.469  14.920   8.564
  849POPC   C2B13916  42.403  15.003   8.264
  849POPC   C3B13917  42.475  14.915   7.964
  849POPC   C4B13918  42.446  14.965   7.664
  850POPC   NC313919  30.743  24.504   9.464
  850POPC   PO413920  30.730  24.523   9.164
  850POPC   GL113921  30.656  24.446   8.864
  850POPC   GL213922  30.675  24.385   8.864
  850POPC   C1A13923  30.659  24.530   8.564
  850POPC   D2A13924  30.697  24.460   8.264
  850POPC   C3A13925  30.669  24.499   7.964
  850POPC   C4A13926  30.713  24.459   7.664
  850POPC   C1B13927  30.741  24.276   8.564
  850POPC   C2B13928  30.767  24.248   8.264
  850POPC   C3B13929  30.714  24.237   7.964
  850POPC   C4B13930  30.702  24.228   7.664
  851POPC   NC313931  21.391   0.463   9.464
  851POPC   PO413932  21.412   0.430   9.164
  851POPC   GL113933  21.412   0.399   8.864
  851POPC   GL213934  21.494   0.386   8.864
  851POPC   C1A13935  21.430   0.475   8.564
  851POPC   D2A13936  21.385   0.435   8.264
  851POPC   C3A13937  21.422   0.424   7.964
  851POPC   C4A13938  21.417   0.430   7.664
  851POPC   C1B13939  21.605   0.407   8.564
  851POPC   C2B13940  21.675   0.409   8.264
  851POPC   C3B13941  21.592   0.437   7.964
  851POPC   C4B13942  21.610   0.408   7.664
  852POPC   NC313943  28.400  36.108   9.464
  852POPC   PO413944  28.324  36.170   9.164
  852POPC   GL113945  28.397  36.155   8.864
  852POPC   GL213946  28.331  36.280   8.864
  852POPC   C1A13947  28.351  36.148   8.564
  852POPC   D2A13948  28.347  36.130   8.264
  852POPC   C3A13949  28.389  36.080   7.964
  852POPC   C4A13950  28.327  36.118   7.664
  852POPC   C1B13951  28.231  36.291   8.564
  852POPC   C2B13952  28.243  36.323   8.264
  852POPC   C3B13953  28.193  36.362   7.964
  852POPC   C4B13954  28.224  36.329   7.664
  853POPC   NC313955   6.655  38.432   9.464
  853POPC   PO413956   6.670  38.489   9.164
  853POPC   GL113957   6.618  38.438   8.864
  853POPC   GL213958   6.558  38.514   8.864
  853POPC   C1A13959   6.646  38.467   8.564
  853POPC   D2A13960   6.616  38.475   8.264
  853POPC   C3A13961   6.656  38.427   7.964
  853POPC   C4A13962   6.688  38.406   7.664
  853POPC   C1B13963   6.438  38.473   8.564
  853POPC   C2B13964   6.379  38.510   8.264
  853POPC   C3B13965   6.361  38.526   7.964
  853POPC   C4B13966   6.364  38.520   7.664
  854POPC   NC313967   8.191  29.871   9.464
  854POPC   PO413968   8.157  29.948   9.164
  854POPC   GL113969   8.180  29.932   8.864
  854POPC   GL213970   8.204  30.035   8.864
  854POPC   C1A13971   8.170  29.907   8.564
  854POPC   D2A13972   8.184  29.909   8.264
  854POPC   C3A13973   8.225  29.916   7.964
  854POPC   C4A13974   8.229  29.953   7.664
  854POPC   C1B13975   8.248  30.125   8.564
  854POPC   C2B13976   8.276  30.137   8.264
  854POPC   C3B13977   8.238  30.190   7.964
  854POPC   C4B13978   8.251  30.147   7.664
  855POPC   NC313979  40.815  10.515   9.464
  855POPC   PO413980  40.761  10.544   9.164
  855POPC   GL113981  40.755  10.572   8.864
  855POPC   GL213982  40.658  10.454   8.864
  855POPC   C1A13983  40.742  10.551   8.564
  855POPC   D2A13984  40.801  10.486   8.264
  855POPC   C3A13985  40.823  10.542   7.964
  855POPC   C4A13986  40.744  10.540   7.664
  855POPC   C1B13987  40.580  10.408   8.564
  855POPC   C2B13988  40.502  10.409   8.264
  855POPC   C3B13989  40.551  10.478   7.964
  855POPC   C4B13990  40.542  10.477   7.664
  856POPC   NC313991  19.867  15.170   9.464
  856POPC   PO413992  19.809  15.130   9.164
  856POPC   GL113993  19.855  15.139   8.864
  856POPC   GL213994  19.712  15.141   8.864
  856POPC   C1A13995  19.881  15.195   8.564
  856POPC   D2A13996  19.840  15.197   8.264
  856POPC   C3A13997  19.865  15.215   7.964
  856POPC   C4A13998  19.877  15.203   7.664
  856POPC   C1B13999  19.598  15.106   8.564
  856POPC   C2B14000  19.619  15.185   8.264
  856POPC   C3B14001  19.617  15.094   7.964
  856POPC   C4B14002  19.544  15.127   7.664
  857POPC   NC314003  19.105  40.017   9.464
  857POPC   PO414004  19.016  40.008   9.164
  857POPC   GL114005  19.054  40.020   8.864
  857POPC   GL214006  19.083  39.868   8.864
  857POPC   C1A14007  19.022  40.005   8.564
  857POPC   D2A14008  19.066  40.014   8.264
  857POPC   C3A14009  19.060  39.983   7.964
  857POPC   C4A14010  19.013  40.053   7.664
  857POPC   C1B14011  19.118  39.730   8.564
  857POPC   C2B14012  19.040  39.803   8.264
  857POPC   C3B14013  19.090  39.741   7.964
  857POPC   C4B14014  19.048  39.712   7.664
  858POPC   NC314015  29.121  21.354   9.464
  858POPC   PO414016  29.171  21.419   9.164
  858POPC   GL114017  29.170  21.418   8.864
  858POPC   GL214018  29.082  21.258   8.864
  858POPC   C1A14019  29.169  21.419   8.564
  858POPC   D2A14020  29.107  21.405   8.264
  858POPC   C3A14021  29.193  21.434   7.964
  858POPC   C4A14022  29.124  21.366   7.664
  858POPC   C1B14023  29.047  21.149   8.564
  858POPC   C2B14024  29.077  21.167   8.264
  858POPC   C3B14025  29.089  21.119   7.964
  858POPC   C4B14026  29.027  21.188   7.664
  859POPC   NC314027  11.325  14.431   9.464
  859POPC   PO414028  11.326  14.404   9.164
  859POPC   GL114029  11.346  14.432   8.864
  859POPC   GL214030  11.322  14.560   8.864
  859POPC   C1A14031  11.268  14.440   8.564
  859POPC   D2A14032  11.308  14.446   8.264
  859POPC   C3A14033  11.315  14.445   7.964
  859POPC   C4A14034  11.308  14.384   7.664
  859POPC   C1B14035  11.260  14.684   8.564
  859POPC   C2B14036  11.313  14.617   8.264
  859POPC   C3B14037  11.299  14.698   7.964
  859POPC   C4B14038  11.312  14.620   7.664
  860POPC   NC314039  10.506  36.086   9.464
  860POPC   PO414040  10.564  36.119   9.164
  860POPC   GL114041  10.507  36.140   8.864
  860POPC   GL214042  10.376  36.066   8.864
  860POPC   C1A14043  10.546  36.096   8.564
  860POPC   D2A14044  10.514  36.166   8.264
  860POPC   C3A14045  10.539  36.104   7.964
  860POPC   C4A14046  10.512  36.105   7.664
  860POPC   C1B14047  10.258  36.104   8.564
  860POPC   C2B14048  10.272  36.043   8.264
  860POPC   C3B14049  10.261  36.040   7.964
  860POPC   C4B14050  10.321  36.105   7.664
  861POPC   NC314051  20.589  33.819   9.464
  861POPC   PO414052  20.632  33.777   9.164
  861POPC   GL114053  20.629  33.753   8.864
  861POPC   GL214054  20.510  33.749   8.864
  861POPC   C1A14055  20.636  33.772   8.564
  861POPC   D2A14056  20.629  33.756   8.264
  861POPC   C3A14057  20.586  33.786   7.964
  861POPC   C4A14058  20.638  33.767   7.664
  861POPC   C1B14059  20.403  33.646   8.564
  861POPC   C2B14060  20.355  33.726   8.264
  861POPC   C3B14061  20.404  33.725   7.964
  861POPC   C4B14062  20.417  33.717   7.664
  862POPC   NC314063   6.670   2.015   9.464
  862POPC   PO414064   6.666   1.957   9.164
  862POPC   GL114065   6.669   2.026   8.864
  862POPC   GL214066   6.549   1.988   8.864
  862POPC   C1A14067   6.611   2.025   8.564
  862POPC   D2A14068   6.631   1.956   8.264
  862POPC   C3A14069   6.632   2.015   7.964
  862POPC   C4A14070   6.688   2.007   7.664
  862POPC   C1B14071   6.419   2.044   8.564
  862POPC   C2B14072   6.419   2.034   8.264
  862POPC   C3B14073   6.386   2.114   7.964
  862POPC   C4B14074   6.410   2.092   7.664
  863POPC   NC314075  15.946  22.938   9.464
  863POPC   PO414076  15.930  22.975   9.164
  863POPC   GL114077  15.965  22.945   8.864
  863POPC   GL214078  16.082  22.989   8.864
  863POPC   C1A14079  15.914  22.904   8.564
  863POPC   D2A14080  15.961  22.893   8.264
  863POPC   C3A14081  15.988  22.888   7.964
  863POPC   C4A14082  15.977  22.941   7.664
  863POPC   C1B14083  16.211  23.063   8.564
  863POPC   C2B14084  16.193  23.063   8.264
  863POPC   C3B14085  16.192  23.045   7.964
  863POPC   C4B14086  16.176  23.004   7.664
  864POPC   NC314087  21.432  22.973   9.464
  864POPC   PO414088  21.349  22.968   9.164
  864POPC   GL114089  21.433  22.983   8.864
  864POPC   GL214090  21.298  23.025   8.864
  864POPC   C1A14091  21.347  22.975   8.564
  864POPC   D2A14092  21.419  22.963   8.264
  864POPC   C3A14093  21.422  22.986   7.964
  864POPC   C4A14094  21.419  22.947   7.664
  864POPC   C1B14095  21.114  22.979   8.564
  864POPC   C2B14096  21.142  22.976   8.264
  864POPC   C3B14097  21.184  23.038   7.964
  864POPC   C4B14098  21.116  23.008   7.664
  865POPC   NC314099  32.985  42.353   9.464
  865POPC   PO414100  33.063  42.303   9.164
  865POPC   GL114101  33.016  42.360   8.864
  865POPC   GL214102  32.890  42.314   8.864
  865POPC   C1A14103  33.001  42.295   8.564
  865POPC   D2A14104  33.065  42.375   8.264
  865POPC   C3A14105  33.061  42.323   7.964
  865POPC   C4A14106  33.072  42.326   7.664
  865POPC   C1B14107  32.794  42.211   8.564
  865POPC   C2B14108  32.755  42.207   8.264
  865POPC   C3B14109  32.839  42.188   7.964
  865POPC   C4B14110  32.774  42.245   7.664
  866POPC   NC314111  28.403   1.262   9.464
  866POPC   PO414112  28.326   1.255   9.164
  866POPC   GL114113  28.342   1.234   8.864
  866POPC   GL214114  28.413   1.319   8.864
  866POPC   C1A14115  28.320   1.249   8.564
  866POPC   D2A14116  28.381   1.232   8.264
  866POPC   C3A14117  28.332   1.242   7.964
  866POPC   C4A14118  28.387   1.232   7.664
  866POPC   C1B14119  28.521   1.411   8.564
  866POPC   C2B14120  28.480   1.464   8.264
  866POPC   C3B14121  28.552   1.466   7.964
  866POPC   C4B14122  28.486   1.439   7.664
  867POPC   NC314123  11.337  36.133   9.464
  867POPC   PO414124  11.310  36.144   9.164
  867POPC   GL114125  11.276  36.163   8.864
  867POPC   GL214126  11.385  36.287   8.864
  867POPC   C1A14127  11.273  36.126   8.564
  867POPC   D2A14128  11.254  36.095   8.264
  867POPC   C3A14129  11.254  36.094   7.964
  867POPC   C4A14130  11.258  36.151   7.664
  867POPC   C1B14131  11.377  36.365   8.564
  867POPC   C2B14132  11.408  36.390   8.264
  867POPC   C3B14133  11.370  36.341   7.964
  867POPC   C4B14134  11.447  36.347   7.664
  868POPC   NC314135   1.180  10.525   9.464
  868POPC   PO414136   1.202  10.503   9.164
  868POPC   GL114137   1.172  10.481   8.864
  868POPC   GL214138   1.229  10.372   8.864
  868POPC   C1A14139   1.259  10.523   8.564
  868POPC   D2A14140   1.183  10.518   8.264
  868POPC   C3A14141   1.238  10.484   7.964
  868POPC   C4A14142   1.203  10.512   7.664
  868POPC   C1B14143   1.311  10.272   8.564
  868POPC   C2B14144   1.288  10.287   8.264
  868POPC   C3B14145   1.333  10.240   7.964
  868POPC   C4B14146   1.255  10.244   7.664
  869POPC   NC314147  42.310  29.123   9.464
  869POPC   PO414148  42.314  29.149   9.164
  869POPC   GL114149  42.377  29.134   8.864
  869POPC   GL214150  42.258  29.131   8.864
  869POPC   C1A14151  42.368  29.153   8.564
  869POPC   D2A14152  42.333  29.141   8.264
  869POPC   C3A14153  42.328  29.188   7.964
  869POPC   C4A14154  42.374  29.149   7.664
  869POPC   C1B14155  42.069  29.155   8.564
  869POPC   C2B14156  42.050  29.153   8.264
  869POPC   C3B14157  42.101  29.164   7.964
  869POPC   C4B14158  42.086  29.104   7.664
  870POPC   NC314159  18.301  12.072   9.464
  870POPC   PO414160  18.281  12.059   9.164
  870POPC   GL114161  18.314  12.044   8.864
  870POPC   GL214162  18.424  12.095   8.864
  870POPC   C1A14163  18.292  12.084   8.564
  870POPC   D2A14164  18.278  12.114   8.264
  870POPC   C3A14165  18.296  12.095   7.964
  870POPC   C4A14166  18.263  12.104   7.664
  870POPC   C1B14167  18.507  12.087   8.564
  870POPC   C2B14168  18.492  12.054   8.264
  870POPC   C3B14169  18.531  12.091   7.964
  870POPC   C4B14170  18.492  12.076   7.664
  871POPC   NC314171  10.546  43.930   9.464
  871POPC   PO414172  10.485  43.850   9.164
  871POPC   GL114173  10.542  43.880   8.864
  871POPC   GL214174  10.641  43.911   8.864
  871POPC   C1A14175  10.484  43.858   8.564
  871POPC   D2A14176  10.495  43.863   8.264
  871POPC   C3A14177  10.501  43.874   7.964
  871POPC   C4A14178  10.573  43.872   7.664
  871POPC   C1B14179  10.697  44.041   8.564
  871POPC   C2B14180  10.694  44.022   8.264
  871POPC   C3B14181  10.718  44.000   7.964
  871POPC   C4B14182  10.775  44.063   7.664
  872POPC   NC314183  14.434  24.515   9.464
  872POPC   PO414184  14.420  24.525   9.164
  872POPC   GL114185  14.381  24.470   8.864
  872POPC   GL214186  14.446  24.379   8.864
  872POPC   C1A14187  14.368  24.502   8.564
  872POPC   D2A14188  14.420  24.500   8.264
  872POPC   C3A14189  14.433  24.517   7.964
  872POPC   C4A14190  14.423  24.528   7.664
  872POPC   C1B14191  14.578  24.261   8.564
  872POPC   C2B14192  14.523  24.299   8.264
  872POPC   C3B14193  14.518  24.311   7.964
  872POPC   C4B14194  14.590  24.303   7.664
  873POPC   NC314195   9.736   1.995   9.464
  873POPC   PO414196   9.759   2.023   9.164
  873POPC   GL114197   9.759   1.942   8.864
  873POPC   GL214198   9.671   1.912   8.864
  873POPC   C1A14199   9.787   1.969   8.564
  873POPC   D2A14200   9.765   1.949   8.264
  873POPC   C3A14201   9.790   1.940   7.964
  873POPC   C4A14202   9.730   1.962   7.664
  873POPC   C1B14203   9.544   1.943   8.564
  873POPC   C2B14204   9.495   1.891   8.264
  873POPC   C3B14205   9.504   1.945   7.964
  873POPC   C4B14206   9.473   1.967   7.664
  874POPC   NC314207  34.559  12.094   9.464
  874POPC   PO414208  34.534  12.076   9.164
  874POPC   GL114209  34.528  12.062   8.864
  874POPC   GL214210  34.588  11.918   8.864
  874POPC   C1A14211  34.614  12.056   8.564
  874POPC   D2A14212  34.612  12.125   8.264
  874POPC   C3A14213  34.612  12.095   7.964
  874POPC   C4A14214  34.598  12.061   7.664
  874POPC   C1B14215  34.664  11.792   8.564
  874POPC   C2B14216  34.588  11.828   8.264
  874POPC   C3B14217  34.634  11.784   7.964
  874POPC   C4B14218  34.581  11.856   7.664
  875POPC   NC314219  26.015  36.114   9.464
  875POPC   PO414220  26.047  36.137   9.164
  875POPC   GL114221  25.998  36.144   8.864
  875POPC   GL214222  26.107  36.208   8.864
  875POPC   C1A14223  25.999  36.104   8.564
  875POPC   D2A14224  26.062  36.144   8.264
  875POPC   C3A14225  26.039  36.091   7.964
  875POPC   C4A14226  26.080  36.103   7.664
  875POPC   C1B14227  26.123  36.309   8.564
  875POPC   C2B14228  26.188  36.365   8.264
  875POPC   C3B14229  26.145  36.397   7.964
  875POPC   C4B14230  26.109  36.350   7.664
  876POPC   NC314231  28.381  32.987   9.464
  876POPC   PO414232  28.323  33.032   9.164
  876POPC   GL114233  28.365  32.994   8.864
  876POPC   GL214234  28.393  32.916   8.864
  876POPC   C1A14235  28.417  33.059   8.564
  876POPC   D2A14236  28.321  32.993   8.264
  876POPC   C3A14237  28.347  33.018   7.964
  876POPC   C4A14238  28.331  33.006   7.664
  876POPC   C1B14239  28.550  32.811   8.564
  876POPC   C2B14240  28.500  32.866   8.264
  876POPC   C3B14241  28.475  32.821   7.964
  876POPC   C4B14242  28.502  32.767   7.664
  877POPC   NC314243  14.389  10.534   9.464
  877POPC   PO414244  14.377  10.521   9.164
  877POPC   GL114245  14.446  10.489   8.864
  877POPC   GL214246  14.471  10.367   8.864
  877POPC   C1A14247  14.443  10.521   8.564
  877POPC   D2A14248  14.434  10.504   8.264
  877POPC   C3A14249  14.408  10.506   7.964
  877POPC   C4A14250  14.388  10.554   7.664
  877POPC   C1B14251  14.406  10.309   8.564
  877POPC   C2B14252  14.413  10.274   8.264
  877POPC   C3B14253  14.418  10.241   7.964
  877POPC   C4B14254  14.474  10.301   7.664
  878POPC   NC314255   5.135  20.578   9.464
  878POPC   PO414256   5.141  20.597   9.164
  878POPC   GL114257   5.116  20.623   8.864
  878POPC   GL214258   5.020  20.681   8.864
  878POPC   C1A14259   5.096  20.614   8.564
  878POPC   D2A14260   5.141  20.608   8.264
  878POPC   C3A14261   5.097  20.641   7.964
  878POPC   C4A14262   5.138  20.638   7.664
  878POPC   C1B14263   4.935  20.877   8.564
  878POPC   C2B14264   5.012  20.810   8.264
  878POPC   C3B14265   5.017  20.820   7.964
  878POPC   C4B14266   5.027  20.858   7.664
  879POPC   NC314267  29.147  38.407   9.464
  879POPC   PO414268  29.101  38.465   9.164
  879POPC   GL114269  29.134  38.425   8.864
  879POPC   GL214270  29.270  38.570   8.864
  879POPC   C1A14271  29.117  38.432   8.564
  879POPC   D2A14272  29.181  38.497   8.264
  879POPC   C3A14273  29.143  38.504   7.964
  879POPC   C4A14274  29.097  38.427   7.664
  879POPC   C1B14275  29.311  38.584   8.564
  879POPC   C2B14276  29.300  38.584   8.264
  879POPC   C3B14277  29.325  38.650   7.964
  879POPC   C4B14278  29.288  38.627   7.664
  880POPC   NC314279  43.135   1.262   9.464
  880POPC   PO414280  43.116   1.193   9.164
  880POPC   GL114281  43.154   1.200   8.864
  880POPC   GL214282  43.039   1.275   8.864
  880POPC   C1A14283  43.105   1.171   8.564
  880POPC   D2A14284  43.088   1.213   8.264
  880POPC   C3A14285  43.062   1.218   7.964
  880POPC   C4A14286  43.069   1.169   7.664
  880POPC   C1B14287  42.914   1.260   8.564
  880POPC   C2B14288  42.878   1.318   8.264
  880POPC   C3B14289  42.905   1.316   7.964
  880POPC   C4B14290  42.921   1.336   7.664
  881POPC   NC314291  16.742   5.097   9.464
  881POPC   PO414292  16.716   5.140   9.164
  881POPC   GL114293  16.748   5.121   8.864
  881POPC   GL214294  16.733   5.254   8.864
  881POPC   C1A14295  16.698   5.046   8.564
  881POPC   D2A14296  16.722   5.131   8.264
  881POPC   C3A14297  16.762   5.087   7.964
  881POPC   C4A14298  16.739   5.111   7.664
  881POPC   C1B14299  16.864   5.369   8.564
  881POPC   C2B14300  16.880   5.358   8.264
  881POPC   C3B14301  16.875   5.364   7.964
  881POPC   C4B14302  16.790   5.372   7.664
  882POPC   NC314303  26.788  16.733   9.464
  882POPC   PO414304  26.852  16.683   9.164
  882POPC   GL114305  26.851  16.701   8.864
  882POPC   GL214306  26.753  16.841   8.864
  882POPC   C1A14307  26.833  16.727   8.564
  882POPC   D2A14308  26.845  16.706   8.264
  882POPC   C3A14309  26.826  16.752   7.964
  882POPC   C4A14310  26.778  16.682   7.664
  882POPC   C1B14311  26.579  16.912   8.564
  882POPC   C2B14312  26.609  16.920   8.264
  882POPC   C3B14313  26.596  16.939   7.964
  882POPC   C4B14314  26.606  16.922   7.664
  883POPC   NC314315  18.265  21.389   9.464
  883POPC   PO414316  18.261  21.434   9.164
  883POPC   GL114317  18.274  21.382   8.864
  883POPC   GL214318  18.414  21.400   8.864
  883POPC   C1A14319  18.246  21.373   8.564
  883POPC   D2A14320  18.237  21.412   8.264
  883POPC   C3A14321  18.303  21.422   7.964
  883POPC   C4A14322  18.322  21.404   7.664
  883POPC   C1B14323  18.571  21.433   8.564
  883POPC   C2B14324  18.551  21.390   8.264
  883POPC   C3B14325  18.551  21.368   7.964
  883POPC   C4B14326  18.530  21.405   7.664
  884POPC   NC314327   8.172  33.752   9.464
  884POPC   PO414328   8.224  33.798   9.164
  884POPC   GL114329   8.193  33.780   8.864
  884POPC   GL214330   8.090  33.874   8.864
  884POPC   C1A14331   8.246  33.753   8.564
  884POPC   D2A14332   8.246  33.795   8.264
  884POPC   C3A14333   8.163  33.843   7.964
  884POPC   C4A14334   8.235  33.849   7.664
  884POPC   C1B14335   7.966  33.970   8.564
  884POPC   C2B14336   7.979  33.884   8.264
  884POPC   C3B14337   7.958  33.969   7.964
  884POPC   C4B14338   7.965  33.967   7.664
  885POPC   NC314339  14.424  22.123   9.464
  885POPC   PO414340  14.406  22.156   9.164
  885POPC   GL114341  14.445  22.133   8.864
  885POPC   GL214342  14.376  22.025   8.864
  885POPC   C1A14343  14.451  22.173   8.564
  885POPC   D2A14344  14.358  22.134   8.264
  885POPC   C3A14345  14.436  22.146   7.964
  885POPC   C4A14346  14.365  22.115   7.664
  885POPC   C1B14347  14.330  21.962   8.564
  885POPC   C2B14348  14.265  21.921   8.264
  885POPC   C3B14349  14.249  21.908   7.964
  885POPC   C4B14350  14.328  21.934   7.664
  886POPC   NC314351  29.947   2.737   9.464
  886POPC   PO414352  29.881   2.720   9.164
  886POPC   GL114353  29.930   2.812   8.864
  886POPC   GL214354  29.944   2.645   8.864
  886POPC   C1A14355  29.891   2.779   8.564
  886POPC   D2A14356  29.961   2.772   8.264
  886POPC   C3A14357  29.963   2.768   7.964
  886POPC   C4A14358  29.901   2.783   7.664
  886POPC   C1B14359  30.057   2.510   8.564
  886POPC   C2B14360  30.054   2.558   8.264
  886POPC   C3B14361  30.010   2.573   7.964
  886POPC   C4B14362  30.060   2.538   7.664
  887POPC   NC314363  44.648  22.942   9.464
  887POPC   PO414364  44.619  22.930   9.164
  887POPC   GL114365  44.710  22.981   8.864
  887POPC   GL214366  44.582  22.975   8.864
  887POPC   C1A14367  44.699  22.895   8.564
  887POPC   D2A14368  44.704  22.933   8.264
  887POPC   C3A14369  44.700  22.942   7.964
  887POPC   C4A14370  44.686  22.912   7.664
  887POPC   C1B14371  44.490  23.133   8.564
  887POPC   C2B14372  44.458  23.054   8.264
  887POPC   C3B14373  44.437  23.122   7.964
  887POPC   C4B14374  44.464  23.129   7.664
  888POPC   NC314375  32.236  36.946   9.464
  888POPC   PO414376  32.267  36.938   9.164
  888POPC   GL114377  32.292  36.952   8.864
  888POPC   GL214378  32.237  36.986   8.864
  888POPC   C1A14379  32.278  36.905   8.564
  888POPC   D2A14380  32.223  36.868   8.264
  888POPC   C3A14381  32.225  36.902   7.964
  888POPC   C4A14382  32.211  36.890   7.664
  888POPC   C1B14383  32.267  37.112   8.564
  888POPC   C2B14384  32.256  37.153   8.264
  888POPC   C3B14385  32.235  37.105   7.964
  888POPC   C4B14386  32.242  37.189   7.664
  889POPC   NC314387   0.466   0.449   9.464
  889POPC   PO414388   0.415   0.451   9.164
  889POPC   GL114389   0.448   0.484   8.864
  889POPC   GL214390   0.436   0.514   8.864
  889POPC   C1A14391   0.450   0.468   8.564
  889POPC   D2A14392   0.421   0.454   8.264
  889POPC   C3A14393   0.419   0.440   7.964
  889POPC   C4A14394   0.470   0.428   7.664
  889POPC   C1B14395   0.468   0.690   8.564
  889POPC   C2B14396   0.392   0.669   8.264
  889POPC   C3B14397   0.487   0.647   7.964
  889POPC   C4B14398   0.425   0.690   7.664
  890POPC   NC314399  37.708  20.641   9.464
  890POPC   PO414400  37.661  20.567   9.164
  890POPC   GL114401  37.633  20.629   8.864
  890POPC   GL214402  37.549  20.668   8.864
  890POPC   C1A14403  37.684  20.580   8.564
  890POPC   D2A14404  37.650  20.643   8.264
  890POPC   C3A14405  37.660  20.639   7.964
  890POPC   C4A14406  37.653  20.584   7.664
  890POPC   C1B14407  37.461  20.672   8.564
  890POPC   C2B14408  37.467  20.678   8.264
  890POPC   C3B14409  37.475  20.675   7.964
  890POPC   C4B14410  37.393  20.640   7.664
  891POPC   NC314411   7.427  30.682   9.464
  891POPC   PO414412   7.390  30.732   9.164
  891POPC   GL114413   7.383  30.740   8.864
  891POPC   GL214414   7.279  30.782   8.864
  891POPC   C1A14415   7.371  30.733   8.564
  891POPC   D2A14416   7.443  30.671   8.264
  891POPC   C3A14417   7.420  30.701   7.964
  891POPC   C4A14418   7.431  30.720   7.664
  891POPC   C1B14419   7.166  30.865   8.564
  891POPC   C2B14420   7.218  30.843   8.264
  891POPC   C3B14421   7.253  30.800   7.964
  891POPC   C4B14422   7.184  30.824   7.664
  892POPC   NC314423   7.419  31.449   9.464
  892POPC   PO414424   7.376  31.424   9.164
  892POPC   GL114425   7.408  31.478   8.864
  892POPC   GL214426   7.496  31.397   8.864
  892POPC   C1A14427   7.464  31.444   8.564
  892POPC   D2A14428   7.457  31.461   8.264
  892POPC   C3A14429   7.371  31.464   7.964
  892POPC   C4A14430   7.418  31.495   7.664
  892POPC   C1B14431   7.667  31.382   8.564
  892POPC   C2B14432   7.589  31.309   8.264
  892POPC   C3B14433   7.665  31.300   7.964
  892POPC   C4B14434   7.645  31.353   7.664
  893POPC   NC314435  13.624  36.126   9.464
  893POPC   PO414436  13.607  36.139   9.164
  893POPC   GL114437  13.582  36.099   8.864
  893POPC   GL214438  13.643  36.041   8.864
  893POPC   C1A14439  13.641  36.164   8.564
  893POPC   D2A14440  13.668  36.157   8.264
  893POPC   C3A14441  13.634  36.137   7.964
  893POPC   C4A14442  13.666  36.167   7.664
  893POPC   C1B14443  13.779  35.886   8.564
  893POPC   C2B14444  13.717  35.867   8.264
  893POPC   C3B14445  13.768  35.926   7.964
  893POPC   C4B14446  13.777  35.916   7.664
  894POPC   NC314447  43.129  42.335   9.464
  894POPC   PO414448  43.140  42.306   9.164
  894POPC   GL114449  43.089  42.368   8.864
  894POPC   GL214450  43.049  42.250   8.864
  894POPC   C1A14451  43.084  42.361   8.564
  894POPC   D2A14452  43.096  42.319   8.264
  894POPC   C3A14453  43.085  42.318   7.964
  894POPC   C4A14454  43.094  42.381   7.664
  894POPC   C1B14455  42.912  42.181   8.564
  894POPC   C2B14456  42.857  42.174   8.264
  894POPC   C3B14457  42.906  42.203   7.964
  894POPC   C4B14458  42.930  42.202   7.664
  895POPC   NC314459   8.217  17.495   9.464
  895POPC   PO414460   8.210  17.461   9.164
  895POPC   GL114461   8.181  17.540   8.864
  895POPC   GL214462   8.069  17.406   8.864
  895POPC   C1A14463   8.245  17.523   8.564
  895POPC   D2A14464   8.227  17.542   8.264
  895POPC   C3A14465   8.158  17.525   7.964
  895POPC   C4A14466   8.151  17.514   7.664
  895POPC   C1B14467   8.058  17.269   8.564
  895POPC   C2B14468   8.088  17.266   8.264
  895POPC   C3B14469   8.015  17.333   7.964
  895POPC   C4B14470   8.042  17.328   7.664
  896POPC   NC314471   9.761  31.429   9.464
  896POPC   PO414472   9.699  31.469   9.164
  896POPC   GL114473   9.753  31.459   8.864
  896POPC   GL214474   9.849  31.449   8.864
  896POPC   C1A14475   9.749  31.513   8.564
  896POPC   D2A14476   9.701  31.492   8.264
  896POPC   C3A14477   9.702  31.509   7.964
  896POPC   C4A14478   9.731  31.489   7.664
  896POPC   C1B14479   9.987  31.454   8.564
  896POPC   C2B14480   9.986  31.444   8.264
  896POPC   C3B14481   9.992  31.433   7.964
  896POPC   C4B14482  10.025  31.440   7.664
  897POPC   NC314483   0.433   7.423   9.464
  897POPC   PO414484   0.437   7.391   9.164
  897POPC   GL114485   0.439   7.405   8.864
  897POPC   GL214486   0.380   7.566   8.864
  897POPC   C1A14487   0.482   7.439   8.564
  897POPC   D2A14488   0.467   7.392   8.264
  897POPC   C3A14489   0.388   7.443   7.964
  897POPC   C4A14490   0.471   7.396   7.664
  897POPC   C1B14491   0.376   7.708   8.564
  897POPC   C2B14492   0.386   7.621   8.264
  897POPC   C3B14493   0.432   7.663   7.964
  897POPC   C4B14494   0.406   7.631   7.664
  898POPC   NC314495  26.059  12.803   9.464
  898POPC   PO414496  26.078  12.843   9.164
  898POPC   GL114497  26.056  12.830   8.864
  898POPC   GL214498  26.148  12.782   8.864
  898POPC   C1A14499  26.039  12.839   8.564
  898POPC   D2A14500  25.999  12.852   8.264
  898POPC   C3A14501  26.059  12.851   7.964
  898POPC   C4A14502  26.009  12.808   7.664
  898POPC   C1B14503  26.181  12.683   8.564
  898POPC   C2B14504  26.205  12.602   8.264
  898POPC   C3B14505  26.192  12.624   7.964
  898POPC   C4B14506  26.198  12.652   7.664
  899POPC   NC314507  19.063  26.031   9.464
  899POPC   PO414508  19.105  26.076   9.164
  899POPC   GL114509  19.015  26.071   8.864
  899POPC   GL214510  19.177  26.039   8.864
  899POPC   C1A14511  19.029  26.054   8.564
  899POPC   D2A14512  19.022  26.044   8.264
  899POPC   C3A14513  19.029  26.037   7.964
  899POPC   C4A14514  19.087  26.042   7.664
  899POPC   C1B14515  19.304  26.041   8.564
  899POPC   C2B14516  19.259  25.960   8.264
  899POPC   C3B14517  19.333  25.981   7.964
  899POPC   C4B14518  19.335  25.977   7.664
  900POPC   NC314519  27.612  42.320   9.464
  900POPC   PO414520  27.596  42.319   9.164
  900POPC   GL114521  27.637  42.285   8.864
  900POPC   GL214522  27.573  42.210   8.864
  900POPC   C1A14523  27.559  42.328   8.564
  900POPC   D2A14524  27.573  42.364   8.264
  900POPC   C3A14525  27.568  42.299   7.964
  900POPC   C4A14526  27.562  42.310   7.664
  900POPC   C1B14527  27.471  42.075   8.564
  900POPC   C2B14528  27.490  42.078   8.264
  900POPC   C3B14529  27.510  42.146   7.964
  900POPC   C4B14530  27.540  42.106   7.664
  901POPC   NC314531  35.351  35.376   9.464
  901POPC   PO414532  35.378  35.367   9.164
  901POPC   GL114533  35.387  35.325   8.864
  901POPC   GL214534  35.459  35.412   8.864
  901POPC   C1A14535  35.400  35.392   8.564
  901POPC   D2A14536  35.327  35.370   8.264
  901POPC   C3A14537  35.346  35.336   7.964
  901POPC   C4A14538  35.385  35.401   7.664
  901POPC   C1B14539  35.625  35.404   8.564
  901POPC   C2B14540  35.621  35.434   8.264
  901POPC   C3B14541  35.646  35.438   7.964
  901POPC   C4B14542  35.632  35.398   7.664
  902POPC   NC314543   8.208  43.866   9.464
  902POPC   PO414544   8.225  43.908   9.164
  902POPC   GL114545   8.195  43.929   8.864
  902POPC   GL214546   8.332  43.879   8.864
  902POPC   C1A14547   8.160  43.900   8.564
  902POPC   D2A14548   8.150  43.907   8.264
  902POPC   C3A14549   8.162  43.865   7.964
  902POPC   C4A14550   8.219  43.853   7.664
  902POPC   C1B14551   8.478  43.841   8.564
  902POPC   C2B14552   8.470  43.919   8.264
  902POPC   C3B14553   8.399  43.889   7.964
  902POPC   C4B14554   8.446  43.859   7.664
  903POPC   NC314555  29.942  11.308   9.464
  903POPC   PO414556  29.931  11.339   9.164
  903POPC   GL114557  29.875  11.314   8.864
  903POPC   GL214558  30.070  11.315   8.864
  903POPC   C1A14559  29.900  11.277   8.564
  903POPC   D2A14560  29.871  11.313   8.264
  903POPC   C3A14561  29.952  11.279   7.964
  903POPC   C4A14562  29.970  11.298   7.664
  903POPC   C1B14563  30.182  11.318   8.564
  903POPC   C2B14564  30.152  11.357   8.264
  903POPC   C3B14565  30.202  11.359   7.964
  903POPC   C4B14566  30.136  11.337   7.664
  904POPC   NC314567  25.244  21.402   9.464
  904POPC   PO414568  25.231  21.353   9.164
  904POPC   GL114569  25.246  21.426   8.864
  904POPC   GL214570  25.281  21.538   8.864
  904POPC   C1A14571  25.295  21.418   8.564
  904POPC   D2A14572  25.262  21.421   8.264
  904POPC   C3A14573  25.217  21.394   7.964
  904POPC   C4A14574  25.252  21.383   7.664
  904POPC   C1B14575  25.239  21.581   8.564
  904POPC   C2B14576  25.199  21.649   8.264
  904POPC   C3B14577  25.258  21.655   7.964
  904POPC   C4B14578  25.213  21.653   7.664
  905POPC   NC314579  16.695  19.084   9.464
  905POPC   PO414580  16.738  19.010   9.164
  905POPC   GL114581  16.735  19.035   8.864
  905POPC   GL214582  16.758  19.175   8.864
  905POPC   C1A14583  16.749  19.106   8.564
  905POPC   D2A14584  16.720  19.038   8.264
  905POPC   C3A14585  16.735  19.103   7.964
  905POPC   C4A14586  16.723  19.061   7.664
  905POPC   C1B14587  16.776  19.259   8.564
  905POPC   C2B14588  16.839  19.287   8.264
  905POPC   C3B14589  16.775  19.304   7.964
  905POPC   C4B14590  16.795  19.322   7.664
  906POPC   NC314591  29.894  36.882   9.464
  906POPC   PO414592  29.878  36.914   9.164
  906POPC   GL114593  29.906  36.899   8.864
  906POPC   GL214594  29.821  36.918   8.864
  906POPC   C1A14595  29.898  36.859   8.564
  906POPC   D2A14596  29.937  36.888   8.264
  906POPC   C3A14597  29.914  36.873   7.964
  906POPC   C4A14598  29.874  36.924   7.664
  906POPC   C1B14599  29.729  36.949   8.564
  906POPC   C2B14600  29.646  36.946   8.264
  906POPC   C3B14601  29.654  36.991   7.964
  906POPC   C4B14602  29.639  36.978   7.664
  907POPC   NC314603   0.394  20.570   9.464
  907POPC   PO414604   0.389  20.660   9.164
  907POPC   GL114605   0.478  20.588   8.864
  907POPC   GL214606   0.496  20.509   8.864
  907POPC   C1A14607   0.405  20.567   8.564
  907POPC   D2A14608   0.476  20.649   8.264
  907POPC   C3A14609   0.444  20.603   7.964
  907POPC   C4A14610   0.470  20.593   7.664
  907POPC   C1B14611   0.593  20.363   8.564
  907POPC   C2B14612   0.555  20.440   8.264
  907POPC   C3B14613   0.528  20.372   7.964
  907POPC   C4B14614   0.551  20.408   7.664
  908POPC   NC314615  33.759  11.310   9.464
  908POPC   PO414616  33.816  11.292   9.164
  908POPC   GL114617  33.850  11.306   8.864
  908POPC   GL214618  33.806  11.140   8.864
  908POPC   C1A14619  33.840  11.339   8.564
  908POPC   D2A14620  33.845  11.294   8.264
  908POPC   C3A14621  33.798  11.308   7.964
  908POPC   C4A14622  33.824  11.324   7.664
  908POPC   C1B14623  33.901  11.089   8.564
  908POPC   C2B14624  33.846  11.065   8.264
  908POPC   C3B14625  33.889  11.021   7.964
  908POPC   C4B14626  33.873  11.081   7.664
  909POPC   NC314627   0.431  44.635   9.464
  909POPC   PO414628   0.405  44.700   9.164
  909POPC   GL114629   0.397  44.706   8.864
  909POPC   GL214630   0.453  44.796   8.864
  909POPC   C1A14631   0.426  44.674   8.564
  909POPC   D2A14632   0.404  44.626   8.264
  909POPC   C3A14633   0.485  44.616   7.964
  909POPC   C4A14634   0.398  44.668   7.664
  909POPC   C1B14635   0.449  44.888   8.564
  909POPC   C2B14636   0.410  44.946   8.264
  909POPC   C3B14637   0.421  44.869   7.964
  909POPC   C4B14638   0.466  44.864   7.664
  910POPC   NC314639   8.152   2.785   9.464
  910POPC   PO414640   8.150   2.727   9.164
  910POPC   GL114641   8.150   2.804   8.864
  910POPC   GL214642   8.170   2.606   8.864
  910POPC   C1A14643   8.158   2.733   8.564
  910POPC   D2A14644   8.210   2.763   8.264
  910POPC   C3A14645   8.242   2.733   7.964
  910POPC   C4A14646   8.202   2.738   7.664
  910POPC   C1B14647   8.159   2.565   8.564
  910POPC   C2B14648   8.236   2.470   8.264
  910POPC   C3B14649   8.180   2.529   7.964
  910POPC   C4B14650   8.146   2.519   7.664
  911POPC   NC314651  35.342   5.140   9.464
  911POPC   PO414652  35.383   5.062   9.164
  911POPC   GL114653  35.400   5.093   8.864
  911POPC   GL214654  35.225   4.978   8.864
  911POPC   C1A14655  35.381   5.090   8.564
  911POPC   D2A14656  35.382   5.050   8.264
  911POPC   C3A14657  35.348   5.142   7.964
  911POPC   C4A14658  35.321   5.073   7.664
  911POPC   C1B14659  35.177   4.933   8.564
  911POPC   C2B14660  35.117   4.901   8.264
  911POPC   C3B14661  35.180   4.988   7.964
  911POPC   C4B14662  35.178   4.894   7.664
  912POPC   NC314663  18.318   4.276   9.464
  912POPC   PO414664  18.318   4.315   9.164
  912POPC   GL114665  18.324   4.354   8.864
  912POPC   GL214666  18.147   4.393   8.864
  912POPC   C1A14667  18.236   4.300   8.564
  912POPC   D2A14668  18.236   4.360   8.264
  912POPC   C3A14669  18.259   4.282   7.964
  912POPC   C4A14670  18.329   4.323   7.664
  912POPC   C1B14671  18.024   4.339   8.564
  912POPC   C2B14672  18.027   4.414   8.264
  912POPC   C3B14673  18.077   4.366   7.964
  912POPC   C4B14674  17.995   4.359   7.664
  913POPC   NC314675  22.979  14.400   9.464
  913POPC   PO414676  22.905  14.441   9.164
  913POPC   GL114677  22.966  14.373   8.864
  913POPC   GL214678  22.864  14.306   8.864
  913POPC   C1A14679  22.936  14.446   8.564
  913POPC   D2A14680  22.902  14.434   8.264
  913POPC   C3A14681  22.894  14.438   7.964
  913POPC   C4A14682  22.927  14.416   7.664
  913POPC   C1B14683  22.706  14.228   8.564
  913POPC   C2B14684  22.775  14.272   8.264
  913POPC   C3B14685  22.760  14.251   7.964
  913POPC   C4B14686  22.765  14.239   7.664
  914POPC   NC314687  10.489  31.444   9.464
  914POPC   PO414688  10.518  31.464   9.164
  914POPC   GL114689  10.565  31.483   8.864
  914POPC   GL214690  10.693  31.447   8.864
  914POPC   C1A14691  10.562  31.499   8.564
  914POPC   D2A14692  10.561  31.430   8.264
  914POPC   C3A14693  10.528  31.451   7.964
  914POPC   C4A14694  10.491  31.500   7.664
  914POPC   C1B14695  10.793  31.477   8.564
  914POPC   C2B14696  10.756  31.480   8.264
  914POPC   C3B14697  10.743  31.548   7.964
  914POPC   C4B14698  10.758  31.512   7.664
  915POPC   NC314699   5.873  21.392   9.464
  915POPC   PO414700   5.856  21.427   9.164
  915POPC   GL114701   5.825  21.341   8.864
  915POPC   GL214702   5.957  21.318   8.864
  915POPC   C1A14703   5.857  21.349   8.564
  915POPC   D2A14704   5.833  21.398   8.264
  915POPC   C3A14705   5.836  21.382   7.964
  915POPC   C4A14706   5.893  21.402   7.664
  915POPC   C1B14707   6.107  21.281   8.564
  915POPC   C2B14708   6.153  21.341   8.264
  915POPC   C3B14709   6.122  21.299   7.964
  915POPC   C4B14710   6.065  21.272   7.664
  916POPC   NC314711  30.744  12.809   9.464
  916POPC   PO414712  30.713  12.855   9.164
  916POPC   GL114713  30.659  12.866   8.864
  916POPC   GL214714  30.647  12.993   8.864
  916POPC   C1A14715  30.690  12.817   8.564
  916POPC   D2A14716  30.648  12.841   8.264
  916POPC   C3A14717  30.733  12.882   7.964
  916POPC   C4A14718  30.662  12.897   7.664
  916POPC   C1B14719  30.680  13.120   8.564
  916POPC   C2B14720  30.606  13.115   8.264
  916POPC   C3B14721  30.590  13.052   7.964
  916POPC   C4B14722  30.623  13.065   7.664
  917POPC   NC314723  42.291   7.451   9.464
  917POPC   PO414724  42.285   7.455   9.164
  917POPC   GL114725  42.371   7.373   8.864
  917POPC   GL214726  42.496   7.390   8.864
  917POPC   C1A14727  42.344   7.456   8.564
  917POPC   D2A14728  42.320   7.372   8.264
  917POPC   C3A14729  42.324   7.456   7.964
  917POPC   C4A14730  42.342   7.384   7.664
  917POPC   C1B14731  42.564   7.350   8.564
  917POPC   C2B14732  42.580   7.290   8.264
  917POPC   C3B14733  42.525   7.366   7.964
  917POPC   C4B14734  42.574   7.355   7.664
  918POPC   NC314735  12.097  12.862   9.464
  918POPC   PO414736  12.089  12.849   9.164
  918POPC   GL114737  12.098  12.901   8.864
  918POPC   GL214738  12.136  12.787   8.864
  918POPC   C1A14739  12.065  12.887   8.564
  918POPC   D2A14740  12.073  12.802   8.264
  918POPC   C3A14741  12.052  12.842   7.964
  918POPC   C4A14742  12.122  12.807   7.664
  918POPC   C1B14743  12.209  12.642   8.564
  918POPC   C2B14744  12.205  12.663   8.264
  918POPC   C3B14745  12.175  12.683   7.964
  918POPC   C4B14746  12.175  12.601   7.664
  919POPC   NC314747   0.449   8.206   9.464
  919POPC   PO414748   0.453   8.153   9.164
  919POPC   GL114749   0.429   8.155   8.864
  919POPC   GL214750   0.542   8.150   8.864
  919POPC   C1A14751   0.415   8.174   8.564
  919POPC   D2A14752   0.398   8.171   8.264
  919POPC   C3A14753   0.449   8.163   7.964
  919POPC   C4A14754   0.483   8.232   7.664
  919POPC   C1B14755   0.669   8.015   8.564
  919POPC   C2B14756   0.626   8.012   8.264
  919POPC   C3B14757   0.607   8.058   7.964
  919POPC   C4B14758   0.670   8.015   7.664
  920POPC   NC314759  18.257  33.833   9.464
  920POPC   PO414760  18.271  33.796   9.164
  920POPC   GL114761  18.273  33.766   8.864
  920POPC   GL214762  18.182  33.914   8.864
  920POPC   C1A14763  18.243  33.752   8.564
  920POPC   D2A14764  18.255  33.844   8.264
  920POPC   C3A14765  18.235  33.824   7.964
  920POPC   C4A14766  18.282  33.802   7.664
  920POPC   C1B14767  18.061  33.960   8.564
  920POPC   C2B14768  18.105  33.908   8.264
  920POPC   C3B14769  18.022  33.896   7.964
  920POPC   C4B14770  18.084  33.891   7.664
  921POPC   NC314771   6.677  22.939   9.464
  921POPC   PO414772   6.603  22.967   9.164
  921POPC   GL114773   6.651  22.916   8.864
  921POPC   GL214774   6.545  22.920   8.864
  921POPC   C1A14775   6.679  22.958   8.564
  921POPC   D2A14776   6.607  22.981   8.264
  921POPC   C3A14777   6.638  22.956   7.964
  921POPC   C4A14778   6.641  22.898   7.664
  921POPC   C1B14779   6.380  22.822   8.564
  921POPC   C2B14780   6.441  22.817   8.264
  921POPC   C3B14781   6.426  22.808   7.964
  921POPC   C4B14782   6.413  22.811   7.664
  922POPC   NC314783  32.993  24.473   9.464
  922POPC   PO414784  32.999  24.519   9.164
  922POPC   GL114785  33.038  24.464   8.864
  922POPC   GL214786  33.015  24.622   8.864
  922POPC   C1A14787  33.028  24.499   8.564
  922POPC   D2A14788  33.006  24.531   8.264
  922POPC   C3A14789  33.041  24.481   7.964
  922POPC   C4A14790  33.056  24.504   7.664
  922POPC   C1B14791  32.992  24.695   8.564
  922POPC   C2B14792  32.977  24.729   8.264
  922POPC   C3B14793  33.005  24.765   7.964
  922POPC   C4B14794  33.034  24.752   7.664
  923POPC   NC314795   8.983  12.888   9.464
  923POPC   PO414796   8.945  12.863   9.164
  923POPC   GL114797   9.019  12.879   8.864
  923POPC   GL214798   9.038  12.896   8.864
  923POPC   C1A14799   8.972  12.842   8.564
  923POPC   D2A14800   9.011  12.840   8.264
  923POPC   C3A14801   8.928  12.849   7.964
  923POPC   C4A14802   8.976  12.881   7.664
  923POPC   C1B14803   9.134  13.050   8.564
  923POPC   C2B14804   9.153  13.042   8.264
  923POPC   C3B14805   9.138  13.009   7.964
  923POPC   C4B14806   9.133  13.032   7.664
  924POPC   NC314807  29.905  33.755   9.464
  924POPC   PO414808  29.905  33.824   9.164
  924POPC   GL114809  29.921  33.833   8.864
  924POPC   GL214810  29.978  33.861   8.864
  924POPC   C1A14811  29.915  33.844   8.564
  924POPC   D2A14812  29.912  33.805   8.264
  924POPC   C3A14813  29.934  33.844   7.964
  924POPC   C4A14814  29.909  33.762   7.664
  924POPC   C1B14815  30.158  33.949   8.564
  924POPC   C2B14816  30.138  33.995   8.264
  924POPC   C3B14817  30.106  33.939   7.964
  924POPC   C4B14818  30.064  33.927   7.664
  925POPC   NC314819  12.111   1.964   9.464
  925POPC   PO414820  12.077   1.959   9.164
  925POPC   GL114821  12.032   1.974   8.864
  925POPC   GL214822  11.901   1.936   8.864
  925POPC   C1A14823  12.110   2.025   8.564
  925POPC   D2A14824  12.046   2.026   8.264
  925POPC   C3A14825  12.058   1.971   7.964
  925POPC   C4A14826  12.114   1.971   7.664
  925POPC   C1B14827  11.860   2.016   8.564
  925POPC   C2B14828  11.789   2.005   8.264
  925POPC   C3B14829  11.820   2.016   7.964
  925POPC   C4B14830  11.814   1.960   7.664
  926POPC   NC314831  37.716  29.925   9.464
  926POPC   PO414832  37.676  29.967   9.164
  926POPC   GL114833  37.707  29.898   8.864
  926POPC   GL214834  37.575  29.831   8.864
  926POPC   C1A14835  37.688  29.940   8.564
  926POPC   D2A14836  37.704  29.903   8.264
  926POPC   C3A14837  37.696  29.928   7.964
  926POPC   C4A14838  37.640  29.900   7.664
  926POPC   C1B14839  37.400  29.813   8.564
  926POPC   C2B14840  37.428  29.848   8.264
  926POPC   C3B14841  37.428  29.797   7.964
  926POPC   C4B14842  37.444  29.792   7.664
  927POPC   NC314843  17.511  19.083   9.464
  927POPC   PO414844  17.510  19.100   9.164
  927POPC   GL114845  17.495  19.107   8.864
  927POPC   GL214846  17.360  19.069   8.864
  927POPC   C1A14847  17.498  19.081   8.564
  927POPC   D2A14848  17.518  19.100   8.264
  927POPC   C3A14849  17.466  19.053   7.964
  927POPC   C4A14850  17.522  19.041   7.664
  927POPC   C1B14851  17.232  18.996   8.564
  927POPC   C2B14852  17.219  18.955   8.264
  927POPC   C3B14853  17.308  18.948   7.964
  927POPC   C4B14854  17.243  19.004   7.664
  928POPC   NC314855  30.649   9.749   9.464
  928POPC   PO414856  30.665   9.732   9.164
  928POPC   GL114857  30.690   9.722   8.864
  928POPC   GL214858  30.719   9.580   8.864
  928POPC   C1A14859  30.705   9.699   8.564
  928POPC   D2A14860  30.723   9.733   8.264
  928POPC   C3A14861  30.728   9.704   7.964
  928POPC   C4A14862  30.706   9.758   7.664
  928POPC   C1B14863  30.665   9.459   8.564
  928POPC   C2B14864  30.660   9.496   8.264
  928POPC   C3B14865  30.692   9.483   7.964
  928POPC   C4B14866  30.681   9.541   7.664
  929POPC   NC314867   7.418  25.306   9.464
  929POPC   PO414868   7.450  25.259   9.164
  929POPC   GL114869   7.423  25.251   8.864
  929POPC   GL214870   7.435  25.396   8.864
  929POPC   C1A14871   7.437  25.254   8.564
  929POPC   D2A14872   7.462  25.216   8.264
  929POPC   C3A14873   7.426  25.244   7.964
  929POPC   C4A14874   7.445  25.276   7.664
  929POPC   C1B14875   7.566  25.530   8.564
  929POPC   C2B14876   7.543  25.530   8.264
  929POPC   C3B14877   7.495  25.458   7.964
  929POPC   C4B14878   7.518  25.460   7.664
  930POPC   NC314879  43.872  11.331   9.464
  930POPC   PO414880  43.914  11.312   9.164
  930POPC   GL114881  43.873  11.308   8.864
  930POPC   GL214882  44.002  11.323   8.864
  930POPC   C1A14883  43.895  11.321   8.564
  930POPC   D2A14884  43.859  11.311   8.264
  930POPC   C3A14885  43.918  11.343   7.964
  930POPC   C4A14886  43.921  11.350   7.664
  930POPC   C1B14887  44.081  11.409   8.564
  930POPC   C2B14888  44.064  11.383   8.264
  930POPC   C3B14889  44.051  11.413   7.964
  930POPC   C4B14890  44.050  11.395   7.664
  931POPC   NC314891  44.704   2.718   9.464
  931POPC   PO414892  44.681   2.802   9.164
  931POPC   GL114893  44.691   2.808   8.864
  931POPC   GL214894  44.777   2.855   8.864
  931POPC   C1A14895  44.688   2.747   8.564
  931POPC   D2A14896  44.685   2.753   8.264
  931POPC   C3A14897  44.711   2.762   7.964
  931POPC   C4A14898  44.623   2.742   7.664
  931POPC   C1B14899  44.891   2.851   8.564
  931POPC   C2B14900  44.887   2.924   8.264
  931POPC   C3B14901  44.848   2.931   7.964
  931POPC   C4B14902  44.907   2.909   7.664
  932POPC   NC314903  43.875  36.880   9.464
  932POPC   PO414904  43.868  36.890   9.164
  932POPC   GL114905  43.893  36.918   8.864
  932POPC   GL214906  43.857  37.037   8.864
  932POPC   C1A14907  43.909  36.918   8.564
  932POPC   D2A14908  43.906  36.881   8.264
  932POPC   C3A14909  43.908  36.950   7.964
  932POPC   C4A14910  43.901  36.933   7.664
  932POPC   C1B14911  43.750  37.087   8.564
  932POPC   C2B14912  43.690  37.079   8.264
  932POPC   C3B14913  43.754  37.139   7.964
  932POPC   C4B14914  43.763  37.067   7.664
  933POPC   NC314915  25.263   9.005   9.464
  933POPC   PO414916  25.244   8.967   9.164
  933POPC   GL114917  25.273   8.954   8.864
  933POPC   GL214918  25.349   9.089   8.864
  933POPC   C1A14919  25.285   9.010   8.564
  933POPC   D2A14920  25.298   8.934   8.264
  933POPC   C3A14921  25.262   8.969   7.964
  933POPC   C4A14922  25.230   8.994   7.664
  933POPC   C1B14923  25.403   9.145   8.564
  933POPC   C2B14924  25.410   9.142   8.264
  933POPC   C3B14925  25.444   9.147   7.964
  933POPC   C4B14926  25.403   9.135   7.664
  934POPC   NC314927  39.983  37.672   9.464
  934POPC   PO414928  39.986  37.664   9.164
  934POPC   GL114929  39.958  37.636   8.864
  934POPC   GL214930  40.094  37.681   8.864
  934POPC   C1A14931  40.001  37.706   8.564
  934POPC   D2A14932  39.961  37.659   8.264
  934POPC   C3A14933  39.967  37.681   7.964
  934POPC   C4A14934  40.034  37.652   7.664
  934POPC   C1B14935  40.216  37.739   8.564
  934POPC   C2B14936  40.245  37.787   8.264
  934POPC   C3B14937  40.276  37.795   7.964
  934POPC   C4B14938  40.289  37.732   7.664
  935POPC   NC314939  41.602  12.087   9.464
  935POPC   PO414940  41.593  12.051   9.164
  935POPC   GL114941  41.608  12.063   8.864
  935POPC   GL214942  41.456  12.149   8.864
  935POPC   C1A14943  41.581  12.083   8.564
  935POPC   D2A14944  41.568  12.071   8.264
  935POPC   C3A14945  41.573  12.072   7.964
  935POPC   C4A14946  41.541  12.092   7.664
  935POPC   C1B14947  41.361  12.182   8.564
  935POPC   C2B14948  41.323  12.207   8.264
  935POPC   C3B14949  41.334  12.108   7.964
  935POPC   C4B14950  41.356  12.183   7.664
  936POPC   NC314951   2.749   2.800   9.464
  936POPC   PO414952   2.775   2.798   9.164
  936POPC   GL114953   2.747   2.725   8.864
  936POPC   GL214954   2.622   2.709   8.864
  936POPC   C1A14955   2.747   2.776   8.564
  936POPC   D2A14956   2.812   2.773   8.264
  936POPC   C3A14957   2.733   2.744   7.964
  936POPC   C4A14958   2.764   2.792   7.664
  936POPC   C1B14959   2.528   2.703   8.564
  936POPC   C2B14960   2.542   2.669   8.264
  936POPC   C3B14961   2.489   2.699   7.964
  936POPC   C4B14962   2.499   2.636   7.664
  937POPC   NC314963  40.024  32.285   9.464
  937POPC   PO414964  39.981  32.236   9.164
  937POPC   GL114965  40.015  32.221   8.864
  937POPC   GL214966  40.002  32.338   8.864
  937POPC   C1A14967  40.004  32.283   8.564
  937POPC   D2A14968  40.036  32.223   8.264
  937POPC   C3A14969  40.048  32.221   7.964
  937POPC   C4A14970  39.972  32.229   7.664
  937POPC   C1B14971  39.894  32.458   8.564
  937POPC   C2B14972  39.968  32.536   8.264
  937POPC   C3B14973  39.936  32.488   7.964
  937POPC   C4B14974  39.919  32.464   7.664
  938POPC   NC314975  41.538  34.619   9.464
  938POPC   PO414976  41.539  34.592   9.164
  938POPC   GL114977  41.578  34.545   8.864
  938POPC   GL214978  41.645  34.499   8.864
  938POPC   C1A14979  41.607  34.543   8.564
  938POPC   D2A14980  41.540  34.602   8.264
  938POPC   C3A14981  41.541  34.555   7.964
  938POPC   C4A14982  41.593  34.538   7.664
  938POPC   C1B14983  41.751  34.520   8.564
  938POPC   C2B14984  41.800  34.475   8.264
  938POPC   C3B14985  41.797  34.438   7.964
  938POPC   C4B14986  41.742  34.480   7.664
  939POPC   NC314987  28.415  40.030   9.464
  939POPC   PO414988  28.357  40.019   9.164
  939POPC   GL114989  28.401  40.003   8.864
  939POPC   GL214990  28.529  39.972   8.864
  939POPC   C1A14991  28.389  40.014   8.564
  939POPC   D2A14992  28.386  39.980   8.264
  939POPC   C3A14993  28.412  39.990   7.964
  939POPC   C4A14994  28.352  40.036   7.664
  939POPC   C1B14995  28.555  39.862   8.564
  939POPC   C2B14996  28.605  39.927   8.264
  939POPC   C3B14997  28.615  39.895   7.964
  939POPC   C4B14998  28.597  39.869   7.664
  940POPC   NC314999  25.238  24.463   9.464
  940POPC   PO415000  25.254  24.447   9.164
  940POPC   GL115001  25.285  24.469   8.864
  940POPC   GL215002  25.278  24.644   8.864
  940POPC   C1A15003  25.243  24.466   8.564
  940POPC   D2A15004  25.293  24.443   8.264
  940POPC   C3A15005  25.236  24.471   7.964
  940POPC   C4A15006  25.239  24.457   7.664
  940POPC   C1B15007  25.264  24.718   8.564
  940POPC   C2B15008  25.296  24.780   8.264
  940POPC   C3B15009  25.339  24.688   7.964
  940POPC   C4B15010  25.353  24.738   7.664
  941POPC   NC315011  44.659  22.115   9.464
  941POPC   PO415012  44.701  22.151   9.164
  941POPC   GL115013  44.667  22.141   8.864
  941POPC   GL215014  44.550  22.118   8.864
  941POPC   C1A15015  44.632  22.166   8.564
  941POPC   D2A15016  44.654  22.123   8.264
  941POPC   C3A15017  44.678  22.138   7.964
  941POPC   C4A15018  44.646  22.148   7.664
  941POPC   C1B15019  44.482  22.004   8.564
  941POPC   C2B15020  44.495  21.939   8.264
  941POPC   C3B15021  44.453  22.024   7.964
  941POPC   C4B15022  44.458  22.030   7.664
  942POPC   NC315023  19.010  19.813   9.464
  942POPC   PO415024  19.033  19.814   9.164
  942POPC   GL115025  19.092  19.882   8.864
  942POPC   GL215026  19.003  19.917   8.864
  942POPC   C1A15027  19.058  19.837   8.564
  942POPC   D2A15028  19.091  19.843   8.264
  942POPC   C3A15029  19.076  19.840   7.964
  942POPC   C4A15030  19.098  19.811   7.664
  942POPC   C1B15031  18.879  20.012   8.564
  942POPC   C2B15032  18.847  20.021   8.264
  942POPC   C3B15033  18.919  19.969   7.964
  942POPC   C4B15034  18.853  20.027   7.664
  943POPC   NC315035  30.664  39.269   9.464
  943POPC   PO415036  30.740  39.281   9.164
  943POPC   GL115037  30.670  39.247   8.864
  943POPC   GL215038  30.794  39.089   8.864
  943POPC   C1A15039  30.672  39.259   8.564
  943POPC   D2A15040  30.699  39.194   8.264
  943POPC   C3A15041  30.656  39.190   7.964
  943POPC   C4A15042  30.708  39.186   7.664
  943POPC   C1B15043  30.805  39.047   8.564
  943POPC   C2B15044  30.870  39.034   8.264
  943POPC   C3B15045  30.854  38.975   7.964
  943POPC   C4B15046  30.791  39.044   7.664
  944POPC   NC315047  44.651   8.963   9.464
  944POPC   PO415048  44.670   8.936   9.164
  944POPC   GL115049  44.695   8.927   8.864
  944POPC   GL215050  44.812   8.957   8.864
  944POPC   C1A15051  44.624   8.960   8.564
  944POPC   D2A15052  44.618   8.956   8.264
  944POPC   C3A15053  44.637   8.976   7.964
  944POPC   C4A15054  44.701   9.012   7.664
  944POPC   C1B15055  44.952   9.004   8.564
  944POPC   C2B15056  44.943   8.984   8.264
  944POPC   C3B15057  44.946   8.984   7.964
  944POPC   C4B15058  44.867   8.958   7.664
  945POPC   NC315059  19.027  43.095   9.464
  945POPC   PO415060  19.017  43.087   9.164
  945POPC   GL115061  19.053  43.150   8.864
  945POPC   GL215062  18.987  43.042   8.864
  945POPC   C1A15063  19.058  43.093   8.564
  945POPC   D2A15064  19.090  43.141   8.264
  945POPC   C3A15065  19.072  43.124   7.964
  945POPC   C4A15066  19.029  43.107   7.664
  945POPC   C1B15067  18.998  42.837   8.564
  945POPC   C2B15068  18.978  42.914   8.264
  945POPC   C3B15069  19.001  42.862   7.964
  945POPC   C4B15070  18.982  42.900   7.664
  946POPC   NC315071  19.805  21.393   9.464
  946POPC   PO415072  19.843  21.406   9.164
  946POPC   GL115073  19.879  21.427   8.864
  946POPC   GL215074  19.861  21.531   8.864
  946POPC   C1A15075  19.858  21.431   8.564
  946POPC   D2A15076  19.809  21.355   8.264
  946POPC   C3A15077  19.863  21.351   7.964
  946POPC   C4A15078  19.796  21.383   7.664
  946POPC   C1B15079  19.837  21.611   8.564
  946POPC   C2B15080  19.904  21.658   8.264
  946POPC   C3B15081  19.935  21.598   7.964
  946POPC   C4B15082  19.907  21.640   7.664
  947POPC   NC315083   9.754   0.431   9.464
  947POPC   PO415084   9.741   0.403   9.164
  947POPC   GL115085   9.760   0.415   8.864
  947POPC   GL215086   9.782   0.287   8.864
  947POPC   C1A15087   9.748   0.453   8.564
  947POPC   D2A15088   9.761   0.462   8.264
  947POPC   C3A15089   9.787   0.388   7.964
  947POPC   C4A15090   9.706   0.447   7.664
  947POPC   C1B15091   9.777   0.159   8.564
  947POPC   C2B15092   9.795   0.174   8.264
  947POPC   C3B15093   9.850   0.221   7.964
  947POPC   C4B15094   9.766   0.211   7.664
  948POPC   NC315095  35.313  39.214   9.464
  948POPC   PO415096  35.388  39.233   9.164
  948POPC   GL115097  35.371  39.269   8.864
  948POPC   GL215098  35.397  39.099   8.864
  948POPC   C1A15099  35.344  39.245   8.564
  948POPC   D2A15100  35.315  39.240   8.264
  948POPC   C3A15101  35.370  39.228   7.964
  948POPC   C4A15102  35.349  39.203   7.664
  948POPC   C1B15103  35.366  38.963   8.564
  948POPC   C2B15104  35.371  38.961   8.264
  948POPC   C3B15105  35.378  39.024   7.964
  948POPC   C4B15106  35.353  38.975   7.664
  949POPC   NC315107  22.889   2.791   9.464
  949POPC   PO415108  22.893   2.728   9.164
  949POPC   GL115109  22.975   2.742   8.864
  949POPC   GL215110  23.086   2.727   8.864
  949POPC   C1A15111  22.918   2.762   8.564
  949POPC   D2A15112  22.984   2.720   8.264
  949POPC   C3A15113  22.899   2.807   7.964
  949POPC   C4A15114  22.980   2.765   7.664
  949POPC   C1B15115  23.202   2.718   8.564
  949POPC   C2B15116  23.222   2.714   8.264
  949POPC   C3B15117  23.176   2.787   7.964
  949POPC   C4B15118  23.159   2.757   7.664
  950POPC   NC315119  42.335  22.122   9.464
  950POPC   PO415120  42.319  22.170   9.164
  950POPC   GL115121  42.323  22.208   8.864
  950POPC   GL215122  42.318  22.311   8.864
  950POPC   C1A15123  42.339  22.205   8.564
  950POPC   D2A15124  42.374  22.184   8.264
  950POPC   C3A15125  42.342  22.160   7.964
  950POPC   C4A15126  42.364  22.180   7.664
  950POPC   C1B15127  42.259  22.362   8.564
  950POPC   C2B15128  42.279  22.376   8.264
  950POPC   C3B15129  42.249  22.439   7.964
  950POPC   C4B15130  42.203  22.409   7.664
  951POPC   NC315131  39.193  17.475   9.464
  951POPC   PO415132  39.212  17.538   9.164
  951POPC   GL115133  39.210  17.502   8.864
  951POPC   GL215134  39.091  17.530   8.864
  951POPC   C1A15135  39.229  17.479   8.564
  951POPC   D2A15136  39.238  17.459   8.264
  951POPC   C3A15137  39.223  17.528   7.964
  951POPC   C4A15138  39.278  17.548   7.664
  951POPC   C1B15139  39.007  17.576   8.564
  951POPC   C2B15140  38.940  17.512   8.264
  951POPC   C3B15141  39.028  17.530   7.964
  951POPC   C4B15142  39.006  17.520   7.664
  952POPC   NC315143  12.838  42.311   9.464
  952POPC   PO415144  12.816  42.346   9.164
  952POPC   GL115145  12.850  42.296   8.864
  952POPC   GL215146  12.808  42.208   8.864
  952POPC   C1A15147  12.900  42.299   8.564
  952POPC   D2A15148  12.829  42.321   8.264
  952POPC   C3A15149  12.867  42.301   7.964
  952POPC   C4A15150  12.896  42.349   7.664
  952POPC   C1B15151  12.752  42.161   8.564
  952POPC   C2B15152  12.744  42.068   8.264
  952POPC   C3B15153  12.691  42.135   7.964
  952POPC   C4B15154  12.693  42.152   7.664
  953POPC   NC315155   1.990   6.626   9.464
  953POPC   PO415156   1.994   6.640   9.164
  953POPC   GL115157   2.002   6.622   8.864
  953POPC   GL215158   2.077   6.597   8.864
  953POPC   C1A15159   1.959   6.661   8.564
  953POPC   D2A15160   1.941   6.657   8.264
  953POPC   C3A15161   1.989   6.618   7.964
  953POPC   C4A15162   1.949   6.688   7.664
  953POPC   C1B15163   2.208   6.493   8.564
  953POPC   C2B15164   2.148   6.463   8.264
  953POPC   C3B15165   2.204   6.452   7.964
  953POPC   C4B15166   2.162   6.508   7.664
  954POPC   NC315167   3.588  22.161   9.464
  954POPC   PO415168   3.551  22.195   9.164
  954POPC   GL115169   3.558  22.204   8.864
  954POPC   GL215170   3.602  22.058   8.864
  954POPC   C1A15171   3.578  22.124   8.564
  954POPC   D2A15172   3.531  22.205   8.264
  954POPC   C3A15173   3.561  22.130   7.964
  954POPC   C4A15174   3.516  22.150   7.664
  954POPC   C1B15175   3.660  21.951   8.564
  954POPC   C2B15176   3.620  21.892   8.264
  954POPC   C3B15177   3.675  21.881   7.964
  954POPC   C4B15178   3.580  21.969   7.664
  955POPC   NC315179  10.542  29.136   9.464
  955POPC   PO415180  10.570  29.149   9.164
  955POPC   GL115181  10.492  29.176   8.864
  955POPC   GL215182  10.412  29.080   8.864
  955POPC   C1A15183  10.481  29.125   8.564
  955POPC   D2A15184  10.561  29.193   8.264
  955POPC   C3A15185  10.527  29.141   7.964
  955POPC   C4A15186  10.523  29.188   7.664
  955POPC   C1B15187  10.234  29.104   8.564
  955POPC   C2B15188  10.322  29.049   8.264
  955POPC   C3B15189  10.269  29.055   7.964
  955POPC   C4B15190  10.318  29.097   7.664
  956POPC   NC315191  19.873  32.200   9.464
  956POPC   PO415192  19.786  32.283   9.164
  956POPC   GL115193  19.874  32.215   8.864
  956POPC   GL215194  19.675  32.196   8.864
  956POPC   C1A15195  19.876  32.225   8.564
  956POPC   D2A15196  19.788  32.239   8.264
  956POPC   C3A15197  19.859  32.276   7.964
  956POPC   C4A15198  19.823  32.265   7.664
  956POPC   C1B15199  19.607  32.136   8.564
  956POPC   C2B15200  19.576  32.165   8.264
  956POPC   C3B15201  19.576  32.126   7.964
  956POPC   C4B15202  19.639  32.117   7.664
  957POPC   NC315203  36.107  29.138   9.464
  957POPC   PO415204  36.104  29.121   9.164
  957POPC   GL115205  36.113  29.136   8.864
  957POPC   GL215206  36.223  28.993   8.864
  957POPC   C1A15207  36.143  29.190   8.564
  957POPC   D2A15208  36.108  29.103   8.264
  957POPC   C3A15209  36.130  29.169   7.964
  957POPC   C4A15210  36.132  29.120   7.664
  957POPC   C1B15211  36.228  28.943   8.564
  957POPC   C2B15212  36.199  28.955   8.264
  957POPC   C3B15213  36.273  28.886   7.964
  957POPC   C4B15214  36.264  28.934   7.664
  958POPC   NC315215   0.474  30.720   9.464
  958POPC   PO415216   0.466  30.695   9.164
  958POPC   GL115217   0.469  30.661   8.864
  958POPC   GL215218   0.590  30.696   8.864
  958POPC   C1A15219   0.422  30.694   8.564
  958POPC   D2A15220   0.463  30.655   8.264
  958POPC   C3A15221   0.391  30.690   7.964
  958POPC   C4A15222   0.420  30.706   7.664
  958POPC   C1B15223   0.619  30.806   8.564
  958POPC   C2B15224   0.717  30.750   8.264
  958POPC   C3B15225   0.678  30.772   7.964
  958POPC   C4B15226   0.654  30.786   7.664
  959POPC   NC315227  24.463   0.418   9.464
  959POPC   PO415228  24.533   0.401   9.164
  959POPC   GL115229  24.536   0.456   8.864
  959POPC   GL215230  24.384   0.293   8.864
  959POPC   C1A15231  24.492   0.432   8.564
  959POPC   D2A15232  24.466   0.415   8.264
  959POPC   C3A15233  24.472   0.439   7.964
  959POPC   C4A15234  24.509   0.426   7.664
  959POPC   C1B15235  24.400   0.194   8.564
  959POPC   C2B15236  24.388   0.261   8.264
  959POPC   C3B15237  24.378   0.213   7.964
  959POPC   C4B15238  24.372   0.257   7.664
  960POPC   NC315239   5.138   8.178   9.464
  960POPC   PO415240   5.132   8.149   9.164
  960POPC   GL115241   5.088   8.194   8.864
  960POPC   GL215242   5.068   8.111   8.864
  960POPC   C1A15243   5.095   8.242   8.564
  960POPC   D2A15244   5.127   8.217   8.264
  960POPC   C3A15245   5.046   8.202   7.964
  960POPC   C4A15246   5.119   8.214   7.664
  960POPC   C1B15247   5.017   7.947   8.564
  960POPC   C2B15248   4.986   7.988   8.264
  960POPC   C3B15249   4.973   7.965   7.964
  960POPC   C4B15250   5.000   7.998   7.664
  961POPC   NC315251  38.441  19.016   9.464
  961POPC   PO415252  38.470  19.010   9.164
  961POPC   GL115253  38.426  19.076   8.864
  961POPC   GL215254  38.576  19.105   8.864
  961POPC   C1A15255  38.505  19.047   8.564
  961POPC   D2A15256  38.412  19.024   8.264
  961POPC   C3A15257  38.421  19.009   7.964
  961POPC   C4A15258  38.454  19.053   7.664
  961POPC   C1B15259  38.618  19.226   8.564
  961POPC   C2B15260  38.716  19.178   8.264
  961POPC   C3B15261  38.636  19.160   7.964
  961POPC   C4B15262  38.653  19.153   7.664
  962POPC   NC315263  30.677  43.870   9.464
  962POPC   PO415264  30.683  43.883   9.164
  962POPC   GL115265  30.723  43.863   8.864
  962POPC   GL215266  30.668  43.719   8.864
  962POPC   C1A15267  30.679  43.859   8.564
  962POPC   D2A15268  30.735  43.889   8.264
  962POPC   C3A15269  30.708  43.854   7.964
  962POPC   C4A15270  30.736  43.851   7.664
  962POPC   C1B15271  30.694  43.680   8.564
  962POPC   C2B15272  30.752  43.646   8.264
  962POPC   C3B15273  30.692  43.627   7.964
  962POPC   C4B15274  30.690  43.607   7.664
  963POPC   NC315275  19.831  26.026   9.464
  963POPC   PO415276  19.792  26.024   9.164
  963POPC   GL115277  19.788  26.044   8.864
  963POPC   GL215278  19.767  25.970   8.864
  963POPC   C1A15279  19.816  25.999   8.564
  963POPC   D2A15280  19.841  26.045   8.264
  963POPC   C3A15281  19.818  26.048   7.964
  963POPC   C4A15282  19.827  26.013   7.664
  963POPC   C1B15283  19.636  25.899   8.564
  963POPC   C2B15284  19.604  25.841   8.264
  963POPC   C3B15285  19.645  25.851   7.964
  963POPC   C4B15286  19.683  25.836   7.664
  964POPC   NC315287   0.480  28.412   9.464
  964POPC   PO415288   0.391  28.344   9.164
  964POPC   GL115289   0.485  28.380   8.864
  964POPC   GL215290   0.540  28.474   8.864
  964POPC   C1A15291   0.410  28.375   8.564
  964POPC   D2A15292   0.472  28.350   8.264
  964POPC   C3A15293   0.401  28.329   7.964
  964POPC   C4A15294   0.435  28.375   7.664
  964POPC   C1B15295   0.613  28.552   8.564
  964POPC   C2B15296   0.548  28.613   8.264
  964POPC   C3B15297   0.552  28.620   7.964
  964POPC   C4B15298   0.615  28.588   7.664
  965POPC   NC315299  32.265  14.437   9.464
  965POPC   PO415300  32.298  14.426   9.164
  965POPC   GL115301  32.249  14.413   8.864
  965POPC   GL215302  32.390  14.429   8.864
  965POPC   C1A15303  32.244  14.374   8.564
  965POPC   D2A15304  32.279  14.447   8.264
  965POPC   C3A15305  32.254  14.367   7.964
  965POPC   C4A15306  32.210  14.444   7.664
  965POPC   C1B15307  32.499  14.556   8.564
  965POPC   C2B15308  32.466  14.525   8.264
  965POPC   C3B15309  32.433  14.487   7.964
  965POPC   C4B15310  32.426  14.507   7.664
  966POPC   NC315311  35.337  33.050   9.464
  966POPC   PO415312  35.354  33.035   9.164
  966POPC   GL115313  35.303  33.054   8.864
  966POPC   GL215314  35.284  33.056   8.864
  966POPC   C1A15315  35.310  33.014   8.564
  966POPC   D2A15316  35.359  33.022   8.264
  966POPC   C3A15317  35.334  32.985   7.964
  966POPC   C4A15318  35.317  32.996   7.664
  966POPC   C1B15319  35.159  33.097   8.564
  966POPC   C2B15320  35.143  33.091   8.264
  966POPC   C3B15321  35.096  33.127   7.964
  966POPC   C4B15322  35.086  33.094   7.664
  967POPC   NC315323  23.683   9.728   9.464
  967POPC   PO415324  23.720   9.736   9.164
  967POPC   GL115325  23.676   9.787   8.864
  967POPC   GL215326  23.836   9.681   8.864
  967POPC   C1A15327  23.745   9.784   8.564
  967POPC   D2A15328  23.746   9.772   8.264
  967POPC   C3A15329  23.705   9.778   7.964
  967POPC   C4A15330  23.710   9.789   7.664
  967POPC   C1B15331  23.879   9.505   8.564
  967POPC   C2B15332  23.895   9.556   8.264
  967POPC   C3B15333  23.895   9.597   7.964
  967POPC   C4B15334  23.913   9.577   7.664
  968POPC   NC315335   1.966  36.953   9.464
  968POPC   PO415336   1.942  36.870   9.164
  968POPC   GL115337   2.006  36.896   8.864
  968POPC   GL215338   2.151  36.943   8.864
  968POPC   C1A15339   1.993  36.942   8.564
  968POPC   D2A15340   2.014  36.868   8.264
  968POPC   C3A15341   2.029  36.908   7.964
  968POPC   C4A15342   1.946  36.905   7.664
  968POPC   C1B15343   2.222  36.957   8.564
  968POPC   C2B15344   2.226  36.881   8.264
  968POPC   C3B15345   2.215  36.939   7.964
  968POPC   C4B15346   2.283  36.875   7.664
  969POPC   NC315347   5.090  18.301   9.464
  969POPC   PO415348   5.138  18.260   9.164
  969POPC   GL115349   5.094  18.319   8.864
  969POPC   GL215350   5.063  18.188   8.864
  969POPC   C1A15351   5.139  18.292   8.564
  969POPC   D2A15352   5.107  18.300   8.264
  969POPC   C3A15353   5.113  18.324   7.964
  969POPC   C4A15354   5.097  18.278   7.664
  969POPC   C1B15355   4.909  18.041   8.564
  969POPC   C2B15356   5.003  18.095   8.264
  969POPC   C3B15357   4.938  18.083   7.964
  969POPC   C4B15358   4.952  18.027   7.664
  970POPC   NC315359  28.396  38.411   9.464
  970POPC   PO415360  28.394  38.500   9.164
  970POPC   GL115361  28.383  38.434   8.864
  970POPC   GL215362  28.296  38.296   8.864
  970POPC   C1A15363  28.411  38.477   8.564
  970POPC   D2A15364  28.358  38.482   8.264
  970POPC   C3A15365  28.338  38.445   7.964
  970POPC   C4A15366  28.389  38.414   7.664
  970POPC   C1B15367  28.297  38.224   8.564
  970POPC   C2B15368  28.337  38.229   8.264
  970POPC   C3B15369  28.290  38.215   7.964
  970POPC   C4B15370  28.269  38.233   7.664
  971POPC   NC315371  34.532  42.335   9.464
  971POPC   PO415372  34.584  42.287   9.164
  971POPC   GL115373  34.582  42.379   8.864
  971POPC   GL215374  34.425  42.324   8.864
  971POPC   C1A15375  34.619  42.308   8.564
  971POPC   D2A15376  34.551  42.352   8.264
  971POPC   C3A15377  34.569  42.347   7.964
  971POPC   C4A15378  34.555  42.310   7.664
  971POPC   C1B15379  34.374  42.279   8.564
  971POPC   C2B15380  34.329  42.315   8.264
  971POPC   C3B15381  34.324  42.280   7.964
  971POPC   C4B15382  34.302  42.319   7.664
  972POPC   NC315383   0.428  21.367   9.464
  972POPC   PO415384   0.474  21.365   9.164
  972POPC   GL115385   0.436  21.369   8.864
  972POPC   GL215386   0.594  21.337   8.864
  972POPC   C1A15387   0.455  21.342   8.564
  972POPC   D2A15388   0.450  21.343   8.264
  972POPC   C3A15389   0.449  21.370   7.964
  972POPC   C4A15390   0.425  21.417   7.664
  972POPC   C1B15391   0.655  21.324   8.564
  972POPC   C2B15392   0.664  21.361   8.264
  972POPC   C3B15393   0.721  21.381   7.964
  972POPC   C4B15394   0.669  21.346   7.664
  973POPC   NC315395  43.836  39.973   9.464
  973POPC   PO415396  43.871  40.016   9.164
  973POPC   GL115397  43.847  39.977   8.864
  973POPC   GL215398  43.990  40.063   8.864
  973POPC   C1A15399  43.926  40.042   8.564
  973POPC   D2A15400  43.921  39.994   8.264
  973POPC   C3A15401  43.866  39.978   7.964
  973POPC   C4A15402  43.874  40.003   7.664
  973POPC   C1B15403  44.086  40.152   8.564
  973POPC   C2B15404  44.103  40.213   8.264
  973POPC   C3B15405  44.019  40.217   7.964
  973POPC   C4B15406  44.025  40.216   7.664
  974POPC   NC315407   9.710  27.594   9.464
  974POPC   PO415408   9.772  27.564   9.164
  974POPC   GL115409   9.715  27.606   8.864
  974POPC   GL215410   9.850  27.649   8.864
  974POPC   C1A15411   9.737  27.563   8.564
  974POPC   D2A15412   9.711  27.604   8.264
  974POPC   C3A15413   9.787  27.610   7.964
  974POPC   C4A15414   9.713  27.587   7.664
  974POPC   C1B15415  10.025  27.668   8.564
  974POPC   C2B15416  10.029  27.685   8.264
  974POPC   C3B15417   9.962  27.623   7.964
  974POPC   C4B15418   9.952  27.694   7.664
  975POPC   NC315419  14.447   9.792   9.464
  975POPC   PO415420  14.431   9.754   9.164
  975POPC   GL115421  14.436   9.703   8.864
  975POPC   GL215422  14.458   9.642   8.864
  975POPC   C1A15423  14.367   9.762   8.564
  975POPC   D2A15424  14.435   9.759   8.264
  975POPC   C3A15425  14.443   9.734   7.964
  975POPC   C4A15426  14.448   9.734   7.664
  975POPC   C1B15427  14.597   9.613   8.564
  975POPC   C2B15428  14.551   9.558   8.264
  975POPC   C3B15429  14.582   9.598   7.964
  975POPC   C4B15430  14.574   9.605   7.664
  976POPC   NC315431   1.222  33.839   9.464
  976POPC   PO415432   1.233  33.824   9.164
  976POPC   GL115433   1.199  33.848   8.864
  976POPC   GL215434   1.363  33.819   8.864
  976POPC   C1A15435   1.183  33.793   8.564
  976POPC   D2A15436   1.180  33.788   8.264
  976POPC   C3A15437   1.238  33.781   7.964
  976POPC   C4A15438   1.167  33.773   7.664
  976POPC   C1B15439   1.419  33.771   8.564
  976POPC   C2B15440   1.466  33.818   8.264
  976POPC   C3B15441   1.444  33.804   7.964
  976POPC   C4B15442   1.459  33.806   7.664
  977POPC   NC315443  36.083  36.898   9.464
  977POPC   PO415444  36.132  36.897   9.164
  977POPC   GL115445  36.126  36.877   8.864
  977POPC   GL215446  36.034  36.857   8.864
  977POPC   C1A15447  36.087  36.911   8.564
  977POPC   D2A15448  36.112  36.925   8.264
  977POPC   C3A15449  36.083  36.858   7.964
  977POPC   C4A15450  36.153  36.877   7.664
  977POPC   C1B15451  35.882  36.826   8.564
  977POPC   C2B15452  35.891  36.871   8.264
  977POPC   C3B15453  35.874  36.802   7.964
  977POPC   C4B15454  35.894  36.825   7.664
  978POPC   NC315455  43.061   5.094   9.464
  978POPC   PO415456  43.150   5.128   9.164
  978POPC   GL115457  43.074   5.068   8.864
  978POPC   GL215458  43.078   4.966   8.864
  978POPC   C1A15459  43.113   5.103   8.564
  978POPC   D2A15460  43.064   5.090   8.264
  978POPC   C3A15461  43.084   5.111   7.964
  978POPC   C4A15462  43.060   5.054   7.664
  978POPC   C1B15463  43.101   4.847   8.564
  978POPC   C2B15464  43.170   4.888   8.264
  978POPC   C3B15465  43.167   4.881   7.964
  978POPC   C4B15466  43.194   4.810   7.664
  979POPC   NC315467  44.628   7.453   9.464
  979POPC   PO415468  44.658   7.376   9.164
  979POPC   GL115469  44.661   7.394   8.864
  979POPC   GL215470  44.837   7.389   8.864
  979POPC   C1A15471  44.656   7.451   8.564
  979POPC   D2A15472  44.700   7.402   8.264
  979POPC   C3A15473  44.615   7.428   7.964
  979POPC   C4A15474  44.697   7.467   7.664
  979POPC   C1B15475  44.863   7.429   8.564
  979POPC   C2B15476  44.887   7.432   8.264
  979POPC   C3B15477  44.950   7.380   7.964
  979POPC   C4B15478  44.939   7.436   7.664
  980POPC   NC315479  33.779   2.798   9.464
  980POPC   PO415480  33.796   2.770   9.164
  980POPC   GL115481  33.754   2.766   8.864
  980POPC   GL215482  33.846   2.893   8.864
  980POPC   C1A15483  33.773   2.761   8.564
  980POPC   D2A15484  33.823   2.775   8.264
  980POPC   C3A15485  33.839   2.716   7.964
  980POPC   C4A15486  33.766   2.808   7.664
  980POPC   C1B15487  33.897   2.946   8.564
  980POPC   C2B15488  33.910   2.956   8.264
  980POPC   C3B15489  33.966   2.990   7.964
  980POPC   C4B15490  33.937   3.022   7.664
  981POPC   NC315491   3.525   9.709   9.464
  981POPC   PO415492   3.577   9.795   9.164
  981POPC   GL115493   3.542   9.711   8.864
  981POPC   GL215494   3.460   9.866   8.864
  981POPC   C1A15495   3.543   9.776   8.564
  981POPC   D2A15496   3.522   9.724   8.264
  981POPC   C3A15497   3.577   9.773   7.964
  981POPC   C4A15498   3.510   9.752   7.664
  981POPC   C1B15499   3.299   9.891   8.564
  981POPC   C2B15500   3.318   9.875   8.264
  981POPC   C3B15501   3.350   9.896   7.964
  981POPC   C4B15502   3.308   9.861   7.664
  982POPC   NC315503   2.718   5.056   9.464
  982POPC   PO415504   2.747   5.087   9.164
  982POPC   GL115505   2.759   5.085   8.864
  982POPC   GL215506   2.777   5.004   8.864
  982POPC   C1A15507   2.744   5.111   8.564
  982POPC   D2A15508   2.774   5.061   8.264
  982POPC   C3A15509   2.797   5.107   7.964
  982POPC   C4A15510   2.752   5.132   7.664
  982POPC   C1B15511   2.796   4.829   8.564
  982POPC   C2B15512   2.753   4.847   8.264
  982POPC   C3B15513   2.769   4.795   7.964
  982POPC   C4B15514   2.725   4.797   7.664
  983POPC   NC315515   4.341   4.298   9.464
  983POPC   PO415516   4.293   4.350   9.164
  983POPC   GL115517   4.335   4.298   8.864
  983POPC   GL215518   4.263   4.229   8.864
  983POPC   C1A15519   4.291   4.316   8.564
  983POPC   D2A15520   4.335   4.366   8.264
  983POPC   C3A15521   4.357   4.288   7.964
  983POPC   C4A15522   4.363   4.365   7.664
  983POPC   C1B15523   4.167   4.103   8.564
  983POPC   C2B15524   4.219   4.117   8.264
  983POPC   C3B15525   4.239   4.094   7.964
  983POPC   C4B15526   4.176   4.081   7.664
  984POPC   NC315527  43.853  25.999   9.464
  984POPC   PO415528  43.927  26.068   9.164
  984POPC   GL115529  43.888  25.992   8.864
  984POPC   GL215530  44.022  25.987   8.864
  984POPC   C1A15531  43.838  26.015   8.564
  984POPC   D2A15532  43.936  26.058   8.264
  984POPC   C3A15533  43.860  26.004   7.964
  984POPC   C4A15534  43.875  26.073   7.664
  984POPC   C1B15535  44.109  25.935   8.564
  984POPC   C2B15536  44.082  25.929   8.264
  984POPC   C3B15537  44.150  25.939   7.964
  984POPC   C4B15538  44.154  25.907   7.664
  985POPC   NC315539  23.742  43.136   9.464
  985POPC   PO415540  23.743  43.159   9.164
  985POPC   GL115541  23.752  43.118   8.864
  985POPC   GL215542  23.643  43.011   8.864
  985POPC   C1A15543  23.669  43.093   8.564
  985POPC   D2A15544  23.706  43.137   8.264
  985POPC   C3A15545  23.700  43.127   7.964
  985POPC   C4A15546  23.737  43.086   7.664
  985POPC   C1B15547  23.580  42.918   8.564
  985POPC   C2B15548  23.654  42.925   8.264
  985POPC   C3B15549  23.556  42.920   7.964
  985POPC   C4B15550  23.569  42.839   7.664
  986POPC   NC315551  12.071  20.591   9.464
  986POPC   PO415552  12.099  20.608   9.164
  986POPC   GL115553  12.102  20.635   8.864
  986POPC   GL215554  12.230  20.703   8.864
  986POPC   C1A15555  12.094  20.647   8.564
  986POPC   D2A15556  12.052  20.624   8.264
  986POPC   C3A15557  12.097  20.640   7.964
  986POPC   C4A15558  12.056  20.638   7.664
  986POPC   C1B15559  12.266  20.719   8.564
  986POPC   C2B15560  12.353  20.703   8.264
  986POPC   C3B15561  12.263  20.660   7.964
  986POPC   C4B15562  12.338  20.733   7.664
  987POPC   NC315563   8.200   8.947   9.464
  987POPC   PO415564   8.168   9.021   9.164
  987POPC   GL115565   8.159   8.964   8.864
  987POPC   GL215566   8.206   8.852   8.864
  987POPC   C1A15567   8.153   8.967   8.564
  987POPC   D2A15568   8.239   8.983   8.264
  987POPC   C3A15569   8.237   8.986   7.964
  987POPC   C4A15570   8.156   8.958   7.664
  987POPC   C1B15571   8.233   8.760   8.564
  987POPC   C2B15572   8.224   8.723   8.264
  987POPC   C3B15573   8.232   8.726   7.964
  987POPC   C4B15574   8.152   8.706   7.664
  988POPC   NC315575   0.440  40.053   9.464
  988POPC   PO415576   0.454  40.031   9.164
  988POPC   GL115577   0.428  39.970   8.864
  988POPC   GL215578   0.359  39.887   8.864
  988POPC   C1A15579   0.482  39.971   8.564
  988POPC   D2A15580   0.476  39.961   8.264
  988POPC   C3A15581   0.433  40.049   7.964
  988POPC   C4A15582   0.401  40.015   7.664
  988POPC   C1B15583   0.300  39.761   8.564
  988POPC   C2B15584   0.331  39.816   8.264
  988POPC   C3B15585   0.306  39.790   7.964
  988POPC   C4B15586   0.296  39.744   7.664
  989POPC   NC315587  11.335  17.542   9.464
  989POPC   PO415588  11.337  17.476   9.164
  989POPC   GL115589  11.278  17.465   8.864
  989POPC   GL215590  11.194  17.553   8.864
  989POPC   C1A15591  11.297  17.492   8.564
  989POPC   D2A15592  11.307  17.539   8.264
  989POPC   C3A15593  11.260  17.502   7.964
  989POPC   C4A15594  11.343  17.551   7.664
  989POPC   C1B15595  11.143  17.686   8.564
  989POPC   C2B15596  11.110  17.625   8.264
  989POPC   C3B15597  11.139  17.699   7.964
  989POPC   C4B15598  11.130  17.675   7.664
  990POPC   NC315599   3.548  36.158   9.464
  990POPC   PO415600   3.497  36.123   9.164
  990POPC   GL115601   3.509  36.127   8.864
  990POPC   GL215602   3.478  36.037   8.864
  990POPC   C1A15603   3.580  36.136   8.564
  990POPC   D2A15604   3.574  36.155   8.264
  990POPC   C3A15605   3.531  36.115   7.964
  990POPC   C4A15606   3.515  36.096   7.664
  990POPC   C1B15607   3.337  35.887   8.564
  990POPC   C2B15608   3.375  35.968   8.264
  990POPC   C3B15609   3.378  35.894   7.964
  990POPC   C4B15610   3.351  35.932   7.664
  991POPC   NC315611  40.761  39.236   9.464
  991POPC   PO415612  40.827  39.206   9.164
  991POPC   GL115613  40.736  39.246   8.864
  991POPC   GL215614  40.715  39.308   8.864
  991POPC   C1A15615  40.801  39.251   8.564
  991POPC   D2A15616  40.827  39.267   8.264
  991POPC   C3A15617  40.802  39.241   7.964
  991POPC   C4A15618  40.829  39.202   7.664
  991POPC   C1B15619  40.688  39.440   8.564
  991POPC   C2B15620  40.605  39.469   8.264
  991POPC   C3B15621  40.647  39.457   7.964
  991POPC   C4B15622  40.653  39.452   7.664
  992POPC   NC315623  43.073  43.081   9.464
  992POPC   PO415624  43.096  43.105   9.164
  992POPC   GL115625  43.094  43.090   8.864
  992POPC   GL215626  43.035  43.173   8.864
  992POPC   C1A15627  43.105  43.122   8.564
  992POPC   D2A15628  43.146  43.069   8.264
  992POPC   C3A15629  43.080  43.092   7.964
  992POPC   C4A15630  43.078  43.121   7.664
  992POPC   C1B15631  42.885  43.264   8.564
  992POPC   C2B15632  42.900  43.255   8.264
  992POPC   C3B15633  42.931  43.250   7.964
  992POPC   C4B15634  42.943  43.296   7.664
  993POPC   NC315635  34.553  38.442   9.464
  993POPC   PO415636  34.533  38.484   9.164
  993POPC   GL115637  34.613  38.463   8.864
  993POPC   GL215638  34.584  38.553   8.864
  993POPC   C1A15639  34.551  38.472   8.564
  993POPC   D2A15640  34.620  38.485   8.264
  993POPC   C3A15641  34.570  38.441   7.964
  993POPC   C4A15642  34.588  38.489   7.664
  993POPC   C1B15643  34.481  38.705   8.564
  993POPC   C2B15644  34.461  38.662   8.264
  993POPC   C3B15645  34.466  38.689   7.964
  993POPC   C4B15646  34.475  38.721   7.664
  994POPC   NC315647  19.797  27.603   9.464
  994POPC   PO415648  19.793  27.602   9.164
  994POPC   GL115649  19.801  27.597   8.864
  994POPC   GL215650  19.960  27.633   8.864
  994POPC   C1A15651  19.832  27.633   8.564
  994POPC   D2A15652  19.792  27.590   8.264
  994POPC   C3A15653  19.860  27.609   7.964
  994POPC   C4A15654  19.837  27.638   7.664
  994POPC   C1B15655  20.052  27.748   8.564
  994POPC   C2B15656  20.072  27.766   8.264
  994POPC   C3B15657  20.057  27.678   7.964
  994POPC   C4B15658  20.100  27.677   7.664
  995POPC   NC315659   2.806   0.431   9.464
  995POPC   PO415660   2.732   0.393   9.164
  995POPC   GL115661   2.770   0.469   8.864
  995POPC   GL215662   2.864   0.401   8.864
  995POPC   C1A15663   2.745   0.437   8.564
  995POPC   D2A15664   2.804   0.422   8.264
  995POPC   C3A15665   2.804   0.462   7.964
  995POPC   C4A15666   2.719   0.394   7.664
  995POPC   C1B15667   3.048   0.363   8.564
  995POPC   C2B15668   3.013   0.350   8.264
  995POPC   C3B15669   3.023   0.321   7.964
  995POPC   C4B15670   2.989   0.338   7.664
  996POPC   NC315671  12.061   9.705   9.464
  996POPC   PO415672  12.040   9.784   9.164
  996POPC   GL115673  12.064   9.788   8.864
  996POPC   GL215674  12.019   9.898   8.864
  996POPC   C1A15675  12.043   9.768   8.564
  996POPC   D2A15676  12.046   9.792   8.264
  996POPC   C3A15677  12.104   9.711   7.964
  996POPC   C4A15678  12.096   9.766   7.664
  996POPC   C1B15679  11.939  10.012   8.564
  996POPC   C2B15680  12.011   9.945   8.264
  996POPC   C3B15681  12.003   9.928   7.964
  996POPC   C4B15682  11.921   9.987   7.664
  997POPC   NC315683  13.609  22.919   9.464
  997POPC   PO415684  13.583  22.950   9.164
  997POPC   GL115685  13.634  22.927   8.864
  997POPC   GL215686  13.556  22.905   8.864
  997POPC   C1A15687  13.610  22.924   8.564
  997POPC   D2A15688  13.591  22.968   8.264
  997POPC   C3A15689  13.600  22.904   7.964
  997POPC   C4A15690  13.607  22.942   7.664
  997POPC   C1B15691  13.350  22.902   8.564
  997POPC   C2B15692  13.391  22.838   8.264
  997POPC   C3B15693  13.423  22.876   7.964
  997POPC   C4B15694  13.398  22.911   7.664
  998POPC   NC315695  32.279  32.284   9.464
  998POPC   PO415696  32.207  32.212   9.164
  998POPC   GL115697  32.242  32.242   8.864
  998POPC   GL215698  32.283  32.110   8.864
  998POPC   C1A15699  32.233  32.202   8.564
  998POPC   D2A15700  32.259  32.262   8.264
  998POPC   C3A15701  32.253  32.232   7.964
  998POPC   C4A15702  32.230  32.232   7.664
  998POPC   C1B15703  32.265  31.995   8.564
  998POPC   C2B15704  32.213  32.045   8.264
  998POPC   C3B15705  32.245  32.029   7.964
  998POPC   C4B15706  32.236  32.042   7.664
  999POPC   NC315707   8.147   6.671   9.464
  999POPC   PO415708   8.156   6.687   9.164
  999POPC   GL115709   8.225   6.641   8.864
  999POPC   GL215710   8.112   6.653   8.864
  999POPC   C1A15711   8.241   6.639   8.564
  999POPC   D2A15712   8.244   6.602   8.264
  999POPC   C3A15713   8.191   6.689   7.964
  999POPC   C4A15714   8.195   6.666   7.664
  999POPC   C1B15715   8.012   6.770   8.564
  999POPC   C2B15716   7.967   6.719   8.264
  999POPC   C3B15717   8.012   6.784   7.964
  999POPC   C4B15718   7.924   6.794   7.664
 1000POPC   NC315719  37.726  29.095   9.464
 1000POPC   PO415720  37.646  29.149   9.164
 1000POPC   GL115721  37.706  29.115   8.864
 1000POPC   GL215722  37.552  29.128   8.864
 1000POPC   C1A15723  37.714  29.122   8.564
 1000POPC   D2A15724  37.643  29.110   8.264
 1000POPC   C3A15725  37.692  29.160   7.964
 1000POPC   C4A15726  37.676  29.185   7.664
 1000POPC   C1B15727  37.405  29.199   8.564
 1000POPC   C2B15728  37.416  29.246   8.264
 1000POPC   C3B15729  37.469  29.221   7.964
 1000POPC   C4B15730  37.396  29.169   7.664
 1001POPC   NC315731  26.057  35.392   9.464
 1001POPC   PO415732  26.032  35.308   9.164
 1001POPC   GL115733  26.091  35.320   8.864
 1001POPC   GL215734  26.142  35.254   8.864
 1001POPC   C1A15735  26.003  35.385   8.564
 1001POPC   D2A15736  26.077  35.371   8.264
 1001POPC   C3A15737  26.085  35.373   7.964
 1001POPC   C4A15738  26.011  35.331   7.664
 1001POPC   C1B15739  26.221  35.172   8.564
 1001POPC   C2B15740  26.210  35.229   8.264
 1001POPC   C3B15741  26.267  35.179   7.964
 1001POPC   C4B15742  26.253  35.258   7.664
 1002POPC   NC315743  12.087  11.285   9.464
 1002POPC   PO415744  12.078  11.333   9.164
 1002POPC   GL115745  12.071  11.264   8.864
 1002POPC   GL215746  12.048  11.431   8.864
 1002POPC   C1A15747  12.106  11.296   8.564
 1002POPC   D2A15748  12.116  11.313   8.264
 1002POPC   C3A15749  12.110  11.315   7.964
 1002POPC   C4A15750  12.101  11.266   7.664
 1002POPC   C1B15751  12.102  11.583   8.564
 1002POPC   C2B15752  12.074  11.555   8.264
 1002POPC   C3B15753  12.067  11.506   7.964
 1002POPC   C4B15754  12.095  11.562   7.664
 1003POPC   NC315755  16.765  13.646   9.464
 1003POPC   PO415756  16.733  13.673   9.164
 1003POPC   GL115757  16.681  13.590   8.864
 1003POPC   GL215758  16.875  13.574   8.864
 1003POPC   C1A15759  16.685  13.619   8.564
 1003POPC   D2A15760  16.711  13.578   8.264
 1003POPC   C3A15761  16.738  13.640   7.964
 1003POPC   C4A15762  16.763  13.620   7.664
 1003POPC   C1B15763  16.942  13.504   8.564
 1003POPC   C2B15764  16.955  13.493   8.264
 1003POPC   C3B15765  16.917  13.464   7.964
 1003POPC   C4B15766  16.946  13.472   7.664
 1004POPC   NC315767  32.214  29.151   9.464
 1004POPC   PO415768  32.252  29.100   9.164
 1004POPC   GL115769  32.292  29.134   8.864
 1004POPC   GL215770  32.208  29.311   8.864
 1004POPC   C1A15771  32.226  29.168   8.564
 1004POPC   D2A15772  32.280  29.105   8.264
 1004POPC   C3A15773  32.225  29.180   7.964
 1004POPC   C4A15774  32.209  29.143   7.664
 1004POPC   C1B15775  32.295  29.440   8.564
 1004POPC   C2B15776  32.258  29.423   8.264
 1004POPC   C3B15777  32.269  29.417   7.964
 1004POPC   C4B15778  32.227  29.418   7.664
 1005POPC   NC315779   1.250  27.565   9.464
 1005POPC   PO415780   1.225  27.594   9.164
 1005POPC   GL115781   1.251  27.576   8.864
 1005POPC   GL215782   1.330  27.522   8.864
 1005POPC   C1A15783   1.221  27.629   8.564
 1005POPC   D2A15784   1.191  27.628   8.264
 1005POPC   C3A15785   1.236  27.584   7.964
 1005POPC   C4A15786   1.230  27.558   7.664
 1005POPC   C1B15787   1.390  27.478   8.564
 1005POPC   C2B15788   1.449  27.456   8.264
 1005POPC   C3B15789   1.384  27.411   7.964
 1005POPC   C4B15790   1.361  27.469   7.664
 1006POPC   NC315791  18.309  16.002   9.464
 1006POPC   PO415792  18.253  15.933   9.164
 1006POPC   GL115793  18.276  16.002   8.864
 1006POPC   GL215794  18.445  15.967   8.864
 1006POPC   C1A15795  18.257  15.954   8.564
 1006POPC   D2A15796  18.245  15.942   8.264
 1006POPC   C3A15797  18.277  15.943   7.964
 1006POPC   C4A15798  18.302  15.921   7.664
 1006POPC   C1B15799  18.573  15.924   8.564
 1006POPC   C2B15800  18.564  15.982   8.264
 1006POPC   C3B15801  18.494  15.924   7.964
 1006POPC   C4B15802  18.578  15.981   7.664
 1007POPC   NC315803  31.460  26.807   9.464
 1007POPC   PO415804  31.509  26.832   9.164
 1007POPC   GL115805  31.434  26.805   8.864
 1007POPC   GL215806  31.394  26.891   8.864
 1007POPC   C1A15807  31.482  26.834   8.564
 1007POPC   D2A15808  31.455  26.817   8.264
 1007POPC   C3A15809  31.458  26.846   7.964
 1007POPC   C4A15810  31.437  26.815   7.664
 1007POPC   C1B15811  31.264  26.961   8.564
 1007POPC   C2B15812  31.256  26.953   8.264
 1007POPC   C3B15813  31.287  26.912   7.964
 1007POPC   C4B15814  31.274  26.907   7.664
 1008POPC   NC315815  21.409  34.535   9.464
 1008POPC   PO415816  21.376  34.612   9.164
 1008POPC   GL115817  21.427  34.583   8.864
 1008POPC   GL215818  21.338  34.748   8.864
 1008POPC   C1A15819  21.362  34.537   8.564
 1008POPC   D2A15820  21.436  34.605   8.264
 1008POPC   C3A15821  21.427  34.612   7.964
 1008POPC   C4A15822  21.358  34.593   7.664
 1008POPC   C1B15823  21.344  34.808   8.564
 1008POPC   C2B15824  21.352  34.822   8.264
 1008POPC   C3B15825  21.371  34.842   7.964
 1008POPC   C4B15826  21.380  34.869   7.664
 1009POPC   NC315827   1.992  32.295   9.464
 1009POPC   PO415828   1.982  32.212   9.164
 1009POPC   GL115829   1.960  32.242   8.864
 1009POPC   GL215830   2.040  32.109   8.864
 1009POPC   C1A15831   1.951  32.251   8.564
 1009POPC   D2A15832   2.007  32.218   8.264
 1009POPC   C3A15833   2.022  32.229   7.964
 1009POPC   C4A15834   1.944  32.240   7.664
 1009POPC   C1B15835   1.987  32.000   8.564
 1009POPC   C2B15836   2.008  31.970   8.264
 1009POPC   C3B15837   1.982  32.017   7.964
 1009POPC   C4B15838   2.029  32.027   7.664
 1010POPC   NC315839  12.850  19.083   9.464
 1010POPC   PO415840  12.829  19.090   9.164
 1010POPC   GL115841  12.833  19.032   8.864
 1010POPC   GL215842  12.832  18.949   8.864
 1010POPC   C1A15843  12.802  19.105   8.564
 1010POPC   D2A15844  12.831  19.019   8.264
 1010POPC   C3A15845  12.865  19.056   7.964
 1010POPC   C4A15846  12.895  19.034   7.664
 1010POPC   C1B15847  12.898  18.856   8.564
 1010POPC   C2B15848  12.929  18.801   8.264
 1010POPC   C3B15849  12.878  18.807   7.964
 1010POPC   C4B15850  12.941  18.855   7.664
 1011POPC   NC315851  39.247  29.956   9.464
 1011POPC   PO415852  39.205  29.891   9.164
 1011POPC   GL115853  39.276  29.939   8.864
 1011POPC   GL215854  39.196  29.757   8.864
 1011POPC   C1A15855  39.254  29.891   8.564
 1011POPC   D2A15856  39.269  29.912   8.264
 1011POPC   C3A15857  39.256  29.918   7.964
 1011POPC   C4A15858  39.243  29.885   7.664
 1011POPC   C1B15859  39.147  29.647   8.564
 1011POPC   C2B15860  39.172  29.683   8.264
 1011POPC   C3B15861  39.154  29.665   7.964
 1011POPC   C4B15862  39.211  29.662   7.664
 1012POPC   NC315863  22.167  34.541   9.464
 1012POPC   PO415864  22.143  34.535   9.164
 1012POPC   GL115865  22.205  34.584   8.864
 1012POPC   GL215866  22.273  34.589   8.864
 1012POPC   C1A15867  22.171  34.603   8.564
 1012POPC   D2A15868  22.119  34.543   8.264
 1012POPC   C3A15869  22.163  34.548   7.964
 1012POPC   C4A15870  22.123  34.610   7.664
 1012POPC   C1B15871  22.404  34.580   8.564
 1012POPC   C2B15872  22.398  34.582   8.264
 1012POPC   C3B15873  22.413  34.655   7.964
 1012POPC   C4B15874  22.369  34.667   7.664
 1013POPC   NC315875   5.894  43.882   9.464
 1013POPC   PO415876   5.876  43.876   9.164
 1013POPC   GL115877   5.918  43.920   8.864
 1013POPC   GL215878   5.764  43.882   8.864
 1013POPC   C1A15879   5.852  43.890   8.564
 1013POPC   D2A15880   5.844  43.883   8.264
 1013POPC   C3A15881   5.908  43.869   7.964
 1013POPC   C4A15882   5.845  43.924   7.664
 1013POPC   C1B15883   5.578  43.875   8.564
 1013POPC   C2B15884   5.650  43.808   8.264
 1013POPC   C3B15885   5.643  43.816   7.964
 1013POPC   C4B15886   5.625  43.856   7.664
 1014POPC   NC315887  15.974  42.290   9.464
 1014POPC   PO415888  15.918  42.314   9.164
 1014POPC   GL115889  15.973  42.341   8.864
 1014POPC   GL215890  15.802  42.283   8.864
 1014POPC   C1A15891  15.960  42.368   8.564
 1014POPC   D2A15892  15.953  42.350   8.264
 1014POPC   C3A15893  15.999  42.357   7.964
 1014POPC   C4A15894  15.996  42.342   7.664
 1014POPC   C1B15895  15.682  42.297   8.564
 1014POPC   C2B15896  15.670  42.250   8.264
 1014POPC   C3B15897  15.675  42.216   7.964
 1014POPC   C4B15898  15.695  42.283   7.664
 1015POPC   NC315899   7.408  41.526   9.464
 1015POPC   PO415900   7.421  41.570   9.164
 1015POPC   GL115901   7.421  41.564   8.864
 1015POPC   GL215902   7.524  41.492   8.864
 1015POPC   C1A15903   7.440  41.525   8.564
 1015POPC   D2A15904   7.435  41.559   8.264
 1015POPC   C3A15905   7.417  41.605   7.964
 1015POPC   C4A15906   7.371  41.584   7.664
 1015POPC   C1B15907   7.629  41.445   8.564
 1015POPC   C2B15908   7.644  41.496   8.264
 1015POPC   C3B15909   7.684  41.494   7.964
 1015POPC   C4B15910   7.673  41.510   7.664
 1016POPC   NC315911  12.819  10.499   9.464
 1016POPC   PO415912  12.813  10.500   9.164
 1016POPC   GL115913  12.850  10.543   8.864
 1016POPC   GL215914  12.827  10.613   8.864
 1016POPC   C1A15915  12.866  10.550   8.564
 1016POPC   D2A15916  12.824  10.498   8.264
 1016POPC   C3A15917  12.812  10.527   7.964
 1016POPC   C4A15918  12.814  10.503   7.664
 1016POPC   C1B15919  12.832  10.793   8.564
 1016POPC   C2B15920  12.793  10.754   8.264
 1016POPC   C3B15921  12.790  10.755   7.964
 1016POPC   C4B15922  12.824  10.786   7.664
 1017POPC   NC315923  15.206  23.667   9.464
 1017POPC   PO415924  15.223  23.758   9.164
 1017POPC   GL115925  15.150  23.736   8.864
 1017POPC   GL215926  15.103  23.638   8.864
 1017POPC   C1A15927  15.151  23.747   8.564
 1017POPC   D2A15928  15.213  23.729   8.264
 1017POPC   C3A15929  15.152  23.710   7.964
 1017POPC   C4A15930  15.195  23.744   7.664
 1017POPC   C1B15931  14.998  23.668   8.564
 1017POPC   C2B15932  14.946  23.663   8.264
 1017POPC   C3B15933  14.939  23.614   7.964
 1017POPC   C4B15934  14.937  23.667   7.664
 1018POPC   NC315935  32.207  42.321   9.464
 1018POPC   PO415936  32.237  42.309   9.164
 1018POPC   GL115937  32.269  42.299   8.864
 1018POPC   GL215938  32.127  42.337   8.864
 1018POPC   C1A15939  32.245  42.327   8.564
 1018POPC   D2A15940  32.291  42.317   8.264
 1018POPC   C3A15941  32.236  42.360   7.964
 1018POPC   C4A15942  32.261  42.355   7.664
 1018POPC   C1B15943  32.017  42.376   8.564
 1018POPC   C2B15944  31.997  42.330   8.264
 1018POPC   C3B15945  32.024  42.367   7.964
 1018POPC   C4B15946  32.040  42.355   7.664
 1019POPC   NC315947  16.768  17.482   9.464
 1019POPC   PO415948  16.748  17.483   9.164
 1019POPC   GL115949  16.698  17.469   8.864
 1019POPC   GL215950  16.841  17.470   8.864
 1019POPC   C1A15951  16.685  17.499   8.564
 1019POPC   D2A15952  16.777  17.540   8.264
 1019POPC   C3A15953  16.690  17.553   7.964
 1019POPC   C4A15954  16.769  17.520   7.664
 1019POPC   C1B15955  16.971  17.440   8.564
 1019POPC   C2B15956  16.971  17.409   8.264
 1019POPC   C3B15957  17.008  17.439   7.964
 1019POPC   C4B15958  16.914  17.365   7.664
 1020POPC   NC315959   7.432  12.853   9.464
 1020POPC   PO415960   7.420  12.833   9.164
 1020POPC   GL115961   7.434  12.866   8.864
 1020POPC   GL215962   7.486  12.785   8.864
 1020POPC   C1A15963   7.433  12.878   8.564
 1020POPC   D2A15964   7.435  12.807   8.264
 1020POPC   C3A15965   7.403  12.850   7.964
 1020POPC   C4A15966   7.405  12.834   7.664
 1020POPC   C1B15967   7.594  12.739   8.564
 1020POPC   C2B15968   7.644  12.747   8.264
 1020POPC   C3B15969   7.676  12.757   7.964
 1020POPC   C4B15970   7.585  12.742   7.664
 1021POPC   NC315971  22.128   5.843   9.464
 1021POPC   PO415972  22.136   5.836   9.164
 1021POPC   GL115973  22.186   5.852   8.864
 1021POPC   GL215974  22.160   5.709   8.864
 1021POPC   C1A15975  22.155   5.841   8.564
 1021POPC   D2A15976  22.144   5.880   8.264
 1021POPC   C3A15977  22.167   5.883   7.964
 1021POPC   C4A15978  22.189   5.861   7.664
 1021POPC   C1B15979  22.143   5.599   8.564
 1021POPC   C2B15980  22.148   5.582   8.264
 1021POPC   C3B15981  22.118   5.668   7.964
 1021POPC   C4B15982  22.091   5.591   7.664
 1022POPC   NC315983  16.758  29.970   9.464
 1022POPC   PO415984  16.741  29.969   9.164
 1022POPC   GL115985  16.739  29.969   8.864
 1022POPC   GL215986  16.639  29.948   8.864
 1022POPC   C1A15987  16.743  29.919   8.564
 1022POPC   D2A15988  16.684  29.951   8.264
 1022POPC   C3A15989  16.710  29.931   7.964
 1022POPC   C4A15990  16.703  29.956   7.664
 1022POPC   C1B15991  16.510  29.965   8.564
 1022POPC   C2B15992  16.491  29.974   8.264
 1022POPC   C3B15993  16.448  29.934   7.964
 1022POPC   C4B15994  16.463  29.964   7.664
 1023POPC   NC315995  24.473  21.409   9.464
 1023POPC   PO415996  24.446  21.377   9.164
 1023POPC   GL115997  24.530  21.337   8.864
 1023POPC   GL215998  24.392  21.419   8.864
 1023POPC   C1A15999  24.489  21.381   8.564
 1023POPC   D2A16000  24.483  21.340   8.264
 1023POPC   C3A16001  24.458  21.396   7.964
 1023POPC   C4A16002  24.444  21.433   7.664
 1023POPC   C1B16003  24.252  21.413   8.564
 1023POPC   C2B16004  24.275  21.372   8.264
 1023POPC   C3B16005  24.285  21.430   7.964
 1023POPC   C4B16006  24.207  21.438   7.664
 1024POPC   NC316007  33.833  29.960   9.464
 1024POPC   PO416008  33.797  29.906   9.164
 1024POPC   GL116009  33.758  29.893   8.864
 1024POPC   GL216010  33.684  30.039   8.864
 1024POPC   C1A16011  33.779  29.939   8.564
 1024POPC   D2A16012  33.780  29.948   8.264
 1024POPC   C3A16013  33.807  29.941   7.964
 1024POPC   C4A16014  33.821  29.900   7.664
 1024POPC   C1B16015  33.578  30.048   8.564
 1024POPC   C2B16016  33.648  30.047   8.264
 1024POPC   C3B16017  33.603  30.070   7.964
 1024POPC   C4B16018  33.576  30.026   7.664
 1025POPC   NC316019  26.076  43.879   9.464
 1025POPC   PO416020  26.071  43.865   9.164
 1025POPC   GL116021  26.008  43.887   8.864
 1025POPC   GL216022  25.922  43.801   8.864
 1025POPC   C1A16023  26.084  43.913   8.564
 1025POPC   D2A16024  26.083  43.892   8.264
 1025POPC   C3A16025  26.067  43.899   7.964
 1025POPC   C4A16026  26.056  43.899   7.664
 1025POPC   C1B16027  25.880  43.709   8.564
 1025POPC   C2B16028  25.907  43.703   8.264
 1025POPC   C3B16029  25.848  43.730   7.964
 1025POPC   C4B16030  25.860  43.700   7.664
 1026POPC   NC316031  19.057   9.759   9.464
 1026POPC   PO416032  19.087   9.711   9.164
 1026POPC   GL116033  19.094   9.735   8.864
 1026POPC   GL216034  19.028   9.850   8.864
 1026POPC   C1A16035  19.034   9.769   8.564
 1026POPC   D2A16036  19.098   9.699   8.264
 1026POPC   C3A16037  19.094   9.706   7.964
 1026POPC   C4A16038  19.056   9.773   7.664
 1026POPC   C1B16039  18.924   9.958   8.564
 1026POPC   C2B16040  18.949   9.928   8.264
 1026POPC   C3B16041  18.959   9.976   7.964
 1026POPC   C4B16042  18.872   9.948   7.664
 1027POPC   NC316043  38.479  20.648   9.464
 1027POPC   PO416044  38.471  20.566   9.164
 1027POPC   GL116045  38.492  20.615   8.864
 1027POPC   GL216046  38.377  20.517   8.864
 1027POPC   C1A16047  38.440  20.588   8.564
 1027POPC   D2A16048  38.426  20.571   8.264
 1027POPC   C3A16049  38.458  20.614   7.964
 1027POPC   C4A16050  38.491  20.575   7.664
 1027POPC   C1B16051  38.309  20.437   8.564
 1027POPC   C2B16052  38.276  20.406   8.264
 1027POPC   C3B16053  38.324  20.403   7.964
 1027POPC   C4B16054  38.320  20.384   7.664
 1028POPC   NC316055  29.171  36.892   9.464
 1028POPC   PO416056  29.095  36.863   9.164
 1028POPC   GL116057  29.139  36.899   8.864
 1028POPC   GL216058  29.195  36.766   8.864
 1028POPC   C1A16059  29.116  36.872   8.564
 1028POPC   D2A16060  29.101  36.912   8.264
 1028POPC   C3A16061  29.173  36.953   7.964
 1028POPC   C4A16062  29.145  36.879   7.664
 1028POPC   C1B16063  29.299  36.699   8.564
 1028POPC   C2B16064  29.266  36.683   8.264
 1028POPC   C3B16065  29.302  36.689   7.964
 1028POPC   C4B16066  29.281  36.705   7.664
 1029POPC   NC316067  25.313  23.682   9.464
 1029POPC   PO416068  25.266  23.693   9.164
 1029POPC   GL116069  25.278  23.673   8.864
 1029POPC   GL216070  25.138  23.681   8.864
 1029POPC   C1A16071  25.263  23.677   8.564
 1029POPC   D2A16072  25.277  23.703   8.264
 1029POPC   C3A16073  25.307  23.721   7.964
 1029POPC   C4A16074  25.268  23.718   7.664
 1029POPC   C1B16075  25.027  23.601   8.564
 1029POPC   C2B16076  25.046  23.570   8.264
 1029POPC   C3B16077  25.034  23.600   7.964
 1029POPC   C4B16078  25.110  23.574   7.664
 1030POPC   NC316079  24.535  33.834   9.464
 1030POPC   PO416080  24.447  33.797   9.164
 1030POPC   GL116081  24.519  33.757   8.864
 1030POPC   GL216082  24.594  33.812   8.864
 1030POPC   C1A16083  24.500  33.769   8.564
 1030POPC   D2A16084  24.523  33.807   8.264
 1030POPC   C3A16085  24.445  33.769   7.964
 1030POPC   C4A16086  24.532  33.802   7.664
 1030POPC   C1B16087  24.686  33.847   8.564
 1030POPC   C2B16088  24.688  33.943   8.264
 1030POPC   C3B16089  24.696  33.931   7.964
 1030POPC   C4B16090  24.755  33.892   7.664
 1031POPC   NC316091  28.323  12.069   9.464
 1031POPC   PO416092  28.321  12.073   9.164
 1031POPC   GL116093  28.374  12.086   8.864
 1031POPC   GL216094  28.272  12.032   8.864
 1031POPC   C1A16095  28.330  12.107   8.564
 1031POPC   D2A16096  28.356  12.083   8.264
 1031POPC   C3A16097  28.351  12.056   7.964
 1031POPC   C4A16098  28.369  12.032   7.664
 1031POPC   C1B16099  28.164  12.003   8.564
 1031POPC   C2B16100  28.177  11.941   8.264
 1031POPC   C3B16101  28.103  11.920   7.964
 1031POPC   C4B16102  28.154  11.958   7.664
 1032POPC   NC316103  36.929  43.080   9.464
 1032POPC   PO416104  36.863  43.076   9.164
 1032POPC   GL116105  36.875  43.065   8.864
 1032POPC   GL216106  36.980  43.244   8.864
 1032POPC   C1A16107  36.934  43.091   8.564
 1032POPC   D2A16108  36.940  43.160   8.264
 1032POPC   C3A16109  36.891  43.124   7.964
 1032POPC   C4A16110  36.906  43.097   7.664
 1032POPC   C1B16111  37.063  43.293   8.564
 1032POPC   C2B16112  37.053  43.341   8.264
 1032POPC   C3B16113  37.040  43.348   7.964
 1032POPC   C4B16114  37.087  43.289   7.664
 1033POPC   NC316115  26.075   2.766   9.464
 1033POPC   PO416116  26.044   2.762   9.164
 1033POPC   GL116117  25.998   2.803   8.864
 1033POPC   GL216118  25.967   2.917   8.864
 1033POPC   C1A16119  26.019   2.745   8.564
 1033POPC   D2A16120  26.028   2.753   8.264
 1033POPC   C3A16121  26.003   2.774   7.964
 1033POPC   C4A16122  26.051   2.753   7.664
 1033POPC   C1B16123  26.021   3.018   8.564
 1033POPC   C2B16124  25.971   3.015   8.264
 1033POPC   C3B16125  26.004   2.974   7.964
 1033POPC   C4B16126  25.943   2.997   7.664
 1034POPC   NC316127   7.391  40.777   9.464
 1034POPC   PO416128   7.406  40.803   9.164
 1034POPC   GL116129   7.445  40.828   8.864
 1034POPC   GL216130   7.350  40.838   8.864
 1034POPC   C1A16131   7.402  40.785   8.564
 1034POPC   D2A16132   7.443  40.761   8.264
 1034POPC   C3A16133   7.389  40.833   7.964
 1034POPC   C4A16134   7.443  40.760   7.664
 1034POPC   C1B16135   7.180  40.943   8.564
 1034POPC   C2B16136   7.192  40.869   8.264
 1034POPC   C3B16137   7.231  40.911   7.964
 1034POPC   C4B16138   7.243  40.872   7.664
 1035POPC   NC316139  15.154  25.228   9.464
 1035POPC   PO416140  15.133  25.239   9.164
 1035POPC   GL116141  15.211  25.238   8.864
 1035POPC   GL216142  15.201  25.414   8.864
 1035POPC   C1A16143  15.164  25.285   8.564
 1035POPC   D2A16144  15.139  25.275   8.264
 1035POPC   C3A16145  15.143  25.288   7.964
 1035POPC   C4A16146  15.170  25.285   7.664
 1035POPC   C1B16147  15.219  25.492   8.564
 1035POPC   C2B16148  15.225  25.456   8.264
 1035POPC   C3B16149  15.290  25.527   7.964
 1035POPC   C4B16150  15.298  25.455   7.664
 1036POPC   NC316151  41.531  15.949   9.464
 1036POPC   PO416152  41.574  15.963   9.164
 1036POPC   GL116153  41.601  15.989   8.864
 1036POPC   GL216154  41.545  16.105   8.864
 1036POPC   C1A16155  41.567  15.937   8.564
 1036POPC   D2A16156  41.596  15.980   8.264
 1036POPC   C3A16157  41.519  15.997   7.964
 1036POPC   C4A16158  41.587  15.969   7.664
 1036POPC   C1B16159  41.563  16.225   8.564
 1036POPC   C2B16160  41.646  16.160   8.264
 1036POPC   C3B16161  41.628  16.207   7.964
 1036POPC   C4B16162  41.595  16.152   7.664
 1037POPC   NC316163   5.136  35.327   9.464
 1037POPC   PO416164   5.077  35.319   9.164
 1037POPC   GL116165   5.117  35.391   8.864
 1037POPC   GL216166   5.210  35.331   8.864
 1037POPC   C1A16167   5.116  35.360   8.564
 1037POPC   D2A16168   5.127  35.395   8.264
 1037POPC   C3A16169   5.050  35.306   7.964
 1037POPC   C4A16170   5.116  35.366   7.664
 1037POPC   C1B16171   5.353  35.173   8.564
 1037POPC   C2B16172   5.298  35.231   8.264
 1037POPC   C3B16173   5.257  35.258   7.964
 1037POPC   C4B16174   5.328  35.262   7.664
 1038POPC   NC316175   3.542  17.548   9.464
 1038POPC   PO416176   3.544  17.495   9.164
 1038POPC   GL116177   3.524  17.460   8.864
 1038POPC   GL216178   3.474  17.387   8.864
 1038POPC   C1A16179   3.569  17.499   8.564
 1038POPC   D2A16180   3.508  17.540   8.264
 1038POPC   C3A16181   3.509  17.491   7.964
 1038POPC   C4A16182   3.518  17.522   7.664
 1038POPC   C1B16183   3.371  17.364   8.564
 1038POPC   C2B16184   3.350  17.281   8.264
 1038POPC   C3B16185   3.382  17.287   7.964
 1038POPC   C4B16186   3.354  17.282   7.664
 1039POPC   NC316187   0.477   1.980   9.464
 1039POPC   PO416188   0.456   2.009   9.164
 1039POPC   GL116189   0.410   1.943   8.864
 1039POPC   GL216190   0.330   1.874   8.864
 1039POPC   C1A16191   0.448   1.982   8.564
 1039POPC   D2A16192   0.388   1.951   8.264
 1039POPC   C3A16193   0.442   2.026   7.964
 1039POPC   C4A16194   0.470   1.963   7.664
 1039POPC   C1B16195   0.240   1.859   8.564
 1039POPC   C2B16196   0.236   1.799   8.264
 1039POPC   C3B16197   0.280   1.855   7.964
 1039POPC   C4B16198   0.287   1.848   7.664
 1040POPC   NC316199  29.172   2.755   9.464
 1040POPC   PO416200  29.181   2.772   9.164
 1040POPC   GL116201  29.121   2.787   8.864
 1040POPC   GL216202  29.240   2.919   8.864
 1040POPC   C1A16203  29.158   2.754   8.564
 1040POPC   D2A16204  29.150   2.804   8.264
 1040POPC   C3A16205  29.191   2.761   7.964
 1040POPC   C4A16206  29.148   2.782   7.664
 1040POPC   C1B16207  29.232   3.023   8.564
 1040POPC   C2B16208  29.253   3.043   8.264
 1040POPC   C3B16209  29.289   2.950   7.964
 1040POPC   C4B16210  29.290   3.025   7.664
 1041POPC   NC316211   7.451  22.125   9.464
 1041POPC   PO416212   7.453  22.207   9.164
 1041POPC   GL116213   7.381  22.119   8.864
 1041POPC   GL216214   7.558  22.052   8.864
 1041POPC   C1A16215   7.404  22.155   8.564
 1041POPC   D2A16216   7.446  22.204   8.264
 1041POPC   C3A16217   7.438  22.159   7.964
 1041POPC   C4A16218   7.401  22.143   7.664
 1041POPC   C1B16219   7.663  22.016   8.564
 1041POPC   C2B16220   7.653  22.082   8.264
 1041POPC   C3B16221   7.679  22.086   7.964
 1041POPC   C4B16222   7.592  22.051   7.664
 1042POPC   NC316223  41.517  33.768   9.464
 1042POPC   PO416224  41.559  33.782   9.164
 1042POPC   GL116225  41.571  33.817   8.864
 1042POPC   GL216226  41.490  33.917   8.864
 1042POPC   C1A16227  41.599  33.831   8.564
 1042POPC   D2A16228  41.516  33.799   8.264
 1042POPC   C3A16229  41.589  33.774   7.964
 1042POPC   C4A16230  41.538  33.751   7.664
 1042POPC   C1B16231  41.497  34.003   8.564
 1042POPC   C2B16232  41.460  34.092   8.264
 1042POPC   C3B16233  41.461  34.069   7.964
 1042POPC   C4B16234  41.485  34.066   7.664
 1043POPC   NC316235   5.886  43.083   9.464
 1043POPC   PO416236   5.866  43.152   9.164
 1043POPC   GL116237   5.914  43.108   8.864
 1043POPC   GL216238   5.763  43.205   8.864
 1043POPC   C1A16239   5.883  43.089   8.564
 1043POPC   D2A16240   5.835  43.141   8.264
 1043POPC   C3A16241   5.908  43.157   7.964
 1043POPC   C4A16242   5.821  43.094   7.664
 1043POPC   C1B16243   5.789  43.353   8.564
 1043POPC   C2B16244   5.709  43.294   8.264
 1043POPC   C3B16245   5.723  43.368   7.964
 1043POPC   C4B16246   5.706  43.375   7.664
 1044POPC   NC316247  15.170  33.037   9.464
 1044POPC   PO416248  15.198  33.042   9.164
 1044POPC   GL116249  15.191  33.074   8.864
 1044POPC   GL216250  15.115  33.138   8.864
 1044POPC   C1A16251  15.153  33.027   8.564
 1044POPC   D2A16252  15.206  33.017   8.264
 1044POPC   C3A16253  15.228  33.033   7.964
 1044POPC   C4A16254  15.144  32.992   7.664
 1044POPC   C1B16255  14.976  33.201   8.564
 1044POPC   C2B16256  14.974  33.186   8.264
 1044POPC   C3B16257  15.045  33.224   7.964
 1044POPC   C4B16258  14.992  33.229   7.664
 1045POPC   NC316259   6.642  14.450   9.464
 1045POPC   PO416260   6.672  14.398   9.164
 1045POPC   GL116261   6.664  14.393   8.864
 1045POPC   GL216262   6.567  14.403   8.864
 1045POPC   C1A16263   6.599  14.362   8.564
 1045POPC   D2A16264   6.607  14.387   8.264
 1045POPC   C3A16265   6.668  14.395   7.964
 1045POPC   C4A16266   6.657  14.406   7.664
 1045POPC   C1B16267   6.371  14.376   8.564
 1045POPC   C2B16268   6.382  14.414   8.264
 1045POPC   C3B16269   6.397  14.379   7.964
 1045POPC   C4B16270   6.347  14.413   7.664
 1046POPC   NC316271  10.480  22.146   9.464
 1046POPC   PO416272  10.475  22.195   9.164
 1046POPC   GL116273  10.520  22.198   8.864
 1046POPC   GL216274  10.533  22.266   8.864
 1046POPC   C1A16275  10.524  22.160   8.564
 1046POPC   D2A16276  10.532  22.160   8.264
 1046POPC   C3A16277  10.533  22.147   7.964
 1046POPC   C4A16278  10.541  22.207   7.664
 1046POPC   C1B16279  10.616  22.387   8.564
 1046POPC   C2B16280  10.575  22.392   8.264
 1046POPC   C3B16281  10.650  22.420   7.964
 1046POPC   C4B16282  10.634  22.402   7.664
 1047POPC   NC316283  21.346  33.016   9.464
 1047POPC   PO416284  21.408  32.988   9.164
 1047POPC   GL116285  21.367  32.976   8.864
 1047POPC   GL216286  21.469  32.984   8.864
 1047POPC   C1A16287  21.383  33.036   8.564
 1047POPC   D2A16288  21.429  33.002   8.264
 1047POPC   C3A16289  21.378  33.001   7.964
 1047POPC   C4A16290  21.364  33.026   7.664
 1047POPC   C1B16291  21.629  32.921   8.564
 1047POPC   C2B16292  21.635  32.904   8.264
 1047POPC   C3B16293  21.617  32.878   7.964
 1047POPC   C4B16294  21.602  32.899   7.664
 1048POPC   NC316295   0.400  12.853   9.464
 1048POPC   PO416296   0.441  12.872   9.164
 1048POPC   GL116297   0.455  12.842   8.864
 1048POPC   GL216298   0.546  12.887   8.864
 1048POPC   C1A16299   0.453  12.842   8.564
 1048POPC   D2A16300   0.436  12.844   8.264
 1048POPC   C3A16301   0.479  12.890   7.964
 1048POPC   C4A16302   0.434  12.855   7.664
 1048POPC   C1B16303   0.675  12.860   8.564
 1048POPC   C2B16304   0.663  12.791   8.264
 1048POPC   C3B16305   0.657  12.825   7.964
 1048POPC   C4B16306   0.667  12.845   7.664
 1049POPC   NC316307  22.187  10.559   9.464
 1049POPC   PO416308  22.114  10.497   9.164
 1049POPC   GL116309  22.180  10.475   8.864
 1049POPC   GL216310  22.144  10.412   8.864
 1049POPC   C1A16311  22.151  10.546   8.564
 1049POPC   D2A16312  22.188  10.534   8.264
 1049POPC   C3A16313  22.159  10.569   7.964
 1049POPC   C4A16314  22.117  10.570   7.664
 1049POPC   C1B16315  22.162  10.272   8.564
 1049POPC   C2B16316  22.132  10.250   8.264
 1049POPC   C3B16317  22.143  10.288   7.964
 1049POPC   C4B16318  22.118  10.250   7.664
 1050POPC   NC316319  12.042  22.186   9.464
 1050POPC   PO416320  12.052  22.140   9.164
 1050POPC   GL116321  12.076  22.168   8.864
 1050POPC   GL216322  12.141  22.056   8.864
 1050POPC   C1A16323  12.103  22.197   8.564
 1050POPC   D2A16324  12.072  22.181   8.264
 1050POPC   C3A16325  12.107  22.116   7.964
 1050POPC   C4A16326  12.040  22.139   7.664
 1050POPC   C1B16327  12.257  22.036   8.564
 1050POPC   C2B16328  12.266  22.035   8.264
 1050POPC   C3B16329  12.234  21.978   7.964
 1050POPC   C4B16330  12.267  22.027   7.664
 1051POPC   NC316331  36.088  39.273   9.464
 1051POPC   PO416332  36.107  39.216   9.164
 1051POPC   GL116333  36.140  39.268   8.864
 1051POPC   GL216334  36.120  39.092   8.864
 1051POPC   C1A16335  36.125  39.207   8.564
 1051POPC   D2A16336  36.168  39.189   8.264
 1051POPC   C3A16337  36.111  39.257   7.964
 1051POPC   C4A16338  36.091  39.205   7.664
 1051POPC   C1B16339  36.169  38.965   8.564
 1051POPC   C2B16340  36.207  39.033   8.264
 1051POPC   C3B16341  36.173  38.959   7.964
 1051POPC   C4B16342  36.161  39.021   7.664
 1052POPC   NC316343  36.121  25.257   9.464
 1052POPC   PO416344  36.169  25.296   9.164
 1052POPC   GL116345  36.110  25.275   8.864
 1052POPC   GL216346  36.244  25.231   8.864
 1052POPC   C1A16347  36.152  25.226   8.564
 1052POPC   D2A16348  36.139  25.230   8.264
 1052POPC   C3A16349  36.094  25.283   7.964
 1052POPC   C4A16350  36.120  25.257   7.664
 1052POPC   C1B16351  36.368  25.271   8.564
 1052POPC   C2B16352  36.420  25.306   8.264
 1052POPC   C3B16353  36.396  25.323   7.964
 1052POPC   C4B16354  36.332  25.327   7.664
 1053POPC   NC316355  24.534  33.048   9.464
 1053POPC   PO416356  24.470  32.975   9.164
 1053POPC   GL116357  24.533  33.039   8.864
 1053POPC   GL216358  24.354  33.123   8.864
 1053POPC   C1A16359  24.510  33.054   8.564
 1053POPC   D2A16360  24.440  33.024   8.264
 1053POPC   C3A16361  24.509  33.009   7.964
 1053POPC   C4A16362  24.470  33.013   7.664
 1053POPC   C1B16363  24.222  33.116   8.564
 1053POPC   C2B16364  24.244  33.179   8.264
 1053POPC   C3B16365  24.259  33.107   7.964
 1053POPC   C4B16366  24.307  33.099   7.664
 1054POPC   NC316367  38.452  44.677   9.464
 1054POPC   PO416368  38.430  44.704   9.164
 1054POPC   GL116369  38.464  44.633   8.864
 1054POPC   GL216370  38.536  44.563   8.864
 1054POPC   C1A16371  38.428  44.653   8.564
 1054POPC   D2A16372  38.438  44.650   8.264
 1054POPC   C3A16373  38.442  44.684   7.964
 1054POPC   C4A16374  38.434  44.651   7.664
 1054POPC   C1B16375  38.603  44.510   8.564
 1054POPC   C2B16376  38.559  44.454   8.264
 1054POPC   C3B16377  38.612  44.498   7.964
 1054POPC   C4B16378  38.638  44.512   7.664
 1055POPC   NC316379  32.257  41.583   9.464
 1055POPC   PO416380  32.279  41.549   9.164
 1055POPC   GL116381  32.260  41.585   8.864
 1055POPC   GL216382  32.197  41.696   8.864
 1055POPC   C1A16383  32.201  41.524   8.564
 1055POPC   D2A16384  32.248  41.526   8.264
 1055POPC   C3A16385  32.222  41.523   7.964
 1055POPC   C4A16386  32.253  41.526   7.664
 1055POPC   C1B16387  32.193  41.745   8.564
 1055POPC   C2B16388  32.146  41.778   8.264
 1055POPC   C3B16389  32.141  41.795   7.964
 1055POPC   C4B16390  32.128  41.799   7.664
 1056POPC   NC316391  37.659  39.257   9.464
 1056POPC   PO416392  37.688  39.211   9.164
 1056POPC   GL116393  37.650  39.219   8.864
 1056POPC   GL216394  37.817  39.213   8.864
 1056POPC   C1A16395  37.654  39.235   8.564
 1056POPC   D2A16396  37.645  39.186   8.264
 1056POPC   C3A16397  37.721  39.258   7.964
 1056POPC   C4A16398  37.706  39.260   7.664
 1056POPC   C1B16399  37.874  39.217   8.564
 1056POPC   C2B16400  37.913  39.219   8.264
 1056POPC   C3B16401  37.933  39.184   7.964
 1056POPC   C4B16402  37.930  39.172   7.664
 1057POPC   NC316403  26.037  20.566   9.464
 1057POPC   PO416404  26.042  20.596   9.164
 1057POPC   GL116405  26.019  20.644   8.864
 1057POPC   GL216406  26.032  20.704   8.864
 1057POPC   C1A16407  26.060  20.633   8.564
 1057POPC   D2A16408  26.063  20.577   8.264
 1057POPC   C3A16409  26.045  20.656   7.964
 1057POPC   C4A16410  26.090  20.568   7.664
 1057POPC   C1B16411  26.051  20.906   8.564
 1057POPC   C2B16412  26.031  20.852   8.264
 1057POPC   C3B16413  26.088  20.842   7.964
 1057POPC   C4B16414  26.031  20.889   7.664
 1058POPC   NC316415  33.793  28.404   9.464
 1058POPC   PO416416  33.770  28.400   9.164
 1058POPC   GL116417  33.835  28.332   8.864
 1058POPC   GL216418  33.714  28.232   8.864
 1058POPC   C1A16419  33.753  28.364   8.564
 1058POPC   D2A16420  33.825  28.358   8.264
 1058POPC   C3A16421  33.809  28.342   7.964
 1058POPC   C4A16422  33.807  28.398   7.664
 1058POPC   C1B16423  33.685  28.145   8.564
 1058POPC   C2B16424  33.637  28.214   8.264
 1058POPC   C3B16425  33.598  28.187   7.964
 1058POPC   C4B16426  33.631  28.200   7.664
 1059POPC   NC316427  27.560  36.087   9.464
 1059POPC   PO416428  27.631  36.108   9.164
 1059POPC   GL116429  27.614  36.163   8.864
 1059POPC   GL216430  27.693  36.150   8.864
 1059POPC   C1A16431  27.641  36.146   8.564
 1059POPC   D2A16432  27.631  36.170   8.264
 1059POPC   C3A16433  27.574  36.105   7.964
 1059POPC   C4A16434  27.623  36.088   7.664
 1059POPC   C1B16435  27.785  36.232   8.564
 1059POPC   C2B16436  27.777  36.299   8.264
 1059POPC   C3B16437  27.756  36.237   7.964
 1059POPC   C4B16438  27.761  36.282   7.664
 1060POPC   NC316439  20.579   8.994   9.464
 1060POPC   PO416440  20.575   8.947   9.164
 1060POPC   GL116441  20.597   8.964   8.864
 1060POPC   GL216442  20.476   9.006   8.864
 1060POPC   C1A16443  20.574   8.952   8.564
 1060POPC   D2A16444  20.636   8.941   8.264
 1060POPC   C3A16445  20.624   8.922   7.964
 1060POPC   C4A16446  20.606   8.982   7.664
 1060POPC   C1B16447  20.426   9.125   8.564
 1060POPC   C2B16448  20.354   9.063   8.264
 1060POPC   C3B16449  20.437   9.137   7.964
 1060POPC   C4B16450  20.395   9.118   7.664
 1061POPC   NC316451  38.461  30.666   9.464
 1061POPC   PO416452  38.476  30.675   9.164
 1061POPC   GL116453  38.449  30.737   8.864
 1061POPC   GL216454  38.431  30.580   8.864
 1061POPC   C1A16455  38.407  30.713   8.564
 1061POPC   D2A16456  38.485  30.687   8.264
 1061POPC   C3A16457  38.485  30.721   7.964
 1061POPC   C4A16458  38.412  30.726   7.664
 1061POPC   C1B16459  38.404  30.480   8.564
 1061POPC   C2B16460  38.371  30.455   8.264
 1061POPC   C3B16461  38.352  30.442   7.964
 1061POPC   C4B16462  38.384  30.424   7.664
 1062POPC   NC316463  26.068  19.029   9.464
 1062POPC   PO416464  26.036  19.081   9.164
 1062POPC   GL116465  26.075  19.083   8.864
 1062POPC   GL216466  25.949  19.036   8.864
 1062POPC   C1A16467  26.021  19.105   8.564
 1062POPC   D2A16468  26.057  19.064   8.264
 1062POPC   C3A16469  26.055  19.043   7.964
 1062POPC   C4A16470  26.020  19.075   7.664
 1062POPC   C1B16471  25.828  18.975   8.564
 1062POPC   C2B16472  25.858  18.903   8.264
 1062POPC   C3B16473  25.831  18.908   7.964
 1062POPC   C4B16474  25.793  18.890   7.664
 1063POPC   NC316475   5.915   6.598   9.464
 1063POPC   PO416476   5.899   6.684   9.164
 1063POPC   GL116477   5.898   6.650   8.864
 1063POPC   GL216478   5.873   6.817   8.864
 1063POPC   C1A16479   5.842   6.598   8.564
 1063POPC   D2A16480   5.840   6.603   8.264
 1063POPC   C3A16481   5.860   6.596   7.964
 1063POPC   C4A16482   5.917   6.649   7.664
 1063POPC   C1B16483   5.913   6.845   8.564
 1063POPC   C2B16484   5.914   6.921   8.264
 1063POPC   C3B16485   5.909   6.925   7.964
 1063POPC   C4B16486   5.942   6.907   7.664
 1064POPC   NC316487  25.306   5.100   9.464
 1064POPC   PO416488  25.256   5.076   9.164
 1064POPC   GL116489  25.295   5.082   8.864
 1064POPC   GL216490  25.160   5.069   8.864
 1064POPC   C1A16491  25.274   5.106   8.564
 1064POPC   D2A16492  25.272   5.119   8.264
 1064POPC   C3A16493  25.276   5.091   7.964
 1064POPC   C4A16494  25.284   5.124   7.664
 1064POPC   C1B16495  25.018   4.996   8.564
 1064POPC   C2B16496  24.974   5.008   8.264
 1064POPC   C3B16497  25.067   4.997   7.964
 1064POPC   C4B16498  24.975   4.996   7.664
 1065POPC   NC316499  30.732  23.725   9.464
 1065POPC   PO416500  30.658  23.670   9.164
 1065POPC   GL116501  30.715  23.755   8.864
 1065POPC   GL216502  30.755  23.602   8.864
 1065POPC   C1A16503  30.705  23.715   8.564
 1065POPC   D2A16504  30.738  23.696   8.264
 1065POPC   C3A16505  30.728  23.724   7.964
 1065POPC   C4A16506  30.738  23.715   7.664
 1065POPC   C1B16507  30.732  23.492   8.564
 1065POPC   C2B16508  30.820  23.434   8.264
 1065POPC   C3B16509  30.756  23.517   7.964
 1065POPC   C4B16510  30.823  23.441   7.664
 1066POPC   NC316511  12.827  26.069   9.464
 1066POPC   PO416512  12.810  26.006   9.164
 1066POPC   GL116513  12.847  26.003   8.864
 1066POPC   GL216514  12.727  26.094   8.864
 1066POPC   C1A16515  12.890  26.059   8.564
 1066POPC   D2A16516  12.852  26.016   8.264
 1066POPC   C3A16517  12.813  26.021   7.964
 1066POPC   C4A16518  12.803  26.048   7.664
 1066POPC   C1B16519  12.602  26.126   8.564
 1066POPC   C2B16520  12.584  26.102   8.264
 1066POPC   C3B16521  12.577  26.149   7.964
 1066POPC   C4B16522  12.670  26.178   7.664
 1067POPC   NC316523   3.529   8.186   9.464
 1067POPC   PO416524   3.586   8.190   9.164
 1067POPC   GL116525   3.513   8.205   8.864
 1067POPC   GL216526   3.506   8.125   8.864
 1067POPC   C1A16527   3.527   8.240   8.564
 1067POPC   D2A16528   3.567   8.226   8.264
 1067POPC   C3A16529   3.522   8.245   7.964
 1067POPC   C4A16530   3.493   8.183   7.664
 1067POPC   C1B16531   3.434   8.007   8.564
 1067POPC   C2B16532   3.446   7.925   8.264
 1067POPC   C3B16533   3.413   7.994   7.964
 1067POPC   C4B16534   3.449   7.938   7.664
 1068POPC   NC316535  29.131   4.325   9.464
 1068POPC   PO416536  29.153   4.275   9.164
 1068POPC   GL116537  29.187   4.316   8.864
 1068POPC   GL216538  29.033   4.416   8.864
 1068POPC   C1A16539  29.130   4.329   8.564
 1068POPC   D2A16540  29.177   4.353   8.264
 1068POPC   C3A16541  29.149   4.324   7.964
 1068POPC   C4A16542  29.132   4.357   7.664
 1068POPC   C1B16543  28.986   4.498   8.564
 1068POPC   C2B16544  28.916   4.503   8.264
 1068POPC   C3B16545  28.947   4.496   7.964
 1068POPC   C4B16546  28.932   4.456   7.664
 1069POPC   NC316547  35.342  27.594   9.464
 1069POPC   PO416548  35.379  27.568   9.164
 1069POPC   GL116549  35.314  27.607   8.864
 1069POPC   GL216550  35.460  27.668   8.864
 1069POPC   C1A16551  35.328  27.552   8.564
 1069POPC   D2A16552  35.322  27.571   8.264
 1069POPC   C3A16553  35.342  27.580   7.964
 1069POPC   C4A16554  35.382  27.554   7.664
 1069POPC   C1B16555  35.504  27.802   8.564
 1069POPC   C2B16556  35.484  27.816   8.264
 1069POPC   C3B16557  35.456  27.842   7.964
 1069POPC   C4B16558  35.537  27.752   7.664
 1070POPC   NC316559  40.049  29.900   9.464
 1070POPC   PO416560  39.958  29.894   9.164
 1070POPC   GL116561  39.987  29.906   8.864
 1070POPC   GL216562  39.888  30.018   8.864
 1070POPC   C1A16563  40.036  29.879   8.564
 1070POPC   D2A16564  39.966  29.910   8.264
 1070POPC   C3A16565  40.039  29.917   7.964
 1070POPC   C4A16566  40.048  29.922   7.664
 1070POPC   C1B16567  39.888  30.081   8.564
 1070POPC   C2B16568  39.853  30.163   8.264
 1070POPC   C3B16569  39.813  30.123   7.964
 1070POPC   C4B16570  39.853  30.169   7.664
 1071POPC   NC316571   8.153   3.572   9.464
 1071POPC   PO416572   8.169   3.553   9.164
 1071POPC   GL116573   8.151   3.551   8.864
 1071POPC   GL216574   8.175   3.394   8.864
 1071POPC   C1A16575   8.214   3.496   8.564
 1071POPC   D2A16576   8.239   3.579   8.264
 1071POPC   C3A16577   8.212   3.499   7.964
 1071POPC   C4A16578   8.226   3.567   7.664
 1071POPC   C1B16579   8.116   3.264   8.564
 1071POPC   C2B16580   8.103   3.288   8.264
 1071POPC   C3B16581   8.161   3.268   7.964
 1071POPC   C4B16582   8.096   3.300   7.664
 1072POPC   NC316583  39.965  30.657   9.464
 1072POPC   PO416584  40.002  30.676   9.164
 1072POPC   GL116585  39.999  30.745   8.864
 1072POPC   GL216586  39.929  30.862   8.864
 1072POPC   C1A16587  40.011  30.659   8.564
 1072POPC   D2A16588  40.029  30.669   8.264
 1072POPC   C3A16589  40.028  30.741   7.964
 1072POPC   C4A16590  39.986  30.677   7.664
 1072POPC   C1B16591  39.888  30.927   8.564
 1072POPC   C2B16592  39.907  30.957   8.264
 1072POPC   C3B16593  39.965  30.945   7.964
 1072POPC   C4B16594  39.872  30.912   7.664
 1073POPC   NC316595  29.168  39.262   9.464
 1073POPC   PO416596  29.182  39.217   9.164
 1073POPC   GL116597  29.188  39.201   8.864
 1073POPC   GL216598  29.259  39.317   8.864
 1073POPC   C1A16599  29.113  39.242   8.564
 1073POPC   D2A16600  29.151  39.234   8.264
 1073POPC   C3A16601  29.183  39.259   7.964
 1073POPC   C4A16602  29.171  39.255   7.664
 1073POPC   C1B16603  29.336  39.337   8.564
 1073POPC   C2B16604  29.394  39.306   8.264
 1073POPC   C3B16605  29.333  39.366   7.964
 1073POPC   C4B16606  29.334  39.364   7.664
 1074POPC   NC316607   7.430  12.097   9.464
 1074POPC   PO416608   7.446  12.085   9.164
 1074POPC   GL116609   7.410  12.042   8.864
 1074POPC   GL216610   7.391  11.965   8.864
 1074POPC   C1A16611   7.374  12.039   8.564
 1074POPC   D2A16612   7.400  12.068   8.264
 1074POPC   C3A16613   7.387  12.049   7.964
 1074POPC   C4A16614   7.392  12.049   7.664
 1074POPC   C1B16615   7.434  11.796   8.564
 1074POPC   C2B16616   7.392  11.826   8.264
 1074POPC   C3B16617   7.455  11.838   7.964
 1074POPC   C4B16618   7.440  11.807   7.664
 1075POPC   NC316619  13.638   2.733   9.464
 1075POPC   PO416620  13.586   2.812   9.164
 1075POPC   GL116621  13.658   2.794   8.864
 1075POPC   GL216622  13.704   2.630   8.864
 1075POPC   C1A16623  13.581   2.796   8.564
 1075POPC   D2A16624  13.652   2.807   8.264
 1075POPC   C3A16625  13.596   2.716   7.964
 1075POPC   C4A16626  13.661   2.770   7.664
 1075POPC   C1B16627  13.740   2.555   8.564
 1075POPC   C2B16628  13.739   2.527   8.264
 1075POPC   C3B16629  13.801   2.568   7.964
 1075POPC   C4B16630  13.831   2.582   7.664
 1076POPC   NC316631  37.698  42.371   9.464
 1076POPC   PO416632  37.684  42.347   9.164
 1076POPC   GL116633  37.646  42.348   8.864
 1076POPC   GL216634  37.539  42.411   8.864
 1076POPC   C1A16635  37.647  42.378   8.564
 1076POPC   D2A16636  37.710  42.337   8.264
 1076POPC   C3A16637  37.674  42.332   7.964
 1076POPC   C4A16638  37.637  42.368   7.664
 1076POPC   C1B16639  37.472  42.436   8.564
 1076POPC   C2B16640  37.490  42.453   8.264
 1076POPC   C3B16641  37.431  42.401   7.964
 1076POPC   C4B16642  37.420  42.452   7.664
 1077POPC   NC316643  40.043  36.096   9.464
 1077POPC   PO416644  40.006  36.172   9.164
 1077POPC   GL116645  40.003  36.168   8.864
 1077POPC   GL216646  39.968  36.239   8.864
 1077POPC   C1A16647  40.015  36.118   8.564
 1077POPC   D2A16648  40.042  36.086   8.264
 1077POPC   C3A16649  40.031  36.158   7.964
 1077POPC   C4A16650  40.014  36.165   7.664
 1077POPC   C1B16651  39.869  36.353   8.564
 1077POPC   C2B16652  39.915  36.358   8.264
 1077POPC   C3B16653  39.843  36.338   7.964
 1077POPC   C4B16654  39.867  36.352   7.664
 1078POPC   NC316655   2.037  26.850   9.464
 1078POPC   PO416656   1.994  26.836   9.164
 1078POPC   GL116657   2.028  26.828   8.864
 1078POPC   GL216658   1.860  26.797   8.864
 1078POPC   C1A16659   1.976  26.775   8.564
 1078POPC   D2A16660   1.993  26.865   8.264
 1078POPC   C3A16661   1.944  26.820   7.964
 1078POPC   C4A16662   1.993  26.791   7.664
 1078POPC   C1B16663   1.804  26.766   8.564
 1078POPC   C2B16664   1.772  26.693   8.264
 1078POPC   C3B16665   1.797  26.761   7.964
 1078POPC   C4B16666   1.730  26.760   7.664
 1079POPC   NC316667  42.291  12.085   9.464
 1079POPC   PO416668  42.314  12.087   9.164
 1079POPC   GL116669  42.317  12.052   8.864
 1079POPC   GL216670  42.432  12.039   8.864
 1079POPC   C1A16671  42.315  12.070   8.564
 1079POPC   D2A16672  42.285  12.059   8.264
 1079POPC   C3A16673  42.360  12.032   7.964
 1079POPC   C4A16674  42.300  12.053   7.664
 1079POPC   C1B16675  42.559  12.114   8.564
 1079POPC   C2B16676  42.632  12.066   8.264
 1079POPC   C3B16677  42.596  12.084   7.964
 1079POPC   C4B16678  42.576  12.067   7.664
 1080POPC   NC316679  42.373   8.975   9.464
 1080POPC   PO416680  42.361   8.993   9.164
 1080POPC   GL116681  42.344   8.977   8.864
 1080POPC   GL216682  42.318   9.064   8.864
 1080POPC   C1A16683  42.322   8.964   8.564
 1080POPC   D2A16684  42.308   8.926   8.264
 1080POPC   C3A16685  42.344   9.006   7.964
 1080POPC   C4A16686  42.383   8.998   7.664
 1080POPC   C1B16687  42.299   9.247   8.564
 1080POPC   C2B16688  42.326   9.204   8.264
 1080POPC   C3B16689  42.296   9.213   7.964
 1080POPC   C4B16690  42.270   9.202   7.664
 1081POPC   NC316691   1.979  26.005   9.464
 1081POPC   PO416692   1.972  26.089   9.164
 1081POPC   GL116693   1.999  26.001   8.864
 1081POPC   GL216694   1.906  25.957   8.864
 1081POPC   C1A16695   2.007  26.071   8.564
 1081POPC   D2A16696   1.969  26.055   8.264
 1081POPC   C3A16697   2.038  26.013   7.964
 1081POPC   C4A16698   1.986  26.053   7.664
 1081POPC   C1B16699   1.751  25.984   8.564
 1081POPC   C2B16700   1.748  26.002   8.264
 1081POPC   C3B16701   1.751  26.014   7.964
 1081POPC   C4B16702   1.717  25.991   7.664
 1082POPC   NC316703  27.619  38.476   9.464
 1082POPC   PO416704  27.633  38.413   9.164
 1082POPC   GL116705  27.630  38.407   8.864
 1082POPC   GL216706  27.715  38.456   8.864
 1082POPC   C1A16707  27.604  38.503   8.564
 1082POPC   D2A16708  27.632  38.437   8.264
 1082POPC   C3A16709  27.589  38.413   7.964
 1082POPC   C4A16710  27.602  38.458   7.664
 1082POPC   C1B16711  27.814  38.501   8.564
 1082POPC   C2B16712  27.822  38.519   8.264
 1082POPC   C3B16713  27.853  38.487   7.964
 1082POPC   C4B16714  27.842  38.510   7.664
 1083POPC   NC316715   8.193  16.723   9.464
 1083POPC   PO416716   8.149  16.684   9.164
 1083POPC   GL116717   8.236  16.716   8.864
 1083POPC   GL216718   8.248  16.898   8.864
 1083POPC   C1A16719   8.188  16.709   8.564
 1083POPC   D2A16720   8.201  16.763   8.264
 1083POPC   C3A16721   8.227  16.730   7.964
 1083POPC   C4A16722   8.150  16.698   7.664
 1083POPC   C1B16723   8.314  17.005   8.564
 1083POPC   C2B16724   8.295  16.942   8.264
 1083POPC   C3B16725   8.312  17.011   7.964
 1083POPC   C4B16726   8.244  16.928   7.664
 1084POPC   NC316727  30.698   8.155   9.464
 1084POPC   PO416728  30.678   8.218   9.164
 1084POPC   GL116729  30.697   8.214   8.864
 1084POPC   GL216730  30.564   8.146   8.864
 1084POPC   C1A16731  30.708   8.203   8.564
 1084POPC   D2A16732  30.723   8.218   8.264
 1084POPC   C3A16733  30.672   8.147   7.964
 1084POPC   C4A16734  30.682   8.148   7.664
 1084POPC   C1B16735  30.479   8.129   8.564
 1084POPC   C2B16736  30.489   8.188   8.264
 1084POPC   C3B16737  30.410   8.185   7.964
 1084POPC   C4B16738  30.447   8.204   7.664
 1085POPC   NC316739  44.708  18.260   9.464
 1085POPC   PO416740  44.699  18.298   9.164
 1085POPC   GL116741  44.619  18.324   8.864
 1085POPC   GL216742  44.614  18.374   8.864
 1085POPC   C1A16743  44.634  18.305   8.564
 1085POPC   D2A16744  44.624  18.273   8.264
 1085POPC   C3A16745  44.691  18.280   7.964
 1085POPC   C4A16746  44.627  18.321   7.664
 1085POPC   C1B16747  44.674  18.512   8.564
 1085POPC   C2B16748  44.682  18.525   8.264
 1085POPC   C3B16749  44.665  18.507   7.964
 1085POPC   C4B16750  44.694  18.526   7.664
 1086POPC   NC316751  43.106   6.665   9.464
 1086POPC   PO416752  43.142   6.656   9.164
 1086POPC   GL116753  43.085   6.651   8.864
 1086POPC   GL216754  43.092   6.509   8.864
 1086POPC   C1A16755  43.116   6.688   8.564
 1086POPC   D2A16756  43.107   6.684   8.264
 1086POPC   C3A16757  43.091   6.604   7.964
 1086POPC   C4A16758  43.086   6.643   7.664
 1086POPC   C1B16759  43.118   6.367   8.564
 1086POPC   C2B16760  43.087   6.411   8.264
 1086POPC   C3B16761  43.121   6.391   7.964
 1086POPC   C4B16762  43.075   6.402   7.664
 1087POPC   NC316763  39.209  35.310   9.464
 1087POPC   PO416764  39.240  35.396   9.164
 1087POPC   GL116765  39.216  35.395   8.864
 1087POPC   GL216766  39.143  35.434   8.864
 1087POPC   C1A16767  39.249  35.386   8.564
 1087POPC   D2A16768  39.227  35.339   8.264
 1087POPC   C3A16769  39.227  35.397   7.964
 1087POPC   C4A16770  39.217  35.310   7.664
 1087POPC   C1B16771  38.983  35.459   8.564
 1087POPC   C2B16772  39.041  35.500   8.264
 1087POPC   C3B16773  38.977  35.423   7.964
 1087POPC   C4B16774  38.970  35.488   7.664
 1088POPC   NC316775  37.693  17.515   9.464
 1088POPC   PO416776  37.635  17.506   9.164
 1088POPC   GL116777  37.684  17.551   8.864
 1088POPC   GL216778  37.721  17.383   8.864
 1088POPC   C1A16779  37.715  17.552   8.564
 1088POPC   D2A16780  37.690  17.545   8.264
 1088POPC   C3A16781  37.714  17.553   7.964
 1088POPC   C4A16782  37.632  17.502   7.664
 1088POPC   C1B16783  37.881  17.330   8.564
 1088POPC   C2B16784  37.843  17.301   8.264
 1088POPC   C3B16785  37.849  17.300   7.964
 1088POPC   C4B16786  37.890  17.287   7.664
 1089POPC   NC316787   4.294   3.528   9.464
 1089POPC   PO416788   4.363   3.550   9.164
 1089POPC   GL116789   4.284   3.543   8.864
 1089POPC   GL216790   4.346   3.439   8.864
 1089POPC   C1A16791   4.329   3.539   8.564
 1089POPC   D2A16792   4.367   3.560   8.264
 1089POPC   C3A16793   4.363   3.523   7.964
 1089POPC   C4A16794   4.314   3.523   7.664
 1089POPC   C1B16795   4.358   3.277   8.564
 1089POPC   C2B16796   4.421   3.283   8.264
 1089POPC   C3B16797   4.414   3.259   7.964
 1089POPC   C4B16798   4.420   3.289   7.664
 1090POPC   NC316799  20.596  44.710   9.464
 1090POPC   PO416800  20.611  44.650   9.164
 1090POPC   GL116801  20.630  44.629   8.864
 1090POPC   GL216802  20.667  44.761   8.864
 1090POPC   C1A16803  20.588  44.647   8.564
 1090POPC   D2A16804  20.565  44.703   8.264
 1090POPC   C3A16805  20.650  44.701   7.964
 1090POPC   C4A16806  20.642  44.709   7.664
 1090POPC   C1B16807  20.802  44.798   8.564
 1090POPC   C2B16808  20.772  44.835   8.264
 1090POPC   C3B16809  20.792  44.875   7.964
 1090POPC   C4B16810  20.751  44.864   7.664
 1091POPC   NC316811  42.314  23.742   9.464
 1091POPC   PO416812  42.315  23.748   9.164
 1091POPC   GL116813  42.365  23.722   8.864
 1091POPC   GL216814  42.178  23.816   8.864
 1091POPC   C1A16815  42.304  23.666   8.564
 1091POPC   D2A16816  42.347  23.739   8.264
 1091POPC   C3A16817  42.306  23.705   7.964
 1091POPC   C4A16818  42.324  23.681   7.664
 1091POPC   C1B16819  42.134  23.806   8.564
 1091POPC   C2B16820  42.125  23.807   8.264
 1091POPC   C3B16821  42.144  23.853   7.964
 1091POPC   C4B16822  42.122  23.817   7.664
 1092POPC   NC316823  11.336  22.959   9.464
 1092POPC   PO416824  11.346  22.889   9.164
 1092POPC   GL116825  11.282  22.961   8.864
 1092POPC   GL216826  11.417  23.017   8.864
 1092POPC   C1A16827  11.251  22.948   8.564
 1092POPC   D2A16828  11.314  22.976   8.264
 1092POPC   C3A16829  11.308  22.981   7.964
 1092POPC   C4A16830  11.285  22.892   7.664
 1092POPC   C1B16831  11.442  23.128   8.564
 1092POPC   C2B16832  11.484  23.120   8.264
 1092POPC   C3B16833  11.429  23.143   7.964
 1092POPC   C4B16834  11.483  23.167   7.664
 1093POPC   NC316835  33.061  30.726   9.464
 1093POPC   PO416836  33.042  30.677   9.164
 1093POPC   GL116837  32.983  30.698   8.864
 1093POPC   GL216838  32.950  30.566   8.864
 1093POPC   C1A16839  33.011  30.712   8.564
 1093POPC   D2A16840  33.070  30.714   8.264
 1093POPC   C3A16841  32.986  30.683   7.964
 1093POPC   C4A16842  33.065  30.721   7.664
 1093POPC   C1B16843  32.968  30.479   8.564
 1093POPC   C2B16844  33.000  30.419   8.264
 1093POPC   C3B16845  32.970  30.481   7.964
 1093POPC   C4B16846  32.953  30.405   7.664
 1094POPC   NC316847   8.936  40.821   9.464
 1094POPC   PO416848   9.013  40.814   9.164
 1094POPC   GL116849   9.019  40.784   8.864
 1094POPC   GL216850   8.987  40.640   8.864
 1094POPC   C1A16851   8.932  40.783   8.564
 1094POPC   D2A16852   8.971  40.821   8.264
 1094POPC   C3A16853   8.952  40.794   7.964
 1094POPC   C4A16854   8.981  40.809   7.664
 1094POPC   C1B16855   8.899  40.524   8.564
 1094POPC   C2B16856   8.889  40.583   8.264
 1094POPC   C3B16857   8.966  40.545   7.964
 1094POPC   C4B16858   8.941  40.584   7.664
 1095POPC   NC316859  18.287  26.053   9.464
 1095POPC   PO416860  18.279  26.044   9.164
 1095POPC   GL116861  18.325  26.077   8.864
 1095POPC   GL216862  18.220  26.125   8.864
 1095POPC   C1A16863  18.268  26.054   8.564
 1095POPC   D2A16864  18.274  26.075   8.264
 1095POPC   C3A16865  18.255  25.997   7.964
 1095POPC   C4A16866  18.234  26.059   7.664
 1095POPC   C1B16867  18.254  26.276   8.564
 1095POPC   C2B16868  18.269  26.269   8.264
 1095POPC   C3B16869  18.224  26.286   7.964
 1095POPC   C4B16870  18.275  26.260   7.664
 1096POPC   NC316871  20.655  26.047   9.464
 1096POPC   PO416872  20.633  26.032   9.164
 1096POPC   GL116873  20.608  26.090   8.864
 1096POPC   GL216874  20.588  26.132   8.864
 1096POPC   C1A16875  20.621  26.052   8.564
 1096POPC   D2A16876  20.601  26.088   8.264
 1096POPC   C3A16877  20.593  26.065   7.964
 1096POPC   C4A16878  20.590  26.087   7.664
 1096POPC   C1B16879  20.560  26.302   8.564
 1096POPC   C2B16880  20.508  26.278   8.264
 1096POPC   C3B16881  20.585  26.318   7.964
 1096POPC   C4B16882  20.568  26.266   7.664
 1097POPC   NC316883  32.297  12.806   9.464
 1097POPC   PO416884  32.290  12.902   9.164
 1097POPC   GL116885  32.229  12.889   8.864
 1097POPC   GL216886  32.351  12.774   8.864
 1097POPC   C1A16887  32.256  12.859   8.564
 1097POPC   D2A16888  32.221  12.846   8.264
 1097POPC   C3A16889  32.285  12.876   7.964
 1097POPC   C4A16890  32.233  12.835   7.664
 1097POPC   C1B16891  32.436  12.688   8.564
 1097POPC   C2B16892  32.450  12.644   8.264
 1097POPC   C3B16893  32.458  12.711   7.964
 1097POPC   C4B16894  32.388  12.632   7.664
 1098POPC   NC316895  13.628  32.293   9.464
 1098POPC   PO416896  13.602  32.271   9.164
 1098POPC   GL116897  13.667  32.292   8.864
 1098POPC   GL216898  13.615  32.326   8.864
 1098POPC   C1A16899  13.643  32.293   8.564
 1098POPC   D2A16900  13.677  32.230   8.264
 1098POPC   C3A16901  13.630  32.243   7.964
 1098POPC   C4A16902  13.635  32.251   7.664
 1098POPC   C1B16903  13.687  32.520   8.564
 1098POPC   C2B16904  13.651  32.472   8.264
 1098POPC   C3B16905  13.626  32.478   7.964
 1098POPC   C4B16906  13.640  32.484   7.664
 1099POPC   NC316907  17.543  28.376   9.464
 1099POPC   PO416908  17.532  28.340   9.164
 1099POPC   GL116909  17.526  28.327   8.864
 1099POPC   GL216910  17.361  28.452   8.864
 1099POPC   C1A16911  17.542  28.393   8.564
 1099POPC   D2A16912  17.466  28.409   8.264
 1099POPC   C3A16913  17.499  28.360   7.964
 1099POPC   C4A16914  17.477  28.366   7.664
 1099POPC   C1B16915  17.270  28.450   8.564
 1099POPC   C2B16916  17.284  28.502   8.264
 1099POPC   C3B16917  17.267  28.448   7.964
 1099POPC   C4B16918  17.316  28.471   7.664
 1100POPC   NC316919   3.533  29.159   9.464
 1100POPC   PO416920   3.563  29.098   9.164
 1100POPC   GL116921   3.566  29.161   8.864
 1100POPC   GL216922   3.440  29.126   8.864
 1100POPC   C1A16923   3.547  29.110   8.564
 1100POPC   D2A16924   3.528  29.127   8.264
 1100POPC   C3A16925   3.526  29.191   7.964
 1100POPC   C4A16926   3.513  29.187   7.664
 1100POPC   C1B16927   3.334  29.064   8.564
 1100POPC   C2B16928   3.292  29.028   8.264
 1100POPC   C3B16929   3.285  29.018   7.964
 1100POPC   C4B16930   3.357  29.000   7.664
 1101POPC   NC316931  31.505   0.447   9.464
 1101POPC   PO416932  31.460   0.442   9.164
 1101POPC   GL116933  31.459   0.425   8.864
 1101POPC   GL216934  31.384   0.416   8.864
 1101POPC   C1A16935  31.520   0.399   8.564
 1101POPC   D2A16936  31.459   0.394   8.264
 1101POPC   C3A16937  31.461   0.410   7.964
 1101POPC   C4A16938  31.441   0.404   7.664
 1101POPC   C1B16939  31.236   0.358   8.564
 1101POPC   C2B16940  31.281   0.349   8.264
 1101POPC   C3B16941  31.273   0.361   7.964
 1101POPC   C4B16942  31.189   0.360   7.664
 1102POPC   NC316943  29.156  41.575   9.464
 1102POPC   PO416944  29.143  41.564   9.164
 1102POPC   GL116945  29.115  41.567   8.864
 1102POPC   GL216946  29.214  41.605   8.864
 1102POPC   C1A16947  29.167  41.540   8.564
 1102POPC   D2A16948  29.170  41.577   8.264
 1102POPC   C3A16949  29.113  41.587   7.964
 1102POPC   C4A16950  29.156  41.534   7.664
 1102POPC   C1B16951  29.280  41.751   8.564
 1102POPC   C2B16952  29.311  41.764   8.264
 1102POPC   C3B16953  29.301  41.791   7.964
 1102POPC   C4B16954  29.338  41.724   7.664
 1103POPC   NC316955   2.725  16.693   9.464
 1103POPC   PO416956   2.765  16.728   9.164
 1103POPC   GL116957   2.758  16.687   8.864
 1103POPC   GL216958   2.900  16.729   8.864
 1103POPC   C1A16959   2.722  16.765   8.564
 1103POPC   D2A16960   2.808  16.763   8.264
 1103POPC   C3A16961   2.767  16.684   7.964
 1103POPC   C4A16962   2.728  16.722   7.664
 1103POPC   C1B16963   2.992  16.803   8.564
 1103POPC   C2B16964   3.025  16.798   8.264
 1103POPC   C3B16965   2.992  16.856   7.964
 1103POPC   C4B16966   3.022  16.821   7.664
 1104POPC   NC316967  15.929  37.651   9.464
 1104POPC   PO416968  15.998  37.642   9.164
 1104POPC   GL116969  15.938  37.710   8.864
 1104POPC   GL216970  16.055  37.792   8.864
 1104POPC   C1A16971  15.956  37.681   8.564
 1104POPC   D2A16972  15.978  37.665   8.264
 1104POPC   C3A16973  15.929  37.716   7.964
 1104POPC   C4A16974  15.979  37.675   7.664
 1104POPC   C1B16975  16.119  37.813   8.564
 1104POPC   C2B16976  16.206  37.805   8.264
 1104POPC   C3B16977  16.137  37.852   7.964
 1104POPC   C4B16978  16.200  37.776   7.664
 1105POPC   NC316979  12.098  30.698   9.464
 1105POPC   PO416980  12.036  30.650   9.164
 1105POPC   GL116981  12.041  30.663   8.864
 1105POPC   GL216982  12.194  30.783   8.864
 1105POPC   C1A16983  12.056  30.707   8.564
 1105POPC   D2A16984  12.059  30.726   8.264
 1105POPC   C3A16985  12.125  30.734   7.964
 1105POPC   C4A16986  12.028  30.719   7.664
 1105POPC   C1B16987  12.249  30.895   8.564
 1105POPC   C2B16988  12.251  30.893   8.264
 1105POPC   C3B16989  12.230  30.933   7.964
 1105POPC   C4B16990  12.225  30.914   7.664
 1106POPC   NC316991  27.612  22.967   9.464
 1106POPC   PO416992  27.571  22.934   9.164
 1106POPC   GL116993  27.551  22.915   8.864
 1106POPC   GL216994  27.678  22.873   8.864
 1106POPC   C1A16995  27.630  22.927   8.564
 1106POPC   D2A16996  27.580  22.962   8.264
 1106POPC   C3A16997  27.570  22.904   7.964
 1106POPC   C4A16998  27.622  22.966   7.664
 1106POPC   C1B16999  27.799  22.819   8.564
 1106POPC   C2B17000  27.814  22.863   8.264
 1106POPC   C3B17001  27.846  22.867   7.964
 1106POPC   C4B17002  27.865  22.859   7.664
 1107POPC   NC317003  32.997  18.256   9.464
 1107POPC   PO417004  32.998  18.303   9.164
 1107POPC   GL117005  33.012  18.280   8.864
 1107POPC   GL217006  32.873  18.344   8.864
 1107POPC   C1A17007  33.022  18.310   8.564
 1107POPC   D2A17008  32.992  18.233   8.264
 1107POPC   C3A17009  33.070  18.241   7.964
 1107POPC   C4A17010  33.068  18.311   7.664
 1107POPC   C1B17011  32.831  18.359   8.564
 1107POPC   C2B17012  32.767  18.361   8.264
 1107POPC   C3B17013  32.741  18.364   7.964
 1107POPC   C4B17014  32.800  18.387   7.664
 1108POPC   NC317015  13.630   1.250   9.464
 1108POPC   PO417016  13.632   1.261   9.164
 1108POPC   GL117017  13.597   1.169   8.864
 1108POPC   GL217018  13.495   1.205   8.864
 1108POPC   C1A17019  13.639   1.184   8.564
 1108POPC   D2A17020  13.654   1.231   8.264
 1108POPC   C3A17021  13.646   1.220   7.964
 1108POPC   C4A17022  13.620   1.263   7.664
 1108POPC   C1B17023  13.397   1.298   8.564
 1108POPC   C2B17024  13.377   1.285   8.264
 1108POPC   C3B17025  13.395   1.274   7.964
 1108POPC   C4B17026  13.386   1.232   7.664
 1109POPC   NC317027   8.954  36.120   9.464
 1109POPC   PO417028   8.976  36.099   9.164
 1109POPC   GL117029   8.987  36.117   8.864
 1109POPC   GL217030   9.079  36.047   8.864
 1109POPC   C1A17031   8.966  36.131   8.564
 1109POPC   D2A17032   8.980  36.114   8.264
 1109POPC   C3A17033   9.022  36.123   7.964
 1109POPC   C4A17034   8.980  36.099   7.664
 1109POPC   C1B17035   9.261  36.064   8.564
 1109POPC   C2B17036   9.261  36.043   8.264
 1109POPC   C3B17037   9.190  36.091   7.964
 1109POPC   C4B17038   9.240  36.043   7.664
 1110POPC   NC317039  15.971  38.477   9.464
 1110POPC   PO417040  16.000  38.501   9.164
 1110POPC   GL117041  15.986  38.489   8.864
 1110POPC   GL217042  15.978  38.546   8.864
 1110POPC   C1A17043  15.942  38.498   8.564
 1110POPC   D2A17044  15.943  38.449   8.264
 1110POPC   C3A17045  15.947  38.456   7.964
 1110POPC   C4A17046  15.983  38.442   7.664
 1110POPC   C1B17047  15.957  38.750   8.564
 1110POPC   C2B17048  15.964  38.719   8.264
 1110POPC   C3B17049  15.949  38.697   7.964
 1110POPC   C4B17050  15.921  38.655   7.664
 1111POPC   NC317051  40.768  38.459   9.464
 1111POPC   PO417052  40.784  38.472   9.164
 1111POPC   GL117053  40.750  38.433   8.864
 1111POPC   GL217054  40.924  38.361   8.864
 1111POPC   C1A17055  40.774  38.487   8.564
 1111POPC   D2A17056  40.743  38.446   8.264
 1111POPC   C3A17057  40.817  38.497   7.964
 1111POPC   C4A17058  40.779  38.472   7.664
 1111POPC   C1B17059  40.926  38.332   8.564
 1111POPC   C2B17060  40.966  38.266   8.264
 1111POPC   C3B17061  41.004  38.277   7.964
 1111POPC   C4B17062  41.012  38.281   7.664
 1112POPC   NC317063  36.907  10.512   9.464
 1112POPC   PO417064  36.916  10.497   9.164
 1112POPC   GL117065  36.856  10.566   8.864
 1112POPC   GL217066  36.860  10.694   8.864
 1112POPC   C1A17067  36.877  10.491   8.564
 1112POPC   D2A17068  36.882  10.502   8.264
 1112POPC   C3A17069  36.854  10.572   7.964
 1112POPC   C4A17070  36.866  10.547   7.664
 1112POPC   C1B17071  36.860  10.792   8.564
 1112POPC   C2B17072  36.859  10.816   8.264
 1112POPC   C3B17073  36.939  10.792   7.964
 1112POPC   C4B17074  36.852  10.751   7.664
 1113POPC   NC317075  15.937   8.225   9.464
 1113POPC   PO417076  15.988   8.218   9.164
 1113POPC   GL117077  15.971   8.157   8.864
 1113POPC   GL217078  16.035   8.199   8.864
 1113POPC   C1A17079  16.002   8.232   8.564
 1113POPC   D2A17080  15.999   8.218   8.264
 1113POPC   C3A17081  15.979   8.176   7.964
 1113POPC   C4A17082  16.000   8.221   7.664
 1113POPC   C1B17083  16.170   8.242   8.564
 1113POPC   C2B17084  16.182   8.268   8.264
 1113POPC   C3B17085  16.179   8.274   7.964
 1113POPC   C4B17086  16.173   8.241   7.664
 1114POPC   NC317087  19.030  26.842   9.464
 1114POPC   PO417088  19.070  26.860   9.164
 1114POPC   GL117089  19.075  26.863   8.864
 1114POPC   GL217090  19.163  26.892   8.864
 1114POPC   C1A17091  19.090  26.787   8.564
 1114POPC   D2A17092  19.011  26.838   8.264
 1114POPC   C3A17093  19.100  26.802   7.964
 1114POPC   C4A17094  19.016  26.773   7.664
 1114POPC   C1B17095  19.278  26.941   8.564
 1114POPC   C2B17096  19.256  26.973   8.264
 1114POPC   C3B17097  19.266  26.963   7.964
 1114POPC   C4B17098  19.283  27.030   7.664
 1115POPC   NC317099  22.117  39.259   9.464
 1115POPC   PO417100  22.136  39.199   9.164
 1115POPC   GL117101  22.136  39.268   8.864
 1115POPC   GL217102  22.158  39.350   8.864
 1115POPC   C1A17103  22.139  39.236   8.564
 1115POPC   D2A17104  22.147  39.272   8.264
 1115POPC   C3A17105  22.192  39.244   7.964
 1115POPC   C4A17106  22.202  39.250   7.664
 1115POPC   C1B17107  22.130  39.515   8.564
 1115POPC   C2B17108  22.142  39.456   8.264
 1115POPC   C3B17109  22.100  39.505   7.964
 1115POPC   C4B17110  22.140  39.518   7.664
 1116POPC   NC317111   1.247  11.338   9.464
 1116POPC   PO417112   1.232  11.311   9.164
 1116POPC   GL117113   1.201  11.279   8.864
 1116POPC   GL217114   1.262  11.155   8.864
 1116POPC   C1A17115   1.203  11.324   8.564
 1116POPC   D2A17116   1.208  11.328   8.264
 1116POPC   C3A17117   1.243  11.304   7.964
 1116POPC   C4A17118   1.203  11.289   7.664
 1116POPC   C1B17119   1.353  11.087   8.564
 1116POPC   C2B17120   1.412  11.105   8.264
 1116POPC   C3B17121   1.357  11.057   7.964
 1116POPC   C4B17122   1.410  11.065   7.664
 1117POPC   NC317123  16.778  40.020   9.464
 1117POPC   PO417124  16.732  40.010   9.164
 1117POPC   GL117125  16.711  40.036   8.864
 1117POPC   GL217126  16.749  39.907   8.864
 1117POPC   C1A17127  16.716  40.024   8.564
 1117POPC   D2A17128  16.779  40.040   8.264
 1117POPC   C3A17129  16.733  40.038   7.964
 1117POPC   C4A17130  16.753  39.995   7.664
 1117POPC   C1B17131  16.738  39.773   8.564
 1117POPC   C2B17132  16.816  39.727   8.264
 1117POPC   C3B17133  16.802  39.736   7.964
 1117POPC   C4B17134  16.797  39.746   7.664
 1118POPC   NC317135   0.389   1.172   9.464
 1118POPC   PO417136   0.390   1.212   9.164
 1118POPC   GL117137   0.415   1.214   8.864
 1118POPC   GL217138   0.380   1.124   8.864
 1118POPC   C1A17139   0.424   1.229   8.564
 1118POPC   D2A17140   0.414   1.204   8.264
 1118POPC   C3A17141   0.391   1.250   7.964
 1118POPC   C4A17142   0.408   1.188   7.664
 1118POPC   C1B17143   0.355   0.962   8.564
 1118POPC   C2B17144   0.365   0.955   8.264
 1118POPC   C3B17145   0.390   0.948   7.964
 1118POPC   C4B17146   0.407   0.989   7.664
 1119POPC   NC317147  43.894  39.253   9.464
 1119POPC   PO417148  43.851  39.251   9.164
 1119POPC   GL117149  43.859  39.228   8.864
 1119POPC   GL217150  43.782  39.168   8.864
 1119POPC   C1A17151  43.899  39.245   8.564
 1119POPC   D2A17152  43.845  39.273   8.264
 1119POPC   C3A17153  43.887  39.268   7.964
 1119POPC   C4A17154  43.903  39.247   7.664
 1119POPC   C1B17155  43.718  39.020   8.564
 1119POPC   C2B17156  43.774  39.027   8.264
 1119POPC   C3B17157  43.744  39.082   7.964
 1119POPC   C4B17158  43.761  38.998   7.664
 1120POPC   NC317159   7.394  10.548   9.464
 1120POPC   PO417160   7.457  10.566   9.164
 1120POPC   GL117161   7.374  10.487   8.864
 1120POPC   GL217162   7.279  10.530   8.864
 1120POPC   C1A17163   7.415  10.560   8.564
 1120POPC   D2A17164   7.469  10.554   8.264
 1120POPC   C3A17165   7.418  10.551   7.964
 1120POPC   C4A17166   7.404  10.498   7.664
 1120POPC   C1B17167   7.207  10.504   8.564
 1120POPC   C2B17168   7.186  10.472   8.264
 1120POPC   C3B17169   7.215  10.460   7.964
 1120POPC   C4B17170   7.139  10.510   7.664
 1121POPC   NC317171   6.670   8.194   9.464
 1121POPC   PO417172   6.599   8.164   9.164
 1121POPC   GL117173   6.658   8.192   8.864
 1121POPC   GL217174   6.615   8.078   8.864
 1121POPC   C1A17175   6.628   8.208   8.564
 1121POPC   D2A17176   6.616   8.190   8.264
 1121POPC   C3A17177   6.616   8.181   7.964
 1121POPC   C4A17178   6.614   8.169   7.664
 1121POPC   C1B17179   6.632   7.997   8.564
 1121POPC   C2B17180   6.637   7.985   8.264
 1121POPC   C3B17181   6.666   7.947   7.964
 1121POPC   C4B17182   6.690   7.927   7.664
 1122POPC   NC317183   5.088  31.443   9.464
 1122POPC   PO417184   5.067  31.480   9.164
 1122POPC   GL117185   5.132  31.460   8.864
 1122POPC   GL217186   5.098  31.370   8.864
 1122POPC   C1A17187   5.061  31.460   8.564
 1122POPC   D2A17188   5.097  31.509   8.264
 1122POPC   C3A17189   5.140  31.510   7.964
 1122POPC   C4A17190   5.080  31.483   7.664
 1122POPC   C1B17191   5.105  31.195   8.564
 1122POPC   C2B17192   5.119  31.244   8.264
 1122POPC   C3B17193   5.095  31.225   7.964
 1122POPC   C4B17194   5.112  31.207   7.664
 1123POPC   NC317195  33.021  26.037   9.464
 1123POPC   PO417196  32.982  26.077   9.164
 1123POPC   GL117197  33.042  26.068   8.864
 1123POPC   GL217198  33.116  26.205   8.864
 1123POPC   C1A17199  33.048  26.000   8.564
 1123POPC   D2A17200  33.056  26.079   8.264
 1123POPC   C3A17201  33.058  26.068   7.964
 1123POPC   C4A17202  32.986  26.010   7.664
 1123POPC   C1B17203  33.109  26.257   8.564
 1123POPC   C2B17204  33.097  26.236   8.264
 1123POPC   C3B17205  33.150  26.246   7.964
 1123POPC   C4B17206  33.156  26.277   7.664
 1124POPC   NC317207  29.194  15.226   9.464
 1124POPC   PO417208  29.119  15.194   9.164
 1124POPC   GL117209  29.190  15.213   8.864
 1124POPC   GL217210  29.192  15.101   8.864
 1124POPC   C1A17211  29.126  15.184   8.564
 1124POPC   D2A17212  29.123  15.158   8.264
 1124POPC   C3A17213  29.193  15.189   7.964
 1124POPC   C4A17214  29.191  15.146   7.664
 1124POPC   C1B17215  29.282  14.970   8.564
 1124POPC   C2B17216  29.286  14.956   8.264
 1124POPC   C3B17217  29.291  14.930   7.964
 1124POPC   C4B17218  29.323  14.939   7.664
 1125POPC   NC317219  27.638   4.337   9.464
 1125POPC   PO417220  27.556   4.336   9.164
 1125POPC   GL117221  27.600   4.296   8.864
 1125POPC   GL217222  27.493   4.446   8.864
 1125POPC   C1A17223  27.601   4.301   8.564
 1125POPC   D2A17224  27.597   4.362   8.264
 1125POPC   C3A17225  27.634   4.315   7.964
 1125POPC   C4A17226  27.635   4.277   7.664
 1125POPC   C1B17227  27.482   4.502   8.564
 1125POPC   C2B17228  27.453   4.566   8.264
 1125POPC   C3B17229  27.484   4.557   7.964
 1125POPC   C4B17230  27.447   4.532   7.664
 1126POPC   NC317231  36.896  14.381   9.464
 1126POPC   PO417232  36.871  14.356   9.164
 1126POPC   GL117233  36.862  14.413   8.864
 1126POPC   GL217234  36.996  14.487   8.864
 1126POPC   C1A17235  36.896  14.403   8.564
 1126POPC   D2A17236  36.926  14.374   8.264
 1126POPC   C3A17237  36.861  14.439   7.964
 1126POPC   C4A17238  36.905  14.372   7.664
 1126POPC   C1B17239  37.101  14.506   8.564
 1126POPC   C2B17240  37.099  14.511   8.264
 1126POPC   C3B17241  37.146  14.553   7.964
 1126POPC   C4B17242  37.077  14.471   7.664
 1127POPC   NC317243   6.693   9.755   9.464
 1127POPC   PO417244   6.666   9.709   9.164
 1127POPC   GL117245   6.668   9.704   8.864
 1127POPC   GL217246   6.519   9.685   8.864
 1127POPC   C1A17247   6.600   9.715   8.564
 1127POPC   D2A17248   6.595   9.723   8.264
 1127POPC   C3A17249   6.675   9.792   7.964
 1127POPC   C4A17250   6.635   9.739   7.664
 1127POPC   C1B17251   6.421   9.700   8.564
 1127POPC   C2B17252   6.377   9.694   8.264
 1127POPC   C3B17253   6.390   9.688   7.964
 1127POPC   C4B17254   6.420   9.716   7.664
 1128POPC   NC317255  25.292   5.838   9.464
 1128POPC   PO417256  25.277   5.840   9.164
 1128POPC   GL117257  25.234   5.918   8.864
 1128POPC   GL217258  25.200   5.775   8.864
 1128POPC   C1A17259  25.275   5.877   8.564
 1128POPC   D2A17260  25.220   5.911   8.264
 1128POPC   C3A17261  25.253   5.886   7.964
 1128POPC   C4A17262  25.262   5.866   7.664
 1128POPC   C1B17263  25.139   5.675   8.564
 1128POPC   C2B17264  25.092   5.709   8.264
 1128POPC   C3B17265  25.114   5.692   7.964
 1128POPC   C4B17266  25.111   5.686   7.664
 1129POPC   NC317267  19.068  41.577   9.464
 1129POPC   PO417268  19.027  41.517   9.164
 1129POPC   GL117269  19.017  41.599   8.864
 1129POPC   GL217270  18.953  41.643   8.864
 1129POPC   C1A17271  19.065  41.569   8.564
 1129POPC   D2A17272  19.048  41.548   8.264
 1129POPC   C3A17273  19.041  41.553   7.964
 1129POPC   C4A17274  19.086  41.522   7.664
 1129POPC   C1B17275  18.908  41.721   8.564
 1129POPC   C2B17276  18.938  41.803   8.264
 1129POPC   C3B17277  18.949  41.777   7.964
 1129POPC   C4B17278  18.874  41.793   7.664
 1130POPC   NC317279  18.240   3.554   9.464
 1130POPC   PO417280  18.237   3.578   9.164
 1130POPC   GL117281  18.333   3.571   8.864
 1130POPC   GL217282  18.176   3.509   8.864
 1130POPC   C1A17283  18.311   3.505   8.564
 1130POPC   D2A17284  18.293   3.590   8.264
 1130POPC   C3A17285  18.314   3.534   7.964
 1130POPC   C4A17286  18.279   3.539   7.664
 1130POPC   C1B17287  18.074   3.522   8.564
 1130POPC   C2B17288  17.985   3.547   8.264
 1130POPC   C3B17289  18.056   3.536   7.964
 1130POPC   C4B17290  18.032   3.563   7.664
 1131POPC   NC317291  32.981  43.868   9.464
 1131POPC   PO417292  33.000  43.876   9.164
 1131POPC   GL117293  33.053  43.884   8.864
 1131POPC   GL217294  33.177  43.921   8.864
 1131POPC   C1A17295  33.055  43.919   8.564
 1131POPC   D2A17296  32.979  43.874   8.264
 1131POPC   C3A17297  32.976  43.885   7.964
 1131POPC   C4A17298  33.014  43.878   7.664
 1131POPC   C1B17299  33.243  43.981   8.564
 1131POPC   C2B17300  33.308  43.998   8.264
 1131POPC   C3B17301  33.310  43.996   7.964
 1131POPC   C4B17302  33.299  43.959   7.664
 1132POPC   NC317303  32.986  23.686   9.464
 1132POPC   PO417304  33.048  23.750   9.164
 1132POPC   GL117305  33.034  23.696   8.864
 1132POPC   GL217306  33.059  23.808   8.864
 1132POPC   C1A17307  33.055  23.739   8.564
 1132POPC   D2A17308  33.067  23.689   8.264
 1132POPC   C3A17309  33.045  23.712   7.964
 1132POPC   C4A17310  33.035  23.758   7.664
 1132POPC   C1B17311  33.030  23.966   8.564
 1132POPC   C2B17312  33.118  23.974   8.264
 1132POPC   C3B17313  33.089  23.937   7.964
 1132POPC   C4B17314  33.060  23.937   7.664
 1133POPC   NC317315   1.227  41.569   9.464
 1133POPC   PO417316   1.251  41.580   9.164
 1133POPC   GL117317   1.238  41.550   8.864
 1133POPC   GL217318   1.263  41.662   8.864
 1133POPC   C1A17319   1.216  41.562   8.564
 1133POPC   D2A17320   1.222  41.564   8.264
 1133POPC   C3A17321   1.239  41.537   7.964
 1133POPC   C4A17322   1.175  41.547   7.664
 1133POPC   C1B17323   1.238  41.789   8.564
 1133POPC   C2B17324   1.306  41.823   8.264
 1133POPC   C3B17325   1.269  41.820   7.964
 1133POPC   C4B17326   1.263  41.841   7.664
 1134POPC   NC317327  33.073  43.159   9.464
 1134POPC   PO417328  32.975  43.152   9.164
 1134POPC   GL117329  32.975  43.064   8.864
 1134POPC   GL217330  33.091  42.977   8.864
 1134POPC   C1A17331  33.067  43.125   8.564
 1134POPC   D2A17332  32.995  43.138   8.264
 1134POPC   C3A17333  33.021  43.148   7.964
 1134POPC   C4A17334  33.039  43.118   7.664
 1134POPC   C1B17335  33.158  42.881   8.564
 1134POPC   C2B17336  33.193  42.946   8.264
 1134POPC   C3B17337  33.204  42.955   7.964
 1134POPC   C4B17338  33.144  42.966   7.664
 1135POPC   NC317339  40.056  33.782   9.464
 1135POPC   PO417340  39.985  33.824   9.164
 1135POPC   GL117341  39.967  33.825   8.864
 1135POPC   GL217342  40.005  33.641   8.864
 1135POPC   C1A17343  39.965  33.812   8.564
 1135POPC   D2A17344  39.979  33.771   8.264
 1135POPC   C3A17345  40.016  33.825   7.964
 1135POPC   C4A17346  39.973  33.776   7.664
 1135POPC   C1B17347  40.022  33.504   8.564
 1135POPC   C2B17348  39.970  33.559   8.264
 1135POPC   C3B17349  40.029  33.554   7.964
 1135POPC   C4B17350  39.984  33.599   7.664
 1136POPC   NC317351  29.194  19.030   9.464
 1136POPC   PO417352  29.098  19.101   9.164
 1136POPC   GL117353  29.159  19.024   8.864
 1136POPC   GL217354  29.172  18.971   8.864
 1136POPC   C1A17355  29.113  19.088   8.564
 1136POPC   D2A17356  29.106  19.091   8.264
 1136POPC   C3A17357  29.163  19.096   7.964
 1136POPC   C4A17358  29.117  19.020   7.664
 1136POPC   C1B17359  29.204  18.775   8.564
 1136POPC   C2B17360  29.183  18.866   8.264
 1136POPC   C3B17361  29.265  18.833   7.964
 1136POPC   C4B17362  29.182  18.812   7.664
 1137POPC   NC317363  32.266  19.054   9.464
 1137POPC   PO417364  32.213  19.106   9.164
 1137POPC   GL117365  32.263  19.100   8.864
 1137POPC   GL217366  32.123  19.110   8.864
 1137POPC   C1A17367  32.219  19.089   8.564
 1137POPC   D2A17368  32.206  19.020   8.264
 1137POPC   C3A17369  32.215  19.094   7.964
 1137POPC   C4A17370  32.230  19.014   7.664
 1137POPC   C1B17371  31.981  19.182   8.564
 1137POPC   C2B17372  32.013  19.173   8.264
 1137POPC   C3B17373  32.033  19.188   7.964
 1137POPC   C4B17374  32.028  19.186   7.664
 1138POPC   NC317375  10.517  18.333   9.464
 1138POPC   PO417376  10.476  18.263   9.164
 1138POPC   GL117377  10.523  18.266   8.864
 1138POPC   GL217378  10.603  18.178   8.864
 1138POPC   C1A17379  10.552  18.253   8.564
 1138POPC   D2A17380  10.481  18.292   8.264
 1138POPC   C3A17381  10.511  18.318   7.964
 1138POPC   C4A17382  10.540  18.246   7.664
 1138POPC   C1B17383  10.689  18.110   8.564
 1138POPC   C2B17384  10.701  18.176   8.264
 1138POPC   C3B17385  10.776  18.149   7.964
 1138POPC   C4B17386  10.738  18.109   7.664
 1139POPC   NC317387  11.289   2.778   9.464
 1139POPC   PO417388  11.303   2.775   9.164
 1139POPC   GL117389  11.277   2.744   8.864
 1139POPC   GL217390  11.449   2.688   8.864
 1139POPC   C1A17391  11.340   2.767   8.564
 1139POPC   D2A17392  11.252   2.811   8.264
 1139POPC   C3A17393  11.300   2.802   7.964
 1139POPC   C4A17394  11.313   2.780   7.664
 1139POPC   C1B17395  11.477   2.609   8.564
 1139POPC   C2B17396  11.503   2.663   8.264
 1139POPC   C3B17397  11.489   2.689   7.964
 1139POPC   C4B17398  11.491   2.616   7.664
 1140POPC   NC317399  15.944   2.016   9.464
 1140POPC   PO417400  15.996   2.029   9.164
 1140POPC   GL117401  15.945   1.950   8.864
 1140POPC   GL217402  15.971   2.074   8.864
 1140POPC   C1A17403  15.923   1.980   8.564
 1140POPC   D2A17404  15.957   2.004   8.264
 1140POPC   C3A17405  15.980   1.958   7.964
 1140POPC   C4A17406  15.944   1.949   7.664
 1140POPC   C1B17407  15.989   2.202   8.564
 1140POPC   C2B17408  15.981   2.197   8.264
 1140POPC   C3B17409  15.988   2.219   7.964
 1140POPC   C4B17410  15.917   2.246   7.664
 1141POPC   NC317411  41.578  36.858   9.464
 1141POPC   PO417412  41.512  36.913   9.164
 1141POPC   GL117413  41.533  36.894   8.864
 1141POPC   GL217414  41.549  36.806   8.864
 1141POPC   C1A17415  41.569  36.889   8.564
 1141POPC   D2A17416  41.537  36.914   8.264
 1141POPC   C3A17417  41.549  36.934   7.964
 1141POPC   C4A17418  41.558  36.930   7.664
 1141POPC   C1B17419  41.484  36.693   8.564
 1141POPC   C2B17420  41.427  36.630   8.264
 1141POPC   C3B17421  41.510  36.655   7.964
 1141POPC   C4B17422  41.521  36.660   7.664
 1142POPC   NC317423   9.728  16.685   9.464
 1142POPC   PO417424   9.765  16.696   9.164
 1142POPC   GL117425   9.718  16.723   8.864
 1142POPC   GL217426   9.675  16.745   8.864
 1142POPC   C1A17427   9.778  16.709   8.564
 1142POPC   D2A17428   9.710  16.726   8.264
 1142POPC   C3A17429   9.702  16.684   7.964
 1142POPC   C4A17430   9.774  16.780   7.664
 1142POPC   C1B17431   9.496  16.814   8.564
 1142POPC   C2B17432   9.568  16.825   8.264
 1142POPC   C3B17433   9.502  16.785   7.964
 1142POPC   C4B17434   9.510  16.853   7.664
 1143POPC   NC317435  23.738  36.928   9.464
 1143POPC   PO417436  23.688  36.920   9.164
 1143POPC   GL117437  23.761  36.896   8.864
 1143POPC   GL217438  23.869  36.941   8.864
 1143POPC   C1A17439  23.749  36.949   8.564
 1143POPC   D2A17440  23.687  36.887   8.264
 1143POPC   C3A17441  23.717  36.881   7.964
 1143POPC   C4A17442  23.677  36.916   7.664
 1143POPC   C1B17443  23.954  37.044   8.564
 1143POPC   C2B17444  23.912  36.998   8.264
 1143POPC   C3B17445  23.966  37.048   7.964
 1143POPC   C4B17446  23.951  37.047   7.664
 1144POPC   NC317447  43.139  40.769   9.464
 1144POPC   PO417448  43.082  40.787   9.164
 1144POPC   GL117449  43.099  40.744   8.864
 1144POPC   GL217450  43.064  40.683   8.864
 1144POPC   C1A17451  43.148  40.750   8.564
 1144POPC   D2A17452  43.112  40.756   8.264
 1144POPC   C3A17453  43.110  40.809   7.964
 1144POPC   C4A17454  43.073  40.808   7.664
 1144POPC   C1B17455  42.991  40.630   8.564
 1144POPC   C2B17456  42.980  40.543   8.264
 1144POPC   C3B17457  42.992  40.616   7.964
 1144POPC   C4B17458  42.986  40.544   7.664
 1145POPC   NC317459  13.627  35.385   9.464
 1145POPC   PO417460  13.612  35.360   9.164
 1145POPC   GL117461  13.596  35.321   8.864
 1145POPC   GL217462  13.670  35.209   8.864
 1145POPC   C1A17463  13.669  35.305   8.564
 1145POPC   D2A17464  13.630  35.324   8.264
 1145POPC   C3A17465  13.651  35.398   7.964
 1145POPC   C4A17466  13.585  35.315   7.664
 1145POPC   C1B17467  13.603  35.105   8.564
 1145POPC   C2B17468  13.615  35.120   8.264
 1145POPC   C3B17469  13.661  35.090   7.964
 1145POPC   C4B17470  13.633  35.053   7.664
 1146POPC   NC317471   8.245  12.102   9.464
 1146POPC   PO417472   8.172  12.062   9.164
 1146POPC   GL117473   8.175  12.060   8.864
 1146POPC   GL217474   8.109  12.160   8.864
 1146POPC   C1A17475   8.209  12.122   8.564
 1146POPC   D2A17476   8.238  12.087   8.264
 1146POPC   C3A17477   8.220  12.085   7.964
 1146POPC   C4A17478   8.246  12.051   7.664
 1146POPC   C1B17479   8.009  12.146   8.564
 1146POPC   C2B17480   8.000  12.178   8.264
 1146POPC   C3B17481   7.950  12.161   7.964
 1146POPC   C4B17482   7.944  12.180   7.664
 1147POPC   NC317483  26.010  29.878   9.464
 1147POPC   PO417484  26.013  29.879   9.164
 1147POPC   GL117485  26.052  29.959   8.864
 1147POPC   GL217486  26.146  29.987   8.864
 1147POPC   C1A17487  26.016  29.968   8.564
 1147POPC   D2A17488  26.070  29.883   8.264
 1147POPC   C3A17489  26.084  29.888   7.964
 1147POPC   C4A17490  26.063  29.887   7.664
 1147POPC   C1B17491  26.275  29.966   8.564
 1147POPC   C2B17492  26.330  29.945   8.264
 1147POPC   C3B17493  26.246  29.968   7.964
 1147POPC   C4B17494  26.292  29.972   7.664
 1148POPC   NC317495  43.874  33.061   9.464
 1148POPC   PO417496  43.898  33.069   9.164
 1148POPC   GL117497  43.848  33.043   8.864
 1148POPC   GL217498  43.878  33.186   8.864
 1148POPC   C1A17499  43.929  33.016   8.564
 1148POPC   D2A17500  43.854  32.997   8.264
 1148POPC   C3A17501  43.916  32.996   7.964
 1148POPC   C4A17502  43.874  32.995   7.664
 1148POPC   C1B17503  43.852  33.245   8.564
 1148POPC   C2B17504  43.887  33.284   8.264
 1148POPC   C3B17505  43.919  33.286   7.964
 1148POPC   C4B17506  43.854  33.226   7.664
 1149POPC   NC317507  38.467  36.916   9.464
 1149POPC   PO417508  38.494  36.914   9.164
 1149POPC   GL117509  38.478  36.924   8.864
 1149POPC   GL217510  38.554  36.863   8.864
 1149POPC   C1A17511  38.440  36.944   8.564
 1149POPC   D2A17512  38.423  36.880   8.264
 1149POPC   C3A17513  38.407  36.873   7.964
 1149POPC   C4A17514  38.477  36.905   7.664
 1149POPC   C1B17515  38.675  36.920   8.564
 1149POPC   C2B17516  38.703  36.942   8.264
 1149POPC   C3B17517  38.667  36.886   7.964
 1149POPC   C4B17518  38.687  36.921   7.664
 1150POPC   NC317519   5.848   9.019   9.464
 1150POPC   PO417520   5.871   8.948   9.164
 1150POPC   GL117521   5.915   8.964   8.864
 1150POPC   GL217522   5.971   9.071   8.864
 1150POPC   C1A17523   5.832   8.995   8.564
 1150POPC   D2A17524   5.870   9.010   8.264
 1150POPC   C3A17525   5.885   9.003   7.964
 1150POPC   C4A17526   5.869   8.954   7.664
 1150POPC   C1B17527   6.070   9.163   8.564
 1150POPC   C2B17528   6.010   9.173   8.264
 1150POPC   C3B17529   6.017   9.146   7.964
 1150POPC   C4B17530   6.032   9.175   7.664
 1151POPC   NC317531  28.337  22.161   9.464
 1151POPC   PO417532  28.411  22.139   9.164
 1151POPC   GL117533  28.354  22.193   8.864
 1151POPC   GL217534  28.340  22.039   8.864
 1151POPC   C1A17535  28.397  22.126   8.564
 1151POPC   D2A17536  28.396  22.152   8.264
 1151POPC   C3A17537  28.396  22.163   7.964
 1151POPC   C4A17538  28.321  22.167   7.664
 1151POPC   C1B17539  28.297  21.885   8.564
 1151POPC   C2B17540  28.335  21.912   8.264
 1151POPC   C3B17541  28.353  21.875   7.964
 1151POPC   C4B17542  28.309  21.907   7.664
 1152POPC   NC317543  22.126   4.357   9.464
 1152POPC   PO417544  22.146   4.354   9.164
 1152POPC   GL117545  22.162   4.329   8.864
 1152POPC   GL217546  22.149   4.447   8.864
 1152POPC   C1A17547  22.193   4.281   8.564
 1152POPC   D2A17548  22.178   4.323   8.264
 1152POPC   C3A17549  22.126   4.279   7.964
 1152POPC   C4A17550  22.141   4.344   7.664
 1152POPC   C1B17551  22.101   4.609   8.564
 1152POPC   C2B17552  22.154   4.607   8.264
 1152POPC   C3B17553  22.181   4.538   7.964
 1152POPC   C4B17554  22.125   4.527   7.664
 1153POPC   NC317555  19.876  14.381   9.464
 1153POPC   PO417556  19.821  14.361   9.164
 1153POPC   GL117557  19.838  14.419   8.864
 1153POPC   GL217558  19.865  14.285   8.864
 1153POPC   C1A17559  19.844  14.375   8.564
 1153POPC   D2A17560  19.847  14.424   8.264
 1153POPC   C3A17561  19.843  14.366   7.964
 1153POPC   C4A17562  19.858  14.432   7.664
 1153POPC   C1B17563  19.858  14.115   8.564
 1153POPC   C2B17564  19.856  14.163   8.264
 1153POPC   C3B17565  19.868  14.134   7.964
 1153POPC   C4B17566  19.915  14.180   7.664
 1154POPC   NC317567  26.011  16.004   9.464
 1154POPC   PO417568  26.049  15.991   9.164
 1154POPC   GL117569  26.003  15.992   8.864
 1154POPC   GL217570  25.941  16.078   8.864
 1154POPC   C1A17571  26.017  15.962   8.564
 1154POPC   D2A17572  26.074  15.923   8.264
 1154POPC   C3A17573  26.077  15.966   7.964
 1154POPC   C4A17574  26.015  15.923   7.664
 1154POPC   C1B17575  25.896  16.079   8.564
 1154POPC   C2B17576  25.870  16.134   8.264
 1154POPC   C3B17577  25.853  16.115   7.964
 1154POPC   C4B17578  25.884  16.080   7.664
 1155POPC   NC317579   3.580  19.048   9.464
 1155POPC   PO417580   3.583  19.081   9.164
 1155POPC   GL117581   3.552  19.028   8.864
 1155POPC   GL217582   3.648  19.111   8.864
 1155POPC   C1A17583   3.589  19.075   8.564
 1155POPC   D2A17584   3.511  19.022   8.264
 1155POPC   C3A17585   3.509  19.052   7.964
 1155POPC   C4A17586   3.589  19.097   7.664
 1155POPC   C1B17587   3.814  19.136   8.564
 1155POPC   C2B17588   3.796  19.084   8.264
 1155POPC   C3B17589   3.780  19.088   7.964
 1155POPC   C4B17590   3.807  19.062   7.664
 1156POPC   NC317591  39.269  26.041   9.464
 1156POPC   PO417592  39.227  26.007   9.164
 1156POPC   GL117593  39.233  26.040   8.864
 1156POPC   GL217594  39.171  25.915   8.864
 1156POPC   C1A17595  39.243  26.072   8.564
 1156POPC   D2A17596  39.184  26.046   8.264
 1156POPC   C3A17597  39.250  26.089   7.964
 1156POPC   C4A17598  39.237  26.081   7.664
 1156POPC   C1B17599  39.178  25.768   8.564
 1156POPC   C2B17600  39.167  25.786   8.264
 1156POPC   C3B17601  39.180  25.777   7.964
 1156POPC   C4B17602  39.238  25.801   7.664
 1157POPC   NC317603  36.106  30.651   9.464
 1157POPC   PO417604  36.154  30.683   9.164
 1157POPC   GL117605  36.171  30.663   8.864
 1157POPC   GL217606  36.234  30.634   8.864
 1157POPC   C1A17607  36.112  30.741   8.564
 1157POPC   D2A17608  36.155  30.674   8.264
 1157POPC   C3A17609  36.084  30.673   7.964
 1157POPC   C4A17610  36.167  30.724   7.664
 1157POPC   C1B17611  36.332  30.625   8.564
 1157POPC   C2B17612  36.345  30.576   8.264
 1157POPC   C3B17613  36.324  30.627   7.964
 1157POPC   C4B17614  36.366  30.601   7.664
 1158POPC   NC317615  28.358  29.158   9.464
 1158POPC   PO417616  28.394  29.104   9.164
 1158POPC   GL117617  28.368  29.131   8.864
 1158POPC   GL217618  28.486  29.165   8.864
 1158POPC   C1A17619  28.403  29.105   8.564
 1158POPC   D2A17620  28.326  29.134   8.264
 1158POPC   C3A17621  28.354  29.151   7.964
 1158POPC   C4A17622  28.375  29.157   7.664
 1158POPC   C1B17623  28.614  29.212   8.564
 1158POPC   C2B17624  28.632  29.250   8.264
 1158POPC   C3B17625  28.595  29.271   7.964
 1158POPC   C4B17626  28.588  29.247   7.664
 1159POPC   NC317627   7.451  23.709   9.464
 1159POPC   PO417628   7.375  23.721   9.164
 1159POPC   GL117629   7.375  23.758   8.864
 1159POPC   GL217630   7.456  23.804   8.864
 1159POPC   C1A17631   7.458  23.710   8.564
 1159POPC   D2A17632   7.435  23.756   8.264
 1159POPC   C3A17633   7.400  23.668   7.964
 1159POPC   C4A17634   7.441  23.694   7.664
 1159POPC   C1B17635   7.389  23.961   8.564
 1159POPC   C2B17636   7.439  23.966   8.264
 1159POPC   C3B17637   7.375  24.008   7.964
 1159POPC   C4B17638   7.374  23.940   7.664
 1160POPC   NC317639   9.785  29.961   9.464
 1160POPC   PO417640   9.709  29.872   9.164
 1160POPC   GL117641   9.773  29.884   8.864
 1160POPC   GL217642   9.717  29.816   8.864
 1160POPC   C1A17643   9.745  29.967   8.564
 1160POPC   D2A17644   9.774  29.939   8.264
 1160POPC   C3A17645   9.779  29.949   7.964
 1160POPC   C4A17646   9.747  29.911   7.664
 1160POPC   C1B17647   9.630  29.740   8.564
 1160POPC   C2B17648   9.549  29.749   8.264
 1160POPC   C3B17649   9.559  29.761   7.964
 1160POPC   C4B17650   9.570  29.734   7.664
 1161POPC   NC317651  25.267  30.672   9.464
 1161POPC   PO417652  25.264  30.719   9.164
 1161POPC   GL117653  25.287  30.710   8.864
 1161POPC   GL217654  25.402  30.749   8.864
 1161POPC   C1A17655  25.253  30.670   8.564
 1161POPC   D2A17656  25.231  30.668   8.264
 1161POPC   C3A17657  25.260  30.723   7.964
 1161POPC   C4A17658  25.262  30.721   7.664
 1161POPC   C1B17659  25.416  30.836   8.564
 1161POPC   C2B17660  25.477  30.857   8.264
 1161POPC   C3B17661  25.436  30.861   7.964
 1161POPC   C4B17662  25.409  30.916   7.664
 1162POPC   NC317663  37.665  32.199   9.464
 1162POPC   PO417664  37.729  32.289   9.164
 1162POPC   GL117665  37.653  32.204   8.864
 1162POPC   GL217666  37.762  32.239   8.864
 1162POPC   C1A17667  37.664  32.252   8.564
 1162POPC   D2A17668  37.652  32.225   8.264
 1162POPC   C3A17669  37.673  32.227   7.964
 1162POPC   C4A17670  37.714  32.256   7.664
 1162POPC   C1B17671  37.881  32.192   8.564
 1162POPC   C2B17672  37.936  32.243   8.264
 1162POPC   C3B17673  37.910  32.240   7.964
 1162POPC   C4B17674  37.905  32.213   7.664
 1163POPC   NC317675  41.536  43.147   9.464
 1163POPC   PO417676  41.563  43.072   9.164
 1163POPC   GL117677  41.544  43.067   8.864
 1163POPC   GL217678  41.703  42.993   8.864
 1163POPC   C1A17679  41.510  43.112   8.564
 1163POPC   D2A17680  41.589  43.158   8.264
 1163POPC   C3A17681  41.553  43.119   7.964
 1163POPC   C4A17682  41.543  43.063   7.664
 1163POPC   C1B17683  41.750  42.920   8.564
 1163POPC   C2B17684  41.770  42.979   8.264
 1163POPC   C3B17685  41.737  42.953   7.964
 1163POPC   C4B17686  41.764  42.989   7.664
 1164POPC   NC317687  12.865   1.981   9.464
 1164POPC   PO417688  12.898   1.958   9.164
 1164POPC   GL117689  12.886   1.960   8.864
 1164POPC   GL217690  12.853   1.909   8.864
 1164POPC   C1A17691  12.827   2.039   8.564
 1164POPC   D2A17692  12.816   2.000   8.264
 1164POPC   C3A17693  12.822   1.988   7.964
 1164POPC   C4A17694  12.900   1.975   7.664
 1164POPC   C1B17695  12.844   1.784   8.564
 1164POPC   C2B17696  12.822   1.735   8.264
 1164POPC   C3B17697  12.836   1.694   7.964
 1164POPC   C4B17698  12.802   1.747   7.664
 1165POPC   NC317699  15.965  27.549   9.464
 1165POPC   PO417700  16.001  27.589   9.164
 1165POPC   GL117701  15.918  27.627   8.864
 1165POPC   GL217702  16.063  27.636   8.864
 1165POPC   C1A17703  16.000  27.639   8.564
 1165POPC   D2A17704  15.952  27.602   8.264
 1165POPC   C3A17705  15.928  27.627   7.964
 1165POPC   C4A17706  15.911  27.598   7.664
 1165POPC   C1B17707  16.179  27.689   8.564
 1165POPC   C2B17708  16.158  27.645   8.264
 1165POPC   C3B17709  16.202  27.736   7.964
 1165POPC   C4B17710  16.156  27.678   7.664
 1166POPC   NC317711   8.153  39.255   9.464
 1166POPC   PO417712   8.237  39.201   9.164
 1166POPC   GL117713   8.204  39.261   8.864
 1166POPC   GL217714   8.246  39.110   8.864
 1166POPC   C1A17715   8.173  39.210   8.564
 1166POPC   D2A17716   8.203  39.185   8.264
 1166POPC   C3A17717   8.191  39.217   7.964
 1166POPC   C4A17718   8.164  39.247   7.664
 1166POPC   C1B17719   8.311  39.041   8.564
 1166POPC   C2B17720   8.364  38.996   8.264
 1166POPC   C3B17721   8.368  38.992   7.964
 1166POPC   C4B17722   8.399  39.080   7.664
 1167POPC   NC317723   2.809  18.289   9.464
 1167POPC   PO417724   2.801  18.312   9.164
 1167POPC   GL117725   2.763  18.267   8.864
 1167POPC   GL217726   2.734  18.159   8.864
 1167POPC   C1A17727   2.739  18.288   8.564
 1167POPC   D2A17728   2.772  18.288   8.264
 1167POPC   C3A17729   2.778  18.333   7.964
 1167POPC   C4A17730   2.770  18.274   7.664
 1167POPC   C1B17731   2.660  18.046   8.564
 1167POPC   C2B17732   2.678  18.055   8.264
 1167POPC   C3B17733   2.714  18.004   7.964
 1167POPC   C4B17734   2.636  18.062   7.664
 1168POPC   NC317735  27.603  33.757   9.464
 1168POPC   PO417736  27.564  33.770   9.164
 1168POPC   GL117737  27.561  33.756   8.864
 1168POPC   GL217738  27.592  33.919   8.864
 1168POPC   C1A17739  27.633  33.823   8.564
 1168POPC   D2A17740  27.596  33.789   8.264
 1168POPC   C3A17741  27.611  33.812   7.964
 1168POPC   C4A17742  27.614  33.811   7.664
 1168POPC   C1B17743  27.538  34.026   8.564
 1168POPC   C2B17744  27.512  34.081   8.264
 1168POPC   C3B17745  27.577  34.077   7.964
 1168POPC   C4B17746  27.584  34.011   7.664
 1169POPC   NC317747  12.874   1.204   9.464
 1169POPC   PO417748  12.814   1.199   9.164
 1169POPC   GL117749  12.890   1.213   8.864
 1169POPC   GL217750  12.921   1.306   8.864
 1169POPC   C1A17751  12.894   1.248   8.564
 1169POPC   D2A17752  12.803   1.227   8.264
 1169POPC   C3A17753  12.875   1.239   7.964
 1169POPC   C4A17754  12.839   1.227   7.664
 1169POPC   C1B17755  13.039   1.384   8.564
 1169POPC   C2B17756  12.981   1.382   8.264
 1169POPC   C3B17757  13.053   1.372   7.964
 1169POPC   C4B17758  13.071   1.394   7.664
 1170POPC   NC317759  32.261   5.913   9.464
 1170POPC   PO417760  32.205   5.914   9.164
 1170POPC   GL117761  32.224   5.833   8.864
 1170POPC   GL217762  32.156   5.918   8.864
 1170POPC   C1A17763  32.223   5.867   8.564
 1170POPC   D2A17764  32.258   5.853   8.264
 1170POPC   C3A17765  32.291   5.823   7.964
 1170POPC   C4A17766  32.227   5.918   7.664
 1170POPC   C1B17767  31.974   5.937   8.564
 1170POPC   C2B17768  31.994   5.963   8.264
 1170POPC   C3B17769  31.978   5.944   7.964
 1170POPC   C4B17770  31.982   5.929   7.664
 1171POPC   NC317771  42.333  15.995   9.464
 1171POPC   PO417772  42.361  15.989   9.164
 1171POPC   GL117773  42.347  15.963   8.864
 1171POPC   GL217774  42.452  15.962   8.864
 1171POPC   C1A17775  42.340  15.945   8.564
 1171POPC   D2A17776  42.342  15.987   8.264
 1171POPC   C3A17777  42.338  15.910   7.964
 1171POPC   C4A17778  42.372  15.999   7.664
 1171POPC   C1B17779  42.622  16.076   8.564
 1171POPC   C2B17780  42.584  16.063   8.264
 1171POPC   C3B17781  42.536  16.066   7.964
 1171POPC   C4B17782  42.594  16.005   7.664
 1172POPC   NC317783   3.550   8.957   9.464
 1172POPC   PO417784   3.539   8.972   9.164
 1172POPC   GL117785   3.517   8.938   8.864
 1172POPC   GL217786   3.654   8.986   8.864
 1172POPC   C1A17787   3.573   8.944   8.564
 1172POPC   D2A17788   3.549   9.022   8.264
 1172POPC   C3A17789   3.492   9.014   7.964
 1172POPC   C4A17790   3.510   8.959   7.664
 1172POPC   C1B17791   3.838   8.983   8.564
 1172POPC   C2B17792   3.834   8.959   8.264
 1172POPC   C3B17793   3.772   8.958   7.964
 1172POPC   C4B17794   3.811   9.012   7.664
 1173POPC   NC317795   3.495   2.021   9.464
 1173POPC   PO417796   3.571   1.997   9.164
 1173POPC   GL117797   3.535   1.991   8.864
 1173POPC   GL217798   3.591   2.103   8.864
 1173POPC   C1A17799   3.524   1.940   8.564
 1173POPC   D2A17800   3.555   1.968   8.264
 1173POPC   C3A17801   3.553   1.984   7.964
 1173POPC   C4A17802   3.503   1.950   7.664
 1173POPC   C1B17803   3.637   2.261   8.564
 1173POPC   C2B17804   3.596   2.283   8.264
 1173POPC   C3B17805   3.611   2.211   7.964
 1173POPC   C4B17806   3.615   2.195   7.664
 1174POPC   NC317807   3.566  40.046   9.464
 1174POPC   PO417808   3.532  40.021   9.164
 1174POPC   GL117809   3.527  40.043   8.864
 1174POPC   GL217810   3.487  40.138   8.864
 1174POPC   C1A17811   3.507  40.043   8.564
 1174POPC   D2A17812   3.544  39.974   8.264
 1174POPC   C3A17813   3.534  39.974   7.964
 1174POPC   C4A17814   3.556  39.968   7.664
 1174POPC   C1B17815   3.381  40.189   8.564
 1174POPC   C2B17816   3.406  40.221   8.264
 1174POPC   C3B17817   3.379  40.170   7.964
 1174POPC   C4B17818   3.375  40.233   7.664
 1175POPC   NC317819  37.726   5.843   9.464
 1175POPC   PO417820  37.666   5.910   9.164
 1175POPC   GL117821  37.645   5.913   8.864
 1175POPC   GL217822  37.547   5.857   8.864
 1175POPC   C1A17823  37.683   5.902   8.564
 1175POPC   D2A17824  37.644   5.821   8.264
 1175POPC   C3A17825  37.718   5.898   7.964
 1175POPC   C4A17826  37.641   5.899   7.664
 1175POPC   C1B17827  37.459   5.764   8.564
 1175POPC   C2B17828  37.491   5.797   8.264
 1175POPC   C3B17829  37.508   5.777   7.964
 1175POPC   C4B17830  37.500   5.738   7.664
 1176POPC   NC317831  12.042  34.615   9.464
 1176POPC   PO417832  12.072  34.621   9.164
 1176POPC   GL117833  12.124  34.605   8.864
 1176POPC   GL217834  12.182  34.497   8.864
 1176POPC   C1A17835  12.027  34.557   8.564
 1176POPC   D2A17836  12.103  34.614   8.264
 1176POPC   C3A17837  12.060  34.551   7.964
 1176POPC   C4A17838  12.087  34.604   7.664
 1176POPC   C1B17839  12.314  34.508   8.564
 1176POPC   C2B17840  12.349  34.490   8.264
 1176POPC   C3B17841  12.355  34.426   7.964
 1176POPC   C4B17842  12.305  34.525   7.664
 1177POPC   NC317843   7.469  19.108   9.464
 1177POPC   PO417844   7.406  19.041   9.164
 1177POPC   GL117845   7.456  19.098   8.864
 1177POPC   GL217846   7.554  18.981   8.864
 1177POPC   C1A17847   7.440  19.035   8.564
 1177POPC   D2A17848   7.443  19.088   8.264
 1177POPC   C3A17849   7.430  19.070   7.964
 1177POPC   C4A17850   7.457  19.080   7.664
 1177POPC   C1B17851   7.551  18.897   8.564
 1177POPC   C2B17852   7.612  18.872   8.264
 1177POPC   C3B17853   7.616  18.867   7.964
 1177POPC   C4B17854   7.556  18.913   7.664
 1178POPC   NC317855  39.998  22.984   9.464
 1178POPC   PO417856  39.979  22.939   9.164
 1178POPC   GL117857  40.034  22.949   8.864
 1178POPC   GL217858  40.099  22.843   8.864
 1178POPC   C1A17859  40.003  22.941   8.564
 1178POPC   D2A17860  39.983  22.965   8.264
 1178POPC   C3A17861  40.046  22.912   7.964
 1178POPC   C4A17862  39.992  22.959   7.664
 1178POPC   C1B17863  40.203  22.788   8.564
 1178POPC   C2B17864  40.186  22.769   8.264
 1178POPC   C3B17865  40.191  22.765   7.964
 1178POPC   C4B17866  40.200  22.789   7.664
 1179POPC   NC317867  13.632  21.352   9.464
 1179POPC   PO417868  13.637  21.427   9.164
 1179POPC   GL117869  13.602  21.383   8.864
 1179POPC   GL217870  13.549  21.451   8.864
 1179POPC   C1A17871  13.598  21.408   8.564
 1179POPC   D2A17872  13.578  21.405   8.264
 1179POPC   C3A17873  13.599  21.382   7.964
 1179POPC   C4A17874  13.628  21.390   7.664
 1179POPC   C1B17875  13.444  21.548   8.564
 1179POPC   C2B17876  13.425  21.458   8.264
 1179POPC   C3B17877  13.440  21.517   7.964
 1179POPC   C4B17878  13.361  21.540   7.664
 1180POPC   NC317879  16.683  27.639   9.464
 1180POPC   PO417880  16.693  27.628   9.164
 1180POPC   GL117881  16.700  27.626   8.864
 1180POPC   GL217882  16.684  27.667   8.864
 1180POPC   C1A17883  16.746  27.549   8.564
 1180POPC   D2A17884  16.704  27.611   8.264
 1180POPC   C3A17885  16.762  27.640   7.964
 1180POPC   C4A17886  16.734  27.634   7.664
 1180POPC   C1B17887  16.541  27.739   8.564
 1180POPC   C2B17888  16.613  27.776   8.264
 1180POPC   C3B17889  16.535  27.778   7.964
 1180POPC   C4B17890  16.565  27.804   7.664
 1181POPC   NC317891   2.815  43.129   9.464
 1181POPC   PO417892   2.779  43.062   9.164
 1181POPC   GL117893   2.786  43.072   8.864
 1181POPC   GL217894   2.736  42.944   8.864
 1181POPC   C1A17895   2.737  43.073   8.564
 1181POPC   D2A17896   2.722  43.093   8.264
 1181POPC   C3A17897   2.755  43.097   7.964
 1181POPC   C4A17898   2.806  43.103   7.664
 1181POPC   C1B17899   2.797  42.894   8.564
 1181POPC   C2B17900   2.821  42.850   8.264
 1181POPC   C3B17901   2.821  42.833   7.964
 1181POPC   C4B17902   2.790  42.890   7.664
 1182POPC   NC317903  43.887  30.702   9.464
 1182POPC   PO417904  43.860  30.658   9.164
 1182POPC   GL117905  43.871  30.699   8.864
 1182POPC   GL217906  43.797  30.684   8.864
 1182POPC   C1A17907  43.908  30.653   8.564
 1182POPC   D2A17908  43.933  30.685   8.264
 1182POPC   C3A17909  43.886  30.731   7.964
 1182POPC   C4A17910  43.846  30.654   7.664
 1182POPC   C1B17911  43.644  30.749   8.564
 1182POPC   C2B17912  43.629  30.765   8.264
 1182POPC   C3B17913  43.595  30.718   7.964
 1182POPC   C4B17914  43.686  30.730   7.664
 1183POPC   NC317915   7.444  36.938   9.464
 1183POPC   PO417916   7.401  36.879   9.164
 1183POPC   GL117917   7.416  36.869   8.864
 1183POPC   GL217918   7.519  36.835   8.864
 1183POPC   C1A17919   7.419  36.920   8.564
 1183POPC   D2A17920   7.378  36.938   8.264
 1183POPC   C3A17921   7.453  36.939   7.964
 1183POPC   C4A17922   7.462  36.919   7.664
 1183POPC   C1B17923   7.635  36.789   8.564
 1183POPC   C2B17924   7.593  36.799   8.264
 1183POPC   C3B17925   7.622  36.773   7.964
 1183POPC   C4B17926   7.627  36.768   7.664
 1184POPC   NC317927  22.149  35.345   9.464
 1184POPC   PO417928  22.154  35.332   9.164
 1184POPC   GL117929  22.122  35.317   8.864
 1184POPC   GL217930  22.242  35.488   8.864
 1184POPC   C1A17931  22.193  35.371   8.564
 1184POPC   D2A17932  22.184  35.325   8.264
 1184POPC   C3A17933  22.168  35.338   7.964
 1184POPC   C4A17934  22.170  35.393   7.664
 1184POPC   C1B17935  22.339  35.556   8.564
 1184POPC   C2B17936  22.325  35.546   8.264
 1184POPC   C3B17937  22.365  35.503   7.964
 1184POPC   C4B17938  22.324  35.562   7.664
 1185POPC   NC317939  20.571  32.277   9.464
 1185POPC   PO417940  20.627  32.256   9.164
 1185POPC   GL117941  20.598  32.286   8.864
 1185POPC   GL217942  20.504  32.296   8.864
 1185POPC   C1A17943  20.637  32.231   8.564
 1185POPC   D2A17944  20.577  32.277   8.264
 1185POPC   C3A17945  20.609  32.245   7.964
 1185POPC   C4A17946  20.577  32.261   7.664
 1185POPC   C1B17947  20.449  32.427   8.564
 1185POPC   C2B17948  20.441  32.448   8.264
 1185POPC   C3B17949  20.465  32.431   7.964
 1185POPC   C4B17950  20.383  32.419   7.664
 1186POPC   NC317951  16.690  11.266   9.464
 1186POPC   PO417952  16.725  11.251   9.164
 1186POPC   GL117953  16.724  11.259   8.864
 1186POPC   GL217954  16.805  11.240   8.864
 1186POPC   C1A17955  16.773  11.340   8.564
 1186POPC   D2A17956  16.717  11.349   8.264
 1186POPC   C3A17957  16.752  11.312   7.964
 1186POPC   C4A17958  16.703  11.343   7.664
 1186POPC   C1B17959  16.983  11.136   8.564
 1186POPC   C2B17960  16.942  11.125   8.264
 1186POPC   C3B17961  16.990  11.201   7.964
 1186POPC   C4B17962  16.901  11.160   7.664
 1187POPC   NC317963  13.629  39.276   9.464
 1187POPC   PO417964  13.610  39.195   9.164
 1187POPC   GL117965  13.587  39.268   8.864
 1187POPC   GL217966  13.610  39.084   8.864
 1187POPC   C1A17967  13.613  39.261   8.564
 1187POPC   D2A17968  13.657  39.258   8.264
 1187POPC   C3A17969  13.587  39.204   7.964
 1187POPC   C4A17970  13.591  39.262   7.664
 1187POPC   C1B17971  13.582  38.943   8.564
 1187POPC   C2B17972  13.557  38.938   8.264
 1187POPC   C3B17973  13.633  38.946   7.964
 1187POPC   C4B17974  13.608  39.011   7.664
 1188POPC   NC317975  29.193  22.151   9.464
 1188POPC   PO417976  29.123  22.184   9.164
 1188POPC   GL117977  29.106  22.187   8.864
 1188POPC   GL217978  29.247  22.052   8.864
 1188POPC   C1A17979  29.185  22.142   8.564
 1188POPC   D2A17980  29.159  22.116   8.264
 1188POPC   C3A17981  29.153  22.131   7.964
 1188POPC   C4A17982  29.172  22.161   7.664
 1188POPC   C1B17983  29.322  21.964   8.564
 1188POPC   C2B17984  29.310  22.058   8.264
 1188POPC   C3B17985  29.325  22.059   7.964
 1188POPC   C4B17986  29.295  22.059   7.664
 1189POPC   NC317987  40.739  34.534   9.464
 1189POPC   PO417988  40.822  34.607   9.164
 1189POPC   GL117989  40.782  34.564   8.864
 1189POPC   GL217990  40.646  34.615   8.864
 1189POPC   C1A17991  40.746  34.535   8.564
 1189POPC   D2A17992  40.832  34.554   8.264
 1189POPC   C3A17993  40.737  34.548   7.964
 1189POPC   C4A17994  40.755  34.612   7.664
 1189POPC   C1B17995  40.573  34.579   8.564
 1189POPC   C2B17996  40.519  34.650   8.264
 1189POPC   C3B17997  40.500  34.670   7.964
 1189POPC   C4B17998  40.574  34.626   7.664
 1190POPC   NC317999  29.165   3.498   9.464
 1190POPC   PO418000  29.151   3.495   9.164
 1190POPC   GL118001  29.172   3.591   8.864
 1190POPC   GL218002  29.213   3.615   8.864
 1190POPC   C1A18003  29.152   3.499   8.564
 1190POPC   D2A18004  29.160   3.526   8.264
 1190POPC   C3A18005  29.142   3.571   7.964
 1190POPC   C4A18006  29.186   3.573   7.664
 1190POPC   C1B18007  29.292   3.682   8.564
 1190POPC   C2B18008  29.370   3.688   8.264
 1190POPC   C3B18009  29.303   3.703   7.964
 1190POPC   C4B18010  29.385   3.701   7.664
 1191POPC   NC318011  12.103  12.056   9.464
 1191POPC   PO418012  12.087  12.096   9.164
 1191POPC   GL118013  12.091  12.091   8.864
 1191POPC   GL218014  12.176  12.038   8.864
 1191POPC   C1A18015  12.093  12.029   8.564
 1191POPC   D2A18016  12.046  12.055   8.264
 1191POPC   C3A18017  12.051  12.106   7.964
 1191POPC   C4A18018  12.072  12.060   7.664
 1191POPC   C1B18019  12.310  11.922   8.564
 1191POPC   C2B18020  12.253  11.962   8.264
 1191POPC   C3B18021  12.247  11.973   7.964
 1191POPC   C4B18022  12.293  11.977   7.664
 1192POPC   NC318023  20.583  14.414   9.464
 1192POPC   PO418024  20.611  14.367   9.164
 1192POPC   GL118025  20.626  14.363   8.864
 1192POPC   GL218026  20.639  14.491   8.864
 1192POPC   C1A18027  20.659  14.380   8.564
 1192POPC   D2A18028  20.641  14.355   8.264
 1192POPC   C3A18029  20.642  14.377   7.964
 1192POPC   C4A18030  20.572  14.436   7.664
 1192POPC   C1B18031  20.602  14.610   8.564
 1192POPC   C2B18032  20.563  14.679   8.264
 1192POPC   C3B18033  20.649  14.619   7.964
 1192POPC   C4B18034  20.656  14.680   7.664
 1193POPC   NC318035  19.104   2.751   9.464
 1193POPC   PO418036  19.020   2.797   9.164
 1193POPC   GL118037  19.052   2.784   8.864
 1193POPC   GL218038  19.174   2.727   8.864
 1193POPC   C1A18039  19.042   2.747   8.564
 1193POPC   D2A18040  19.047   2.773   8.264
 1193POPC   C3A18041  19.046   2.739   7.964
 1193POPC   C4A18042  19.014   2.809   7.664
 1193POPC   C1B18043  19.290   2.767   8.564
 1193POPC   C2B18044  19.310   2.752   8.264
 1193POPC   C3B18045  19.337   2.798   7.964
 1193POPC   C4B18046  19.332   2.765   7.664
 1194POPC   NC318047  25.294   4.268   9.464
 1194POPC   PO418048  25.225   4.300   9.164
 1194POPC   GL118049  25.219   4.280   8.864
 1194POPC   GL218050  25.255   4.411   8.864
 1194POPC   C1A18051  25.223   4.304   8.564
 1194POPC   D2A18052  25.248   4.340   8.264
 1194POPC   C3A18053  25.314   4.345   7.964
 1194POPC   C4A18054  25.265   4.348   7.664
 1194POPC   C1B18055  25.158   4.501   8.564
 1194POPC   C2B18056  25.206   4.590   8.264
 1194POPC   C3B18057  25.186   4.518   7.964
 1194POPC   C4B18058  25.183   4.585   7.664
 1195POPC   NC318059  41.604  22.183   9.464
 1195POPC   PO418060  41.598  22.145   9.164
 1195POPC   GL118061  41.536  22.209   8.864
 1195POPC   GL218062  41.495  22.233   8.864
 1195POPC   C1A18063  41.511  22.207   8.564
 1195POPC   D2A18064  41.565  22.160   8.264
 1195POPC   C3A18065  41.606  22.133   7.964
 1195POPC   C4A18066  41.545  22.146   7.664
 1195POPC   C1B18067  41.537  22.391   8.564
 1195POPC   C2B18068  41.475  22.378   8.264
 1195POPC   C3B18069  41.483  22.357   7.964
 1195POPC   C4B18070  41.472  22.402   7.664
 1196POPC   NC318071  29.902   3.530   9.464
 1196POPC   PO418072  29.909   3.527   9.164
 1196POPC   GL118073  29.941   3.545   8.864
 1196POPC   GL218074  29.829   3.514   8.864
 1196POPC   C1A18075  29.886   3.551   8.564
 1196POPC   D2A18076  29.911   3.513   8.264
 1196POPC   C3A18077  29.963   3.524   7.964
 1196POPC   C4A18078  29.923   3.527   7.664
 1196POPC   C1B18079  29.722   3.489   8.564
 1196POPC   C2B18080  29.678   3.533   8.264
 1196POPC   C3B18081  29.694   3.464   7.964
 1196POPC   C4B18082  29.676   3.530   7.664
 1197POPC   NC318083   7.411  37.670   9.464
 1197POPC   PO418084   7.431  37.650   9.164
 1197POPC   GL118085   7.379  37.656   8.864
 1197POPC   GL218086   7.505  37.632   8.864
 1197POPC   C1A18087   7.391  37.686   8.564
 1197POPC   D2A18088   7.469  37.684   8.264
 1197POPC   C3A18089   7.410  37.632   7.964
 1197POPC   C4A18090   7.463  37.725   7.664
 1197POPC   C1B18091   7.567  37.473   8.564
 1197POPC   C2B18092   7.560  37.550   8.264
 1197POPC   C3B18093   7.566  37.460   7.964
 1197POPC   C4B18094   7.583  37.526   7.664
 1198POPC   NC318095  19.870  36.888   9.464
 1198POPC   PO418096  19.819  36.898   9.164
 1198POPC   GL118097  19.816  36.882   8.864
 1198POPC   GL218098  19.742  36.909   8.864
 1198POPC   C1A18099  19.870  36.894   8.564
 1198POPC   D2A18100  19.815  36.910   8.264
 1198POPC   C3A18101  19.807  36.863   7.964
 1198POPC   C4A18102  19.827  36.856   7.664
 1198POPC   C1B18103  19.577  36.856   8.564
 1198POPC   C2B18104  19.589  36.852   8.264
 1198POPC   C3B18105  19.589  36.898   7.964
 1198POPC   C4B18106  19.562  36.917   7.664
 1199POPC   NC318107   9.759  12.869   9.464
 1199POPC   PO418108   9.726  12.851   9.164
 1199POPC   GL118109   9.719  12.824   8.864
 1199POPC   GL218110   9.762  12.947   8.864
 1199POPC   C1A18111   9.699  12.876   8.564
 1199POPC   D2A18112   9.734  12.877   8.264
 1199POPC   C3A18113   9.731  12.893   7.964
 1199POPC   C4A18114   9.747  12.887   7.664
 1199POPC   C1B18115   9.836  13.037   8.564
 1199POPC   C2B18116   9.827  13.053   8.264
 1199POPC   C3B18117   9.842  13.081   7.964
 1199POPC   C4B18118   9.878  13.055   7.664
 1200POPC   NC318119  39.193   5.054   9.464
 1200POPC   PO418120  39.231   5.120   9.164
 1200POPC   GL118121  39.217   5.119   8.864
 1200POPC   GL218122  39.124   5.095   8.864
 1200POPC   C1A18123  39.202   5.123   8.564
 1200POPC   D2A18124  39.271   5.053   8.264
 1200POPC   C3A18125  39.200   5.105   7.964
 1200POPC   C4A18126  39.274   5.116   7.664
 1200POPC   C1B18127  39.015   5.034   8.564
 1200POPC   C2B18128  38.995   5.061   8.264
 1200POPC   C3B18129  38.939   5.035   7.964
 1200POPC   C4B18130  38.976   5.026   7.664
 1201POPC   NC318131  21.396  29.893   9.464
 1201POPC   PO418132  21.345  29.883   9.164
 1201POPC   GL118133  21.352  29.926   8.864
 1201POPC   GL218134  21.216  29.920   8.864
 1201POPC   C1A18135  21.339  29.969   8.564
 1201POPC   D2A18136  21.373  29.915   8.264
 1201POPC   C3A18137  21.407  29.961   7.964
 1201POPC   C4A18138  21.427  29.878   7.664
 1201POPC   C1B18139  21.185  29.862   8.564
 1201POPC   C2B18140  21.192  29.851   8.264
 1201POPC   C3B18141  21.176  29.879   7.964
 1201POPC   C4B18142  21.171  29.886   7.664
 1202POPC   NC318143  33.806   3.586   9.464
 1202POPC   PO418144  33.825   3.525   9.164
 1202POPC   GL118145  33.787   3.562   8.864
 1202POPC   GL218146  33.914   3.520   8.864
 1202POPC   C1A18147  33.781   3.569   8.564
 1202POPC   D2A18148  33.819   3.591   8.264
 1202POPC   C3A18149  33.786   3.571   7.964
 1202POPC   C4A18150  33.820   3.576   7.664
 1202POPC   C1B18151  34.045   3.472   8.564
 1202POPC   C2B18152  34.040   3.443   8.264
 1202POPC   C3B18153  34.062   3.410   7.964
 1202POPC   C4B18154  34.009   3.444   7.664
 1203POPC   NC318155   6.639  15.130   9.464
 1203POPC   PO418156   6.596  15.151   9.164
 1203POPC   GL118157   6.650  15.143   8.864
 1203POPC   GL218158   6.641  15.051   8.864
 1203POPC   C1A18159   6.688  15.200   8.564
 1203POPC   D2A18160   6.633  15.162   8.264
 1203POPC   C3A18161   6.647  15.195   7.964
 1203POPC   C4A18162   6.631  15.157   7.664
 1203POPC   C1B18163   6.524  14.974   8.564
 1203POPC   C2B18164   6.490  15.002   8.264
 1203POPC   C3B18165   6.507  14.915   7.964
 1203POPC   C4B18166   6.534  14.969   7.664
 1204POPC   NC318167  42.347  31.496   9.464
 1204POPC   PO418168  42.307  31.442   9.164
 1204POPC   GL118169  42.325  31.520   8.864
 1204POPC   GL218170  42.411  31.557   8.864
 1204POPC   C1A18171  42.302  31.424   8.564
 1204POPC   D2A18172  42.309  31.485   8.264
 1204POPC   C3A18173  42.360  31.489   7.964
 1204POPC   C4A18174  42.288  31.446   7.664
 1204POPC   C1B18175  42.501  31.667   8.564
 1204POPC   C2B18176  42.466  31.699   8.264
 1204POPC   C3B18177  42.520  31.643   7.964
 1204POPC   C4B18178  42.480  31.709   7.664
 1205POPC   NC318179  36.137  14.429   9.464
 1205POPC   PO418180  36.161  14.414   9.164
 1205POPC   GL118181  36.140  14.383   8.864
 1205POPC   GL218182  36.023  14.298   8.864
 1205POPC   C1A18183  36.142  14.416   8.564
 1205POPC   D2A18184  36.129  14.419   8.264
 1205POPC   C3A18185  36.162  14.420   7.964
 1205POPC   C4A18186  36.128  14.381   7.664
 1205POPC   C1B18187  36.032  14.212   8.564
 1205POPC   C2B18188  36.012  14.185   8.264
 1205POPC   C3B18189  35.980  14.169   7.964
 1205POPC   C4B18190  36.013  14.227   7.664
 1206POPC   NC318191  19.090  33.765   9.464
 1206POPC   PO418192  19.091  33.816   9.164
 1206POPC   GL118193  19.091  33.809   8.864
 1206POPC   GL218194  19.002  33.880   8.864
 1206POPC   C1A18195  19.016  33.815   8.564
 1206POPC   D2A18196  19.097  33.774   8.264
 1206POPC   C3A18197  19.058  33.776   7.964
 1206POPC   C4A18198  19.048  33.814   7.664
 1206POPC   C1B18199  18.910  34.023   8.564
 1206POPC   C2B18200  18.971  33.984   8.264
 1206POPC   C3B18201  18.975  33.971   7.964
 1206POPC   C4B18202  18.961  34.024   7.664
 1207POPC   NC318203   0.401   5.111   9.464
 1207POPC   PO418204   0.404   5.079   9.164
 1207POPC   GL118205   0.426   5.118   8.864
 1207POPC   GL218206   0.300   5.053   8.864
 1207POPC   C1A18207   0.394   5.141   8.564
 1207POPC   D2A18208   0.417   5.069   8.264
 1207POPC   C3A18209   0.432   5.067   7.964
 1207POPC   C4A18210   0.462   5.123   7.664
 1207POPC   C1B18211   0.220   5.037   8.564
 1207POPC   C2B18212   0.159   5.036   8.264
 1207POPC   C3B18213   0.237   4.976   7.964
 1207POPC   C4B18214   0.256   4.984   7.664
 1208POPC   NC318215   3.587  25.247   9.464
 1208POPC   PO418216   3.577  25.239   9.164
 1208POPC   GL118217   3.500  25.259   8.864
 1208POPC   GL218218   3.463  25.152   8.864
 1208POPC   C1A18219   3.576  25.236   8.564
 1208POPC   D2A18220   3.588  25.305   8.264
 1208POPC   C3A18221   3.575  25.229   7.964
 1208POPC   C4A18222   3.571  25.286   7.664
 1208POPC   C1B18223   3.302  25.153   8.564
 1208POPC   C2B18224   3.331  25.165   8.264
 1208POPC   C3B18225   3.343  25.104   7.964
 1208POPC   C4B18226   3.283  25.110   7.664
 1209POPC   NC318227   4.272  16.740   9.464
 1209POPC   PO418228   4.318  16.697   9.164
 1209POPC   GL118229   4.275  16.720   8.864
 1209POPC   GL218230   4.191  16.840   8.864
 1209POPC   C1A18231   4.306  16.743   8.564
 1209POPC   D2A18232   4.293  16.738   8.264
 1209POPC   C3A18233   4.315  16.682   7.964
 1209POPC   C4A18234   4.354  16.743   7.664
 1209POPC   C1B18235   4.192  16.893   8.564
 1209POPC   C2B18236   4.116  16.891   8.264
 1209POPC   C3B18237   4.196  16.880   7.964
 1209POPC   C4B18238   4.191  16.962   7.664
 1210POPC   NC318239  43.935  14.441   9.464
 1210POPC   PO418240  43.903  14.428   9.164
 1210POPC   GL118241  43.880  14.382   8.864
 1210POPC   GL218242  44.052  14.430   8.864
 1210POPC   C1A18243  43.934  14.414   8.564
 1210POPC   D2A18244  43.846  14.432   8.264
 1210POPC   C3A18245  43.885  14.364   7.964
 1210POPC   C4A18246  43.922  14.389   7.664
 1210POPC   C1B18247  44.103  14.533   8.564
 1210POPC   C2B18248  44.121  14.471   8.264
 1210POPC   C3B18249  44.138  14.447   7.964
 1210POPC   C4B18250  44.146  14.518   7.664
 1211POPC   NC318251   1.997  33.767   9.464
 1211POPC   PO418252   1.983  33.772   9.164
 1211POPC   GL118253   1.970  33.784   8.864
 1211POPC   GL218254   1.935  33.678   8.864
 1211POPC   C1A18255   1.941  33.808   8.564
 1211POPC   D2A18256   2.013  33.844   8.264
 1211POPC   C3A18257   2.016  33.757   7.964
 1211POPC   C4A18258   1.994  33.761   7.664
 1211POPC   C1B18259   1.941  33.519   8.564
 1211POPC   C2B18260   2.017  33.551   8.264
 1211POPC   C3B18261   1.942  33.562   7.964
 1211POPC   C4B18262   2.010  33.577   7.664
 1212POPC   NC318263   4.268  11.282   9.464
 1212POPC   PO418264   4.269  11.344   9.164
 1212POPC   GL118265   4.303  11.287   8.864
 1212POPC   GL218266   4.397  11.247   8.864
 1212POPC   C1A18267   4.303  11.263   8.564
 1212POPC   D2A18268   4.326  11.268   8.264
 1212POPC   C3A18269   4.340  11.316   7.964
 1212POPC   C4A18270   4.284  11.282   7.664
 1212POPC   C1B18271   4.551  11.210   8.564
 1212POPC   C2B18272   4.579  11.200   8.264
 1212POPC   C3B18273   4.555  11.206   7.964
 1212POPC   C4B18274   4.537  11.197   7.664
 1213POPC   NC318275  15.166   3.504   9.464
 1213POPC   PO418276  15.211   3.560   9.164
 1213POPC   GL118277  15.147   3.512   8.864
 1213POPC   GL218278  15.084   3.546   8.864
 1213POPC   C1A18279  15.138   3.562   8.564
 1213POPC   D2A18280  15.147   3.518   8.264
 1213POPC   C3A18281  15.216   3.521   7.964
 1213POPC   C4A18282  15.137   3.517   7.664
 1213POPC   C1B18283  14.907   3.474   8.564
 1213POPC   C2B18284  14.974   3.429   8.264
 1213POPC   C3B18285  14.948   3.475   7.964
 1213POPC   C4B18286  14.925   3.425   7.664
 1214POPC   NC318287  32.247  22.115   9.464
 1214POPC   PO418288  32.228  22.176   9.164
 1214POPC   GL118289  32.257  22.154   8.864
 1214POPC   GL218290  32.349  22.242   8.864
 1214POPC   C1A18291  32.297  22.211   8.564
 1214POPC   D2A18292  32.278  22.193   8.264
 1214POPC   C3A18293  32.245  22.189   7.964
 1214POPC   C4A18294  32.264  22.185   7.664
 1214POPC   C1B18295  32.376  22.336   8.564
 1214POPC   C2B18296  32.407  22.394   8.264
 1214POPC   C3B18297  32.378  22.362   7.964
 1214POPC   C4B18298  32.346  22.363   7.664
 1215POPC   NC318299  36.142  41.599   9.464
 1215POPC   PO418300  36.173  41.585   9.164
 1215POPC   GL118301  36.143  41.604   8.864
 1215POPC   GL218302  36.198  41.502   8.864
 1215POPC   C1A18303  36.095  41.540   8.564
 1215POPC   D2A18304  36.120  41.539   8.264
 1215POPC   C3A18305  36.135  41.590   7.964
 1215POPC   C4A18306  36.166  41.582   7.664
 1215POPC   C1B18307  36.343  41.535   8.564
 1215POPC   C2B18308  36.359  41.479   8.264
 1215POPC   C3B18309  36.401  41.516   7.964
 1215POPC   C4B18310  36.350  41.497   7.664
 1216POPC   NC318311  31.448  15.949   9.464
 1216POPC   PO418312  31.513  15.959   9.164
 1216POPC   GL118313  31.433  15.913   8.864
 1216POPC   GL218314  31.575  15.850   8.864
 1216POPC   C1A18315  31.438  15.915   8.564
 1216POPC   D2A18316  31.425  15.933   8.264
 1216POPC   C3A18317  31.501  15.906   7.964
 1216POPC   C4A18318  31.427  15.932   7.664
 1216POPC   C1B18319  31.677  15.840   8.564
 1216POPC   C2B18320  31.672  15.789   8.264
 1216POPC   C3B18321  31.722  15.790   7.964
 1216POPC   C4B18322  31.734  15.862   7.664
 1217POPC   NC318323  41.517  41.534   9.464
 1217POPC   PO418324  41.509  41.532   9.164
 1217POPC   GL118325  41.587  41.534   8.864
 1217POPC   GL218326  41.610  41.664   8.864
 1217POPC   C1A18327  41.519  41.568   8.564
 1217POPC   D2A18328  41.509  41.528   8.264
 1217POPC   C3A18329  41.607  41.583   7.964
 1217POPC   C4A18330  41.550  41.573   7.664
 1217POPC   C1B18331  41.738  41.729   8.564
 1217POPC   C2B18332  41.766  41.708   8.264
 1217POPC   C3B18333  41.681  41.731   7.964
 1217POPC   C4B18334  41.711  41.744   7.664
 1218POPC   NC318335  40.788  14.431   9.464
 1218POPC   PO418336  40.754  14.358   9.164
 1218POPC   GL118337  40.757  14.380   8.864
 1218POPC   GL218338  40.847  14.434   8.864
 1218POPC   C1A18339  40.752  14.367   8.564
 1218POPC   D2A18340  40.759  14.394   8.264
 1218POPC   C3A18341  40.780  14.381   7.964
 1218POPC   C4A18342  40.787  14.446   7.664
 1218POPC   C1B18343  41.013  14.513   8.564
 1218POPC   C2B18344  41.038  14.482   8.264
 1218POPC   C3B18345  41.006  14.485   7.964
 1218POPC   C4B18346  41.003  14.519   7.664
 1219POPC   NC318347  29.169  42.371   9.464
 1219POPC   PO418348  29.126  42.366   9.164
 1219POPC   GL118349  29.176  42.367   8.864
 1219POPC   GL218350  29.069  42.204   8.864
 1219POPC   C1A18351  29.170  42.336   8.564
 1219POPC   D2A18352  29.143  42.356   8.264
 1219POPC   C3A18353  29.116  42.289   7.964
 1219POPC   C4A18354  29.139  42.304   7.664
 1219POPC   C1B18355  28.916  42.150   8.564
 1219POPC   C2B18356  29.003  42.188   8.264
 1219POPC   C3B18357  28.967  42.141   7.964
 1219POPC   C4B18358  28.974  42.160   7.664
 1220POPC   NC318359   5.865  39.201   9.464
 1220POPC   PO418360   5.885  39.208   9.164
 1220POPC   GL118361   5.834  39.237   8.864
 1220POPC   GL218362   5.797  39.133   8.864
 1220POPC   C1A18363   5.833  39.246   8.564
 1220POPC   D2A18364   5.824  39.262   8.264
 1220POPC   C3A18365   5.896  39.238   7.964
 1220POPC   C4A18366   5.830  39.245   7.664
 1220POPC   C1B18367   5.733  39.013   8.564
 1220POPC   C2B18368   5.767  38.992   8.264
 1220POPC   C3B18369   5.769  39.052   7.964
 1220POPC   C4B18370   5.705  38.998   7.664
 1221POPC   NC318371   3.564  30.647   9.464
 1221POPC   PO418372   3.570  30.679   9.164
 1221POPC   GL118373   3.584  30.690   8.864
 1221POPC   GL218374   3.417  30.744   8.864
 1221POPC   C1A18375   3.533  30.673   8.564
 1221POPC   D2A18376   3.569  30.677   8.264
 1221POPC   C3A18377   3.523  30.656   7.964
 1221POPC   C4A18378   3.527  30.680   7.664
 1221POPC   C1B18379   3.303  30.834   8.564
 1221POPC   C2B18380   3.298  30.854   8.264
 1221POPC   C3B18381   3.280  30.766   7.964
 1221POPC   C4B18382   3.300  30.814   7.664
 1222POPC   NC318383  14.448  36.944   9.464
 1222POPC   PO418384  14.388  36.877   9.164
 1222POPC   GL118385  14.423  36.931   8.864
 1222POPC   GL218386  14.302  36.988   8.864
 1222POPC   C1A18387  14.423  36.908   8.564
 1222POPC   D2A18388  14.452  36.904   8.264
 1222POPC   C3A18389  14.411  36.934   7.964
 1222POPC   C4A18390  14.365  36.910   7.664
 1222POPC   C1B18391  14.194  36.999   8.564
 1222POPC   C2B18392  14.160  37.047   8.264
 1222POPC   C3B18393  14.146  36.964   7.964
 1222POPC   C4B18394  14.147  37.021   7.664
 1223POPC   NC318395  39.254  31.437   9.464
 1223POPC   PO418396  39.260  31.497   9.164
 1223POPC   GL118397  39.212  31.455   8.864
 1223POPC   GL218398  39.190  31.593   8.864
 1223POPC   C1A18399  39.270  31.502   8.564
 1223POPC   D2A18400  39.205  31.437   8.264
 1223POPC   C3A18401  39.217  31.488   7.964
 1223POPC   C4A18402  39.277  31.448   7.664
 1223POPC   C1B18403  39.076  31.714   8.564
 1223POPC   C2B18404  39.086  31.686   8.264
 1223POPC   C3B18405  39.150  31.729   7.964
 1223POPC   C4B18406  39.107  31.737   7.664
 1224POPC   NC318407  12.038  19.809   9.464
 1224POPC   PO418408  12.031  19.883   9.164
 1224POPC   GL118409  12.087  19.833   8.864
 1224POPC   GL218410  11.918  19.792   8.864
 1224POPC   C1A18411  12.115  19.801   8.564
 1224POPC   D2A18412  12.058  19.859   8.264
 1224POPC   C3A18413  12.037  19.792   7.964
 1224POPC   C4A18414  12.105  19.877   7.664
 1224POPC   C1B18415  11.867  19.761   8.564
 1224POPC   C2B18416  11.799  19.743   8.264
 1224POPC   C3B18417  11.830  19.780   7.964
 1224POPC   C4B18418  11.840  19.770   7.664
 1225POPC   NC318419  26.060  13.603   9.464
 1225POPC   PO418420  26.011  13.657   9.164
 1225POPC   GL118421  26.027  13.588   8.864
 1225POPC   GL218422  25.900  13.694   8.864
 1225POPC   C1A18423  25.999  13.665   8.564
 1225POPC   D2A18424  26.020  13.581   8.264
 1225POPC   C3A18425  26.058  13.622   7.964
 1225POPC   C4A18426  26.042  13.608   7.664
 1225POPC   C1B18427  25.822  13.765   8.564
 1225POPC   C2B18428  25.792  13.754   8.264
 1225POPC   C3B18429  25.850  13.789   7.964
 1225POPC   C4B18430  25.886  13.781   7.664
 1226POPC   NC318431  38.429  39.968   9.464
 1226POPC   PO418432  38.471  40.022   9.164
 1226POPC   GL118433  38.429  39.996   8.864
 1226POPC   GL218434  38.506  39.901   8.864
 1226POPC   C1A18435  38.413  40.017   8.564
 1226POPC   D2A18436  38.480  40.045   8.264
 1226POPC   C3A18437  38.451  39.969   7.964
 1226POPC   C4A18438  38.411  40.011   7.664
 1226POPC   C1B18439  38.545  39.789   8.564
 1226POPC   C2B18440  38.500  39.730   8.264
 1226POPC   C3B18441  38.565  39.736   7.964
 1226POPC   C4B18442  38.553  39.808   7.664
 1227POPC   NC318443  22.933   1.213   9.464
 1227POPC   PO418444  22.914   1.244   9.164
 1227POPC   GL118445  22.975   1.174   8.864
 1227POPC   GL218446  22.860   1.192   8.864
 1227POPC   C1A18447  22.897   1.190   8.564
 1227POPC   D2A18448  22.928   1.244   8.264
 1227POPC   C3A18449  22.917   1.220   7.964
 1227POPC   C4A18450  22.917   1.193   7.664
 1227POPC   C1B18451  22.734   1.129   8.564
 1227POPC   C2B18452  22.691   1.104   8.264
 1227POPC   C3B18453  22.765   1.035   7.964
 1227POPC   C4B18454  22.762   1.074   7.664
 1228POPC   NC318455  40.051   1.995   9.464
 1228POPC   PO418456  40.051   2.002   9.164
 1228POPC   GL118457  39.970   1.980   8.864
 1228POPC   GL218458  39.880   2.011   8.864
 1228POPC   C1A18459  39.976   2.029   8.564
 1228POPC   D2A18460  40.005   1.946   8.264
 1228POPC   C3A18461  40.049   1.967   7.964
 1228POPC   C4A18462  40.034   2.035   7.664
 1228POPC   C1B18463  39.749   1.931   8.564
 1228POPC   C2B18464  39.772   1.948   8.264
 1228POPC   C3B18465  39.807   1.943   7.964
 1228POPC   C4B18466  39.748   1.900   7.664
 1229POPC   NC318467  25.300  28.406   9.464
 1229POPC   PO418468  25.253  28.345   9.164
 1229POPC   GL118469  25.230  28.382   8.864
 1229POPC   GL218470  25.306  28.491   8.864
 1229POPC   C1A18471  25.301  28.339   8.564
 1229POPC   D2A18472  25.280  28.393   8.264
 1229POPC   C3A18473  25.255  28.347   7.964
 1229POPC   C4A18474  25.310  28.413   7.664
 1229POPC   C1B18475  25.339  28.648   8.564
 1229POPC   C2B18476  25.273  28.665   8.264
 1229POPC   C3B18477  25.262  28.659   7.964
 1229POPC   C4B18478  25.309  28.619   7.664
 1230POPC   NC318479  27.587   2.814   9.464
 1230POPC   PO418480  27.603   2.716   9.164
 1230POPC   GL118481  27.605   2.748   8.864
 1230POPC   GL218482  27.677   2.624   8.864
 1230POPC   C1A18483  27.585   2.727   8.564
 1230POPC   D2A18484  27.607   2.777   8.264
 1230POPC   C3A18485  27.547   2.781   7.964
 1230POPC   C4A18486  27.562   2.774   7.664
 1230POPC   C1B18487  27.738   2.564   8.564
 1230POPC   C2B18488  27.764   2.602   8.264
 1230POPC   C3B18489  27.799   2.555   7.964
 1230POPC   C4B18490  27.789   2.575   7.664
 1231POPC   NC318491  32.286  36.158   9.464
 1231POPC   PO418492  32.201  36.168   9.164
 1231POPC   GL118493  32.283  36.168   8.864
 1231POPC   GL218494  32.205  36.211   8.864
 1231POPC   C1A18495  32.268  36.114   8.564
 1231POPC   D2A18496  32.269  36.084   8.264
 1231POPC   C3A18497  32.274  36.161   7.964
 1231POPC   C4A18498  32.282  36.130   7.664
 1231POPC   C1B18499  32.144  36.285   8.564
 1231POPC   C2B18500  32.145  36.340   8.264
 1231POPC   C3B18501  32.086  36.329   7.964
 1231POPC   C4B18502  32.109  36.345   7.664
 1232POPC   NC318503  26.771  33.758   9.464
 1232POPC   PO418504  26.772  33.801   9.164
 1232POPC   GL118505  26.821  33.789   8.864
 1232POPC   GL218506  26.910  33.728   8.864
 1232POPC   C1A18507  26.832  33.841   8.564
 1232POPC   D2A18508  26.834  33.800   8.264
 1232POPC   C3A18509  26.817  33.753   7.964
 1232POPC   C4A18510  26.803  33.831   7.664
 1232POPC   C1B18511  26.980  33.673   8.564
 1232POPC   C2B18512  27.062  33.636   8.264
 1232POPC   C3B18513  27.017  33.686   7.964
 1232POPC   C4B18514  27.035  33.670   7.664
 1233POPC   NC318515   5.910  34.609   9.464
 1233POPC   PO418516   5.902  34.615   9.164
 1233POPC   GL118517   5.820  34.545   8.864
 1233POPC   GL218518   5.963  34.596   8.864
 1233POPC   C1A18519   5.879  34.537   8.564
 1233POPC   D2A18520   5.855  34.618   8.264
 1233POPC   C3A18521   5.887  34.544   7.964
 1233POPC   C4A18522   5.887  34.596   7.664
 1233POPC   C1B18523   6.096  34.668   8.564
 1233POPC   C2B18524   6.105  34.620   8.264
 1233POPC   C3B18525   6.116  34.657   7.964
 1233POPC   C4B18526   6.157  34.610   7.664
 1234POPC   NC318527  33.018  13.608   9.464
 1234POPC   PO418528  33.045  13.645   9.164
 1234POPC   GL118529  33.056  13.593   8.864
 1234POPC   GL218530  32.995  13.503   8.864
 1234POPC   C1A18531  32.989  13.645   8.564
 1234POPC   D2A18532  32.977  13.654   8.264
 1234POPC   C3A18533  33.018  13.588   7.964
 1234POPC   C4A18534  32.982  13.656   7.664
 1234POPC   C1B18535  32.967  13.396   8.564
 1234POPC   C2B18536  32.983  13.379   8.264
 1234POPC   C3B18537  32.957  13.406   7.964
 1234POPC   C4B18538  32.908  13.350   7.664
 1235POPC   NC318539  31.469  34.528   9.464
 1235POPC   PO418540  31.514  34.624   9.164
 1235POPC   GL118541  31.479  34.539   8.864
 1235POPC   GL218542  31.374  34.637   8.864
 1235POPC   C1A18543  31.444  34.597   8.564
 1235POPC   D2A18544  31.473  34.613   8.264
 1235POPC   C3A18545  31.439  34.531   7.964
 1235POPC   C4A18546  31.450  34.526   7.664
 1235POPC   C1B18547  31.292  34.791   8.564
 1235POPC   C2B18548  31.338  34.751   8.264
 1235POPC   C3B18549  31.288  34.763   7.964
 1235POPC   C4B18550  31.284  34.735   7.664
 1236POPC   NC318551   0.478  25.247   9.464
 1236POPC   PO418552   0.464  25.309   9.164
 1236POPC   GL118553   0.438  25.262   8.864
 1236POPC   GL218554   0.374  25.384   8.864
 1236POPC   C1A18555   0.389  25.251   8.564
 1236POPC   D2A18556   0.391  25.219   8.264
 1236POPC   C3A18557   0.430  25.221   7.964
 1236POPC   C4A18558   0.457  25.305   7.664
 1236POPC   C1B18559   0.246  25.437   8.564
 1236POPC   C2B18560   0.241  25.479   8.264
 1236POPC   C3B18561   0.283  25.497   7.964
 1236POPC   C4B18562   0.286  25.450   7.664
 1237POPC   NC318563  16.748  39.254   9.464
 1237POPC   PO418564  16.695  39.198   9.164
 1237POPC   GL118565  16.776  39.273   8.864
 1237POPC   GL218566  16.588  39.219   8.864
 1237POPC   C1A18567  16.735  39.224   8.564
 1237POPC   D2A18568  16.723  39.195   8.264
 1237POPC   C3A18569  16.721  39.251   7.964
 1237POPC   C4A18570  16.761  39.274   7.664
 1237POPC   C1B18571  16.465  39.166   8.564
 1237POPC   C2B18572  16.435  39.156   8.264
 1237POPC   C3B18573  16.519  39.204   7.964
 1237POPC   C4B18574  16.459  39.220   7.664
 1238POPC   NC318575  12.028   0.437   9.464
 1238POPC   PO418576  12.031   0.468   9.164
 1238POPC   GL118577  12.031   0.471   8.864
 1238POPC   GL218578  11.970   0.335   8.864
 1238POPC   C1A18579  12.063   0.476   8.564
 1238POPC   D2A18580  12.098   0.450   8.264
 1238POPC   C3A18581  12.038   0.449   7.964
 1238POPC   C4A18582  12.053   0.394   7.664
 1238POPC   C1B18583  11.848   0.271   8.564
 1238POPC   C2B18584  11.836   0.288   8.264
 1238POPC   C3B18585  11.844   0.277   7.964
 1238POPC   C4B18586  11.900   0.268   7.664
 1239POPC   NC318587  19.804  17.555   9.464
 1239POPC   PO418588  19.786  17.458   9.164
 1239POPC   GL118589  19.873  17.473   8.864
 1239POPC   GL218590  19.928  17.594   8.864
 1239POPC   C1A18591  19.866  17.478   8.564
 1239POPC   D2A18592  19.834  17.529   8.264
 1239POPC   C3A18593  19.830  17.547   7.964
 1239POPC   C4A18594  19.825  17.497   7.664
 1239POPC   C1B18595  20.035  17.707   8.564
 1239POPC   C2B18596  19.968  17.676   8.264
 1239POPC   C3B18597  19.957  17.644   7.964
 1239POPC   C4B18598  19.961  17.650   7.664
 1240POPC   NC318599  12.100  15.228   9.464
 1240POPC   PO418600  12.050  15.175   9.164
 1240POPC   GL118601  12.053  15.147   8.864
 1240POPC   GL218602  12.005  15.224   8.864
 1240POPC   C1A18603  12.032  15.211   8.564
 1240POPC   D2A18604  12.108  15.215   8.264
 1240POPC   C3A18605  12.106  15.143   7.964
 1240POPC   C4A18606  12.038  15.168   7.664
 1240POPC   C1B18607  11.908  15.325   8.564
 1240POPC   C2B18608  11.848  15.397   8.264
 1240POPC   C3B18609  11.862  15.305   7.964
 1240POPC   C4B18610  11.890  15.308   7.664
 1241POPC   NC318611  40.802   4.278   9.464
 1241POPC   PO418612  40.828   4.331   9.164
 1241POPC   GL118613  40.812   4.319   8.864
 1241POPC   GL218614  40.867   4.319   8.864
 1241POPC   C1A18615  40.824   4.268   8.564
 1241POPC   D2A18616  40.811   4.354   8.264
 1241POPC   C3A18617  40.745   4.303   7.964
 1241POPC   C4A18618  40.764   4.273   7.664
 1241POPC   C1B18619  41.004   4.275   8.564
 1241POPC   C2B18620  41.027   4.294   8.264
 1241POPC   C3B18621  41.033   4.239   7.964
 1241POPC   C4B18622  41.068   4.292   7.664
 1242POPC   NC318623   8.968  15.153   9.464
 1242POPC   PO418624   8.941  15.137   9.164
 1242POPC   GL118625   8.972  15.202   8.864
 1242POPC   GL218626   8.986  15.276   8.864
 1242POPC   C1A18627   8.934  15.190   8.564
 1242POPC   D2A18628   8.991  15.180   8.264
 1242POPC   C3A18629   8.986  15.131   7.964
 1242POPC   C4A18630   8.961  15.154   7.664
 1242POPC   C1B18631   9.048  15.387   8.564
 1242POPC   C2B18632   9.032  15.375   8.264
 1242POPC   C3B18633   9.005  15.388   7.964
 1242POPC   C4B18634   8.970  15.385   7.664
 1243POPC   NC318635  28.364  19.015   9.464
 1243POPC   PO418636  28.370  19.103   9.164
 1243POPC   GL118637  28.375  19.108   8.864
 1243POPC   GL218638  28.251  19.012   8.864
 1243POPC   C1A18639  28.342  19.078   8.564
 1243POPC   D2A18640  28.408  19.070   8.264
 1243POPC   C3A18641  28.363  19.037   7.964
 1243POPC   C4A18642  28.353  19.010   7.664
 1243POPC   C1B18643  28.177  19.019   8.564
 1243POPC   C2B18644  28.114  18.959   8.264
 1243POPC   C3B18645  28.124  18.963   7.964
 1243POPC   C4B18646  28.148  18.958   7.664
 1244POPC   NC318647  32.978   7.424   9.464
 1244POPC   PO418648  32.981   7.459   9.164
 1244POPC   GL118649  33.055   7.371   8.864
 1244POPC   GL218650  32.880   7.441   8.864
 1244POPC   C1A18651  33.055   7.386   8.564
 1244POPC   D2A18652  33.036   7.430   8.264
 1244POPC   C3A18653  32.983   7.382   7.964
 1244POPC   C4A18654  33.041   7.443   7.664
 1244POPC   C1B18655  32.830   7.515   8.564
 1244POPC   C2B18656  32.764   7.586   8.264
 1244POPC   C3B18657  32.789   7.526   7.964
 1244POPC   C4B18658  32.827   7.572   7.664
 1245POPC   NC318659  29.125   6.672   9.464
 1245POPC   PO418660  29.143   6.619   9.164
 1245POPC   GL118661  29.134   6.678   8.864
 1245POPC   GL218662  29.112   6.474   8.864
 1245POPC   C1A18663  29.150   6.653   8.564
 1245POPC   D2A18664  29.150   6.600   8.264
 1245POPC   C3A18665  29.102   6.646   7.964
 1245POPC   C4A18666  29.099   6.621   7.664
 1245POPC   C1B18667  29.155   6.423   8.564
 1245POPC   C2B18668  29.156   6.389   8.264
 1245POPC   C3B18669  29.124   6.417   7.964
 1245POPC   C4B18670  29.152   6.390   7.664
 1246POPC   NC318671   1.973  40.797   9.464
 1246POPC   PO418672   1.974  40.790   9.164
 1246POPC   GL118673   1.955  40.821   8.864
 1246POPC   GL218674   1.881  40.841   8.864
 1246POPC   C1A18675   1.958  40.824   8.564
 1246POPC   D2A18676   1.963  40.785   8.264
 1246POPC   C3A18677   1.984  40.795   7.964
 1246POPC   C4A18678   2.024  40.822   7.664
 1246POPC   C1B18679   1.823  40.926   8.564
 1246POPC   C2B18680   1.811  40.888   8.264
 1246POPC   C3B18681   1.814  40.903   7.964
 1246POPC   C4B18682   1.743  40.873   7.664
 1247POPC   NC318683  30.733   8.985   9.464
 1247POPC   PO418684  30.675   8.988   9.164
 1247POPC   GL118685  30.732   8.975   8.864
 1247POPC   GL218686  30.559   9.014   8.864
 1247POPC   C1A18687  30.703   8.991   8.564
 1247POPC   D2A18688  30.732   8.977   8.264
 1247POPC   C3A18689  30.735   8.982   7.964
 1247POPC   C4A18690  30.705   9.018   7.664
 1247POPC   C1B18691  30.515   9.082   8.564
 1247POPC   C2B18692  30.470   9.093   8.264
 1247POPC   C3B18693  30.451   9.145   7.964
 1247POPC   C4B18694  30.481   9.095   7.664
 1248POPC   NC318695  37.672  43.896   9.464
 1248POPC   PO418696  37.683  43.904   9.164
 1248POPC   GL118697  37.634  43.876   8.864
 1248POPC   GL218698  37.560  43.910   8.864
 1248POPC   C1A18699  37.687  43.893   8.564
 1248POPC   D2A18700  37.689  43.837   8.264
 1248POPC   C3A18701  37.695  43.935   7.964
 1248POPC   C4A18702  37.691  43.910   7.664
 1248POPC   C1B18703  37.484  44.016   8.564
 1248POPC   C2B18704  37.441  44.046   8.264
 1248POPC   C3B18705  37.515  44.020   7.964
 1248POPC   C4B18706  37.439  43.982   7.664
 1249POPC   NC318707   7.451   7.433   9.464
 1249POPC   PO418708   7.413   7.418   9.164
 1249POPC   GL118709   7.413   7.378   8.864
 1249POPC   GL218710   7.564   7.430   8.864
 1249POPC   C1A18711   7.381   7.434   8.564
 1249POPC   D2A18712   7.462   7.444   8.264
 1249POPC   C3A18713   7.421   7.413   7.964
 1249POPC   C4A18714   7.460   7.390   7.664
 1249POPC   C1B18715   7.702   7.377   8.564
 1249POPC   C2B18716   7.622   7.434   8.264
 1249POPC   C3B18717   7.650   7.358   7.964
 1249POPC   C4B18718   7.670   7.413   7.664
 1250POPC   NC318719   0.420  22.925   9.464
 1250POPC   PO418720   0.419  22.938   9.164
 1250POPC   GL118721   0.452  22.906   8.864
 1250POPC   GL218722   0.584  22.949   8.864
 1250POPC   C1A18723   0.466  22.972   8.564
 1250POPC   D2A18724   0.402  22.963   8.264
 1250POPC   C3A18725   0.444  22.973   7.964
 1250POPC   C4A18726   0.455  22.893   7.664
 1250POPC   C1B18727   0.657  23.011   8.564
 1250POPC   C2B18728   0.627  23.038   8.264
 1250POPC   C3B18729   0.664  23.025   7.964
 1250POPC   C4B18730   0.655  22.986   7.664
 1251POPC   NC318731  15.149  26.033   9.464
 1251POPC   PO418732  15.207  26.047   9.164
 1251POPC   GL118733  15.167  26.061   8.864
 1251POPC   GL218734  15.060  25.979   8.864
 1251POPC   C1A18735  15.219  26.034   8.564
 1251POPC   D2A18736  15.203  26.047   8.264
 1251POPC   C3A18737  15.195  25.995   7.964
 1251POPC   C4A18738  15.187  25.999   7.664
 1251POPC   C1B18739  14.972  25.844   8.564
 1251POPC   C2B18740  14.989  25.844   8.264
 1251POPC   C3B18741  14.958  25.838   7.964
 1251POPC   C4B18742  14.999  25.830   7.664
 1252POPC   NC318743  19.034  43.897   9.464
 1252POPC   PO418744  19.023  43.928   9.164
 1252POPC   GL118745  19.010  43.881   8.864
 1252POPC   GL218746  18.926  43.773   8.864
 1252POPC   C1A18747  19.065  43.910   8.564
 1252POPC   D2A18748  19.098  43.858   8.264
 1252POPC   C3A18749  19.055  43.850   7.964
 1252POPC   C4A18750  19.068  43.852   7.664
 1252POPC   C1B18751  18.831  43.735   8.564
 1252POPC   C2B18752  18.860  43.743   8.264
 1252POPC   C3B18753  18.862  43.752   7.964
 1252POPC   C4B18754  18.806  43.743   7.664
 1253POPC   NC318755  22.954  42.297   9.464
 1253POPC   PO418756  22.933  42.341   9.164
 1253POPC   GL118757  22.912  42.307   8.864
 1253POPC   GL218758  22.811  42.450   8.864
 1253POPC   C1A18759  22.979  42.382   8.564
 1253POPC   D2A18760  22.979  42.348   8.264
 1253POPC   C3A18761  22.888  42.374   7.964
 1253POPC   C4A18762  22.934  42.342   7.664
 1253POPC   C1B18763  22.720  42.544   8.564
 1253POPC   C2B18764  22.756  42.500   8.264
 1253POPC   C3B18765  22.742  42.471   7.964
 1253POPC   C4B18766  22.791  42.541   7.664
 1254POPC   NC318767  22.115  30.686   9.464
 1254POPC   PO418768  22.121  30.705   9.164
 1254POPC   GL118769  22.150  30.710   8.864
 1254POPC   GL218770  22.188  30.575   8.864
 1254POPC   C1A18771  22.117  30.680   8.564
 1254POPC   D2A18772  22.118  30.673   8.264
 1254POPC   C3A18773  22.141  30.662   7.964
 1254POPC   C4A18774  22.132  30.666   7.664
 1254POPC   C1B18775  22.218  30.448   8.564
 1254POPC   C2B18776  22.207  30.409   8.264
 1254POPC   C3B18777  22.179  30.441   7.964
 1254POPC   C4B18778  22.192  30.470   7.664
 1255POPC   NC318779  33.029   0.432   9.464
 1255POPC   PO418780  33.015   0.452   9.164
 1255POPC   GL118781  32.990   0.429   8.864
 1255POPC   GL218782  32.896   0.478   8.864
 1255POPC   C1A18783  32.993   0.468   8.564
 1255POPC   D2A18784  33.045   0.483   8.264
 1255POPC   C3A18785  32.986   0.439   7.964
 1255POPC   C4A18786  33.018   0.472   7.664
 1255POPC   C1B18787  32.787   0.383   8.564
 1255POPC   C2B18788  32.796   0.447   8.264
 1255POPC   C3B18789  32.768   0.440   7.964
 1255POPC   C4B18790  32.817   0.458   7.664
 1256POPC   NC318791  22.168  16.778   9.464
 1256POPC   PO418792  22.148  16.775   9.164
 1256POPC   GL118793  22.167  16.698   8.864
 1256POPC   GL218794  22.043  16.644   8.864
 1256POPC   C1A18795  22.160  16.751   8.564
 1256POPC   D2A18796  22.122  16.713   8.264
 1256POPC   C3A18797  22.202  16.691   7.964
 1256POPC   C4A18798  22.117  16.779   7.664
 1256POPC   C1B18799  22.035  16.556   8.564
 1256POPC   C2B18800  21.948  16.522   8.264
 1256POPC   C3B18801  22.013  16.541   7.964
 1256POPC   C4B18802  21.982  16.558   7.664
 1257POPC   NC318803  33.777   7.438   9.464
 1257POPC   PO418804  33.813   7.434   9.164
 1257POPC   GL118805  33.797   7.464   8.864
 1257POPC   GL218806  33.720   7.491   8.864
 1257POPC   C1A18807  33.822   7.399   8.564
 1257POPC   D2A18808  33.757   7.380   8.264
 1257POPC   C3A18809  33.826   7.408   7.964
 1257POPC   C4A18810  33.817   7.432   7.664
 1257POPC   C1B18811  33.583   7.509   8.564
 1257POPC   C2B18812  33.541   7.510   8.264
 1257POPC   C3B18813  33.546   7.479   7.964
 1257POPC   C4B18814  33.556   7.447   7.664
 1258POPC   NC318815  12.079  40.791   9.464
 1258POPC   PO418816  12.063  40.747   9.164
 1258POPC   GL118817  12.112  40.816   8.864
 1258POPC   GL218818  12.084  40.640   8.864
 1258POPC   C1A18819  12.114  40.781   8.564
 1258POPC   D2A18820  12.043  40.800   8.264
 1258POPC   C3A18821  12.035  40.826   7.964
 1258POPC   C4A18822  12.082  40.791   7.664
 1258POPC   C1B18823  12.105  40.507   8.564
 1258POPC   C2B18824  12.108  40.579   8.264
 1258POPC   C3B18825  12.115  40.519   7.964
 1258POPC   C4B18826  12.147  40.582   7.664
 1259POPC   NC318827  36.175  42.335   9.464
 1259POPC   PO418828  36.147  42.368   9.164
 1259POPC   GL118829  36.132  42.331   8.864
 1259POPC   GL218830  36.008  42.393   8.864
 1259POPC   C1A18831  36.110  42.347   8.564
 1259POPC   D2A18832  36.160  42.327   8.264
 1259POPC   C3A18833  36.165  42.340   7.964
 1259POPC   C4A18834  36.140  42.370   7.664
 1259POPC   C1B18835  35.984  42.464   8.564
 1259POPC   C2B18836  35.961  42.503   8.264
 1259POPC   C3B18837  35.960  42.531   7.964
 1259POPC   C4B18838  35.917  42.543   7.664
 1260POPC   NC318839   1.211  33.012   9.464
 1260POPC   PO418840   1.224  33.042   9.164
 1260POPC   GL118841   1.175  33.013   8.864
 1260POPC   GL218842   1.091  32.919   8.864
 1260POPC   C1A18843   1.184  33.033   8.564
 1260POPC   D2A18844   1.236  32.975   8.264
 1260POPC   C3A18845   1.245  33.013   7.964
 1260POPC   C4A18846   1.210  32.983   7.664
 1260POPC   C1B18847   0.970  32.870   8.564
 1260POPC   C2B18848   1.041  32.846   8.264
 1260POPC   C3B18849   1.041  32.884   7.964
 1260POPC   C4B18850   1.047  32.854   7.664
 1261POPC   NC318851  19.036  18.257   9.464
 1261POPC   PO418852  19.088  18.316   9.164
 1261POPC   GL118853  19.011  18.284   8.864
 1261POPC   GL218854  19.184  18.334   8.864
 1261POPC   C1A18855  19.010  18.246   8.564
 1261POPC   D2A18856  19.054  18.252   8.264
 1261POPC   C3A18857  19.086  18.322   7.964
 1261POPC   C4A18858  19.025  18.296   7.664
 1261POPC   C1B18859  19.273  18.321   8.564
 1261POPC   C2B18860  19.312  18.335   8.264
 1261POPC   C3B18861  19.281  18.325   7.964
 1261POPC   C4B18862  19.308  18.321   7.664
 1262POPC   NC318863  44.641  31.505   9.464
 1262POPC   PO418864  44.687  31.477   9.164
 1262POPC   GL118865  44.686  31.491   8.864
 1262POPC   GL218866  44.656  31.563   8.864
 1262POPC   C1A18867  44.658  31.434   8.564
 1262POPC   D2A18868  44.655  31.466   8.264
 1262POPC   C3A18869  44.655  31.510   7.964
 1262POPC   C4A18870  44.616  31.514   7.664
 1262POPC   C1B18871  44.731  31.686   8.564
 1262POPC   C2B18872  44.677  31.735   8.264
 1262POPC   C3B18873  44.698  31.720   7.964
 1262POPC   C4B18874  44.714  31.724   7.664
 1263POPC   NC318875  27.576  36.901   9.464
 1263POPC   PO418876  27.579  36.860   9.164
 1263POPC   GL118877  27.632  36.907   8.864
 1263POPC   GL218878  27.538  36.989   8.864
 1263POPC   C1A18879  27.596  36.887   8.564
 1263POPC   D2A18880  27.596  36.863   8.264
 1263POPC   C3A18881  27.551  36.941   7.964
 1263POPC   C4A18882  27.565  36.953   7.664
 1263POPC   C1B18883  27.465  37.161   8.564
 1263POPC   C2B18884  27.540  37.124   8.264
 1263POPC   C3B18885  27.514  37.127   7.964
 1263POPC   C4B18886  27.484  37.154   7.664
 1264POPC   NC318887   6.669   2.734   9.464
 1264POPC   PO418888   6.646   2.740   9.164
 1264POPC   GL118889   6.664   2.719   8.864
 1264POPC   GL218890   6.565   2.628   8.864
 1264POPC   C1A18891   6.670   2.768   8.564
 1264POPC   D2A18892   6.682   2.719   8.264
 1264POPC   C3A18893   6.620   2.757   7.964
 1264POPC   C4A18894   6.685   2.809   7.664
 1264POPC   C1B18895   6.464   2.619   8.564
 1264POPC   C2B18896   6.486   2.625   8.264
 1264POPC   C3B18897   6.473   2.624   7.964
 1264POPC   C4B18898   6.434   2.568   7.664
 1265POPC   NC318899   9.718   7.421   9.464
 1265POPC   PO418900   9.750   7.393   9.164
 1265POPC   GL118901   9.790   7.415   8.864
 1265POPC   GL218902   9.873   7.361   8.864
 1265POPC   C1A18903   9.742   7.463   8.564
 1265POPC   D2A18904   9.787   7.420   8.264
 1265POPC   C3A18905   9.713   7.372   7.964
 1265POPC   C4A18906   9.735   7.463   7.664
 1265POPC   C1B18907   9.915   7.300   8.564
 1265POPC   C2B18908   9.960   7.221   8.264
 1265POPC   C3B18909   9.904   7.270   7.964
 1265POPC   C4B18910   9.977   7.241   7.664
 1266POPC   NC318911  15.911  12.830   9.464
 1266POPC   PO418912  15.948  12.845   9.164
 1266POPC   GL118913  15.915  12.838   8.864
 1266POPC   GL218914  15.842  12.830   8.864
 1266POPC   C1A18915  15.909  12.876   8.564
 1266POPC   D2A18916  15.966  12.866   8.264
 1266POPC   C3A18917  15.962  12.817   7.964
 1266POPC   C4A18918  15.907  12.900   7.664
 1266POPC   C1B18919  15.713  12.866   8.564
 1266POPC   C2B18920  15.720  12.839   8.264
 1266POPC   C3B18921  15.687  12.896   7.964
 1266POPC   C4B18922  15.719  12.835   7.664
 1267POPC   NC318923  27.594  10.498   9.464
 1267POPC   PO418924  27.614  10.571   9.164
 1267POPC   GL118925  27.548  10.550   8.864
 1267POPC   GL218926  27.471  10.459   8.864
 1267POPC   C1A18927  27.562  10.567   8.564
 1267POPC   D2A18928  27.643  10.508   8.264
 1267POPC   C3A18929  27.593  10.559   7.964
 1267POPC   C4A18930  27.557  10.519   7.664
 1267POPC   C1B18931  27.397  10.377   8.564
 1267POPC   C2B18932  27.433  10.355   8.264
 1267POPC   C3B18933  27.440  10.308   7.964
 1267POPC   C4B18934  27.412  10.293   7.664
 1268POPC   NC318935  40.762  15.963   9.464
 1268POPC   PO418936  40.801  15.968   9.164
 1268POPC   GL118937  40.753  15.911   8.864
 1268POPC   GL218938  40.845  15.909   8.864
 1268POPC   C1A18939  40.780  15.958   8.564
 1268POPC   D2A18940  40.785  15.965   8.264
 1268POPC   C3A18941  40.781  15.965   7.964
 1268POPC   C4A18942  40.792  15.973   7.664
 1268POPC   C1B18943  40.949  15.822   8.564
 1268POPC   C2B18944  41.014  15.816   8.264
 1268POPC   C3B18945  40.987  15.826   7.964
 1268POPC   C4B18946  41.034  15.788   7.664
 1269POPC   NC318947  27.638  12.899   9.464
 1269POPC   PO418948  27.636  12.827   9.164
 1269POPC   GL118949  27.572  12.854   8.864
 1269POPC   GL218950  27.558  12.716   8.864
 1269POPC   C1A18951  27.569  12.856   8.564
 1269POPC   D2A18952  27.599  12.889   8.264
 1269POPC   C3A18953  27.552  12.803   7.964
 1269POPC   C4A18954  27.641  12.834   7.664
 1269POPC   C1B18955  27.462  12.662   8.564
 1269POPC   C2B18956  27.520  12.604   8.264
 1269POPC   C3B18957  27.500  12.587   7.964
 1269POPC   C4B18958  27.468  12.575   7.664
 1270POPC   NC318959   4.363  30.666   9.464
 1270POPC   PO418960   4.322  30.660   9.164
 1270POPC   GL118961   4.350  30.663   8.864
 1270POPC   GL218962   4.366  30.625   8.864
 1270POPC   C1A18963   4.298  30.720   8.564
 1270POPC   D2A18964   4.281  30.736   8.264
 1270POPC   C3A18965   4.351  30.724   7.964
 1270POPC   C4A18966   4.363  30.702   7.664
 1270POPC   C1B18967   4.496  30.498   8.564
 1270POPC   C2B18968   4.514  30.543   8.264
 1270POPC   C3B18969   4.512  30.532   7.964
 1270POPC   C4B18970   4.456  30.521   7.664
 1271POPC   NC318971   2.757   3.494   9.464
 1271POPC   PO418972   2.716   3.580   9.164
 1271POPC   GL118973   2.793   3.569   8.864
 1271POPC   GL218974   2.855   3.633   8.864
 1271POPC   C1A18975   2.792   3.517   8.564
 1271POPC   D2A18976   2.805   3.515   8.264
 1271POPC   C3A18977   2.717   3.517   7.964
 1271POPC   C4A18978   2.721   3.515   7.664
 1271POPC   C1B18979   2.915   3.786   8.564
 1271POPC   C2B18980   2.862   3.753   8.264
 1271POPC   C3B18981   2.877   3.772   7.964
 1271POPC   C4B18982   2.923   3.726   7.664
 1272POPC   NC318983  28.387  25.264   9.464
 1272POPC   PO418984  28.350  25.234   9.164
 1272POPC   GL118985  28.398  25.236   8.864
 1272POPC   GL218986  28.240  25.205   8.864
 1272POPC   C1A18987  28.396  25.294   8.564
 1272POPC   D2A18988  28.352  25.220   8.264
 1272POPC   C3A18989  28.413  25.218   7.964
 1272POPC   C4A18990  28.413  25.248   7.664
 1272POPC   C1B18991  28.175  25.107   8.564
 1272POPC   C2B18992  28.114  25.116   8.264
 1272POPC   C3B18993  28.182  25.092   7.964
 1272POPC   C4B18994  28.184  25.116   7.664
 1273POPC   NC318995  36.159   9.738   9.464
 1273POPC   PO418996  36.116   9.730   9.164
 1273POPC   GL118997  36.164   9.738   8.864
 1273POPC   GL218998  36.133   9.628   8.864
 1273POPC   C1A18999  36.110   9.731   8.564
 1273POPC   D2A19000  36.081   9.751   8.264
 1273POPC   C3A19001  36.165   9.770   7.964
 1273POPC   C4A19002  36.110   9.717   7.664
 1273POPC   C1B19003  36.109   9.517   8.564
 1273POPC   C2B19004  36.114   9.528   8.264
 1273POPC   C3B19005  36.181   9.504   7.964
 1273POPC   C4B19006  36.165   9.548   7.664
 1274POPC   NC319007  44.661  13.596   9.464
 1274POPC   PO419008  44.666  13.640   9.164
 1274POPC   GL119009  44.613  13.593   8.864
 1274POPC   GL219010  44.659  13.718   8.864
 1274POPC   C1A19011  44.644  13.664   8.564
 1274POPC   D2A19012  44.644  13.626   8.264
 1274POPC   C3A19013  44.623  13.627   7.964
 1274POPC   C4A19014  44.647  13.600   7.664
 1274POPC   C1B19015  44.659  13.868   8.564
 1274POPC   C2B19016  44.622  13.925   8.264
 1274POPC   C3B19017  44.600  13.855   7.964
 1274POPC   C4B19018  44.625  13.831   7.664
 1275POPC   NC319019  12.891  17.466   9.464
 1275POPC   PO419020  12.881  17.483   9.164
 1275POPC   GL119021  12.881  17.491   8.864
 1275POPC   GL219022  12.764  17.438   8.864
 1275POPC   C1A19023  12.829  17.511   8.564
 1275POPC   D2A19024  12.881  17.488   8.264
 1275POPC   C3A19025  12.849  17.527   7.964
 1275POPC   C4A19026  12.825  17.498   7.664
 1275POPC   C1B19027  12.692  17.366   8.564
 1275POPC   C2B19028  12.659  17.328   8.264
 1275POPC   C3B19029  12.651  17.331   7.964
 1275POPC   C4B19030  12.652  17.379   7.664
 1276POPC   NC319031  18.251  20.595   9.464
 1276POPC   PO419032  18.291  20.660   9.164
 1276POPC   GL119033  18.238  20.612   8.864
 1276POPC   GL219034  18.178  20.612   8.864
 1276POPC   C1A19035  18.280  20.618   8.564
 1276POPC   D2A19036  18.311  20.641   8.264
 1276POPC   C3A19037  18.234  20.572   7.964
 1276POPC   C4A19038  18.302  20.625   7.664
 1276POPC   C1B19039  18.050  20.698   8.564
 1276POPC   C2B19040  18.095  20.741   8.264
 1276POPC   C3B19041  18.070  20.682   7.964
 1276POPC   C4B19042  18.046  20.683   7.664
 1277POPC   NC319043   2.761  37.676   9.464
 1277POPC   PO419044   2.785  37.651   9.164
 1277POPC   GL119045   2.737  37.687   8.864
 1277POPC   GL219046   2.851  37.787   8.864
 1277POPC   C1A19047   2.776  37.683   8.564
 1277POPC   D2A19048   2.739  37.651   8.264
 1277POPC   C3A19049   2.759  37.648   7.964
 1277POPC   C4A19050   2.796  37.662   7.664
 1277POPC   C1B19051   2.836  37.916   8.564
 1277POPC   C2B19052   2.887  37.895   8.264
 1277POPC   C3B19053   2.870  37.899   7.964
 1277POPC   C4B19054   2.893  37.886   7.664
 1278POPC   NC319055  22.170  33.759   9.464
 1278POPC   PO419056  22.187  33.790   9.164
 1278POPC   GL119057  22.199  33.783   8.864
 1278POPC   GL219058  22.066  33.731   8.864
 1278POPC   C1A19059  22.210  33.835   8.564
 1278POPC   D2A19060  22.114  33.817   8.264
 1278POPC   C3A19061  22.138  33.774   7.964
 1278POPC   C4A19062  22.161  33.777   7.664
 1278POPC   C1B19063  21.868  33.747   8.564
 1278POPC   C2B19064  21.957  33.724   8.264
 1278POPC   C3B19065  21.903  33.742   7.964
 1278POPC   C4B19066  21.935  33.748   7.664
 1279POPC   NC319067   0.391  10.525   9.464
 1279POPC   PO419068   0.477  10.476   9.164
 1279POPC   GL119069   0.422  10.490   8.864
 1279POPC   GL219070   0.498  10.633   8.864
 1279POPC   C1A19071   0.431  10.537   8.564
 1279POPC   D2A19072   0.472  10.559   8.264
 1279POPC   C3A19073   0.458  10.481   7.964
 1279POPC   C4A19074   0.481  10.511   7.664
 1279POPC   C1B19075   0.564  10.723   8.564
 1279POPC   C2B19076   0.550  10.802   8.264
 1279POPC   C3B19077   0.486  10.787   7.964
 1279POPC   C4B19078   0.537  10.732   7.664
 1280POPC   NC319079  21.367  30.671   9.464
 1280POPC   PO419080  21.344  30.671   9.164
 1280POPC   GL119081  21.425  30.668   8.864
 1280POPC   GL219082  21.422  30.550   8.864
 1280POPC   C1A19083  21.375  30.723   8.564
 1280POPC   D2A19084  21.357  30.740   8.264
 1280POPC   C3A19085  21.406  30.657   7.964
 1280POPC   C4A19086  21.368  30.728   7.664
 1280POPC   C1B19087  21.558  30.472   8.564
 1280POPC   C2B19088  21.573  30.510   8.264
 1280POPC   C3B19089  21.572  30.487   7.964
 1280POPC   C4B19090  21.571  30.500   7.664
 1281POPC   NC319091   1.972  27.578   9.464
 1281POPC   PO419092   1.945  27.604   9.164
 1281POPC   GL119093   2.039  27.629   8.864
 1281POPC   GL219094   1.936  27.707   8.864
 1281POPC   C1A19095   1.993  27.622   8.564
 1281POPC   D2A19096   1.982  27.602   8.264
 1281POPC   C3A19097   1.979  27.552   7.964
 1281POPC   C4A19098   2.021  27.556   7.664
 1281POPC   C1B19099   1.987  27.806   8.564
 1281POPC   C2B19100   1.937  27.800   8.264
 1281POPC   C3B19101   1.970  27.882   7.964
 1281POPC   C4B19102   1.942  27.801   7.664
 1282POPC   NC319103  18.299  19.824   9.464
 1282POPC   PO419104  18.330  19.882   9.164
 1282POPC   GL119105  18.283  19.810   8.864
 1282POPC   GL219106  18.155  19.746   8.864
 1282POPC   C1A19107  18.287  19.858   8.564
 1282POPC   D2A19108  18.326  19.848   8.264
 1282POPC   C3A19109  18.294  19.795   7.964
 1282POPC   C4A19110  18.296  19.818   7.664
 1282POPC   C1B19111  18.135  19.606   8.564
 1282POPC   C2B19112  18.069  19.603   8.264
 1282POPC   C3B19113  18.111  19.687   7.964
 1282POPC   C4B19114  18.144  19.626   7.664
 1283POPC   NC319115  30.696  34.532   9.464
 1283POPC   PO419116  30.688  34.578   9.164
 1283POPC   GL119117  30.739  34.562   8.864
 1283POPC   GL219118  30.808  34.672   8.864
 1283POPC   C1A19119  30.716  34.558   8.564
 1283POPC   D2A19120  30.690  34.595   8.264
 1283POPC   C3A19121  30.682  34.543   7.964
 1283POPC   C4A19122  30.652  34.572   7.664
 1283POPC   C1B19123  30.818  34.716   8.564
 1283POPC   C2B19124  30.855  34.773   8.264
 1283POPC   C3B19125  30.872  34.803   7.964
 1283POPC   C4B19126  30.832  34.749   7.664
 1284POPC   NC319127  28.321  19.802   9.464
 1284POPC   PO419128  28.331  19.837   9.164
 1284POPC   GL119129  28.352  19.880   8.864
 1284POPC   GL219130  28.221  19.917   8.864
 1284POPC   C1A19131  28.362  19.821   8.564
 1284POPC   D2A19132  28.391  19.838   8.264
 1284POPC   C3A19133  28.320  19.794   7.964
 1284POPC   C4A19134  28.335  19.849   7.664
 1284POPC   C1B19135  28.106  19.987   8.564
 1284POPC   C2B19136  28.179  19.928   8.264
 1284POPC   C3B19137  28.126  19.921   7.964
 1284POPC   C4B19138  28.137  19.986   7.664
 1285POPC   NC319139  33.842  31.501   9.464
 1285POPC   PO419140  33.825  31.475   9.164
 1285POPC   GL119141  33.805  31.471   8.864
 1285POPC   GL219142  33.801  31.626   8.864
 1285POPC   C1A19143  33.807  31.522   8.564
 1285POPC   D2A19144  33.761  31.457   8.264
 1285POPC   C3A19145  33.792  31.449   7.964
 1285POPC   C4A19146  33.821  31.472   7.664
 1285POPC   C1B19147  33.667  31.700   8.564
 1285POPC   C2B19148  33.712  31.735   8.264
 1285POPC   C3B19149  33.719  31.656   7.964
 1285POPC   C4B19150  33.741  31.698   7.664
 1286POPC   NC319151  21.387  43.070   9.464
 1286POPC   PO419152  21.360  43.154   9.164
 1286POPC   GL119153  21.355  43.150   8.864
 1286POPC   GL219154  21.227  43.114   8.864
 1286POPC   C1A19155  21.391  43.067   8.564
 1286POPC   D2A19156  21.368  43.100   8.264
 1286POPC   C3A19157  21.425  43.072   7.964
 1286POPC   C4A19158  21.388  43.086   7.664
 1286POPC   C1B19159  21.120  43.072   8.564
 1286POPC   C2B19160  21.128  43.069   8.264
 1286POPC   C3B19161  21.179  43.075   7.964
 1286POPC   C4B19162  21.127  43.069   7.664
 1287POPC   NC319163  29.184  27.619   9.464
 1287POPC   PO419164  29.104  27.610   9.164
 1287POPC   GL119165  29.128  27.554   8.864
 1287POPC   GL219166  29.155  27.446   8.864
 1287POPC   C1A19167  29.186  27.601   8.564
 1287POPC   D2A19168  29.138  27.615   8.264
 1287POPC   C3A19169  29.170  27.612   7.964
 1287POPC   C4A19170  29.167  27.587   7.664
 1287POPC   C1B19171  29.191  27.395   8.564
 1287POPC   C2B19172  29.203  27.355   8.264
 1287POPC   C3B19173  29.246  27.331   7.964
 1287POPC   C4B19174  29.216  27.342   7.664
 1288POPC   NC319175  10.532  15.912   9.464
 1288POPC   PO419176  10.499  15.924   9.164
 1288POPC   GL119177  10.532  15.934   8.864
 1288POPC   GL219178  10.522  16.115   8.864
 1288POPC   C1A19179  10.550  15.906   8.564
 1288POPC   D2A19180  10.532  15.977   8.264
 1288POPC   C3A19181  10.506  15.965   7.964
 1288POPC   C4A19182  10.505  16.002   7.664
 1288POPC   C1B19183  10.498  16.198   8.564
 1288POPC   C2B19184  10.501  16.159   8.264
 1288POPC   C3B19185  10.507  16.215   7.964
 1288POPC   C4B19186  10.494  16.164   7.664
 1289POPC   NC319187  14.393  36.095   9.464
 1289POPC   PO419188  14.431  36.105   9.164
 1289POPC   GL119189  14.376  36.098   8.864
 1289POPC   GL219190  14.487  36.024   8.864
 1289POPC   C1A19191  14.417  36.133   8.564
 1289POPC   D2A19192  14.374  36.171   8.264
 1289POPC   C3A19193  14.357  36.092   7.964
 1289POPC   C4A19194  14.372  36.165   7.664
 1289POPC   C1B19195  14.562  35.942   8.564
 1289POPC   C2B19196  14.517  35.943   8.264
 1289POPC   C3B19197  14.513  35.869   7.964
 1289POPC   C4B19198  14.495  35.938   7.664
 1290POPC   NC319199  31.513   9.711   9.464
 1290POPC   PO419200  31.469   9.757   9.164
 1290POPC   GL119201  31.494   9.725   8.864
 1290POPC   GL219202  31.492   9.580   8.864
 1290POPC   C1A19203  31.516   9.796   8.564
 1290POPC   D2A19204  31.437   9.784   8.264
 1290POPC   C3A19205  31.472   9.783   7.964
 1290POPC   C4A19206  31.507   9.791   7.664
 1290POPC   C1B19207  31.536   9.526   8.564
 1290POPC   C2B19208  31.585   9.539   8.264
 1290POPC   C3B19209  31.524   9.512   7.964
 1290POPC   C4B19210  31.590   9.518   7.664
 1291POPC   NC319211  31.468  33.849   9.464
 1291POPC   PO419212  31.504  33.823   9.164
 1291POPC   GL119213  31.512  33.772   8.864
 1291POPC   GL219214  31.582  33.789   8.864
 1291POPC   C1A19215  31.493  33.816   8.564
 1291POPC   D2A19216  31.429  33.766   8.264
 1291POPC   C3A19217  31.522  33.818   7.964
 1291POPC   C4A19218  31.516  33.758   7.664
 1291POPC   C1B19219  31.753  33.779   8.564
 1291POPC   C2B19220  31.760  33.832   8.264
 1291POPC   C3B19221  31.674  33.851   7.964
 1291POPC   C4B19222  31.701  33.832   7.664
 1292POPC   NC319223   3.567   3.523   9.464
 1292POPC   PO419224   3.585   3.520   9.164
 1292POPC   GL119225   3.573   3.544   8.864
 1292POPC   GL219226   3.640   3.508   8.864
 1292POPC   C1A19227   3.538   3.520   8.564
 1292POPC   D2A19228   3.507   3.518   8.264
 1292POPC   C3A19229   3.530   3.554   7.964
 1292POPC   C4A19230   3.507   3.558   7.664
 1292POPC   C1B19231   3.817   3.550   8.564
 1292POPC   C2B19232   3.828   3.504   8.264
 1292POPC   C3B19233   3.820   3.495   7.964
 1292POPC   C4B19234   3.745   3.535   7.664
 1293POPC   NC319235  33.807   6.641   9.464
 1293POPC   PO419236  33.834   6.643   9.164
 1293POPC   GL119237  33.770   6.601   8.864
 1293POPC   GL219238  33.721   6.611   8.864
 1293POPC   C1A19239  33.847   6.612   8.564
 1293POPC   D2A19240  33.780   6.629   8.264
 1293POPC   C3A19241  33.847   6.681   7.964
 1293POPC   C4A19242  33.831   6.635   7.664
 1293POPC   C1B19243  33.582   6.617   8.564
 1293POPC   C2B19244  33.547   6.691   8.264
 1293POPC   C3B19245  33.556   6.617   7.964
 1293POPC   C4B19246  33.527   6.621   7.664
 1294POPC   NC319247  41.576  27.546   9.464
 1294POPC   PO419248  41.517  27.626   9.164
 1294POPC   GL119249  41.590  27.545   8.864
 1294POPC   GL219250  41.642  27.590   8.864
 1294POPC   C1A19251  41.514  27.570   8.564
 1294POPC   D2A19252  41.550  27.642   8.264
 1294POPC   C3A19253  41.547  27.614   7.964
 1294POPC   C4A19254  41.538  27.584   7.664
 1294POPC   C1B19255  41.822  27.463   8.564
 1294POPC   C2B19256  41.773  27.453   8.264
 1294POPC   C3B19257  41.781  27.518   7.964
 1294POPC   C4B19258  41.825  27.514   7.664
 1295POPC   NC319259  36.891  36.920   9.464
 1295POPC   PO419260  36.892  36.871   9.164
 1295POPC   GL119261  36.899  36.926   8.864
 1295POPC   GL219262  37.011  36.965   8.864
 1295POPC   C1A19263  36.884  36.878   8.564
 1295POPC   D2A19264  36.883  36.874   8.264
 1295POPC   C3A19265  36.917  36.864   7.964
 1295POPC   C4A19266  36.880  36.952   7.664
 1295POPC   C1B19267  37.187  36.967   8.564
 1295POPC   C2B19268  37.108  36.944   8.264
 1295POPC   C3B19269  37.193  36.922   7.964
 1295POPC   C4B19270  37.171  36.963   7.664
 1296POPC   NC319271  15.195   5.125   9.464
 1296POPC   PO419272  15.144   5.096   9.164
 1296POPC   GL119273  15.164   5.060   8.864
 1296POPC   GL219274  15.039   5.043   8.864
 1296POPC   C1A19275  15.173   5.060   8.564
 1296POPC   D2A19276  15.194   5.142   8.264
 1296POPC   C3A19277  15.144   5.103   7.964
 1296POPC   C4A19278  15.176   5.126   7.664
 1296POPC   C1B19279  15.030   4.905   8.564
 1296POPC   C2B19280  14.981   4.971   8.264
 1296POPC   C3B19281  14.947   4.880   7.964
 1296POPC   C4B19282  14.957   4.935   7.664
 1297POPC   NC319283  14.393   3.503   9.464
 1297POPC   PO419284  14.407   3.559   9.164
 1297POPC   GL119285  14.361   3.574   8.864
 1297POPC   GL219286  14.300   3.618   8.864
 1297POPC   C1A19287  14.407   3.524   8.564
 1297POPC   D2A19288  14.379   3.557   8.264
 1297POPC   C3A19289  14.403   3.524   7.964
 1297POPC   C4A19290  14.441   3.500   7.664
 1297POPC   C1B19291  14.286   3.783   8.564
 1297POPC   C2B19292  14.303   3.718   8.264
 1297POPC   C3B19293  14.254   3.773   7.964
 1297POPC   C4B19294  14.245   3.762   7.664
 1298POPC   NC319295  41.571   5.121   9.464
 1298POPC   PO419296  41.594   5.046   9.164
 1298POPC   GL119297  41.583   5.110   8.864
 1298POPC   GL219298  41.466   5.211   8.864
 1298POPC   C1A19299  41.572   5.132   8.564
 1298POPC   D2A19300  41.512   5.136   8.264
 1298POPC   C3A19301  41.561   5.074   7.964
 1298POPC   C4A19302  41.575   5.064   7.664
 1298POPC   C1B19303  41.399   5.306   8.564
 1298POPC   C2B19304  41.401   5.262   8.264
 1298POPC   C3B19305  41.375   5.225   7.964
 1298POPC   C4B19306  41.375   5.281   7.664
 1299POPC   NC319307  38.493  22.152   9.464
 1299POPC   PO419308  38.411  22.126   9.164
 1299POPC   GL119309  38.447  22.123   8.864
 1299POPC   GL219310  38.385  22.220   8.864
 1299POPC   C1A19311  38.406  22.182   8.564
 1299POPC   D2A19312  38.438  22.181   8.264
 1299POPC   C3A19313  38.434  22.148   7.964
 1299POPC   C4A19314  38.472  22.132   7.664
 1299POPC   C1B19315  38.172  22.228   8.564
 1299POPC   C2B19316  38.222  22.266   8.264
 1299POPC   C3B19317  38.174  22.245   7.964
 1299POPC   C4B19318  38.249  22.218   7.664
 1300POPC   NC319319  39.228  33.775   9.464
 1300POPC   PO419320  39.265  33.753   9.164
 1300POPC   GL119321  39.217  33.835   8.864
 1300POPC   GL219322  39.124  33.732   8.864
 1300POPC   C1A19323  39.237  33.820   8.564
 1300POPC   D2A19324  39.226  33.804   8.264
 1300POPC   C3A19325  39.267  33.804   7.964
 1300POPC   C4A19326  39.198  33.778   7.664
 1300POPC   C1B19327  39.116  33.604   8.564
 1300POPC   C2B19328  39.089  33.564   8.264
 1300POPC   C3B19329  39.049  33.583   7.964
 1300POPC   C4B19330  39.095  33.564   7.664
 1301POPC   NC319331  39.272   1.946   9.464
 1301POPC   PO419332  39.256   1.968   9.164
 1301POPC   GL119333  39.219   1.968   8.864
 1301POPC   GL219334  39.151   1.887   8.864
 1301POPC   C1A19335  39.216   1.956   8.564
 1301POPC   D2A19336  39.217   1.956   8.264
 1301POPC   C3A19337  39.187   1.967   7.964
 1301POPC   C4A19338  39.280   2.027   7.664
 1301POPC   C1B19339  39.146   1.738   8.564
 1301POPC   C2B19340  39.123   1.709   8.264
 1301POPC   C3B19341  39.154   1.700   7.964
 1301POPC   C4B19342  39.111   1.769   7.664
 1302POPC   NC319343  33.850  29.120   9.464
 1302POPC   PO419344  33.796  29.166   9.164
 1302POPC   GL119345  33.756  29.161   8.864
 1302POPC   GL219346  33.897  29.254   8.864
 1302POPC   C1A19347  33.823  29.105   8.564
 1302POPC   D2A19348  33.844  29.184   8.264
 1302POPC   C3A19349  33.811  29.186   7.964
 1302POPC   C4A19350  33.823  29.122   7.664
 1302POPC   C1B19351  33.938  29.314   8.564
 1302POPC   C2B19352  33.961  29.393   8.264
 1302POPC   C3B19353  33.960  29.385   7.964
 1302POPC   C4B19354  33.948  29.311   7.664
 1303POPC   NC319355  27.571  43.101   9.464
 1303POPC   PO419356  27.592  43.106   9.164
 1303POPC   GL119357  27.596  43.149   8.864
 1303POPC   GL219358  27.754  43.165   8.864
 1303POPC   C1A19359  27.610  43.094   8.564
 1303POPC   D2A19360  27.544  43.115   8.264
 1303POPC   C3A19361  27.566  43.090   7.964
 1303POPC   C4A19362  27.613  43.092   7.664
 1303POPC   C1B19363  27.878  43.197   8.564
 1303POPC   C2B19364  27.845  43.116   8.264
 1303POPC   C3B19365  27.886  43.122   7.964
 1303POPC   C4B19366  27.865  43.148   7.664
 1304POPC   NC319367  22.166   1.946   9.464
 1304POPC   PO419368  22.115   1.989   9.164
 1304POPC   GL119369  22.168   2.016   8.864
 1304POPC   GL219370  22.001   1.961   8.864
 1304POPC   C1A19371  22.175   1.967   8.564
 1304POPC   D2A19372  22.173   2.037   8.264
 1304POPC   C3A19373  22.202   1.972   7.964
 1304POPC   C4A19374  22.209   2.025   7.664
 1304POPC   C1B19375  21.927   1.991   8.564
 1304POPC   C2B19376  21.865   1.985   8.264
 1304POPC   C3B19377  21.907   1.950   7.964
 1304POPC   C4B19378  21.881   2.012   7.664
 1305POPC   NC319379  19.076  21.369   9.464
 1305POPC   PO419380  19.054  21.394   9.164
 1305POPC   GL119381  19.039  21.345   8.864
 1305POPC   GL219382  18.892  21.428   8.864
 1305POPC   C1A19383  19.090  21.342   8.564
 1305POPC   D2A19384  19.055  21.370   8.264
 1305POPC   C3A19385  19.016  21.355   7.964
 1305POPC   C4A19386  19.069  21.428   7.664
 1305POPC   C1B19387  18.759  21.360   8.564
 1305POPC   C2B19388  18.763  21.417   8.264
 1305POPC   C3B19389  18.811  21.343   7.964
 1305POPC   C4B19390  18.771  21.342   7.664
 1306POPC   NC319391  29.144  18.318   9.464
 1306POPC   PO419392  29.181  18.323   9.164
 1306POPC   GL119393  29.150  18.314   8.864
 1306POPC   GL219394  29.215  18.160   8.864
 1306POPC   C1A19395  29.135  18.324   8.564
 1306POPC   D2A19396  29.172  18.312   8.264
 1306POPC   C3A19397  29.194  18.260   7.964
 1306POPC   C4A19398  29.124  18.274   7.664
 1306POPC   C1B19399  29.275  18.073   8.564
 1306POPC   C2B19400  29.251  18.082   8.264
 1306POPC   C3B19401  29.300  18.034   7.964
 1306POPC   C4B19402  29.237  18.016   7.664
 1307POPC   NC319403   3.539  40.782   9.464
 1307POPC   PO419404   3.498  40.802   9.164
 1307POPC   GL119405   3.542  40.744   8.864
 1307POPC   GL219406   3.672  40.882   8.864
 1307POPC   C1A19407   3.588  40.807   8.564
 1307POPC   D2A19408   3.505  40.818   8.264
 1307POPC   C3A19409   3.497  40.801   7.964
 1307POPC   C4A19410   3.568  40.814   7.664
 1307POPC   C1B19411   3.700  41.005   8.564
 1307POPC   C2B19412   3.689  40.969   8.264
 1307POPC   C3B19413   3.762  41.006   7.964
 1307POPC   C4B19414   3.706  40.969   7.664
 1308POPC   NC319415  21.407  23.684   9.464
 1308POPC   PO419416  21.391  23.690   9.164
 1308POPC   GL119417  21.401  23.692   8.864
 1308POPC   GL219418  21.527  23.712   8.864
 1308POPC   C1A19419  21.397  23.756   8.564
 1308POPC   D2A19420  21.392  23.748   8.264
 1308POPC   C3A19421  21.370  23.711   7.964
 1308POPC   C4A19422  21.409  23.718   7.664
 1308POPC   C1B19423  21.581  23.646   8.564
 1308POPC   C2B19424  21.642  23.676   8.264
 1308POPC   C3B19425  21.589  23.675   7.964
 1308POPC   C4B19426  21.591  23.698   7.664
 1309POPC   NC319427  10.480   3.520   9.464
 1309POPC   PO419428  10.484   3.514   9.164
 1309POPC   GL119429  10.523   3.573   8.864
 1309POPC   GL219430  10.476   3.587   8.864
 1309POPC   C1A19431  10.572   3.506   8.564
 1309POPC   D2A19432  10.480   3.552   8.264
 1309POPC   C3A19433  10.501   3.541   7.964
 1309POPC   C4A19434  10.488   3.560   7.664
 1309POPC   C1B19435  10.334   3.725   8.564
 1309POPC   C2B19436  10.316   3.695   8.264
 1309POPC   C3B19437  10.301   3.667   7.964
 1309POPC   C4B19438  10.336   3.666   7.664
 1310POPC   NC319439  31.503  19.802   9.464
 1310POPC   PO419440  31.473  19.830   9.164
 1310POPC   GL119441  31.455  19.822   8.864
 1310POPC   GL219442  31.524  19.904   8.864
 1310POPC   C1A19443  31.511  19.849   8.564
 1310POPC   D2A19444  31.426  19.840   8.264
 1310POPC   C3A19445  31.507  19.855   7.964
 1310POPC   C4A19446  31.459  19.861   7.664
 1310POPC   C1B19447  31.662  20.019   8.564
 1310POPC   C2B19448  31.600  19.998   8.264
 1310POPC   C3B19449  31.674  20.018   7.964
 1310POPC   C4B19450  31.596  20.002   7.664
 1311POPC   NC319451  33.829  33.003   9.464
 1311POPC   PO419452  33.820  33.052   9.164
 1311POPC   GL119453  33.827  32.991   8.864
 1311POPC   GL219454  33.908  32.955   8.864
 1311POPC   C1A19455  33.754  33.018   8.564
 1311POPC   D2A19456  33.799  33.041   8.264
 1311POPC   C3A19457  33.758  33.024   7.964
 1311POPC   C4A19458  33.803  33.015   7.664
 1311POPC   C1B19459  33.994  32.847   8.564
 1311POPC   C2B19460  33.980  32.863   8.264
 1311POPC   C3B19461  33.962  32.850   7.964
 1311POPC   C4B19462  34.003  32.857   7.664
 1312POPC   NC319463  23.684   2.788   9.464
 1312POPC   PO419464  23.677   2.791   9.164
 1312POPC   GL119465  23.664   2.723   8.864
 1312POPC   GL219466  23.808   2.880   8.864
 1312POPC   C1A19467  23.670   2.786   8.564
 1312POPC   D2A19468  23.741   2.740   8.264
 1312POPC   C3A19469  23.698   2.737   7.964
 1312POPC   C4A19470  23.669   2.724   7.664
 1312POPC   C1B19471  23.870   2.928   8.564
 1312POPC   C2B19472  23.815   2.947   8.264
 1312POPC   C3B19473  23.826   2.929   7.964
 1312POPC   C4B19474  23.909   2.998   7.664
 1313POPC   NC319475   8.946  13.673   9.464
 1313POPC   PO419476   8.986  13.601   9.164
 1313POPC   GL119477   8.986  13.664   8.864
 1313POPC   GL219478   8.940  13.464   8.864
 1313POPC   C1A19479   9.013  13.666   8.564
 1313POPC   D2A19480   8.931  13.636   8.264
 1313POPC   C3A19481   8.972  13.619   7.964
 1313POPC   C4A19482   8.997  13.626   7.664
 1313POPC   C1B19483   8.906  13.355   8.564
 1313POPC   C2B19484   8.955  13.414   8.264
 1313POPC   C3B19485   8.970  13.407   7.964
 1313POPC   C4B19486   8.935  13.360   7.664
 1314POPC   NC319487  35.369  26.810   9.464
 1314POPC   PO419488  35.376  26.826   9.164
 1314POPC   GL119489  35.327  26.776   8.864
 1314POPC   GL219490  35.268  26.843   8.864
 1314POPC   C1A19491  35.382  26.816   8.564
 1314POPC   D2A19492  35.324  26.860   8.264
 1314POPC   C3A19493  35.375  26.818   7.964
 1314POPC   C4A19494  35.335  26.776   7.664
 1314POPC   C1B19495  35.105  26.934   8.564
 1314POPC   C2B19496  35.139  26.954   8.264
 1314POPC   C3B19497  35.121  26.902   7.964
 1314POPC   C4B19498  35.118  26.869   7.664
 1315POPC   NC319499  19.092   1.246   9.464
 1315POPC   PO419500  19.094   1.247   9.164
 1315POPC   GL119501  19.044   1.249   8.864
 1315POPC   GL219502  19.080   1.085   8.864
 1315POPC   C1A19503  19.071   1.196   8.564
 1315POPC   D2A19504  19.057   1.171   8.264
 1315POPC   C3A19505  19.084   1.206   7.964
 1315POPC   C4A19506  19.096   1.195   7.664
 1315POPC   C1B19507  19.158   0.980   8.564
 1315POPC   C2B19508  19.184   1.036   8.264
 1315POPC   C3B19509  19.138   1.030   7.964
 1315POPC   C4B19510  19.167   0.981   7.664
 1316POPC   NC319511  18.331   2.022   9.464
 1316POPC   PO419512  18.322   2.010   9.164
 1316POPC   GL119513  18.329   1.954   8.864
 1316POPC   GL219514  18.120   2.035   8.864
 1316POPC   C1A19515  18.309   1.945   8.564
 1316POPC   D2A19516  18.309   1.998   8.264
 1316POPC   C3A19517  18.310   1.976   7.964
 1316POPC   C4A19518  18.311   1.964   7.664
 1316POPC   C1B19519  17.997   1.939   8.564
 1316POPC   C2B19520  18.037   1.980   8.264
 1316POPC   C3B19521  18.026   2.032   7.964
 1316POPC   C4B19522  18.029   2.034   7.664
 1317POPC   NC319523  21.398  15.927   9.464
 1317POPC   PO419524  21.375  15.922   9.164
 1317POPC   GL119525  21.390  15.935   8.864
 1317POPC   GL219526  21.520  16.084   8.864
 1317POPC   C1A19527  21.347  15.918   8.564
 1317POPC   D2A19528  21.391  15.981   8.264
 1317POPC   C3A19529  21.337  15.926   7.964
 1317POPC   C4A19530  21.422  15.943   7.664
 1317POPC   C1B19531  21.583  16.126   8.564
 1317POPC   C2B19532  21.531  16.137   8.264
 1317POPC   C3B19533  21.571  16.165   7.964
 1317POPC   C4B19534  21.619  16.165   7.664
 1318POPC   NC319535  29.096  19.820   9.464
 1318POPC   PO419536  29.146  19.785   9.164
 1318POPC   GL119537  29.155  19.794   8.864
 1318POPC   GL219538  29.001  19.926   8.864
 1318POPC   C1A19539  29.171  19.810   8.564
 1318POPC   D2A19540  29.169  19.859   8.264
 1318POPC   C3A19541  29.112  19.798   7.964
 1318POPC   C4A19542  29.158  19.793   7.664
 1318POPC   C1B19543  28.908  20.024   8.564
 1318POPC   C2B19544  28.981  19.983   8.264
 1318POPC   C3B19545  28.956  19.984   7.964
 1318POPC   C4B19546  28.974  19.940   7.664
 1319POPC   NC319547  17.522  14.365   9.464
 1319POPC   PO419548  17.482  14.358   9.164
 1319POPC   GL119549  17.473  14.437   8.864
 1319POPC   GL219550  17.593  14.436   8.864
 1319POPC   C1A19551  17.504  14.356   8.564
 1319POPC   D2A19552  17.540  14.382   8.264
 1319POPC   C3A19553  17.488  14.447   7.964
 1319POPC   C4A19554  17.480  14.367   7.664
 1319POPC   C1B19555  17.725  14.400   8.564
 1319POPC   C2B19556  17.746  14.392   8.264
 1319POPC   C3B19557  17.745  14.436   7.964
 1319POPC   C4B19558  17.797  14.391   7.664
 1320POPC   NC319559  22.966   4.343   9.464
 1320POPC   PO419560  22.905   4.289   9.164
 1320POPC   GL119561  22.953   4.271   8.864
 1320POPC   GL219562  23.001   4.486   8.864
 1320POPC   C1A19563  22.895   4.320   8.564
 1320POPC   D2A19564  22.948   4.306   8.264
 1320POPC   C3A19565  22.974   4.272   7.964
 1320POPC   C4A19566  22.920   4.336   7.664
 1320POPC   C1B19567  23.007   4.522   8.564
 1320POPC   C2B19568  22.996   4.551   8.264
 1320POPC   C3B19569  23.002   4.541   7.964
 1320POPC   C4B19570  22.977   4.590   7.664
 1321POPC   NC319571  43.917  40.795   9.464
 1321POPC   PO419572  43.894  40.817   9.164
 1321POPC   GL119573  43.859  40.781   8.864
 1321POPC   GL219574  43.987  40.835   8.864
 1321POPC   C1A19575  43.860  40.816   8.564
 1321POPC   D2A19576  43.925  40.827   8.264
 1321POPC   C3A19577  43.915  40.830   7.964
 1321POPC   C4A19578  43.872  40.807   7.664
 1321POPC   C1B19579  44.082  40.887   8.564
 1321POPC   C2B19580  44.162  40.874   8.264
 1321POPC   C3B19581  44.157  40.813   7.964
 1321POPC   C4B19582  44.164  40.873   7.664
 1322POPC   NC319583   2.006  14.359   9.464
 1322POPC   PO419584   2.013  14.394   9.164
 1322POPC   GL119585   1.996  14.404   8.864
 1322POPC   GL219586   1.906  14.549   8.864
 1322POPC   C1A19587   1.940  14.431   8.564
 1322POPC   D2A19588   2.037  14.359   8.264
 1322POPC   C3A19589   1.993  14.448   7.964
 1322POPC   C4A19590   2.026  14.379   7.664
 1322POPC   C1B19591   1.940  14.624   8.564
 1322POPC   C2B19592   1.906  14.668   8.264
 1322POPC   C3B19593   1.902  14.639   7.964
 1322POPC   C4B19594   1.957  14.679   7.664
 1323POPC   NC319595   5.828   1.205   9.464
 1323POPC   PO419596   5.911   1.245   9.164
 1323POPC   GL119597   5.842   1.255   8.864
 1323POPC   GL219598   5.928   1.344   8.864
 1323POPC   C1A19599   5.821   1.220   8.564
 1323POPC   D2A19600   5.867   1.242   8.264
 1323POPC   C3A19601   5.906   1.258   7.964
 1323POPC   C4A19602   5.905   1.189   7.664
 1323POPC   C1B19603   5.956   1.466   8.564
 1323POPC   C2B19604   5.904   1.504   8.264
 1323POPC   C3B19605   5.921   1.462   7.964
 1323POPC   C4B19606   5.883   1.456   7.664
 1324POPC   NC319607  26.036   7.373   9.464
 1324POPC   PO419608  26.046   7.458   9.164
 1324POPC   GL119609  26.075   7.436   8.864
 1324POPC   GL219610  25.988   7.299   8.864
 1324POPC   C1A19611  26.088   7.431   8.564
 1324POPC   D2A19612  26.061   7.430   8.264
 1324POPC   C3A19613  26.072   7.409   7.964
 1324POPC   C4A19614  26.021   7.468   7.664
 1324POPC   C1B19615  25.835   7.266   8.564
 1324POPC   C2B19616  25.852   7.215   8.264
 1324POPC   C3B19617  25.811   7.221   7.964
 1324POPC   C4B19618  25.816   7.203   7.664
 1325POPC   NC319619  36.106  43.876   9.464
 1325POPC   PO419620  36.166  43.930   9.164
 1325POPC   GL119621  36.150  43.879   8.864
 1325POPC   GL219622  36.074  43.778   8.864
 1325POPC   C1A19623  36.078  43.928   8.564
 1325POPC   D2A19624  36.104  43.918   8.264
 1325POPC   C3A19625  36.116  43.886   7.964
 1325POPC   C4A19626  36.159  43.936   7.664
 1325POPC   C1B19627  36.021  43.652   8.564
 1325POPC   C2B19628  36.055  43.617   8.264
 1325POPC   C3B19629  36.026  43.648   7.964
 1325POPC   C4B19630  36.013  43.650   7.664
 1326POPC   NC319631  37.687   0.413   9.464
 1326POPC   PO419632  37.712   0.389   9.164
 1326POPC   GL119633  37.718   0.434   8.864
 1326POPC   GL219634  37.667   0.523   8.864
 1326POPC   C1A19635  37.640   0.461   8.564
 1326POPC   D2A19636  37.631   0.433   8.264
 1326POPC   C3A19637  37.707   0.418   7.964
 1326POPC   C4A19638  37.661   0.390   7.664
 1326POPC   C1B19639  37.597   0.674   8.564
 1326POPC   C2B19640  37.602   0.639   8.264
 1326POPC   C3B19641  37.607   0.685   7.964
 1326POPC   C4B19642  37.591   0.638   7.664
 1327POPC   NC319643  14.419   7.377   9.464
 1327POPC   PO419644  14.360   7.429   9.164
 1327POPC   GL119645  14.377   7.466   8.864
 1327POPC   GL219646  14.309   7.506   8.864
 1327POPC   C1A19647  14.357   7.377   8.564
 1327POPC   D2A19648  14.370   7.437   8.264
 1327POPC   C3A19649  14.369   7.403   7.964
 1327POPC   C4A19650  14.423   7.467   7.664
 1327POPC   C1B19651  14.303   7.667   8.564
 1327POPC   C2B19652  14.261   7.596   8.264
 1327POPC   C3B19653  14.277   7.660   7.964
 1327POPC   C4B19654  14.242   7.690   7.664
 1328POPC   NC319655  27.552  26.086   9.464
 1328POPC   PO419656  27.578  26.062   9.164
 1328POPC   GL119657  27.604  26.080   8.864
 1328POPC   GL219658  27.603  26.192   8.864
 1328POPC   C1A19659  27.618  26.070   8.564
 1328POPC   D2A19660  27.631  26.082   8.264
 1328POPC   C3A19661  27.622  26.055   7.964
 1328POPC   C4A19662  27.605  26.050   7.664
 1328POPC   C1B19663  27.632  26.275   8.564
 1328POPC   C2B19664  27.615  26.295   8.264
 1328POPC   C3B19665  27.635  26.249   7.964
 1328POPC   C4B19666  27.706  26.235   7.664
 1329POPC   NC319667  22.949   9.712   9.464
 1329POPC   PO419668  22.920   9.768   9.164
 1329POPC   GL119669  22.976   9.757   8.864
 1329POPC   GL219670  22.898   9.684   8.864
 1329POPC   C1A19671  22.913   9.729   8.564
 1329POPC   D2A19672  22.931   9.746   8.264
 1329POPC   C3A19673  22.983   9.748   7.964
 1329POPC   C4A19674  22.928   9.760   7.664
 1329POPC   C1B19675  22.803   9.526   8.564
 1329POPC   C2B19676  22.860   9.488   8.264
 1329POPC   C3B19677  22.856   9.538   7.964
 1329POPC   C4B19678  22.761   9.571   7.664
 1330POPC   NC319679  19.830  15.982   9.464
 1330POPC   PO419680  19.796  15.964   9.164
 1330POPC   GL119681  19.883  15.993   8.864
 1330POPC   GL219682  19.863  16.112   8.864
 1330POPC   C1A19683  19.825  15.926   8.564
 1330POPC   D2A19684  19.841  15.992   8.264
 1330POPC   C3A19685  19.860  15.908   7.964
 1330POPC   C4A19686  19.876  15.913   7.664
 1330POPC   C1B19687  19.865  16.200   8.564
 1330POPC   C2B19688  19.826  16.237   8.264
 1330POPC   C3B19689  19.862  16.249   7.964
 1330POPC   C4B19690  19.786  16.187   7.664
 1331POPC   NC319691  32.240  21.376   9.464
 1331POPC   PO419692  32.290  21.388   9.164
 1331POPC   GL119693  32.221  21.428   8.864
 1331POPC   GL219694  32.222  21.252   8.864
 1331POPC   C1A19695  32.268  21.382   8.564
 1331POPC   D2A19696  32.257  21.364   8.264
 1331POPC   C3A19697  32.257  21.370   7.964
 1331POPC   C4A19698  32.276  21.432   7.664
 1331POPC   C1B19699  32.197  21.107   8.564
 1331POPC   C2B19700  32.186  21.198   8.264
 1331POPC   C3B19701  32.114  21.160   7.964
 1331POPC   C4B19702  32.143  21.160   7.664
 1332POPC   NC319703  38.485  28.396   9.464
 1332POPC   PO419704  38.449  28.395   9.164
 1332POPC   GL119705  38.415  28.395   8.864
 1332POPC   GL219706  38.483  28.217   8.864
 1332POPC   C1A19707  38.430  28.396   8.564
 1332POPC   D2A19708  38.480  28.366   8.264
 1332POPC   C3A19709  38.434  28.393   7.964
 1332POPC   C4A19710  38.418  28.341   7.664
 1332POPC   C1B19711  38.488  28.074   8.564
 1332POPC   C2B19712  38.437  28.104   8.264
 1332POPC   C3B19713  38.445  28.100   7.964
 1332POPC   C4B19714  38.502  28.107   7.664
 1333POPC   NC319715  23.759  40.807   9.464
 1333POPC   PO419716  23.759  40.795   9.164
 1333POPC   GL119717  23.680  40.827   8.864
 1333POPC   GL219718  23.803  40.664   8.864
 1333POPC   C1A19719  23.723  40.817   8.564
 1333POPC   D2A19720  23.760  40.832   8.264
 1333POPC   C3A19721  23.755  40.794   7.964
 1333POPC   C4A19722  23.725  40.760   7.664
 1333POPC   C1B19723  23.919  40.548   8.564
 1333POPC   C2B19724  23.921  40.633   8.264
 1333POPC   C3B19725  23.835  40.549   7.964
 1333POPC   C4B19726  23.928  40.568   7.664
 1334POPC   NC319727  22.200  11.309   9.464
 1334POPC   PO419728  22.155  11.293   9.164
 1334POPC   GL119729  22.169  11.345   8.864
 1334POPC   GL219730  22.197  11.442   8.864
 1334POPC   C1A19731  22.144  11.316   8.564
 1334POPC   D2A19732  22.142  11.254   8.264
 1334POPC   C3A19733  22.185  11.334   7.964
 1334POPC   C4A19734  22.191  11.276   7.664
 1334POPC   C1B19735  22.200  11.533   8.564
 1334POPC   C2B19736  22.244  11.585   8.264
 1334POPC   C3B19737  22.185  11.505   7.964
 1334POPC   C4B19738  22.224  11.589   7.664
 1335POPC   NC319739  36.896  12.067   9.464
 1335POPC   PO419740  36.863  12.124   9.164
 1335POPC   GL119741  36.949  12.117   8.864
 1335POPC   GL219742  36.867  12.170   8.864
 1335POPC   C1A19743  36.863  12.062   8.564
 1335POPC   D2A19744  36.944  12.036   8.264
 1335POPC   C3A19745  36.897  12.104   7.964
 1335POPC   C4A19746  36.874  12.060   7.664
 1335POPC   C1B19747  36.806  12.272   8.564
 1335POPC   C2B19748  36.826  12.345   8.264
 1335POPC   C3B19749  36.770  12.262   7.964
 1335POPC   C4B19750  36.772  12.301   7.664
 1336POPC   NC319751  13.603  43.087   9.464
 1336POPC   PO419752  13.671  43.117   9.164
 1336POPC   GL119753  13.604  43.154   8.864
 1336POPC   GL219754  13.638  43.024   8.864
 1336POPC   C1A19755  13.632  43.085   8.564
 1336POPC   D2A19756  13.600  43.116   8.264
 1336POPC   C3A19757  13.644  43.140   7.964
 1336POPC   C4A19758  13.594  43.126   7.664
 1336POPC   C1B19759  13.640  42.875   8.564
 1336POPC   C2B19760  13.677  42.856   8.264
 1336POPC   C3B19761  13.591  42.906   7.964
 1336POPC   C4B19762  13.647  42.813   7.664
 1337POPC   NC319763  30.668  40.005   9.464
 1337POPC   PO419764  30.663  39.973   9.164
 1337POPC   GL119765  30.660  40.003   8.864
 1337POPC   GL219766  30.632  39.949   8.864
 1337POPC   C1A19767  30.699  40.019   8.564
 1337POPC   D2A19768  30.678  40.028   8.264
 1337POPC   C3A19769  30.693  39.978   7.964
 1337POPC   C4A19770  30.649  40.013   7.664
 1337POPC   C1B19771  30.588  39.776   8.564
 1337POPC   C2B19772  30.585  39.782   8.264
 1337POPC   C3B19773  30.608  39.748   7.964
 1337POPC   C4B19774  30.535  39.764   7.664
 1338POPC   NC319775  29.946  43.936   9.464
 1338POPC   PO419776  29.940  43.931   9.164
 1338POPC   GL119777  29.969  43.882   8.864
 1338POPC   GL219778  29.786  43.892   8.864
 1338POPC   C1A19779  29.938  43.891   8.564
 1338POPC   D2A19780  29.931  43.852   8.264
 1338POPC   C3A19781  29.937  43.934   7.964
 1338POPC   C4A19782  29.876  43.838   7.664
 1338POPC   C1B19783  29.636  43.862   8.564
 1338POPC   C2B19784  29.662  43.807   8.264
 1338POPC   C3B19785  29.667  43.879   7.964
 1338POPC   C4B19786  29.670  43.814   7.664
 1339POPC   NC319787   5.075  12.851   9.464
 1339POPC   PO419788   5.057  12.828   9.164
 1339POPC   GL119789   5.139  12.858   8.864
 1339POPC   GL219790   4.934  12.867   8.864
 1339POPC   C1A19791   5.073  12.823   8.564
 1339POPC   D2A19792   5.061  12.839   8.264
 1339POPC   C3A19793   5.114  12.828   7.964
 1339POPC   C4A19794   5.092  12.898   7.664
 1339POPC   C1B19795   4.823  12.926   8.564
 1339POPC   C2B19796   4.852  12.884   8.264
 1339POPC   C3B19797   4.810  12.887   7.964
 1339POPC   C4B19798   4.836  12.913   7.664
 1340POPC   NC319799  23.667   3.586   9.464
 1340POPC   PO419800  23.718   3.571   9.164
 1340POPC   GL119801  23.667   3.509   8.864
 1340POPC   GL219802  23.771   3.589   8.864
 1340POPC   C1A19803  23.757   3.530   8.564
 1340POPC   D2A19804  23.666   3.509   8.264
 1340POPC   C3A19805  23.732   3.503   7.964
 1340POPC   C4A19806  23.669   3.571   7.664
 1340POPC   C1B19807  23.942   3.730   8.564
 1340POPC   C2B19808  23.881   3.724   8.264
 1340POPC   C3B19809  23.949   3.697   7.964
 1340POPC   C4B19810  23.904   3.639   7.664
 1341POPC   NC319811  43.149   1.948   9.464
 1341POPC   PO419812  43.077   2.033   9.164
 1341POPC   GL119813  43.070   1.953   8.864
 1341POPC   GL219814  43.090   1.903   8.864
 1341POPC   C1A19815  43.069   1.989   8.564
 1341POPC   D2A19816  43.103   1.980   8.264
 1341POPC   C3A19817  43.067   2.017   7.964
 1341POPC   C4A19818  43.115   1.962   7.664
 1341POPC   C1B19819  43.082   1.747   8.564
 1341POPC   C2B19820  43.089   1.724   8.264
 1341POPC   C3B19821  43.018   1.742   7.964
 1341POPC   C4B19822  43.036   1.744   7.664
 1342POPC   NC319823  36.881  13.622   9.464
 1342POPC   PO419824  36.914  13.591   9.164
 1342POPC   GL119825  36.903  13.646   8.864
 1342POPC   GL219826  36.795  13.656   8.864
 1342POPC   C1A19827  36.939  13.667   8.564
 1342POPC   D2A19828  36.878  13.642   8.264
 1342POPC   C3A19829  36.855  13.603   7.964
 1342POPC   C4A19830  36.898  13.631   7.664
 1342POPC   C1B19831  36.730  13.731   8.564
 1342POPC   C2B19832  36.733  13.772   8.264
 1342POPC   C3B19833  36.735  13.787   7.964
 1342POPC   C4B19834  36.730  13.771   7.664
 1343POPC   NC319835  33.042  35.322   9.464
 1343POPC   PO419836  33.073  35.396   9.164
 1343POPC   GL119837  33.066  35.377   8.864
 1343POPC   GL219838  33.060  35.511   8.864
 1343POPC   C1A19839  33.048  35.342   8.564
 1343POPC   D2A19840  33.018  35.327   8.264
 1343POPC   C3A19841  33.051  35.393   7.964
 1343POPC   C4A19842  33.030  35.348   7.664
 1343POPC   C1B19843  33.051  35.569   8.564
 1343POPC   C2B19844  33.048  35.556   8.264
 1343POPC   C3B19845  33.072  35.574   7.964
 1343POPC   C4B19846  33.044  35.552   7.664
 1344POPC   NC319847  10.481  28.378   9.464
 1344POPC   PO419848  10.556  28.342   9.164
 1344POPC   GL119849  10.484  28.353   8.864
 1344POPC   GL219850  10.621  28.216   8.864
 1344POPC   C1A19851  10.555  28.335   8.564
 1344POPC   D2A19852  10.491  28.409   8.264
 1344POPC   C3A19853  10.559  28.389   7.964
 1344POPC   C4A19854  10.574  28.414   7.664
 1344POPC   C1B19855  10.660  28.208   8.564
 1344POPC   C2B19856  10.680  28.189   8.264
 1344POPC   C3B19857  10.613  28.187   7.964
 1344POPC   C4B19858  10.677  28.135   7.664
 1345POPC   NC319859  18.263  23.691   9.464
 1345POPC   PO419860  18.255  23.724   9.164
 1345POPC   GL119861  18.301  23.735   8.864
 1345POPC   GL219862  18.241  23.577   8.864
 1345POPC   C1A19863  18.296  23.722   8.564
 1345POPC   D2A19864  18.298  23.746   8.264
 1345POPC   C3A19865  18.262  23.697   7.964
 1345POPC   C4A19866  18.264  23.761   7.664
 1345POPC   C1B19867  18.274  23.499   8.564
 1345POPC   C2B19868  18.285  23.512   8.264
 1345POPC   C3B19869  18.286  23.475   7.964
 1345POPC   C4B19870  18.273  23.463   7.664
 1346POPC   NC319871  24.453   9.745   9.464
 1346POPC   PO419872  24.539   9.788   9.164
 1346POPC   GL119873  24.481   9.797   8.864
 1346POPC   GL219874  24.595   9.730   8.864
 1346POPC   C1A19875  24.505   9.760   8.564
 1346POPC   D2A19876  24.449   9.706   8.264
 1346POPC   C3A19877  24.444   9.741   7.964
 1346POPC   C4A19878  24.443   9.706   7.664
 1346POPC   C1B19879  24.715   9.645   8.564
 1346POPC   C2B19880  24.734   9.660   8.264
 1346POPC   C3B19881  24.742   9.627   7.964
 1346POPC   C4B19882  24.739   9.686   7.664
 1347POPC   NC319883   3.530  38.435   9.464
 1347POPC   PO419884   3.498  38.410   9.164
 1347POPC   GL119885   3.543  38.435   8.864
 1347POPC   GL219886   3.660  38.414   8.864
 1347POPC   C1A19887   3.517  38.496   8.564
 1347POPC   D2A19888   3.539  38.483   8.264
 1347POPC   C3A19889   3.520  38.445   7.964
 1347POPC   C4A19890   3.503  38.409   7.664
 1347POPC   C1B19891   3.803  38.351   8.564
 1347POPC   C2B19892   3.791  38.367   8.264
 1347POPC   C3B19893   3.788  38.377   7.964
 1347POPC   C4B19894   3.793  38.418   7.664
 1348POPC   NC319895  16.745  37.639   9.464
 1348POPC   PO419896  16.688  37.650   9.164
 1348POPC   GL119897  16.701  37.651   8.864
 1348POPC   GL219898  16.721  37.761   8.864
 1348POPC   C1A19899  16.689  37.705   8.564
 1348POPC   D2A19900  16.710  37.675   8.264
 1348POPC   C3A19901  16.760  37.723   7.964
 1348POPC   C4A19902  16.734  37.631   7.664
 1348POPC   C1B19903  16.779  37.919   8.564
 1348POPC   C2B19904  16.727  37.942   8.264
 1348POPC   C3B19905  16.744  37.893   7.964
 1348POPC   C4B19906  16.748  37.939   7.664
 1349POPC   NC319907   1.986  28.362   9.464
 1349POPC   PO419908   2.013  28.380   9.164
 1349POPC   GL119909   2.038  28.376   8.864
 1349POPC   GL219910   1.846  28.437   8.864
 1349POPC   C1A19911   1.949  28.376   8.564
 1349POPC   D2A19912   2.004  28.415   8.264
 1349POPC   C3A19913   2.037  28.407   7.964
 1349POPC   C4A19914   2.023  28.355   7.664
 1349POPC   C1B19915   1.786  28.498   8.564
 1349POPC   C2B19916   1.757  28.462   8.264
 1349POPC   C3B19917   1.747  28.464   7.964
 1349POPC   C4B19918   1.750  28.461   7.664
 1350POPC   NC319919  38.406   2.035   9.464
 1350POPC   PO419920  38.472   2.039   9.164
 1350POPC   GL119921  38.441   1.942   8.864
 1350POPC   GL219922  38.519   2.122   8.864
 1350POPC   C1A19923  38.462   1.979   8.564
 1350POPC   D2A19924  38.496   2.018   8.264
 1350POPC   C3A19925  38.429   1.960   7.964
 1350POPC   C4A19926  38.428   2.005   7.664
 1350POPC   C1B19927  38.513   2.246   8.564
 1350POPC   C2B19928  38.506   2.214   8.264
 1350POPC   C3B19929  38.585   2.251   7.964
 1350POPC   C4B19930  38.574   2.218   7.664
 1351POPC   NC319931  26.002   5.874   9.464
 1351POPC   PO419932  26.066   5.850   9.164
 1351POPC   GL119933  26.063   5.873   8.864
 1351POPC   GL219934  25.975   5.962   8.864
 1351POPC   C1A19935  26.000   5.857   8.564
 1351POPC   D2A19936  26.051   5.916   8.264
 1351POPC   C3A19937  26.060   5.885   7.964
 1351POPC   C4A19938  26.001   5.890   7.664
 1351POPC   C1B19939  25.797   5.931   8.564
 1351POPC   C2B19940  25.797   5.962   8.264
 1351POPC   C3B19941  25.852   5.993   7.964
 1351POPC   C4B19942  25.829   5.944   7.664
 1352POPC   NC319943  33.053  25.247   9.464
 1352POPC   PO419944  32.990  25.219   9.164
 1352POPC   GL119945  33.071  25.247   8.864
 1352POPC   GL219946  32.999  25.167   8.864
 1352POPC   C1A19947  33.048  25.282   8.564
 1352POPC   D2A19948  33.037  25.259   8.264
 1352POPC   C3A19949  33.072  25.248   7.964
 1352POPC   C4A19950  32.980  25.257   7.664
 1352POPC   C1B19951  32.977  24.981   8.564
 1352POPC   C2B19952  33.039  24.981   8.264
 1352POPC   C3B19953  32.976  24.975   7.964
 1352POPC   C4B19954  32.959  25.046   7.664
 1353POPC   NC319955  15.208  35.329   9.464
 1353POPC   PO419956  15.163  35.309   9.164
 1353POPC   GL119957  15.154  35.338   8.864
 1353POPC   GL219958  15.296  35.246   8.864
 1353POPC   C1A19959  15.137  35.326   8.564
 1353POPC   D2A19960  15.158  35.326   8.264
 1353POPC   C3A19961  15.164  35.365   7.964
 1353POPC   C4A19962  15.168  35.400   7.664
 1353POPC   C1B19963  15.380  35.207   8.564
 1353POPC   C2B19964  15.397  35.181   8.264
 1353POPC   C3B19965  15.357  35.219   7.964
 1353POPC   C4B19966  15.334  35.197   7.664
 1354POPC   NC319967  12.100  40.054   9.464
 1354POPC   PO419968  12.070  40.023   9.164
 1354POPC   GL119969  12.099  39.974   8.864
 1354POPC   GL219970  12.069  40.170   8.864
 1354POPC   C1A19971  12.075  39.989   8.564
 1354POPC   D2A19972  12.084  40.042   8.264
 1354POPC   C3A19973  12.028  39.957   7.964
 1354POPC   C4A19974  12.035  39.969   7.664
 1354POPC   C1B19975  12.098  40.256   8.564
 1354POPC   C2B19976  12.110  40.235   8.264
 1354POPC   C3B19977  12.096  40.259   7.964
 1354POPC   C4B19978  12.164  40.235   7.664
 1355POPC   NC319979  31.449  43.865   9.464
 1355POPC   PO419980  31.481  43.846   9.164
 1355POPC   GL119981  31.470  43.867   8.864
 1355POPC   GL219982  31.425  43.754   8.864
 1355POPC   C1A19983  31.469  43.851   8.564
 1355POPC   D2A19984  31.518  43.854   8.264
 1355POPC   C3A19985  31.444  43.876   7.964
 1355POPC   C4A19986  31.488  43.898   7.664
 1355POPC   C1B19987  31.332  43.654   8.564
 1355POPC   C2B19988  31.351  43.700   8.264
 1355POPC   C3B19989  31.357  43.622   7.964
 1355POPC   C4B19990  31.350  43.614   7.664
 1356POPC   NC319991  27.591   0.461   9.464
 1356POPC   PO419992  27.576   0.406   9.164
 1356POPC   GL119993  27.562   0.476   8.864
 1356POPC   GL219994  27.667   0.379   8.864
 1356POPC   C1A19995  27.597   0.396   8.564
 1356POPC   D2A19996  27.630   0.395   8.264
 1356POPC   C3A19997  27.622   0.438   7.964
 1356POPC   C4A19998  27.602   0.415   7.664
 1356POPC   C1B19999  27.847   0.397   8.564
 1356POPC   C2B20000  27.835   0.410   8.264
 1356POPC   C3B20001  27.795   0.360   7.964
 1356POPC   C4B20002  27.797   0.320   7.664
 1357POPC   NC320003   9.736   3.503   9.464
 1357POPC   PO420004   9.771   3.582   9.164
 1357POPC   GL120005   9.791   3.585   8.864
 1357POPC   GL220006   9.730   3.393   8.864
 1357POPC   C1A20007   9.700   3.588   8.564
 1357POPC   D2A20008   9.732   3.509   8.264
 1357POPC   C3A20009   9.793   3.500   7.964
 1357POPC   C4A20010   9.735   3.558   7.664
 1357POPC   C1B20011   9.735   3.292   8.564
 1357POPC   C2B20012   9.685   3.283   8.264
 1357POPC   C3B20013   9.715   3.282   7.964
 1357POPC   C4B20014   9.711   3.297   7.664
 1358POPC   NC320015  20.620  12.887   9.464
 1358POPC   PO420016  20.640  12.895   9.164
 1358POPC   GL120017  20.649  12.837   8.864
 1358POPC   GL220018  20.599  12.729   8.864
 1358POPC   C1A20019  20.611  12.853   8.564
 1358POPC   D2A20020  20.621  12.893   8.264
 1358POPC   C3A20021  20.635  12.809   7.964
 1358POPC   C4A20022  20.593  12.872   7.664
 1358POPC   C1B20023  20.561  12.587   8.564
 1358POPC   C2B20024  20.541  12.659   8.264
 1358POPC   C3B20025  20.512  12.636   7.964
 1358POPC   C4B20026  20.565  12.658   7.664
 1359POPC   NC320027  29.100  14.421   9.464
 1359POPC   PO420028  29.170  14.439   9.164
 1359POPC   GL120029  29.168  14.438   8.864
 1359POPC   GL220030  29.260  14.402   8.864
 1359POPC   C1A20031  29.126  14.413   8.564
 1359POPC   D2A20032  29.169  14.423   8.264
 1359POPC   C3A20033  29.189  14.411   7.964
 1359POPC   C4A20034  29.185  14.372   7.664
 1359POPC   C1B20035  29.436  14.489   8.564
 1359POPC   C2B20036  29.426  14.509   8.264
 1359POPC   C3B20037  29.396  14.467   7.964
 1359POPC   C4B20038  29.430  14.437   7.664
 1360POPC   NC320039  39.225  15.211   9.464
 1360POPC   PO420040  39.252  15.137   9.164
 1360POPC   GL120041  39.199  15.229   8.864
 1360POPC   GL220042  39.123  15.112   8.864
 1360POPC   C1A20043  39.251  15.169   8.564
 1360POPC   D2A20044  39.225  15.202   8.264
 1360POPC   C3A20045  39.260  15.183   7.964
 1360POPC   C4A20046  39.188  15.213   7.664
 1360POPC   C1B20047  39.059  15.026   8.564
 1360POPC   C2B20048  39.071  14.993   8.264
 1360POPC   C3B20049  39.042  14.990   7.964
 1360POPC   C4B20050  39.090  14.936   7.664
 1361POPC   NC320051  15.967  29.181   9.464
 1361POPC   PO420052  15.968  29.152   9.164
 1361POPC   GL120053  15.922  29.170   8.864
 1361POPC   GL220054  15.858  29.043   8.864
 1361POPC   C1A20055  15.921  29.133   8.564
 1361POPC   D2A20056  15.979  29.184   8.264
 1361POPC   C3A20057  15.958  29.137   7.964
 1361POPC   C4A20058  15.982  29.167   7.664
 1361POPC   C1B20059  15.780  29.010   8.564
 1361POPC   C2B20060  15.785  29.025   8.264
 1361POPC   C3B20061  15.766  29.027   7.964
 1361POPC   C4B20062  15.816  28.940   7.664
 1362POPC   NC320063  22.175  14.414   9.464
 1362POPC   PO420064  22.135  14.370   9.164
 1362POPC   GL120065  22.118  14.446   8.864
 1362POPC   GL220066  22.122  14.469   8.864
 1362POPC   C1A20067  22.185  14.371   8.564
 1362POPC   D2A20068  22.185  14.400   8.264
 1362POPC   C3A20069  22.207  14.380   7.964
 1362POPC   C4A20070  22.125  14.356   7.664
 1362POPC   C1B20071  22.069  14.634   8.564
 1362POPC   C2B20072  22.021  14.592   8.264
 1362POPC   C3B20073  22.051  14.626   7.964
 1362POPC   C4B20074  22.064  14.633   7.664
 1363POPC   NC320075  14.441  35.351   9.464
 1363POPC   PO420076  14.451  35.396   9.164
 1363POPC   GL120077  14.437  35.304   8.864
 1363POPC   GL220078  14.254  35.324   8.864
 1363POPC   C1A20079  14.354  35.360   8.564
 1363POPC   D2A20080  14.373  35.381   8.264
 1363POPC   C3A20081  14.392  35.387   7.964
 1363POPC   C4A20082  14.389  35.337   7.664
 1363POPC   C1B20083  14.178  35.260   8.564
 1363POPC   C2B20084  14.174  35.196   8.264
 1363POPC   C3B20085  14.203  35.233   7.964
 1363POPC   C4B20086  14.195  35.176   7.664
 1364POPC   NC320087  43.137  22.194   9.464
 1364POPC   PO420088  43.076  22.163   9.164
 1364POPC   GL120089  43.123  22.182   8.864
 1364POPC   GL220090  42.949  22.194   8.864
 1364POPC   C1A20091  43.146  22.129   8.564
 1364POPC   D2A20092  43.132  22.148   8.264
 1364POPC   C3A20093  43.160  22.179   7.964
 1364POPC   C4A20094  43.136  22.127   7.664
 1364POPC   C1B20095  42.864  22.169   8.564
 1364POPC   C2B20096  42.838  22.210   8.264
 1364POPC   C3B20097  42.890  22.205   7.964
 1364POPC   C4B20098  42.868  22.244   7.664
 1365POPC   NC320099   4.319  39.979   9.464
 1365POPC   PO420100   4.321  40.002   9.164
 1365POPC   GL120101   4.366  40.032   8.864
 1365POPC   GL220102   4.374  39.898   8.864
 1365POPC   C1A20103   4.364  40.002   8.564
 1365POPC   D2A20104   4.294  39.969   8.264
 1365POPC   C3A20105   4.281  40.050   7.964
 1365POPC   C4A20106   4.304  40.022   7.664
 1365POPC   C1B20107   4.423  39.763   8.564
 1365POPC   C2B20108   4.403  39.811   8.264
 1365POPC   C3B20109   4.420  39.825   7.964
 1365POPC   C4B20110   4.494  39.772   7.664
 1366POPC   NC320111  11.343  24.519   9.464
 1366POPC   PO420112  11.334  24.457   9.164
 1366POPC   GL120113  11.309  24.478   8.864
 1366POPC   GL220114  11.217  24.517   8.864
 1366POPC   C1A20115  11.279  24.469   8.564
 1366POPC   D2A20116  11.273  24.484   8.264
 1366POPC   C3A20117  11.307  24.509   7.964
 1366POPC   C4A20118  11.285  24.457   7.664
 1366POPC   C1B20119  11.016  24.531   8.564
 1366POPC   C2B20120  11.090  24.610   8.264
 1366POPC   C3B20121  11.061  24.580   7.964
 1366POPC   C4B20122  11.059  24.528   7.664
 1367POPC   NC320123  15.925  35.322   9.464
 1367POPC   PO420124  15.997  35.353   9.164
 1367POPC   GL120125  16.004  35.386   8.864
 1367POPC   GL220126  15.817  35.312   8.864
 1367POPC   C1A20127  15.952  35.381   8.564
 1367POPC   D2A20128  15.927  35.369   8.264
 1367POPC   C3A20129  15.969  35.328   7.964
 1367POPC   C4A20130  15.954  35.325   7.664
 1367POPC   C1B20131  15.676  35.250   8.564
 1367POPC   C2B20132  15.741  35.252   8.264
 1367POPC   C3B20133  15.684  35.273   7.964
 1367POPC   C4B20134  15.750  35.264   7.664
 1368POPC   NC320135  19.015  22.113   9.464
 1368POPC   PO420136  19.057  22.129   9.164
 1368POPC   GL120137  19.076  22.113   8.864
 1368POPC   GL220138  18.916  22.211   8.864
 1368POPC   C1A20139  19.103  22.172   8.564
 1368POPC   D2A20140  19.048  22.138   8.264
 1368POPC   C3A20141  19.021  22.191   7.964
 1368POPC   C4A20142  19.029  22.194   7.664
 1368POPC   C1B20143  18.764  22.160   8.564
 1368POPC   C2B20144  18.804  22.218   8.264
 1368POPC   C3B20145  18.763  22.170   7.964
 1368POPC   C4B20146  18.775  22.163   7.664
 1369POPC   NC320147  41.526   0.470   9.464
 1369POPC   PO420148  41.537   0.420   9.164
 1369POPC   GL120149  41.599   0.484   8.864
 1369POPC   GL220150  41.527   0.310   8.864
 1369POPC   C1A20151  41.604   0.389   8.564
 1369POPC   D2A20152  41.545   0.458   8.264
 1369POPC   C3A20153  41.605   0.485   7.964
 1369POPC   C4A20154  41.519   0.416   7.664
 1369POPC   C1B20155  41.539   0.192   8.564
 1369POPC   C2B20156  41.509   0.229   8.264
 1369POPC   C3B20157  41.518   0.141   7.964
 1369POPC   C4B20158  41.584   0.202   7.664
 1370POPC   NC320159  41.516  24.484   9.464
 1370POPC   PO420160  41.569  24.505   9.164
 1370POPC   GL120161  41.535  24.507   8.864
 1370POPC   GL220162  41.716  24.444   8.864
 1370POPC   C1A20163  41.607  24.468   8.564
 1370POPC   D2A20164  41.548  24.456   8.264
 1370POPC   C3A20165  41.542  24.462   7.964
 1370POPC   C4A20166  41.562  24.526   7.664
 1370POPC   C1B20167  41.811  24.397   8.564
 1370POPC   C2B20168  41.769  24.389   8.264
 1370POPC   C3B20169  41.775  24.405   7.964
 1370POPC   C4B20170  41.798  24.466   7.664
 1371POPC   NC320171  42.368  26.849   9.464
 1371POPC   PO420172  42.378  26.814   9.164
 1371POPC   GL120173  42.369  26.800   8.864
 1371POPC   GL220174  42.245  26.828   8.864
 1371POPC   C1A20175  42.337  26.805   8.564
 1371POPC   D2A20176  42.371  26.788   8.264
 1371POPC   C3A20177  42.286  26.844   7.964
 1371POPC   C4A20178  42.355  26.772   7.664
 1371POPC   C1B20179  42.115  26.814   8.564
 1371POPC   C2B20180  42.116  26.840   8.264
 1371POPC   C3B20181  42.048  26.823   7.964
 1371POPC   C4B20182  42.124  26.786   7.664
 1372POPC   NC320183  36.100   2.756   9.464
 1372POPC   PO420184  36.104   2.739   9.164
 1372POPC   GL120185  36.141   2.762   8.864
 1372POPC   GL220186  36.011   2.765   8.864
 1372POPC   C1A20187  36.159   2.774   8.564
 1372POPC   D2A20188  36.130   2.794   8.264
 1372POPC   C3A20189  36.098   2.778   7.964
 1372POPC   C4A20190  36.108   2.780   7.664
 1372POPC   C1B20191  35.881   2.853   8.564
 1372POPC   C2B20192  35.856   2.911   8.264
 1372POPC   C3B20193  35.894   2.823   7.964
 1372POPC   C4B20194  35.875   2.892   7.664
 1373POPC   NC320195   6.622  42.291   9.464
 1373POPC   PO420196   6.636  42.295   9.164
 1373POPC   GL120197   6.625  42.307   8.864
 1373POPC   GL220198   6.524  42.471   8.864
 1373POPC   C1A20199   6.693  42.301   8.564
 1373POPC   D2A20200   6.612  42.350   8.264
 1373POPC   C3A20201   6.678  42.293   7.964
 1373POPC   C4A20202   6.627  42.350   7.664
 1373POPC   C1B20203   6.527  42.576   8.564
 1373POPC   C2B20204   6.503  42.574   8.264
 1373POPC   C3B20205   6.455  42.487   7.964
 1373POPC   C4B20206   6.515  42.547   7.664
 1374POPC   NC320207   6.637  13.609   9.464
 1374POPC   PO420208   6.692  13.635   9.164
 1374POPC   GL120209   6.633  13.667   8.864
 1374POPC   GL220210   6.639  13.501   8.864
 1374POPC   C1A20211   6.645  13.614   8.564
 1374POPC   D2A20212   6.656  13.668   8.264
 1374POPC   C3A20213   6.651  13.607   7.964
 1374POPC   C4A20214   6.613  13.653   7.664
 1374POPC   C1B20215   6.624  13.414   8.564
 1374POPC   C2B20216   6.671  13.358   8.264
 1374POPC   C3B20217   6.662  13.352   7.964
 1374POPC   C4B20218   6.605  13.427   7.664
 1375POPC   NC320219   8.174  21.361   9.464
 1375POPC   PO420220   8.207  21.416   9.164
 1375POPC   GL120221   8.183  21.378   8.864
 1375POPC   GL220222   8.320  21.334   8.864
 1375POPC   C1A20223   8.239  21.396   8.564
 1375POPC   D2A20224   8.230  21.375   8.264
 1375POPC   C3A20225   8.164  21.366   7.964
 1375POPC   C4A20226   8.151  21.367   7.664
 1375POPC   C1B20227   8.393  21.263   8.564
 1375POPC   C2B20228   8.459  21.250   8.264
 1375POPC   C3B20229   8.388  21.235   7.964
 1375POPC   C4B20230   8.430  21.238   7.664
 1376POPC   NC320231  15.166  40.826   9.464
 1376POPC   PO420232  15.211  40.828   9.164
 1376POPC   GL120233  15.156  40.806   8.864
 1376POPC   GL220234  15.252  40.852   8.864
 1376POPC   C1A20235  15.157  40.791   8.564
 1376POPC   D2A20236  15.204  40.818   8.264
 1376POPC   C3A20237  15.140  40.792   7.964
 1376POPC   C4A20238  15.156  40.809   7.664
 1376POPC   C1B20239  15.427  40.940   8.564
 1376POPC   C2B20240  15.381  40.927   8.264
 1376POPC   C3B20241  15.359  40.940   7.964
 1376POPC   C4B20242  15.402  40.954   7.664
 1377POPC   NC320243   1.257   5.057   9.464
 1377POPC   PO420244   1.243   5.068   9.164
 1377POPC   GL120245   1.187   5.068   8.864
 1377POPC   GL220246   1.073   5.053   8.864
 1377POPC   C1A20247   1.241   5.117   8.564
 1377POPC   D2A20248   1.231   5.120   8.264
 1377POPC   C3A20249   1.228   5.061   7.964
 1377POPC   C4A20250   1.247   5.110   7.664
 1377POPC   C1B20251   1.055   4.907   8.564
 1377POPC   C2B20252   1.019   4.947   8.264
 1377POPC   C3B20253   1.009   4.920   7.964
 1377POPC   C4B20254   0.973   4.973   7.664
 1378POPC   NC320255   4.317   5.834   9.464
 1378POPC   PO420256   4.288   5.874   9.164
 1378POPC   GL120257   4.326   5.847   8.864
 1378POPC   GL220258   4.353   6.038   8.864
 1378POPC   C1A20259   4.336   5.842   8.564
 1378POPC   D2A20260   4.330   5.894   8.264
 1378POPC   C3A20261   4.309   5.835   7.964
 1378POPC   C4A20262   4.365   5.823   7.664
 1378POPC   C1B20263   4.346   6.153   8.564
 1378POPC   C2B20264   4.353   6.071   8.264
 1378POPC   C3B20265   4.361   6.097   7.964
 1378POPC   C4B20266   4.286   6.124   7.664
 1379POPC   NC320267  15.924   2.791   9.464
 1379POPC   PO420268  15.942   2.768   9.164
 1379POPC   GL120269  15.990   2.815   8.864
 1379POPC   GL220270  15.846   2.695   8.864
 1379POPC   C1A20271  15.963   2.770   8.564
 1379POPC   D2A20272  15.922   2.798   8.264
 1379POPC   C3A20273  15.942   2.795   7.964
 1379POPC   C4A20274  15.937   2.733   7.664
 1379POPC   C1B20275  15.779   2.672   8.564
 1379POPC   C2B20276  15.720   2.621   8.264
 1379POPC   C3B20277  15.730   2.666   7.964
 1379POPC   C4B20278  15.710   2.664   7.664
 1380POPC   NC320279  20.596  39.983   9.464
 1380POPC   PO420280  20.589  40.015   9.164
 1380POPC   GL120281  20.571  40.025   8.864
 1380POPC   GL220282  20.563  40.073   8.864
 1380POPC   C1A20283  20.586  39.998   8.564
 1380POPC   D2A20284  20.607  39.995   8.264
 1380POPC   C3A20285  20.645  40.025   7.964
 1380POPC   C4A20286  20.636  40.004   7.664
 1380POPC   C1B20287  20.496  40.233   8.564
 1380POPC   C2B20288  20.520  40.216   8.264
 1380POPC   C3B20289  20.469  40.233   7.964
 1380POPC   C4B20290  20.510  40.211   7.664
 1381POPC   NC320291  20.573   9.720   9.464
 1381POPC   PO420292  20.648   9.793   9.164
 1381POPC   GL120293  20.619   9.740   8.864
 1381POPC   GL220294  20.605   9.909   8.864
 1381POPC   C1A20295  20.596   9.706   8.564
 1381POPC   D2A20296  20.586   9.719   8.264
 1381POPC   C3A20297  20.645   9.795   7.964
 1381POPC   C4A20298  20.650   9.738   7.664
 1381POPC   C1B20299  20.606  10.025   8.564
 1381POPC   C2B20300  20.583  10.002   8.264
 1381POPC   C3B20301  20.516   9.995   7.964
 1381POPC   C4B20302  20.557   9.993   7.664
 1382POPC   NC320303  36.904   1.233   9.464
 1382POPC   PO420304  36.890   1.258   9.164
 1382POPC   GL120305  36.883   1.194   8.864
 1382POPC   GL220306  36.913   1.369   8.864
 1382POPC   C1A20307  36.883   1.258   8.564
 1382POPC   D2A20308  36.910   1.216   8.264
 1382POPC   C3A20309  36.914   1.252   7.964
 1382POPC   C4A20310  36.898   1.165   7.664
 1382POPC   C1B20311  36.965   1.509   8.564
 1382POPC   C2B20312  36.912   1.464   8.264
 1382POPC   C3B20313  36.968   1.482   7.964
 1382POPC   C4B20314  36.920   1.422   7.664
 1383POPC   NC320315   9.724  34.534   9.464
 1383POPC   PO420316   9.727  34.623   9.164
 1383POPC   GL120317   9.766  34.551   8.864
 1383POPC   GL220318   9.804  34.434   8.864
 1383POPC   C1A20319   9.732  34.532   8.564
 1383POPC   D2A20320   9.756  34.622   8.264
 1383POPC   C3A20321   9.797  34.581   7.964
 1383POPC   C4A20322   9.711  34.583   7.664
 1383POPC   C1B20323   9.935  34.412   8.564
 1383POPC   C2B20324   9.845  34.329   8.264
 1383POPC   C3B20325   9.917  34.369   7.964
 1383POPC   C4B20326   9.868  34.389   7.664
 1384POPC   NC320327  33.015  27.546   9.464
 1384POPC   PO420328  32.996  27.638   9.164
 1384POPC   GL120329  32.992  27.569   8.864
 1384POPC   GL220330  33.053  27.700   8.864
 1384POPC   C1A20331  33.011  27.619   8.564
 1384POPC   D2A20332  33.019  27.548   8.264
 1384POPC   C3A20333  32.986  27.641   7.964
 1384POPC   C4A20334  33.060  27.589   7.664
 1384POPC   C1B20335  33.037  27.815   8.564
 1384POPC   C2B20336  33.064  27.879   8.264
 1384POPC   C3B20337  33.071  27.805   7.964
 1384POPC   C4B20338  33.054  27.823   7.664
 1385POPC   NC320339  44.691  19.847   9.464
 1385POPC   PO420340  44.645  19.819   9.164
 1385POPC   GL120341  44.624  19.839   8.864
 1385POPC   GL220342  44.593  19.898   8.864
 1385POPC   C1A20343  44.643  19.827   8.564
 1385POPC   D2A20344  44.613  19.856   8.264
 1385POPC   C3A20345  44.664  19.856   7.964
 1385POPC   C4A20346  44.623  19.879   7.664
 1385POPC   C1B20347  44.491  20.048   8.564
 1385POPC   C2B20348  44.527  20.038   8.264
 1385POPC   C3B20349  44.540  19.989   7.964
 1385POPC   C4B20350  44.529  19.983   7.664
 1386POPC   NC320351  42.296  44.664   9.464
 1386POPC   PO420352  42.339  44.650   9.164
 1386POPC   GL120353  42.366  44.654   8.864
 1386POPC   GL220354  42.357  44.574   8.864
 1386POPC   C1A20355  42.348  44.623   8.564
 1386POPC   D2A20356  42.344  44.642   8.264
 1386POPC   C3A20357  42.366  44.638   7.964
 1386POPC   C4A20358  42.376  44.639   7.664
 1386POPC   C1B20359  42.414  44.463   8.564
 1386POPC   C2B20360  42.368  44.440   8.264
 1386POPC   C3B20361  42.390  44.462   7.964
 1386POPC   C4B20362  42.336  44.426   7.664
 1387POPC   NC320363  36.144   3.510   9.464
 1387POPC   PO420364  36.146   3.529   9.164
 1387POPC   GL120365  36.147   3.548   8.864
 1387POPC   GL220366  36.175   3.649   8.864
 1387POPC   C1A20367  36.177   3.563   8.564
 1387POPC   D2A20368  36.099   3.516   8.264
 1387POPC   C3A20369  36.088   3.495   7.964
 1387POPC   C4A20370  36.101   3.512   7.664
 1387POPC   C1B20371  36.192   3.767   8.564
 1387POPC   C2B20372  36.276   3.782   8.264
 1387POPC   C3B20373  36.243   3.810   7.964
 1387POPC   C4B20374  36.277   3.779   7.664
 1388POPC   NC320375  10.533  27.627   9.464
 1388POPC   PO420376  10.533  27.638   9.164
 1388POPC   GL120377  10.537  27.635   8.864
 1388POPC   GL220378  10.404  27.551   8.864
 1388POPC   C1A20379  10.535  27.595   8.564
 1388POPC   D2A20380  10.545  27.638   8.264
 1388POPC   C3A20381  10.555  27.600   7.964
 1388POPC   C4A20382  10.550  27.626   7.664
 1388POPC   C1B20383  10.345  27.447   8.564
 1388POPC   C2B20384  10.330  27.491   8.264
 1388POPC   C3B20385  10.349  27.488   7.964
 1388POPC   C4B20386  10.281  27.453   7.664
 1389POPC   NC320387  13.628  41.595   9.464
 1389POPC   PO420388  13.641  41.579   9.164
 1389POPC   GL120389  13.660  41.544   8.864
 1389POPC   GL220390  13.701  41.528   8.864
 1389POPC   C1A20391  13.612  41.604   8.564
 1389POPC   D2A20392  13.608  41.589   8.264
 1389POPC   C3A20393  13.609  41.528   7.964
 1389POPC   C4A20394  13.611  41.519   7.664
 1389POPC   C1B20395  13.875  41.500   8.564
 1389POPC   C2B20396  13.873  41.469   8.264
 1389POPC   C3B20397  13.830  41.490   7.964
 1389POPC   C4B20398  13.840  41.515   7.664
 1390POPC   NC320399  32.276  34.582   9.464
 1390POPC   PO420400  32.291  34.578   9.164
 1390POPC   GL120401  32.228  34.541   8.864
 1390POPC   GL220402  32.185  34.513   8.864
 1390POPC   C1A20403  32.289  34.572   8.564
 1390POPC   D2A20404  32.227  34.579   8.264
 1390POPC   C3A20405  32.280  34.531   7.964
 1390POPC   C4A20406  32.243  34.607   7.664
 1390POPC   C1B20407  32.059  34.326   8.564
 1390POPC   C2B20408  32.126  34.393   8.264
 1390POPC   C3B20409  32.146  34.361   7.964
 1390POPC   C4B20410  32.069  34.339   7.664
 1391POPC   NC320411  26.844   4.323   9.464
 1391POPC   PO420412  26.770   4.317   9.164
 1391POPC   GL120413  26.776   4.309   8.864
 1391POPC   GL220414  26.738   4.187   8.864
 1391POPC   C1A20415  26.807   4.364   8.564
 1391POPC   D2A20416  26.820   4.348   8.264
 1391POPC   C3A20417  26.840   4.334   7.964
 1391POPC   C4A20418  26.813   4.364   7.664
 1391POPC   C1B20419  26.655   4.127   8.564
 1391POPC   C2B20420  26.644   4.161   8.264
 1391POPC   C3B20421  26.647   4.110   7.964
 1391POPC   C4B20422  26.674   4.080   7.664
 1392POPC   NC320423  29.186  12.062   9.464
 1392POPC   PO420424  29.124  12.086   9.164
 1392POPC   GL120425  29.149  12.085   8.864
 1392POPC   GL220426  29.211  11.990   8.864
 1392POPC   C1A20427  29.179  12.106   8.564
 1392POPC   D2A20428  29.173  12.041   8.264
 1392POPC   C3A20429  29.156  12.050   7.964
 1392POPC   C4A20430  29.158  12.068   7.664
 1392POPC   C1B20431  29.363  11.985   8.564
 1392POPC   C2B20432  29.386  12.003   8.264
 1392POPC   C3B20433  29.406  11.953   7.964
 1392POPC   C4B20434  29.377  11.991   7.664
 1393POPC   NC320435  22.892  35.328   9.464
 1393POPC   PO420436  22.894  35.382   9.164
 1393POPC   GL120437  22.935  35.309   8.864
 1393POPC   GL220438  22.961  35.193   8.864
 1393POPC   C1A20439  22.965  35.389   8.564
 1393POPC   D2A20440  22.952  35.361   8.264
 1393POPC   C3A20441  22.977  35.360   7.964
 1393POPC   C4A20442  22.931  35.344   7.664
 1393POPC   C1B20443  23.044  35.116   8.564
 1393POPC   C2B20444  22.968  35.070   8.264
 1393POPC   C3B20445  23.008  35.062   7.964
 1393POPC   C4B20446  23.051  35.076   7.664
 1394POPC   NC320447   5.054  22.942   9.464
 1394POPC   PO420448   5.138  22.892   9.164
 1394POPC   GL120449   5.080  22.909   8.864
 1394POPC   GL220450   5.198  22.954   8.864
 1394POPC   C1A20451   5.128  22.970   8.564
 1394POPC   D2A20452   5.057  22.947   8.264
 1394POPC   C3A20453   5.081  22.901   7.964
 1394POPC   C4A20454   5.127  22.932   7.664
 1394POPC   C1B20455   5.300  22.860   8.564
 1394POPC   C2B20456   5.302  22.924   8.264
 1394POPC   C3B20457   5.379  22.949   7.964
 1394POPC   C4B20458   5.353  22.900   7.664
 1395POPC   NC320459  17.528  33.765   9.464
 1395POPC   PO420460  17.510  33.823   9.164
 1395POPC   GL120461  17.470  33.849   8.864
 1395POPC   GL220462  17.473  33.921   8.864
 1395POPC   C1A20463  17.538  33.761   8.564
 1395POPC   D2A20464  17.495  33.803   8.264
 1395POPC   C3A20465  17.524  33.772   7.964
 1395POPC   C4A20466  17.465  33.771   7.664
 1395POPC   C1B20467  17.502  34.010   8.564
 1395POPC   C2B20468  17.516  34.007   8.264
 1395POPC   C3B20469  17.554  34.069   7.964
 1395POPC   C4B20470  17.545  34.097   7.664
 1396POPC   NC320471  35.357   8.924   9.464
 1396POPC   PO420472  35.391   9.014   9.164
 1396POPC   GL120473  35.395   9.009   8.864
 1396POPC   GL220474  35.395   9.057   8.864
 1396POPC   C1A20475  35.388   8.952   8.564
 1396POPC   D2A20476  35.325   8.936   8.264
 1396POPC   C3A20477  35.383   9.007   7.964
 1396POPC   C4A20478  35.338   8.936   7.664
 1396POPC   C1B20479  35.410   9.240   8.564
 1396POPC   C2B20480  35.388   9.246   8.264
 1396POPC   C3B20481  35.385   9.192   7.964
 1396POPC   C4B20482  35.410   9.223   7.664
 1397POPC   NC320483  30.724  22.143   9.464
 1397POPC   PO420484  30.657  22.148   9.164
 1397POPC   GL120485  30.741  22.151   8.864
 1397POPC   GL220486  30.605  22.179   8.864
 1397POPC   C1A20487  30.677  22.176   8.564
 1397POPC   D2A20488  30.673  22.205   8.264
 1397POPC   C3A20489  30.706  22.206   7.964
 1397POPC   C4A20490  30.676  22.199   7.664
 1397POPC   C1B20491  30.529  22.253   8.564
 1397POPC   C2B20492  30.479  22.249   8.264
 1397POPC   C3B20493  30.436  22.268   7.964
 1397POPC   C4B20494  30.461  22.257   7.664
 1398POPC   NC320495  35.311  13.654   9.464
 1398POPC   PO420496  35.327  13.667   9.164
 1398POPC   GL120497  35.302  13.619   8.864
 1398POPC   GL220498  35.431  13.746   8.864
 1398POPC   C1A20499  35.338  13.610   8.564
 1398POPC   D2A20500  35.340  13.648   8.264
 1398POPC   C3A20501  35.380  13.677   7.964
 1398POPC   C4A20502  35.355  13.620   7.664
 1398POPC   C1B20503  35.529  13.865   8.564
 1398POPC   C2B20504  35.445  13.827   8.264
 1398POPC   C3B20505  35.522  13.843   7.964
 1398POPC   C4B20506  35.512  13.799   7.664
 1399POPC   NC320507  39.960  29.136   9.464
 1399POPC   PO420508  40.036  29.159   9.164
 1399POPC   GL120509  40.044  29.099   8.864
 1399POPC   GL220510  39.914  29.126   8.864
 1399POPC   C1A20511  40.032  29.147   8.564
 1399POPC   D2A20512  40.044  29.184   8.264
 1399POPC   C3A20513  39.992  29.144   7.964
 1399POPC   C4A20514  39.986  29.195   7.664
 1399POPC   C1B20515  39.827  29.043   8.564
 1399POPC   C2B20516  39.803  29.075   8.264
 1399POPC   C3B20517  39.746  29.064   7.964
 1399POPC   C4B20518  39.775  29.032   7.664
 1400POPC   NC320519  12.077  10.476   9.464
 1400POPC   PO420520  12.100  10.510   9.164
 1400POPC   GL120521  12.095  10.566   8.864
 1400POPC   GL220522  11.965  10.571   8.864
 1400POPC   C1A20523  12.119  10.514   8.564
 1400POPC   D2A20524  12.100  10.475   8.264
 1400POPC   C3A20525  12.035  10.565   7.964
 1400POPC   C4A20526  12.054  10.482   7.664
 1400POPC   C1B20527  11.847  10.629   8.564
 1400POPC   C2B20528  11.861  10.588   8.264
 1400POPC   C3B20529  11.871  10.629   7.964
 1400POPC   C4B20530  11.795  10.603   7.664
 1401POPC   NC320531   0.391  35.337   9.464
 1401POPC   PO420532   0.401  35.395   9.164
 1401POPC   GL120533   0.409  35.383   8.864
 1401POPC   GL220534   0.551  35.389   8.864
 1401POPC   C1A20535   0.473  35.358   8.564
 1401POPC   D2A20536   0.466  35.373   8.264
 1401POPC   C3A20537   0.477  35.395   7.964
 1401POPC   C4A20538   0.398  35.376   7.664
 1401POPC   C1B20539   0.666  35.540   8.564
 1401POPC   C2B20540   0.609  35.528   8.264
 1401POPC   C3B20541   0.654  35.540   7.964
 1401POPC   C4B20542   0.628  35.505   7.664
 1402POPC   NC320543  35.387  37.635   9.464
 1402POPC   PO420544  35.395  37.702   9.164
 1402POPC   GL120545  35.328  37.672   8.864
 1402POPC   GL220546  35.505  37.717   8.864
 1402POPC   C1A20547  35.359  37.630   8.564
 1402POPC   D2A20548  35.357  37.728   8.264
 1402POPC   C3A20549  35.327  37.660   7.964
 1402POPC   C4A20550  35.318  37.629   7.664
 1402POPC   C1B20551  35.562  37.686   8.564
 1402POPC   C2B20552  35.572  37.689   8.264
 1402POPC   C3B20553  35.565  37.724   7.964
 1402POPC   C4B20554  35.601  37.701   7.664
 1403POPC   NC320555   3.590   4.351   9.464
 1403POPC   PO420556   3.543   4.340   9.164
 1403POPC   GL120557   3.508   4.362   8.864
 1403POPC   GL220558   3.660   4.256   8.864
 1403POPC   C1A20559   3.547   4.278   8.564
 1403POPC   D2A20560   3.551   4.353   8.264
 1403POPC   C3A20561   3.560   4.366   7.964
 1403POPC   C4A20562   3.525   4.271   7.664
 1403POPC   C1B20563   3.694   4.111   8.564
 1403POPC   C2B20564   3.706   4.123   8.264
 1403POPC   C3B20565   3.763   4.188   7.964
 1403POPC   C4B20566   3.720   4.109   7.664
 1404POPC   NC320567  16.762  33.800   9.464
 1404POPC   PO420568  16.750  33.777   9.164
 1404POPC   GL120569  16.739  33.771   8.864
 1404POPC   GL220570  16.775  33.937   8.864
 1404POPC   C1A20571  16.690  33.819   8.564
 1404POPC   D2A20572  16.688  33.795   8.264
 1404POPC   C3A20573  16.754  33.845   7.964
 1404POPC   C4A20574  16.752  33.777   7.664
 1404POPC   C1B20575  16.726  34.080   8.564
 1404POPC   C2B20576  16.772  34.075   8.264
 1404POPC   C3B20577  16.752  34.049   7.964
 1404POPC   C4B20578  16.746  34.061   7.664
 1405POPC   NC320579  23.739  16.735   9.464
 1405POPC   PO420580  23.707  16.732   9.164
 1405POPC   GL120581  23.685  16.733   8.864
 1405POPC   GL220582  23.831  16.802   8.864
 1405POPC   C1A20583  23.746  16.745   8.564
 1405POPC   D2A20584  23.757  16.740   8.264
 1405POPC   C3A20585  23.685  16.729   7.964
 1405POPC   C4A20586  23.692  16.709   7.664
 1405POPC   C1B20587  23.885  16.930   8.564
 1405POPC   C2B20588  23.833  16.887   8.264
 1405POPC   C3B20589  23.853  16.911   7.964
 1405POPC   C4B20590  23.888  16.877   7.664
 1406POPC   NC320591  22.964  15.163   9.464
 1406POPC   PO420592  22.902  15.136   9.164
 1406POPC   GL120593  22.917  15.227   8.864
 1406POPC   GL220594  22.830  15.164   8.864
 1406POPC   C1A20595  22.985  15.200   8.564
 1406POPC   D2A20596  22.963  15.143   8.264
 1406POPC   C3A20597  22.977  15.140   7.964
 1406POPC   C4A20598  22.909  15.157   7.664
 1406POPC   C1B20599  22.670  15.181   8.564
 1406POPC   C2B20600  22.706  15.190   8.264
 1406POPC   C3B20601  22.713  15.206   7.964
 1406POPC   C4B20602  22.686  15.185   7.664
 1407POPC   NC320603   5.127  22.211   9.464
 1407POPC   PO420604   5.086  22.196   9.164
 1407POPC   GL120605   5.109  22.115   8.864
 1407POPC   GL220606   5.078  22.072   8.864
 1407POPC   C1A20607   5.139  22.136   8.564
 1407POPC   D2A20608   5.087  22.187   8.264
 1407POPC   C3A20609   5.070  22.158   7.964
 1407POPC   C4A20610   5.100  22.179   7.664
 1407POPC   C1B20611   5.111  21.924   8.564
 1407POPC   C2B20612   5.109  21.904   8.264
 1407POPC   C3B20613   5.098  21.874   7.964
 1407POPC   C4B20614   5.097  21.924   7.664
 1408POPC   NC320615  43.842  12.818   9.464
 1408POPC   PO420616  43.856  12.888   9.164
 1408POPC   GL120617  43.870  12.833   8.864
 1408POPC   GL220618  43.892  12.944   8.864
 1408POPC   C1A20619  43.892  12.868   8.564
 1408POPC   D2A20620  43.902  12.811   8.264
 1408POPC   C3A20621  43.847  12.851   7.964
 1408POPC   C4A20622  43.837  12.825   7.664
 1408POPC   C1B20623  43.874  13.077   8.564
 1408POPC   C2B20624  43.935  13.130   8.264
 1408POPC   C3B20625  43.922  13.099   7.964
 1408POPC   C4B20626  43.895  13.053   7.664
 1409POPC   NC320627   2.800  41.605   9.464
 1409POPC   PO420628   2.793  41.534   9.164
 1409POPC   GL120629   2.790  41.549   8.864
 1409POPC   GL220630   2.870  41.443   8.864
 1409POPC   C1A20631   2.725  41.511   8.564
 1409POPC   D2A20632   2.730  41.574   8.264
 1409POPC   C3A20633   2.807  41.535   7.964
 1409POPC   C4A20634   2.776  41.573   7.664
 1409POPC   C1B20635   2.893  41.412   8.564
 1409POPC   C2B20636   2.956  41.352   8.264
 1409POPC   C3B20637   2.967  41.379   7.964
 1409POPC   C4B20638   2.977  41.366   7.664
 1410POPC   NC320639  25.286  18.289   9.464
 1410POPC   PO420640  25.283  18.306   9.164
 1410POPC   GL120641  25.260  18.298   8.864
 1410POPC   GL220642  25.378  18.181   8.864
 1410POPC   C1A20643  25.307  18.311   8.564
 1410POPC   D2A20644  25.232  18.305   8.264
 1410POPC   C3A20645  25.292  18.303   7.964
 1410POPC   C4A20646  25.272  18.317   7.664
 1410POPC   C1B20647  25.478  18.147   8.564
 1410POPC   C2B20648  25.432  18.160   8.264
 1410POPC   C3B20649  25.432  18.177   7.964
 1410POPC   C4B20650  25.498  18.127   7.664
 1411POPC   NC320651   0.392   2.796   9.464
 1411POPC   PO420652   0.416   2.812   9.164
 1411POPC   GL120653   0.468   2.778   8.864
 1411POPC   GL220654   0.580   2.737   8.864
 1411POPC   C1A20655   0.418   2.792   8.564
 1411POPC   D2A20656   0.466   2.749   8.264
 1411POPC   C3A20657   0.409   2.807   7.964
 1411POPC   C4A20658   0.396   2.786   7.664
 1411POPC   C1B20659   0.684   2.774   8.564
 1411POPC   C2B20660   0.724   2.734   8.264
 1411POPC   C3B20661   0.737   2.771   7.964
 1411POPC   C4B20662   0.687   2.768   7.664
 1412POPC   NC320663  17.518   2.810   9.464
 1412POPC   PO420664  17.472   2.720   9.164
 1412POPC   GL120665  17.523   2.743   8.864
 1412POPC   GL220666  17.569   2.652   8.864
 1412POPC   C1A20667  17.463   2.778   8.564
 1412POPC   D2A20668  17.463   2.760   8.264
 1412POPC   C3A20669  17.534   2.746   7.964
 1412POPC   C4A20670  17.526   2.789   7.664
 1412POPC   C1B20671  17.611   2.536   8.564
 1412POPC   C2B20672  17.664   2.525   8.264
 1412POPC   C3B20673  17.614   2.540   7.964
 1412POPC   C4B20674  17.615   2.577   7.664
 1413POPC   NC320675  24.483  15.229   9.464
 1413POPC   PO420676  24.536  15.163   9.164
 1413POPC   GL120677  24.486  15.190   8.864
 1413POPC   GL220678  24.397  15.155   8.864
 1413POPC   C1A20679  24.489  15.160   8.564
 1413POPC   D2A20680  24.451  15.190   8.264
 1413POPC   C3A20681  24.456  15.217   7.964
 1413POPC   C4A20682  24.474  15.172   7.664
 1413POPC   C1B20683  24.240  15.116   8.564
 1413POPC   C2B20684  24.296  15.130   8.264
 1413POPC   C3B20685  24.250  15.092   7.964
 1413POPC   C4B20686  24.256  15.072   7.664
 1414POPC   NC320687  29.893  34.561   9.464
 1414POPC   PO420688  29.915  34.613   9.164
 1414POPC   GL120689  29.898  34.587   8.864
 1414POPC   GL220690  29.863  34.624   8.864
 1414POPC   C1A20691  29.945  34.613   8.564
 1414POPC   D2A20692  29.883  34.558   8.264
 1414POPC   C3A20693  29.901  34.614   7.964
 1414POPC   C4A20694  29.887  34.555   7.664
 1414POPC   C1B20695  29.752  34.778   8.564
 1414POPC   C2B20696  29.792  34.742   8.264
 1414POPC   C3B20697  29.710  34.765   7.964
 1414POPC   C4B20698  29.731  34.719   7.664
 1415POPC   NC320699  34.531  30.745   9.464
 1415POPC   PO420700  34.527  30.708   9.164
 1415POPC   GL120701  34.575  30.676   8.864
 1415POPC   GL220702  34.511  30.756   8.864
 1415POPC   C1A20703  34.618  30.668   8.564
 1415POPC   D2A20704  34.586  30.739   8.264
 1415POPC   C3A20705  34.540  30.649   7.964
 1415POPC   C4A20706  34.604  30.705   7.664
 1415POPC   C1B20707  34.385  30.796   8.564
 1415POPC   C2B20708  34.403  30.801   8.264
 1415POPC   C3B20709  34.353  30.841   7.964
 1415POPC   C4B20710  34.347  30.840   7.664
 1416POPC   NC320711   7.420   2.777   9.464
 1416POPC   PO420712   7.431   2.802   9.164
 1416POPC   GL120713   7.454   2.777   8.864
 1416POPC   GL220714   7.489   2.873   8.864
 1416POPC   C1A20715   7.384   2.752   8.564
 1416POPC   D2A20716   7.440   2.763   8.264
 1416POPC   C3A20717   7.419   2.809   7.964
 1416POPC   C4A20718   7.466   2.761   7.664
 1416POPC   C1B20719   7.585   2.894   8.564
 1416POPC   C2B20720   7.596   2.924   8.264
 1416POPC   C3B20721   7.640   2.948   7.964
 1416POPC   C4B20722   7.605   2.914   7.664
 1417POPC   NC320723  39.189  21.370   9.464
 1417POPC   PO420724  39.215  21.374   9.164
 1417POPC   GL120725  39.279  21.427   8.864
 1417POPC   GL220726  39.372  21.273   8.864
 1417POPC   C1A20727  39.233  21.336   8.564
 1417POPC   D2A20728  39.262  21.420   8.264
 1417POPC   C3A20729  39.229  21.414   7.964
 1417POPC   C4A20730  39.266  21.405   7.664
 1417POPC   C1B20731  39.451  21.246   8.564
 1417POPC   C2B20732  39.435  21.223   8.264
 1417POPC   C3B20733  39.392  21.250   7.964
 1417POPC   C4B20734  39.458  21.261   7.664
 1418POPC   NC320735  35.340  41.594   9.464
 1418POPC   PO420736  35.345  41.585   9.164
 1418POPC   GL120737  35.353  41.573   8.864
 1418POPC   GL220738  35.293  41.702   8.864
 1418POPC   C1A20739  35.395  41.536   8.564
 1418POPC   D2A20740  35.317  41.563   8.264
 1418POPC   C3A20741  35.395  41.533   7.964
 1418POPC   C4A20742  35.390  41.519   7.664
 1418POPC   C1B20743  35.278  41.823   8.564
 1418POPC   C2B20744  35.299  41.756   8.264
 1418POPC   C3B20745  35.332  41.788   7.964
 1418POPC   C4B20746  35.286  41.785   7.664
 1419POPC   NC320747   1.222  40.745   9.464
 1419POPC   PO420748   1.197  40.752   9.164
 1419POPC   GL120749   1.218  40.779   8.864
 1419POPC   GL220750   1.318  40.935   8.864
 1419POPC   C1A20751   1.193  40.822   8.564
 1419POPC   D2A20752   1.246  40.820   8.264
 1419POPC   C3A20753   1.251  40.823   7.964
 1419POPC   C4A20754   1.178  40.773   7.664
 1419POPC   C1B20755   1.338  40.974   8.564
 1419POPC   C2B20756   1.329  40.979   8.264
 1419POPC   C3B20757   1.377  40.972   7.964
 1419POPC   C4B20758   1.312  41.012   7.664
 1420POPC   NC320759   5.914  20.657   9.464
 1420POPC   PO420760   5.915  20.583   9.164
 1420POPC   GL120761   5.827  20.602   8.864
 1420POPC   GL220762   5.896  20.766   8.864
 1420POPC   C1A20763   5.842  20.603   8.564
 1420POPC   D2A20764   5.867  20.633   8.264
 1420POPC   C3A20765   5.836  20.608   7.964
 1420POPC   C4A20766   5.861  20.629   7.664
 1420POPC   C1B20767   5.881  20.896   8.564
 1420POPC   C2B20768   5.853  20.847   8.264
 1420POPC   C3B20769   5.864  20.905   7.964
 1420POPC   C4B20770   5.825  20.890   7.664
 1421POPC   NC320771  40.799   9.736   9.464
 1421POPC   PO420772  40.798   9.703   9.164
 1421POPC   GL120773  40.822   9.753   8.864
 1421POPC   GL220774  40.746   9.626   8.864
 1421POPC   C1A20775  40.795   9.707   8.564
 1421POPC   D2A20776  40.832   9.770   8.264
 1421POPC   C3A20777  40.759   9.762   7.964
 1421POPC   C4A20778  40.767   9.724   7.664
 1421POPC   C1B20779  40.807   9.527   8.564
 1421POPC   C2B20780  40.782   9.540   8.264
 1421POPC   C3B20781  40.767   9.482   7.964
 1421POPC   C4B20782  40.828   9.480   7.664
 1422POPC   NC320783   9.748  15.131   9.464
 1422POPC   PO420784   9.737  15.208   9.164
 1422POPC   GL120785   9.749  15.131   8.864
 1422POPC   GL220786   9.583  15.190   8.864
 1422POPC   C1A20787   9.699  15.228   8.564
 1422POPC   D2A20788   9.777  15.168   8.264
 1422POPC   C3A20789   9.794  15.200   7.964
 1422POPC   C4A20790   9.775  15.133   7.664
 1422POPC   C1B20791   9.521  15.138   8.564
 1422POPC   C2B20792   9.468  15.119   8.264
 1422POPC   C3B20793   9.483  15.094   7.964
 1422POPC   C4B20794   9.527  15.122   7.664
 1423POPC   NC320795  18.287  35.393   9.464
 1423POPC   PO420796  18.258  35.339   9.164
 1423POPC   GL120797  18.263  35.339   8.864
 1423POPC   GL220798  18.205  35.457   8.864
 1423POPC   C1A20799  18.252  35.349   8.564
 1423POPC   D2A20800  18.236  35.316   8.264
 1423POPC   C3A20801  18.267  35.331   7.964
 1423POPC   C4A20802  18.311  35.328   7.664
 1423POPC   C1B20803  18.053  35.494   8.564
 1423POPC   C2B20804  18.096  35.486   8.264
 1423POPC   C3B20805  18.091  35.540   7.964
 1423POPC   C4B20806  18.042  35.463   7.664
 1424POPC   NC320807  10.496  32.991   9.464
 1424POPC   PO420808  10.482  33.005   9.164
 1424POPC   GL120809  10.557  32.998   8.864
 1424POPC   GL220810  10.545  32.887   8.864
 1424POPC   C1A20811  10.480  32.975   8.564
 1424POPC   D2A20812  10.559  32.976   8.264
 1424POPC   C3A20813  10.562  33.059   7.964
 1424POPC   C4A20814  10.531  32.993   7.664
 1424POPC   C1B20815  10.641  32.815   8.564
 1424POPC   C2B20816  10.681  32.764   8.264
 1424POPC   C3B20817  10.656  32.805   7.964
 1424POPC   C4B20818  10.673  32.788   7.664
 1425POPC   NC320819  37.710  30.692   9.464
 1425POPC   PO420820  37.701  30.710   9.164
 1425POPC   GL120821  37.690  30.715   8.864
 1425POPC   GL220822  37.723  30.831   8.864
 1425POPC   C1A20823  37.630  30.701   8.564
 1425POPC   D2A20824  37.696  30.721   8.264
 1425POPC   C3A20825  37.636  30.737   7.964
 1425POPC   C4A20826  37.699  30.682   7.664
 1425POPC   C1B20827  37.848  30.894   8.564
 1425POPC   C2B20828  37.775  30.929   8.264
 1425POPC   C3B20829  37.767  30.954   7.964
 1425POPC   C4B20830  37.797  30.890   7.664
 1426POPC   NC320831  34.588   1.169   9.464
 1426POPC   PO420832  34.569   1.225   9.164
 1426POPC   GL120833  34.596   1.213   8.864
 1426POPC   GL220834  34.636   1.378   8.864
 1426POPC   C1A20835  34.573   1.260   8.564
 1426POPC   D2A20836  34.573   1.174   8.264
 1426POPC   C3A20837  34.592   1.176   7.964
 1426POPC   C4A20838  34.607   1.191   7.664
 1426POPC   C1B20839  34.643   1.451   8.564
 1426POPC   C2B20840  34.675   1.487   8.264
 1426POPC   C3B20841  34.663   1.497   7.964
 1426POPC   C4B20842  34.685   1.425   7.664
 1427POPC   NC320843   4.338  32.246   9.464
 1427POPC   PO420844   4.314  32.234   9.164
 1427POPC   GL120845   4.332  32.282   8.864
 1427POPC   GL220846   4.194  32.298   8.864
 1427POPC   C1A20847   4.295  32.282   8.564
 1427POPC   D2A20848   4.292  32.282   8.264
 1427POPC   C3A20849   4.298  32.217   7.964
 1427POPC   C4A20850   4.277  32.257   7.664
 1427POPC   C1B20851   4.171  32.442   8.564
 1427POPC   C2B20852   4.105  32.379   8.264
 1427POPC   C3B20853   4.152  32.450   7.964
 1427POPC   C4B20854   4.168  32.439   7.664
 1428POPC   NC320855  16.704  22.173   9.464
 1428POPC   PO420856  16.737  22.144   9.164
 1428POPC   GL120857  16.767  22.175   8.864
 1428POPC   GL220858  16.659  22.241   8.864
 1428POPC   C1A20859  16.740  22.153   8.564
 1428POPC   D2A20860  16.707  22.125   8.264
 1428POPC   C3A20861  16.759  22.155   7.964
 1428POPC   C4A20862  16.729  22.183   7.664
 1428POPC   C1B20863  16.593  22.353   8.564
 1428POPC   C2B20864  16.579  22.388   8.264
 1428POPC   C3B20865  16.515  22.362   7.964
 1428POPC   C4B20866  16.535  22.350   7.664
 1429POPC   NC320867  31.425  22.151   9.464
 1429POPC   PO420868  31.486  22.199   9.164
 1429POPC   GL120869  31.512  22.173   8.864
 1429POPC   GL220870  31.552  22.077   8.864
 1429POPC   C1A20871  31.471  22.134   8.564
 1429POPC   D2A20872  31.513  22.166   8.264
 1429POPC   C3A20873  31.464  22.127   7.964
 1429POPC   C4A20874  31.497  22.115   7.664
 1429POPC   C1B20875  31.667  21.949   8.564
 1429POPC   C2B20876  31.594  21.965   8.264
 1429POPC   C3B20877  31.642  21.920   7.964
 1429POPC   C4B20878  31.677  21.979   7.664
 1430POPC   NC320879   0.408  36.894   9.464
 1430POPC   PO420880   0.398  36.911   9.164
 1430POPC   GL120881   0.419  36.878   8.864
 1430POPC   GL220882   0.322  36.844   8.864
 1430POPC   C1A20883   0.430  36.876   8.564
 1430POPC   D2A20884   0.408  36.943   8.264
 1430POPC   C3A20885   0.488  36.862   7.964
 1430POPC   C4A20886   0.474  36.884   7.664
 1430POPC   C1B20887   0.263  36.792   8.564
 1430POPC   C2B20888   0.247  36.807   8.264
 1430POPC   C3B20889   0.263  36.827   7.964
 1430POPC   C4B20890   0.211  36.773   7.664
 1431POPC   NC320891  42.347   9.769   9.464
 1431POPC   PO420892  42.333   9.767   9.164
 1431POPC   GL120893  42.358   9.778   8.864
 1431POPC   GL220894  42.311   9.830   8.864
 1431POPC   C1A20895  42.313   9.784   8.564
 1431POPC   D2A20896  42.342   9.764   8.264
 1431POPC   C3A20897  42.352   9.727   7.964
 1431POPC   C4A20898  42.352   9.717   7.664
 1431POPC   C1B20899  42.286  10.028   8.564
 1431POPC   C2B20900  42.275   9.999   8.264
 1431POPC   C3B20901  42.276  10.010   7.964
 1431POPC   C4B20902  42.317  10.029   7.664
 1432POPC   NC320903  31.443  41.589   9.464
 1432POPC   PO420904  31.456  41.585   9.164
 1432POPC   GL120905  31.461  41.598   8.864
 1432POPC   GL220906  31.380  41.548   8.864
 1432POPC   C1A20907  31.425  41.582   8.564
 1432POPC   D2A20908  31.440  41.597   8.264
 1432POPC   C3A20909  31.467  41.565   7.964
 1432POPC   C4A20910  31.430  41.559   7.664
 1432POPC   C1B20911  31.183  41.544   8.564
 1432POPC   C2B20912  31.267  41.459   8.264
 1432POPC   C3B20913  31.264  41.506   7.964
 1432POPC   C4B20914  31.245  41.470   7.664
 1433POPC   NC320915   5.100  41.570   9.464
 1433POPC   PO420916   5.045  41.606   9.164
 1433POPC   GL120917   5.132  41.599   8.864
 1433POPC   GL220918   5.115  41.640   8.864
 1433POPC   C1A20919   5.103  41.543   8.564
 1433POPC   D2A20920   5.108  41.570   8.264
 1433POPC   C3A20921   5.097  41.600   7.964
 1433POPC   C4A20922   5.046  41.512   7.664
 1433POPC   C1B20923   5.211  41.773   8.564
 1433POPC   C2B20924   5.195  41.762   8.264
 1433POPC   C3B20925   5.126  41.824   7.964
 1433POPC   C4B20926   5.162  41.841   7.664
 1434POPC   NC320927  12.029   3.566   9.464
 1434POPC   PO420928  12.118   3.574   9.164
 1434POPC   GL120929  12.091   3.549   8.864
 1434POPC   GL220930  12.174   3.461   8.864
 1434POPC   C1A20931  12.095   3.546   8.564
 1434POPC   D2A20932  12.061   3.499   8.264
 1434POPC   C3A20933  12.061   3.546   7.964
 1434POPC   C4A20934  12.029   3.524   7.664
 1434POPC   C1B20935  12.258   3.311   8.564
 1434POPC   C2B20936  12.200   3.301   8.264
 1434POPC   C3B20937  12.180   3.375   7.964
 1434POPC   C4B20938  12.256   3.339   7.664
 1435POPC   NC320939  15.223  19.840   9.464
 1435POPC   PO420940  15.156  19.841   9.164
 1435POPC   GL120941  15.140  19.872   8.864
 1435POPC   GL220942  15.240  19.923   8.864
 1435POPC   C1A20943  15.171  19.799   8.564
 1435POPC   D2A20944  15.197  19.797   8.264
 1435POPC   C3A20945  15.154  19.868   7.964
 1435POPC   C4A20946  15.146  19.824   7.664
 1435POPC   C1B20947  15.365  19.999   8.564
 1435POPC   C2B20948  15.395  19.984   8.264
 1435POPC   C3B20949  15.416  19.954   7.964
 1435POPC   C4B20950  15.430  19.989   7.664
 1436POPC   NC320951  38.500   5.839   9.464
 1436POPC   PO420952  38.492   5.908   9.164
 1436POPC   GL120953  38.479   5.915   8.864
 1436POPC   GL220954  38.291   5.944   8.864
 1436POPC   C1A20955  38.426   5.824   8.564
 1436POPC   D2A20956  38.412   5.914   8.264
 1436POPC   C3A20957  38.501   5.880   7.964
 1436POPC   C4A20958  38.491   5.870   7.664
 1436POPC   C1B20959  38.166   5.925   8.564
 1436POPC   C2B20960  38.254   5.899   8.264
 1436POPC   C3B20961  38.239   5.939   7.964
 1436POPC   C4B20962  38.252   5.883   7.664
 1437POPC   NC320963  14.427  22.972   9.464
 1437POPC   PO420964  14.405  22.889   9.164
 1437POPC   GL120965  14.438  22.978   8.864
 1437POPC   GL220966  14.473  22.994   8.864
 1437POPC   C1A20967  14.430  22.952   8.564
 1437POPC   D2A20968  14.423  22.934   8.264
 1437POPC   C3A20969  14.428  22.892   7.964
 1437POPC   C4A20970  14.437  22.903   7.664
 1437POPC   C1B20971  14.661  23.035   8.564
 1437POPC   C2B20972  14.643  23.061   8.264
 1437POPC   C3B20973  14.566  23.047   7.964
 1437POPC   C4B20974  14.657  23.035   7.664
 1438POPC   NC320975  21.401  32.256   9.464
 1438POPC   PO420976  21.386  32.226   9.164
 1438POPC   GL120977  21.397  32.204   8.864
 1438POPC   GL220978  21.492  32.181   8.864
 1438POPC   C1A20979  21.383  32.285   8.564
 1438POPC   D2A20980  21.405  32.266   8.264
 1438POPC   C3A20981  21.356  32.294   7.964
 1438POPC   C4A20982  21.399  32.268   7.664
 1438POPC   C1B20983  21.564  32.120   8.564
 1438POPC   C2B20984  21.588  32.098   8.264
 1438POPC   C3B20985  21.596  32.099   7.964
 1438POPC   C4B20986  21.592  32.095   7.664
 1439POPC   NC320987   7.387  39.972   9.464
 1439POPC   PO420988   7.372  40.040   9.164
 1439POPC   GL120989   7.434  40.013   8.864
 1439POPC   GL220990   7.590  39.995   8.864
 1439POPC   C1A20991   7.455  40.021   8.564
 1439POPC   D2A20992   7.466  40.002   8.264
 1439POPC   C3A20993   7.463  40.018   7.964
 1439POPC   C4A20994   7.420  39.962   7.664
 1439POPC   C1B20995   7.709  40.068   8.564
 1439POPC   C2B20996   7.635  39.998   8.264
 1439POPC   C3B20997   7.647  40.058   7.964
 1439POPC   C4B20998   7.642  40.070   7.664
 1440POPC   NC320999  39.182  20.591   9.464
 1440POPC   PO421000  39.233  20.585   9.164
 1440POPC   GL121001  39.264  20.598   8.864
 1440POPC   GL221002  39.362  20.518   8.864
 1440POPC   C1A21003  39.258  20.636   8.564
 1440POPC   D2A21004  39.197  20.579   8.264
 1440POPC   C3A21005  39.252  20.641   7.964
 1440POPC   C4A21006  39.261  20.614   7.664
 1440POPC   C1B21007  39.355  20.405   8.564
 1440POPC   C2B21008  39.395  20.463   8.264
 1440POPC   C3B21009  39.370  20.401   7.964
 1440POPC   C4B21010  39.411  20.451   7.664
 1441POPC   NC321011  14.453  33.812   9.464
 1441POPC   PO421012  14.448  33.812   9.164
 1441POPC   GL121013  14.374  33.771   8.864
 1441POPC   GL221014  14.310  33.888   8.864
 1441POPC   C1A21015  14.384  33.791   8.564
 1441POPC   D2A21016  14.403  33.812   8.264
 1441POPC   C3A21017  14.402  33.829   7.964
 1441POPC   C4A21018  14.436  33.793   7.664
 1441POPC   C1B21019  14.156  33.872   8.564
 1441POPC   C2B21020  14.159  33.885   8.264
 1441POPC   C3B21021  14.140  33.931   7.964
 1441POPC   C4B21022  14.219  33.906   7.664
 1442POPC   NC321023  41.551  42.320   9.464
 1442POPC   PO421024  41.580  42.365   9.164
 1442POPC   GL121025  41.568  42.331   8.864
 1442POPC   GL221026  41.632  42.201   8.864
 1442POPC   C1A21027  41.574  42.365   8.564
 1442POPC   D2A21028  41.528  42.325   8.264
 1442POPC   C3A21029  41.554  42.314   7.964
 1442POPC   C4A21030  41.558  42.330   7.664
 1442POPC   C1B21031  41.603  42.081   8.564
 1442POPC   C2B21032  41.652  42.049   8.264
 1442POPC   C3B21033  41.605  42.107   7.964
 1442POPC   C4B21034  41.594  42.084   7.664
 1443POPC   NC321035  26.835  24.467   9.464
 1443POPC   PO421036  26.838  24.456   9.164
 1443POPC   GL121037  26.846  24.475   8.864
 1443POPC   GL221038  26.908  24.584   8.864
 1443POPC   C1A21039  26.770  24.507   8.564
 1443POPC   D2A21040  26.816  24.523   8.264
 1443POPC   C3A21041  26.773  24.442   7.964
 1443POPC   C4A21042  26.786  24.537   7.664
 1443POPC   C1B21043  26.977  24.751   8.564
 1443POPC   C2B21044  26.900  24.730   8.264
 1443POPC   C3B21045  26.933  24.724   7.964
 1443POPC   C4B21046  26.932  24.671   7.664
 1444POPC   NC321047  39.964  26.778   9.464
 1444POPC   PO421048  40.056  26.862   9.164
 1444POPC   GL121049  40.001  26.837   8.864
 1444POPC   GL221050  39.864  26.912   8.864
 1444POPC   C1A21051  39.988  26.857   8.564
 1444POPC   D2A21052  40.006  26.768   8.264
 1444POPC   C3A21053  40.020  26.823   7.964
 1444POPC   C4A21054  39.997  26.798   7.664
 1444POPC   C1B21055  39.839  26.971   8.564
 1444POPC   C2B21056  39.795  26.948   8.264
 1444POPC   C3B21057  39.776  26.955   7.964
 1444POPC   C4B21058  39.816  26.987   7.664
 1445POPC   NC321059   9.013   8.204   9.464
 1445POPC   PO421060   8.969   8.179   9.164
 1445POPC   GL121061   8.957   8.192   8.864
 1445POPC   GL221062   8.875   8.268   8.864
 1445POPC   C1A21063   8.985   8.224   8.564
 1445POPC   D2A21064   8.943   8.190   8.264
 1445POPC   C3A21065   8.987   8.223   7.964
 1445POPC   C4A21066   8.968   8.222   7.664
 1445POPC   C1B21067   8.852   8.400   8.564
 1445POPC   C2B21068   8.835   8.462   8.264
 1445POPC   C3B21069   8.808   8.410   7.964
 1445POPC   C4B21070   8.808   8.401   7.664
 1446POPC   NC321071  24.458  36.936   9.464
 1446POPC   PO421072  24.452  36.937   9.164
 1446POPC   GL121073  24.444  36.915   8.864
 1446POPC   GL221074  24.489  37.035   8.864
 1446POPC   C1A21075  24.534  36.898   8.564
 1446POPC   D2A21076  24.470  36.872   8.264
 1446POPC   C3A21077  24.457  36.862   7.964
 1446POPC   C4A21078  24.537  36.872   7.664
 1446POPC   C1B21079  24.403  37.132   8.564
 1446POPC   C2B21080  24.421  37.181   8.264
 1446POPC   C3B21081  24.370  37.122   7.964
 1446POPC   C4B21082  24.347  37.156   7.664
 1447POPC   NC321083  43.117  36.118   9.464
 1447POPC   PO421084  43.132  36.085   9.164
 1447POPC   GL121085  43.082  36.149   8.864
 1447POPC   GL221086  43.176  35.986   8.864
 1447POPC   C1A21087  43.121  36.176   8.564
 1447POPC   D2A21088  43.123  36.120   8.264
 1447POPC   C3A21089  43.128  36.161   7.964
 1447POPC   C4A21090  43.151  36.161   7.664
 1447POPC   C1B21091  43.174  35.852   8.564
 1447POPC   C2B21092  43.200  35.935   8.264
 1447POPC   C3B21093  43.234  35.887   7.964
 1447POPC   C4B21094  43.195  35.939   7.664
 1448POPC   NC321095  22.118   3.505   9.464
 1448POPC   PO421096  22.146   3.515   9.164
 1448POPC   GL121097  22.191   3.584   8.864
 1448POPC   GL221098  22.315   3.442   8.864
 1448POPC   C1A21099  22.142   3.517   8.564
 1448POPC   D2A21100  22.163   3.549   8.264
 1448POPC   C3A21101  22.165   3.567   7.964
 1448POPC   C4A21102  22.141   3.568   7.664
 1448POPC   C1B21103  22.409   3.432   8.564
 1448POPC   C2B21104  22.340   3.460   8.264
 1448POPC   C3B21105  22.368   3.475   7.964
 1448POPC   C4B21106  22.352   3.472   7.664
 1449POPC   NC321107  20.563  12.028   9.464
 1449POPC   PO421108  20.633  12.076   9.164
 1449POPC   GL121109  20.629  12.071   8.864
 1449POPC   GL221110  20.625  11.970   8.864
 1449POPC   C1A21111  20.633  12.050   8.564
 1449POPC   D2A21112  20.607  12.030   8.264
 1449POPC   C3A21113  20.587  12.086   7.964
 1449POPC   C4A21114  20.631  12.104   7.664
 1449POPC   C1B21115  20.707  11.868   8.564
 1449POPC   C2B21116  20.695  11.862   8.264
 1449POPC   C3B21117  20.632  11.788   7.964
 1449POPC   C4B21118  20.665  11.792   7.664
 1450POPC   NC321119  41.554  38.413   9.464
 1450POPC   PO421120  41.581  38.450   9.164
 1450POPC   GL121121  41.555  38.451   8.864
 1450POPC   GL221122  41.641  38.349   8.864
 1450POPC   C1A21123  41.538  38.423   8.564
 1450POPC   D2A21124  41.596  38.452   8.264
 1450POPC   C3A21125  41.608  38.473   7.964
 1450POPC   C4A21126  41.525  38.452   7.664
 1450POPC   C1B21127  41.662  38.256   8.564
 1450POPC   C2B21128  41.691  38.232   8.264
 1450POPC   C3B21129  41.652  38.196   7.964
 1450POPC   C4B21130  41.669  38.214   7.664
 1451POPC   NC321131  31.448  15.183   9.464
 1451POPC   PO421132  31.451  15.208   9.164
 1451POPC   GL121133  31.521  15.218   8.864
 1451POPC   GL221134  31.582  15.234   8.864
 1451POPC   C1A21135  31.432  15.176   8.564
 1451POPC   D2A21136  31.458  15.202   8.264
 1451POPC   C3A21137  31.458  15.181   7.964
 1451POPC   C4A21138  31.439  15.209   7.664
 1451POPC   C1B21139  31.683  15.237   8.564
 1451POPC   C2B21140  31.736  15.237   8.264
 1451POPC   C3B21141  31.704  15.279   7.964
 1451POPC   C4B21142  31.668  15.266   7.664
 1452POPC   NC321143  38.474  32.259   9.464
 1452POPC   PO421144  38.467  32.255   9.164
 1452POPC   GL121145  38.420  32.226   8.864
 1452POPC   GL221146  38.449  32.079   8.864
 1452POPC   C1A21147  38.448  32.232   8.564
 1452POPC   D2A21148  38.475  32.221   8.264
 1452POPC   C3A21149  38.428  32.290   7.964
 1452POPC   C4A21150  38.502  32.232   7.664
 1452POPC   C1B21151  38.540  32.032   8.564
 1452POPC   C2B21152  38.521  31.971   8.264
 1452POPC   C3B21153  38.497  32.014   7.964
 1452POPC   C4B21154  38.552  31.976   7.664
 1453POPC   NC321155  10.515  19.813   9.464
 1453POPC   PO421156  10.502  19.871   9.164
 1453POPC   GL121157  10.485  19.848   8.864
 1453POPC   GL221158  10.499  19.970   8.864
 1453POPC   C1A21159  10.475  19.807   8.564
 1453POPC   D2A21160  10.510  19.845   8.264
 1453POPC   C3A21161  10.555  19.839   7.964
 1453POPC   C4A21162  10.561  19.839   7.664
 1453POPC   C1B21163  10.552  20.089   8.564
 1453POPC   C2B21164  10.480  20.105   8.264
 1453POPC   C3B21165  10.500  20.069   7.964
 1453POPC   C4B21166  10.525  20.042   7.664
 1454POPC   NC321167  17.471  32.212   9.464
 1454POPC   PO421168  17.547  32.263   9.164
 1454POPC   GL121169  17.535  32.236   8.864
 1454POPC   GL221170  17.368  32.291   8.864
 1454POPC   C1A21171  17.526  32.214   8.564
 1454POPC   D2A21172  17.524  32.206   8.264
 1454POPC   C3A21173  17.492  32.208   7.964
 1454POPC   C4A21174  17.524  32.239   7.664
 1454POPC   C1B21175  17.246  32.323   8.564
 1454POPC   C2B21176  17.310  32.265   8.264
 1454POPC   C3B21177  17.294  32.305   7.964
 1454POPC   C4B21178  17.300  32.283   7.664
 1455POPC   NC321179  38.424  27.612   9.464
 1455POPC   PO421180  38.473  27.592   9.164
 1455POPC   GL121181  38.497  27.639   8.864
 1455POPC   GL221182  38.446  27.492   8.864
 1455POPC   C1A21183  38.465  27.553   8.564
 1455POPC   D2A21184  38.438  27.611   8.264
 1455POPC   C3A21185  38.497  27.610   7.964
 1455POPC   C4A21186  38.440  27.580   7.664
 1455POPC   C1B21187  38.467  27.305   8.564
 1455POPC   C2B21188  38.485  27.379   8.264
 1455POPC   C3B21189  38.524  27.366   7.964
 1455POPC   C4B21190  38.504  27.302   7.664
 1456POPC   NC321191   3.551  12.892   9.464
 1456POPC   PO421192   3.536  12.869   9.164
 1456POPC   GL121193   3.534  12.806   8.864
 1456POPC   GL221194   3.635  12.750   8.864
 1456POPC   C1A21195   3.558  12.847   8.564
 1456POPC   D2A21196   3.576  12.810   8.264
 1456POPC   C3A21197   3.532  12.831   7.964
 1456POPC   C4A21198   3.542  12.821   7.664
 1456POPC   C1B21199   3.619  12.613   8.564
 1456POPC   C2B21200   3.675  12.601   8.264
 1456POPC   C3B21201   3.698  12.674   7.964
 1456POPC   C4B21202   3.658  12.618   7.664
 1457POPC   NC321203   9.764  24.444   9.464
 1457POPC   PO421204   9.711  24.529   9.164
 1457POPC   GL121205   9.717  24.457   8.864
 1457POPC   GL221206   9.632  24.526   8.864
 1457POPC   C1A21207   9.729  24.539   8.564
 1457POPC   D2A21208   9.718  24.502   8.264
 1457POPC   C3A21209   9.709  24.463   7.964
 1457POPC   C4A21210   9.726  24.445   7.664
 1457POPC   C1B21211   9.549  24.696   8.564
 1457POPC   C2B21212   9.537  24.700   8.264
 1457POPC   C3B21213   9.582  24.668   7.964
 1457POPC   C4B21214   9.568  24.644   7.664
 1458POPC   NC321215  19.786  22.972   9.464
 1458POPC   PO421216  19.853  22.908   9.164
 1458POPC   GL121217  19.848  22.943   8.864
 1458POPC   GL221218  19.677  22.976   8.864
 1458POPC   C1A21219  19.828  22.956   8.564
 1458POPC   D2A21220  19.855  22.969   8.264
 1458POPC   C3A21221  19.851  22.937   7.964
 1458POPC   C4A21222  19.821  22.936   7.664
 1458POPC   C1B21223  19.562  22.989   8.564
 1458POPC   C2B21224  19.540  22.957   8.264
 1458POPC   C3B21225  19.596  23.007   7.964
 1458POPC   C4B21226  19.577  22.940   7.664
 1459POPC   NC321227  29.968  42.339   9.464
 1459POPC   PO421228  29.889  42.382   9.164
 1459POPC   GL121229  29.936  42.380   8.864
 1459POPC   GL221230  29.813  42.206   8.864
 1459POPC   C1A21231  29.904  42.303   8.564
 1459POPC   D2A21232  29.896  42.379   8.264
 1459POPC   C3A21233  29.964  42.303   7.964
 1459POPC   C4A21234  29.952  42.369   7.664
 1459POPC   C1B21235  29.778  42.120   8.564
 1459POPC   C2B21236  29.815  42.113   8.264
 1459POPC   C3B21237  29.826  42.117   7.964
 1459POPC   C4B21238  29.758  42.123   7.664
 1460POPC   NC321239  32.287  37.677   9.464
 1460POPC   PO421240  32.259  37.635   9.164
 1460POPC   GL121241  32.203  37.676   8.864
 1460POPC   GL221242  32.323  37.754   8.864
 1460POPC   C1A21243  32.266  37.687   8.564
 1460POPC   D2A21244  32.227  37.659   8.264
 1460POPC   C3A21245  32.268  37.693   7.964
 1460POPC   C4A21246  32.232  37.703   7.664
 1460POPC   C1B21247  32.468  37.819   8.564
 1460POPC   C2B21248  32.510  37.793   8.264
 1460POPC   C3B21249  32.489  37.758   7.964
 1460POPC   C4B21250  32.494  37.848   7.664
 1461POPC   NC321251  19.837  28.320   9.464
 1461POPC   PO421252  19.810  28.368   9.164
 1461POPC   GL121253  19.789  28.340   8.864
 1461POPC   GL221254  19.770  28.453   8.864
 1461POPC   C1A21255  19.882  28.356   8.564
 1461POPC   D2A21256  19.869  28.415   8.264
 1461POPC   C3A21257  19.813  28.330   7.964
 1461POPC   C4A21258  19.793  28.364   7.664
 1461POPC   C1B21259  19.624  28.491   8.564
 1461POPC   C2B21260  19.689  28.574   8.264
 1461POPC   C3B21261  19.673  28.523   7.964
 1461POPC   C4B21262  19.630  28.534   7.664
 1462POPC   NC321263  13.634  11.260   9.464
 1462POPC   PO421264  13.627  11.277   9.164
 1462POPC   GL121265  13.618  11.301   8.864
 1462POPC   GL221266  13.538  11.210   8.864
 1462POPC   C1A21267  13.627  11.294   8.564
 1462POPC   D2A21268  13.660  11.333   8.264
 1462POPC   C3A21269  13.582  11.265   7.964
 1462POPC   C4A21270  13.643  11.268   7.664
 1462POPC   C1B21271  13.408  11.163   8.564
 1462POPC   C2B21272  13.364  11.170   8.264
 1462POPC   C3B21273  13.416  11.203   7.964
 1462POPC   C4B21274  13.430  11.254   7.664
 1463POPC   NC321275  13.673  34.547   9.464
 1463POPC   PO421276  13.626  34.617   9.164
 1463POPC   GL121277  13.593  34.567   8.864
 1463POPC   GL221278  13.672  34.439   8.864
 1463POPC   C1A21279  13.581  34.597   8.564
 1463POPC   D2A21280  13.666  34.564   8.264
 1463POPC   C3A21281  13.626  34.609   7.964
 1463POPC   C4A21282  13.584  34.544   7.664
 1463POPC   C1B21283  13.830  34.349   8.564
 1463POPC   C2B21284  13.831  34.351   8.264
 1463POPC   C3B21285  13.824  34.389   7.964
 1463POPC   C4B21286  13.779  34.437   7.664
 1464POPC   NC321287   8.213  33.049   9.464
 1464POPC   PO421288   8.222  32.980   9.164
 1464POPC   GL121289   8.148  32.998   8.864
 1464POPC   GL221290   8.209  33.112   8.864
 1464POPC   C1A21291   8.206  33.060   8.564
 1464POPC   D2A21292   8.160  32.993   8.264
 1464POPC   C3A21293   8.242  33.060   7.964
 1464POPC   C4A21294   8.208  33.048   7.664
 1464POPC   C1B21295   8.170  33.274   8.564
 1464POPC   C2B21296   8.189  33.323   8.264
 1464POPC   C3B21297   8.172  33.273   7.964
 1464POPC   C4B21298   8.228  33.321   7.664
 1465POPC   NC321299  33.808   1.977   9.464
 1465POPC   PO421300  33.842   2.039   9.164
 1465POPC   GL121301  33.833   1.980   8.864
 1465POPC   GL221302  33.762   1.864   8.864
 1465POPC   C1A21303  33.787   1.945   8.564
 1465POPC   D2A21304  33.779   2.001   8.264
 1465POPC   C3A21305  33.771   2.023   7.964
 1465POPC   C4A21306  33.757   1.968   7.664
 1465POPC   C1B21307  33.633   1.758   8.564
 1465POPC   C2B21308  33.629   1.743   8.264
 1465POPC   C3B21309  33.622   1.832   7.964
 1465POPC   C4B21310  33.651   1.784   7.664
 1466POPC   NC321311  28.362  41.599   9.464
 1466POPC   PO421312  28.388  41.561   9.164
 1466POPC   GL121313  28.392  41.577   8.864
 1466POPC   GL221314  28.227  41.584   8.864
 1466POPC   C1A21315  28.329  41.559   8.564
 1466POPC   D2A21316  28.321  41.532   8.264
 1466POPC   C3A21317  28.392  41.556   7.964
 1466POPC   C4A21318  28.331  41.582   7.664
 1466POPC   C1B21319  28.116  41.503   8.564
 1466POPC   C2B21320  28.093  41.486   8.264
 1466POPC   C3B21321  28.137  41.517   7.964
 1466POPC   C4B21322  28.117  41.487   7.664
 1467POPC   NC321323   6.693  12.122   9.464
 1467POPC   PO421324   6.649  12.100   9.164
 1467POPC   GL121325   6.659  12.114   8.864
 1467POPC   GL221326   6.586  12.101   8.864
 1467POPC   C1A21327   6.615  12.070   8.564
 1467POPC   D2A21328   6.627  12.089   8.264
 1467POPC   C3A21329   6.687  12.095   7.964
 1467POPC   C4A21330   6.644  12.074   7.664
 1467POPC   C1B21331   6.424  12.241   8.564
 1467POPC   C2B21332   6.399  12.200   8.264
 1467POPC   C3B21333   6.476  12.254   7.964
 1467POPC   C4B21334   6.481  12.224   7.664
 1468POPC   NC321335  11.343  40.039   9.464
 1468POPC   PO421336  11.319  40.007   9.164
 1468POPC   GL121337  11.279  39.990   8.864
 1468POPC   GL221338  11.428  40.039   8.864
 1468POPC   C1A21339  11.252  40.041   8.564
 1468POPC   D2A21340  11.327  40.044   8.264
 1468POPC   C3A21341  11.302  39.990   7.964
 1468POPC   C4A21342  11.293  40.036   7.664
 1468POPC   C1B21343  11.470  40.125   8.564
 1468POPC   C2B21344  11.474  40.185   8.264
 1468POPC   C3B21345  11.485  40.162   7.964
 1468POPC   C4B21346  11.527  40.181   7.664
 1469POPC   NC321347  35.373   9.745   9.464
 1469POPC   PO421348  35.353   9.714   9.164
 1469POPC   GL121349  35.308   9.758   8.864
 1469POPC   GL221350  35.337   9.639   8.864
 1469POPC   C1A21351  35.325   9.700   8.564
 1469POPC   D2A21352  35.335   9.728   8.264
 1469POPC   C3A21353  35.334   9.756   7.964
 1469POPC   C4A21354  35.391   9.706   7.664
 1469POPC   C1B21355  35.351   9.500   8.564
 1469POPC   C2B21356  35.410   9.516   8.264
 1469POPC   C3B21357  35.425   9.512   7.964
 1469POPC   C4B21358  35.379   9.514   7.664
 1470POPC   NC321359  25.269  11.333   9.464
 1470POPC   PO421360  25.264  11.280   9.164
 1470POPC   GL121361  25.261  11.295   8.864
 1470POPC   GL221362  25.426  11.287   8.864
 1470POPC   C1A21363  25.314  11.330   8.564
 1470POPC   D2A21364  25.250  11.328   8.264
 1470POPC   C3A21365  25.262  11.250   7.964
 1470POPC   C4A21366  25.270  11.347   7.664
 1470POPC   C1B21367  25.558  11.309   8.564
 1470POPC   C2B21368  25.503  11.269   8.264
 1470POPC   C3B21369  25.554  11.298   7.964
 1470POPC   C4B21370  25.488  11.250   7.664
 1471POPC   NC321371  24.455  30.661   9.464
 1471POPC   PO421372  24.443  30.666   9.164
 1471POPC   GL121373  24.536  30.671   8.864
 1471POPC   GL221374  24.649  30.786   8.864
 1471POPC   C1A21375  24.492  30.683   8.564
 1471POPC   D2A21376  24.491  30.716   8.264
 1471POPC   C3A21377  24.470  30.729   7.964
 1471POPC   C4A21378  24.522  30.733   7.664
 1471POPC   C1B21379  24.676  30.803   8.564
 1471POPC   C2B21380  24.679  30.829   8.264
 1471POPC   C3B21381  24.731  30.828   7.964
 1471POPC   C4B21382  24.724  30.736   7.664
 1472POPC   NC321383   2.798  26.051   9.464
 1472POPC   PO421384   2.750  26.075   9.164
 1472POPC   GL121385   2.812  26.059   8.864
 1472POPC   GL221386   2.857  25.917   8.864
 1472POPC   C1A21387   2.807  26.055   8.564
 1472POPC   D2A21388   2.725  26.071   8.264
 1472POPC   C3A21389   2.724  26.032   7.964
 1472POPC   C4A21390   2.769  26.007   7.664
 1472POPC   C1B21391   2.896  25.805   8.564
 1472POPC   C2B21392   2.889  25.891   8.264
 1472POPC   C3B21393   2.933  25.803   7.964
 1472POPC   C4B21394   2.878  25.852   7.664
 1473POPC   NC321395  15.982  10.567   9.464
 1473POPC   PO421396  15.938  10.574   9.164
 1473POPC   GL121397  15.914  10.509   8.864
 1473POPC   GL221398  15.805  10.451   8.864
 1473POPC   C1A21399  15.945  10.543   8.564
 1473POPC   D2A21400  15.920  10.527   8.264
 1473POPC   C3A21401  15.936  10.480   7.964
 1473POPC   C4A21402  15.957  10.564   7.664
 1473POPC   C1B21403  15.757  10.515   8.564
 1473POPC   C2B21404  15.726  10.499   8.264
 1473POPC   C3B21405  15.750  10.445   7.964
 1473POPC   C4B21406  15.730  10.426   7.664
 1474POPC   NC321407  18.297  19.099   9.464
 1474POPC   PO421408  18.279  19.088   9.164
 1474POPC   GL121409  18.302  19.028   8.864
 1474POPC   GL221410  18.146  19.134   8.864
 1474POPC   C1A21411  18.243  19.108   8.564
 1474POPC   D2A21412  18.268  19.079   8.264
 1474POPC   C3A21413  18.243  19.049   7.964
 1474POPC   C4A21414  18.330  19.090   7.664
 1474POPC   C1B21415  18.052  19.263   8.564
 1474POPC   C2B21416  18.037  19.258   8.264
 1474POPC   C3B21417  18.041  19.242   7.964
 1474POPC   C4B21418  18.093  19.215   7.664
 1475POPC   NC321419  39.233  24.531   9.464
 1475POPC   PO421420  39.190  24.535   9.164
 1475POPC   GL121421  39.202  24.486   8.864
 1475POPC   GL221422  39.241  24.657   8.864
 1475POPC   C1A21423  39.277  24.487   8.564
 1475POPC   D2A21424  39.232  24.498   8.264
 1475POPC   C3A21425  39.184  24.454   7.964
 1475POPC   C4A21426  39.258  24.534   7.664
 1475POPC   C1B21427  39.270  24.710   8.564
 1475POPC   C2B21428  39.277  24.780   8.264
 1475POPC   C3B21429  39.228  24.781   7.964
 1475POPC   C4B21430  39.273  24.758   7.664
 1476POPC   NC321431  29.956  35.320   9.464
 1476POPC   PO421432  29.880  35.362   9.164
 1476POPC   GL121433  29.926  35.394   8.864
 1476POPC   GL221434  29.858  35.186   8.864
 1476POPC   C1A21435  29.941  35.340   8.564
 1476POPC   D2A21436  29.880  35.385   8.264
 1476POPC   C3A21437  29.913  35.391   7.964
 1476POPC   C4A21438  29.891  35.393   7.664
 1476POPC   C1B21439  29.898  35.091   8.564
 1476POPC   C2B21440  29.880  35.067   8.264
 1476POPC   C3B21441  29.846  35.088   7.964
 1476POPC   C4B21442  29.861  35.122   7.664
 1477POPC   NC321443  26.078  16.699   9.464
 1477POPC   PO421444  26.071  16.726   9.164
 1477POPC   GL121445  26.085  16.733   8.864
 1477POPC   GL221446  25.978  16.624   8.864
 1477POPC   C1A21447  25.992  16.770   8.564
 1477POPC   D2A21448  26.018  16.698   8.264
 1477POPC   C3A21449  26.007  16.710   7.964
 1477POPC   C4A21450  26.026  16.687   7.664
 1477POPC   C1B21451  25.908  16.563   8.564
 1477POPC   C2B21452  25.895  16.510   8.264
 1477POPC   C3B21453  25.873  16.564   7.964
 1477POPC   C4B21454  25.857  16.569   7.664
 1478POPC   NC321455  43.113  16.760   9.464
 1478POPC   PO421456  43.081  16.756   9.164
 1478POPC   GL121457  43.091  16.777   8.864
 1478POPC   GL221458  43.218  16.784   8.864
 1478POPC   C1A21459  43.142  16.739   8.564
 1478POPC   D2A21460  43.124  16.701   8.264
 1478POPC   C3A21461  43.064  16.778   7.964
 1478POPC   C4A21462  43.138  16.703   7.664
 1478POPC   C1B21463  43.352  16.864   8.564
 1478POPC   C2B21464  43.281  16.848   8.264
 1478POPC   C3B21465  43.333  16.897   7.964
 1478POPC   C4B21466  43.369  16.850   7.664
 1479POPC   NC321467  42.325  26.037   9.464
 1479POPC   PO421468  42.304  26.066   9.164
 1479POPC   GL121469  42.375  26.048   8.864
 1479POPC   GL221470  42.409  26.128   8.864
 1479POPC   C1A21471  42.367  26.045   8.564
 1479POPC   D2A21472  42.381  26.072   8.264
 1479POPC   C3A21473  42.384  26.064   7.964
 1479POPC   C4A21474  42.298  26.001   7.664
 1479POPC   C1B21475  42.384  26.261   8.564
 1479POPC   C2B21476  42.443  26.301   8.264
 1479POPC   C3B21477  42.458  26.327   7.964
 1479POPC   C4B21478  42.384  26.310   7.664
 1480POPC   NC321479   0.448  32.211   9.464
 1480POPC   PO421480   0.408  32.210   9.164
 1480POPC   GL121481   0.454  32.244   8.864
 1480POPC   GL221482   0.449  32.165   8.864
 1480POPC   C1A21483   0.463  32.257   8.564
 1480POPC   D2A21484   0.457  32.281   8.264
 1480POPC   C3A21485   0.422  32.206   7.964
 1480POPC   C4A21486   0.473  32.268   7.664
 1480POPC   C1B21487   0.460  32.025   8.564
 1480POPC   C2B21488   0.546  32.054   8.264
 1480POPC   C3B21489   0.525  31.982   7.964
 1480POPC   C4B21490   0.528  31.996   7.664
 1481POPC   NC321491  14.381   8.230   9.464
 1481POPC   PO421492  14.443   8.188   9.164
 1481POPC   GL121493  14.386   8.188   8.864
 1481POPC   GL221494  14.312   8.074   8.864
 1481POPC   C1A21495  14.359   8.217   8.564
 1481POPC   D2A21496  14.373   8.218   8.264
 1481POPC   C3A21497  14.384   8.203   7.964
 1481POPC   C4A21498  14.423   8.239   7.664
 1481POPC   C1B21499  14.219   7.977   8.564
 1481POPC   C2B21500  14.218   8.038   8.264
 1481POPC   C3B21501  14.255   7.996   7.964
 1481POPC   C4B21502  14.280   8.018   7.664
 1482POPC   NC321503   7.459   8.929   9.464
 1482POPC   PO421504   7.383   8.942   9.164
 1482POPC   GL121505   7.396   8.983   8.864
 1482POPC   GL221506   7.488   9.030   8.864
 1482POPC   C1A21507   7.407   8.985   8.564
 1482POPC   D2A21508   7.411   8.962   8.264
 1482POPC   C3A21509   7.377   8.923   7.964
 1482POPC   C4A21510   7.381   8.936   7.664
 1482POPC   C1B21511   7.600   9.110   8.564
 1482POPC   C2B21512   7.615   9.132   8.264
 1482POPC   C3B21513   7.540   9.193   7.964
 1482POPC   C4B21514   7.614   9.148   7.664
 1483POPC   NC321515  39.989  40.014   9.464
 1483POPC   PO421516  40.048  39.959   9.164
 1483POPC   GL121517  40.047  40.020   8.864
 1483POPC   GL221518  40.085  40.077   8.864
 1483POPC   C1A21519  39.959  39.977   8.564
 1483POPC   D2A21520  39.990  40.008   8.264
 1483POPC   C3A21521  39.984  40.029   7.964
 1483POPC   C4A21522  39.997  40.030   7.664
 1483POPC   C1B21523  40.074  40.289   8.564
 1483POPC   C2B21524  40.096  40.201   8.264
 1483POPC   C3B21525  40.138  40.195   7.964
 1483POPC   C4B21526  40.044  40.266   7.664
 1484POPC   NC321527   1.991  24.527   9.464
 1484POPC   PO421528   1.959  24.488   9.164
 1484POPC   GL121529   2.018  24.458   8.864
 1484POPC   GL221530   1.886  24.534   8.864
 1484POPC   C1A21531   2.024  24.465   8.564
 1484POPC   D2A21532   2.000  24.469   8.264
 1484POPC   C3A21533   1.969  24.480   7.964
 1484POPC   C4A21534   1.990  24.467   7.664
 1484POPC   C1B21535   1.826  24.707   8.564
 1484POPC   C2B21536   1.797  24.683   8.264
 1484POPC   C3B21537   1.832  24.644   7.964
 1484POPC   C4B21538   1.865  24.723   7.664
 1485POPC   NC321539  43.153  27.565   9.464
 1485POPC   PO421540  43.083  27.604   9.164
 1485POPC   GL121541  43.129  27.574   8.864
 1485POPC   GL221542  43.139  27.532   8.864
 1485POPC   C1A21543  43.150  27.605   8.564
 1485POPC   D2A21544  43.076  27.546   8.264
 1485POPC   C3A21545  43.107  27.583   7.964
 1485POPC   C4A21546  43.151  27.642   7.664
 1485POPC   C1B21547  43.246  27.381   8.564
 1485POPC   C2B21548  43.206  27.344   8.264
 1485POPC   C3B21549  43.231  27.419   7.964
 1485POPC   C4B21550  43.252  27.372   7.664
 1486POPC   NC321551   5.835  42.368   9.464
 1486POPC   PO421552   5.877  42.383   9.164
 1486POPC   GL121553   5.835  42.327   8.864
 1486POPC   GL221554   5.943  42.329   8.864
 1486POPC   C1A21555   5.851  42.356   8.564
 1486POPC   D2A21556   5.874  42.293   8.264
 1486POPC   C3A21557   5.886  42.312   7.964
 1486POPC   C4A21558   5.871  42.377   7.664
 1486POPC   C1B21559   6.148  42.261   8.564
 1486POPC   C2B21560   6.088  42.236   8.264
 1486POPC   C3B21561   6.091  42.256   7.964
 1486POPC   C4B21562   6.107  42.274   7.664
 1487POPC   NC321563   2.754  11.284   9.464
 1487POPC   PO421564   2.741  11.283   9.164
 1487POPC   GL121565   2.743  11.324   8.864
 1487POPC   GL221566   2.785  11.218   8.864
 1487POPC   C1A21567   2.759  11.259   8.564
 1487POPC   D2A21568   2.811  11.344   8.264
 1487POPC   C3A21569   2.755  11.341   7.964
 1487POPC   C4A21570   2.739  11.341   7.664
 1487POPC   C1B21571   2.782  11.013   8.564
 1487POPC   C2B21572   2.832  11.010   8.264
 1487POPC   C3B21573   2.826  11.090   7.964
 1487POPC   C4B21574   2.813  11.033   7.664
 1488POPC   NC321575  18.303  11.313   9.464
 1488POPC   PO421576  18.285  11.283   9.164
 1488POPC   GL121577  18.234  11.345   8.864
 1488POPC   GL221578  18.233  11.156   8.864
 1488POPC   C1A21579  18.243  11.326   8.564
 1488POPC   D2A21580  18.247  11.333   8.264
 1488POPC   C3A21581  18.306  11.313   7.964
 1488POPC   C4A21582  18.273  11.293   7.664
 1488POPC   C1B21583  18.228  11.076   8.564
 1488POPC   C2B21584  18.221  11.033   8.264
 1488POPC   C3B21585  18.222  11.082   7.964
 1488POPC   C4B21586  18.207  11.047   7.664
 1489POPC   NC321587  38.451  43.932   9.464
 1489POPC   PO421588  38.505  43.914   9.164
 1489POPC   GL121589  38.496  43.888   8.864
 1489POPC   GL221590  38.405  43.751   8.864
 1489POPC   C1A21591  38.433  43.911   8.564
 1489POPC   D2A21592  38.470  43.907   8.264
 1489POPC   C3A21593  38.409  43.934   7.964
 1489POPC   C4A21594  38.488  43.902   7.664
 1489POPC   C1B21595  38.324  43.669   8.564
 1489POPC   C2B21596  38.261  43.727   8.264
 1489POPC   C3B21597  38.284  43.735   7.964
 1489POPC   C4B21598  38.307  43.725   7.664
 1490POPC   NC321599  20.576   0.447   9.464
 1490POPC   PO421600  20.622   0.484   9.164
 1490POPC   GL121601  20.607   0.485   8.864
 1490POPC   GL221602  20.511   0.496   8.864
 1490POPC   C1A21603  20.604   0.436   8.564
 1490POPC   D2A21604  20.644   0.412   8.264
 1490POPC   C3A21605  20.606   0.446   7.964
 1490POPC   C4A21606  20.597   0.422   7.664
 1490POPC   C1B21607  20.370   0.478   8.564
 1490POPC   C2B21608  20.333   0.513   8.264
 1490POPC   C3B21609  20.337   0.466   7.964
 1490POPC   C4B21610  20.391   0.475   7.664
 1491POPC   NC321611  19.823  13.630   9.464
 1491POPC   PO421612  19.828  13.589   9.164
 1491POPC   GL121613  19.845  13.677   8.864
 1491POPC   GL221614  19.908  13.651   8.864
 1491POPC   C1A21615  19.873  13.651   8.564
 1491POPC   D2A21616  19.823  13.602   8.264
 1491POPC   C3A21617  19.872  13.645   7.964
 1491POPC   C4A21618  19.853  13.580   7.664
 1491POPC   C1B21619  19.994  13.729   8.564
 1491POPC   C2B21620  19.995  13.756   8.264
 1491POPC   C3B21621  20.026  13.783   7.964
 1491POPC   C4B21622  19.997  13.759   7.664
 1492POPC   NC321623  39.983  41.516   9.464
 1492POPC   PO421624  39.962  41.589   9.164
 1492POPC   GL121625  39.982  41.586   8.864
 1492POPC   GL221626  40.129  41.633   8.864
 1492POPC   C1A21627  40.001  41.564   8.564
 1492POPC   D2A21628  40.045  41.579   8.264
 1492POPC   C3A21629  39.996  41.576   7.964
 1492POPC   C4A21630  39.975  41.584   7.664
 1492POPC   C1B21631  40.245  41.713   8.564
 1492POPC   C2B21632  40.209  41.640   8.264
 1492POPC   C3B21633  40.176  41.646   7.964
 1492POPC   C4B21634  40.212  41.690   7.664
 1493POPC   NC321635  33.066  22.118   9.464
 1493POPC   PO421636  33.071  22.181   9.164
 1493POPC   GL121637  33.064  22.180   8.864
 1493POPC   GL221638  33.125  22.270   8.864
 1493POPC   C1A21639  33.024  22.170   8.564
 1493POPC   D2A21640  33.070  22.165   8.264
 1493POPC   C3A21641  32.997  22.203   7.964
 1493POPC   C4A21642  33.003  22.161   7.664
 1493POPC   C1B21643  33.196  22.282   8.564
 1493POPC   C2B21644  33.207  22.300   8.264
 1493POPC   C3B21645  33.210  22.341   7.964
 1493POPC   C4B21646  33.196  22.333   7.664
 1494POPC   NC321647  42.334  27.559   9.464
 1494POPC   PO421648  42.320  27.567   9.164
 1494POPC   GL121649  42.333  27.544   8.864
 1494POPC   GL221650  42.270  27.421   8.864
 1494POPC   C1A21651  42.378  27.544   8.564
 1494POPC   D2A21652  42.305  27.549   8.264
 1494POPC   C3A21653  42.336  27.567   7.964
 1494POPC   C4A21654  42.292  27.638   7.664
 1494POPC   C1B21655  42.288  27.374   8.564
 1494POPC   C2B21656  42.261  27.342   8.264
 1494POPC   C3B21657  42.285  27.397   7.964
 1494POPC   C4B21658  42.336  27.372   7.664
 1495POPC   NC321659  12.851  12.864   9.464
 1495POPC   PO421660  12.851  12.842   9.164
 1495POPC   GL121661  12.889  12.890   8.864
 1495POPC   GL221662  12.812  12.905   8.864
 1495POPC   C1A21663  12.817  12.889   8.564
 1495POPC   D2A21664  12.819  12.836   8.264
 1495POPC   C3A21665  12.845  12.887   7.964
 1495POPC   C4A21666  12.842  12.831   7.664
 1495POPC   C1B21667  12.685  13.031   8.564
 1495POPC   C2B21668  12.672  13.097   8.264
 1495POPC   C3B21669  12.702  13.073   7.964
 1495POPC   C4B21670  12.753  13.085   7.664
 1496POPC   NC321671   1.197  30.695   9.464
 1496POPC   PO421672   1.172  30.745   9.164
 1496POPC   GL121673   1.210  30.667   8.864
 1496POPC   GL221674   1.303  30.703   8.864
 1496POPC   C1A21675   1.240  30.672   8.564
 1496POPC   D2A21676   1.263  30.663   8.264
 1496POPC   C3A21677   1.236  30.654   7.964
 1496POPC   C4A21678   1.189  30.742   7.664
 1496POPC   C1B21679   1.423  30.660   8.564
 1496POPC   C2B21680   1.419  30.713   8.264
 1496POPC   C3B21681   1.448  30.712   7.964
 1496POPC   C4B21682   1.499  30.666   7.664
 1497POPC   NC321683  19.810  33.033   9.464
 1497POPC   PO421684  19.792  33.059   9.164
 1497POPC   GL121685  19.863  33.058   8.864
 1497POPC   GL221686  19.825  32.894   8.864
 1497POPC   C1A21687  19.857  33.019   8.564
 1497POPC   D2A21688  19.815  32.990   8.264
 1497POPC   C3A21689  19.872  33.037   7.964
 1497POPC   C4A21690  19.793  33.018   7.664
 1497POPC   C1B21691  19.891  32.811   8.564
 1497POPC   C2B21692  19.846  32.782   8.264
 1497POPC   C3B21693  19.853  32.787   7.964
 1497POPC   C4B21694  19.823  32.728   7.664
 1498POPC   NC321695  27.603   5.086   9.464
 1498POPC   PO421696  27.624   5.049   9.164
 1498POPC   GL121697  27.594   5.119   8.864
 1498POPC   GL221698  27.492   5.111   8.864
 1498POPC   C1A21699  27.557   5.075   8.564
 1498POPC   D2A21700  27.597   5.093   8.264
 1498POPC   C3A21701  27.553   5.044   7.964
 1498POPC   C4A21702  27.551   5.086   7.664
 1498POPC   C1B21703  27.376   5.154   8.564
 1498POPC   C2B21704  27.365   5.138   8.264
 1498POPC   C3B21705  27.364   5.144   7.964
 1498POPC   C4B21706  27.338   5.158   7.664
 1499POPC   NC321707  11.316   5.049   9.464
 1499POPC   PO421708  11.259   5.120   9.164
 1499POPC   GL121709  11.259   5.101   8.864
 1499POPC   GL221710  11.284   5.003   8.864
 1499POPC   C1A21711  11.283   5.136   8.564
 1499POPC   D2A21712  11.342   5.094   8.264
 1499POPC   C3A21713  11.329   5.109   7.964
 1499POPC   C4A21714  11.339   5.115   7.664
 1499POPC   C1B21715  11.225   4.841   8.564
 1499POPC   C2B21716  11.225   4.884   8.264
 1499POPC   C3B21717  11.195   4.838   7.964
 1499POPC   C4B21718  11.141   4.876   7.664
 1500POPC   NC321719   1.241  39.225   9.464
 1500POPC   PO421720   1.217  39.210   9.164
 1500POPC   GL121721   1.214  39.186   8.864
 1500POPC   GL221722   1.089  39.216   8.864
 1500POPC   C1A21723   1.243  39.250   8.564
 1500POPC   D2A21724   1.175  39.270   8.264
 1500POPC   C3A21725   1.213  39.195   7.964
 1500POPC   C4A21726   1.194  39.190   7.664
 1500POPC   C1B21727   1.017  39.163   8.564
 1500POPC   C2B21728   1.032  39.103   8.264
 1500POPC   C3B21729   1.004  39.163   7.964
 1500POPC   C4B21730   0.964  39.150   7.664
 1501POPC   NC321731  34.617   8.966   9.464
 1501POPC   PO421732  34.600   8.959   9.164
 1501POPC   GL121733  34.552   9.004   8.864
 1501POPC   GL221734  34.703   8.892   8.864
 1501POPC   C1A21735  34.531   9.008   8.564
 1501POPC   D2A21736  34.569   8.969   8.264
 1501POPC   C3A21737  34.531   8.973   7.964
 1501POPC   C4A21738  34.604   8.937   7.664
 1501POPC   C1B21739  34.779   8.929   8.564
 1501POPC   C2B21740  34.840   8.865   8.264
 1501POPC   C3B21741  34.794   8.883   7.964
 1501POPC   C4B21742  34.796   8.912   7.664
 1502POPC   NC321743  28.340  36.909   9.464
 1502POPC   PO421744  28.390  36.892   9.164
 1502POPC   GL121745  28.408  36.923   8.864
 1502POPC   GL221746  28.348  36.802   8.864
 1502POPC   C1A21747  28.406  36.951   8.564
 1502POPC   D2A21748  28.387  36.902   8.264
 1502POPC   C3A21749  28.414  36.912   7.964
 1502POPC   C4A21750  28.339  36.882   7.664
 1502POPC   C1B21751  28.285  36.691   8.564
 1502POPC   C2B21752  28.346  36.689   8.264
 1502POPC   C3B21753  28.297  36.687   7.964
 1502POPC   C4B21754  28.279  36.661   7.664
 1503POPC   NC321755  31.513  18.319   9.464
 1503POPC   PO421756  31.484  18.267   9.164
 1503POPC   GL121757  31.514  18.280   8.864
 1503POPC   GL221758  31.519  18.371   8.864
 1503POPC   C1A21759  31.466  18.241   8.564
 1503POPC   D2A21760  31.477  18.266   8.264
 1503POPC   C3A21761  31.476  18.293   7.964
 1503POPC   C4A21762  31.520  18.269   7.664
 1503POPC   C1B21763  31.487  18.496   8.564
 1503POPC   C2B21764  31.475  18.528   8.264
 1503POPC   C3B21765  31.514  18.557   7.964
 1503POPC   C4B21766  31.474  18.549   7.664
 1504POPC   NC321767  36.902  32.251   9.464
 1504POPC   PO421768  36.917  32.285   9.164
 1504POPC   GL121769  36.940  32.287   8.864
 1504POPC   GL221770  37.042  32.214   8.864
 1504POPC   C1A21771  36.883  32.288   8.564
 1504POPC   D2A21772  36.863  32.241   8.264
 1504POPC   C3A21773  36.908  32.267   7.964
 1504POPC   C4A21774  36.906  32.206   7.664
 1504POPC   C1B21775  37.124  32.076   8.564
 1504POPC   C2B21776  37.156  32.141   8.264
 1504POPC   C3B21777  37.105  32.106   7.964
 1504POPC   C4B21778  37.134  32.158   7.664
 1505POPC   NC321779   4.354  13.667   9.464
 1505POPC   PO421780   4.273  13.649   9.164
 1505POPC   GL121781   4.320  13.647   8.864
 1505POPC   GL221782   4.472  13.551   8.864
 1505POPC   C1A21783   4.360  13.619   8.564
 1505POPC   D2A21784   4.308  13.625   8.264
 1505POPC   C3A21785   4.272  13.592   7.964
 1505POPC   C4A21786   4.320  13.583   7.664
 1505POPC   C1B21787   4.556  13.588   8.564
 1505POPC   C2B21788   4.526  13.573   8.264
 1505POPC   C3B21789   4.537  13.567   7.964
 1505POPC   C4B21790   4.556  13.618   7.664
 1506POPC   NC321791   2.004   7.420   9.464
 1506POPC   PO421792   1.983   7.393   9.164
 1506POPC   GL121793   1.986   7.419   8.864
 1506POPC   GL221794   2.056   7.261   8.864
 1506POPC   C1A21795   1.959   7.402   8.564
 1506POPC   D2A21796   2.020   7.405   8.264
 1506POPC   C3A21797   2.022   7.417   7.964
 1506POPC   C4A21798   1.963   7.445   7.664
 1506POPC   C1B21799   2.083   7.233   8.564
 1506POPC   C2B21800   2.124   7.215   8.264
 1506POPC   C3B21801   2.106   7.186   7.964
 1506POPC   C4B21802   2.113   7.232   7.664
 1507POPC   NC321803  24.454  12.105   9.464
 1507POPC   PO421804  24.500  12.054   9.164
 1507POPC   GL121805  24.470  12.077   8.864
 1507POPC   GL221806  24.388  12.120   8.864
 1507POPC   C1A21807  24.496  12.069   8.564
 1507POPC   D2A21808  24.519  12.063   8.264
 1507POPC   C3A21809  24.539  12.047   7.964
 1507POPC   C4A21810  24.476  12.109   7.664
 1507POPC   C1B21811  24.235  12.056   8.564
 1507POPC   C2B21812  24.280  12.107   8.264
 1507POPC   C3B21813  24.283  12.105   7.964
 1507POPC   C4B21814  24.267  12.022   7.664
 1508POPC   NC321815  34.562   5.832   9.464
 1508POPC   PO421816  34.559   5.880   9.164
 1508POPC   GL121817  34.616   5.836   8.864
 1508POPC   GL221818  34.461   5.906   8.864
 1508POPC   C1A21819  34.526   5.899   8.564
 1508POPC   D2A21820  34.569   5.899   8.264
 1508POPC   C3A21821  34.617   5.916   7.964
 1508POPC   C4A21822  34.559   5.890   7.664
 1508POPC   C1B21823  34.293   5.815   8.564
 1508POPC   C2B21824  34.296   5.865   8.264
 1508POPC   C3B21825  34.281   5.894   7.964
 1508POPC   C4B21826  34.291   5.824   7.664
 1509POPC   NC321827   1.964   5.067   9.464
 1509POPC   PO421828   1.947   5.078   9.164
 1509POPC   GL121829   1.962   5.121   8.864
 1509POPC   GL221830   2.080   5.043   8.864
 1509POPC   C1A21831   1.969   5.043   8.564
 1509POPC   D2A21832   2.003   5.085   8.264
 1509POPC   C3A21833   1.975   5.090   7.964
 1509POPC   C4A21834   2.023   5.110   7.664
 1509POPC   C1B21835   2.193   4.886   8.564
 1509POPC   C2B21836   2.178   4.945   8.264
 1509POPC   C3B21837   2.101   4.919   7.964
 1509POPC   C4B21838   2.098   4.856   7.664
 1510POPC   NC321839  16.702  40.776   9.464
 1510POPC   PO421840  16.698  40.799   9.164
 1510POPC   GL121841  16.766  40.802   8.864
 1510POPC   GL221842  16.660  40.800   8.864
 1510POPC   C1A21843  16.745  40.767   8.564
 1510POPC   D2A21844  16.738  40.749   8.264
 1510POPC   C3A21845  16.709  40.738   7.964
 1510POPC   C4A21846  16.685  40.813   7.664
 1510POPC   C1B21847  16.511  40.818   8.564
 1510POPC   C2B21848  16.537  40.890   8.264
 1510POPC   C3B21849  16.503  40.866   7.964
 1510POPC   C4B21850  16.503  40.864   7.664
 1511POPC   NC321851   2.733  42.367   9.464
 1511POPC   PO421852   2.750  42.353   9.164
 1511POPC   GL121853   2.796  42.328   8.864
 1511POPC   GL221854   2.834  42.379   8.864
 1511POPC   C1A21855   2.752  42.302   8.564
 1511POPC   D2A21856   2.805  42.301   8.264
 1511POPC   C3A21857   2.764  42.290   7.964
 1511POPC   C4A21858   2.747  42.356   7.664
 1511POPC   C1B21859   2.907  42.515   8.564
 1511POPC   C2B21860   2.915  42.521   8.264
 1511POPC   C3B21861   2.991  42.503   7.964
 1511POPC   C4B21862   2.968  42.463   7.664
 1512POPC   NC321863  28.348  23.716   9.464
 1512POPC   PO421864  28.343  23.715   9.164
 1512POPC   GL121865  28.379  23.749   8.864
 1512POPC   GL221866  28.304  23.605   8.864
 1512POPC   C1A21867  28.359  23.710   8.564
 1512POPC   D2A21868  28.385  23.731   8.264
 1512POPC   C3A21869  28.322  23.744   7.964
 1512POPC   C4A21870  28.333  23.757   7.664
 1512POPC   C1B21871  28.212  23.534   8.564
 1512POPC   C2B21872  28.176  23.567   8.264
 1512POPC   C3B21873  28.253  23.511   7.964
 1512POPC   C4B21874  28.193  23.503   7.664
 1513POPC   NC321875   8.200  38.478   9.464
 1513POPC   PO421876   8.188  38.477   9.164
 1513POPC   GL121877   8.211  38.437   8.864
 1513POPC   GL221878   8.286  38.385   8.864
 1513POPC   C1A21879   8.208  38.408   8.564
 1513POPC   D2A21880   8.150  38.445   8.264
 1513POPC   C3A21881   8.203  38.433   7.964
 1513POPC   C4A21882   8.237  38.483   7.664
 1513POPC   C1B21883   8.269  38.203   8.564
 1513POPC   C2B21884   8.272  38.206   8.264
 1513POPC   C3B21885   8.284  38.204   7.964
 1513POPC   C4B21886   8.233  38.259   7.664
 1514POPC   NC321887  37.632  21.341   9.464
 1514POPC   PO421888  37.722  21.340   9.164
 1514POPC   GL121889  37.644  21.427   8.864
 1514POPC   GL221890  37.753  21.368   8.864
 1514POPC   C1A21891  37.638  21.406   8.564
 1514POPC   D2A21892  37.671  21.343   8.264
 1514POPC   C3A21893  37.630  21.422   7.964
 1514POPC   C4A21894  37.697  21.385   7.664
 1514POPC   C1B21895  37.897  21.287   8.564
 1514POPC   C2B21896  37.886  21.302   8.264
 1514POPC   C3B21897  37.919  21.251   7.964
 1514POPC   C4B21898  37.885  21.251   7.664
 1515POPC   NC321899  43.909  31.504   9.464
 1515POPC   PO421900  43.931  31.512   9.164
 1515POPC   GL121901  43.916  31.440   8.864
 1515POPC   GL221902  43.776  31.611   8.864
 1515POPC   C1A21903  43.846  31.509   8.564
 1515POPC   D2A21904  43.927  31.448   8.264
 1515POPC   C3A21905  43.886  31.472   7.964
 1515POPC   C4A21906  43.903  31.486   7.664
 1515POPC   C1B21907  43.782  31.697   8.564
 1515POPC   C2B21908  43.774  31.632   8.264
 1515POPC   C3B21909  43.724  31.635   7.964
 1515POPC   C4B21910  43.735  31.692   7.664
 1516POPC   NC321911  33.779  30.723   9.464
 1516POPC   PO421912  33.766  30.726   9.164
 1516POPC   GL121913  33.792  30.716   8.864
 1516POPC   GL221914  33.750  30.788   8.864
 1516POPC   C1A21915  33.800  30.660   8.564
 1516POPC   D2A21916  33.757  30.690   8.264
 1516POPC   C3A21917  33.807  30.693   7.964
 1516POPC   C4A21918  33.826  30.714   7.664
 1516POPC   C1B21919  33.692  30.902   8.564
 1516POPC   C2B21920  33.687  30.902   8.264
 1516POPC   C3B21921  33.631  30.924   7.964
 1516POPC   C4B21922  33.673  30.871   7.664
 1517POPC   NC321923  26.034   8.155   9.464
 1517POPC   PO421924  26.016   8.177   9.164
 1517POPC   GL121925  26.009   8.233   8.864
 1517POPC   GL221926  25.890   8.176   8.864
 1517POPC   C1A21927  26.056   8.155   8.564
 1517POPC   D2A21928  26.027   8.199   8.264
 1517POPC   C3A21929  26.038   8.237   7.964
 1517POPC   C4A21930  26.070   8.199   7.664
 1517POPC   C1B21931  25.779   8.118   8.564
 1517POPC   C2B21932  25.814   8.144   8.264
 1517POPC   C3B21933  25.758   8.171   7.964
 1517POPC   C4B21934  25.769   8.135   7.664
 1518POPC   NC321935  12.846  22.175   9.464
 1518POPC   PO421936  12.808  22.204   9.164
 1518POPC   GL121937  12.804  22.121   8.864
 1518POPC   GL221938  12.870  22.279   8.864
 1518POPC   C1A21939  12.898  22.191   8.564
 1518POPC   D2A21940  12.881  22.196   8.264
 1518POPC   C3A21941  12.884  22.197   7.964
 1518POPC   C4A21942  12.810  22.159   7.664
 1518POPC   C1B21943  12.850  22.431   8.564
 1518POPC   C2B21944  12.946  22.456   8.264
 1518POPC   C3B21945  12.911  22.366   7.964
 1518POPC   C4B21946  12.879  22.395   7.664
 1519POPC   NC321947  36.079  36.157   9.464
 1519POPC   PO421948  36.109  36.146   9.164
 1519POPC   GL121949  36.153  36.090   8.864
 1519POPC   GL221950  36.278  36.122   8.864
 1519POPC   C1A21951  36.090  36.132   8.564
 1519POPC   D2A21952  36.138  36.163   8.264
 1519POPC   C3A21953  36.159  36.137   7.964
 1519POPC   C4A21954  36.138  36.170   7.664
 1519POPC   C1B21955  36.389  36.044   8.564
 1519POPC   C2B21956  36.416  36.101   8.264
 1519POPC   C3B21957  36.378  36.060   7.964
 1519POPC   C4B21958  36.338  36.057   7.664
 1520POPC   NC321959  22.188  40.808   9.464
 1520POPC   PO421960  22.126  40.827   9.164
 1520POPC   GL121961  22.204  40.798   8.864
 1520POPC   GL221962  22.053  40.769   8.864
 1520POPC   C1A21963  22.180  40.746   8.564
 1520POPC   D2A21964  22.208  40.736   8.264
 1520POPC   C3A21965  22.182  40.797   7.964
 1520POPC   C4A21966  22.174  40.820   7.664
 1520POPC   C1B21967  21.965  40.778   8.564
 1520POPC   C2B21968  21.960  40.756   8.264
 1520POPC   C3B21969  21.927  40.769   7.964
 1520POPC   C4B21970  21.940  40.721   7.664
 1521POPC   NC321971  40.803   1.175   9.464
 1521POPC   PO421972  40.776   1.186   9.164
 1521POPC   GL121973  40.776   1.259   8.864
 1521POPC   GL221974  40.751   1.359   8.864
 1521POPC   C1A21975  40.815   1.240   8.564
 1521POPC   D2A21976  40.733   1.196   8.264
 1521POPC   C3A21977  40.779   1.242   7.964
 1521POPC   C4A21978  40.832   1.220   7.664
 1521POPC   C1B21979  40.803   1.416   8.564
 1521POPC   C2B21980  40.815   1.446   8.264
 1521POPC   C3B21981  40.785   1.497   7.964
 1521POPC   C4B21982  40.836   1.476   7.664
 1522POPC   NC321983  36.096  21.355   9.464
 1522POPC   PO421984  36.171  21.406   9.164
 1522POPC   GL121985  36.149  21.358   8.864
 1522POPC   GL221986  36.284  21.339   8.864
 1522POPC   C1A21987  36.122  21.389   8.564
 1522POPC   D2A21988  36.099  21.394   8.264
 1522POPC   C3A21989  36.078  21.381   7.964
 1522POPC   C4A21990  36.114  21.417   7.664
 1522POPC   C1B21991  36.387  21.307   8.564
 1522POPC   C2B21992  36.326  21.339   8.264
 1522POPC   C3B21993  36.341  21.293   7.964
 1522POPC   C4B21994  36.363  21.297   7.664
 1523POPC   NC321995   5.109  14.387   9.464
 1523POPC   PO421996   5.072  14.435   9.164
 1523POPC   GL121997   5.063  14.435   8.864
 1523POPC   GL221998   5.152  14.456   8.864
 1523POPC   C1A21999   5.106  14.383   8.564
 1523POPC   D2A22000   5.111  14.397   8.264
 1523POPC   C3A22001   5.061  14.441   7.964
 1523POPC   C4A22002   5.115  14.422   7.664
 1523POPC   C1B22003   5.309  14.523   8.564
 1523POPC   C2B22004   5.240  14.529   8.264
 1523POPC   C3B22005   5.284  14.565   7.964
 1523POPC   C4B22006   5.236  14.531   7.664
 1524POPC   NC322007  34.623  43.155   9.464
 1524POPC   PO422008  34.532  43.119   9.164
 1524POPC   GL122009  34.587  43.106   8.864
 1524POPC   GL222010  34.503  43.067   8.864
 1524POPC   C1A22011  34.579  43.123   8.564
 1524POPC   D2A22012  34.535  43.109   8.264
 1524POPC   C3A22013  34.581  43.074   7.964
 1524POPC   C4A22014  34.555  43.142   7.664
 1524POPC   C1B22015  34.379  43.014   8.564
 1524POPC   C2B22016  34.392  43.034   8.264
 1524POPC   C3B22017  34.392  42.986   7.964
 1524POPC   C4B22018  34.307  43.003   7.664
 1525POPC   NC322019  32.253  25.216   9.464
 1525POPC   PO422020  32.281  25.218   9.164
 1525POPC   GL122021  32.230  25.279   8.864
 1525POPC   GL222022  32.382  25.287   8.864
 1525POPC   C1A22023  32.260  25.230   8.564
 1525POPC   D2A22024  32.270  25.292   8.264
 1525POPC   C3A22025  32.246  25.268   7.964
 1525POPC   C4A22026  32.255  25.217   7.664
 1525POPC   C1B22027  32.482  25.247   8.564
 1525POPC   C2B22028  32.503  25.239   8.264
 1525POPC   C3B22029  32.507  25.275   7.964
 1525POPC   C4B22030  32.484  25.292   7.664
 1526POPC   NC322031  29.960   4.323   9.464
 1526POPC   PO422032  29.956   4.311   9.164
 1526POPC   GL122033  29.894   4.298   8.864
 1526POPC   GL222034  29.950   4.238   8.864
 1526POPC   C1A22035  29.952   4.321   8.564
 1526POPC   D2A22036  29.902   4.305   8.264
 1526POPC   C3A22037  29.901   4.276   7.964
 1526POPC   C4A22038  29.969   4.345   7.664
 1526POPC   C1B22039  30.045   4.043   8.564
 1526POPC   C2B22040  30.038   4.088   8.264
 1526POPC   C3B22041  29.979   4.083   7.964
 1526POPC   C4B22042  30.007   4.110   7.664
 1527POPC   NC322043  28.339   9.721   9.464
 1527POPC   PO422044  28.322   9.705   9.164
 1527POPC   GL122045  28.408   9.717   8.864
 1527POPC   GL222046  28.482   9.887   8.864
 1527POPC   C1A22047  28.413   9.748   8.564
 1527POPC   D2A22048  28.411   9.722   8.264
 1527POPC   C3A22049  28.351   9.777   7.964
 1527POPC   C4A22050  28.411   9.746   7.664
 1527POPC   C1B22051  28.496   9.940   8.564
 1527POPC   C2B22052  28.520   9.919   8.264
 1527POPC   C3B22053  28.483   9.933   7.964
 1527POPC   C4B22054  28.496   9.941   7.664
 1528POPC   NC322055  28.387  14.379   9.464
 1528POPC   PO422056  28.379  14.440   9.164
 1528POPC   GL122057  28.406  14.392   8.864
 1528POPC   GL222058  28.284  14.236   8.864
 1528POPC   C1A22059  28.383  14.385   8.564
 1528POPC   D2A22060  28.361  14.403   8.264
 1528POPC   C3A22061  28.403  14.437   7.964
 1528POPC   C4A22062  28.397  14.388   7.664
 1528POPC   C1B22063  28.329  14.178   8.564
 1528POPC   C2B22064  28.321  14.202   8.264
 1528POPC   C3B22065  28.289  14.121   7.964
 1528POPC   C4B22066  28.291  14.124   7.664
 1529POPC   NC322067  33.787  33.751   9.464
 1529POPC   PO422068  33.799  33.829   9.164
 1529POPC   GL122069  33.833  33.796   8.864
 1529POPC   GL222070  33.878  33.662   8.864
 1529POPC   C1A22071  33.774  33.790   8.564
 1529POPC   D2A22072  33.770  33.767   8.264
 1529POPC   C3A22073  33.847  33.828   7.964
 1529POPC   C4A22074  33.751  33.772   7.664
 1529POPC   C1B22075  33.906  33.555   8.564
 1529POPC   C2B22076  33.922  33.567   8.264
 1529POPC   C3B22077  33.949  33.554   7.964
 1529POPC   C4B22078  33.938  33.578   7.664
 1530POPC   NC322079  18.298  36.096   9.464
 1530POPC   PO422080  18.279  36.079   9.164
 1530POPC   GL122081  18.295  36.165   8.864
 1530POPC   GL222082  18.247  36.057   8.864
 1530POPC   C1A22083  18.258  36.082   8.564
 1530POPC   D2A22084  18.254  36.129   8.264
 1530POPC   C3A22085  18.320  36.156   7.964
 1530POPC   C4A22086  18.233  36.134   7.664
 1530POPC   C1B22087  18.223  35.919   8.564
 1530POPC   C2B22088  18.179  35.918   8.264
 1530POPC   C3B22089  18.172  35.887   7.964
 1530POPC   C4B22090  18.191  35.935   7.664
 1531POPC   NC322091  26.852  29.107   9.464
 1531POPC   PO422092  26.804  29.173   9.164
 1531POPC   GL122093  26.847  29.099   8.864
 1531POPC   GL222094  26.738  29.232   8.864
 1531POPC   C1A22095  26.834  29.183   8.564
 1531POPC   D2A22096  26.799  29.181   8.264
 1531POPC   C3A22097  26.808  29.128   7.964
 1531POPC   C4A22098  26.786  29.122   7.664
 1531POPC   C1B22099  26.671  29.323   8.564
 1531POPC   C2B22100  26.661  29.314   8.264
 1531POPC   C3B22101  26.641  29.301   7.964
 1531POPC   C4B22102  26.616  29.291   7.664
 1532POPC   NC322103   5.111  19.097   9.464
 1532POPC   PO422104   5.061  19.099   9.164
 1532POPC   GL122105   5.052  19.024   8.864
 1532POPC   GL222106   5.042  19.141   8.864
 1532POPC   C1A22107   5.133  19.038   8.564
 1532POPC   D2A22108   5.128  19.107   8.264
 1532POPC   C3A22109   5.089  19.080   7.964
 1532POPC   C4A22110   5.092  19.020   7.664
 1532POPC   C1B22111   4.958  19.280   8.564
 1532POPC   C2B22112   5.006  19.264   8.264
 1532POPC   C3B22113   4.990  19.244   7.964
 1532POPC   C4B22114   4.970  19.298   7.664
 1533POPC   NC322115  27.642  12.032   9.464
 1533POPC   PO422116  27.598  12.106   9.164
 1533POPC   GL122117  27.548  12.090   8.864
 1533POPC   GL222118  27.440  12.147   8.864
 1533POPC   C1A22119  27.551  12.080   8.564
 1533POPC   D2A22120  27.632  12.088   8.264
 1533POPC   C3A22121  27.577  12.100   7.964
 1533POPC   C4A22122  27.610  12.064   7.664
 1533POPC   C1B22123  27.311  12.140   8.564
 1533POPC   C2B22124  27.316  12.079   8.264
 1533POPC   C3B22125  27.314  12.116   7.964
 1533POPC   C4B22126  27.308  12.085   7.664
 1534POPC   NC322127  17.484  21.373   9.464
 1534POPC   PO422128  17.472  21.396   9.164
 1534POPC   GL122129  17.476  21.420   8.864
 1534POPC   GL222130  17.506  21.232   8.864
 1534POPC   C1A22131  17.516  21.373   8.564
 1534POPC   D2A22132  17.463  21.355   8.264
 1534POPC   C3A22133  17.527  21.389   7.964
 1534POPC   C4A22134  17.496  21.401   7.664
 1534POPC   C1B22135  17.447  21.122   8.564
 1534POPC   C2B22136  17.440  21.107   8.264
 1534POPC   C3B22137  17.515  21.141   7.964
 1534POPC   C4B22138  17.514  21.170   7.664
 1535POPC   NC322139  13.640  19.030   9.464
 1535POPC   PO422140  13.677  19.027   9.164
 1535POPC   GL122141  13.613  19.035   8.864
 1535POPC   GL222142  13.700  18.987   8.864
 1535POPC   C1A22143  13.593  19.071   8.564
 1535POPC   D2A22144  13.635  19.061   8.264
 1535POPC   C3A22145  13.602  19.082   7.964
 1535POPC   C4A22146  13.585  19.050   7.664
 1535POPC   C1B22147  13.886  18.985   8.564
 1535POPC   C2B22148  13.867  19.001   8.264
 1535POPC   C3B22149  13.815  18.923   7.964
 1535POPC   C4B22150  13.899  19.012   7.664
 1536POPC   NC322151  11.340  39.187   9.464
 1536POPC   PO422152  11.327  39.213   9.164
 1536POPC   GL122153  11.307  39.274   8.864
 1536POPC   GL222154  11.177  39.190   8.864
 1536POPC   C1A22155  11.313  39.186   8.564
 1536POPC   D2A22156  11.256  39.224   8.264
 1536POPC   C3A22157  11.303  39.185   7.964
 1536POPC   C4A22158  11.299  39.211   7.664
 1536POPC   C1B22159  11.092  39.041   8.564
 1536POPC   C2B22160  11.098  39.056   8.264
 1536POPC   C3B22161  11.145  39.072   7.964
 1536POPC   C4B22162  11.095  39.098   7.664
 1537POPC   NC322163  29.925  28.351   9.464
 1537POPC   PO422164  29.874  28.351   9.164
 1537POPC   GL122165  29.882  28.338   8.864
 1537POPC   GL222166  29.765  28.290   8.864
 1537POPC   C1A22167  29.893  28.336   8.564
 1537POPC   D2A22168  29.888  28.378   8.264
 1537POPC   C3A22169  29.876  28.402   7.964
 1537POPC   C4A22170  29.963  28.360   7.664
 1537POPC   C1B22171  29.740  28.264   8.564
 1537POPC   C2B22172  29.710  28.216   8.264
 1537POPC   C3B22173  29.719  28.250   7.964
 1537POPC   C4B22174  29.678  28.255   7.664
 1538POPC   NC322175   1.993  37.682   9.464
 1538POPC   PO422176   1.945  37.681   9.164
 1538POPC   GL122177   1.945  37.665   8.864
 1538POPC   GL222178   1.890  37.770   8.864
 1538POPC   C1A22179   1.996  37.681   8.564
 1538POPC   D2A22180   2.020  37.726   8.264
 1538POPC   C3A22181   2.026  37.648   7.964
 1538POPC   C4A22182   1.973  37.675   7.664
 1538POPC   C1B22183   1.815  37.790   8.564
 1538POPC   C2B22184   1.730  37.765   8.264
 1538POPC   C3B22185   1.810  37.849   7.964
 1538POPC   C4B22186   1.764  37.825   7.664
 1539POPC   NC322187   8.987  43.845   9.464
 1539POPC   PO422188   8.983  43.860   9.164
 1539POPC   GL122189   8.997  43.927   8.864
 1539POPC   GL222190   8.892  43.755   8.864
 1539POPC   C1A22191   8.929  43.885   8.564
 1539POPC   D2A22192   8.928  43.920   8.264
 1539POPC   C3A22193   8.965  43.893   7.964
 1539POPC   C4A22194   8.964  43.899   7.664
 1539POPC   C1B22195   8.778  43.707   8.564
 1539POPC   C2B22196   8.827  43.708   8.264
 1539POPC   C3B22197   8.788  43.691   7.964
 1539POPC   C4B22198   8.762  43.695   7.664
 1540POPC   NC322199  41.577   7.388   9.464
 1540POPC   PO422200  41.590   7.464   9.164
 1540POPC   GL122201  41.596   7.378   8.864
 1540POPC   GL222202  41.629   7.514   8.864
 1540POPC   C1A22203  41.518   7.434   8.564
 1540POPC   D2A22204  41.548   7.461   8.264
 1540POPC   C3A22205  41.512   7.373   7.964
 1540POPC   C4A22206  41.524   7.407   7.664
 1540POPC   C1B22207  41.615   7.634   8.564
 1540POPC   C2B22208  41.652   7.618   8.264
 1540POPC   C3B22209  41.635   7.708   7.964
 1540POPC   C4B22210  41.625   7.705   7.664
 1541POPC   NC322211   9.772   9.708   9.464
 1541POPC   PO422212   9.702   9.706   9.164
 1541POPC   GL122213   9.731   9.776   8.864
 1541POPC   GL222214   9.707   9.860   8.864
 1541POPC   C1A22215   9.773   9.769   8.564
 1541POPC   D2A22216   9.768   9.698   8.264
 1541POPC   C3A22217   9.730   9.708   7.964
 1541POPC   C4A22218   9.715   9.728   7.664
 1541POPC   C1B22219   9.766   9.951   8.564
 1541POPC   C2B22220   9.755  10.020   8.264
 1541POPC   C3B22221   9.785  10.032   7.964
 1541POPC   C4B22222   9.744   9.973   7.664
 1542POPC   NC322223  24.441   1.990   9.464
 1542POPC   PO422224  24.474   2.025   9.164
 1542POPC   GL122225  24.533   2.000   8.864
 1542POPC   GL222226  24.376   1.873   8.864
 1542POPC   C1A22227  24.478   1.997   8.564
 1542POPC   D2A22228  24.487   2.014   8.264
 1542POPC   C3A22229  24.488   1.993   7.964
 1542POPC   C4A22230  24.506   1.952   7.664
 1542POPC   C1B22231  24.248   1.864   8.564
 1542POPC   C2B22232  24.323   1.851   8.264
 1542POPC   C3B22233  24.339   1.831   7.964
 1542POPC   C4B22234  24.304   1.797   7.664
 1543POPC   NC322235  36.917   5.894   9.464
 1543POPC   PO422236  36.908   5.867   9.164
 1543POPC   GL122237  36.879   5.856   8.864
 1543POPC   GL222238  36.821   5.878   8.864
 1543POPC   C1A22239  36.879   5.881   8.564
 1543POPC   D2A22240  36.913   5.850   8.264
 1543POPC   C3A22241  36.933   5.883   7.964
 1543POPC   C4A22242  36.887   5.855   7.664
 1543POPC   C1B22243  36.701   5.910   8.564
 1543POPC   C2B22244  36.659   5.909   8.264
 1543POPC   C3B22245  36.685   5.823   7.964
 1543POPC   C4B22246  36.625   5.876   7.664
 1544POPC   NC322247  40.041  26.056   9.464
 1544POPC   PO422248  40.026  26.082   9.164
 1544POPC   GL122249  39.977  26.056   8.864
 1544POPC   GL222250  39.980  26.193   8.864
 1544POPC   C1A22251  39.993  26.004   8.564
 1544POPC   D2A22252  40.028  26.046   8.264
 1544POPC   C3A22253  39.978  26.027   7.964
 1544POPC   C4A22254  40.044  26.013   7.664
 1544POPC   C1B22255  39.981  26.255   8.564
 1544POPC   C2B22256  40.014  26.335   8.264
 1544POPC   C3B22257  39.972  26.282   7.964
 1544POPC   C4B22258  39.954  26.303   7.664
 1545POPC   NC322259  33.042  31.520   9.464
 1545POPC   PO422260  33.054  31.493   9.164
 1545POPC   GL122261  33.051  31.471   8.864
 1545POPC   GL222262  33.150  31.376   8.864
 1545POPC   C1A22263  33.064  31.484   8.564
 1545POPC   D2A22264  33.071  31.446   8.264
 1545POPC   C3A22265  33.026  31.475   7.964
 1545POPC   C4A22266  33.034  31.435   7.664
 1545POPC   C1B22267  33.284  31.351   8.564
 1545POPC   C2B22268  33.220  31.357   8.264
 1545POPC   C3B22269  33.234  31.358   7.964
 1545POPC   C4B22270  33.262  31.358   7.664
 1546POPC   NC322271  22.164   1.166   9.464
 1546POPC   PO422272  22.121   1.176   9.164
 1546POPC   GL122273  22.200   1.224   8.864
 1546POPC   GL222274  22.260   1.371   8.864
 1546POPC   C1A22275  22.134   1.262   8.564
 1546POPC   D2A22276  22.131   1.165   8.264
 1546POPC   C3A22277  22.131   1.170   7.964
 1546POPC   C4A22278  22.154   1.167   7.664
 1546POPC   C1B22279  22.254   1.466   8.564
 1546POPC   C2B22280  22.299   1.483   8.264
 1546POPC   C3B22281  22.308   1.433   7.964
 1546POPC   C4B22282  22.302   1.392   7.664
 1547POPC   NC322283  13.616  10.531   9.464
 1547POPC   PO422284  13.672  10.487   9.164
 1547POPC   GL122285  13.587  10.528   8.864
 1547POPC   GL222286  13.527  10.457   8.864
 1547POPC   C1A22287  13.651  10.526   8.564
 1547POPC   D2A22288  13.611  10.565   8.264
 1547POPC   C3A22289  13.588  10.548   7.964
 1547POPC   C4A22290  13.580  10.512   7.664
 1547POPC   C1B22291  13.417  10.444   8.564
 1547POPC   C2B22292  13.378  10.504   8.264
 1547POPC   C3B22293  13.399  10.419   7.964
 1547POPC   C4B22294  13.414  10.464   7.664
 1548POPC   NC322295  42.345  13.658   9.464
 1548POPC   PO422296  42.384  13.629   9.164
 1548POPC   GL122297  42.302  13.628   8.864
 1548POPC   GL222298  42.436  13.530   8.864
 1548POPC   C1A22299  42.308  13.610   8.564
 1548POPC   D2A22300  42.347  13.623   8.264
 1548POPC   C3A22301  42.325  13.644   7.964
 1548POPC   C4A22302  42.350  13.634   7.664
 1548POPC   C1B22303  42.479  13.439   8.564
 1548POPC   C2B22304  42.420  13.461   8.264
 1548POPC   C3B22305  42.445  13.399   7.964
 1548POPC   C4B22306  42.451  13.457   7.664
 1549POPC   NC322307  40.761  11.329   9.464
 1549POPC   PO422308  40.765  11.281   9.164
 1549POPC   GL122309  40.805  11.286   8.864
 1549POPC   GL222310  40.881  11.297   8.864
 1549POPC   C1A22311  40.832  11.296   8.564
 1549POPC   D2A22312  40.798  11.279   8.264
 1549POPC   C3A22313  40.780  11.253   7.964
 1549POPC   C4A22314  40.787  11.287   7.664
 1549POPC   C1B22315  40.984  11.328   8.564
 1549POPC   C2B22316  40.986  11.317   8.264
 1549POPC   C3B22317  41.058  11.325   7.964
 1549POPC   C4B22318  41.017  11.311   7.664
 1550POPC   NC322319  20.564  17.553   9.464
 1550POPC   PO422320  20.652  17.482   9.164
 1550POPC   GL122321  20.602  17.554   8.864
 1550POPC   GL222322  20.646  17.633   8.864
 1550POPC   C1A22323  20.633  17.530   8.564
 1550POPC   D2A22324  20.611  17.486   8.264
 1550POPC   C3A22325  20.630  17.519   7.964
 1550POPC   C4A22326  20.584  17.493   7.664
 1550POPC   C1B22327  20.673  17.690   8.564
 1550POPC   C2B22328  20.703  17.758   8.264
 1550POPC   C3B22329  20.739  17.720   7.964
 1550POPC   C4B22330  20.732  17.777   7.664
 1551POPC   NC322331  29.107  25.216   9.464
 1551POPC   PO422332  29.143  25.248   9.164
 1551POPC   GL122333  29.139  25.237   8.864
 1551POPC   GL222334  29.263  25.184   8.864
 1551POPC   C1A22335  29.184  25.299   8.564
 1551POPC   D2A22336  29.133  25.308   8.264
 1551POPC   C3A22337  29.143  25.244   7.964
 1551POPC   C4A22338  29.138  25.269   7.664
 1551POPC   C1B22339  29.344  25.142   8.564
 1551POPC   C2B22340  29.358  25.130   8.264
 1551POPC   C3B22341  29.373  25.167   7.964
 1551POPC   C4B22342  29.328  25.136   7.664
 1552POPC   NC322343   4.343  18.324   9.464
 1552POPC   PO422344   4.345  18.322   9.164
 1552POPC   GL122345   4.295  18.265   8.864
 1552POPC   GL222346   4.351  18.365   8.864
 1552POPC   C1A22347   4.339  18.281   8.564
 1552POPC   D2A22348   4.284  18.281   8.264
 1552POPC   C3A22349   4.341  18.332   7.964
 1552POPC   C4A22350   4.351  18.252   7.664
 1552POPC   C1B22351   4.440  18.462   8.564
 1552POPC   C2B22352   4.495  18.501   8.264
 1552POPC   C3B22353   4.458  18.494   7.964
 1552POPC   C4B22354   4.473  18.520   7.664
 1553POPC   NC322355   5.099  13.599   9.464
 1553POPC   PO422356   5.114  13.643   9.164
 1553POPC   GL122357   5.088  13.606   8.864
 1553POPC   GL222358   5.176  13.641   8.864
 1553POPC   C1A22359   5.064  13.656   8.564
 1553POPC   D2A22360   5.079  13.643   8.264
 1553POPC   C3A22361   5.046  13.609   7.964
 1553POPC   C4A22362   5.125  13.629   7.664
 1553POPC   C1B22363   5.331  13.681   8.564
 1553POPC   C2B22364   5.386  13.704   8.264
 1553POPC   C3B22365   5.294  13.720   7.964
 1553POPC   C4B22366   5.372  13.660   7.664
 1554POPC   NC322367  20.655  22.986   9.464
 1554POPC   PO422368  20.627  22.976   9.164
 1554POPC   GL122369  20.640  22.951   8.864
 1554POPC   GL222370  20.531  23.024   8.864
 1554POPC   C1A22371  20.569  22.978   8.564
 1554POPC   D2A22372  20.653  22.933   8.264
 1554POPC   C3A22373  20.591  22.890   7.964
 1554POPC   C4A22374  20.655  22.921   7.664
 1554POPC   C1B22375  20.472  23.192   8.564
 1554POPC   C2B22376  20.540  23.187   8.264
 1554POPC   C3B22377  20.460  23.170   7.964
 1554POPC   C4B22378  20.541  23.202   7.664
 1555POPC   NC322379  17.469  15.141   9.464
 1555POPC   PO422380  17.478  15.201   9.164
 1555POPC   GL122381  17.532  15.212   8.864
 1555POPC   GL222382  17.439  15.175   8.864
 1555POPC   C1A22383  17.533  15.134   8.564
 1555POPC   D2A22384  17.539  15.158   8.264
 1555POPC   C3A22385  17.497  15.171   7.964
 1555POPC   C4A22386  17.465  15.181   7.664
 1555POPC   C1B22387  17.257  15.128   8.564
 1555POPC   C2B22388  17.300  15.122   8.264
 1555POPC   C3B22389  17.279  15.048   7.964
 1555POPC   C4B22390  17.251  15.099   7.664
 1556POPC   NC322391  20.589  28.354   9.464
 1556POPC   PO422392  20.650  28.392   9.164
 1556POPC   GL122393  20.587  28.396   8.864
 1556POPC   GL222394  20.605  28.234   8.864
 1556POPC   C1A22395  20.638  28.369   8.564
 1556POPC   D2A22396  20.621  28.410   8.264
 1556POPC   C3A22397  20.650  28.377   7.964
 1556POPC   C4A22398  20.625  28.371   7.664
 1556POPC   C1B22399  20.586  28.133   8.564
 1556POPC   C2B22400  20.636  28.156   8.264
 1556POPC   C3B22401  20.597  28.126   7.964
 1556POPC   C4B22402  20.553  28.102   7.664
 1557POPC   NC322403  10.526  11.313   9.464
 1557POPC   PO422404  10.559  11.258   9.164
 1557POPC   GL122405  10.536  11.290   8.864
 1557POPC   GL222406  10.383  11.257   8.864
 1557POPC   C1A22407  10.546  11.322   8.564
 1557POPC   D2A22408  10.537  11.266   8.264
 1557POPC   C3A22409  10.482  11.330   7.964
 1557POPC   C4A22410  10.559  11.288   7.664
 1557POPC   C1B22411  10.255  11.300   8.564
 1557POPC   C2B22412  10.296  11.333   8.264
 1557POPC   C3B22413  10.275  11.263   7.964
 1557POPC   C4B22414  10.318  11.334   7.664
 1558POPC   NC322415   1.182  15.204   9.464
 1558POPC   PO422416   1.179  15.193   9.164
 1558POPC   GL122417   1.233  15.149   8.864
 1558POPC   GL222418   1.192  15.028   8.864
 1558POPC   C1A22419   1.238  15.178   8.564
 1558POPC   D2A22420   1.237  15.182   8.264
 1558POPC   C3A22421   1.261  15.226   7.964
 1558POPC   C4A22422   1.207  15.164   7.664
 1558POPC   C1B22423   1.114  15.009   8.564
 1558POPC   C2B22424   1.095  14.948   8.264
 1558POPC   C3B22425   1.088  14.996   7.964
 1558POPC   C4B22426   1.060  14.927   7.664
 1559POPC   NC322427  44.697  37.678   9.464
 1559POPC   PO422428  44.661  37.681   9.164
 1559POPC   GL122429  44.709  37.692   8.864
 1559POPC   GL222430  44.738  37.647   8.864
 1559POPC   C1A22431  44.706  37.659   8.564
 1559POPC   D2A22432  44.663  37.726   8.264
 1559POPC   C3A22433  44.666  37.662   7.964
 1559POPC   C4A22434  44.648  37.654   7.664
 1559POPC   C1B22435  44.885  37.528   8.564
 1559POPC   C2B22436  44.887  37.497   8.264
 1559POPC   C3B22437  44.846  37.524   7.964
 1559POPC   C4B22438  44.838  37.518   7.664
 1560POPC   NC322439  15.200  18.251   9.464
 1560POPC   PO422440  15.200  18.298   9.164
 1560POPC   GL122441  15.142  18.280   8.864
 1560POPC   GL222442  15.089  18.162   8.864
 1560POPC   C1A22443  15.223  18.314   8.564
 1560POPC   D2A22444  15.166  18.293   8.264
 1560POPC   C3A22445  15.142  18.264   7.964
 1560POPC   C4A22446  15.183  18.294   7.664
 1560POPC   C1B22447  15.021  18.132   8.564
 1560POPC   C2B22448  14.972  18.152   8.264
 1560POPC   C3B22449  14.968  18.118   7.964
 1560POPC   C4B22450  15.038  18.106   7.664
 1561POPC   NC322451  14.389  20.563   9.464
 1561POPC   PO422452  14.417  20.633   9.164
 1561POPC   GL122453  14.416  20.592   8.864
 1561POPC   GL222454  14.508  20.598   8.864
 1561POPC   C1A22455  14.426  20.608   8.564
 1561POPC   D2A22456  14.449  20.568   8.264
 1561POPC   C3A22457  14.380  20.585   7.964
 1561POPC   C4A22458  14.365  20.650   7.664
 1561POPC   C1B22459  14.633  20.516   8.564
 1561POPC   C2B22460  14.675  20.511   8.264
 1561POPC   C3B22461  14.598  20.550   7.964
 1561POPC   C4B22462  14.633  20.597   7.664
 1562POPC   NC322463  36.891   1.976   9.464
 1562POPC   PO422464  36.939   1.989   9.164
 1562POPC   GL122465  36.884   1.957   8.864
 1562POPC   GL222466  36.808   1.952   8.864
 1562POPC   C1A22467  36.914   1.970   8.564
 1562POPC   D2A22468  36.888   1.946   8.264
 1562POPC   C3A22469  36.946   2.031   7.964
 1562POPC   C4A22470  36.858   2.022   7.664
 1562POPC   C1B22471  36.675   1.817   8.564
 1562POPC   C2B22472  36.714   1.856   8.264
 1562POPC   C3B22473  36.672   1.808   7.964
 1562POPC   C4B22474  36.727   1.878   7.664
 1563POPC   NC322475  33.826  21.375   9.464
 1563POPC   PO422476  33.839  21.425   9.164
 1563POPC   GL122477  33.765  21.412   8.864
 1563POPC   GL222478  33.872  21.303   8.864
 1563POPC   C1A22479  33.773  21.408   8.564
 1563POPC   D2A22480  33.825  21.348   8.264
 1563POPC   C3A22481  33.811  21.379   7.964
 1563POPC   C4A22482  33.780  21.369   7.664
 1563POPC   C1B22483  33.881  21.168   8.564
 1563POPC   C2B22484  33.938  21.123   8.264
 1563POPC   C3B22485  33.936  21.185   7.964
 1563POPC   C4B22486  33.861  21.137   7.664
 1564POPC   NC322487  19.813  44.619   9.464
 1564POPC   PO422488  19.821  44.688   9.164
 1564POPC   GL122489  19.881  44.710   8.864
 1564POPC   GL222490  19.854  44.498   8.864
 1564POPC   C1A22491  19.818  44.624   8.564
 1564POPC   D2A22492  19.876  44.679   8.264
 1564POPC   C3A22493  19.819  44.628   7.964
 1564POPC   C4A22494  19.871  44.640   7.664
 1564POPC   C1B22495  19.911  44.466   8.564
 1564POPC   C2B22496  19.873  44.394   8.264
 1564POPC   C3B22497  19.932  44.387   7.964
 1564POPC   C4B22498  19.880  44.458   7.664
 1565POPC   NC322499  43.104  19.797   9.464
 1565POPC   PO422500  43.087  19.878   9.164
 1565POPC   GL122501  43.090  19.870   8.864
 1565POPC   GL222502  43.170  19.893   8.864
 1565POPC   C1A22503  43.148  19.869   8.564
 1565POPC   D2A22504  43.126  19.828   8.264
 1565POPC   C3A22505  43.086  19.875   7.964
 1565POPC   C4A22506  43.116  19.806   7.664
 1565POPC   C1B22507  43.203  20.057   8.564
 1565POPC   C2B22508  43.280  20.077   8.264
 1565POPC   C3B22509  43.245  20.092   7.964
 1565POPC   C4B22510  43.195  20.080   7.664
 1566POPC   NC322511  19.049  20.577   9.464
 1566POPC   PO422512  19.037  20.586   9.164
 1566POPC   GL122513  19.060  20.574   8.864
 1566POPC   GL222514  19.129  20.644   8.864
 1566POPC   C1A22515  19.087  20.592   8.564
 1566POPC   D2A22516  19.082  20.619   8.264
 1566POPC   C3A22517  19.054  20.606   7.964
 1566POPC   C4A22518  19.085  20.599   7.664
 1566POPC   C1B22519  19.241  20.747   8.564
 1566POPC   C2B22520  19.233  20.719   8.264
 1566POPC   C3B22521  19.279  20.746   7.964
 1566POPC   C4B22522  19.243  20.726   7.664
 1567POPC   NC322523  26.784  36.140   9.464
 1567POPC   PO422524  26.820  36.136   9.164
 1567POPC   GL122525  26.857  36.115   8.864
 1567POPC   GL222526  26.799  36.027   8.864
 1567POPC   C1A22527  26.778  36.086   8.564
 1567POPC   D2A22528  26.799  36.127   8.264
 1567POPC   C3A22529  26.807  36.156   7.964
 1567POPC   C4A22530  26.789  36.087   7.664
 1567POPC   C1B22531  26.757  35.859   8.564
 1567POPC   C2B22532  26.776  35.923   8.264
 1567POPC   C3B22533  26.779  35.861   7.964
 1567POPC   C4B22534  26.755  35.895   7.664
 1568POPC   NC322535  20.608  29.147   9.464
 1568POPC   PO422536  20.588  29.175   9.164
 1568POPC   GL122537  20.645  29.162   8.864
 1568POPC   GL222538  20.772  29.177   8.864
 1568POPC   C1A22539  20.636  29.158   8.564
 1568POPC   D2A22540  20.618  29.130   8.264
 1568POPC   C3A22541  20.623  29.173   7.964
 1568POPC   C4A22542  20.611  29.107   7.664
 1568POPC   C1B22543  20.878  29.165   8.564
 1568POPC   C2B22544  20.883  29.134   8.264
 1568POPC   C3B22545  20.841  29.105   7.964
 1568POPC   C4B22546  20.813  29.181   7.664
 1569POPC   NC322547   8.147  28.407   9.464
 1569POPC   PO422548   8.174  28.413   9.164
 1569POPC   GL122549   8.179  28.356   8.864
 1569POPC   GL222550   8.058  28.409   8.864
 1569POPC   C1A22551   8.210  28.364   8.564
 1569POPC   D2A22552   8.162  28.352   8.264
 1569POPC   C3A22553   8.180  28.408   7.964
 1569POPC   C4A22554   8.194  28.382   7.664
 1569POPC   C1B22555   7.909  28.404   8.564
 1569POPC   C2B22556   7.970  28.403   8.264
 1569POPC   C3B22557   7.911  28.382   7.964
 1569POPC   C4B22558   7.922  28.409   7.664
 1570POPC   NC322559  41.528  13.620   9.464
 1570POPC   PO422560  41.545  13.676   9.164
 1570POPC   GL122561  41.517  13.665   8.864
 1570POPC   GL222562  41.638  13.478   8.864
 1570POPC   C1A22563  41.561  13.673   8.564
 1570POPC   D2A22564  41.546  13.591   8.264
 1570POPC   C3A22565  41.571  13.634   7.964
 1570POPC   C4A22566  41.549  13.672   7.664
 1570POPC   C1B22567  41.638  13.365   8.564
 1570POPC   C2B22568  41.642  13.400   8.264
 1570POPC   C3B22569  41.614  13.372   7.964
 1570POPC   C4B22570  41.652  13.392   7.664
 1571POPC   NC322571  26.008  11.257   9.464
 1571POPC   PO422572  26.039  11.260   9.164
 1571POPC   GL122573  26.028  11.332   8.864
 1571POPC   GL222574  26.064  11.466   8.864
 1571POPC   C1A22575  26.024  11.287   8.564
 1571POPC   D2A22576  26.049  11.255   8.264
 1571POPC   C3A22577  26.022  11.250   7.964
 1571POPC   C4A22578  26.035  11.279   7.664
 1571POPC   C1B22579  26.067  11.518   8.564
 1571POPC   C2B22580  26.079  11.567   8.264
 1571POPC   C3B22581  26.054  11.515   7.964
 1571POPC   C4B22582  26.055  11.555   7.664
 1572POPC   NC322583  25.229  26.064   9.464
 1572POPC   PO422584  25.252  26.029   9.164
 1572POPC   GL122585  25.216  26.049   8.864
 1572POPC   GL222586  25.376  25.976   8.864
 1572POPC   C1A22587  25.250  26.016   8.564
 1572POPC   D2A22588  25.268  26.023   8.264
 1572POPC   C3A22589  25.240  26.066   7.964
 1572POPC   C4A22590  25.301  26.063   7.664
 1572POPC   C1B22591  25.365  25.869   8.564
 1572POPC   C2B22592  25.412  25.867   8.264
 1572POPC   C3B22593  25.405  25.879   7.964
 1572POPC   C4B22594  25.370  25.818   7.664
 1573POPC   NC322595  27.572   6.631   9.464
 1573POPC   PO422596  27.637   6.661   9.164
 1573POPC   GL122597  27.552   6.633   8.864
 1573POPC   GL222598  27.645   6.589   8.864
 1573POPC   C1A22599  27.643   6.619   8.564
 1573POPC   D2A22600  27.636   6.686   8.264
 1573POPC   C3A22601  27.577   6.693   7.964
 1573POPC   C4A22602  27.559   6.651   7.664
 1573POPC   C1B22603  27.713   6.429   8.564
 1573POPC   C2B22604  27.701   6.449   8.264
 1573POPC   C3B22605  27.692   6.424   7.964
 1573POPC   C4B22606  27.737   6.467   7.664
 1574POPC   NC322607  19.088   0.394   9.464
 1574POPC   PO422608  19.092   0.450   9.164
 1574POPC   GL122609  19.098   0.440   8.864
 1574POPC   GL222610  19.161   0.350   8.864
 1574POPC   C1A22611  19.010   0.468   8.564
 1574POPC   D2A22612  19.097   0.450   8.264
 1574POPC   C3A22613  19.066   0.447   7.964
 1574POPC   C4A22614  19.068   0.443   7.664
 1574POPC   C1B22615  19.283   0.305   8.564
 1574POPC   C2B22616  19.343   0.357   8.264
 1574POPC   C3B22617  19.326   0.341   7.964
 1574POPC   C4B22618  19.276   0.360   7.664
 1575POPC   NC322619  37.646   2.032   9.464
 1575POPC   PO422620  37.713   2.020   9.164
 1575POPC   GL122621  37.681   2.022   8.864
 1575POPC   GL222622  37.708   1.897   8.864
 1575POPC   C1A22623  37.640   2.037   8.564
 1575POPC   D2A22624  37.646   1.974   8.264
 1575POPC   C3A22625  37.644   2.032   7.964
 1575POPC   C4A22626  37.648   1.957   7.664
 1575POPC   C1B22627  37.685   1.787   8.564
 1575POPC   C2B22628  37.712   1.691   8.264
 1575POPC   C3B22629  37.684   1.724   7.964
 1575POPC   C4B22630  37.643   1.728   7.664
 1576POPC   NC322631   5.904   0.404   9.464
 1576POPC   PO422632   5.903   0.408   9.164
 1576POPC   GL122633   5.852   0.474   8.864
 1576POPC   GL222634   5.777   0.371   8.864
 1576POPC   C1A22635   5.904   0.470   8.564
 1576POPC   D2A22636   5.901   0.440   8.264
 1576POPC   C3A22637   5.902   0.420   7.964
 1576POPC   C4A22638   5.860   0.433   7.664
 1576POPC   C1B22639   5.582   0.375   8.564
 1576POPC   C2B22640   5.644   0.408   8.264
 1576POPC   C3B22641   5.579   0.430   7.964
 1576POPC   C4B22642   5.630   0.386   7.664
 1577POPC   NC322643  29.162  33.771   9.464
 1577POPC   PO422644  29.098  33.802   9.164
 1577POPC   GL122645  29.192  33.786   8.864
 1577POPC   GL222646  29.055  33.720   8.864
 1577POPC   C1A22647  29.191  33.827   8.564
 1577POPC   D2A22648  29.140  33.849   8.264
 1577POPC   C3A22649  29.144  33.751   7.964
 1577POPC   C4A22650  29.151  33.764   7.664
 1577POPC   C1B22651  28.953  33.603   8.564
 1577POPC   C2B22652  29.008  33.643   8.264
 1577POPC   C3B22653  28.958  33.576   7.964
 1577POPC   C4B22654  28.972  33.590   7.664
 1578POPC   NC322655   8.188  14.401   9.464
 1578POPC   PO422656   8.169  14.415   9.164
 1578POPC   GL122657   8.152  14.446   8.864
 1578POPC   GL222658   8.327  14.333   8.864
 1578POPC   C1A22659   8.154  14.391   8.564
 1578POPC   D2A22660   8.155  14.448   8.264
 1578POPC   C3A22661   8.197  14.427   7.964
 1578POPC   C4A22662   8.226  14.359   7.664
 1578POPC   C1B22663   8.458  14.329   8.564
 1578POPC   C2B22664   8.404  14.391   8.264
 1578POPC   C3B22665   8.480  14.378   7.964
 1578POPC   C4B22666   8.429  14.395   7.664
 1579POPC   NC322667  26.076  30.664   9.464
 1579POPC   PO422668  26.060  30.685   9.164
 1579POPC   GL122669  26.077  30.727   8.864
 1579POPC   GL222670  26.042  30.772   8.864
 1579POPC   C1A22671  25.995  30.676   8.564
 1579POPC   D2A22672  26.019  30.649   8.264
 1579POPC   C3A22673  26.023  30.677   7.964
 1579POPC   C4A22674  26.083  30.734   7.664
 1579POPC   C1B22675  26.017  30.979   8.564
 1579POPC   C2B22676  26.004  30.940   8.264
 1579POPC   C3B22677  26.026  30.936   7.964
 1579POPC   C4B22678  26.033  30.903   7.664
 1580POPC   NC322679   4.337  17.490   9.464
 1580POPC   PO422680   4.359  17.517   9.164
 1580POPC   GL122681   4.339  17.543   8.864
 1580POPC   GL222682   4.437  17.449   8.864
 1580POPC   C1A22683   4.352  17.479   8.564
 1580POPC   D2A22684   4.362  17.487   8.264
 1580POPC   C3A22685   4.365  17.515   7.964
 1580POPC   C4A22686   4.334  17.542   7.664
 1580POPC   C1B22687   4.442  17.350   8.564
 1580POPC   C2B22688   4.511  17.334   8.264
 1580POPC   C3B22689   4.479  17.299   7.964
 1580POPC   C4B22690   4.532  17.295   7.664
 1581POPC   NC322691   6.692  36.155   9.464
 1581POPC   PO422692   6.608  36.105   9.164
 1581POPC   GL122693   6.691  36.163   8.864
 1581POPC   GL222694   6.512  36.033   8.864
 1581POPC   C1A22695   6.680  36.119   8.564
 1581POPC   D2A22696   6.632  36.133   8.264
 1581POPC   C3A22697   6.642  36.145   7.964
 1581POPC   C4A22698   6.686  36.111   7.664
 1581POPC   C1B22699   6.462  35.968   8.564
 1581POPC   C2B22700   6.411  35.977   8.264
 1581POPC   C3B22701   6.495  35.964   7.964
 1581POPC   C4B22702   6.483  35.943   7.664
 1582POPC   NC322703  26.052  18.264   9.464
 1582POPC   PO422704  26.042  18.269   9.164
 1582POPC   GL122705  26.032  18.300   8.864
 1582POPC   GL222706  26.118  18.356   8.864
 1582POPC   C1A22707  26.079  18.284   8.564
 1582POPC   D2A22708  26.010  18.299   8.264
 1582POPC   C3A22709  26.013  18.249   7.964
 1582POPC   C4A22710  25.994  18.332   7.664
 1582POPC   C1B22711  26.176  18.441   8.564
 1582POPC   C2B22712  26.187  18.460   8.264
 1582POPC   C3B22713  26.243  18.442   7.964
 1582POPC   C4B22714  26.265  18.447   7.664
 1583POPC   NC322715  35.326  28.403   9.464
 1583POPC   PO422716  35.349  28.342   9.164
 1583POPC   GL122717  35.328  28.408   8.864
 1583POPC   GL222718  35.458  28.216   8.864
 1583POPC   C1A22719  35.374  28.418   8.564
 1583POPC   D2A22720  35.320  28.414   8.264
 1583POPC   C3A22721  35.355  28.401   7.964
 1583POPC   C4A22722  35.347  28.381   7.664
 1583POPC   C1B22723  35.427  28.192   8.564
 1583POPC   C2B22724  35.473  28.129   8.264
 1583POPC   C3B22725  35.434  28.126   7.964
 1583POPC   C4B22726  35.502  28.122   7.664
 1584POPC   NC322727  35.400   8.154   9.464
 1584POPC   PO422728  35.359   8.156   9.164
 1584POPC   GL122729  35.315   8.207   8.864
 1584POPC   GL222730  35.455   8.276   8.864
 1584POPC   C1A22731  35.390   8.245   8.564
 1584POPC   D2A22732  35.368   8.191   8.264
 1584POPC   C3A22733  35.314   8.165   7.964
 1584POPC   C4A22734  35.386   8.149   7.664
 1584POPC   C1B22735  35.532   8.359   8.564
 1584POPC   C2B22736  35.561   8.333   8.264
 1584POPC   C3B22737  35.564   8.358   7.964
 1584POPC   C4B22738  35.501   8.351   7.664
 1585POPC   NC322739  15.197   0.486   9.464
 1585POPC   PO422740  15.176   0.482   9.164
 1585POPC   GL122741  15.193   0.454   8.864
 1585POPC   GL222742  15.193   0.527   8.864
 1585POPC   C1A22743  15.190   0.449   8.564
 1585POPC   D2A22744  15.189   0.406   8.264
 1585POPC   C3A22745  15.157   0.402   7.964
 1585POPC   C4A22746  15.224   0.433   7.664
 1585POPC   C1B22747  15.345   0.607   8.564
 1585POPC   C2B22748  15.288   0.665   8.264
 1585POPC   C3B22749  15.299   0.693   7.964
 1585POPC   C4B22750  15.323   0.634   7.664
 1586POPC   NC322751   0.405  31.433   9.464
 1586POPC   PO422752   0.420  31.452   9.164
 1586POPC   GL122753   0.433  31.502   8.864
 1586POPC   GL222754   0.514  31.411   8.864
 1586POPC   C1A22755   0.467  31.488   8.564
 1586POPC   D2A22756   0.466  31.438   8.264
 1586POPC   C3A22757   0.458  31.517   7.964
 1586POPC   C4A22758   0.447  31.514   7.664
 1586POPC   C1B22759   0.567  31.245   8.564
 1586POPC   C2B22760   0.608  31.294   8.264
 1586POPC   C3B22761   0.570  31.323   7.964
 1586POPC   C4B22762   0.584  31.287   7.664
 1587POPC   NC322763  17.482  26.800   9.464
 1587POPC   PO422764  17.514  26.855   9.164
 1587POPC   GL122765  17.458  26.790   8.864
 1587POPC   GL222766  17.652  26.822   8.864
 1587POPC   C1A22767  17.478  26.776   8.564
 1587POPC   D2A22768  17.547  26.859   8.264
 1587POPC   C3A22769  17.501  26.832   7.964
 1587POPC   C4A22770  17.489  26.809   7.664
 1587POPC   C1B22771  17.732  26.879   8.564
 1587POPC   C2B22772  17.801  26.868   8.264
 1587POPC   C3B22773  17.756  26.833   7.964
 1587POPC   C4B22774  17.760  26.861   7.664
 1588POPC   NC322775   9.020  26.033   9.464
 1588POPC   PO422776   9.017  26.017   9.164
 1588POPC   GL122777   8.936  26.060   8.864
 1588POPC   GL222778   8.911  26.126   8.864
 1588POPC   C1A22779   8.992  26.048   8.564
 1588POPC   D2A22780   9.022  26.082   8.264
 1588POPC   C3A22781   8.973  26.061   7.964
 1588POPC   C4A22782   8.989  26.012   7.664
 1588POPC   C1B22783   8.845  26.286   8.564
 1588POPC   C2B22784   8.858  26.221   8.264
 1588POPC   C3B22785   8.863  26.278   7.964
 1588POPC   C4B22786   8.832  26.257   7.664
 1589POPC   NC322787  36.899  12.820   9.464
 1589POPC   PO422788  36.951  12.806   9.164
 1589POPC   GL122789  36.865  12.830   8.864
 1589POPC   GL222790  36.987  12.883   8.864
 1589POPC   C1A22791  36.945  12.871   8.564
 1589POPC   D2A22792  36.930  12.866   8.264
 1589POPC   C3A22793  36.917  12.820   7.964
 1589POPC   C4A22794  36.911  12.806   7.664
 1589POPC   C1B22795  37.190  12.843   8.564
 1589POPC   C2B22796  37.154  12.875   8.264
 1589POPC   C3B22797  37.139  12.850   7.964
 1589POPC   C4B22798  37.145  12.834   7.664
 1590POPC   NC322799  20.628  11.270   9.464
 1590POPC   PO422800  20.568  11.333   9.164
 1590POPC   GL122801  20.583  11.285   8.864
 1590POPC   GL222802  20.446  11.356   8.864
 1590POPC   C1A22803  20.617  11.251   8.564
 1590POPC   D2A22804  20.585  11.282   8.264
 1590POPC   C3A22805  20.612  11.335   7.964
 1590POPC   C4A22806  20.658  11.264   7.664
 1590POPC   C1B22807  20.346  11.411   8.564
 1590POPC   C2B22808  20.417  11.371   8.264
 1590POPC   C3B22809  20.415  11.388   7.964
 1590POPC   C4B22810  20.367  11.420   7.664
 1591POPC   NC322811  33.010   3.527   9.464
 1591POPC   PO422812  33.051   3.548   9.164
 1591POPC   GL122813  32.976   3.578   8.864
 1591POPC   GL222814  32.895   3.518   8.864
 1591POPC   C1A22815  33.056   3.555   8.564
 1591POPC   D2A22816  33.038   3.590   8.264
 1591POPC   C3A22817  33.033   3.528   7.964
 1591POPC   C4A22818  32.990   3.499   7.664
 1591POPC   C1B22819  32.773   3.621   8.564
 1591POPC   C2B22820  32.811   3.546   8.264
 1591POPC   C3B22821  32.824   3.551   7.964
 1591POPC   C4B22822  32.768   3.591   7.664
 1592POPC   NC322823  13.630  25.236   9.464
 1592POPC   PO422824  13.640  25.252   9.164
 1592POPC   GL122825  13.635  25.267   8.864
 1592POPC   GL222826  13.673  25.175   8.864
 1592POPC   C1A22827  13.582  25.264   8.564
 1592POPC   D2A22828  13.621  25.306   8.264
 1592POPC   C3A22829  13.609  25.226   7.964
 1592POPC   C4A22830  13.633  25.261   7.664
 1592POPC   C1B22831  13.651  24.983   8.564
 1592POPC   C2B22832  13.680  25.006   8.264
 1592POPC   C3B22833  13.660  25.013   7.964
 1592POPC   C4B22834  13.657  24.996   7.664
 1593POPC   NC322835   3.573  10.500   9.464
 1593POPC   PO422836   3.550  10.542   9.164
 1593POPC   GL122837   3.560  10.479   8.864
 1593POPC   GL222838   3.552  10.370   8.864
 1593POPC   C1A22839   3.584  10.481   8.564
 1593POPC   D2A22840   3.547  10.569   8.264
 1593POPC   C3A22841   3.497  10.493   7.964
 1593POPC   C4A22842   3.493  10.495   7.664
 1593POPC   C1B22843   3.628  10.306   8.564
 1593POPC   C2B22844   3.650  10.235   8.264
 1593POPC   C3B22845   3.628  10.320   7.964
 1593POPC   C4B22846   3.555  10.255   7.664
 1594POPC   NC322847   2.020   0.457   9.464
 1594POPC   PO422848   1.948   0.476   9.164
 1594POPC   GL122849   1.964   0.485   8.864
 1594POPC   GL222850   1.960   0.323   8.864
 1594POPC   C1A22851   1.957   0.476   8.564
 1594POPC   D2A22852   2.036   0.460   8.264
 1594POPC   C3A22853   1.977   0.404   7.964
 1594POPC   C4A22854   1.966   0.403   7.664
 1594POPC   C1B22855   2.024   0.236   8.564
 1594POPC   C2B22856   1.988   0.157   8.264
 1594POPC   C3B22857   1.999   0.206   7.964
 1594POPC   C4B22858   1.962   0.172   7.664
 1595POPC   NC322859  17.510  34.544   9.464
 1595POPC   PO422860  17.509  34.566   9.164
 1595POPC   GL122861  17.484  34.574   8.864
 1595POPC   GL222862  17.439  34.628   8.864
 1595POPC   C1A22863  17.467  34.607   8.564
 1595POPC   D2A22864  17.478  34.555   8.264
 1595POPC   C3A22865  17.547  34.593   7.964
 1595POPC   C4A22866  17.555  34.559   7.664
 1595POPC   C1B22867  17.231  34.628   8.564
 1595POPC   C2B22868  17.305  34.684   8.264
 1595POPC   C3B22869  17.241  34.620   7.964
 1595POPC   C4B22870  17.314  34.671   7.664
 1596POPC   NC322871  36.119  35.375   9.464
 1596POPC   PO422872  36.123  35.311   9.164
 1596POPC   GL122873  36.155  35.382   8.864
 1596POPC   GL222874  36.065  35.262   8.864
 1596POPC   C1A22875  36.152  35.335   8.564
 1596POPC   D2A22876  36.127  35.369   8.264
 1596POPC   C3A22877  36.102  35.358   7.964
 1596POPC   C4A22878  36.155  35.351   7.664
 1596POPC   C1B22879  36.100  35.065   8.564
 1596POPC   C2B22880  36.106  35.063   8.264
 1596POPC   C3B22881  36.125  35.096   7.964
 1596POPC   C4B22882  36.069  35.062   7.664
 1597POPC   NC322883  20.637  43.922   9.464
 1597POPC   PO422884  20.603  43.865   9.164
 1597POPC   GL122885  20.651  43.843   8.864
 1597POPC   GL222886  20.601  43.784   8.864
 1597POPC   C1A22887  20.621  43.895   8.564
 1597POPC   D2A22888  20.595  43.876   8.264
 1597POPC   C3A22889  20.583  43.839   7.964
 1597POPC   C4A22890  20.602  43.846   7.664
 1597POPC   C1B22891  20.637  43.612   8.564
 1597POPC   C2B22892  20.630  43.637   8.264
 1597POPC   C3B22893  20.570  43.647   7.964
 1597POPC   C4B22894  20.559  43.610   7.664
 1598POPC   NC322895  12.843  25.228   9.464
 1598POPC   PO422896  12.896  25.259   9.164
 1598POPC   GL122897  12.880  25.296   8.864
 1598POPC   GL222898  12.771  25.245   8.864
 1598POPC   C1A22899  12.825  25.293   8.564
 1598POPC   D2A22900  12.861  25.248   8.264
 1598POPC   C3A22901  12.849  25.303   7.964
 1598POPC   C4A22902  12.865  25.277   7.664
 1598POPC   C1B22903  12.560  25.334   8.564
 1598POPC   C2B22904  12.617  25.321   8.264
 1598POPC   C3B22905  12.585  25.338   7.964
 1598POPC   C4B22906  12.625  25.317   7.664
 1599POPC   NC322907  34.588  39.995   9.464
 1599POPC   PO422908  34.606  39.963   9.164
 1599POPC   GL122909  34.592  39.996   8.864
 1599POPC   GL222910  34.592  40.151   8.864
 1599POPC   C1A22911  34.564  39.980   8.564
 1599POPC   D2A22912  34.578  39.958   8.264
 1599POPC   C3A22913  34.565  40.045   7.964
 1599POPC   C4A22914  34.538  40.025   7.664
 1599POPC   C1B22915  34.674  40.204   8.564
 1599POPC   C2B22916  34.616  40.256   8.264
 1599POPC   C3B22917  34.631  40.297   7.964
 1599POPC   C4B22918  34.688  40.261   7.664
 1600POPC   NC322919  30.723  18.305   9.464
 1600POPC   PO422920  30.673  18.256   9.164
 1600POPC   GL122921  30.737  18.325   8.864
 1600POPC   GL222922  30.594  18.183   8.864
 1600POPC   C1A22923  30.705  18.282   8.564
 1600POPC   D2A22924  30.733  18.321   8.264
 1600POPC   C3A22925  30.698  18.239   7.964
 1600POPC   C4A22926  30.675  18.302   7.664
 1600POPC   C1B22927  30.555  18.062   8.564
 1600POPC   C2B22928  30.587  18.092   8.264
 1600POPC   C3B22929  30.504  18.111   7.964
 1600POPC   C4B22930  30.579  18.108   7.664
 1601POPC   NC322931  12.880  20.586   9.464
 1601POPC   PO422932  12.831  20.591   9.164
 1601POPC   GL122933  12.806  20.623   8.864
 1601POPC   GL222934  12.827  20.760   8.864
 1601POPC   C1A22935  12.888  20.564   8.564
 1601POPC   D2A22936  12.880  20.605   8.264
 1601POPC   C3A22937  12.876  20.608   7.964
 1601POPC   C4A22938  12.854  20.564   7.664
 1601POPC   C1B22939  12.757  20.836   8.564
 1601POPC   C2B22940  12.747  20.839   8.264
 1601POPC   C3B22941  12.740  20.862   7.964
 1601POPC   C4B22942  12.757  20.811   7.664
 1602POPC   NC322943  43.137   5.861   9.464
 1602POPC   PO422944  43.089   5.901   9.164
 1602POPC   GL122945  43.159   5.907   8.864
 1602POPC   GL222946  43.240   5.767   8.864
 1602POPC   C1A22947  43.117   5.907   8.564
 1602POPC   D2A22948  43.101   5.843   8.264
 1602POPC   C3A22949  43.072   5.901   7.964
 1602POPC   C4A22950  43.120   5.837   7.664
 1602POPC   C1B22951  43.275   5.704   8.564
 1602POPC   C2B22952  43.265   5.672   8.264
 1602POPC   C3B22953  43.313   5.713   7.964
 1602POPC   C4B22954  43.328   5.696   7.664
 1603POPC   NC322955  32.998  29.901   9.464
 1603POPC   PO422956  33.025  29.913   9.164
 1603POPC   GL122957  33.059  29.959   8.864
 1603POPC   GL222958  32.937  29.824   8.864
 1603POPC   C1A22959  32.994  29.884   8.564
 1603POPC   D2A22960  33.036  29.884   8.264
 1603POPC   C3A22961  33.032  29.908   7.964
 1603POPC   C4A22962  33.037  29.906   7.664
 1603POPC   C1B22963  32.882  29.644   8.564
 1603POPC   C2B22964  32.911  29.733   8.264
 1603POPC   C3B22965  32.908  29.733   7.964
 1603POPC   C4B22966  32.968  29.655   7.664
 1604POPC   NC322967  17.535  27.556   9.464
 1604POPC   PO422968  17.483  27.630   9.164
 1604POPC   GL122969  17.541  27.606   8.864
 1604POPC   GL222970  17.409  27.563   8.864
 1604POPC   C1A22971  17.515  27.630   8.564
 1604POPC   D2A22972  17.538  27.598   8.264
 1604POPC   C3A22973  17.511  27.593   7.964
 1604POPC   C4A22974  17.513  27.579   7.664
 1604POPC   C1B22975  17.214  27.525   8.564
 1604POPC   C2B22976  17.304  27.545   8.264
 1604POPC   C3B22977  17.279  27.553   7.964
 1604POPC   C4B22978  17.299  27.520   7.664
 1605POPC   NC322979  12.053   4.341   9.464
 1605POPC   PO422980  12.044   4.339   9.164
 1605POPC   GL122981  12.054   4.303   8.864
 1605POPC   GL222982  11.908   4.342   8.864
 1605POPC   C1A22983  12.046   4.290   8.564
 1605POPC   D2A22984  12.088   4.334   8.264
 1605POPC   C3A22985  12.048   4.366   7.964
 1605POPC   C4A22986  12.096   4.283   7.664
 1605POPC   C1B22987  11.815   4.357   8.564
 1605POPC   C2B22988  11.859   4.369   8.264
 1605POPC   C3B22989  11.806   4.342   7.964
 1605POPC   C4B22990  11.839   4.306   7.664
 1606POPC   NC322991  12.862   7.445   9.464
 1606POPC   PO422992  12.865   7.435   9.164
 1606POPC   GL122993  12.829   7.466   8.864
 1606POPC   GL222994  12.800   7.286   8.864
 1606POPC   C1A22995  12.825   7.407   8.564
 1606POPC   D2A22996  12.857   7.407   8.264
 1606POPC   C3A22997  12.866   7.408   7.964
 1606POPC   C4A22998  12.857   7.403   7.664
 1606POPC   C1B22999  12.756   7.227   8.564
 1606POPC   C2B23000  12.761   7.154   8.264
 1606POPC   C3B23001  12.715   7.213   7.964
 1606POPC   C4B23002  12.785   7.161   7.664
 1607POPC   NC323003  41.590   8.200   9.464
 1607POPC   PO423004  41.571   8.188   9.164
 1607POPC   GL123005  41.587   8.205   8.864
 1607POPC   GL223006  41.634   8.275   8.864
 1607POPC   C1A23007  41.514   8.181   8.564
 1607POPC   D2A23008  41.556   8.158   8.264
 1607POPC   C3A23009  41.563   8.246   7.964
 1607POPC   C4A23010  41.520   8.182   7.664
 1607POPC   C1B23011  41.631   8.428   8.564
 1607POPC   C2B23012  41.593   8.414   8.264
 1607POPC   C3B23013  41.602   8.475   7.964
 1607POPC   C4B23014  41.671   8.465   7.664
 1608POPC   NC323015  37.707   2.727   9.464
 1608POPC   PO423016  37.725   2.739   9.164
 1608POPC   GL123017  37.683   2.804   8.864
 1608POPC   GL223018  37.685   2.647   8.864
 1608POPC   C1A23019  37.688   2.790   8.564
 1608POPC   D2A23020  37.684   2.746   8.264
 1608POPC   C3A23021  37.672   2.810   7.964
 1608POPC   C4A23022  37.710   2.811   7.664
 1608POPC   C1B23023  37.635   2.512   8.564
 1608POPC   C2B23024  37.599   2.521   8.264
 1608POPC   C3B23025  37.671   2.500   7.964
 1608POPC   C4B23026  37.657   2.482   7.664
 1609POPC   NC323027  17.459  10.496   9.464
 1609POPC   PO423028  17.549  10.542   9.164
 1609POPC   GL123029  17.545  10.474   8.864
 1609POPC   GL223030  17.452  10.647   8.864
 1609POPC   C1A23031  17.546  10.559   8.564
 1609POPC   D2A23032  17.545  10.538   8.264
 1609POPC   C3A23033  17.553  10.498   7.964
 1609POPC   C4A23034  17.470  10.527   7.664
 1609POPC   C1B23035  17.320  10.689   8.564
 1609POPC   C2B23036  17.304  10.676   8.264
 1609POPC   C3B23037  17.285  10.634   7.964
 1609POPC   C4B23038  17.361  10.667   7.664
 1610POPC   NC323039   5.045   3.566   9.464
 1610POPC   PO423040   5.080   3.591   9.164
 1610POPC   GL123041   5.117   3.507   8.864
 1610POPC   GL223042   4.977   3.506   8.864
 1610POPC   C1A23043   5.135   3.581   8.564
 1610POPC   D2A23044   5.089   3.575   8.264
 1610POPC   C3A23045   5.076   3.509   7.964
 1610POPC   C4A23046   5.061   3.500   7.664
 1610POPC   C1B23047   4.856   3.483   8.564
 1610POPC   C2B23048   4.865   3.537   8.264
 1610POPC   C3B23049   4.865   3.446   7.964
 1610POPC   C4B23050   4.807   3.530   7.664
 1611POPC   NC323051  26.061  21.358   9.464
 1611POPC   PO423052  26.018  21.414   9.164
 1611POPC   GL123053  26.048  21.404   8.864
 1611POPC   GL223054  26.035  21.227   8.864
 1611POPC   C1A23055  26.054  21.372   8.564
 1611POPC   D2A23056  26.064  21.390   8.264
 1611POPC   C3A23057  26.055  21.364   7.964
 1611POPC   C4A23058  26.085  21.399   7.664
 1611POPC   C1B23059  26.012  21.139   8.564
 1611POPC   C2B23060  25.962  21.132   8.264
 1611POPC   C3B23061  26.022  21.190   7.964
 1611POPC   C4B23062  25.988  21.175   7.664
 1612POPC   NC323063  37.721  43.065   9.464
 1612POPC   PO423064  37.658  43.107   9.164
 1612POPC   GL123065  37.631  43.126   8.864
 1612POPC   GL223066  37.835  43.097   8.864
 1612POPC   C1A23067  37.678  43.097   8.564
 1612POPC   D2A23068  37.681  43.160   8.264
 1612POPC   C3A23069  37.718  43.150   7.964
 1612POPC   C4A23070  37.629  43.143   7.664
 1612POPC   C1B23071  37.967  43.009   8.564
 1612POPC   C2B23072  37.901  43.078   8.264
 1612POPC   C3B23073  37.890  43.016   7.964
 1612POPC   C4B23074  37.913  42.986   7.664
 1613POPC   NC323075  12.113  22.921   9.464
 1613POPC   PO423076  12.034  22.958   9.164
 1613POPC   GL123077  12.118  22.956   8.864
 1613POPC   GL223078  11.948  22.910   8.864
 1613POPC   C1A23079  12.032  22.901   8.564
 1613POPC   D2A23080  12.081  22.894   8.264
 1613POPC   C3A23081  12.053  22.937   7.964
 1613POPC   C4A23082  12.046  22.927   7.664
 1613POPC   C1B23083  11.864  22.872   8.564
 1613POPC   C2B23084  11.813  22.904   8.264
 1613POPC   C3B23085  11.784  22.856   7.964
 1613POPC   C4B23086  11.847  22.914   7.664
 1614POPC   NC323087  36.174  26.773   9.464
 1614POPC   PO423088  36.141  26.787   9.164
 1614POPC   GL123089  36.149  26.841   8.864
 1614POPC   GL223090  35.962  26.770   8.864
 1614POPC   C1A23091  36.132  26.782   8.564
 1614POPC   D2A23092  36.118  26.839   8.264
 1614POPC   C3A23093  36.090  26.813   7.964
 1614POPC   C4A23094  36.130  26.769   7.664
 1614POPC   C1B23095  35.941  26.737   8.564
 1614POPC   C2B23096  35.908  26.727   8.264
 1614POPC   C3B23097  35.919  26.774   7.964
 1614POPC   C4B23098  35.926  26.765   7.664
 1615POPC   NC323099  39.994  39.193   9.464
 1615POPC   PO423100  40.050  39.231   9.164
 1615POPC   GL123101  40.028  39.198   8.864
 1615POPC   GL223102  40.167  39.318   8.864
 1615POPC   C1A23103  39.992  39.188   8.564
 1615POPC   D2A23104  40.006  39.197   8.264
 1615POPC   C3A23105  39.959  39.235   7.964
 1615POPC   C4A23106  40.032  39.229   7.664
 1615POPC   C1B23107  40.240  39.346   8.564
 1615POPC   C2B23108  40.235  39.351   8.264
 1615POPC   C3B23109  40.180  39.391   7.964
 1615POPC   C4B23110  40.213  39.393   7.664
 1616POPC   NC323111  17.539  12.077   9.464
 1616POPC   PO423112  17.556  12.115   9.164
 1616POPC   GL123113  17.514  12.087   8.864
 1616POPC   GL223114  17.340  12.082   8.864
 1616POPC   C1A23115  17.539  12.040   8.564
 1616POPC   D2A23116  17.467  12.092   8.264
 1616POPC   C3A23117  17.537  12.056   7.964
 1616POPC   C4A23118  17.466  12.075   7.664
 1616POPC   C1B23119  17.272  12.094   8.564
 1616POPC   C2B23120  17.284  12.023   8.264
 1616POPC   C3B23121  17.208  12.064   7.964
 1616POPC   C4B23122  17.277  12.062   7.664
 1617POPC   NC323123   2.020  19.094   9.464
 1617POPC   PO423124   1.972  19.083   9.164
 1617POPC   GL123125   1.988  19.034   8.864
 1617POPC   GL223126   2.016  19.147   8.864
 1617POPC   C1A23127   1.951  19.063   8.564
 1617POPC   D2A23128   1.950  19.020   8.264
 1617POPC   C3A23129   1.978  19.017   7.964
 1617POPC   C4A23130   2.021  19.106   7.664
 1617POPC   C1B23131   2.001  19.326   8.564
 1617POPC   C2B23132   2.018  19.345   8.264
 1617POPC   C3B23133   2.018  19.346   7.964
 1617POPC   C4B23134   2.030  19.294   7.664
 1618POPC   NC323135  32.230   8.999   9.464
 1618POPC   PO423136  32.229   8.995   9.164
 1618POPC   GL123137  32.227   8.924   8.864
 1618POPC   GL223138  32.224   9.068   8.864
 1618POPC   C1A23139  32.209   8.935   8.564
 1618POPC   D2A23140  32.219   8.986   8.264
 1618POPC   C3A23141  32.214   8.977   7.964
 1618POPC   C4A23142  32.296   9.011   7.664
 1618POPC   C1B23143  32.209   9.160   8.564
 1618POPC   C2B23144  32.203   9.209   8.264
 1618POPC   C3B23145  32.144   9.188   7.964
 1618POPC   C4B23146  32.143   9.247   7.664
 1619POPC   NC323147   8.991  12.111   9.464
 1619POPC   PO423148   8.928  12.079   9.164
 1619POPC   GL123149   8.975  12.058   8.864
 1619POPC   GL223150   8.933  12.213   8.864
 1619POPC   C1A23151   9.009  12.082   8.564
 1619POPC   D2A23152   9.015  12.035   8.264
 1619POPC   C3A23153   8.984  12.115   7.964
 1619POPC   C4A23154   9.018  12.040   7.664
 1619POPC   C1B23155   8.911  12.350   8.564
 1619POPC   C2B23156   8.909  12.321   8.264
 1619POPC   C3B23157   8.922  12.366   7.964
 1619POPC   C4B23158   8.936  12.278   7.664
 1620POPC   NC323159  40.795  43.147   9.464
 1620POPC   PO423160  40.744  43.089   9.164
 1620POPC   GL123161  40.815  43.126   8.864
 1620POPC   GL223162  40.888  43.133   8.864
 1620POPC   C1A23163  40.790  43.150   8.564
 1620POPC   D2A23164  40.738  43.154   8.264
 1620POPC   C3A23165  40.766  43.108   7.964
 1620POPC   C4A23166  40.807  43.071   7.664
 1620POPC   C1B23167  41.068  43.189   8.564
 1620POPC   C2B23168  41.042  43.171   8.264
 1620POPC   C3B23169  41.073  43.175   7.964
 1620POPC   C4B23170  41.065  43.218   7.664
 1621POPC   NC323171  33.050  10.535   9.464
 1621POPC   PO423172  33.069  10.571   9.164
 1621POPC   GL123173  33.045  10.489   8.864
 1621POPC   GL223174  33.011  10.372   8.864
 1621POPC   C1A23175  33.069  10.501   8.564
 1621POPC   D2A23176  33.003  10.506   8.264
 1621POPC   C3A23177  33.006  10.477   7.964
 1621POPC   C4A23178  33.058  10.562   7.664
 1621POPC   C1B23179  32.916  10.314   8.564
 1621POPC   C2B23180  32.884  10.333   8.264
 1621POPC   C3B23181  32.882  10.254   7.964
 1621POPC   C4B23182  32.911  10.321   7.664
 1622POPC   NC323183  12.112  43.915   9.464
 1622POPC   PO423184  12.089  43.869   9.164
 1622POPC   GL123185  12.073  43.864   8.864
 1622POPC   GL223186  11.963  43.920   8.864
 1622POPC   C1A23187  12.053  43.901   8.564
 1622POPC   D2A23188  12.037  43.853   8.264
 1622POPC   C3A23189  12.067  43.904   7.964
 1622POPC   C4A23190  12.037  43.932   7.664
 1622POPC   C1B23191  11.810  44.005   8.564
 1622POPC   C2B23192  11.848  43.957   8.264
 1622POPC   C3B23193  11.799  44.027   7.964
 1622POPC   C4B23194  11.857  43.948   7.664
 1623POPC   NC323195  36.127  44.639   9.464
 1623POPC   PO423196  36.081  44.699   9.164
 1623POPC   GL123197  36.103  44.704   8.864
 1623POPC   GL223198  36.056  44.769   8.864
 1623POPC   C1A23199  36.080  44.631   8.564
 1623POPC   D2A23200  36.107  44.663   8.264
 1623POPC   C3A23201  36.130  44.685   7.964
 1623POPC   C4A23202  36.114  44.680   7.664
 1623POPC   C1B23203  36.001  44.866   8.564
 1623POPC   C2B23204  36.005  44.901   8.264
 1623POPC   C3B23205  36.049  44.860   7.964
 1623POPC   C4B23206  36.065  44.866   7.664
 1624POPC   NC323207  22.151  42.334   9.464
 1624POPC   PO423208  22.177  42.315   9.164
 1624POPC   GL123209  22.117  42.331   8.864
 1624POPC   GL223210  22.279  42.294   8.864
 1624POPC   C1A23211  22.180  42.378   8.564
 1624POPC   D2A23212  22.131  42.380   8.264
 1624POPC   C3A23213  22.155  42.299   7.964
 1624POPC   C4A23214  22.165  42.384   7.664
 1624POPC   C1B23215  22.395  42.307   8.564
 1624POPC   C2B23216  22.389  42.288   8.264
 1624POPC   C3B23217  22.366  42.341   7.964
 1624POPC   C4B23218  22.395  42.309   7.664
 1625POPC   NC323219  38.460  29.118   9.464
 1625POPC   PO423220  38.494  29.130   9.164
 1625POPC   GL123221  38.465  29.107   8.864
 1625POPC   GL223222  38.580  29.148   8.864
 1625POPC   C1A23223  38.473  29.185   8.564
 1625POPC   D2A23224  38.456  29.134   8.264
 1625POPC   C3A23225  38.458  29.123   7.964
 1625POPC   C4A23226  38.448  29.113   7.664
 1625POPC   C1B23227  38.655  29.107   8.564
 1625POPC   C2B23228  38.676  29.097   8.264
 1625POPC   C3B23229  38.685  29.118   7.964
 1625POPC   C4B23230  38.699  29.143   7.664
 1626POPC   NC323231  32.253  40.806   9.464
 1626POPC   PO423232  32.208  40.791   9.164
 1626POPC   GL123233  32.242  40.780   8.864
 1626POPC   GL223234  32.178  40.697   8.864
 1626POPC   C1A23235  32.243  40.781   8.564
 1626POPC   D2A23236  32.272  40.798   8.264
 1626POPC   C3A23237  32.225  40.825   7.964
 1626POPC   C4A23238  32.253  40.766   7.664
 1626POPC   C1B23239  32.065  40.707   8.564
 1626POPC   C2B23240  31.997  40.686   8.264
 1626POPC   C3B23241  32.044  40.718   7.964
 1626POPC   C4B23242  32.003  40.665   7.664
 1627POPC   NC323243  39.993   2.737   9.464
 1627POPC   PO423244  40.028   2.814   9.164
 1627POPC   GL123245  40.052   2.774   8.864
 1627POPC   GL223246  39.976   2.601   8.864
 1627POPC   C1A23247  40.003   2.768   8.564
 1627POPC   D2A23248  39.962   2.799   8.264
 1627POPC   C3A23249  40.006   2.812   7.964
 1627POPC   C4A23250  39.974   2.794   7.664
 1627POPC   C1B23251  40.019   2.476   8.564
 1627POPC   C2B23252  40.050   2.509   8.264
 1627POPC   C3B23253  40.016   2.524   7.964
 1627POPC   C4B23254  40.077   2.478   7.664
 1628POPC   NC323255  17.533  35.317   9.464
 1628POPC   PO423256  17.458  35.356   9.164
 1628POPC   GL123257  17.506  35.363   8.864
 1628POPC   GL223258  17.517  35.464   8.864
 1628POPC   C1A23259  17.515  35.364   8.564
 1628POPC   D2A23260  17.467  35.329   8.264
 1628POPC   C3A23261  17.514  35.317   7.964
 1628POPC   C4A23262  17.545  35.336   7.664
 1628POPC   C1B23263  17.434  35.593   8.564
 1628POPC   C2B23264  17.494  35.567   8.264
 1628POPC   C3B23265  17.468  35.551   7.964
 1628POPC   C4B23266  17.432  35.632   7.664
 1629POPC   NC323267   1.235  36.940   9.464
 1629POPC   PO423268   1.205  36.910   9.164
 1629POPC   GL123269   1.221  36.902   8.864
 1629POPC   GL223270   1.100  36.854   8.864
 1629POPC   C1A23271   1.254  36.929   8.564
 1629POPC   D2A23272   1.219  36.951   8.264
 1629POPC   C3A23273   1.258  36.883   7.964
 1629POPC   C4A23274   1.212  36.904   7.664
 1629POPC   C1B23275   1.064  36.785   8.564
 1629POPC   C2B23276   1.066  36.727   8.264
 1629POPC   C3B23277   1.067  36.771   7.964
 1629POPC   C4B23278   1.053  36.723   7.664
 1630POPC   NC323279  44.681  38.493   9.464
 1630POPC   PO423280  44.694  38.446   9.164
 1630POPC   GL123281  44.679  38.491   8.864
 1630POPC   GL223282  44.709  38.616   8.864
 1630POPC   C1A23283  44.699  38.492   8.564
 1630POPC   D2A23284  44.676  38.480   8.264
 1630POPC   C3A23285  44.658  38.466   7.964
 1630POPC   C4A23286  44.638  38.451   7.664
 1630POPC   C1B23287  44.695  38.745   8.564
 1630POPC   C2B23288  44.710  38.724   8.264
 1630POPC   C3B23289  44.693  38.704   7.964
 1630POPC   C4B23290  44.651  38.720   7.664
 1631POPC   NC323291  34.548  36.152   9.464
 1631POPC   PO423292  34.573  36.113   9.164
 1631POPC   GL123293  34.536  36.175   8.864
 1631POPC   GL223294  34.494  36.211   8.864
 1631POPC   C1A23295  34.610  36.080   8.564
 1631POPC   D2A23296  34.550  36.151   8.264
 1631POPC   C3A23297  34.535  36.156   7.964
 1631POPC   C4A23298  34.529  36.105   7.664
 1631POPC   C1B23299  34.401  36.288   8.564
 1631POPC   C2B23300  34.400  36.328   8.264
 1631POPC   C3B23301  34.408  36.301   7.964
 1631POPC   C4B23302  34.471  36.332   7.664
 1632POPC   NC323303  32.975   9.738   9.464
 1632POPC   PO423304  33.045   9.784   9.164
 1632POPC   GL123305  33.024   9.743   8.864
 1632POPC   GL223306  32.936   9.814   8.864
 1632POPC   C1A23307  32.989   9.751   8.564
 1632POPC   D2A23308  33.036   9.742   8.264
 1632POPC   C3A23309  33.033   9.781   7.964
 1632POPC   C4A23310  33.064   9.750   7.664
 1632POPC   C1B23311  32.752   9.833   8.564
 1632POPC   C2B23312  32.827   9.803   8.264
 1632POPC   C3B23313  32.770   9.793   7.964
 1632POPC   C4B23314  32.797   9.742   7.664
 1633POPC   NC323315   8.235  19.016   9.464
 1633POPC   PO423316   8.231  19.064   9.164
 1633POPC   GL123317   8.176  19.030   8.864
 1633POPC   GL223318   8.131  18.968   8.864
 1633POPC   C1A23319   8.163  19.092   8.564
 1633POPC   D2A23320   8.219  19.043   8.264
 1633POPC   C3A23321   8.218  19.038   7.964
 1633POPC   C4A23322   8.152  19.050   7.664
 1633POPC   C1B23323   8.046  18.845   8.564
 1633POPC   C2B23324   8.063  18.857   8.264
 1633POPC   C3B23325   8.068  18.872   7.964
 1633POPC   C4B23326   8.054  18.814   7.664
 1634POPC   NC323327  34.617  37.709   9.464
 1634POPC   PO423328  34.542  37.657   9.164
 1634POPC   GL123329  34.536  37.660   8.864
 1634POPC   GL223330  34.431  37.621   8.864
 1634POPC   C1A23331  34.548  37.650   8.564
 1634POPC   D2A23332  34.618  37.661   8.264
 1634POPC   C3A23333  34.567  37.690   7.964
 1634POPC   C4A23334  34.599  37.673   7.664
 1634POPC   C1B23335  34.284  37.656   8.564
 1634POPC   C2B23336  34.294  37.692   8.264
 1634POPC   C3B23337  34.303  37.660   7.964
 1634POPC   C4B23338  34.355  37.617   7.664
 1635POPC   NC323339  23.732  11.261   9.464
 1635POPC   PO423340  23.737  11.332   9.164
 1635POPC   GL123341  23.674  11.313   8.864
 1635POPC   GL223342  23.810  11.319   8.864
 1635POPC   C1A23343  23.733  11.333   8.564
 1635POPC   D2A23344  23.677  11.290   8.264
 1635POPC   C3A23345  23.684  11.279   7.964
 1635POPC   C4A23346  23.741  11.320   7.664
 1635POPC   C1B23347  23.984  11.436   8.564
 1635POPC   C2B23348  23.922  11.396   8.264
 1635POPC   C3B23349  23.928  11.391   7.964
 1635POPC   C4B23350  23.939  11.344   7.664
 1636POPC   NC323351   4.348  12.112   9.464
 1636POPC   PO423352   4.332  12.068   9.164
 1636POPC   GL123353   4.301  12.102   8.864
 1636POPC   GL223354   4.387  12.180   8.864
 1636POPC   C1A23355   4.334  12.088   8.564
 1636POPC   D2A23356   4.358  12.115   8.264
 1636POPC   C3A23357   4.357  12.059   7.964
 1636POPC   C4A23358   4.297  12.121   7.664
 1636POPC   C1B23359   4.377  12.287   8.564
 1636POPC   C2B23360   4.440  12.284   8.264
 1636POPC   C3B23361   4.365  12.291   7.964
 1636POPC   C4B23362   4.402  12.266   7.664
 1637POPC   NC323363   4.321   9.776   9.464
 1637POPC   PO423364   4.346   9.798   9.164
 1637POPC   GL123365   4.270   9.746   8.864
 1637POPC   GL223366   4.462   9.806   8.864
 1637POPC   C1A23367   4.290   9.776   8.564
 1637POPC   D2A23368   4.294   9.731   8.264
 1637POPC   C3A23369   4.330   9.716   7.964
 1637POPC   C4A23370   4.332   9.772   7.664
 1637POPC   C1B23371   4.516   9.857   8.564
 1637POPC   C2B23372   4.476   9.940   8.264
 1637POPC   C3B23373   4.512   9.891   7.964
 1637POPC   C4B23374   4.497   9.933   7.664
 1638POPC   NC323375   4.313  28.380   9.464
 1638POPC   PO423376   4.328  28.378   9.164
 1638POPC   GL123377   4.344  28.351   8.864
 1638POPC   GL223378   4.238  28.313   8.864
 1638POPC   C1A23379   4.283  28.414   8.564
 1638POPC   D2A23380   4.284  28.373   8.264
 1638POPC   C3A23381   4.343  28.371   7.964
 1638POPC   C4A23382   4.342  28.369   7.664
 1638POPC   C1B23383   4.056  28.296   8.564
 1638POPC   C2B23384   4.072  28.233   8.264
 1638POPC   C3B23385   4.050  28.252   7.964
 1638POPC   C4B23386   4.111  28.304   7.664
 1639POPC   NC323387  33.024  14.430   9.464
 1639POPC   PO423388  33.049  14.452   9.164
 1639POPC   GL123389  33.040  14.422   8.864
 1639POPC   GL223390  33.053  14.290   8.864
 1639POPC   C1A23391  33.043  14.365   8.564
 1639POPC   D2A23392  33.024  14.371   8.264
 1639POPC   C3A23393  33.032  14.446   7.964
 1639POPC   C4A23394  33.056  14.383   7.664
 1639POPC   C1B23395  33.016  14.169   8.564
 1639POPC   C2B23396  33.090  14.194   8.264
 1639POPC   C3B23397  33.070  14.169   7.964
 1639POPC   C4B23398  33.053  14.186   7.664
 1640POPC   NC323399   5.825  30.732   9.464
 1640POPC   PO423400   5.875  30.693   9.164
 1640POPC   GL123401   5.879  30.728   8.864
 1640POPC   GL223402   5.790  30.832   8.864
 1640POPC   C1A23403   5.901  30.708   8.564
 1640POPC   D2A23404   5.843  30.665   8.264
 1640POPC   C3A23405   5.870  30.696   7.964
 1640POPC   C4A23406   5.847  30.688   7.664
 1640POPC   C1B23407   5.729  30.931   8.564
 1640POPC   C2B23408   5.666  30.925   8.264
 1640POPC   C3B23409   5.706  30.911   7.964
 1640POPC   C4B23410   5.673  30.936   7.664
 1641POPC   NC323411  24.511   2.725   9.464
 1641POPC   PO423412  24.467   2.809   9.164
 1641POPC   GL123413  24.533   2.743   8.864
 1641POPC   GL223414  24.429   2.649   8.864
 1641POPC   C1A23415  24.513   2.788   8.564
 1641POPC   D2A23416  24.499   2.812   8.264
 1641POPC   C3A23417  24.539   2.756   7.964
 1641POPC   C4A23418  24.470   2.760   7.664
 1641POPC   C1B23419  24.304   2.572   8.564
 1641POPC   C2B23420  24.283   2.579   8.264
 1641POPC   C3B23421  24.345   2.550   7.964
 1641POPC   C4B23422  24.296   2.556   7.664
 1642POPC   NC323423  12.868   2.740   9.464
 1642POPC   PO423424  12.859   2.750   9.164
 1642POPC   GL123425  12.819   2.737   8.864
 1642POPC   GL223426  12.801   2.849   8.864
 1642POPC   C1A23427  12.857   2.726   8.564
 1642POPC   D2A23428  12.845   2.766   8.264
 1642POPC   C3A23429  12.873   2.723   7.964
 1642POPC   C4A23430  12.813   2.753   7.664
 1642POPC   C1B23431  12.677   2.975   8.564
 1642POPC   C2B23432  12.653   2.924   8.264
 1642POPC   C3B23433  12.665   2.910   7.964
 1642POPC   C4B23434  12.659   2.886   7.664
 1643POPC   NC323435  24.500  19.029   9.464
 1643POPC   PO423436  24.443  19.071   9.164
 1643POPC   GL123437  24.536  19.052   8.864
 1643POPC   GL223438  24.566  19.184   8.864
 1643POPC   C1A23439  24.527  19.086   8.564
 1643POPC   D2A23440  24.539  19.070   8.264
 1643POPC   C3A23441  24.458  19.027   7.964
 1643POPC   C4A23442  24.531  19.031   7.664
 1643POPC   C1B23443  24.602  19.285   8.564
 1643POPC   C2B23444  24.551  19.341   8.264
 1643POPC   C3B23445  24.613  19.302   7.964
 1643POPC   C4B23446  24.592  19.309   7.664
 1644POPC   NC323447  12.813   9.720   9.464
 1644POPC   PO423448  12.816   9.771   9.164
 1644POPC   GL123449  12.882   9.754   8.864
 1644POPC   GL223450  12.959   9.857   8.864
 1644POPC   C1A23451  12.884   9.708   8.564
 1644POPC   D2A23452  12.828   9.710   8.264
 1644POPC   C3A23453  12.826   9.754   7.964
 1644POPC   C4A23454  12.876   9.795   7.664
 1644POPC   C1B23455  13.045   9.944   8.564
 1644POPC   C2B23456  13.018   9.935   8.264
 1644POPC   C3B23457  13.023   9.952   7.964
 1644POPC   C4B23458  13.037   9.943   7.664
 1645POPC   NC323459   2.025  20.569   9.464
 1645POPC   PO423460   1.991  20.613   9.164
 1645POPC   GL123461   1.992  20.602   8.864
 1645POPC   GL223462   1.912  20.523   8.864
 1645POPC   C1A23463   1.958  20.623   8.564
 1645POPC   D2A23464   1.951  20.597   8.264
 1645POPC   C3A23465   1.989  20.605   7.964
 1645POPC   C4A23466   1.989  20.658   7.664
 1645POPC   C1B23467   1.779  20.419   8.564
 1645POPC   C2B23468   1.828  20.492   8.264
 1645POPC   C3B23469   1.791  20.490   7.964
 1645POPC   C4B23470   1.753  20.446   7.664
 1646POPC   NC323471  14.416  34.618   9.464
 1646POPC   PO423472  14.354  34.573   9.164
 1646POPC   GL123473  14.438  34.576   8.864
 1646POPC   GL223474  14.361  34.674   8.864
 1646POPC   C1A23475  14.354  34.575   8.564
 1646POPC   D2A23476  14.413  34.618   8.264
 1646POPC   C3A23477  14.393  34.560   7.964
 1646POPC   C4A23478  14.392  34.529   7.664
 1646POPC   C1B23479  14.437  34.840   8.564
 1646POPC   C2B23480  14.356  34.835   8.264
 1646POPC   C3B23481  14.428  34.803   7.964
 1646POPC   C4B23482  14.452  34.806   7.664
 1647POPC   NC323483  37.706  16.726   9.464
 1647POPC   PO423484  37.647  16.744   9.164
 1647POPC   GL123485  37.689  16.696   8.864
 1647POPC   GL223486  37.626  16.668   8.864
 1647POPC   C1A23487  37.641  16.780   8.564
 1647POPC   D2A23488  37.696  16.781   8.264
 1647POPC   C3A23489  37.687  16.756   7.964
 1647POPC   C4A23490  37.722  16.711   7.664
 1647POPC   C1B23491  37.561  16.537   8.564
 1647POPC   C2B23492  37.523  16.527   8.264
 1647POPC   C3B23493  37.508  16.553   7.964
 1647POPC   C4B23494  37.527  16.555   7.664
 1648POPC   NC323495  35.356  36.152   9.464
 1648POPC   PO423496  35.312  36.125   9.164
 1648POPC   GL123497  35.385  36.122   8.864
 1648POPC   GL223498  35.376  36.015   8.864
 1648POPC   C1A23499  35.336  36.136   8.564
 1648POPC   D2A23500  35.333  36.165   8.264
 1648POPC   C3A23501  35.354  36.104   7.964
 1648POPC   C4A23502  35.351  36.159   7.664
 1648POPC   C1B23503  35.503  35.855   8.564
 1648POPC   C2B23504  35.466  35.910   8.264
 1648POPC   C3B23505  35.445  35.883   7.964
 1648POPC   C4B23506  35.471  35.873   7.664
 1649POPC   NC323507   7.444  21.408   9.464
 1649POPC   PO423508   7.393  21.405   9.164
 1649POPC   GL123509   7.378  21.430   8.864
 1649POPC   GL223510   7.455  21.313   8.864
 1649POPC   C1A23511   7.446  21.407   8.564
 1649POPC   D2A23512   7.463  21.368   8.264
 1649POPC   C3A23513   7.415  21.386   7.964
 1649POPC   C4A23514   7.449  21.422   7.664
 1649POPC   C1B23515   7.578  21.173   8.564
 1649POPC   C2B23516   7.540  21.139   8.264
 1649POPC   C3B23517   7.544  21.140   7.964
 1649POPC   C4B23518   7.512  21.202   7.664
 1650POPC   NC323519  26.011  27.556   9.464
 1650POPC   PO423520  25.998  27.635   9.164
 1650POPC   GL123521  26.024  27.561   8.864
 1650POPC   GL223522  25.939  27.610   8.864
 1650POPC   C1A23523  26.079  27.611   8.564
 1650POPC   D2A23524  26.051  27.550   8.264
 1650POPC   C3A23525  26.074  27.601   7.964
 1650POPC   C4A23526  25.999  27.639   7.664
 1650POPC   C1B23527  25.780  27.667   8.564
 1650POPC   C2B23528  25.773  27.706   8.264
 1650POPC   C3B23529  25.849  27.705   7.964
 1650POPC   C4B23530  25.848  27.719   7.664
 1651POPC   NC323531   2.788  24.527   9.464
 1651POPC   PO423532   2.739  24.506   9.164
 1651POPC   GL123533   2.733  24.482   8.864
 1651POPC   GL223534   2.903  24.426   8.864
 1651POPC   C1A23535   2.733  24.512   8.564
 1651POPC   D2A23536   2.740  24.525   8.264
 1651POPC   C3A23537   2.719  24.445   7.964
 1651POPC   C4A23538   2.807  24.472   7.664
 1651POPC   C1B23539   3.028  24.324   8.564
 1651POPC   C2B23540   2.967  24.361   8.264
 1651POPC   C3B23541   3.021  24.397   7.964
 1651POPC   C4B23542   3.003  24.381   7.664
 1652POPC   NC323543  23.737  13.625   9.464
 1652POPC   PO423544  23.725  13.596   9.164
 1652POPC   GL123545  23.736  13.591   8.864
 1652POPC   GL223546  23.651  13.703   8.864
 1652POPC   C1A23547  23.673  13.675   8.564
 1652POPC   D2A23548  23.686  13.673   8.264
 1652POPC   C3A23549  23.696  13.674   7.964
 1652POPC   C4A23550  23.698  13.579   7.664
 1652POPC   C1B23551  23.539  13.767   8.564
 1652POPC   C2B23552  23.501  13.824   8.264
 1652POPC   C3B23553  23.468  13.772   7.964
 1652POPC   C4B23554  23.545  13.764   7.664
 1653POPC   NC323555   8.937  19.024   9.464
 1653POPC   PO423556   8.935  19.020   9.164
 1653POPC   GL123557   8.936  19.094   8.864
 1653POPC   GL223558   8.861  19.015   8.864
 1653POPC   C1A23559   8.970  19.032   8.564
 1653POPC   D2A23560   8.984  19.014   8.264
 1653POPC   C3A23561   8.981  19.082   7.964
 1653POPC   C4A23562   8.972  19.078   7.664
 1653POPC   C1B23563   8.774  18.948   8.564
 1653POPC   C2B23564   8.749  18.936   8.264
 1653POPC   C3B23565   8.780  18.858   7.964
 1653POPC   C4B23566   8.734  18.856   7.664
 1654POPC   NC323567  14.420  32.983   9.464
 1654POPC   PO423568  14.405  33.070   9.164
 1654POPC   GL123569  14.362  33.021   8.864
 1654POPC   GL223570  14.441  32.958   8.864
 1654POPC   C1A23571  14.381  33.053   8.564
 1654POPC   D2A23572  14.431  33.065   8.264
 1654POPC   C3A23573  14.425  33.010   7.964
 1654POPC   C4A23574  14.416  33.001   7.664
 1654POPC   C1B23575  14.599  32.873   8.564
 1654POPC   C2B23576  14.587  32.836   8.264
 1654POPC   C3B23577  14.603  32.881   7.964
 1654POPC   C4B23578  14.578  32.838   7.664
 1655POPC   NC323579   0.459   8.969   9.464
 1655POPC   PO423580   0.408   9.018   9.164
 1655POPC   GL123581   0.399   9.015   8.864
 1655POPC   GL223582   0.492   9.107   8.864
 1655POPC   C1A23583   0.396   8.922   8.564
 1655POPC   D2A23584   0.455   8.972   8.264
 1655POPC   C3A23585   0.481   8.992   7.964
 1655POPC   C4A23586   0.474   8.937   7.664
 1655POPC   C1B23587   0.557   9.215   8.564
 1655POPC   C2B23588   0.584   9.225   8.264
 1655POPC   C3B23589   0.604   9.172   7.964
 1655POPC   C4B23590   0.520   9.185   7.664
 1656POPC   NC323591  32.293  26.832   9.464
 1656POPC   PO423592  32.247  26.859   9.164
 1656POPC   GL123593  32.251  26.768   8.864
 1656POPC   GL223594  32.233  26.905   8.864
 1656POPC   C1A23595  32.272  26.846   8.564
 1656POPC   D2A23596  32.249  26.829   8.264
 1656POPC   C3A23597  32.224  26.849   7.964
 1656POPC   C4A23598  32.249  26.809   7.664
 1656POPC   C1B23599  32.242  27.111   8.564
 1656POPC   C2B23600  32.219  27.057   8.264
 1656POPC   C3B23601  32.193  27.076   7.964
 1656POPC   C4B23602  32.268  27.028   7.664
 1657POPC   NC323603   2.721   9.708   9.464
 1657POPC   PO423604   2.726   9.721   9.164
 1657POPC   GL123605   2.722   9.706   8.864
 1657POPC   GL223606   2.772   9.611   8.864
 1657POPC   C1A23607   2.738   9.706   8.564
 1657POPC   D2A23608   2.798   9.777   8.264
 1657POPC   C3A23609   2.721   9.736   7.964
 1657POPC   C4A23610   2.754   9.713   7.664
 1657POPC   C1B23611   2.802   9.514   8.564
 1657POPC   C2B23612   2.783   9.456   8.264
 1657POPC   C3B23613   2.821   9.478   7.964
 1657POPC   C4B23614   2.824   9.552   7.664
 1658POPC   NC323615  23.734  38.429   9.464
 1658POPC   PO423616  23.723  38.455   9.164
 1658POPC   GL123617  23.743  38.433   8.864
 1658POPC   GL223618  23.703  38.357   8.864
 1658POPC   C1A23619  23.677  38.428   8.564
 1658POPC   D2A23620  23.699  38.422   8.264
 1658POPC   C3A23621  23.744  38.499   7.964
 1658POPC   C4A23622  23.714  38.454   7.664
 1658POPC   C1B23623  23.637  38.177   8.564
 1658POPC   C2B23624  23.611  38.195   8.264
 1658POPC   C3B23625  23.688  38.189   7.964
 1658POPC   C4B23626  23.684  38.181   7.664
 1659POPC   NC323627   1.184  22.169   9.464
 1659POPC   PO423628   1.199  22.120   9.164
 1659POPC   GL123629   1.252  22.184   8.864
 1659POPC   GL223630   1.175  22.032   8.864
 1659POPC   C1A23631   1.201  22.195   8.564
 1659POPC   D2A23632   1.177  22.131   8.264
 1659POPC   C3A23633   1.219  22.206   7.964
 1659POPC   C4A23634   1.199  22.205   7.664
 1659POPC   C1B23635   1.039  21.992   8.564
 1659POPC   C2B23636   1.082  21.933   8.264
 1659POPC   C3B23637   1.087  21.977   7.964
 1659POPC   C4B23638   1.055  21.971   7.664
 1660POPC   NC323639  40.007   5.114   9.464
 1660POPC   PO423640  40.029   5.136   9.164
 1660POPC   GL123641  39.981   5.086   8.864
 1660POPC   GL223642  40.025   5.008   8.864
 1660POPC   C1A23643  40.011   5.074   8.564
 1660POPC   D2A23644  40.046   5.071   8.264
 1660POPC   C3A23645  40.053   5.056   7.964
 1660POPC   C4A23646  40.055   5.070   7.664
 1660POPC   C1B23647  40.155   4.857   8.564
 1660POPC   C2B23648  40.094   4.909   8.264
 1660POPC   C3B23649  40.092   4.834   7.964
 1660POPC   C4B23650  40.146   4.912   7.664
 1661POPC   NC323651  31.458  16.725   9.464
 1661POPC   PO423652  31.499  16.746   9.164
 1661POPC   GL123653  31.438  16.742   8.864
 1661POPC   GL223654  31.634  16.757   8.864
 1661POPC   C1A23655  31.431  16.737   8.564
 1661POPC   D2A23656  31.481  16.759   8.264
 1661POPC   C3A23657  31.431  16.686   7.964
 1661POPC   C4A23658  31.472  16.737   7.664
 1661POPC   C1B23659  31.708  16.776   8.564
 1661POPC   C2B23660  31.668  16.831   8.264
 1661POPC   C3B23661  31.732  16.783   7.964
 1661POPC   C4B23662  31.668  16.818   7.664
 1662POPC   NC323663  32.274  33.850   9.464
 1662POPC   PO423664  32.284  33.772   9.164
 1662POPC   GL123665  32.201  33.837   8.864
 1662POPC   GL223666  32.092  33.734   8.864
 1662POPC   C1A23667  32.291  33.752   8.564
 1662POPC   D2A23668  32.295  33.810   8.264
 1662POPC   C3A23669  32.250  33.787   7.964
 1662POPC   C4A23670  32.253  33.801   7.664
 1662POPC   C1B23671  32.004  33.656   8.564
 1662POPC   C2B23672  32.002  33.670   8.264
 1662POPC   C3B23673  31.986  33.705   7.964
 1662POPC   C4B23674  32.034  33.704   7.664
 1663POPC   NC323675   2.761   8.979   9.464
 1663POPC   PO423676   2.806   8.957   9.164
 1663POPC   GL123677   2.761   8.926   8.864
 1663POPC   GL223678   2.718   9.134   8.864
 1663POPC   C1A23679   2.746   8.958   8.564
 1663POPC   D2A23680   2.733   8.995   8.264
 1663POPC   C3A23681   2.773   8.961   7.964
 1663POPC   C4A23682   2.744   8.938   7.664
 1663POPC   C1B23683   2.645   9.225   8.564
 1663POPC   C2B23684   2.695   9.200   8.264
 1663POPC   C3B23685   2.639   9.192   7.964
 1663POPC   C4B23686   2.639   9.189   7.664
 1664POPC   NC323687  40.021   3.505   9.464
 1664POPC   PO423688  39.975   3.517   9.164
 1664POPC   GL123689  39.993   3.549   8.864
 1664POPC   GL223690  40.024   3.630   8.864
 1664POPC   C1A23691  40.040   3.502   8.564
 1664POPC   D2A23692  39.969   3.540   8.264
 1664POPC   C3A23693  40.015   3.492   7.964
 1664POPC   C4A23694  39.962   3.563   7.664
 1664POPC   C1B23695  40.009   3.758   8.564
 1664POPC   C2B23696  40.065   3.781   8.264
 1664POPC   C3B23697  40.072   3.761   7.964
 1664POPC   C4B23698  40.033   3.815   7.664
 1665POPC   NC323699  36.096  11.323   9.464
 1665POPC   PO423700  36.158  11.350   9.164
 1665POPC   GL123701  36.167  11.251   8.864
 1665POPC   GL223702  36.236  11.249   8.864
 1665POPC   C1A23703  36.166  11.285   8.564
 1665POPC   D2A23704  36.091  11.299   8.264
 1665POPC   C3A23705  36.171  11.347   7.964
 1665POPC   C4A23706  36.135  11.256   7.664
 1665POPC   C1B23707  36.295  11.155   8.564
 1665POPC   C2B23708  36.321  11.106   8.264
 1665POPC   C3B23709  36.282  11.098   7.964
 1665POPC   C4B23710  36.245  11.131   7.664
 1666POPC   NC323711   7.392  13.644   9.464
 1666POPC   PO423712   7.421  13.609   9.164
 1666POPC   GL123713   7.441  13.666   8.864
 1666POPC   GL223714   7.501  13.556   8.864
 1666POPC   C1A23715   7.433  13.594   8.564
 1666POPC   D2A23716   7.407  13.604   8.264
 1666POPC   C3A23717   7.373  13.637   7.964
 1666POPC   C4A23718   7.409  13.651   7.664
 1666POPC   C1B23719   7.693  13.508   8.564
 1666POPC   C2B23720   7.610  13.544   8.264
 1666POPC   C3B23721   7.674  13.568   7.964
 1666POPC   C4B23722   7.670  13.547   7.664
 1667POPC   NC323723  12.071  39.236   9.464
 1667POPC   PO423724  12.035  39.250   9.164
 1667POPC   GL123725  12.125  39.245   8.864
 1667POPC   GL223726  11.932  39.317   8.864
 1667POPC   C1A23727  12.113  39.276   8.564
 1667POPC   D2A23728  12.079  39.225   8.264
 1667POPC   C3A23729  12.101  39.217   7.964
 1667POPC   C4A23730  12.063  39.258   7.664
 1667POPC   C1B23731  11.897  39.382   8.564
 1667POPC   C2B23732  11.854  39.399   8.264
 1667POPC   C3B23733  11.856  39.324   7.964
 1667POPC   C4B23734  11.908  39.336   7.664
 1668POPC   NC323735  24.463   3.519   9.464
 1668POPC   PO423736  24.480   3.547   9.164
 1668POPC   GL123737  24.475   3.523   8.864
 1668POPC   GL223738  24.337   3.454   8.864
 1668POPC   C1A23739  24.478   3.500   8.564
 1668POPC   D2A23740  24.464   3.566   8.264
 1668POPC   C3A23741  24.485   3.538   7.964
 1668POPC   C4A23742  24.451   3.566   7.664
 1668POPC   C1B23743  24.215   3.498   8.564
 1668POPC   C2B23744  24.221   3.445   8.264
 1668POPC   C3B23745  24.258   3.486   7.964
 1668POPC   C4B23746  24.264   3.478   7.664
 1669POPC   NC323747  29.120  36.125   9.464
 1669POPC   PO423748  29.151  36.103   9.164
 1669POPC   GL123749  29.162  36.082   8.864
 1669POPC   GL223750  29.022  36.175   8.864
 1669POPC   C1A23751  29.132  36.144   8.564
 1669POPC   D2A23752  29.185  36.149   8.264
 1669POPC   C3A23753  29.181  36.085   7.964
 1669POPC   C4A23754  29.112  36.087   7.664
 1669POPC   C1B23755  29.002  36.355   8.564
 1669POPC   C2B23756  28.985  36.311   8.264
 1669POPC   C3B23757  28.938  36.306   7.964
 1669POPC   C4B23758  28.955  36.289   7.664
 1670POPC   NC323759  14.397  38.463   9.464
 1670POPC   PO423760  14.398  38.484   9.164
 1670POPC   GL123761  14.379  38.467   8.864
 1670POPC   GL223762  14.440  38.340   8.864
 1670POPC   C1A23763  14.425  38.480   8.564
 1670POPC   D2A23764  14.450  38.474   8.264
 1670POPC   C3A23765  14.423  38.461   7.964
 1670POPC   C4A23766  14.451  38.492   7.664
 1670POPC   C1B23767  14.572  38.259   8.564
 1670POPC   C2B23768  14.569  38.267   8.264
 1670POPC   C3B23769  14.561  38.258   7.964
 1670POPC   C4B23770  14.583  38.267   7.664
 1671POPC   NC323771  12.811   5.138   9.464
 1671POPC   PO423772  12.856   5.071   9.164
 1671POPC   GL123773  12.864   5.064   8.864
 1671POPC   GL223774  12.792   5.198   8.864
 1671POPC   C1A23775  12.856   5.090   8.564
 1671POPC   D2A23776  12.813   5.141   8.264
 1671POPC   C3A23777  12.821   5.052   7.964
 1671POPC   C4A23778  12.839   5.119   7.664
 1671POPC   C1B23779  12.774   5.341   8.564
 1671POPC   C2B23780  12.738   5.329   8.264
 1671POPC   C3B23781  12.731   5.317   7.964
 1671POPC   C4B23782  12.721   5.319   7.664
 1672POPC   NC323783  26.002   0.414   9.464
 1672POPC   PO423784  26.000   0.401   9.164
 1672POPC   GL123785  26.066   0.419   8.864
 1672POPC   GL223786  26.108   0.528   8.864
 1672POPC   C1A23787  26.026   0.402   8.564
 1672POPC   D2A23788  26.010   0.390   8.264
 1672POPC   C3A23789  26.071   0.412   7.964
 1672POPC   C4A23790  26.008   0.405   7.664
 1672POPC   C1B23791  26.238   0.569   8.564
 1672POPC   C2B23792  26.260   0.553   8.264
 1672POPC   C3B23793  26.232   0.561   7.964
 1672POPC   C4B23794  26.307   0.608   7.664
 1673POPC   NC323795  13.599  20.660   9.464
 1673POPC   PO423796  13.667  20.641   9.164
 1673POPC   GL123797  13.643  20.576   8.864
 1673POPC   GL223798  13.711  20.471   8.864
 1673POPC   C1A23799  13.610  20.591   8.564
 1673POPC   D2A23800  13.590  20.567   8.264
 1673POPC   C3A23801  13.618  20.643   7.964
 1673POPC   C4A23802  13.609  20.589   7.664
 1673POPC   C1B23803  13.827  20.460   8.564
 1673POPC   C2B23804  13.839  20.445   8.264
 1673POPC   C3B23805  13.837  20.465   7.964
 1673POPC   C4B23806  13.830  20.434   7.664
 1674POPC   NC323807  21.342  16.779   9.464
 1674POPC   PO423808  21.347  16.781   9.164
 1674POPC   GL123809  21.423  16.732   8.864
 1674POPC   GL223810  21.293  16.787   8.864
 1674POPC   C1A23811  21.359  16.752   8.564
 1674POPC   D2A23812  21.384  16.685   8.264
 1674POPC   C3A23813  21.399  16.708   7.964
 1674POPC   C4A23814  21.355  16.698   7.664
 1674POPC   C1B23815  21.172  16.871   8.564
 1674POPC   C2B23816  21.160  16.892   8.264
 1674POPC   C3B23817  21.177  16.881   7.964
 1674POPC   C4B23818  21.141  16.830   7.664
 1675POPC   NC323819   8.243   5.100   9.464
 1675POPC   PO423820   8.161   5.050   9.164
 1675POPC   GL123821   8.240   5.136   8.864
 1675POPC   GL223822   8.327   5.146   8.864
 1675POPC   C1A23823   8.204   5.089   8.564
 1675POPC   D2A23824   8.184   5.048   8.264
 1675POPC   C3A23825   8.178   5.073   7.964
 1675POPC   C4A23826   8.231   5.056   7.664
 1675POPC   C1B23827   8.406   5.180   8.564
 1675POPC   C2B23828   8.471   5.217   8.264
 1675POPC   C3B23829   8.454   5.190   7.964
 1675POPC   C4B23830   8.393   5.142   7.664
 1676POPC   NC323831   9.731   5.138   9.464
 1676POPC   PO423832   9.717   5.091   9.164
 1676POPC   GL123833   9.753   5.098   8.864
 1676POPC   GL223834   9.613   5.101   8.864
 1676POPC   C1A23835   9.782   5.116   8.564
 1676POPC   D2A23836   9.760   5.073   8.264
 1676POPC   C3A23837   9.765   5.140   7.964
 1676POPC   C4A23838   9.772   5.079   7.664
 1676POPC   C1B23839   9.506   5.154   8.564
 1676POPC   C2B23840   9.558   5.223   8.264
 1676POPC   C3B23841   9.507   5.174   7.964
 1676POPC   C4B23842   9.469   5.199   7.664
 1677POPC   NC323843  36.175  38.411   9.464
 1677POPC   PO423844  36.118  38.481   9.164
 1677POPC   GL123845  36.161  38.409   8.864
 1677POPC   GL223846  36.080  38.526   8.864
 1677POPC   C1A23847  36.079  38.477   8.564
 1677POPC   D2A23848  36.107  38.407   8.264
 1677POPC   C3A23849  36.091  38.480   7.964
 1677POPC   C4A23850  36.164  38.492   7.664
 1677POPC   C1B23851  36.079  38.682   8.564
 1677POPC   C2B23852  36.101  38.720   8.264
 1677POPC   C3B23853  36.088  38.700   7.964
 1677POPC   C4B23854  36.021  38.656   7.664
 1678POPC   NC323855  16.776   5.874   9.464
 1678POPC   PO423856  16.709   5.895   9.164
 1678POPC   GL123857  16.751   5.865   8.864
 1678POPC   GL223858  16.799   5.778   8.864
 1678POPC   C1A23859  16.691   5.824   8.564
 1678POPC   D2A23860  16.757   5.847   8.264
 1678POPC   C3A23861  16.756   5.916   7.964
 1678POPC   C4A23862  16.775   5.841   7.664
 1678POPC   C1B23863  16.835   5.646   8.564
 1678POPC   C2B23864  16.856   5.688   8.264
 1678POPC   C3B23865  16.824   5.659   7.964
 1678POPC   C4B23866  16.912   5.618   7.664
 1679POPC   NC323867  44.675  25.252   9.464
 1679POPC   PO423868  44.619  25.217   9.164
 1679POPC   GL123869  44.654  25.220   8.864
 1679POPC   GL223870  44.580  25.332   8.864
 1679POPC   C1A23871  44.708  25.217   8.564
 1679POPC   D2A23872  44.634  25.229   8.264
 1679POPC   C3A23873  44.635  25.252   7.964
 1679POPC   C4A23874  44.698  25.239   7.664
 1679POPC   C1B23875  44.489  25.434   8.564
 1679POPC   C2B23876  44.465  25.429   8.264
 1679POPC   C3B23877  44.482  25.419   7.964
 1679POPC   C4B23878  44.470  25.443   7.664
 1680POPC   NC323879  29.880  29.175   9.464
 1680POPC   PO423880  29.927  29.150   9.164
 1680POPC   GL123881  29.871  29.156   8.864
 1680POPC   GL223882  29.940  29.060   8.864
 1680POPC   C1A23883  29.897  29.172   8.564
 1680POPC   D2A23884  29.896  29.106   8.264
 1680POPC   C3A23885  29.963  29.145   7.964
 1680POPC   C4A23886  29.945  29.175   7.664
 1680POPC   C1B23887  29.976  28.929   8.564
 1680POPC   C2B23888  29.914  28.914   8.264
 1680POPC   C3B23889  29.942  28.868   7.964
 1680POPC   C4B23890  29.971  28.917   7.664
 1681POPC   NC323891  23.677  18.327   9.464
 1681POPC   PO423892  23.740  18.316   9.164
 1681POPC   GL123893  23.716  18.326   8.864
 1681POPC   GL223894  23.647  18.387   8.864
 1681POPC   C1A23895  23.763  18.259   8.564
 1681POPC   D2A23896  23.714  18.249   8.264
 1681POPC   C3A23897  23.694  18.253   7.964
 1681POPC   C4A23898  23.753  18.304   7.664
 1681POPC   C1B23899  23.570  18.438   8.564
 1681POPC   C2B23900  23.585  18.497   8.264
 1681POPC   C3B23901  23.500  18.464   7.964
 1681POPC   C4B23902  23.555  18.480   7.664
 1682POPC   NC323903   6.615  20.624   9.464
 1682POPC   PO423904   6.615  20.634   9.164
 1682POPC   GL123905   6.613  20.571   8.864
 1682POPC   GL223906   6.739  20.625   8.864
 1682POPC   C1A23907   6.610  20.598   8.564
 1682POPC   D2A23908   6.608  20.654   8.264
 1682POPC   C3A23909   6.616  20.572   7.964
 1682POPC   C4A23910   6.680  20.594   7.664
 1682POPC   C1B23911   6.831  20.706   8.564
 1682POPC   C2B23912   6.886  20.746   8.264
 1682POPC   C3B23913   6.855  20.710   7.964
 1682POPC   C4B23914   6.898  20.757   7.664
 1683POPC   NC323915  40.008   4.356   9.464
 1683POPC   PO423916  39.995   4.304   9.164
 1683POPC   GL123917  39.975   4.328   8.864
 1683POPC   GL223918  40.073   4.455   8.864
 1683POPC   C1A23919  39.996   4.292   8.564
 1683POPC   D2A23920  40.029   4.297   8.264
 1683POPC   C3A23921  40.044   4.334   7.964
 1683POPC   C4A23922  40.005   4.296   7.664
 1683POPC   C1B23923  40.060   4.583   8.564
 1683POPC   C2B23924  40.021   4.587   8.264
 1683POPC   C3B23925  39.993   4.519   7.964
 1683POPC   C4B23926  40.048   4.526   7.664
 1684POPC   NC323927  19.831  38.421   9.464
 1684POPC   PO423928  19.834  38.490   9.164
 1684POPC   GL123929  19.826  38.405   8.864
 1684POPC   GL223930  19.966  38.402   8.864
 1684POPC   C1A23931  19.802  38.475   8.564
 1684POPC   D2A23932  19.839  38.416   8.264
 1684POPC   C3A23933  19.806  38.442   7.964
 1684POPC   C4A23934  19.817  38.471   7.664
 1684POPC   C1B23935  20.037  38.393   8.564
 1684POPC   C2B23936  20.108  38.480   8.264
 1684POPC   C3B23937  20.123  38.484   7.964
 1684POPC   C4B23938  20.077  38.475   7.664
 1685POPC   NC323939  40.014  43.896   9.464
 1685POPC   PO423940  39.974  43.903   9.164
 1685POPC   GL123941  40.033  43.855   8.864
 1685POPC   GL223942  39.888  43.875   8.864
 1685POPC   C1A23943  40.030  43.881   8.564
 1685POPC   D2A23944  39.981  43.907   8.264
 1685POPC   C3A23945  39.958  43.855   7.964
 1685POPC   C4A23946  40.001  43.910   7.664
 1685POPC   C1B23947  39.720  43.941   8.564
 1685POPC   C2B23948  39.788  43.874   8.264
 1685POPC   C3B23949  39.720  43.923   7.964
 1685POPC   C4B23950  39.777  43.866   7.664
 1686POPC   NC323951  26.842  19.020   9.464
 1686POPC   PO423952  26.769  19.010   9.164
 1686POPC   GL123953  26.786  19.074   8.864
 1686POPC   GL223954  26.899  19.044   8.864
 1686POPC   C1A23955  26.834  19.050   8.564
 1686POPC   D2A23956  26.778  19.092   8.264
 1686POPC   C3A23957  26.810  19.038   7.964
 1686POPC   C4A23958  26.854  19.093   7.664
 1686POPC   C1B23959  27.106  19.085   8.564
 1686POPC   C2B23960  27.049  19.042   8.264
 1686POPC   C3B23961  27.064  19.073   7.964
 1686POPC   C4B23962  27.107  19.099   7.664
 1687POPC   NC323963  29.903   8.994   9.464
 1687POPC   PO423964  29.939   8.934   9.164
 1687POPC   GL123965  29.954   9.020   8.864
 1687POPC   GL223966  29.793   9.054   8.864
 1687POPC   C1A23967  29.920   8.970   8.564
 1687POPC   D2A23968  29.956   9.016   8.264
 1687POPC   C3A23969  29.873   8.956   7.964
 1687POPC   C4A23970  29.942   8.941   7.664
 1687POPC   C1B23971  29.640   9.019   8.564
 1687POPC   C2B23972  29.729   9.053   8.264
 1687POPC   C3B23973  29.646   9.056   7.964
 1687POPC   C4B23974  29.722   9.095   7.664
 1688POPC   NC323975  40.760   7.455   9.464
 1688POPC   PO423976  40.753   7.424   9.164
 1688POPC   GL123977  40.808   7.395   8.864
 1688POPC   GL223978  40.862   7.347   8.864
 1688POPC   C1A23979  40.822   7.421   8.564
 1688POPC   D2A23980  40.799   7.455   8.264
 1688POPC   C3A23981  40.784   7.431   7.964
 1688POPC   C4A23982  40.786   7.448   7.664
 1688POPC   C1B23983  40.937   7.230   8.564
 1688POPC   C2B23984  40.904   7.223   8.264
 1688POPC   C3B23985  40.979   7.230   7.964
 1688POPC   C4B23986  40.930   7.203   7.664
 1689POPC   NC323987  37.662   3.584   9.464
 1689POPC   PO423988  37.726   3.524   9.164
 1689POPC   GL123989  37.680   3.521   8.864
 1689POPC   GL223990  37.840   3.490   8.864
 1689POPC   C1A23991  37.672   3.517   8.564
 1689POPC   D2A23992  37.664   3.529   8.264
 1689POPC   C3A23993  37.630   3.520   7.964
 1689POPC   C4A23994  37.673   3.583   7.664
 1689POPC   C1B23995  37.857   3.427   8.564
 1689POPC   C2B23996  37.916   3.463   8.264
 1689POPC   C3B23997  37.905   3.461   7.964
 1689POPC   C4B23998  37.894   3.428   7.664
 1690POPC   NC323999  20.645   1.259   9.464
 1690POPC   PO424000  20.591   1.248   9.164
 1690POPC   GL124001  20.596   1.178   8.864
 1690POPC   GL224002  20.478   1.324   8.864
 1690POPC   C1A24003  20.647   1.184   8.564
 1690POPC   D2A24004  20.584   1.237   8.264
 1690POPC   C3A24005  20.586   1.222   7.964
 1690POPC   C4A24006  20.653   1.236   7.664
 1690POPC   C1B24007  20.378   1.378   8.564
 1690POPC   C2B24008  20.393   1.405   8.264
 1690POPC   C3B24009  20.461   1.369   7.964
 1690POPC   C4B24010  20.406   1.403   7.664
 1691POPC   NC324011  40.034  38.442   9.464
 1691POPC   PO424012  40.046  38.464   9.164
 1691POPC   GL124013  40.027  38.441   8.864
 1691POPC   GL224014  39.943  38.380   8.864
 1691POPC   C1A24015  40.056  38.426   8.564
 1691POPC   D2A24016  39.974  38.424   8.264
 1691POPC   C3A24017  40.008  38.455   7.964
 1691POPC   C4A24018  39.977  38.425   7.664
 1691POPC   C1B24019  39.866  38.234   8.564
 1691POPC   C2B24020  39.910  38.290   8.264
 1691POPC   C3B24021  39.900  38.202   7.964
 1691POPC   C4B24022  39.878  38.277   7.664
 1692POPC   NC324023   4.319  34.532   9.464
 1692POPC   PO424024   4.281  34.531   9.164
 1692POPC   GL124025   4.326  34.622   8.864
 1692POPC   GL224026   4.369  34.426   8.864
 1692POPC   C1A24027   4.317  34.551   8.564
 1692POPC   D2A24028   4.321  34.595   8.264
 1692POPC   C3A24029   4.282  34.584   7.964
 1692POPC   C4A24030   4.344  34.597   7.664
 1692POPC   C1B24031   4.448  34.352   8.564
 1692POPC   C2B24032   4.383  34.303   8.264
 1692POPC   C3B24033   4.379  34.330   7.964
 1692POPC   C4B24034   4.419  34.394   7.664
 1693POPC   NC324035   2.757  17.528   9.464
 1693POPC   PO424036   2.782  17.506   9.164
 1693POPC   GL124037   2.774  17.516   8.864
 1693POPC   GL224038   2.739  17.366   8.864
 1693POPC   C1A24039   2.804  17.463   8.564
 1693POPC   D2A24040   2.805  17.499   8.264
 1693POPC   C3A24041   2.768  17.535   7.964
 1693POPC   C4A24042   2.765  17.523   7.664
 1693POPC   C1B24043   2.605  17.272   8.564
 1693POPC   C2B24044   2.677  17.336   8.264
 1693POPC   C3B24045   2.589  17.275   7.964
 1693POPC   C4B24046   2.618  17.286   7.664
 1694POPC   NC324047  20.590  41.606   9.464
 1694POPC   PO424048  20.604  41.577   9.164
 1694POPC   GL124049  20.623  41.573   8.864
 1694POPC   GL224050  20.649  41.406   8.864
 1694POPC   C1A24051  20.660  41.596   8.564
 1694POPC   D2A24052  20.582  41.533   8.264
 1694POPC   C3A24053  20.607  41.594   7.964
 1694POPC   C4A24054  20.612  41.559   7.664
 1694POPC   C1B24055  20.665  41.294   8.564
 1694POPC   C2B24056  20.734  41.340   8.264
 1694POPC   C3B24057  20.668  41.352   7.964
 1694POPC   C4B24058  20.698  41.308   7.664
 1695POPC   NC324059  12.102  38.437   9.464
 1695POPC   PO424060  12.067  38.432   9.164
 1695POPC   GL124061  12.076  38.473   8.864
 1695POPC   GL224062  12.229  38.403   8.864
 1695POPC   C1A24063  12.124  38.412   8.564
 1695POPC   D2A24064  12.120  38.484   8.264
 1695POPC   C3A24065  12.055  38.467   7.964
 1695POPC   C4A24066  12.057  38.407   7.664
 1695POPC   C1B24067  12.334  38.406   8.564
 1695POPC   C2B24068  12.300  38.376   8.264
 1695POPC   C3B24069  12.281  38.345   7.964
 1695POPC   C4B24070  12.301  38.327   7.664
 1696POPC   NC324071  29.872   9.772   9.464
 1696POPC   PO424072  29.961   9.739   9.164
 1696POPC   GL124073  29.953   9.758   8.864
 1696POPC   GL224074  29.807   9.791   8.864
 1696POPC   C1A24075  29.938   9.729   8.564
 1696POPC   D2A24076  29.909   9.705   8.264
 1696POPC   C3A24077  29.905   9.791   7.964
 1696POPC   C4A24078  29.958   9.780   7.664
 1696POPC   C1B24079  29.698   9.938   8.564
 1696POPC   C2B24080  29.763   9.938   8.264
 1696POPC   C3B24081  29.751   9.963   7.964
 1696POPC   C4B24082  29.752   9.904   7.664
 1697POPC   NC324083  18.315  31.423   9.464
 1697POPC   PO424084  18.274  31.464   9.164
 1697POPC   GL124085  18.263  31.478   8.864
 1697POPC   GL224086  18.393  31.528   8.864
 1697POPC   C1A24087  18.252  31.455   8.564
 1697POPC   D2A24088  18.284  31.437   8.264
 1697POPC   C3A24089  18.294  31.476   7.964
 1697POPC   C4A24090  18.312  31.474   7.664
 1697POPC   C1B24091  18.527  31.591   8.564
 1697POPC   C2B24092  18.525  31.558   8.264
 1697POPC   C3B24093  18.528  31.581   7.964
 1697POPC   C4B24094  18.505  31.585   7.664
 1698POPC   NC324095  15.223  12.891   9.464
 1698POPC   PO424096  15.132  12.871   9.164
 1698POPC   GL124097  15.215  12.836   8.864
 1698POPC   GL224098  15.103  12.915   8.864
 1698POPC   C1A24099  15.199  12.855   8.564
 1698POPC   D2A24100  15.167  12.832   8.264
 1698POPC   C3A24101  15.171  12.847   7.964
 1698POPC   C4A24102  15.181  12.859   7.664
 1698POPC   C1B24103  14.966  13.055   8.564
 1698POPC   C2B24104  14.986  13.070   8.264
 1698POPC   C3B24105  15.005  12.999   7.964
 1698POPC   C4B24106  14.982  13.054   7.664
 1699POPC   NC324107  43.841   0.409   9.464
 1699POPC   PO424108  43.872   0.392   9.164
 1699POPC   GL124109  43.868   0.401   8.864
 1699POPC   GL224110  43.871   0.300   8.864
 1699POPC   C1A24111  43.903   0.393   8.564
 1699POPC   D2A24112  43.899   0.433   8.264
 1699POPC   C3A24113  43.907   0.438   7.964
 1699POPC   C4A24114  43.847   0.405   7.664
 1699POPC   C1B24115  43.797   0.236   8.564
 1699POPC   C2B24116  43.789   0.178   8.264
 1699POPC   C3B24117  43.865   0.148   7.964
 1699POPC   C4B24118  43.829   0.171   7.664
 1700POPC   NC324119  25.995  12.074   9.464
 1700POPC   PO424120  26.059  12.074   9.164
 1700POPC   GL124121  25.997  12.030   8.864
 1700POPC   GL224122  25.966  12.118   8.864
 1700POPC   C1A24123  26.077  12.110   8.564
 1700POPC   D2A24124  26.035  12.125   8.264
 1700POPC   C3A24125  26.077  12.059   7.964
 1700POPC   C4A24126  26.034  12.040   7.664
 1700POPC   C1B24127  25.761  12.087   8.564
 1700POPC   C2B24128  25.806  12.134   8.264
 1700POPC   C3B24129  25.749  12.182   7.964
 1700POPC   C4B24130  25.775  12.129   7.664
 1701POPC   NC324131  34.566  10.561   9.464
 1701POPC   PO424132  34.615  10.546   9.164
 1701POPC   GL124133  34.611  10.547   8.864
 1701POPC   GL224134  34.683  10.403   8.864
 1701POPC   C1A24135  34.602  10.515   8.564
 1701POPC   D2A24136  34.604  10.504   8.264
 1701POPC   C3A24137  34.597  10.495   7.964
 1701POPC   C4A24138  34.610  10.511   7.664
 1701POPC   C1B24139  34.717  10.323   8.564
 1701POPC   C2B24140  34.787  10.384   8.264
 1701POPC   C3B24141  34.738  10.393   7.964
 1701POPC   C4B24142  34.745  10.322   7.664
 1702POPC   NC324143   2.733  33.058   9.464
 1702POPC   PO424144   2.785  33.036   9.164
 1702POPC   GL124145   2.775  33.016   8.864
 1702POPC   GL224146   2.827  32.918   8.864
 1702POPC   C1A24147   2.771  33.009   8.564
 1702POPC   D2A24148   2.796  33.014   8.264
 1702POPC   C3A24149   2.790  33.016   7.964
 1702POPC   C4A24150   2.782  32.981   7.664
 1702POPC   C1B24151   2.862  32.858   8.564
 1702POPC   C2B24152   2.885  32.854   8.264
 1702POPC   C3B24153   2.873  32.840   7.964
 1702POPC   C4B24154   2.880  32.847   7.664
 1703POPC   NC324155  43.065   8.928   9.464
 1703POPC   PO424156  43.140   8.970   9.164
 1703POPC   GL124157  43.066   8.937   8.864
 1703POPC   GL224158  43.164   9.108   8.864
 1703POPC   C1A24159  43.126   8.962   8.564
 1703POPC   D2A24160  43.112   8.988   8.264
 1703POPC   C3A24161  43.078   9.022   7.964
 1703POPC   C4A24162  43.131   9.016   7.664
 1703POPC   C1B24163  43.194   9.196   8.564
 1703POPC   C2B24164  43.173   9.231   8.264
 1703POPC   C3B24165  43.199   9.190   7.964
 1703POPC   C4B24166  43.167   9.187   7.664
 1704POPC   NC324167  34.532  44.664   9.464
 1704POPC   PO424168  34.571  44.672   9.164
 1704POPC   GL124169  34.555  44.618   8.864
 1704POPC   GL224170  34.721  44.703   8.864
 1704POPC   C1A24171  34.558  44.637   8.564
 1704POPC   D2A24172  34.534  44.649   8.264
 1704POPC   C3A24173  34.591  44.698   7.964
 1704POPC   C4A24174  34.570  44.612   7.664
 1704POPC   C1B24175  34.828  44.758   8.564
 1704POPC   C2B24176  34.826  44.733   8.264
 1704POPC   C3B24177  34.763  44.758   7.964
 1704POPC   C4B24178  34.820  44.768   7.664
 1705POPC   NC324179  37.677  24.461   9.464
 1705POPC   PO424180  37.666  24.524   9.164
 1705POPC   GL124181  37.651  24.506   8.864
 1705POPC   GL224182  37.709  24.608   8.864
 1705POPC   C1A24183  37.727  24.532   8.564
 1705POPC   D2A24184  37.666  24.540   8.264
 1705POPC   C3A24185  37.643  24.504   7.964
 1705POPC   C4A24186  37.723  24.490   7.664
 1705POPC   C1B24187  37.795  24.734   8.564
 1705POPC   C2B24188  37.848  24.719   8.264
 1705POPC   C3B24189  37.777  24.675   7.964
 1705POPC   C4B24190  37.804  24.665   7.664
 1706POPC   NC324191   0.458  41.606   9.464
 1706POPC   PO424192   0.414  41.545   9.164
 1706POPC   GL124193   0.394  41.605   8.864
 1706POPC   GL224194   0.326  41.607   8.864
 1706POPC   C1A24195   0.403  41.597   8.564
 1706POPC   D2A24196   0.462  41.535   8.264
 1706POPC   C3A24197   0.429  41.541   7.964
 1706POPC   C4A24198   0.467  41.558   7.664
 1706POPC   C1B24199   0.199  41.589   8.564
 1706POPC   C2B24200   0.179  41.524   8.264
 1706POPC   C3B24201   0.158  41.598   7.964
 1706POPC   C4B24202   0.192  41.538   7.664
 1707POPC   NC324203  34.541  15.228   9.464
 1707POPC   PO424204  34.588  15.219   9.164
 1707POPC   GL124205  34.608  15.176   8.864
 1707POPC   GL224206  34.556  15.283   8.864
 1707POPC   C1A24207  34.615  15.176   8.564
 1707POPC   D2A24208  34.534  15.205   8.264
 1707POPC   C3A24209  34.604  15.229   7.964
 1707POPC   C4A24210  34.573  15.197   7.664
 1707POPC   C1B24211  34.630  15.383   8.564
 1707POPC   C2B24212  34.542  15.405   8.264
 1707POPC   C3B24213  34.587  15.417   7.964
 1707POPC   C4B24214  34.589  15.428   7.664
 1708POPC   NC324215  19.829   2.721   9.464
 1708POPC   PO424216  19.789   2.813   9.164
 1708POPC   GL124217  19.856   2.785   8.864
 1708POPC   GL224218  19.967   2.741   8.864
 1708POPC   C1A24219  19.879   2.793   8.564
 1708POPC   D2A24220  19.805   2.802   8.264
 1708POPC   C3A24221  19.845   2.729   7.964
 1708POPC   C4A24222  19.812   2.736   7.664
 1708POPC   C1B24223  20.052   2.745   8.564
 1708POPC   C2B24224  20.123   2.707   8.264
 1708POPC   C3B24225  20.045   2.749   7.964
 1708POPC   C4B24226  20.042   2.730   7.664
 1709POPC   NC324227  35.376  31.465   9.464
 1709POPC   PO424228  35.323  31.462   9.164
 1709POPC   GL124229  35.344  31.470   8.864
 1709POPC   GL224230  35.338  31.320   8.864
 1709POPC   C1A24231  35.314  31.482   8.564
 1709POPC   D2A24232  35.335  31.512   8.264
 1709POPC   C3A24233  35.334  31.493   7.964
 1709POPC   C4A24234  35.324  31.431   7.664
 1709POPC   C1B24235  35.369  31.193   8.564
 1709POPC   C2B24236  35.431  31.189   8.264
 1709POPC   C3B24237  35.402  31.251   7.964
 1709POPC   C4B24238  35.439  31.206   7.664
 1710POPC   NC324239  41.513  37.672   9.464
 1710POPC   PO424240  41.515  37.683   9.164
 1710POPC   GL124241  41.516  37.716   8.864
 1710POPC   GL224242  41.475  37.756   8.864
 1710POPC   C1A24243  41.553  37.708   8.564
 1710POPC   D2A24244  41.514  37.707   8.264
 1710POPC   C3A24245  41.569  37.644   7.964
 1710POPC   C4A24246  41.588  37.717   7.664
 1710POPC   C1B24247  41.385  37.916   8.564
 1710POPC   C2B24248  41.424  37.906   8.264
 1710POPC   C3B24249  41.409  37.872   7.964
 1710POPC   C4B24250  41.471  37.853   7.664
 1711POPC   NC324251  26.015   5.142   9.464
 1711POPC   PO424252  26.088   5.048   9.164
 1711POPC   GL124253  26.081   5.081   8.864
 1711POPC   GL224254  26.194   5.126   8.864
 1711POPC   C1A24255  26.008   5.084   8.564
 1711POPC   D2A24256  26.090   5.076   8.264
 1711POPC   C3A24257  26.023   5.068   7.964
 1711POPC   C4A24258  26.030   5.058   7.664
 1711POPC   C1B24259  26.318   5.096   8.564
 1711POPC   C2B24260  26.320   5.141   8.264
 1711POPC   C3B24261  26.305   5.134   7.964
 1711POPC   C4B24262  26.320   5.090   7.664
 1712POPC   NC324263  27.634  14.447   9.464
 1712POPC   PO424264  27.617  14.439   9.164
 1712POPC   GL124265  27.612  14.399   8.864
 1712POPC   GL224266  27.519  14.285   8.864
 1712POPC   C1A24267  27.582  14.377   8.564
 1712POPC   D2A24268  27.546  14.382   8.264
 1712POPC   C3A24269  27.615  14.360   7.964
 1712POPC   C4A24270  27.640  14.402   7.664
 1712POPC   C1B24271  27.415  14.267   8.564
 1712POPC   C2B24272  27.377  14.281   8.264
 1712POPC   C3B24273  27.372  14.261   7.964
 1712POPC   C4B24274  27.373  14.200   7.664
 1713POPC   NC324275   0.405  12.080   9.464
 1713POPC   PO424276   0.464  12.040   9.164
 1713POPC   GL124277   0.398  12.075   8.864
 1713POPC   GL224278   0.590  12.042   8.864
 1713POPC   C1A24279   0.422  12.031   8.564
 1713POPC   D2A24280   0.412  12.027   8.264
 1713POPC   C3A24281   0.429  12.110   7.964
 1713POPC   C4A24282   0.400  12.124   7.664
 1713POPC   C1B24283   0.636  11.955   8.564
 1713POPC   C2B24284   0.695  12.003   8.264
 1713POPC   C3B24285   0.669  11.953   7.964
 1713POPC   C4B24286   0.675  11.925   7.664
 1714POPC   NC324287  10.539   0.431   9.464
 1714POPC   PO424288  10.487   0.440   9.164
 1714POPC   GL124289  10.497   0.425   8.864
 1714POPC   GL224290  10.461   0.538   8.864
 1714POPC   C1A24291  10.524   0.445   8.564
 1714POPC   D2A24292  10.493   0.467   8.264
 1714POPC   C3A24293  10.558   0.447   7.964
 1714POPC   C4A24294  10.563   0.471   7.664
 1714POPC   C1B24295  10.377   0.634   8.564
 1714POPC   C2B24296  10.432   0.616   8.264
 1714POPC   C3B24297  10.444   0.625   7.964
 1714POPC   C4B24298  10.357   0.628   7.664
 1715POPC   NC324299  27.560  18.278   9.464
 1715POPC   PO424300  27.591  18.324   9.164
 1715POPC   GL124301  27.635  18.265   8.864
 1715POPC   GL224302  27.522  18.436   8.864
 1715POPC   C1A24303  27.558  18.318   8.564
 1715POPC   D2A24304  27.592  18.276   8.264
 1715POPC   C3A24305  27.577  18.255   7.964
 1715POPC   C4A24306  27.598  18.252   7.664
 1715POPC   C1B24307  27.498  18.551   8.564
 1715POPC   C2B24308  27.475  18.557   8.264
 1715POPC   C3B24309  27.509  18.536   7.964
 1715POPC   C4B24310  27.534  18.514   7.664
 1716POPC   NC324311  15.949  13.578   9.464
 1716POPC   PO424312  15.978  13.652   9.164
 1716POPC   GL124313  15.957  13.630   8.864
 1716POPC   GL224314  15.957  13.701   8.864
 1716POPC   C1A24315  15.931  13.659   8.564
 1716POPC   D2A24316  15.933  13.677   8.264
 1716POPC   C3A24317  15.954  13.669   7.964
 1716POPC   C4A24318  15.998  13.597   7.664
 1716POPC   C1B24319  15.859  13.849   8.564
 1716POPC   C2B24320  15.916  13.847   8.264
 1716POPC   C3B24321  15.834  13.911   7.964
 1716POPC   C4B24322  15.849  13.857   7.664
 1717POPC   NC324323  33.044   2.761   9.464
 1717POPC   PO424324  32.987   2.747   9.164
 1717POPC   GL124325  33.005   2.743   8.864
 1717POPC   GL224326  32.946   2.699   8.864
 1717POPC   C1A24327  33.061   2.727   8.564
 1717POPC   D2A24328  32.992   2.800   8.264
 1717POPC   C3A24329  33.070   2.780   7.964
 1717POPC   C4A24330  32.995   2.813   7.664
 1717POPC   C1B24331  32.775   2.692   8.564
 1717POPC   C2B24332  32.812   2.646   8.264
 1717POPC   C3B24333  32.809   2.661   7.964
 1717POPC   C4B24334  32.781   2.634   7.664
 1718POPC   NC324335  25.297  13.633   9.464
 1718POPC   PO424336  25.282  13.627   9.164
 1718POPC   GL124337  25.296  13.646   8.864
 1718POPC   GL224338  25.372  13.655   8.864
 1718POPC   C1A24339  25.295  13.669   8.564
 1718POPC   D2A24340  25.267  13.675   8.264
 1718POPC   C3A24341  25.256  13.668   7.964
 1718POPC   C4A24342  25.280  13.620   7.664
 1718POPC   C1B24343  25.488  13.672   8.564
 1718POPC   C2B24344  25.485  13.705   8.264
 1718POPC   C3B24345  25.512  13.637   7.964
 1718POPC   C4B24346  25.493  13.613   7.664
 1719POPC   NC324347   2.009  43.142   9.464
 1719POPC   PO424348   1.959  43.146   9.164
 1719POPC   GL124349   2.009  43.153   8.864
 1719POPC   GL224350   1.927  43.222   8.864
 1719POPC   C1A24351   1.954  43.075   8.564
 1719POPC   D2A24352   1.968  43.148   8.264
 1719POPC   C3A24353   1.967  43.076   7.964
 1719POPC   C4A24354   2.011  43.078   7.664
 1719POPC   C1B24355   1.958  43.344   8.564
 1719POPC   C2B24356   1.929  43.345   8.264
 1719POPC   C3B24357   1.949  43.386   7.964
 1719POPC   C4B24358   1.922  43.345   7.664
 1720POPC   NC324359  32.234  29.883   9.464
 1720POPC   PO424360  32.258  29.950   9.164
 1720POPC   GL124361  32.228  29.958   8.864
 1720POPC   GL224362  32.291  30.026   8.864
 1720POPC   C1A24363  32.249  29.965   8.564
 1720POPC   D2A24364  32.296  29.968   8.264
 1720POPC   C3A24365  32.265  29.946   7.964
 1720POPC   C4A24366  32.232  29.913   7.664
 1720POPC   C1B24367  32.284  30.200   8.564
 1720POPC   C2B24368  32.276  30.137   8.264
 1720POPC   C3B24369  32.252  30.161   7.964
 1720POPC   C4B24370  32.318  30.161   7.664
 1721POPC   NC324371  22.207  29.917   9.464
 1721POPC   PO424372  22.128  29.940   9.164
 1721POPC   GL124373  22.178  29.919   8.864
 1721POPC   GL224374  22.274  29.877   8.864
 1721POPC   C1A24375  22.174  29.953   8.564
 1721POPC   D2A24376  22.212  29.879   8.264
 1721POPC   C3A24377  22.157  29.924   7.964
 1721POPC   C4A24378  22.148  29.879   7.664
 1721POPC   C1B24379  22.368  29.714   8.564
 1721POPC   C2B24380  22.307  29.802   8.264
 1721POPC   C3B24381  22.308  29.797   7.964
 1721POPC   C4B24382  22.335  29.794   7.664
 1722POPC   NC324383   5.052  19.872   9.464
 1722POPC   PO424384   5.099  19.827   9.164
 1722POPC   GL124385   5.111  19.823   8.864
 1722POPC   GL224386   5.234  19.903   8.864
 1722POPC   C1A24387   5.102  19.864   8.564
 1722POPC   D2A24388   5.126  19.812   8.264
 1722POPC   C3A24389   5.129  19.788   7.964
 1722POPC   C4A24390   5.059  19.871   7.664
 1722POPC   C1B24391   5.320  20.008   8.564
 1722POPC   C2B24392   5.278  20.002   8.264
 1722POPC   C3B24393   5.266  20.001   7.964
 1722POPC   C4B24394   5.262  19.941   7.664
 1723POPC   NC324395  35.313   6.605   9.464
 1723POPC   PO424396  35.366   6.661   9.164
 1723POPC   GL124397  35.313   6.649   8.864
 1723POPC   GL224398  35.375   6.763   8.864
 1723POPC   C1A24399  35.346   6.661   8.564
 1723POPC   D2A24400  35.355   6.655   8.264
 1723POPC   C3A24401  35.375   6.641   7.964
 1723POPC   C4A24402  35.385   6.639   7.664
 1723POPC   C1B24403  35.426   6.899   8.564
 1723POPC   C2B24404  35.396   6.841   8.264
 1723POPC   C3B24405  35.384   6.875   7.964
 1723POPC   C4B24406  35.448   6.908   7.664
 1724POPC   NC324407  27.580  23.683   9.464
 1724POPC   PO424408  27.605  23.678   9.164
 1724POPC   GL124409  27.586  23.709   8.864
 1724POPC   GL224410  27.450  23.734   8.864
 1724POPC   C1A24411  27.548  23.705   8.564
 1724POPC   D2A24412  27.633  23.722   8.264
 1724POPC   C3A24413  27.544  23.725   7.964
 1724POPC   C4A24414  27.601  23.740   7.664
 1724POPC   C1B24415  27.368  23.846   8.564
 1724POPC   C2B24416  27.355  23.832   8.264
 1724POPC   C3B24417  27.384  23.839   7.964
 1724POPC   C4B24418  27.386  23.830   7.664
 1725POPC   NC324419  12.897  32.213   9.464
 1725POPC   PO424420  12.830  32.270   9.164
 1725POPC   GL124421  12.809  32.284   8.864
 1725POPC   GL224422  13.002  32.274   8.864
 1725POPC   C1A24423  12.882  32.256   8.564
 1725POPC   D2A24424  12.843  32.202   8.264
 1725POPC   C3A24425  12.896  32.243   7.964
 1725POPC   C4A24426  12.876  32.278   7.664
 1725POPC   C1B24427  13.029  32.398   8.564
 1725POPC   C2B24428  13.046  32.374   8.264
 1725POPC   C3B24429  13.085  32.426   7.964
 1725POPC   C4B24430  13.052  32.378   7.664
 1726POPC   NC324431  18.257  37.667   9.464
 1726POPC   PO424432  18.235  37.724   9.164
 1726POPC   GL124433  18.328  37.718   8.864
 1726POPC   GL224434  18.203  37.751   8.864
 1726POPC   C1A24435  18.256  37.672   8.564
 1726POPC   D2A24436  18.330  37.692   8.264
 1726POPC   C3A24437  18.329  37.701   7.964
 1726POPC   C4A24438  18.303  37.716   7.664
 1726POPC   C1B24439  18.152  37.882   8.564
 1726POPC   C2B24440  18.078  37.869   8.264
 1726POPC   C3B24441  18.077  37.853   7.964
 1726POPC   C4B24442  18.087  37.858   7.664
 1727POPC   NC324443  26.060  23.698   9.464
 1727POPC   PO424444  26.004  23.685   9.164
 1727POPC   GL124445  26.089  23.668   8.864
 1727POPC   GL224446  26.156  23.814   8.864
 1727POPC   C1A24447  26.000  23.724   8.564
 1727POPC   D2A24448  26.014  23.730   8.264
 1727POPC   C3A24449  26.015  23.759   7.964
 1727POPC   C4A24450  26.058  23.693   7.664
 1727POPC   C1B24451  26.190  23.913   8.564
 1727POPC   C2B24452  26.205  23.963   8.264
 1727POPC   C3B24453  26.211  23.950   7.964
 1727POPC   C4B24454  26.216  23.900   7.664
 1728POPC   NC324455  33.777  39.231   9.464
 1728POPC   PO424456  33.756  39.272   9.164
 1728POPC   GL124457  33.816  39.238   8.864
 1728POPC   GL224458  33.850  39.080   8.864
 1728POPC   C1A24459  33.833  39.233   8.564
 1728POPC   D2A24460  33.807  39.189   8.264
 1728POPC   C3A24461  33.847  39.280   7.964
 1728POPC   C4A24462  33.775  39.244   7.664
 1728POPC   C1B24463  33.878  38.987   8.564
 1728POPC   C2B24464  33.885  39.032   8.264
 1728POPC   C3B24465  33.875  38.986   7.964
 1728POPC   C4B24466  33.859  39.009   7.664
 1729POPC   NC324467  12.865  13.646   9.464
 1729POPC   PO424468  12.860  13.658   9.164
 1729POPC   GL124469  12.804  13.667   8.864
 1729POPC   GL224470  12.919  13.559   8.864
 1729POPC   C1A24471  12.810  13.677   8.564
 1729POPC   D2A24472  12.896  13.579   8.264
 1729POPC   C3A24473  12.879  13.611   7.964
 1729POPC   C4A24474  12.803  13.646   7.664
 1729POPC   C1B24475  12.969  13.461   8.564
 1729POPC   C2B24476  12.990  13.379   8.264
 1729POPC   C3B24477  12.966  13.467   7.964
 1729POPC   C4B24478  13.038  13.405   7.664
 1730POPC   NC324479   7.382   0.424   9.464
 1730POPC   PO424480   7.396   0.470   9.164
 1730POPC   GL124481   7.429   0.454   8.864
 1730POPC   GL224482   7.382   0.561   8.864
 1730POPC   C1A24483   7.416   0.430   8.564
 1730POPC   D2A24484   7.403   0.467   8.264
 1730POPC   C3A24485   7.457   0.414   7.964
 1730POPC   C4A24486   7.379   0.398   7.664
 1730POPC   C1B24487   7.455   0.724   8.564
 1730POPC   C2B24488   7.475   0.666   8.264
 1730POPC   C3B24489   7.423   0.698   7.964
 1730POPC   C4B24490   7.479   0.680   7.664
 1731POPC   NC324491  43.080  33.754   9.464
 1731POPC   PO424492  43.150  33.793   9.164
 1731POPC   GL124493  43.073  33.815   8.864
 1731POPC   GL224494  43.242  33.836   8.864
 1731POPC   C1A24495  43.153  33.801   8.564
 1731POPC   D2A24496  43.090  33.835   8.264
 1731POPC   C3A24497  43.079  33.841   7.964
 1731POPC   C4A24498  43.140  33.824   7.664
 1731POPC   C1B24499  43.376  33.848   8.564
 1731POPC   C2B24500  43.337  33.843   8.264
 1731POPC   C3B24501  43.332  33.833   7.964
 1731POPC   C4B24502  43.392  33.814   7.664
 1732POPC   NC324503  10.500  14.450   9.464
 1732POPC   PO424504  10.532  14.392   9.164
 1732POPC   GL124505  10.566  14.439   8.864
 1732POPC   GL224506  10.454  14.334   8.864
 1732POPC   C1A24507  10.527  14.417   8.564
 1732POPC   D2A24508  10.490  14.394   8.264
 1732POPC   C3A24509  10.518  14.392   7.964
 1732POPC   C4A24510  10.546  14.443   7.664
 1732POPC   C1B24511  10.402  14.174   8.564
 1732POPC   C2B24512  10.410  14.205   8.264
 1732POPC   C3B24513  10.417  14.189   7.964
 1732POPC   C4B24514  10.458  14.175   7.664
 1733POPC   NC324515  23.740  25.261   9.464
 1733POPC   PO424516  23.745  25.314   9.164
 1733POPC   GL124517  23.666  25.228   8.864
 1733POPC   GL224518  23.571  25.196   8.864
 1733POPC   C1A24519  23.722  25.241   8.564
 1733POPC   D2A24520  23.736  25.277   8.264
 1733POPC   C3A24521  23.751  25.245   7.964
 1733POPC   C4A24522  23.730  25.246   7.664
 1733POPC   C1B24523  23.495  25.062   8.564
 1733POPC   C2B24524  23.557  25.134   8.264
 1733POPC   C3B24525  23.484  25.088   7.964
 1733POPC   C4B24526  23.484  25.131   7.664
 1734POPC   NC324527  37.671  26.782   9.464
 1734POPC   PO424528  37.711  26.812   9.164
 1734POPC   GL124529  37.659  26.770   8.864
 1734POPC   GL224530  37.563  26.816   8.864
 1734POPC   C1A24531  37.714  26.776   8.564
 1734POPC   D2A24532  37.700  26.811   8.264
 1734POPC   C3A24533  37.673  26.838   7.964
 1734POPC   C4A24534  37.690  26.795   7.664
 1734POPC   C1B24535  37.484  26.739   8.564
 1734POPC   C2B24536  37.423  26.798   8.264
 1734POPC   C3B24537  37.400  26.752   7.964
 1734POPC   C4B24538  37.455  26.725   7.664
 1735POPC   NC324539  11.296  11.277   9.464
 1735POPC   PO424540  11.347  11.349   9.164
 1735POPC   GL124541  11.278  11.313   8.864
 1735POPC   GL224542  11.207  11.370   8.864
 1735POPC   C1A24543  11.336  11.260   8.564
 1735POPC   D2A24544  11.311  11.293   8.264
 1735POPC   C3A24545  11.285  11.265   7.964
 1735POPC   C4A24546  11.350  11.318   7.664
 1735POPC   C1B24547  11.045  11.396   8.564
 1735POPC   C2B24548  11.072  11.368   8.264
 1735POPC   C3B24549  11.041  11.410   7.964
 1735POPC   C4B24550  11.047  11.453   7.664
 1736POPC   NC324551  12.028  44.661   9.464
 1736POPC   PO424552  12.054  44.644   9.164
 1736POPC   GL124553  12.054  44.701   8.864
 1736POPC   GL224554  12.200  44.549   8.864
 1736POPC   C1A24555  12.056  44.682   8.564
 1736POPC   D2A24556  12.070  44.621   8.264
 1736POPC   C3A24557  12.050  44.621   7.964
 1736POPC   C4A24558  12.046  44.627   7.664
 1736POPC   C1B24559  12.292  44.541   8.564
 1736POPC   C2B24560  12.303  44.513   8.264
 1736POPC   C3B24561  12.273  44.486   7.964
 1736POPC   C4B24562  12.286  44.472   7.664
 1737POPC   NC324563  43.902  43.859   9.464
 1737POPC   PO424564  43.838  43.895   9.164
 1737POPC   GL124565  43.916  43.872   8.864
 1737POPC   GL224566  43.964  43.797   8.864
 1737POPC   C1A24567  43.920  43.837   8.564
 1737POPC   D2A24568  43.930  43.907   8.264
 1737POPC   C3A24569  43.902  43.885   7.964
 1737POPC   C4A24570  43.876  43.840   7.664
 1737POPC   C1B24571  43.915  43.684   8.564
 1737POPC   C2B24572  43.895  43.604   8.264
 1737POPC   C3B24573  43.947  43.659   7.964
 1737POPC   C4B24574  43.974  43.597   7.664
 1738POPC   NC324575   5.135   5.096   9.464
 1738POPC   PO424576   5.105   5.095   9.164
 1738POPC   GL124577   5.136   5.062   8.864
 1738POPC   GL224578   5.004   5.131   8.864
 1738POPC   C1A24579   5.063   5.096   8.564
 1738POPC   D2A24580   5.071   5.105   8.264
 1738POPC   C3A24581   5.058   5.124   7.964
 1738POPC   C4A24582   5.131   5.064   7.664
 1738POPC   C1B24583   4.911   5.223   8.564
 1738POPC   C2B24584   4.875   5.281   8.264
 1738POPC   C3B24585   4.874   5.269   7.964
 1738POPC   C4B24586   4.902   5.279   7.664
 1739POPC   NC324587  19.049  12.887   9.464
 1739POPC   PO424588  19.055  12.832   9.164
 1739POPC   GL124589  19.083  12.889   8.864
 1739POPC   GL224590  19.184  12.799   8.864
 1739POPC   C1A24591  19.059  12.821   8.564
 1739POPC   D2A24592  19.064  12.898   8.264
 1739POPC   C3A24593  19.049  12.888   7.964
 1739POPC   C4A24594  19.046  12.806   7.664
 1739POPC   C1B24595  19.201  12.692   8.564
 1739POPC   C2B24596  19.196  12.678   8.264
 1739POPC   C3B24597  19.203  12.698   7.964
 1739POPC   C4B24598  19.215  12.651   7.664
 1740POPC   NC324599  17.462  22.173   9.464
 1740POPC   PO424600  17.523  22.183   9.164
 1740POPC   GL124601  17.526  22.138   8.864
 1740POPC   GL224602  17.446  22.222   8.864
 1740POPC   C1A24603  17.515  22.200   8.564
 1740POPC   D2A24604  17.500  22.143   8.264
 1740POPC   C3A24605  17.519  22.129   7.964
 1740POPC   C4A24606  17.549  22.126   7.664
 1740POPC   C1B24607  17.270  22.368   8.564
 1740POPC   C2B24608  17.306  22.325   8.264
 1740POPC   C3B24609  17.341  22.283   7.964
 1740POPC   C4B24610  17.355  22.324   7.664
 1741POPC   NC324611   2.018   5.819   9.464
 1741POPC   PO424612   2.025   5.892   9.164
 1741POPC   GL124613   2.006   5.841   8.864
 1741POPC   GL224614   1.887   5.750   8.864
 1741POPC   C1A24615   2.039   5.820   8.564
 1741POPC   D2A24616   2.021   5.909   8.264
 1741POPC   C3A24617   1.972   5.868   7.964
 1741POPC   C4A24618   2.016   5.894   7.664
 1741POPC   C1B24619   1.771   5.686   8.564
 1741POPC   C2B24620   1.827   5.735   8.264
 1741POPC   C3B24621   1.832   5.721   7.964
 1741POPC   C4B24622   1.771   5.722   7.664
 1742POPC   NC324623   1.215  20.624   9.464
 1742POPC   PO424624   1.201  20.584   9.164
 1742POPC   GL124625   1.176  20.578   8.864
 1742POPC   GL224626   1.057  20.690   8.864
 1742POPC   C1A24627   1.218  20.622   8.564
 1742POPC   D2A24628   1.232  20.634   8.264
 1742POPC   C3A24629   1.257  20.589   7.964
 1742POPC   C4A24630   1.235  20.577   7.664
 1742POPC   C1B24631   0.956  20.765   8.564
 1742POPC   C2B24632   0.955  20.707   8.264
 1742POPC   C3B24633   0.994  20.703   7.964
 1742POPC   C4B24634   1.001  20.780   7.664
 1743POPC   NC324635   6.663  19.825   9.464
 1743POPC   PO424636   6.649  19.866   9.164
 1743POPC   GL124637   6.663  19.884   8.864
 1743POPC   GL224638   6.501  19.841   8.864
 1743POPC   C1A24639   6.596  19.870   8.564
 1743POPC   D2A24640   6.609  19.828   8.264
 1743POPC   C3A24641   6.625  19.864   7.964
 1743POPC   C4A24642   6.616  19.880   7.664
 1743POPC   C1B24643   6.425  19.896   8.564
 1743POPC   C2B24644   6.361  19.955   8.264
 1743POPC   C3B24645   6.401  19.926   7.964
 1743POPC   C4B24646   6.418  19.875   7.664
 1744POPC   NC324647  13.664  44.699   9.464
 1744POPC   PO424648  13.596  44.645   9.164
 1744POPC   GL124649  13.672  44.648   8.864
 1744POPC   GL224650  13.775  44.660   8.864
 1744POPC   C1A24651  13.587  44.629   8.564
 1744POPC   D2A24652  13.593  44.662   8.264
 1744POPC   C3A24653  13.622  44.658   7.964
 1744POPC   C4A24654  13.646  44.640   7.664
 1744POPC   C1B24655  13.890  44.710   8.564
 1744POPC   C2B24656  13.843  44.793   8.264
 1744POPC   C3B24657  13.818  44.781   7.964
 1744POPC   C4B24658  13.877  44.738   7.664
 1745POPC   NC324659   3.494  18.244   9.464
 1745POPC   PO424660   3.536  18.315   9.164
 1745POPC   GL124661   3.516  18.295   8.864
 1745POPC   GL224662   3.495  18.367   8.864
 1745POPC   C1A24663   3.569  18.280   8.564
 1745POPC   D2A24664   3.570  18.268   8.264
 1745POPC   C3A24665   3.574  18.326   7.964
 1745POPC   C4A24666   3.571  18.292   7.664
 1745POPC   C1B24667   3.507  18.541   8.564
 1745POPC   C2B24668   3.527  18.505   8.264
 1745POPC   C3B24669   3.550  18.567   7.964
 1745POPC   C4B24670   3.550  18.533   7.664
 1746POPC   NC324671  42.323  33.787   9.464
 1746POPC   PO424672  42.341  33.807   9.164
 1746POPC   GL124673  42.329  33.825   8.864
 1746POPC   GL224674  42.450  33.781   8.864
 1746POPC   C1A24675  42.363  33.771   8.564
 1746POPC   D2A24676  42.360  33.776   8.264
 1746POPC   C3A24677  42.357  33.834   7.964
 1746POPC   C4A24678  42.374  33.772   7.664
 1746POPC   C1B24679  42.570  33.779   8.564
 1746POPC   C2B24680  42.619  33.818   8.264
 1746POPC   C3B24681  42.558  33.766   7.964
 1746POPC   C4B24682  42.533  33.794   7.664
 1747POPC   NC324683  22.142   6.619   9.464
 1747POPC   PO424684  22.164   6.610   9.164
 1747POPC   GL124685  22.171   6.666   8.864
 1747POPC   GL224686  22.069   6.631   8.864
 1747POPC   C1A24687  22.158   6.620   8.564
 1747POPC   D2A24688  22.122   6.661   8.264
 1747POPC   C3A24689  22.199   6.691   7.964
 1747POPC   C4A24690  22.185   6.630   7.664
 1747POPC   C1B24691  21.936   6.682   8.564
 1747POPC   C2B24692  21.908   6.653   8.264
 1747POPC   C3B24693  21.928   6.609   7.964
 1747POPC   C4B24694  21.904   6.670   7.664
 1748POPC   NC324695  27.639  17.544   9.464
 1748POPC   PO424696  27.572  17.542   9.164
 1748POPC   GL124697  27.590  17.463   8.864
 1748POPC   GL224698  27.575  17.352   8.864
 1748POPC   C1A24699  27.558  17.474   8.564
 1748POPC   D2A24700  27.558  17.514   8.264
 1748POPC   C3A24701  27.571  17.509   7.964
 1748POPC   C4A24702  27.544  17.474   7.664
 1748POPC   C1B24703  27.623  17.240   8.564
 1748POPC   C2B24704  27.562  17.252   8.264
 1748POPC   C3B24705  27.598  17.236   7.964
 1748POPC   C4B24706  27.572  17.241   7.664
 1749POPC   NC324707  25.268  43.836   9.464
 1749POPC   PO424708  25.270  43.872   9.164
 1749POPC   GL124709  25.250  43.907   8.864
 1749POPC   GL224710  25.389  43.936   8.864
 1749POPC   C1A24711  25.310  43.917   8.564
 1749POPC   D2A24712  25.225  43.889   8.264
 1749POPC   C3A24713  25.259  43.861   7.964
 1749POPC   C4A24714  25.266  43.866   7.664
 1749POPC   C1B24715  25.437  44.057   8.564
 1749POPC   C2B24716  25.378  44.074   8.264
 1749POPC   C3B24717  25.387  44.040   7.964
 1749POPC   C4B24718  25.391  44.131   7.664
 1750POPC   NC324719   8.941  43.146   9.464
 1750POPC   PO424720   8.981  43.146   9.164
 1750POPC   GL124721   8.981  43.101   8.864
 1750POPC   GL224722   8.881  43.219   8.864
 1750POPC   C1A24723   8.945  43.062   8.564
 1750POPC   D2A24724   8.972  43.070   8.264
 1750POPC   C3A24725   8.992  43.140   7.964
 1750POPC   C4A24726   8.966  43.071   7.664
 1750POPC   C1B24727   8.853  43.257   8.564
 1750POPC   C2B24728   8.812  43.289   8.264
 1750POPC   C3B24729   8.773  43.291   7.964
 1750POPC   C4B24730   8.835  43.298   7.664
 1751POPC   NC324731  22.951   5.060   9.464
 1751POPC   PO424732  22.974   5.084   9.164
 1751POPC   GL124733  22.985   5.073   8.864
 1751POPC   GL224734  22.848   5.195   8.864
 1751POPC   C1A24735  22.980   5.141   8.564
 1751POPC   D2A24736  22.977   5.089   8.264
 1751POPC   C3A24737  22.987   5.066   7.964
 1751POPC   C4A24738  22.969   5.098   7.664
 1751POPC   C1B24739  22.790   5.265   8.564
 1751POPC   C2B24740  22.724   5.307   8.264
 1751POPC   C3B24741  22.785   5.243   7.964
 1751POPC   C4B24742  22.735   5.240   7.664
 1752POPC   NC324743  16.737  32.974   9.464
 1752POPC   PO424744  16.727  33.033   9.164
 1752POPC   GL124745  16.691  32.977   8.864
 1752POPC   GL224746  16.594  33.085   8.864
 1752POPC   C1A24747  16.714  33.013   8.564
 1752POPC   D2A24748  16.712  33.053   8.264
 1752POPC   C3A24749  16.742  32.997   7.964
 1752POPC   C4A24750  16.742  33.074   7.664
 1752POPC   C1B24751  16.536  33.180   8.564
 1752POPC   C2B24752  16.538  33.226   8.264
 1752POPC   C3B24753  16.557  33.156   7.964
 1752POPC   C4B24754  16.523  33.217   7.664
 1753POPC   NC324755   8.168  10.573   9.464
 1753POPC   PO424756   8.235  10.496   9.164
 1753POPC   GL124757   8.228  10.475   8.864
 1753POPC   GL224758   8.346  10.491   8.864
 1753POPC   C1A24759   8.200  10.560   8.564
 1753POPC   D2A24760   8.149  10.544   8.264
 1753POPC   C3A24761   8.154  10.485   7.964
 1753POPC   C4A24762   8.223  10.494   7.664
 1753POPC   C1B24763   8.434  10.407   8.564
 1753POPC   C2B24764   8.462  10.401   8.264
 1753POPC   C3B24765   8.406  10.422   7.964
 1753POPC   C4B24766   8.454  10.406   7.664
 1754POPC   NC324767  37.686  26.018   9.464
 1754POPC   PO424768  37.694  26.012   9.164
 1754POPC   GL124769  37.664  26.086   8.864
 1754POPC   GL224770  37.587  26.062   8.864
 1754POPC   C1A24771  37.653  26.071   8.564
 1754POPC   D2A24772  37.677  26.087   8.264
 1754POPC   C3A24773  37.703  26.038   7.964
 1754POPC   C4A24774  37.680  26.002   7.664
 1754POPC   C1B24775  37.398  26.040   8.564
 1754POPC   C2B24776  37.464  26.043   8.264
 1754POPC   C3B24777  37.419  26.057   7.964
 1754POPC   C4B24778  37.391  26.090   7.664
 1755POPC   NC324779  11.271  27.632   9.464
 1755POPC   PO424780  11.305  27.585   9.164
 1755POPC   GL124781  11.296  27.618   8.864
 1755POPC   GL224782  11.216  27.496   8.864
 1755POPC   C1A24783  11.253  27.578   8.564
 1755POPC   D2A24784  11.302  27.615   8.264
 1755POPC   C3A24785  11.283  27.601   7.964
 1755POPC   C4A24786  11.282  27.605   7.664
 1755POPC   C1B24787  11.159  27.425   8.564
 1755POPC   C2B24788  11.096  27.374   8.264
 1755POPC   C3B24789  11.067  27.408   7.964
 1755POPC   C4B24790  11.166  27.393   7.664
 1756POPC   NC324791   1.260  24.512   9.464
 1756POPC   PO424792   1.259  24.524   9.164
 1756POPC   GL124793   1.202  24.444   8.864
 1756POPC   GL224794   1.272  24.359   8.864
 1756POPC   C1A24795   1.211  24.517   8.564
 1756POPC   D2A24796   1.179  24.509   8.264
 1756POPC   C3A24797   1.249  24.454   7.964
 1756POPC   C4A24798   1.184  24.451   7.664
 1756POPC   C1B24799   1.283  24.280   8.564
 1756POPC   C2B24800   1.278  24.240   8.264
 1756POPC   C3B24801   1.340  24.310   7.964
 1756POPC   C4B24802   1.339  24.219   7.664
 1757POPC   NC324803  30.699  33.054   9.464
 1757POPC   PO424804  30.693  32.988   9.164
 1757POPC   GL124805  30.695  33.067   8.864
 1757POPC   GL224806  30.761  33.135   8.864
 1757POPC   C1A24807  30.686  33.018   8.564
 1757POPC   D2A24808  30.742  32.988   8.264
 1757POPC   C3A24809  30.710  33.046   7.964
 1757POPC   C4A24810  30.679  33.035   7.664
 1757POPC   C1B24811  30.836  33.292   8.564
 1757POPC   C2B24812  30.770  33.277   8.264
 1757POPC   C3B24813  30.836  33.272   7.964
 1757POPC   C4B24814  30.833  33.197   7.664
 1758POPC   NC324815  21.394  38.474   9.464
 1758POPC   PO424816  21.426  38.484   9.164
 1758POPC   GL124817  21.429  38.446   8.864
 1758POPC   GL224818  21.337  38.511   8.864
 1758POPC   C1A24819  21.426  38.437   8.564
 1758POPC   D2A24820  21.336  38.484   8.264
 1758POPC   C3A24821  21.382  38.453   7.964
 1758POPC   C4A24822  21.422  38.468   7.664
 1758POPC   C1B24823  21.178  38.625   8.564
 1758POPC   C2B24824  21.242  38.647   8.264
 1758POPC   C3B24825  21.260  38.642   7.964
 1758POPC   C4B24826  21.233  38.661   7.664
 1759POPC   NC324827  33.070  40.003   9.464
 1759POPC   PO424828  33.029  40.034   9.164
 1759POPC   GL124829  33.059  40.018   8.864
 1759POPC   GL224830  33.086  39.877   8.864
 1759POPC   C1A24831  33.070  40.045   8.564
 1759POPC   D2A24832  32.975  40.005   8.264
 1759POPC   C3A24833  33.048  40.041   7.964
 1759POPC   C4A24834  32.994  39.995   7.664
 1759POPC   C1B24835  33.010  39.743   8.564
 1759POPC   C2B24836  33.035  39.780   8.264
 1759POPC   C3B24837  33.074  39.753   7.964
 1759POPC   C4B24838  33.072  39.757   7.664
 1760POPC   NC324839   0.406  11.317   9.464
 1760POPC   PO424840   0.397  11.331   9.164
 1760POPC   GL124841   0.436  11.297   8.864
 1760POPC   GL224842   0.479  11.420   8.864
 1760POPC   C1A24843   0.464  11.330   8.564
 1760POPC   D2A24844   0.470  11.283   8.264
 1760POPC   C3A24845   0.467  11.340   7.964
 1760POPC   C4A24846   0.462  11.267   7.664
 1760POPC   C1B24847   0.544  11.481   8.564
 1760POPC   C2B24848   0.533  11.531   8.264
 1760POPC   C3B24849   0.576  11.507   7.964
 1760POPC   C4B24850   0.595  11.554   7.664
 1761POPC   NC324851   2.798  19.810   9.464
 1761POPC   PO424852   2.743  19.865   9.164
 1761POPC   GL124853   2.771  19.857   8.864
 1761POPC   GL224854   2.647  19.911   8.864
 1761POPC   C1A24855   2.754  19.868   8.564
 1761POPC   D2A24856   2.792  19.860   8.264
 1761POPC   C3A24857   2.807  19.856   7.964
 1761POPC   C4A24858   2.804  19.792   7.664
 1761POPC   C1B24859   2.540  19.865   8.564
 1761POPC   C2B24860   2.567  19.939   8.264
 1761POPC   C3B24861   2.523  19.874   7.964
 1761POPC   C4B24862   2.517  19.941   7.664
 1762POPC   NC324863  13.607  43.868   9.464
 1762POPC   PO424864  13.673  43.907   9.164
 1762POPC   GL124865  13.655  43.871   8.864
 1762POPC   GL224866  13.654  43.958   8.864
 1762POPC   C1A24867  13.594  43.849   8.564
 1762POPC   D2A24868  13.642  43.891   8.264
 1762POPC   C3A24869  13.675  43.861   7.964
 1762POPC   C4A24870  13.616  43.859   7.664
 1762POPC   C1B24871  13.692  44.139   8.564
 1762POPC   C2B24872  13.773  44.133   8.264
 1762POPC   C3B24873  13.737  44.119   7.964
 1762POPC   C4B24874  13.760  44.158   7.664
 1763POPC   NC324875  40.805  22.151   9.464
 1763POPC   PO424876  40.754  22.199   9.164
 1763POPC   GL124877  40.784  22.193   8.864
 1763POPC   GL224878  40.757  22.039   8.864
 1763POPC   C1A24879  40.817  22.129   8.564
 1763POPC   D2A24880  40.747  22.179   8.264
 1763POPC   C3A24881  40.787  22.179   7.964
 1763POPC   C4A24882  40.756  22.123   7.664
 1763POPC   C1B24883  40.640  21.971   8.564
 1763POPC   C2B24884  40.624  21.973   8.264
 1763POPC   C3B24885  40.605  21.978   7.964
 1763POPC   C4B24886  40.646  21.952   7.664
 1764POPC   NC324887   5.139   0.484   9.464
 1764POPC   PO424888   5.136   0.400   9.164
 1764POPC   GL124889   5.125   0.446   8.864
 1764POPC   GL224890   5.190   0.534   8.864
 1764POPC   C1A24891   5.070   0.441   8.564
 1764POPC   D2A24892   5.060   0.435   8.264
 1764POPC   C3A24893   5.047   0.451   7.964
 1764POPC   C4A24894   5.097   0.413   7.664
 1764POPC   C1B24895   5.265   0.622   8.564
 1764POPC   C2B24896   5.178   0.663   8.264
 1764POPC   C3B24897   5.236   0.638   7.964
 1764POPC   C4B24898   5.228   0.666   7.664
 1765POPC   NC324899  43.084   2.802   9.464
 1765POPC   PO424900  43.072   2.786   9.164
 1765POPC   GL124901  43.107   2.782   8.864
 1765POPC   GL224902  43.030   2.684   8.864
 1765POPC   C1A24903  43.077   2.725   8.564
 1765POPC   D2A24904  43.063   2.754   8.264
 1765POPC   C3A24905  43.116   2.779   7.964
 1765POPC   C4A24906  43.140   2.739   7.664
 1765POPC   C1B24907  42.931   2.645   8.564
 1765POPC   C2B24908  42.884   2.636   8.264
 1765POPC   C3B24909  42.858   2.645   7.964
 1765POPC   C4B24910  42.888   2.627   7.664
 1766POPC   NC324911   0.403   5.856   9.464
 1766POPC   PO424912   0.485   5.898   9.164
 1766POPC   GL124913   0.394   5.892   8.864
 1766POPC   GL224914   0.369   5.919   8.864
 1766POPC   C1A24915   0.420   5.895   8.564
 1766POPC   D2A24916   0.431   5.877   8.264
 1766POPC   C3A24917   0.415   5.826   7.964
 1766POPC   C4A24918   0.449   5.840   7.664
 1766POPC   C1B24919   0.262   6.045   8.564
 1766POPC   C2B24920   0.259   6.076   8.264
 1766POPC   C3B24921   0.279   5.997   7.964
 1766POPC   C4B24922   0.289   5.983   7.664
 1767POPC   NC324923  10.517  15.142   9.464
 1767POPC   PO424924  10.533  15.159   9.164
 1767POPC   GL124925  10.483  15.179   8.864
 1767POPC   GL224926  10.468  15.201   8.864
 1767POPC   C1A24927  10.503  15.217   8.564
 1767POPC   D2A24928  10.559  15.131   8.264
 1767POPC   C3A24929  10.572  15.198   7.964
 1767POPC   C4A24930  10.544  15.165   7.664
 1767POPC   C1B24931  10.312  15.342   8.564
 1767POPC   C2B24932  10.279  15.349   8.264
 1767POPC   C3B24933  10.333  15.297   7.964
 1767POPC   C4B24934  10.353  15.286   7.664
 1768POPC   NC324935  28.380  11.272   9.464
 1768POPC   PO424936  28.377  11.269   9.164
 1768POPC   GL124937  28.319  11.339   8.864
 1768POPC   GL224938  28.303  11.385   8.864
 1768POPC   C1A24939  28.361  11.285   8.564
 1768POPC   D2A24940  28.334  11.307   8.264
 1768POPC   C3A24941  28.362  11.315   7.964
 1768POPC   C4A24942  28.340  11.310   7.664
 1768POPC   C1B24943  28.274  11.563   8.564
 1768POPC   C2B24944  28.282  11.548   8.264
 1768POPC   C3B24945  28.285  11.478   7.964
 1768POPC   C4B24946  28.226  11.506   7.664
 1769POPC   NC324947  29.877  16.716   9.464
 1769POPC   PO424948  29.938  16.711   9.164
 1769POPC   GL124949  29.892  16.685   8.864
 1769POPC   GL224950  29.842  16.806   8.864
 1769POPC   C1A24951  29.899  16.776   8.564
 1769POPC   D2A24952  29.883  16.711   8.264
 1769POPC   C3A24953  29.957  16.747   7.964
 1769POPC   C4A24954  29.966  16.716   7.664
 1769POPC   C1B24955  29.805  16.963   8.564
 1769POPC   C2B24956  29.860  16.936   8.264
 1769POPC   C3B24957  29.813  17.016   7.964
 1769POPC   C4B24958  29.824  17.016   7.664
 1770POPC   NC324959  43.886   4.286   9.464
 1770POPC   PO424960  43.879   4.367   9.164
 1770POPC   GL124961  43.888   4.299   8.864
 1770POPC   GL224962  43.807   4.450   8.864
 1770POPC   C1A24963  43.866   4.360   8.564
 1770POPC   D2A24964  43.880   4.350   8.264
 1770POPC   C3A24965  43.840   4.367   7.964
 1770POPC   C4A24966  43.840   4.284   7.664
 1770POPC   C1B24967  43.737   4.581   8.564
 1770POPC   C2B24968  43.743   4.539   8.264
 1770POPC   C3B24969  43.804   4.551   7.964
 1770POPC   C4B24970  43.740   4.487   7.664
 1771POPC   NC324971  19.104  17.539   9.464
 1771POPC   PO424972  19.016  17.530   9.164
 1771POPC   GL124973  19.012  17.535   8.864
 1771POPC   GL224974  18.985  17.414   8.864
 1771POPC   C1A24975  19.074  17.522   8.564
 1771POPC   D2A24976  19.061  17.557   8.264
 1771POPC   C3A24977  19.062  17.529   7.964
 1771POPC   C4A24978  19.091  17.518   7.664
 1771POPC   C1B24979  18.907  17.351   8.564
 1771POPC   C2B24980  18.925  17.297   8.264
 1771POPC   C3B24981  18.915  17.269   7.964
 1771POPC   C4B24982  18.953  17.312   7.664
 1772POPC   NC324983  30.726   7.375   9.464
 1772POPC   PO424984  30.676   7.457   9.164
 1772POPC   GL124985  30.662   7.376   8.864
 1772POPC   GL224986  30.613   7.330   8.864
 1772POPC   C1A24987  30.728   7.391   8.564
 1772POPC   D2A24988  30.700   7.463   8.264
 1772POPC   C3A24989  30.732   7.458   7.964
 1772POPC   C4A24990  30.712   7.391   7.664
 1772POPC   C1B24991  30.559   7.190   8.564
 1772POPC   C2B24992  30.597   7.195   8.264
 1772POPC   C3B24993  30.597   7.194   7.964
 1772POPC   C4B24994  30.571   7.223   7.664
 1773POPC   NC324995  32.278  44.616   9.464
 1773POPC   PO424996  32.207  44.654   9.164
 1773POPC   GL124997  32.279  44.616   8.864
 1773POPC   GL224998  32.163  44.661   8.864
 1773POPC   C1A24999  32.242  44.670   8.564
 1773POPC   D2A25000  32.259  44.695   8.264
 1773POPC   C3A25001  32.242  44.680   7.964
 1773POPC   C4A25002  32.247  44.688   7.664
 1773POPC   C1B25003  31.971  44.646   8.564
 1773POPC   C2B25004  31.990  44.636   8.264
 1773POPC   C3B25005  32.028  44.618   7.964
 1773POPC   C4B25006  31.949  44.623   7.664
 1774POPC   NC325007  11.303  44.707   9.464
 1774POPC   PO425008  11.314  44.666   9.164
 1774POPC   GL125009  11.346  44.652   8.864
 1774POPC   GL225010  11.236  44.600   8.864
 1774POPC   C1A25011  11.290  44.676   8.564
 1774POPC   D2A25012  11.314  44.624   8.264
 1774POPC   C3A25013  11.288  44.637   7.964
 1774POPC   C4A25014  11.282  44.653   7.664
 1774POPC   C1B25015  11.135  44.485   8.564
 1774POPC   C2B25016  11.116  44.483   8.264
 1774POPC   C3B25017  11.136  44.493   7.964
 1774POPC   C4B25018  11.195  44.497   7.664
 1775POPC   NC325019  43.918  28.413   9.464
 1775POPC   PO425020  43.888  28.413   9.164
 1775POPC   GL125021  43.894  28.399   8.864
 1775POPC   GL225022  43.909  28.491   8.864
 1775POPC   C1A25023  43.935  28.330   8.564
 1775POPC   D2A25024  43.860  28.393   8.264
 1775POPC   C3A25025  43.884  28.348   7.964
 1775POPC   C4A25026  43.847  28.416   7.664
 1775POPC   C1B25027  44.006  28.616   8.564
 1775POPC   C2B25028  43.934  28.567   8.264
 1775POPC   C3B25029  43.983  28.615   7.964
 1775POPC   C4B25030  43.998  28.577   7.664
 1776POPC   NC325031   6.599   0.468   9.464
 1776POPC   PO425032   6.662   0.441   9.164
 1776POPC   GL125033   6.629   0.462   8.864
 1776POPC   GL225034   6.556   0.389   8.864
 1776POPC   C1A25035   6.607   0.480   8.564
 1776POPC   D2A25036   6.687   0.467   8.264
 1776POPC   C3A25037   6.622   0.433   7.964
 1776POPC   C4A25038   6.633   0.389   7.664
 1776POPC   C1B25039   6.401   0.440   8.564
 1776POPC   C2B25040   6.368   0.399   8.264
 1776POPC   C3B25041   6.443   0.381   7.964
 1776POPC   C4B25042   6.356   0.438   7.664
 1777POPC   NC325043   8.219   4.316   9.464
 1777POPC   PO425044   8.180   4.292   9.164
 1777POPC   GL125045   8.240   4.307   8.864
 1777POPC   GL225046   8.128   4.454   8.864
 1777POPC   C1A25047   8.156   4.361   8.564
 1777POPC   D2A25048   8.169   4.346   8.264
 1777POPC   C3A25049   8.197   4.329   7.964
 1777POPC   C4A25050   8.243   4.301   7.664
 1777POPC   C1B25051   8.085   4.516   8.564
 1777POPC   C2B25052   8.143   4.513   8.264
 1777POPC   C3B25053   8.136   4.534   7.964
 1777POPC   C4B25054   8.140   4.573   7.664
 1778POPC   NC325055  17.483  19.828   9.464
 1778POPC   PO425056  17.520  19.802   9.164
 1778POPC   GL125057  17.458  19.816   8.864
 1778POPC   GL225058  17.490  19.956   8.864
 1778POPC   C1A25059  17.487  19.798   8.564
 1778POPC   D2A25060  17.475  19.840   8.264
 1778POPC   C3A25061  17.466  19.838   7.964
 1778POPC   C4A25062  17.531  19.816   7.664
 1778POPC   C1B25063  17.456  20.113   8.564
 1778POPC   C2B25064  17.421  20.088   8.264
 1778POPC   C3B25065  17.479  20.073   7.964
 1778POPC   C4B25066  17.467  20.088   7.664
 1779POPC   NC325067  19.840  19.015   9.464
 1779POPC   PO425068  19.793  19.050   9.164
 1779POPC   GL125069  19.842  19.035   8.864
 1779POPC   GL225070  19.769  19.168   8.864
 1779POPC   C1A25071  19.838  19.105   8.564
 1779POPC   D2A25072  19.802  19.044   8.264
 1779POPC   C3A25073  19.792  19.049   7.964
 1779POPC   C4A25074  19.816  19.044   7.664
 1779POPC   C1B25075  19.817  19.326   8.564
 1779POPC   C2B25076  19.754  19.277   8.264
 1779POPC   C3B25077  19.752  19.255   7.964
 1779POPC   C4B25078  19.745  19.273   7.664
 1780POPC   NC325079   2.792   4.343   9.464
 1780POPC   PO425080   2.762   4.269   9.164
 1780POPC   GL125081   2.767   4.289   8.864
 1780POPC   GL225082   2.702   4.396   8.864
 1780POPC   C1A25083   2.796   4.344   8.564
 1780POPC   D2A25084   2.801   4.286   8.264
 1780POPC   C3A25085   2.808   4.279   7.964
 1780POPC   C4A25086   2.797   4.285   7.664
 1780POPC   C1B25087   2.755   4.579   8.564
 1780POPC   C2B25088   2.767   4.545   8.264
 1780POPC   C3B25089   2.726   4.578   7.964
 1780POPC   C4B25090   2.723   4.590   7.664
 1781POPC   NC325091  36.176   0.408   9.464
 1781POPC   PO425092  36.146   0.397   9.164
 1781POPC   GL125093  36.169   0.398   8.864
 1781POPC   GL225094  36.137   0.536   8.864
 1781POPC   C1A25095  36.145   0.465   8.564
 1781POPC   D2A25096  36.091   0.403   8.264
 1781POPC   C3A25097  36.124   0.452   7.964
 1781POPC   C4A25098  36.171   0.474   7.664
 1781POPC   C1B25099  36.098   0.706   8.564
 1781POPC   C2B25100  36.125   0.726   8.264
 1781POPC   C3B25101  36.113   0.696   7.964
 1781POPC   C4B25102  36.069   0.656   7.664
 1782POPC   NC325103  32.271   6.694   9.464
 1782POPC   PO425104  32.293   6.621   9.164
 1782POPC   GL125105  32.216   6.608   8.864
 1782POPC   GL225106  32.209   6.551   8.864
 1782POPC   C1A25107  32.244   6.675   8.564
 1782POPC   D2A25108  32.286   6.689   8.264
 1782POPC   C3A25109  32.260   6.640   7.964
 1782POPC   C4A25110  32.242   6.619   7.664
 1782POPC   C1B25111  32.125   6.490   8.564
 1782POPC   C2B25112  32.077   6.437   8.264
 1782POPC   C3B25113  32.085   6.427   7.964
 1782POPC   C4B25114  32.055   6.464   7.664
 1783POPC   NC325115   8.939  42.321   9.464
 1783POPC   PO425116   8.944  42.332   9.164
 1783POPC   GL125117   9.003  42.311   8.864
 1783POPC   GL225118   8.902  42.227   8.864
 1783POPC   C1A25119   8.943  42.346   8.564
 1783POPC   D2A25120   8.959  42.380   8.264
 1783POPC   C3A25121   9.000  42.314   7.964
 1783POPC   C4A25122   8.958  42.380   7.664
 1783POPC   C1B25123   8.845  42.090   8.564
 1783POPC   C2B25124   8.861  42.094   8.264
 1783POPC   C3B25125   8.924  42.111   7.964
 1783POPC   C4B25126   8.889  42.066   7.664
 1784POPC   NC325127  17.543  23.692   9.464
 1784POPC   PO425128  17.491  23.726   9.164
 1784POPC   GL125129  17.521  23.737   8.864
 1784POPC   GL225130  17.491  23.551   8.864
 1784POPC   C1A25131  17.527  23.718   8.564
 1784POPC   D2A25132  17.480  23.670   8.264
 1784POPC   C3A25133  17.515  23.672   7.964
 1784POPC   C4A25134  17.556  23.761   7.664
 1784POPC   C1B25135  17.558  23.442   8.564
 1784POPC   C2B25136  17.479  23.433   8.264
 1784POPC   C3B25137  17.508  23.434   7.964
 1784POPC   C4B25138  17.494  23.504   7.664
 1785POPC   NC325139  41.570  28.373   9.464
 1785POPC   PO425140  41.567  28.370   9.164
 1785POPC   GL125141  41.540  28.339   8.864
 1785POPC   GL225142  41.653  28.450   8.864
 1785POPC   C1A25143  41.510  28.417   8.564
 1785POPC   D2A25144  41.581  28.393   8.264
 1785POPC   C3A25145  41.526  28.321   7.964
 1785POPC   C4A25146  41.590  28.356   7.664
 1785POPC   C1B25147  41.747  28.443   8.564
 1785POPC   C2B25148  41.782  28.532   8.264
 1785POPC   C3B25149  41.801  28.488   7.964
 1785POPC   C4B25150  41.792  28.520   7.664
 1786POPC   NC325151  15.938   9.725   9.464
 1786POPC   PO425152  15.913   9.706   9.164
 1786POPC   GL125153  15.907   9.712   8.864
 1786POPC   GL225154  16.092   9.681   8.864
 1786POPC   C1A25155  15.990   9.742   8.564
 1786POPC   D2A25156  15.994   9.760   8.264
 1786POPC   C3A25157  15.906   9.785   7.964
 1786POPC   C4A25158  16.003   9.784   7.664
 1786POPC   C1B25159  16.191   9.654   8.564
 1786POPC   C2B25160  16.217   9.644   8.264
 1786POPC   C3B25161  16.165   9.714   7.964
 1786POPC   C4B25162  16.203   9.682   7.664
 1787POPC   NC325163  12.856  35.332   9.464
 1787POPC   PO425164  12.804  35.385   9.164
 1787POPC   GL125165  12.866  35.305   8.864
 1787POPC   GL225166  12.701  35.364   8.864
 1787POPC   C1A25167  12.853  35.372   8.564
 1787POPC   D2A25168  12.820  35.303   8.264
 1787POPC   C3A25169  12.843  35.346   7.964
 1787POPC   C4A25170  12.861  35.305   7.664
 1787POPC   C1B25171  12.659  35.463   8.564
 1787POPC   C2B25172  12.593  35.406   8.264
 1787POPC   C3B25173  12.626  35.453   7.964
 1787POPC   C4B25174  12.637  35.424   7.664
 1788POPC   NC325175  33.829  13.671   9.464
 1788POPC   PO425176  33.848  13.595   9.164
 1788POPC   GL125177  33.817  13.664   8.864
 1788POPC   GL225178  33.715  13.582   8.864
 1788POPC   C1A25179  33.779  13.673   8.564
 1788POPC   D2A25180  33.831  13.654   8.264
 1788POPC   C3A25181  33.840  13.618   7.964
 1788POPC   C4A25182  33.834  13.588   7.664
 1788POPC   C1B25183  33.619  13.524   8.564
 1788POPC   C2B25184  33.598  13.549   8.264
 1788POPC   C3B25185  33.619  13.460   7.964
 1788POPC   C4B25186  33.584  13.473   7.664
 1789POPC   NC325187  15.206   6.649   9.464
 1789POPC   PO425188  15.183   6.650   9.164
 1789POPC   GL125189  15.215   6.640   8.864
 1789POPC   GL225190  15.132   6.542   8.864
 1789POPC   C1A25191  15.139   6.615   8.564
 1789POPC   D2A25192  15.133   6.666   8.264
 1789POPC   C3A25193  15.175   6.641   7.964
 1789POPC   C4A25194  15.165   6.679   7.664
 1789POPC   C1B25195  15.107   6.393   8.564
 1789POPC   C2B25196  15.080   6.448   8.264
 1789POPC   C3B25197  15.031   6.448   7.964
 1789POPC   C4B25198  15.055   6.458   7.664
 1790POPC   NC325199   0.442   6.597   9.464
 1790POPC   PO425200   0.469   6.663   9.164
 1790POPC   GL125201   0.408   6.687   8.864
 1790POPC   GL225202   0.443   6.514   8.864
 1790POPC   C1A25203   0.462   6.691   8.564
 1790POPC   D2A25204   0.401   6.687   8.264
 1790POPC   C3A25205   0.390   6.681   7.964
 1790POPC   C4A25206   0.487   6.648   7.664
 1790POPC   C1B25207   0.412   6.434   8.564
 1790POPC   C2B25208   0.430   6.363   8.264
 1790POPC   C3B25209   0.383   6.399   7.964
 1790POPC   C4B25210   0.367   6.407   7.664
 1791POPC   NC325211  13.657  17.502   9.464
 1791POPC   PO425212  13.596  17.510   9.164
 1791POPC   GL125213  13.627  17.544   8.864
 1791POPC   GL225214  13.470  17.547   8.864
 1791POPC   C1A25215  13.598  17.487   8.564
 1791POPC   D2A25216  13.578  17.530   8.264
 1791POPC   C3A25217  13.599  17.502   7.964
 1791POPC   C4A25218  13.642  17.535   7.664
 1791POPC   C1B25219  13.405  17.573   8.564
 1791POPC   C2B25220  13.393  17.608   8.264
 1791POPC   C3B25221  13.400  17.609   7.964
 1791POPC   C4B25222  13.420  17.557   7.664
 1792POPC   NC325223  26.087  28.371   9.464
 1792POPC   PO425224  26.055  28.404   9.164
 1792POPC   GL125225  26.060  28.349   8.864
 1792POPC   GL225226  26.008  28.236   8.864
 1792POPC   C1A25227  26.076  28.338   8.564
 1792POPC   D2A25228  26.066  28.348   8.264
 1792POPC   C3A25229  26.059  28.334   7.964
 1792POPC   C4A25230  26.035  28.349   7.664
 1792POPC   C1B25231  25.970  28.138   8.564
 1792POPC   C2B25232  25.902  28.155   8.264
 1792POPC   C3B25233  25.944  28.155   7.964
 1792POPC   C4B25234  25.995  28.168   7.664
 1793POPC   NC325235  21.347  12.890   9.464
 1793POPC   PO425236  21.348  12.827   9.164
 1793POPC   GL125237  21.357  12.808   8.864
 1793POPC   GL225238  21.305  12.936   8.864
 1793POPC   C1A25239  21.394  12.836   8.564
 1793POPC   D2A25240  21.359  12.866   8.264
 1793POPC   C3A25241  21.363  12.840   7.964
 1793POPC   C4A25242  21.387  12.881   7.664
 1793POPC   C1B25243  21.325  13.041   8.564
 1793POPC   C2B25244  21.351  13.088   8.264
 1793POPC   C3B25245  21.356  13.102   7.964
 1793POPC   C4B25246  21.324  13.075   7.664
 1794POPC   NC325247  29.925  27.555   9.464
 1794POPC   PO425248  29.937  27.607   9.164
 1794POPC   GL125249  29.884  27.630   8.864
 1794POPC   GL225250  30.062  27.598   8.864
 1794POPC   C1A25251  29.877  27.593   8.564
 1794POPC   D2A25252  29.938  27.626   8.264
 1794POPC   C3A25253  29.922  27.624   7.964
 1794POPC   C4A25254  29.956  27.573   7.664
 1794POPC   C1B25255  30.218  27.628   8.564
 1794POPC   C2B25256  30.207  27.613   8.264
 1794POPC   C3B25257  30.213  27.537   7.964
 1794POPC   C4B25258  30.185  27.577   7.664
 1795POPC   NC325259  21.411   5.876   9.464
 1795POPC   PO425260  21.378   5.852   9.164
 1795POPC   GL125261  21.430   5.903   8.864
 1795POPC   GL225262  21.384   5.769   8.864
 1795POPC   C1A25263  21.352   5.856   8.564
 1795POPC   D2A25264  21.396   5.824   8.264
 1795POPC   C3A25265  21.353   5.909   7.964
 1795POPC   C4A25266  21.342   5.837   7.664
 1795POPC   C1B25267  21.326   5.616   8.564
 1795POPC   C2B25268  21.364   5.662   8.264
 1795POPC   C3B25269  21.271   5.596   7.964
 1795POPC   C4B25270  21.324   5.620   7.664
 1796POPC   NC325271  26.862  36.926   9.464
 1796POPC   PO425272  26.811  36.933   9.164
 1796POPC   GL125273  26.864  36.856   8.864
 1796POPC   GL225274  26.799  37.041   8.864
 1796POPC   C1A25275  26.813  36.900   8.564
 1796POPC   D2A25276  26.822  36.862   8.264
 1796POPC   C3A25277  26.825  36.875   7.964
 1796POPC   C4A25278  26.806  36.908   7.664
 1796POPC   C1B25279  26.808  37.194   8.564
 1796POPC   C2B25280  26.881  37.141   8.264
 1796POPC   C3B25281  26.829  37.143   7.964
 1796POPC   C4B25282  26.810  37.136   7.664
 1797POPC   NC325283   8.941  29.109   9.464
 1797POPC   PO425284   8.923  29.164   9.164
 1797POPC   GL125285   9.010  29.129   8.864
 1797POPC   GL225286   8.858  29.186   8.864
 1797POPC   C1A25287   8.999  29.180   8.564
 1797POPC   D2A25288   8.946  29.187   8.264
 1797POPC   C3A25289   8.958  29.121   7.964
 1797POPC   C4A25290   8.923  29.149   7.664
 1797POPC   C1B25291   8.827  29.299   8.564
 1797POPC   C2B25292   8.826  29.280   8.264
 1797POPC   C3B25293   8.749  29.292   7.964
 1797POPC   C4B25294   8.819  29.265   7.664
 1798POPC   NC325295  22.955  33.049   9.464
 1798POPC   PO425296  22.967  32.990   9.164
 1798POPC   GL125297  22.954  32.984   8.864
 1798POPC   GL225298  22.925  32.944   8.864
 1798POPC   C1A25299  22.899  32.982   8.564
 1798POPC   D2A25300  22.979  32.979   8.264
 1798POPC   C3A25301  22.975  33.058   7.964
 1798POPC   C4A25302  22.965  33.063   7.664
 1798POPC   C1B25303  22.920  32.765   8.564
 1798POPC   C2B25304  22.945  32.788   8.264
 1798POPC   C3B25305  22.908  32.770   7.964
 1798POPC   C4B25306  23.003  32.734   7.664
 1799POPC   NC325307  24.539  19.789   9.464
 1799POPC   PO425308  24.455  19.841   9.164
 1799POPC   GL125309  24.506  19.787   8.864
 1799POPC   GL225310  24.346  19.733   8.864
 1799POPC   C1A25311  24.449  19.852   8.564
 1799POPC   D2A25312  24.536  19.844   8.264
 1799POPC   C3A25313  24.474  19.881   7.964
 1799POPC   C4A25314  24.460  19.855   7.664
 1799POPC   C1B25315  24.214  19.719   8.564
 1799POPC   C2B25316  24.286  19.737   8.264
 1799POPC   C3B25317  24.216  19.754   7.964
 1799POPC   C4B25318  24.272  19.774   7.664
 1800POPC   NC325319  10.492  35.366   9.464
 1800POPC   PO425320  10.515  35.307   9.164
 1800POPC   GL125321  10.518  35.358   8.864
 1800POPC   GL225322  10.513  35.246   8.864
 1800POPC   C1A25323  10.487  35.344   8.564
 1800POPC   D2A25324  10.536  35.366   8.264
 1800POPC   C3A25325  10.480  35.332   7.964
 1800POPC   C4A25326  10.543  35.319   7.664
 1800POPC   C1B25327  10.432  35.153   8.564
 1800POPC   C2B25328  10.476  35.152   8.264
 1800POPC   C3B25329  10.485  35.069   7.964
 1800POPC   C4B25330  10.492  35.058   7.664
 1801POPC   NC325331  32.285   0.413   9.464
 1801POPC   PO425332  32.293   0.393   9.164
 1801POPC   GL125333  32.241   0.480   8.864
 1801POPC   GL225334  32.079   0.438   8.864
 1801POPC   C1A25335  32.236   0.447   8.564
 1801POPC   D2A25336  32.239   0.452   8.264
 1801POPC   C3A25337  32.217   0.472   7.964
 1801POPC   C4A25338  32.230   0.441   7.664
 1801POPC   C1B25339  32.004   0.501   8.564
 1801POPC   C2B25340  32.040   0.485   8.264
 1801POPC   C3B25341  32.028   0.513   7.964
 1801POPC   C4B25342  31.994   0.433   7.664
 1802POPC   NC325343  16.774  41.540   9.464
 1802POPC   PO425344  16.772  41.599   9.164
 1802POPC   GL125345  16.717  41.601   8.864
 1802POPC   GL225346  16.578  41.623   8.864
 1802POPC   C1A25347  16.704  41.528   8.564
 1802POPC   D2A25348  16.713  41.573   8.264
 1802POPC   C3A25349  16.684  41.585   7.964
 1802POPC   C4A25350  16.702  41.602   7.664
 1802POPC   C1B25351  16.481  41.726   8.564
 1802POPC   C2B25352  16.541  41.644   8.264
 1802POPC   C3B25353  16.537  41.714   7.964
 1802POPC   C4B25354  16.567  41.702   7.664
 1803POPC   NC325355  15.165  33.796   9.464
 1803POPC   PO425356  15.143  33.767   9.164
 1803POPC   GL125357  15.185  33.827   8.864
 1803POPC   GL225358  15.100  33.871   8.864
 1803POPC   C1A25359  15.213  33.807   8.564
 1803POPC   D2A25360  15.199  33.761   8.264
 1803POPC   C3A25361  15.193  33.837   7.964
 1803POPC   C4A25362  15.133  33.777   7.664
 1803POPC   C1B25363  15.091  34.004   8.564
 1803POPC   C2B25364  15.087  34.006   8.264
 1803POPC   C3B25365  15.093  34.050   7.964
 1803POPC   C4B25366  15.051  34.051   7.664
 1804POPC   NC325367  17.533  40.756   9.464
 1804POPC   PO425368  17.556  40.829   9.164
 1804POPC   GL125369  17.474  40.794   8.864
 1804POPC   GL225370  17.584  40.856   8.864
 1804POPC   C1A25371  17.521  40.789   8.564
 1804POPC   D2A25372  17.551  40.763   8.264
 1804POPC   C3A25373  17.507  40.825   7.964
 1804POPC   C4A25374  17.557  40.790   7.664
 1804POPC   C1B25375  17.778  40.824   8.564
 1804POPC   C2B25376  17.699  40.857   8.264
 1804POPC   C3B25377  17.731  40.842   7.964
 1804POPC   C4B25378  17.739  40.862   7.664
 1805POPC   NC325379  27.575  24.445   9.464
 1805POPC   PO425380  27.628  24.487   9.164
 1805POPC   GL125381  27.627  24.470   8.864
 1805POPC   GL225382  27.698  24.591   8.864
 1805POPC   C1A25383  27.591  24.473   8.564
 1805POPC   D2A25384  27.605  24.490   8.264
 1805POPC   C3A25385  27.611  24.529   7.964
 1805POPC   C4A25386  27.638  24.453   7.664
 1805POPC   C1B25387  27.765  24.693   8.564
 1805POPC   C2B25388  27.804  24.616   8.264
 1805POPC   C3B25389  27.768  24.668   7.964
 1805POPC   C4B25390  27.731  24.671   7.664
 1806POPC   NC325391  21.357   8.948   9.464
 1806POPC   PO425392  21.350   9.020   9.164
 1806POPC   GL125393  21.420   8.925   8.864
 1806POPC   GL225394  21.494   8.891   8.864
 1806POPC   C1A25395  21.374   8.928   8.564
 1806POPC   D2A25396  21.380   8.938   8.264
 1806POPC   C3A25397  21.420   8.949   7.964
 1806POPC   C4A25398  21.377   9.001   7.664
 1806POPC   C1B25399  21.598   8.878   8.564
 1806POPC   C2B25400  21.578   8.938   8.264
 1806POPC   C3B25401  21.604   8.874   7.964
 1806POPC   C4B25402  21.613   8.911   7.664
 1807POPC   NC325403  18.309  22.983   9.464
 1807POPC   PO425404  18.323  22.926   9.164
 1807POPC   GL125405  18.314  22.906   8.864
 1807POPC   GL225406  18.181  22.854   8.864
 1807POPC   C1A25407  18.318  22.956   8.564
 1807POPC   D2A25408  18.328  22.909   8.264
 1807POPC   C3A25409  18.285  22.900   7.964
 1807POPC   C4A25410  18.263  22.931   7.664
 1807POPC   C1B25411  18.039  22.868   8.564
 1807POPC   C2B25412  18.052  22.880   8.264
 1807POPC   C3B25413  18.007  22.830   7.964
 1807POPC   C4B25414  18.067  22.885   7.664
 1808POPC   NC325415   2.006   8.151   9.464
 1808POPC   PO425416   2.005   8.196   9.164
 1808POPC   GL125417   1.987   8.169   8.864
 1808POPC   GL225418   1.909   8.263   8.864
 1808POPC   C1A25419   2.003   8.235   8.564
 1808POPC   D2A25420   2.022   8.226   8.264
 1808POPC   C3A25421   1.964   8.237   7.964
 1808POPC   C4A25422   2.000   8.229   7.664
 1808POPC   C1B25423   1.745   8.289   8.564
 1808POPC   C2B25424   1.770   8.363   8.264
 1808POPC   C3B25425   1.745   8.288   7.964
 1808POPC   C4B25426   1.727   8.306   7.664
 1809POPC   NC325427   8.951   5.834   9.464
 1809POPC   PO425428   8.926   5.881   9.164
 1809POPC   GL125429   8.976   5.851   8.864
 1809POPC   GL225430   8.876   5.772   8.864
 1809POPC   C1A25431   8.982   5.889   8.564
 1809POPC   D2A25432   8.938   5.914   8.264
 1809POPC   C3A25433   8.928   5.845   7.964
 1809POPC   C4A25434   8.965   5.866   7.664
 1809POPC   C1B25435   8.779   5.700   8.564
 1809POPC   C2B25436   8.809   5.699   8.264
 1809POPC   C3B25437   8.744   5.734   7.964
 1809POPC   C4B25438   8.776   5.752   7.664
 1810POPC   NC325439   5.124  40.774   9.464
 1810POPC   PO425440   5.070  40.805   9.164
 1810POPC   GL125441   5.080  40.736   8.864
 1810POPC   GL225442   4.987  40.885   8.864
 1810POPC   C1A25443   5.094  40.766   8.564
 1810POPC   D2A25444   5.084  40.816   8.264
 1810POPC   C3A25445   5.081  40.803   7.964
 1810POPC   C4A25446   5.135  40.761   7.664
 1810POPC   C1B25447   4.913  40.945   8.564
 1810POPC   C2B25448   4.983  41.016   8.264
 1810POPC   C3B25449   4.943  41.010   7.964
 1810POPC   C4B25450   4.943  40.970   7.664
 1811POPC   NC325451   3.514  35.315   9.464
 1811POPC   PO425452   3.543  35.377   9.164
 1811POPC   GL125453   3.550  35.360   8.864
 1811POPC   GL225454   3.646  35.290   8.864
 1811POPC   C1A25455   3.554  35.398   8.564
 1811POPC   D2A25456   3.578  35.360   8.264
 1811POPC   C3A25457   3.504  35.385   7.964
 1811POPC   C4A25458   3.515  35.316   7.664
 1811POPC   C1B25459   3.728  35.155   8.564
 1811POPC   C2B25460   3.691  35.139   8.264
 1811POPC   C3B25461   3.718  35.195   7.964
 1811POPC   C4B25462   3.764  35.202   7.664
 1812POPC   NC325463  44.688  30.737   9.464
 1812POPC   PO425464  44.697  30.655   9.164
 1812POPC   GL125465  44.625  30.658   8.864
 1812POPC   GL225466  44.570  30.687   8.864
 1812POPC   C1A25467  44.712  30.649   8.564
 1812POPC   D2A25468  44.706  30.743   8.264
 1812POPC   C3A25469  44.683  30.731   7.964
 1812POPC   C4A25470  44.616  30.652   7.664
 1812POPC   C1B25471  44.423  30.754   8.564
 1812POPC   C2B25472  44.409  30.764   8.264
 1812POPC   C3B25473  44.460  30.753   7.964
 1812POPC   C4B25474  44.461  30.688   7.664
 1813POPC   NC325475  40.832   0.426   9.464
 1813POPC   PO425476  40.829   0.409   9.164
 1813POPC   GL125477  40.798   0.397   8.864
 1813POPC   GL225478  40.906   0.474   8.864
 1813POPC   C1A25479  40.779   0.486   8.564
 1813POPC   D2A25480  40.830   0.423   8.264
 1813POPC   C3A25481  40.769   0.406   7.964
 1813POPC   C4A25482  40.832   0.406   7.664
 1813POPC   C1B25483  41.001   0.555   8.564
 1813POPC   C2B25484  41.036   0.579   8.264
 1813POPC   C3B25485  41.011   0.529   7.964
 1813POPC   C4B25486  41.030   0.520   7.664
 1814POPC   NC325487  36.886  39.969   9.464
 1814POPC   PO425488  36.873  40.037   9.164
 1814POPC   GL125489  36.912  39.980   8.864
 1814POPC   GL225490  36.824  39.935   8.864
 1814POPC   C1A25491  36.928  39.990   8.564
 1814POPC   D2A25492  36.908  40.018   8.264
 1814POPC   C3A25493  36.870  40.041   7.964
 1814POPC   C4A25494  36.952  39.968   7.664
 1814POPC   C1B25495  36.628  39.930   8.564
 1814POPC   C2B25496  36.657  39.915   8.264
 1814POPC   C3B25497  36.628  39.864   7.964
 1814POPC   C4B25498  36.644  39.923   7.664
 1815POPC   NC325499  23.711  12.847   9.464
 1815POPC   PO425500  23.727  12.876   9.164
 1815POPC   GL125501  23.763  12.803   8.864
 1815POPC   GL225502  23.776  12.771   8.864
 1815POPC   C1A25503  23.764  12.810   8.564
 1815POPC   D2A25504  23.725  12.815   8.264
 1815POPC   C3A25505  23.750  12.872   7.964
 1815POPC   C4A25506  23.698  12.830   7.664
 1815POPC   C1B25507  23.847  12.653   8.564
 1815POPC   C2B25508  23.791  12.594   8.264
 1815POPC   C3B25509  23.821  12.662   7.964
 1815POPC   C4B25510  23.863  12.667   7.664
 1816POPC   NC325511  36.930  35.306   9.464
 1816POPC   PO425512  36.884  35.325   9.164
 1816POPC   GL125513  36.876  35.366   8.864
 1816POPC   GL225514  36.988  35.305   8.864
 1816POPC   C1A25515  36.953  35.304   8.564
 1816POPC   D2A25516  36.888  35.347   8.264
 1816POPC   C3A25517  36.909  35.327   7.964
 1816POPC   C4A25518  36.912  35.359   7.664
 1816POPC   C1B25519  37.121  35.242   8.564
 1816POPC   C2B25520  37.128  35.316   8.264
 1816POPC   C3B25521  37.099  35.227   7.964
 1816POPC   C4B25522  37.183  35.278   7.664
 1817POPC   NC325523  41.589  44.619   9.464
 1817POPC   PO425524  41.550  44.668   9.164
 1817POPC   GL125525  41.537  44.658   8.864
 1817POPC   GL225526  41.524  44.593   8.864
 1817POPC   C1A25527  41.526  44.680   8.564
 1817POPC   D2A25528  41.574  44.622   8.264
 1817POPC   C3A25529  41.567  44.615   7.964
 1817POPC   C4A25530  41.565  44.693   7.664
 1817POPC   C1B25531  41.487  44.452   8.564
 1817POPC   C2B25532  41.492  44.446   8.264
 1817POPC   C3B25533  41.512  44.413   7.964
 1817POPC   C4B25534  41.461  44.394   7.664
 1818POPC   NC325535  11.278  13.585   9.464
 1818POPC   PO425536  11.348  13.594   9.164
 1818POPC   GL125537  11.319  13.601   8.864
 1818POPC   GL225538  11.379  13.575   8.864
 1818POPC   C1A25539  11.330  13.663   8.564
 1818POPC   D2A25540  11.340  13.584   8.264
 1818POPC   C3A25541  11.272  13.651   7.964
 1818POPC   C4A25542  11.269  13.667   7.664
 1818POPC   C1B25543  11.446  13.469   8.564
 1818POPC   C2B25544  11.485  13.418   8.264
 1818POPC   C3B25545  11.480  13.423   7.964
 1818POPC   C4B25546  11.457  13.424   7.664
 1819POPC   NC325547  34.565  32.276   9.464
 1819POPC   PO425548  34.547  32.241   9.164
 1819POPC   GL125549  34.547  32.241   8.864
 1819POPC   GL225550  34.630  32.348   8.864
 1819POPC   C1A25551  34.605  32.206   8.564
 1819POPC   D2A25552  34.597  32.208   8.264
 1819POPC   C3A25553  34.544  32.243   7.964
 1819POPC   C4A25554  34.558  32.229   7.664
 1819POPC   C1B25555  34.780  32.377   8.564
 1819POPC   C2B25556  34.719  32.433   8.264
 1819POPC   C3B25557  34.762  32.405   7.964
 1819POPC   C4B25558  34.799  32.439   7.664
 1820POPC   NC325559  44.678  10.527   9.464
 1820POPC   PO425560  44.673  10.510   9.164
 1820POPC   GL125561  44.682  10.486   8.864
 1820POPC   GL225562  44.527  10.537   8.864
 1820POPC   C1A25563  44.645  10.564   8.564
 1820POPC   D2A25564  44.683  10.479   8.264
 1820POPC   C3A25565  44.621  10.489   7.964
 1820POPC   C4A25566  44.634  10.572   7.664
 1820POPC   C1B25567  44.444  10.609   8.564
 1820POPC   C2B25568  44.423  10.608   8.264
 1820POPC   C3B25569  44.434  10.543   7.964
 1820POPC   C4B25570  44.441  10.587   7.664
 1821POPC   NC325571  15.203   8.979   9.464
 1821POPC   PO425572  15.217   9.010   9.164
 1821POPC   GL125573  15.143   9.012   8.864
 1821POPC   GL225574  15.096   8.872   8.864
 1821POPC   C1A25575  15.130   8.997   8.564
 1821POPC   D2A25576  15.201   8.966   8.264
 1821POPC   C3A25577  15.141   9.021   7.964
 1821POPC   C4A25578  15.198   8.975   7.664
 1821POPC   C1B25579  15.079   8.783   8.564
 1821POPC   C2B25580  15.066   8.711   8.264
 1821POPC   C3B25581  15.034   8.712   7.964
 1821POPC   C4B25582  15.081   8.713   7.664
 1822POPC   NC325583  11.268  32.989   9.464
 1822POPC   PO425584  11.258  33.051   9.164
 1822POPC   GL125585  11.347  33.043   8.864
 1822POPC   GL225586  11.452  32.972   8.864
 1822POPC   C1A25587  11.342  32.998   8.564
 1822POPC   D2A25588  11.269  33.006   8.264
 1822POPC   C3A25589  11.320  33.036   7.964
 1822POPC   C4A25590  11.307  32.993   7.664
 1822POPC   C1B25591  11.576  33.009   8.564
 1822POPC   C2B25592  11.548  33.006   8.264
 1822POPC   C3B25593  11.504  32.934   7.964
 1822POPC   C4B25594  11.572  33.020   7.664
 1823POPC   NC325595  16.718   4.296   9.464
 1823POPC   PO425596  16.733   4.361   9.164
 1823POPC   GL125597  16.749   4.299   8.864
 1823POPC   GL225598  16.858   4.370   8.864
 1823POPC   C1A25599  16.700   4.307   8.564
 1823POPC   D2A25600  16.737   4.364   8.264
 1823POPC   C3A25601  16.724   4.364   7.964
 1823POPC   C4A25602  16.750   4.358   7.664
 1823POPC   C1B25603  16.989   4.421   8.564
 1823POPC   C2B25604  17.008   4.395   8.264
 1823POPC   C3B25605  16.919   4.412   7.964
 1823POPC   C4B25606  16.928   4.452   7.664
 1824POPC   NC325607  39.198  39.192   9.464
 1824POPC   PO425608  39.198  39.257   9.164
 1824POPC   GL125609  39.205  39.276   8.864
 1824POPC   GL225610  39.111  39.360   8.864
 1824POPC   C1A25611  39.241  39.194   8.564
 1824POPC   D2A25612  39.186  39.241   8.264
 1824POPC   C3A25613  39.193  39.200   7.964
 1824POPC   C4A25614  39.215  39.280   7.664
 1824POPC   C1B25615  39.022  39.431   8.564
 1824POPC   C2B25616  39.093  39.384   8.264
 1824POPC   C3B25617  39.077  39.441   7.964
 1824POPC   C4B25618  39.076  39.413   7.664
 1825POPC   NC325619  28.320  39.204   9.464
 1825POPC   PO425620  28.395  39.250   9.164
 1825POPC   GL125621  28.323  39.208   8.864
 1825POPC   GL225622  28.241  39.303   8.864
 1825POPC   C1A25623  28.382  39.239   8.564
 1825POPC   D2A25624  28.395  39.188   8.264
 1825POPC   C3A25625  28.407  39.265   7.964
 1825POPC   C4A25626  28.368  39.245   7.664
 1825POPC   C1B25627  28.199  39.423   8.564
 1825POPC   C2B25628  28.236  39.407   8.264
 1825POPC   C3B25629  28.253  39.450   7.964
 1825POPC   C4B25630  28.170  39.376   7.664
 1826POPC   NC325631  40.823  44.675   9.464
 1826POPC   PO425632  40.829  44.650   9.164
 1826POPC   GL125633  40.746  44.711   8.864
 1826POPC   GL225634  40.840  44.533   8.864
 1826POPC   C1A25635  40.832  44.655   8.564
 1826POPC   D2A25636  40.752  44.626   8.264
 1826POPC   C3A25637  40.741  44.615   7.964
 1826POPC   C4A25638  40.832  44.637   7.664
 1826POPC   C1B25639  40.924  44.492   8.564
 1826POPC   C2B25640  40.995  44.444   8.264
 1826POPC   C3B25641  40.960  44.502   7.964
 1826POPC   C4B25642  40.964  44.453   7.664
 1827POPC   NC325643  22.205  15.948   9.464
 1827POPC   PO425644  22.201  15.944   9.164
 1827POPC   GL125645  22.135  15.982   8.864
 1827POPC   GL225646  22.291  15.947   8.864
 1827POPC   C1A25647  22.120  15.964   8.564
 1827POPC   D2A25648  22.169  15.964   8.264
 1827POPC   C3A25649  22.203  15.998   7.964
 1827POPC   C4A25650  22.171  15.918   7.664
 1827POPC   C1B25651  22.352  15.827   8.564
 1827POPC   C2B25652  22.372  15.830   8.264
 1827POPC   C3B25653  22.384  15.883   7.964
 1827POPC   C4B25654  22.430  15.875   7.664
 1828POPC   NC325655   8.201  26.823   9.464
 1828POPC   PO425656   8.204  26.856   9.164
 1828POPC   GL125657   8.159  26.777   8.864
 1828POPC   GL225658   8.190  26.943   8.864
 1828POPC   C1A25659   8.166  26.806   8.564
 1828POPC   D2A25660   8.193  26.783   8.264
 1828POPC   C3A25661   8.164  26.806   7.964
 1828POPC   C4A25662   8.190  26.768   7.664
 1828POPC   C1B25663   8.302  27.049   8.564
 1828POPC   C2B25664   8.272  27.048   8.264
 1828POPC   C3B25665   8.236  27.101   7.964
 1828POPC   C4B25666   8.269  27.096   7.664
 1829POPC   NC325667   0.396  29.184   9.464
 1829POPC   PO425668   0.439  29.121   9.164
 1829POPC   GL125669   0.421  29.154   8.864
 1829POPC   GL225670   0.453  29.224   8.864
 1829POPC   C1A25671   0.430  29.174   8.564
 1829POPC   D2A25672   0.485  29.096   8.264
 1829POPC   C3A25673   0.421  29.168   7.964
 1829POPC   C4A25674   0.418  29.154   7.664
 1829POPC   C1B25675   0.480  29.444   8.564
 1829POPC   C2B25676   0.396  29.420   8.264
 1829POPC   C3B25677   0.405  29.421   7.964
 1829POPC   C4B25678   0.442  29.368   7.664
 1830POPC   NC325679   5.842  16.000   9.464
 1830POPC   PO425680   5.878  15.938   9.164
 1830POPC   GL125681   5.834  15.909   8.864
 1830POPC   GL225682   5.905  16.086   8.864
 1830POPC   C1A25683   5.827  15.910   8.564
 1830POPC   D2A25684   5.854  15.983   8.264
 1830POPC   C3A25685   5.830  15.956   7.964
 1830POPC   C4A25686   5.832  15.942   7.664
 1830POPC   C1B25687   5.991  16.152   8.564
 1830POPC   C2B25688   5.994  16.161   8.264
 1830POPC   C3B25689   5.967  16.146   7.964
 1830POPC   C4B25690   5.970  16.188   7.664
 1831POPC   NC325691  18.276  14.392   9.464
 1831POPC   PO425692  18.274  14.420   9.164
 1831POPC   GL125693  18.332  14.440   8.864
 1831POPC   GL225694  18.408  14.418   8.864
 1831POPC   C1A25695  18.304  14.365   8.564
 1831POPC   D2A25696  18.257  14.354   8.264
 1831POPC   C3A25697  18.238  14.409   7.964
 1831POPC   C4A25698  18.268  14.355   7.664
 1831POPC   C1B25699  18.518  14.380   8.564
 1831POPC   C2B25700  18.531  14.329   8.264
 1831POPC   C3B25701  18.547  14.354   7.964
 1831POPC   C4B25702  18.498  14.388   7.664
 1832POPC   NC325703  26.806  15.133   9.464
 1832POPC   PO425704  26.808  15.228   9.164
 1832POPC   GL125705  26.799  15.195   8.864
 1832POPC   GL225706  26.905  15.098   8.864
 1832POPC   C1A25707  26.815  15.152   8.564
 1832POPC   D2A25708  26.853  15.150   8.264
 1832POPC   C3A25709  26.832  15.174   7.964
 1832POPC   C4A25710  26.830  15.192   7.664
 1832POPC   C1B25711  26.848  14.902   8.564
 1832POPC   C2B25712  26.889  14.910   8.264
 1832POPC   C3B25713  26.899  14.977   7.964
 1832POPC   C4B25714  26.935  14.972   7.664
 1833POPC   NC325715  26.005   1.964   9.464
 1833POPC   PO425716  26.036   1.982   9.164
 1833POPC   GL125717  26.076   2.002   8.864
 1833POPC   GL225718  26.159   1.918   8.864
 1833POPC   C1A25719  26.002   2.034   8.564
 1833POPC   D2A25720  26.000   2.003   8.264
 1833POPC   C3A25721  26.034   2.023   7.964
 1833POPC   C4A25722  26.073   2.030   7.664
 1833POPC   C1B25723  26.252   1.928   8.564
 1833POPC   C2B25724  26.294   1.910   8.264
 1833POPC   C3B25725  26.295   1.925   7.964
 1833POPC   C4B25726  26.293   1.905   7.664
 1834POPC   NC325727  39.962  28.408   9.464
 1834POPC   PO425728  40.028  28.324   9.164
 1834POPC   GL125729  40.000  28.360   8.864
 1834POPC   GL225730  40.086  28.442   8.864
 1834POPC   C1A25731  40.008  28.388   8.564
 1834POPC   D2A25732  40.008  28.344   8.264
 1834POPC   C3A25733  40.055  28.388   7.964
 1834POPC   C4A25734  40.036  28.357   7.664
 1834POPC   C1B25735  40.236  28.388   8.564
 1834POPC   C2B25736  40.247  28.455   8.264
 1834POPC   C3B25737  40.246  28.412   7.964
 1834POPC   C4B25738  40.240  28.452   7.664
 1835POPC   NC325739  38.503   1.247   9.464
 1835POPC   PO425740  38.500   1.219   9.164
 1835POPC   GL125741  38.435   1.203   8.864
 1835POPC   GL225742  38.513   1.125   8.864
 1835POPC   C1A25743  38.457   1.169   8.564
 1835POPC   D2A25744  38.485   1.262   8.264
 1835POPC   C3A25745  38.471   1.180   7.964
 1835POPC   C4A25746  38.410   1.207   7.664
 1835POPC   C1B25747  38.527   0.934   8.564
 1835POPC   C2B25748  38.504   0.969   8.264
 1835POPC   C3B25749  38.444   0.999   7.964
 1835POPC   C4B25750  38.518   0.922   7.664
 1836POPC   NC325751  41.517  21.363   9.464
 1836POPC   PO425752  41.527  21.352   9.164
 1836POPC   GL125753  41.566  21.389   8.864
 1836POPC   GL225754  41.644  21.322   8.864
 1836POPC   C1A25755  41.584  21.389   8.564
 1836POPC   D2A25756  41.562  21.369   8.264
 1836POPC   C3A25757  41.517  21.394   7.964
 1836POPC   C4A25758  41.608  21.411   7.664
 1836POPC   C1B25759  41.785  21.234   8.564
 1836POPC   C2B25760  41.799  21.263   8.264
 1836POPC   C3B25761  41.742  21.224   7.964
 1836POPC   C4B25762  41.744  21.198   7.664
 1837POPC   NC325763  29.942  19.817   9.464
 1837POPC   PO425764  29.942  19.845   9.164
 1837POPC   GL125765  29.926  19.860   8.864
 1837POPC   GL225766  29.820  19.755   8.864
 1837POPC   C1A25767  29.959  19.838   8.564
 1837POPC   D2A25768  29.947  19.799   8.264
 1837POPC   C3A25769  29.883  19.801   7.964
 1837POPC   C4A25770  29.915  19.792   7.664
 1837POPC   C1B25771  29.693  19.680   8.564
 1837POPC   C2B25772  29.707  19.726   8.264
 1837POPC   C3B25773  29.726  19.687   7.964
 1837POPC   C4B25774  29.680  19.676   7.664
 1838POPC   NC325775   6.653  33.063   9.464
 1838POPC   PO425776   6.597  33.055   9.164
 1838POPC   GL125777   6.658  33.014   8.864
 1838POPC   GL225778   6.568  33.135   8.864
 1838POPC   C1A25779   6.604  33.040   8.564
 1838POPC   D2A25780   6.657  33.031   8.264
 1838POPC   C3A25781   6.636  32.985   7.964
 1838POPC   C4A25782   6.620  32.992   7.664
 1838POPC   C1B25783   6.400  33.193   8.564
 1838POPC   C2B25784   6.401  33.165   8.264
 1838POPC   C3B25785   6.445  33.186   7.964
 1838POPC   C4B25786   6.415  33.170   7.664
 1839POPC   NC325787  38.451  11.282   9.464
 1839POPC   PO425788  38.444  11.329   9.164
 1839POPC   GL125789  38.489  11.325   8.864
 1839POPC   GL225790  38.538  11.198   8.864
 1839POPC   C1A25791  38.497  11.284   8.564
 1839POPC   D2A25792  38.468  11.266   8.264
 1839POPC   C3A25793  38.480  11.306   7.964
 1839POPC   C4A25794  38.428  11.314   7.664
 1839POPC   C1B25795  38.632  11.126   8.564
 1839POPC   C2B25796  38.717  11.217   8.264
 1839POPC   C3B25797  38.685  11.203   7.964
 1839POPC   C4B25798  38.693  11.205   7.664
 1840POPC   NC325799  20.632  35.370   9.464
 1840POPC   PO425800  20.640  35.353   9.164
 1840POPC   GL125801  20.608  35.342   8.864
 1840POPC   GL225802  20.766  35.395   8.864
 1840POPC   C1A25803  20.650  35.325   8.564
 1840POPC   D2A25804  20.600  35.346   8.264
 1840POPC   C3A25805  20.639  35.321   7.964
 1840POPC   C4A25806  20.572  35.392   7.664
 1840POPC   C1B25807  20.865  35.453   8.564
 1840POPC   C2B25808  20.895  35.444   8.264
 1840POPC   C3B25809  20.884  35.424   7.964
 1840POPC   C4B25810  20.882  35.422   7.664
 1841POPC   NC325811  26.856  12.860   9.464
 1841POPC   PO425812  26.803  12.816   9.164
 1841POPC   GL125813  26.842  12.835   8.864
 1841POPC   GL225814  26.889  12.775   8.864
 1841POPC   C1A25815  26.836  12.825   8.564
 1841POPC   D2A25816  26.799  12.852   8.264
 1841POPC   C3A25817  26.843  12.838   7.964
 1841POPC   C4A25818  26.784  12.822   7.664
 1841POPC   C1B25819  27.029  12.698   8.564
 1841POPC   C2B25820  27.031  12.685   8.264
 1841POPC   C3B25821  27.061  12.735   7.964
 1841POPC   C4B25822  27.005  12.684   7.664
 1842POPC   NC325823  33.808  32.281   9.464
 1842POPC   PO425824  33.763  32.254   9.164
 1842POPC   GL125825  33.758  32.249   8.864
 1842POPC   GL225826  33.704  32.334   8.864
 1842POPC   C1A25827  33.795  32.248   8.564
 1842POPC   D2A25828  33.770  32.219   8.264
 1842POPC   C3A25829  33.824  32.222   7.964
 1842POPC   C4A25830  33.819  32.199   7.664
 1842POPC   C1B25831  33.673  32.513   8.564
 1842POPC   C2B25832  33.664  32.452   8.264
 1842POPC   C3B25833  33.680  32.433   7.964
 1842POPC   C4B25834  33.704  32.488   7.664
 1843POPC   NC325835  26.840  11.327   9.464
 1843POPC   PO425836  26.858  11.349   9.164
 1843POPC   GL125837  26.791  11.320   8.864
 1843POPC   GL225838  26.910  11.389   8.864
 1843POPC   C1A25839  26.828  11.335   8.564
 1843POPC   D2A25840  26.785  11.256   8.264
 1843POPC   C3A25841  26.847  11.303   7.964
 1843POPC   C4A25842  26.818  11.258   7.664
 1843POPC   C1B25843  26.893  11.472   8.564
 1843POPC   C2B25844  26.920  11.503   8.264
 1843POPC   C3B25845  26.940  11.484   7.964
 1843POPC   C4B25846  26.956  11.499   7.664
 1844POPC   NC325847  20.567  25.245   9.464
 1844POPC   PO425848  20.598  25.313   9.164
 1844POPC   GL125849  20.645  25.264   8.864
 1844POPC   GL225850  20.628  25.117   8.864
 1844POPC   C1A25851  20.606  25.295   8.564
 1844POPC   D2A25852  20.598  25.290   8.264
 1844POPC   C3A25853  20.628  25.267   7.964
 1844POPC   C4A25854  20.594  25.243   7.664
 1844POPC   C1B25855  20.670  25.059   8.564
 1844POPC   C2B25856  20.623  24.983   8.264
 1844POPC   C3B25857  20.671  25.058   7.964
 1844POPC   C4B25858  20.613  25.052   7.664
 1845POPC   NC325859   9.725  11.337   9.464
 1845POPC   PO425860   9.707  11.326   9.164
 1845POPC   GL125861   9.769  11.314   8.864
 1845POPC   GL225862   9.746  11.453   8.864
 1845POPC   C1A25863   9.778  11.262   8.564
 1845POPC   D2A25864   9.710  11.344   8.264
 1845POPC   C3A25865   9.721  11.333   7.964
 1845POPC   C4A25866   9.712  11.298   7.664
 1845POPC   C1B25867   9.839  11.572   8.564
 1845POPC   C2B25868   9.860  11.527   8.264
 1845POPC   C3B25869   9.776  11.548   7.964
 1845POPC   C4B25870   9.771  11.509   7.664
 1846POPC   NC325871   1.235   5.869   9.464
 1846POPC   PO425872   1.175   5.886   9.164
 1846POPC   GL125873   1.218   5.889   8.864
 1846POPC   GL225874   1.261   5.935   8.864
 1846POPC   C1A25875   1.261   5.855   8.564
 1846POPC   D2A25876   1.227   5.911   8.264
 1846POPC   C3A25877   1.190   5.820   7.964
 1846POPC   C4A25878   1.213   5.904   7.664
 1846POPC   C1B25879   1.352   6.095   8.564
 1846POPC   C2B25880   1.364   6.046   8.264
 1846POPC   C3B25881   1.309   6.092   7.964
 1846POPC   C4B25882   1.310   6.053   7.664
 1847POPC   NC325883  39.273  36.156   9.464
 1847POPC   PO425884  39.262  36.153   9.164
 1847POPC   GL125885  39.208  36.166   8.864
 1847POPC   GL225886  39.287  36.008   8.864
 1847POPC   C1A25887  39.279  36.171   8.564
 1847POPC   D2A25888  39.254  36.127   8.264
 1847POPC   C3A25889  39.203  36.154   7.964
 1847POPC   C4A25890  39.212  36.124   7.664
 1847POPC   C1B25891  39.345  35.880   8.564
 1847POPC   C2B25892  39.332  35.846   8.264
 1847POPC   C3B25893  39.305  35.879   7.964
 1847POPC   C4B25894  39.328  35.881   7.664
 1848POPC   NC325895  13.582   5.121   9.464
 1848POPC   PO425896  13.657   5.136   9.164
 1848POPC   GL125897  13.625   5.104   8.864
 1848POPC   GL225898  13.534   5.145   8.864
 1848POPC   C1A25899  13.581   5.069   8.564
 1848POPC   D2A25900  13.645   5.127   8.264
 1848POPC   C3A25901  13.650   5.108   7.964
 1848POPC   C4A25902  13.640   5.140   7.664
 1848POPC   C1B25903  13.463   5.278   8.564
 1848POPC   C2B25904  13.491   5.327   8.264
 1848POPC   C3B25905  13.477   5.294   7.964
 1848POPC   C4B25906  13.517   5.294   7.664
 1849POPC   NC325907   9.007   5.084   9.464
 1849POPC   PO425908   8.932   5.060   9.164
 1849POPC   GL125909   8.987   5.140   8.864
 1849POPC   GL225910   9.056   4.986   8.864
 1849POPC   C1A25911   8.955   5.082   8.564
 1849POPC   D2A25912   8.978   5.078   8.264
 1849POPC   C3A25913   8.992   5.117   7.964
 1849POPC   C4A25914   8.929   5.135   7.664
 1849POPC   C1B25915   9.129   4.909   8.564
 1849POPC   C2B25916   9.144   4.878   8.264
 1849POPC   C3B25917   9.089   4.938   7.964
 1849POPC   C4B25918   9.119   4.914   7.664
 1850POPC   NC325919  40.804  20.634   9.464
 1850POPC   PO425920  40.801  20.657   9.164
 1850POPC   GL125921  40.776  20.599   8.864
 1850POPC   GL225922  40.905  20.672   8.864
 1850POPC   C1A25923  40.766  20.566   8.564
 1850POPC   D2A25924  40.757  20.632   8.264
 1850POPC   C3A25925  40.790  20.655   7.964
 1850POPC   C4A25926  40.734  20.624   7.664
 1850POPC   C1B25927  40.984  20.714   8.564
 1850POPC   C2B25928  41.025  20.723   8.264
 1850POPC   C3B25929  41.070  20.662   7.964
 1850POPC   C4B25930  41.004  20.680   7.664
 1851POPC   NC325931   7.382   5.069   9.464
 1851POPC   PO425932   7.381   5.095   9.164
 1851POPC   GL125933   7.460   5.079   8.864
 1851POPC   GL225934   7.515   5.134   8.864
 1851POPC   C1A25935   7.425   5.119   8.564
 1851POPC   D2A25936   7.396   5.135   8.264
 1851POPC   C3A25937   7.447   5.090   7.964
 1851POPC   C4A25938   7.409   5.127   7.664
 1851POPC   C1B25939   7.695   5.149   8.564
 1851POPC   C2B25940   7.675   5.172   8.264
 1851POPC   C3B25941   7.599   5.181   7.964
 1851POPC   C4B25942   7.645   5.165   7.664
 1852POPC   NC325943  42.297   1.191   9.464
 1852POPC   PO425944  42.307   1.209   9.164
 1852POPC   GL125945  42.381   1.226   8.864
 1852POPC   GL225946  42.219   1.324   8.864
 1852POPC   C1A25947  42.345   1.216   8.564
 1852POPC   D2A25948  42.357   1.202   8.264
 1852POPC   C3A25949  42.317   1.200   7.964
 1852POPC   C4A25950  42.370   1.246   7.664
 1852POPC   C1B25951  42.138   1.443   8.564
 1852POPC   C2B25952  42.217   1.452   8.264
 1852POPC   C3B25953  42.151   1.407   7.964
 1852POPC   C4B25954  42.204   1.393   7.664
 1853POPC   NC325955   7.399  20.655   9.464
 1853POPC   PO425956   7.421  20.622   9.164
 1853POPC   GL125957   7.397  20.610   8.864
 1853POPC   GL225958   7.503  20.649   8.864
 1853POPC   C1A25959   7.418  20.612   8.564
 1853POPC   D2A25960   7.465  20.574   8.264
 1853POPC   C3A25961   7.381  20.575   7.964
 1853POPC   C4A25962   7.414  20.610   7.664
 1853POPC   C1B25963   7.649  20.754   8.564
 1853POPC   C2B25964   7.648  20.720   8.264
 1853POPC   C3B25965   7.621  20.758   7.964
 1853POPC   C4B25966   7.577  20.721   7.664
 1854POPC   NC325967  36.901  21.376   9.464
 1854POPC   PO425968  36.929  21.413   9.164
 1854POPC   GL125969  36.934  21.345   8.864
 1854POPC   GL225970  36.831  21.324   8.864
 1854POPC   C1A25971  36.876  21.366   8.564
 1854POPC   D2A25972  36.869  21.357   8.264
 1854POPC   C3A25973  36.862  21.422   7.964
 1854POPC   C4A25974  36.877  21.389   7.664
 1854POPC   C1B25975  36.818  21.209   8.564
 1854POPC   C2B25976  36.804  21.158   8.264
 1854POPC   C3B25977  36.751  21.210   7.964
 1854POPC   C4B25978  36.725  21.221   7.664
 1855POPC   NC325979  30.715   3.587   9.464
 1855POPC   PO425980  30.745   3.568   9.164
 1855POPC   GL125981  30.652   3.526   8.864
 1855POPC   GL225982  30.844   3.525   8.864
 1855POPC   C1A25983  30.681   3.531   8.564
 1855POPC   D2A25984  30.652   3.570   8.264
 1855POPC   C3A25985  30.663   3.588   7.964
 1855POPC   C4A25986  30.653   3.509   7.664
 1855POPC   C1B25987  30.981   3.548   8.564
 1855POPC   C2B25988  30.986   3.534   8.264
 1855POPC   C3B25989  30.921   3.513   7.964
 1855POPC   C4B25990  30.932   3.562   7.664
 1856POPC   NC325991  35.354  12.111   9.464
 1856POPC   PO425992  35.344  12.066   9.164
 1856POPC   GL125993  35.379  12.121   8.864
 1856POPC   GL225994  35.326  11.969   8.864
 1856POPC   C1A25995  35.310  12.080   8.564
 1856POPC   D2A25996  35.306  12.032   8.264
 1856POPC   C3A25997  35.391  12.102   7.964
 1856POPC   C4A25998  35.319  12.086   7.664
 1856POPC   C1B25999  35.381  11.859   8.564
 1856POPC   C2B26000  35.331  11.778   8.264
 1856POPC   C3B26001  35.396  11.786   7.964
 1856POPC   C4B26002  35.410  11.848   7.664
 1857POPC   NC326003  29.919  40.759   9.464
 1857POPC   PO426004  29.897  40.793   9.164
 1857POPC   GL126005  29.937  40.821   8.864
 1857POPC   GL226006  30.026  40.801   8.864
 1857POPC   C1A26007  29.966  40.737   8.564
 1857POPC   D2A26008  29.916  40.762   8.264
 1857POPC   C3A26009  29.916  40.787   7.964
 1857POPC   C4A26010  29.925  40.773   7.664
 1857POPC   C1B26011  30.153  40.848   8.564
 1857POPC   C2B26012  30.136  40.910   8.264
 1857POPC   C3B26013  30.125  40.876   7.964
 1857POPC   C4B26014  30.196  40.876   7.664
 1858POPC   NC326015  41.524  36.161   9.464
 1858POPC   PO426016  41.548  36.133   9.164
 1858POPC   GL126017  41.526  36.096   8.864
 1858POPC   GL226018  41.607  36.190   8.864
 1858POPC   C1A26019  41.546  36.135   8.564
 1858POPC   D2A26020  41.601  36.160   8.264
 1858POPC   C3A26021  41.559  36.079   7.964
 1858POPC   C4A26022  41.523  36.168   7.664
 1858POPC   C1B26023  41.771  36.284   8.564
 1858POPC   C2B26024  41.744  36.298   8.264
 1858POPC   C3B26025  41.779  36.277   7.964
 1858POPC   C4B26026  41.765  36.331   7.664
 1859POPC   NC326027  22.911  24.531   9.464
 1859POPC   PO426028  22.918  24.499   9.164
 1859POPC   GL126029  22.972  24.539   8.864
 1859POPC   GL226030  23.096  24.474   8.864
 1859POPC   C1A26031  22.934  24.519   8.564
 1859POPC   D2A26032  22.972  24.453   8.264
 1859POPC   C3A26033  22.955  24.527   7.964
 1859POPC   C4A26034  22.938  24.539   7.664
 1859POPC   C1B26035  23.212  24.426   8.564
 1859POPC   C2B26036  23.152  24.385   8.264
 1859POPC   C3B26037  23.176  24.372   7.964
 1859POPC   C4B26038  23.162  24.430   7.664
 1860POPC   NC326039  38.434  42.359   9.464
 1860POPC   PO426040  38.414  42.335   9.164
 1860POPC   GL126041  38.492  42.321   8.864
 1860POPC   GL226042  38.548  42.369   8.864
 1860POPC   C1A26043  38.449  42.335   8.564
 1860POPC   D2A26044  38.443  42.309   8.264
 1860POPC   C3A26045  38.473  42.333   7.964
 1860POPC   C4A26046  38.494  42.384   7.664
 1860POPC   C1B26047  38.602  42.520   8.564
 1860POPC   C2B26048  38.633  42.465   8.264
 1860POPC   C3B26049  38.620  42.528   7.964
 1860POPC   C4B26050  38.673  42.550   7.664
 1861POPC   NC326051  38.409  43.075   9.464
 1861POPC   PO426052  38.457  43.140   9.164
 1861POPC   GL126053  38.427  43.074   8.864
 1861POPC   GL226054  38.408  43.190   8.864
 1861POPC   C1A26055  38.429  43.118   8.564
 1861POPC   D2A26056  38.447  43.120   8.264
 1861POPC   C3A26057  38.476  43.143   7.964
 1861POPC   C4A26058  38.425  43.088   7.664
 1861POPC   C1B26059  38.411  43.333   8.564
 1861POPC   C2B26060  38.355  43.304   8.264
 1861POPC   C3B26061  38.443  43.362   7.964
 1861POPC   C4B26062  38.411  43.319   7.664
 1862POPC   NC326063  40.757  13.597   9.464
 1862POPC   PO426064  40.735  13.675   9.164
 1862POPC   GL126065  40.760  13.646   8.864
 1862POPC   GL226066  40.877  13.589   8.864
 1862POPC   C1A26067  40.736  13.676   8.564
 1862POPC   D2A26068  40.828  13.663   8.264
 1862POPC   C3A26069  40.751  13.626   7.964
 1862POPC   C4A26070  40.735  13.604   7.664
 1862POPC   C1B26071  41.015  13.498   8.564
 1862POPC   C2B26072  41.002  13.474   8.264
 1862POPC   C3B26073  41.030  13.509   7.964
 1862POPC   C4B26074  41.014  13.518   7.664
 1863POPC   NC326075  18.287   1.187   9.464
 1863POPC   PO426076  18.233   1.167   9.164
 1863POPC   GL126077  18.255   1.253   8.864
 1863POPC   GL226078  18.354   1.139   8.864
 1863POPC   C1A26079  18.309   1.200   8.564
 1863POPC   D2A26080  18.257   1.183   8.264
 1863POPC   C3A26081  18.301   1.193   7.964
 1863POPC   C4A26082  18.313   1.230   7.664
 1863POPC   C1B26083  18.533   1.179   8.564
 1863POPC   C2B26084  18.502   1.176   8.264
 1863POPC   C3B26085  18.497   1.108   7.964
 1863POPC   C4B26086  18.510   1.163   7.664
 1864POPC   NC326087  17.487  39.203   9.464
 1864POPC   PO426088  17.461  39.208   9.164
 1864POPC   GL126089  17.472  39.203   8.864
 1864POPC   GL226090  17.523  39.370   8.864
 1864POPC   C1A26091  17.518  39.191   8.564
 1864POPC   D2A26092  17.464  39.245   8.264
 1864POPC   C3A26093  17.499  39.248   7.964
 1864POPC   C4A26094  17.505  39.192   7.664
 1864POPC   C1B26095  17.604  39.469   8.564
 1864POPC   C2B26096  17.537  39.510   8.264
 1864POPC   C3B26097  17.600  39.428   7.964
 1864POPC   C4B26098  17.614  39.523   7.664
 1865POPC   NC326099  29.193  23.749   9.464
 1865POPC   PO426100  29.098  23.727   9.164
 1865POPC   GL126101  29.108  23.759   8.864
 1865POPC   GL226102  29.300  23.802   8.864
 1865POPC   C1A26103  29.168  23.750   8.564
 1865POPC   D2A26104  29.112  23.665   8.264
 1865POPC   C3A26105  29.102  23.677   7.964
 1865POPC   C4A26106  29.175  23.695   7.664
 1865POPC   C1B26107  29.386  23.771   8.564
 1865POPC   C2B26108  29.332  23.826   8.264
 1865POPC   C3B26109  29.381  23.806   7.964
 1865POPC   C4B26110  29.330  23.858   7.664
 1866POPC   NC326111  32.235  30.721   9.464
 1866POPC   PO426112  32.213  30.697   9.164
 1866POPC   GL126113  32.242  30.738   8.864
 1866POPC   GL226114  32.341  30.752   8.864
 1866POPC   C1A26115  32.283  30.685   8.564
 1866POPC   D2A26116  32.205  30.745   8.264
 1866POPC   C3A26117  32.256  30.671   7.964
 1866POPC   C4A26118  32.231  30.665   7.664
 1866POPC   C1B26119  32.373  30.889   8.564
 1866POPC   C2B26120  32.406  30.875   8.264
 1866POPC   C3B26121  32.361  30.859   7.964
 1866POPC   C4B26122  32.410  30.865   7.664
 1867POPC   NC326123  44.687   1.188   9.464
 1867POPC   PO426124  44.646   1.208   9.164
 1867POPC   GL126125  44.657   1.202   8.864
 1867POPC   GL226126  44.772   1.308   8.864
 1867POPC   C1A26127  44.679   1.254   8.564
 1867POPC   D2A26128  44.672   1.187   8.264
 1867POPC   C3A26129  44.671   1.257   7.964
 1867POPC   C4A26130  44.707   1.180   7.664
 1867POPC   C1B26131  44.926   1.326   8.564
 1867POPC   C2B26132  44.877   1.305   8.264
 1867POPC   C3B26133  44.850   1.363   7.964
 1867POPC   C4B26134  44.920   1.313   7.664
 1868POPC   NC326135  25.278  17.517   9.464
 1868POPC   PO426136  25.303  17.525   9.164
 1868POPC   GL126137  25.290  17.552   8.864
 1868POPC   GL226138  25.381  17.431   8.864
 1868POPC   C1A26139  25.299  17.540   8.564
 1868POPC   D2A26140  25.241  17.459   8.264
 1868POPC   C3A26141  25.303  17.537   7.964
 1868POPC   C4A26142  25.246  17.504   7.664
 1868POPC   C1B26143  25.477  17.428   8.564
 1868POPC   C2B26144  25.481  17.438   8.264
 1868POPC   C3B26145  25.518  17.353   7.964
 1868POPC   C4B26146  25.491  17.384   7.664
 1869POPC   NC326147  15.222  43.918   9.464
 1869POPC   PO426148  15.188  43.858   9.164
 1869POPC   GL126149  15.184  43.934   8.864
 1869POPC   GL226150  15.224  43.968   8.864
 1869POPC   C1A26151  15.185  43.880   8.564
 1869POPC   D2A26152  15.132  43.840   8.264
 1869POPC   C3A26153  15.190  43.935   7.964
 1869POPC   C4A26154  15.190  43.922   7.664
 1869POPC   C1B26155  15.275  44.121   8.564
 1869POPC   C2B26156  15.271  44.120   8.264
 1869POPC   C3B26157  15.233  44.135   7.964
 1869POPC   C4B26158  15.194  44.099   7.664
 1870POPC   NC326159  15.906  12.072   9.464
 1870POPC   PO426160  15.953  12.046   9.164
 1870POPC   GL126161  15.952  12.057   8.864
 1870POPC   GL226162  15.960  11.985   8.864
 1870POPC   C1A26163  15.914  12.107   8.564
 1870POPC   D2A26164  15.964  12.067   8.264
 1870POPC   C3A26165  15.921  12.104   7.964
 1870POPC   C4A26166  15.987  12.056   7.664
 1870POPC   C1B26167  16.014  11.888   8.564
 1870POPC   C2B26168  16.062  11.821   8.264
 1870POPC   C3B26169  16.005  11.837   7.964
 1870POPC   C4B26170  16.062  11.819   7.664
 1871POPC   NC326171  22.192   7.384   9.464
 1871POPC   PO426172  22.177   7.436   9.164
 1871POPC   GL126173  22.144   7.467   8.864
 1871POPC   GL226174  22.284   7.457   8.864
 1871POPC   C1A26175  22.133   7.449   8.564
 1871POPC   D2A26176  22.149   7.416   8.264
 1871POPC   C3A26177  22.182   7.406   7.964
 1871POPC   C4A26178  22.123   7.409   7.664
 1871POPC   C1B26179  22.371   7.518   8.564
 1871POPC   C2B26180  22.431   7.543   8.264
 1871POPC   C3B26181  22.402   7.519   7.964
 1871POPC   C4B26182  22.367   7.507   7.664
 1872POPC   NC326183  43.098  19.027   9.464
 1872POPC   PO426184  43.074  19.019   9.164
 1872POPC   GL126185  43.093  19.057   8.864
 1872POPC   GL226186  43.025  19.113   8.864
 1872POPC   C1A26187  43.152  19.045   8.564
 1872POPC   D2A26188  43.103  19.095   8.264
 1872POPC   C3A26189  43.089  19.045   7.964
 1872POPC   C4A26190  43.144  19.051   7.664
 1872POPC   C1B26191  42.991  19.299   8.564
 1872POPC   C2B26192  42.930  19.276   8.264
 1872POPC   C3B26193  42.942  19.271   7.964
 1872POPC   C4B26194  42.965  19.266   7.664
 1873POPC   NC326195  28.325  17.464   9.464
 1873POPC   PO426196  28.375  17.553   9.164
 1873POPC   GL126197  28.393  17.523   8.864
 1873POPC   GL226198  28.493  17.552   8.864
 1873POPC   C1A26199  28.390  17.546   8.564
 1873POPC   D2A26200  28.328  17.473   8.264
 1873POPC   C3A26201  28.397  17.494   7.964
 1873POPC   C4A26202  28.364  17.482   7.664
 1873POPC   C1B26203  28.596  17.563   8.564
 1873POPC   C2B26204  28.625  17.553   8.264
 1873POPC   C3B26205  28.594  17.580   7.964
 1873POPC   C4B26206  28.611  17.580   7.664
 1874POPC   NC326207  28.322  43.894   9.464
 1874POPC   PO426208  28.363  43.880   9.164
 1874POPC   GL126209  28.377  43.902   8.864
 1874POPC   GL226210  28.258  43.953   8.864
 1874POPC   C1A26211  28.374  43.934   8.564
 1874POPC   D2A26212  28.384  43.846   8.264
 1874POPC   C3A26213  28.408  43.897   7.964
 1874POPC   C4A26214  28.379  43.860   7.664
 1874POPC   C1B26215  28.172  44.025   8.564
 1874POPC   C2B26216  28.116  44.002   8.264
 1874POPC   C3B26217  28.151  44.014   7.964
 1874POPC   C4B26218  28.179  44.009   7.664
 1875POPC   NC326219  14.403  25.254   9.464
 1875POPC   PO426220  14.389  25.246   9.164
 1875POPC   GL126221  14.369  25.271   8.864
 1875POPC   GL226222  14.511  25.228   8.864
 1875POPC   C1A26223  14.404  25.247   8.564
 1875POPC   D2A26224  14.363  25.269   8.264
 1875POPC   C3A26225  14.405  25.314   7.964
 1875POPC   C4A26226  14.400  25.232   7.664
 1875POPC   C1B26227  14.667  25.195   8.564
 1875POPC   C2B26228  14.648  25.196   8.264
 1875POPC   C3B26229  14.686  25.169   7.964
 1875POPC   C4B26230  14.692  25.216   7.664
 1876POPC   NC326231  36.946  26.052   9.464
 1876POPC   PO426232  36.870  26.025   9.164
 1876POPC   GL126233  36.874  26.076   8.864
 1876POPC   GL226234  37.002  25.987   8.864
 1876POPC   C1A26235  36.854  26.016   8.564
 1876POPC   D2A26236  36.872  26.067   8.264
 1876POPC   C3A26237  36.858  26.071   7.964
 1876POPC   C4A26238  36.922  26.055   7.664
 1876POPC   C1B26239  37.029  25.910   8.564
 1876POPC   C2B26240  37.052  25.826   8.264
 1876POPC   C3B26241  37.117  25.897   7.964
 1876POPC   C4B26242  37.088  25.877   7.664
 1877POPC   NC326243  42.289  36.857   9.464
 1877POPC   PO426244  42.310  36.891   9.164
 1877POPC   GL126245  42.372  36.891   8.864
 1877POPC   GL226246  42.381  36.823   8.864
 1877POPC   C1A26247  42.369  36.878   8.564
 1877POPC   D2A26248  42.293  36.919   8.264
 1877POPC   C3A26249  42.348  36.905   7.964
 1877POPC   C4A26250  42.337  36.930   7.664
 1877POPC   C1B26251  42.336  36.684   8.564
 1877POPC   C2B26252  42.366  36.649   8.264
 1877POPC   C3B26253  42.364  36.617   7.964
 1877POPC   C4B26254  42.392  36.700   7.664
 1878POPC   NC326255  23.735  31.479   9.464
 1878POPC   PO426256  23.666  31.462   9.164
 1878POPC   GL126257  23.731  31.491   8.864
 1878POPC   GL226258  23.821  31.514   8.864
 1878POPC   C1A26259  23.667  31.492   8.564
 1878POPC   D2A26260  23.712  31.428   8.264
 1878POPC   C3A26261  23.701  31.497   7.964
 1878POPC   C4A26262  23.693  31.454   7.664
 1878POPC   C1B26263  23.925  31.636   8.564
 1878POPC   C2B26264  23.948  31.663   8.264
 1878POPC   C3B26265  23.890  31.635   7.964
 1878POPC   C4B26266  23.958  31.626   7.664
 1879POPC   NC326267  33.070  41.512   9.464
 1879POPC   PO426268  33.048  41.522   9.164
 1879POPC   GL126269  32.976  41.519   8.864
 1879POPC   GL226270  33.041  41.465   8.864
 1879POPC   C1A26271  33.064  41.591   8.564
 1879POPC   D2A26272  33.000  41.597   8.264
 1879POPC   C3A26273  32.980  41.604   7.964
 1879POPC   C4A26274  33.029  41.511   7.664
 1879POPC   C1B26275  33.084  41.351   8.564
 1879POPC   C2B26276  33.116  41.341   8.264
 1879POPC   C3B26277  33.134  41.325   7.964
 1879POPC   C4B26278  33.061  41.343   7.664
 1880POPC   NC326279  16.713  44.620   9.464
 1880POPC   PO426280  16.780  44.630   9.164
 1880POPC   GL126281  16.693  44.645   8.864
 1880POPC   GL226282  16.657  44.784   8.864
 1880POPC   C1A26283  16.713  44.662   8.564
 1880POPC   D2A26284  16.772  44.641   8.264
 1880POPC   C3A26285  16.767  44.704   7.964
 1880POPC   C4A26286  16.767  44.634   7.664
 1880POPC   C1B26287  16.639  44.852   8.564
 1880POPC   C2B26288  16.618  44.888   8.264
 1880POPC   C3B26289  16.599  44.883   7.964
 1880POPC   C4B26290  16.555  44.909   7.664
 1881POPC   NC326291  13.635  42.315   9.464
 1881POPC   PO426292  13.586  42.339   9.164
 1881POPC   GL126293  13.604  42.319   8.864
 1881POPC   GL226294  13.773  42.336   8.864
 1881POPC   C1A26295  13.612  42.341   8.564
 1881POPC   D2A26296  13.626  42.318   8.264
 1881POPC   C3A26297  13.609  42.368   7.964
 1881POPC   C4A26298  13.629  42.292   7.664
 1881POPC   C1B26299  13.826  42.278   8.564
 1881POPC   C2B26300  13.899  42.252   8.264
 1881POPC   C3B26301  13.869  42.239   7.964
 1881POPC   C4B26302  13.884  42.277   7.664
 1882POPC   NC326303  32.211   7.464   9.464
 1882POPC   PO426304  32.236   7.404   9.164
 1882POPC   GL126305  32.272   7.384   8.864
 1882POPC   GL226306  32.264   7.572   8.864
 1882POPC   C1A26307  32.244   7.420   8.564
 1882POPC   D2A26308  32.228   7.440   8.264
 1882POPC   C3A26309  32.206   7.378   7.964
 1882POPC   C4A26310  32.282   7.433   7.664
 1882POPC   C1B26311  32.235   7.676   8.564
 1882POPC   C2B26312  32.248   7.677   8.264
 1882POPC   C3B26313  32.233   7.642   7.964
 1882POPC   C4B26314  32.279   7.682   7.664
 1883POPC   NC326315  18.263  38.439   9.464
 1883POPC   PO426316  18.307  38.454   9.164
 1883POPC   GL126317  18.259  38.445   8.864
 1883POPC   GL226318  18.243  38.295   8.864
 1883POPC   C1A26319  18.302  38.475   8.564
 1883POPC   D2A26320  18.284  38.475   8.264
 1883POPC   C3A26321  18.322  38.437   7.964
 1883POPC   C4A26322  18.306  38.486   7.664
 1883POPC   C1B26323  18.282  38.162   8.564
 1883POPC   C2B26324  18.235  38.216   8.264
 1883POPC   C3B26325  18.311  38.226   7.964
 1883POPC   C4B26326  18.236  38.255   7.664
 1884POPC   NC326327  43.084  21.430   9.464
 1884POPC   PO426328  43.090  21.431   9.164
 1884POPC   GL126329  43.065  21.409   8.864
 1884POPC   GL226330  43.235  21.320   8.864
 1884POPC   C1A26331  43.088  21.428   8.564
 1884POPC   D2A26332  43.097  21.341   8.264
 1884POPC   C3A26333  43.100  21.384   7.964
 1884POPC   C4A26334  43.086  21.429   7.664
 1884POPC   C1B26335  43.281  21.238   8.564
 1884POPC   C2B26336  43.304  21.287   8.264
 1884POPC   C3B26337  43.308  21.214   7.964
 1884POPC   C4B26338  43.320  21.229   7.664
 1885POPC   NC326339   9.001  38.488   9.464
 1885POPC   PO426340   8.937  38.497   9.164
 1885POPC   GL126341   8.945  38.480   8.864
 1885POPC   GL226342   8.925  38.604   8.864
 1885POPC   C1A26343   9.006  38.409   8.564
 1885POPC   D2A26344   8.999  38.449   8.264
 1885POPC   C3A26345   8.943  38.475   7.964
 1885POPC   C4A26346   8.989  38.470   7.664
 1885POPC   C1B26347   8.982  38.745   8.564
 1885POPC   C2B26348   8.920  38.680   8.264
 1885POPC   C3B26349   8.894  38.692   7.964
 1885POPC   C4B26350   8.947  38.679   7.664
 1886POPC   NC326351   8.221  25.283   9.464
 1886POPC   PO426352   8.153  25.242   9.164
 1886POPC   GL126353   8.181  25.244   8.864
 1886POPC   GL226354   8.285  25.397   8.864
 1886POPC   C1A26355   8.181  25.227   8.564
 1886POPC   D2A26356   8.191  25.222   8.264
 1886POPC   C3A26357   8.166  25.255   7.964
 1886POPC   C4A26358   8.192  25.291   7.664
 1886POPC   C1B26359   8.279  25.488   8.564
 1886POPC   C2B26360   8.270  25.464   8.264
 1886POPC   C3B26361   8.257  25.457   7.964
 1886POPC   C4B26362   8.288  25.526   7.664
 1887POPC   NC326363   1.202  42.342   9.464
 1887POPC   PO426364   1.219  42.314   9.164
 1887POPC   GL126365   1.239  42.332   8.864
 1887POPC   GL226366   1.237  42.458   8.864
 1887POPC   C1A26367   1.254  42.352   8.564
 1887POPC   D2A26368   1.175  42.331   8.264
 1887POPC   C3A26369   1.164  42.346   7.964
 1887POPC   C4A26370   1.193  42.302   7.664
 1887POPC   C1B26371   1.184  42.555   8.564
 1887POPC   C2B26372   1.180  42.563   8.264
 1887POPC   C3B26373   1.192  42.588   7.964
 1887POPC   C4B26374   1.213  42.536   7.664
 1888POPC   NC326375   0.452  18.321   9.464
 1888POPC   PO426376   0.465  18.310   9.164
 1888POPC   GL126377   0.405  18.282   8.864
 1888POPC   GL226378   0.582  18.350   8.864
 1888POPC   C1A26379   0.388  18.293   8.564
 1888POPC   D2A26380   0.417  18.329   8.264
 1888POPC   C3A26381   0.469  18.317   7.964
 1888POPC   C4A26382   0.447  18.278   7.664
 1888POPC   C1B26383   0.617  18.393   8.564
 1888POPC   C2B26384   0.670  18.416   8.264
 1888POPC   C3B26385   0.657  18.447   7.964
 1888POPC   C4B26386   0.631  18.418   7.664
 1889POPC   NC326387   2.743  13.590   9.464
 1889POPC   PO426388   2.749  13.611   9.164
 1889POPC   GL126389   2.758  13.591   8.864
 1889POPC   GL226390   2.877  13.530   8.864
 1889POPC   C1A26391   2.784  13.599   8.564
 1889POPC   D2A26392   2.768  13.642   8.264
 1889POPC   C3A26393   2.788  13.648   7.964
 1889POPC   C4A26394   2.768  13.604   7.664
 1889POPC   C1B26395   2.928  13.478   8.564
 1889POPC   C2B26396   2.880  13.440   8.264
 1889POPC   C3B26397   2.977  13.441   7.964
 1889POPC   C4B26398   2.892  13.393   7.664
 1890POPC   NC326399   2.756  12.886   9.464
 1890POPC   PO426400   2.740  12.833   9.164
 1890POPC   GL126401   2.812  12.863   8.864
 1890POPC   GL226402   2.642  12.891   8.864
 1890POPC   C1A26403   2.745  12.837   8.564
 1890POPC   D2A26404   2.760  12.891   8.264
 1890POPC   C3A26405   2.752  12.803   7.964
 1890POPC   C4A26406   2.810  12.821   7.664
 1890POPC   C1B26407   2.577  12.961   8.564
 1890POPC   C2B26408   2.496  12.937   8.264
 1890POPC   C3B26409   2.492  12.906   7.964
 1890POPC   C4B26410   2.500  12.973   7.664
 1891POPC   NC326411  15.908  18.312   9.464
 1891POPC   PO426412  15.935  18.263   9.164
 1891POPC   GL126413  15.941  18.246   8.864
 1891POPC   GL226414  16.036  18.395   8.864
 1891POPC   C1A26415  15.947  18.278   8.564
 1891POPC   D2A26416  15.972  18.309   8.264
 1891POPC   C3A26417  15.940  18.306   7.964
 1891POPC   C4A26418  15.983  18.238   7.664
 1891POPC   C1B26419  16.079  18.487   8.564
 1891POPC   C2B26420  16.030  18.511   8.264
 1891POPC   C3B26421  16.059  18.520   7.964
 1891POPC   C4B26422  16.075  18.516   7.664
 1892POPC   NC326423  26.024  31.469   9.464
 1892POPC   PO426424  26.006  31.460   9.164
 1892POPC   GL126425  26.062  31.520   8.864
 1892POPC   GL226426  25.949  31.376   8.864
 1892POPC   C1A26427  26.003  31.448   8.564
 1892POPC   D2A26428  26.024  31.444   8.264
 1892POPC   C3A26429  25.998  31.509   7.964
 1892POPC   C4A26430  26.077  31.432   7.664
 1892POPC   C1B26431  25.884  31.316   8.564
 1892POPC   C2B26432  25.883  31.257   8.264
 1892POPC   C3B26433  25.858  31.332   7.964
 1892POPC   C4B26434  25.876  31.279   7.664
 1893POPC   NC326435   3.584  33.754   9.464
 1893POPC   PO426436   3.496  33.802   9.164
 1893POPC   GL126437   3.577  33.831   8.864
 1893POPC   GL226438   3.623  33.841   8.864
 1893POPC   C1A26439   3.522  33.781   8.564
 1893POPC   D2A26440   3.538  33.844   8.264
 1893POPC   C3A26441   3.531  33.825   7.964
 1893POPC   C4A26442   3.506  33.800   7.664
 1893POPC   C1B26443   3.719  33.966   8.564
 1893POPC   C2B26444   3.725  33.955   8.264
 1893POPC   C3B26445   3.711  33.894   7.964
 1893POPC   C4B26446   3.735  33.903   7.664
 1894POPC   NC326447   9.718  38.456   9.464
 1894POPC   PO426448   9.699  38.431   9.164
 1894POPC   GL126449   9.741  38.435   8.864
 1894POPC   GL226450   9.894  38.419   8.864
 1894POPC   C1A26451   9.794  38.448   8.564
 1894POPC   D2A26452   9.725  38.503   8.264
 1894POPC   C3A26453   9.731  38.439   7.964
 1894POPC   C4A26454   9.747  38.476   7.664
 1894POPC   C1B26455   9.966  38.482   8.564
 1894POPC   C2B26456  10.028  38.507   8.264
 1894POPC   C3B26457  10.037  38.504   7.964
 1894POPC   C4B26458   9.968  38.511   7.664
 1895POPC   NC326459  27.572  26.778   9.464
 1895POPC   PO426460  27.566  26.854   9.164
 1895POPC   GL126461  27.570  26.814   8.864
 1895POPC   GL226462  27.617  26.985   8.864
 1895POPC   C1A26463  27.558  26.784   8.564
 1895POPC   D2A26464  27.576  26.797   8.264
 1895POPC   C3A26465  27.549  26.807   7.964
 1895POPC   C4A26466  27.596  26.837   7.664
 1895POPC   C1B26467  27.680  27.086   8.564
 1895POPC   C2B26468  27.621  27.076   8.264
 1895POPC   C3B26469  27.652  27.100   7.964
 1895POPC   C4B26470  27.603  27.051   7.664
 1896POPC   NC326471  38.458  18.276   9.464
 1896POPC   PO426472  38.477  18.261   9.164
 1896POPC   GL126473  38.469  18.305   8.864
 1896POPC   GL226474  38.543  18.226   8.864
 1896POPC   C1A26475  38.440  18.271   8.564
 1896POPC   D2A26476  38.503  18.291   8.264
 1896POPC   C3A26477  38.429  18.292   7.964
 1896POPC   C4A26478  38.437  18.241   7.664
 1896POPC   C1B26479  38.662  18.115   8.564
 1896POPC   C2B26480  38.642  18.108   8.264
 1896POPC   C3B26481  38.591  18.142   7.964
 1896POPC   C4B26482  38.668  18.141   7.664
 1897POPC   NC326483  29.101  26.024   9.464
 1897POPC   PO426484  29.167  26.001   9.164
 1897POPC   GL126485  29.193  26.024   8.864
 1897POPC   GL226486  29.060  25.945   8.864
 1897POPC   C1A26487  29.133  26.039   8.564
 1897POPC   D2A26488  29.178  26.061   8.264
 1897POPC   C3A26489  29.163  25.995   7.964
 1897POPC   C4A26490  29.096  26.007   7.664
 1897POPC   C1B26491  28.972  25.855   8.564
 1897POPC   C2B26492  28.913  25.855   8.264
 1897POPC   C3B26493  28.913  25.877   7.964
 1897POPC   C4B26494  28.987  25.875   7.664
 1898POPC   NC326495  15.200  41.566   9.464
 1898POPC   PO426496  15.159  41.567   9.164
 1898POPC   GL126497  15.136  41.579   8.864
 1898POPC   GL226498  15.247  41.633   8.864
 1898POPC   C1A26499  15.215  41.602   8.564
 1898POPC   D2A26500  15.131  41.566   8.264
 1898POPC   C3A26501  15.213  41.554   7.964
 1898POPC   C4A26502  15.183  41.583   7.664
 1898POPC   C1B26503  15.400  41.723   8.564
 1898POPC   C2B26504  15.350  41.690   8.264
 1898POPC   C3B26505  15.412  41.727   7.964
 1898POPC   C4B26506  15.378  41.683   7.664
 1899POPC   NC326507  16.708  12.030   9.464
 1899POPC   PO426508  16.756  12.102   9.164
 1899POPC   GL126509  16.734  12.107   8.864
 1899POPC   GL226510  16.573  12.101   8.864
 1899POPC   C1A26511  16.776  12.124   8.564
 1899POPC   D2A26512  16.702  12.052   8.264
 1899POPC   C3A26513  16.773  12.065   7.964
 1899POPC   C4A26514  16.745  12.095   7.664
 1899POPC   C1B26515  16.508  12.136   8.564
 1899POPC   C2B26516  16.536  12.170   8.264
 1899POPC   C3B26517  16.539  12.182   7.964
 1899POPC   C4B26518  16.470  12.157   7.664
 1900POPC   NC326519   8.943  25.298   9.464
 1900POPC   PO426520   8.923  25.246   9.164
 1900POPC   GL126521   9.013  25.271   8.864
 1900POPC   GL226522   8.907  25.128   8.864
 1900POPC   C1A26523   9.003  25.298   8.564
 1900POPC   D2A26524   8.951  25.305   8.264
 1900POPC   C3A26525   9.018  25.296   7.964
 1900POPC   C4A26526   8.954  25.226   7.664
 1900POPC   C1B26527   8.935  25.047   8.564
 1900POPC   C2B26528   8.954  24.997   8.264
 1900POPC   C3B26529   8.973  25.009   7.964
 1900POPC   C4B26530   8.958  24.974   7.664
 1901POPC   NC326531   7.397  44.629   9.464
 1901POPC   PO426532   7.375  44.624   9.164
 1901POPC   GL126533   7.459  44.672   8.864
 1901POPC   GL226534   7.319  44.569   8.864
 1901POPC   C1A26535   7.460  44.619   8.564
 1901POPC   D2A26536   7.409  44.677   8.264
 1901POPC   C3A26537   7.445  44.691   7.964
 1901POPC   C4A26538   7.382  44.707   7.664
 1901POPC   C1B26539   7.167  44.560   8.564
 1901POPC   C2B26540   7.167  44.575   8.264
 1901POPC   C3B26541   7.243  44.570   7.964
 1901POPC   C4B26542   7.238  44.586   7.664
 1902POPC   NC326543  26.800  26.826   9.464
 1902POPC   PO426544  26.866  26.863   9.164
 1902POPC   GL126545  26.861  26.808   8.864
 1902POPC   GL226546  26.779  26.899   8.864
 1902POPC   C1A26547  26.833  26.841   8.564
 1902POPC   D2A26548  26.850  26.779   8.264
 1902POPC   C3A26549  26.798  26.806   7.964
 1902POPC   C4A26550  26.813  26.859   7.664
 1902POPC   C1B26551  26.791  27.046   8.564
 1902POPC   C2B26552  26.842  27.019   8.264
 1902POPC   C3B26553  26.837  27.100   7.964
 1902POPC   C4B26554  26.818  27.022   7.664
 1903POPC   NC326555   9.729  22.134   9.464
 1903POPC   PO426556   9.735  22.113   9.164
 1903POPC   GL126557   9.729  22.194   8.864
 1903POPC   GL226558   9.633  22.123   8.864
 1903POPC   C1A26559   9.717  22.130   8.564
 1903POPC   D2A26560   9.736  22.192   8.264
 1903POPC   C3A26561   9.755  22.207   7.964
 1903POPC   C4A26562   9.773  22.181   7.664
 1903POPC   C1B26563   9.530  22.109   8.564
 1903POPC   C2B26564   9.471  22.128   8.264
 1903POPC   C3B26565   9.474  22.135   7.964
 1903POPC   C4B26566   9.481  22.115   7.664
 1904POPC   NC326567  20.592   3.551   9.464
 1904POPC   PO426568  20.653   3.574   9.164
 1904POPC   GL126569  20.631   3.565   8.864
 1904POPC   GL226570  20.514   3.662   8.864
 1904POPC   C1A26571  20.591   3.537   8.564
 1904POPC   D2A26572  20.565   3.557   8.264
 1904POPC   C3A26573  20.565   3.520   7.964
 1904POPC   C4A26574  20.570   3.562   7.664
 1904POPC   C1B26575  20.503   3.760   8.564
 1904POPC   C2B26576  20.503   3.724   8.264
 1904POPC   C3B26577  20.494   3.772   7.964
 1904POPC   C4B26578  20.504   3.744   7.664
 1905POPC   NC326579   9.789  43.930   9.464
 1905POPC   PO426580   9.712  43.874   9.164
 1905POPC   GL126581   9.707  43.921   8.864
 1905POPC   GL226582   9.695  43.788   8.864
 1905POPC   C1A26583   9.738  43.892   8.564
 1905POPC   D2A26584   9.725  43.916   8.264
 1905POPC   C3A26585   9.734  43.866   7.964
 1905POPC   C4A26586   9.760  43.846   7.664
 1905POPC   C1B26587   9.628  43.693   8.564
 1905POPC   C2B26588   9.639  43.631   8.264
 1905POPC   C3B26589   9.684  43.679   7.964
 1905POPC   C4B26590   9.660  43.630   7.664
 1906POPC   NC326591  43.882  35.383   9.464
 1906POPC   PO426592  43.885  35.320   9.164
 1906POPC   GL126593  43.908  35.345   8.864
 1906POPC   GL226594  43.872  35.517   8.864
 1906POPC   C1A26595  43.867  35.345   8.564
 1906POPC   D2A26596  43.931  35.341   8.264
 1906POPC   C3A26597  43.887  35.345   7.964
 1906POPC   C4A26598  43.854  35.312   7.664
 1906POPC   C1B26599  43.873  35.576   8.564
 1906POPC   C2B26600  43.835  35.595   8.264
 1906POPC   C3B26601  43.800  35.562   7.964
 1906POPC   C4B26602  43.883  35.603   7.664
 1907POPC   NC326603  22.195  40.043   9.464
 1907POPC   PO426604  22.120  40.025   9.164
 1907POPC   GL126605  22.184  39.995   8.864
 1907POPC   GL226606  22.202  40.101   8.864
 1907POPC   C1A26607  22.145  40.041   8.564
 1907POPC   D2A26608  22.160  39.993   8.264
 1907POPC   C3A26609  22.156  40.015   7.964
 1907POPC   C4A26610  22.149  40.049   7.664
 1907POPC   C1B26611  22.315  40.239   8.564
 1907POPC   C2B26612  22.265  40.176   8.264
 1907POPC   C3B26613  22.273  40.177   7.964
 1907POPC   C4B26614  22.290  40.219   7.664
 1908POPC   NC326615  10.502  20.641   9.464
 1908POPC   PO426616  10.539  20.602   9.164
 1908POPC   GL126617  10.488  20.643   8.864
 1908POPC   GL226618  10.396  20.677   8.864
 1908POPC   C1A26619  10.510  20.569   8.564
 1908POPC   D2A26620  10.478  20.611   8.264
 1908POPC   C3A26621  10.519  20.613   7.964
 1908POPC   C4A26622  10.528  20.618   7.664
 1908POPC   C1B26623  10.363  20.744   8.564
 1908POPC   C2B26624  10.384  20.749   8.264
 1908POPC   C3B26625  10.364  20.805   7.964
 1908POPC   C4B26626  10.350  20.785   7.664
 1909POPC   NC326627  27.559   9.009   9.464
 1909POPC   PO426628  27.605   8.981   9.164
 1909POPC   GL126629  27.596   8.941   8.864
 1909POPC   GL226630  27.472   9.021   8.864
 1909POPC   C1A26631  27.612   8.983   8.564
 1909POPC   D2A26632  27.569   8.924   8.264
 1909POPC   C3A26633  27.575   9.018   7.964
 1909POPC   C4A26634  27.572   8.929   7.664
 1909POPC   C1B26635  27.319   8.967   8.564
 1909POPC   C2B26636  27.385   8.994   8.264
 1909POPC   C3B26637  27.325   9.000   7.964
 1909POPC   C4B26638  27.310   8.979   7.664
 1910POPC   NC326639  12.120  36.898   9.464
 1910POPC   PO426640  12.113  36.899   9.164
 1910POPC   GL126641  12.104  36.871   8.864
 1910POPC   GL226642  12.175  36.922   8.864
 1910POPC   C1A26643  12.026  36.876   8.564
 1910POPC   D2A26644  12.076  36.858   8.264
 1910POPC   C3A26645  12.068  36.934   7.964
 1910POPC   C4A26646  12.065  36.908   7.664
 1910POPC   C1B26647  12.373  36.962   8.564
 1910POPC   C2B26648  12.305  36.965   8.264
 1910POPC   C3B26649  12.298  36.903   7.964
 1910POPC   C4B26650  12.364  36.901   7.664
 1911POPC   NC326651   5.861  36.943   9.464
 1911POPC   PO426652   5.833  36.892   9.164
 1911POPC   GL126653   5.861  36.916   8.864
 1911POPC   GL226654   5.896  37.061   8.864
 1911POPC   C1A26655   5.909  36.942   8.564
 1911POPC   D2A26656   5.865  36.897   8.264
 1911POPC   C3A26657   5.903  36.942   7.964
 1911POPC   C4A26658   5.883  36.857   7.664
 1911POPC   C1B26659   5.903  37.169   8.564
 1911POPC   C2B26660   5.895  37.156   8.264
 1911POPC   C3B26661   5.879  37.194   7.964
 1911POPC   C4B26662   5.814  37.145   7.664
 1912POPC   NC326663  34.549   1.952   9.464
 1912POPC   PO426664  34.540   1.977   9.164
 1912POPC   GL126665  34.622   1.994   8.864
 1912POPC   GL226666  34.686   1.948   8.864
 1912POPC   C1A26667  34.592   1.940   8.564
 1912POPC   D2A26668  34.557   2.010   8.264
 1912POPC   C3A26669  34.545   2.036   7.964
 1912POPC   C4A26670  34.578   2.030   7.664
 1912POPC   C1B26671  34.800   1.850   8.564
 1912POPC   C2B26672  34.801   1.833   8.264
 1912POPC   C3B26673  34.786   1.789   7.964
 1912POPC   C4B26674  34.719   1.807   7.664
 1913POPC   NC326675  29.194  13.634   9.464
 1913POPC   PO426676  29.187  13.611   9.164
 1913POPC   GL126677  29.138  13.614   8.864
 1913POPC   GL226678  29.285  13.555   8.864
 1913POPC   C1A26679  29.109  13.637   8.564
 1913POPC   D2A26680  29.127  13.634   8.264
 1913POPC   C3A26681  29.147  13.649   7.964
 1913POPC   C4A26682  29.096  13.582   7.664
 1913POPC   C1B26683  29.364  13.611   8.564
 1913POPC   C2B26684  29.398  13.539   8.264
 1913POPC   C3B26685  29.427  13.610   7.964
 1913POPC   C4B26686  29.358  13.535   7.664
 1914POPC   NC326687  28.416   3.501   9.464
 1914POPC   PO426688  28.390   3.543   9.164
 1914POPC   GL126689  28.351   3.581   8.864
 1914POPC   GL226690  28.465   3.498   8.864
 1914POPC   C1A26691  28.360   3.563   8.564
 1914POPC   D2A26692  28.360   3.516   8.264
 1914POPC   C3A26693  28.376   3.576   7.964
 1914POPC   C4A26694  28.360   3.587   7.664
 1914POPC   C1B26695  28.637   3.485   8.564
 1914POPC   C2B26696  28.591   3.533   8.264
 1914POPC   C3B26697  28.597   3.557   7.964
 1914POPC   C4B26698  28.663   3.479   7.664
 1915POPC   NC326699  11.328  16.714   9.464
 1915POPC   PO426700  11.292  16.685   9.164
 1915POPC   GL126701  11.255  16.713   8.864
 1915POPC   GL226702  11.136  16.711   8.864
 1915POPC   C1A26703  11.291  16.754   8.564
 1915POPC   D2A26704  11.272  16.728   8.264
 1915POPC   C3A26705  11.254  16.691   7.964
 1915POPC   C4A26706  11.251  16.724   7.664
 1915POPC   C1B26707  11.016  16.787   8.564
 1915POPC   C2B26708  11.053  16.798   8.264
 1915POPC   C3B26709  11.019  16.766   7.964
 1915POPC   C4B26710  11.079  16.759   7.664
 1916POPC   NC326711  10.552   7.379   9.464
 1916POPC   PO426712  10.539   7.420   9.164
 1916POPC   GL126713  10.574   7.409   8.864
 1916POPC   GL226714  10.603   7.321   8.864
 1916POPC   C1A26715  10.499   7.449   8.564
 1916POPC   D2A26716  10.553   7.466   8.264
 1916POPC   C3A26717  10.529   7.418   7.964
 1916POPC   C4A26718  10.522   7.397   7.664
 1916POPC   C1B26719  10.729   7.306   8.564
 1916POPC   C2B26720  10.706   7.253   8.264
 1916POPC   C3B26721  10.760   7.316   7.964
 1916POPC   C4B26722  10.698   7.281   7.664
 1917POPC   NC326723  41.547  35.367   9.464
 1917POPC   PO426724  41.522  35.389   9.164
 1917POPC   GL126725  41.592  35.388   8.864
 1917POPC   GL226726  41.463  35.289   8.864
 1917POPC   C1A26727  41.524  35.305   8.564
 1917POPC   D2A26728  41.605  35.399   8.264
 1917POPC   C3A26729  41.559  35.323   7.964
 1917POPC   C4A26730  41.519  35.352   7.664
 1917POPC   C1B26731  41.322  35.316   8.564
 1917POPC   C2B26732  41.274  35.283   8.264
 1917POPC   C3B26733  41.315  35.248   7.964
 1917POPC   C4B26734  41.295  35.234   7.664
 1918POPC   NC326735   0.402  34.561   9.464
 1918POPC   PO426736   0.445  34.615   9.164
 1918POPC   GL126737   0.454  34.604   8.864
 1918POPC   GL226738   0.536  34.540   8.864
 1918POPC   C1A26739   0.447  34.583   8.564
 1918POPC   D2A26740   0.425  34.619   8.264
 1918POPC   C3A26741   0.409  34.614   7.964
 1918POPC   C4A26742   0.413  34.616   7.664
 1918POPC   C1B26743   0.714  34.624   8.564
 1918POPC   C2B26744   0.654  34.557   8.264
 1918POPC   C3B26745   0.727  34.624   7.964
 1918POPC   C4B26746   0.653  34.538   7.664
 1919POPC   NC326747  26.779  27.608   9.464
 1919POPC   PO426748  26.810  27.619   9.164
 1919POPC   GL126749  26.819  27.639   8.864
 1919POPC   GL226750  26.772  27.482   8.864
 1919POPC   C1A26751  26.801  27.579   8.564
 1919POPC   D2A26752  26.859  27.562   8.264
 1919POPC   C3A26753  26.836  27.549   7.964
 1919POPC   C4A26754  26.862  27.566   7.664
 1919POPC   C1B26755  26.767  27.376   8.564
 1919POPC   C2B26756  26.762  27.326   8.264
 1919POPC   C3B26757  26.801  27.382   7.964
 1919POPC   C4B26758  26.707  27.373   7.664
 1920POPC   NC326759  26.042   1.211   9.464
 1920POPC   PO426760  26.041   1.220   9.164
 1920POPC   GL126761  26.023   1.212   8.864
 1920POPC   GL226762  26.036   1.042   8.864
 1920POPC   C1A26763  26.048   1.180   8.564
 1920POPC   D2A26764  26.061   1.209   8.264
 1920POPC   C3A26765  26.073   1.262   7.964
 1920POPC   C4A26766  26.069   1.202   7.664
 1920POPC   C1B26767  26.095   0.926   8.564
 1920POPC   C2B26768  26.113   0.976   8.264
 1920POPC   C3B26769  26.089   0.992   7.964
 1920POPC   C4B26770  26.040   0.924   7.664
 1921POPC   NC326771  39.206  11.313   9.464
 1921POPC   PO426772  39.229  11.296   9.164
 1921POPC   GL126773  39.273  11.341   8.864
 1921POPC   GL226774  39.352  11.373   8.864
 1921POPC   C1A26775  39.188  11.285   8.564
 1921POPC   D2A26776  39.199  11.344   8.264
 1921POPC   C3A26777  39.226  11.317   7.964
 1921POPC   C4A26778  39.207  11.273   7.664
 1921POPC   C1B26779  39.330  11.469   8.564
 1921POPC   C2B26780  39.336  11.528   8.264
 1921POPC   C3B26781  39.327  11.492   7.964
 1921POPC   C4B26782  39.400  11.517   7.664
 1922POPC   NC326783  12.080  16.694   9.464
 1922POPC   PO426784  12.033  16.744   9.164
 1922POPC   GL126785  12.075  16.749   8.864
 1922POPC   GL226786  12.026  16.666   8.864
 1922POPC   C1A26787  12.109  16.757   8.564
 1922POPC   D2A26788  12.083  16.698   8.264
 1922POPC   C3A26789  12.099  16.730   7.964
 1922POPC   C4A26790  12.120  16.703   7.664
 1922POPC   C1B26791  11.969  16.484   8.564
 1922POPC   C2B26792  11.994  16.492   8.264
 1922POPC   C3B26793  11.964  16.509   7.964
 1922POPC   C4B26794  11.911  16.492   7.664
 1923POPC   NC326795  31.499   8.998   9.464
 1923POPC   PO426796  31.426   8.990   9.164
 1923POPC   GL126797  31.497   9.014   8.864
 1923POPC   GL226798  31.403   9.105   8.864
 1923POPC   C1A26799  31.504   8.977   8.564
 1923POPC   D2A26800  31.502   8.967   8.264
 1923POPC   C3A26801  31.500   9.009   7.964
 1923POPC   C4A26802  31.515   8.935   7.664
 1923POPC   C1B26803  31.315   9.150   8.564
 1923POPC   C2B26804  31.308   9.221   8.264
 1923POPC   C3B26805  31.377   9.195   7.964
 1923POPC   C4B26806  31.364   9.221   7.664
 1924POPC   NC326807   7.411  43.849   9.464
 1924POPC   PO426808   7.438  43.857   9.164
 1924POPC   GL126809   7.419  43.892   8.864
 1924POPC   GL226810   7.461  43.792   8.864
 1924POPC   C1A26811   7.446  43.928   8.564
 1924POPC   D2A26812   7.468  43.910   8.264
 1924POPC   C3A26813   7.384  43.869   7.964
 1924POPC   C4A26814   7.392  43.847   7.664
 1924POPC   C1B26815   7.541  43.643   8.564
 1924POPC   C2B26816   7.497  43.691   8.264
 1924POPC   C3B26817   7.578  43.688   7.964
 1924POPC   C4B26818   7.569  43.632   7.664
 1925POPC   NC326819   4.362   0.391   9.464
 1925POPC   PO426820   4.353   0.415   9.164
 1925POPC   GL126821   4.297   0.404   8.864
 1925POPC   GL226822   4.232   0.399   8.864
 1925POPC   C1A26823   4.302   0.449   8.564
 1925POPC   D2A26824   4.319   0.428   8.264
 1925POPC   C3A26825   4.362   0.392   7.964
 1925POPC   C4A26826   4.351   0.408   7.664
 1925POPC   C1B26827   4.070   0.355   8.564
 1925POPC   C2B26828   4.113   0.351   8.264
 1925POPC   C3B26829   4.051   0.311   7.964
 1925POPC   C4B26830   4.111   0.386   7.664
 1926POPC   NC326831   1.962  42.359   9.464
 1926POPC   PO426832   1.958  42.287   9.164
 1926POPC   GL126833   2.013  42.348   8.864
 1926POPC   GL226834   2.035  42.462   8.864
 1926POPC   C1A26835   2.032  42.377   8.564
 1926POPC   D2A26836   1.958  42.355   8.264
 1926POPC   C3A26837   2.005  42.379   7.964
 1926POPC   C4A26838   1.980  42.312   7.664
 1926POPC   C1B26839   2.144  42.503   8.564
 1926POPC   C2B26840   2.209  42.476   8.264
 1926POPC   C3B26841   2.146  42.494   7.964
 1926POPC   C4B26842   2.131  42.562   7.664
 1927POPC   NC326843  31.454  27.603   9.464
 1927POPC   PO426844  31.505  27.643   9.164
 1927POPC   GL126845  31.491  27.571   8.864
 1927POPC   GL226846  31.545  27.477   8.864
 1927POPC   C1A26847  31.489  27.630   8.564
 1927POPC   D2A26848  31.515  27.578   8.264
 1927POPC   C3A26849  31.518  27.555   7.964
 1927POPC   C4A26850  31.465  27.636   7.664
 1927POPC   C1B26851  31.559  27.391   8.564
 1927POPC   C2B26852  31.492  27.362   8.264
 1927POPC   C3B26853  31.534  27.314   7.964
 1927POPC   C4B26854  31.552  27.368   7.664
 1928POPC   NC326855  22.898  43.127   9.464
 1928POPC   PO426856  22.892  43.118   9.164
 1928POPC   GL126857  22.941  43.067   8.864
 1928POPC   GL226858  22.928  43.212   8.864
 1928POPC   C1A26859  22.933  43.097   8.564
 1928POPC   D2A26860  22.913  43.149   8.264
 1928POPC   C3A26861  22.975  43.085   7.964
 1928POPC   C4A26862  22.917  43.099   7.664
 1928POPC   C1B26863  22.936  43.352   8.564
 1928POPC   C2B26864  22.966  43.407   8.264
 1928POPC   C3B26865  22.990  43.343   7.964
 1928POPC   C4B26866  22.991  43.347   7.664
 1929POPC   NC326867  10.542  40.037   9.464
 1929POPC   PO426868  10.537  40.011   9.164
 1929POPC   GL126869  10.528  40.049   8.864
 1929POPC   GL226870  10.463  39.855   8.864
 1929POPC   C1A26871  10.539  40.033   8.564
 1929POPC   D2A26872  10.554  40.006   8.264
 1929POPC   C3A26873  10.484  40.054   7.964
 1929POPC   C4A26874  10.548  39.986   7.664
 1929POPC   C1B26875  10.438  39.716   8.564
 1929POPC   C2B26876  10.447  39.748   8.264
 1929POPC   C3B26877  10.462  39.745   7.964
 1929POPC   C4B26878  10.485  39.793   7.664
 1930POPC   NC326879  25.252  19.098   9.464
 1930POPC   PO426880  25.240  19.019   9.164
 1930POPC   GL126881  25.216  19.014   8.864
 1930POPC   GL226882  25.337  19.134   8.864
 1930POPC   C1A26883  25.303  19.054   8.564
 1930POPC   D2A26884  25.216  19.099   8.264
 1930POPC   C3A26885  25.264  19.098   7.964
 1930POPC   C4A26886  25.295  19.053   7.664
 1930POPC   C1B26887  25.360  19.303   8.564
 1930POPC   C2B26888  25.307  19.304   8.264
 1930POPC   C3B26889  25.312  19.286   7.964
 1930POPC   C4B26890  25.369  19.324   7.664
 1931POPC   NC326891  11.265  38.500   9.464
 1931POPC   PO426892  11.266  38.440   9.164
 1931POPC   GL126893  11.308  38.420   8.864
 1931POPC   GL226894  11.309  38.312   8.864
 1931POPC   C1A26895  11.300  38.460   8.564
 1931POPC   D2A26896  11.294  38.455   8.264
 1931POPC   C3A26897  11.278  38.454   7.964
 1931POPC   C4A26898  11.302  38.455   7.664
 1931POPC   C1B26899  11.421  38.243   8.564
 1931POPC   C2B26900  11.420  38.224   8.264
 1931POPC   C3B26901  11.406  38.270   7.964
 1931POPC   C4B26902  11.417  38.243   7.664
 1932POPC   NC326903  29.167  37.681   9.464
 1932POPC   PO426904  29.144  37.634   9.164
 1932POPC   GL126905  29.108  37.677   8.864
 1932POPC   GL226906  29.089  37.596   8.864
 1932POPC   C1A26907  29.170  37.687   8.564
 1932POPC   D2A26908  29.187  37.707   8.264
 1932POPC   C3A26909  29.119  37.636   7.964
 1932POPC   C4A26910  29.103  37.644   7.664
 1932POPC   C1B26911  29.022  37.455   8.564
 1932POPC   C2B26912  29.073  37.488   8.264
 1932POPC   C3B26913  29.096  37.446   7.964
 1932POPC   C4B26914  29.097  37.429   7.664
 1933POPC   NC326915   1.233   8.970   9.464
 1933POPC   PO426916   1.235   9.021   9.164
 1933POPC   GL126917   1.246   8.935   8.864
 1933POPC   GL226918   1.368   9.022   8.864
 1933POPC   C1A26919   1.223   8.975   8.564
 1933POPC   D2A26920   1.253   9.016   8.264
 1933POPC   C3A26921   1.240   9.007   7.964
 1933POPC   C4A26922   1.218   9.008   7.664
 1933POPC   C1B26923   1.498   8.969   8.564
 1933POPC   C2B26924   1.476   8.957   8.264
 1933POPC   C3B26925   1.496   8.970   7.964
 1933POPC   C4B26926   1.473   9.023   7.664
 1934POPC   NC326927   0.464  14.359   9.464
 1934POPC   PO426928   0.396  14.391   9.164
 1934POPC   GL126929   0.440  14.442   8.864
 1934POPC   GL226930   0.272  14.390   8.864
 1934POPC   C1A26931   0.443  14.370   8.564
 1934POPC   D2A26932   0.406  14.382   8.264
 1934POPC   C3A26933   0.441  14.368   7.964
 1934POPC   C4A26934   0.422  14.372   7.664
 1934POPC   C1B26935   0.203  14.340   8.564
 1934POPC   C2B26936   0.201  14.376   8.264
 1934POPC   C3B26937   0.183  14.304   7.964
 1934POPC   C4B26938   0.173  14.320   7.664
 1935POPC   NC326939  36.904   4.268   9.464
 1935POPC   PO426940  36.915   4.331   9.164
 1935POPC   GL126941  36.862   4.337   8.864
 1935POPC   GL226942  36.973   4.449   8.864
 1935POPC   C1A26943  36.928   4.317   8.564
 1935POPC   D2A26944  36.909   4.329   8.264
 1935POPC   C3A26945  36.868   4.297   7.964
 1935POPC   C4A26946  36.922   4.336   7.664
 1935POPC   C1B26947  37.047   4.541   8.564
 1935POPC   C2B26948  37.076   4.555   8.264
 1935POPC   C3B26949  37.072   4.481   7.964
 1935POPC   C4B26950  37.083   4.495   7.664
 1936POPC   NC326951  12.833  23.705   9.464
 1936POPC   PO426952  12.813  23.678   9.164
 1936POPC   GL126953  12.845  23.681   8.864
 1936POPC   GL226954  12.880  23.637   8.864
 1936POPC   C1A26955  12.898  23.716   8.564
 1936POPC   D2A26956  12.879  23.727   8.264
 1936POPC   C3A26957  12.815  23.720   7.964
 1936POPC   C4A26958  12.845  23.730   7.664
 1936POPC   C1B26959  12.830  23.439   8.564
 1936POPC   C2B26960  12.903  23.437   8.264
 1936POPC   C3B26961  12.889  23.472   7.964
 1936POPC   C4B26962  12.904  23.420   7.664
 1937POPC   NC326963   9.726   2.720   9.464
 1937POPC   PO426964   9.744   2.756   9.164
 1937POPC   GL126965   9.758   2.815   8.864
 1937POPC   GL226966   9.619   2.673   8.864
 1937POPC   C1A26967   9.754   2.783   8.564
 1937POPC   D2A26968   9.706   2.811   8.264
 1937POPC   C3A26969   9.737   2.795   7.964
 1937POPC   C4A26970   9.708   2.741   7.664
 1937POPC   C1B26971   9.541   2.572   8.564
 1937POPC   C2B26972   9.589   2.562   8.264
 1937POPC   C3B26973   9.537   2.564   7.964
 1937POPC   C4B26974   9.560   2.605   7.664
 1938POPC   NC326975   5.096  15.203   9.464
 1938POPC   PO426976   5.122  15.161   9.164
 1938POPC   GL126977   5.067  15.192   8.864
 1938POPC   GL226978   4.960  15.127   8.864
 1938POPC   C1A26979   5.136  15.212   8.564
 1938POPC   D2A26980   5.080  15.153   8.264
 1938POPC   C3A26981   5.052  15.131   7.964
 1938POPC   C4A26982   5.130  15.141   7.664
 1938POPC   C1B26983   4.909  15.038   8.564
 1938POPC   C2B26984   4.950  15.015   8.264
 1938POPC   C3B26985   4.888  15.007   7.964
 1938POPC   C4B26986   4.865  15.008   7.664
 1939POPC   NC326987   4.338  21.421   9.464
 1939POPC   PO426988   4.352  21.406   9.164
 1939POPC   GL126989   4.311  21.414   8.864
 1939POPC   GL226990   4.285  21.461   8.864
 1939POPC   C1A26991   4.331  21.435   8.564
 1939POPC   D2A26992   4.339  21.412   8.264
 1939POPC   C3A26993   4.347  21.365   7.964
 1939POPC   C4A26994   4.336  21.410   7.664
 1939POPC   C1B26995   4.302  21.626   8.564
 1939POPC   C2B26996   4.358  21.667   8.264
 1939POPC   C3B26997   4.293  21.610   7.964
 1939POPC   C4B26998   4.312  21.623   7.664
 1940POPC   NC326999  28.373   5.901   9.464
 1940POPC   PO427000  28.417   5.867   9.164
 1940POPC   GL127001  28.391   5.889   8.864
 1940POPC   GL227002  28.296   5.827   8.864
 1940POPC   C1A27003  28.377   5.850   8.564
 1940POPC   D2A27004  28.324   5.857   8.264
 1940POPC   C3A27005  28.356   5.898   7.964
 1940POPC   C4A27006  28.345   5.864   7.664
 1940POPC   C1B27007  28.223   5.728   8.564
 1940POPC   C2B27008  28.144   5.702   8.264
 1940POPC   C3B27009  28.198   5.700   7.964
 1940POPC   C4B27010  28.218   5.741   7.664
 1941POPC   NC327011  13.635  33.818   9.464
 1941POPC   PO427012  13.596  33.823   9.164
 1941POPC   GL127013  13.615  33.830   8.864
 1941POPC   GL227014  13.680  33.653   8.864
 1941POPC   C1A27015  13.655  33.821   8.564
 1941POPC   D2A27016  13.587  33.832   8.264
 1941POPC   C3A27017  13.595  33.758   7.964
 1941POPC   C4A27018  13.622  33.763   7.664
 1941POPC   C1B27019  13.757  33.610   8.564
 1941POPC   C2B27020  13.717  33.561   8.264
 1941POPC   C3B27021  13.697  33.623   7.964
 1941POPC   C4B27022  13.742  33.580   7.664
 1942POPC   NC327023  13.588  12.053   9.464
 1942POPC   PO427024  13.605  12.062   9.164
 1942POPC   GL127025  13.613  12.088   8.864
 1942POPC   GL227026  13.744  11.998   8.864
 1942POPC   C1A27027  13.623  12.040   8.564
 1942POPC   D2A27028  13.616  12.060   8.264
 1942POPC   C3A27029  13.677  12.051   7.964
 1942POPC   C4A27030  13.669  12.060   7.664
 1942POPC   C1B27031  13.783  11.854   8.564
 1942POPC   C2B27032  13.811  11.869   8.264
 1942POPC   C3B27033  13.754  11.859   7.964
 1942POPC   C4B27034  13.777  11.847   7.664
 1943POPC   NC327035  15.209  40.032   9.464
 1943POPC   PO427036  15.137  39.995   9.164
 1943POPC   GL127037  15.203  40.040   8.864
 1943POPC   GL227038  15.176  40.088   8.864
 1943POPC   C1A27039  15.190  40.036   8.564
 1943POPC   D2A27040  15.221  40.028   8.264
 1943POPC   C3A27041  15.192  40.010   7.964
 1943POPC   C4A27042  15.186  40.042   7.664
 1943POPC   C1B27043  15.130  40.291   8.564
 1943POPC   C2B27044  15.143  40.299   8.264
 1943POPC   C3B27045  15.132  40.204   7.964
 1943POPC   C4B27046  15.091  40.301   7.664
 1944POPC   NC327047  24.478   8.970   9.464
 1944POPC   PO427048  24.503   8.981   9.164
 1944POPC   GL127049  24.475   8.962   8.864
 1944POPC   GL227050  24.622   9.033   8.864
 1944POPC   C1A27051  24.464   8.942   8.564
 1944POPC   D2A27052  24.448   9.005   8.264
 1944POPC   C3A27053  24.445   9.001   7.964
 1944POPC   C4A27054  24.515   8.949   7.664
 1944POPC   C1B27055  24.635   9.143   8.564
 1944POPC   C2B27056  24.614   9.195   8.264
 1944POPC   C3B27057  24.667   9.179   7.964
 1944POPC   C4B27058  24.685   9.202   7.664
 1945POPC   NC327059  34.557  12.890   9.464
 1945POPC   PO427060  34.571  12.823   9.164
 1945POPC   GL127061  34.538  12.837   8.864
 1945POPC   GL227062  34.641  12.705   8.864
 1945POPC   C1A27063  34.611  12.880   8.564
 1945POPC   D2A27064  34.547  12.838   8.264
 1945POPC   C3A27065  34.604  12.886   7.964
 1945POPC   C4A27066  34.589  12.816   7.664
 1945POPC   C1B27067  34.747  12.656   8.564
 1945POPC   C2B27068  34.756  12.674   8.264
 1945POPC   C3B27069  34.711  12.669   7.964
 1945POPC   C4B27070  34.709  12.622   7.664
 1946POPC   NC327071  19.791  35.324   9.464
 1946POPC   PO427072  19.831  35.315   9.164
 1946POPC   GL127073  19.831  35.371   8.864
 1946POPC   GL227074  19.688  35.281   8.864
 1946POPC   C1A27075  19.862  35.379   8.564
 1946POPC   D2A27076  19.817  35.389   8.264
 1946POPC   C3A27077  19.818  35.393   7.964
 1946POPC   C4A27078  19.871  35.327   7.664
 1946POPC   C1B27079  19.580  35.289   8.564
 1946POPC   C2B27080  19.636  35.319   8.264
 1946POPC   C3B27081  19.617  35.338   7.964
 1946POPC   C4B27082  19.585  35.332   7.664
 1947POPC   NC327083  24.515  10.477   9.464
 1947POPC   PO427084  24.491  10.493   9.164
 1947POPC   GL127085  24.441  10.566   8.864
 1947POPC   GL227086  24.344  10.521   8.864
 1947POPC   C1A27087  24.485  10.515   8.564
 1947POPC   D2A27088  24.473  10.500   8.264
 1947POPC   C3A27089  24.462  10.475   7.964
 1947POPC   C4A27090  24.533  10.507   7.664
 1947POPC   C1B27091  24.242  10.465   8.564
 1947POPC   C2B27092  24.279  10.467   8.264
 1947POPC   C3B27093  24.262  10.465   7.964
 1947POPC   C4B27094  24.252  10.536   7.664
 1948POPC   NC327095  29.927  21.368   9.464
 1948POPC   PO427096  29.913  21.354   9.164
 1948POPC   GL127097  29.925  21.385   8.864
 1948POPC   GL227098  30.087  21.376   8.864
 1948POPC   C1A27099  29.916  21.377   8.564
 1948POPC   D2A27100  29.872  21.342   8.264
 1948POPC   C3A27101  29.924  21.384   7.964
 1948POPC   C4A27102  29.937  21.358   7.664
 1948POPC   C1B27103  30.195  21.328   8.564
 1948POPC   C2B27104  30.118  21.360   8.264
 1948POPC   C3B27105  30.139  21.376   7.964
 1948POPC   C4B27106  30.161  21.352   7.664
 1949POPC   NC327107   4.269  25.236   9.464
 1949POPC   PO427108   4.306  25.286   9.164
 1949POPC   GL127109   4.303  25.310   8.864
 1949POPC   GL227110   4.247  25.342   8.864
 1949POPC   C1A27111   4.326  25.275   8.564
 1949POPC   D2A27112   4.317  25.241   8.264
 1949POPC   C3A27113   4.286  25.235   7.964
 1949POPC   C4A27114   4.282  25.250   7.664
 1949POPC   C1B27115   4.071  25.350   8.564
 1949POPC   C2B27116   4.131  25.335   8.264
 1949POPC   C3B27117   4.110  25.323   7.964
 1949POPC   C4B27118   4.032  25.398   7.664
 1950POPC   NC327119  21.399  44.698   9.464
 1950POPC   PO427120  21.424  44.633   9.164
 1950POPC   GL127121  21.367  44.705   8.864
 1950POPC   GL227122  21.329  44.819   8.864
 1950POPC   C1A27123  21.401  44.699   8.564
 1950POPC   D2A27124  21.378  44.661   8.264
 1950POPC   C3A27125  21.349  44.631   7.964
 1950POPC   C4A27126  21.371  44.660   7.664
 1950POPC   C1B27127  21.335  44.864   8.564
 1950POPC   C2B27128  21.354  44.876   8.264
 1950POPC   C3B27129  21.292  44.934   7.964
 1950POPC   C4B27130  21.362  44.872   7.664
 1951POPC   NC327131   2.038  38.437   9.464
 1951POPC   PO427132   2.010  38.480   9.164
 1951POPC   GL127133   2.021  38.406   8.864
 1951POPC   GL227134   2.092  38.400   8.864
 1951POPC   C1A27135   1.971  38.487   8.564
 1951POPC   D2A27136   1.991  38.469   8.264
 1951POPC   C3A27137   1.991  38.433   7.964
 1951POPC   C4A27138   2.036  38.479   7.664
 1951POPC   C1B27139   2.164  38.297   8.564
 1951POPC   C2B27140   2.143  38.245   8.264
 1951POPC   C3B27141   2.155  38.262   7.964
 1951POPC   C4B27142   2.193  38.223   7.664
 1952POPC   NC327143   3.551  23.729   9.464
 1952POPC   PO427144   3.527  23.754   9.164
 1952POPC   GL127145   3.502  23.689   8.864
 1952POPC   GL227146   3.453  23.714   8.864
 1952POPC   C1A27147   3.585  23.733   8.564
 1952POPC   D2A27148   3.581  23.673   8.264
 1952POPC   C3A27149   3.589  23.685   7.964
 1952POPC   C4A27150   3.547  23.714   7.664
 1952POPC   C1B27151   3.253  23.780   8.564
 1952POPC   C2B27152   3.347  23.790   8.264
 1952POPC   C3B27153   3.316  23.804   7.964
 1952POPC   C4B27154   3.318  23.775   7.664
 1953POPC   NC327155   4.355   9.005   9.464
 1953POPC   PO427156   4.362   8.929   9.164
 1953POPC   GL127157   4.288   8.983   8.864
 1953POPC   GL227158   4.251   8.821   8.864
 1953POPC   C1A27159   4.302   8.923   8.564
 1953POPC   D2A27160   4.341   8.975   8.264
 1953POPC   C3A27161   4.278   9.014   7.964
 1953POPC   C4A27162   4.336   9.012   7.664
 1953POPC   C1B27163   4.217   8.791   8.564
 1953POPC   C2B27164   4.207   8.770   8.264
 1953POPC   C3B27165   4.162   8.775   7.964
 1953POPC   C4B27166   4.206   8.791   7.664
 1954POPC   NC327167  22.927  17.501   9.464
 1954POPC   PO427168  22.920  17.475   9.164
 1954POPC   GL127169  22.953  17.526   8.864
 1954POPC   GL227170  22.903  17.635   8.864
 1954POPC   C1A27171  22.941  17.496   8.564
 1954POPC   D2A27172  22.965  17.541   8.264
 1954POPC   C3A27173  22.983  17.544   7.964
 1954POPC   C4A27174  22.952  17.460   7.664
 1954POPC   C1B27175  22.924  17.748   8.564
 1954POPC   C2B27176  22.902  17.735   8.264
 1954POPC   C3B27177  22.926  17.713   7.964
 1954POPC   C4B27178  22.943  17.775   7.664
 1955POPC   NC327179  31.436  26.002   9.464
 1955POPC   PO427180  31.491  26.020   9.164
 1955POPC   GL127181  31.454  26.027   8.864
 1955POPC   GL227182  31.635  25.989   8.864
 1955POPC   C1A27183  31.440  25.995   8.564
 1955POPC   D2A27184  31.466  26.069   8.264
 1955POPC   C3A27185  31.447  26.002   7.964
 1955POPC   C4A27186  31.499  26.065   7.664
 1955POPC   C1B27187  31.689  25.987   8.564
 1955POPC   C2B27188  31.767  25.998   8.264
 1955POPC   C3B27189  31.698  26.000   7.964
 1955POPC   C4B27190  31.738  26.033   7.664
 1956POPC   NC327191  39.982  31.425   9.464
 1956POPC   PO427192  39.972  31.449   9.164
 1956POPC   GL127193  40.018  31.446   8.864
 1956POPC   GL227194  39.999  31.305   8.864
 1956POPC   C1A27195  40.014  31.453   8.564
 1956POPC   D2A27196  40.041  31.501   8.264
 1956POPC   C3A27197  40.044  31.424   7.964
 1956POPC   C4A27198  40.042  31.496   7.664
 1956POPC   C1B27199  39.922  31.236   8.564
 1956POPC   C2B27200  39.896  31.207   8.264
 1956POPC   C3B27201  39.913  31.260   7.964
 1956POPC   C4B27202  39.971  31.215   7.664
 1957POPC   NC327203  35.357  29.878   9.464
 1957POPC   PO427204  35.352  29.909   9.164
 1957POPC   GL127205  35.318  29.903   8.864
 1957POPC   GL227206  35.333  30.036   8.864
 1957POPC   C1A27207  35.315  29.873   8.564
 1957POPC   D2A27208  35.318  29.921   8.264
 1957POPC   C3A27209  35.389  29.967   7.964
 1957POPC   C4A27210  35.333  29.917   7.664
 1957POPC   C1B27211  35.405  30.173   8.564
 1957POPC   C2B27212  35.440  30.115   8.264
 1957POPC   C3B27213  35.388  30.163   7.964
 1957POPC   C4B27214  35.365  30.128   7.664
 1958POPC   NC327215  25.253   2.810   9.464
 1958POPC   PO427216  25.265   2.806   9.164
 1958POPC   GL127217  25.224   2.797   8.864
 1958POPC   GL227218  25.427   2.768   8.864
 1958POPC   C1A27219  25.289   2.771   8.564
 1958POPC   D2A27220  25.281   2.759   8.264
 1958POPC   C3A27221  25.237   2.758   7.964
 1958POPC   C4A27222  25.246   2.808   7.664
 1958POPC   C1B27223  25.463   2.787   8.564
 1958POPC   C2B27224  25.557   2.773   8.264
 1958POPC   C3B27225  25.539   2.797   7.964
 1958POPC   C4B27226  25.479   2.809   7.664
 1959POPC   NC327227  24.489  31.519   9.464
 1959POPC   PO427228  24.476  31.490   9.164
 1959POPC   GL127229  24.440  31.475   8.864
 1959POPC   GL227230  24.447  31.598   8.864
 1959POPC   C1A27231  24.472  31.512   8.564
 1959POPC   D2A27232  24.536  31.473   8.264
 1959POPC   C3A27233  24.488  31.499   7.964
 1959POPC   C4A27234  24.473  31.521   7.664
 1959POPC   C1B27235  24.426  31.742   8.564
 1959POPC   C2B27236  24.440  31.751   8.264
 1959POPC   C3B27237  24.411  31.671   7.964
 1959POPC   C4B27238  24.455  31.695   7.664
 1960POPC   NC327239  16.711  26.800   9.464
 1960POPC   PO427240  16.775  26.863   9.164
 1960POPC   GL127241  16.772  26.833   8.864
 1960POPC   GL227242  16.600  26.766   8.864
 1960POPC   C1A27243  16.712  26.863   8.564
 1960POPC   D2A27244  16.742  26.772   8.264
 1960POPC   C3A27245  16.741  26.788   7.964
 1960POPC   C4A27246  16.765  26.800   7.664
 1960POPC   C1B27247  16.499  26.647   8.564
 1960POPC   C2B27248  16.532  26.669   8.264
 1960POPC   C3B27249  16.486  26.674   7.964
 1960POPC   C4B27250  16.568  26.658   7.664
 1961POPC   NC327251  26.822   2.033   9.464
 1961POPC   PO427252  26.787   1.972   9.164
 1961POPC   GL127253  26.859   2.009   8.864
 1961POPC   GL227254  26.949   1.874   8.864
 1961POPC   C1A27255  26.778   1.959   8.564
 1961POPC   D2A27256  26.816   1.968   8.264
 1961POPC   C3A27257  26.777   1.969   7.964
 1961POPC   C4A27258  26.849   2.029   7.664
 1961POPC   C1B27259  27.056   1.840   8.564
 1961POPC   C2B27260  27.024   1.795   8.264
 1961POPC   C3B27261  26.970   1.825   7.964
 1961POPC   C4B27262  26.994   1.801   7.664
 1962POPC   NC327263  29.157   9.740   9.464
 1962POPC   PO427264  29.132   9.720   9.164
 1962POPC   GL127265  29.164   9.725   8.864
 1962POPC   GL227266  29.031   9.689   8.864
 1962POPC   C1A27267  29.095   9.760   8.564
 1962POPC   D2A27268  29.104   9.700   8.264
 1962POPC   C3A27269  29.181   9.738   7.964
 1962POPC   C4A27270  29.100   9.748   7.664
 1962POPC   C1B27271  28.957   9.590   8.564
 1962POPC   C2B27272  28.990   9.570   8.264
 1962POPC   C3B27273  28.928   9.558   7.964
 1962POPC   C4B27274  28.923   9.525   7.664
 1963POPC   NC327275  22.921  38.487   9.464
 1963POPC   PO427276  22.898  38.410   9.164
 1963POPC   GL127277  22.976  38.465   8.864
 1963POPC   GL227278  22.847  38.479   8.864
 1963POPC   C1A27279  22.952  38.495   8.564
 1963POPC   D2A27280  22.976  38.443   8.264
 1963POPC   C3A27281  22.895  38.424   7.964
 1963POPC   C4A27282  22.919  38.420   7.664
 1963POPC   C1B27283  22.652  38.461   8.564
 1963POPC   C2B27284  22.693  38.479   8.264
 1963POPC   C3B27285  22.660  38.519   7.964
 1963POPC   C4B27286  22.730  38.541   7.664
 1964POPC   NC327287  32.979  40.768   9.464
 1964POPC   PO427288  33.038  40.735   9.164
 1964POPC   GL127289  33.057  40.795   8.864
 1964POPC   GL227290  32.937  40.774   8.864
 1964POPC   C1A27291  33.067  40.784   8.564
 1964POPC   D2A27292  32.999  40.760   8.264
 1964POPC   C3A27293  32.991  40.735   7.964
 1964POPC   C4A27294  33.041  40.758   7.664
 1964POPC   C1B27295  32.784  40.725   8.564
 1964POPC   C2B27296  32.790  40.801   8.264
 1964POPC   C3B27297  32.814  40.747   7.964
 1964POPC   C4B27298  32.745  40.742   7.664
 1965POPC   NC327299  22.210  22.945   9.464
 1965POPC   PO427300  22.170  22.966   9.164
 1965POPC   GL127301  22.148  22.918   8.864
 1965POPC   GL227302  22.256  23.064   8.864
 1965POPC   C1A27303  22.130  22.932   8.564
 1965POPC   D2A27304  22.179  22.937   8.264
 1965POPC   C3A27305  22.151  22.934   7.964
 1965POPC   C4A27306  22.128  22.945   7.664
 1965POPC   C1B27307  22.291  23.112   8.564
 1965POPC   C2B27308  22.224  23.194   8.264
 1965POPC   C3B27309  22.226  23.123   7.964
 1965POPC   C4B27310  22.288  23.149   7.664
 1966POPC   NC327311  28.357  35.355   9.464
 1966POPC   PO427312  28.385  35.357   9.164
 1966POPC   GL127313  28.387  35.352   8.864
 1966POPC   GL227314  28.473  35.444   8.864
 1966POPC   C1A27315  28.387  35.305   8.564
 1966POPC   D2A27316  28.345  35.362   8.264
 1966POPC   C3A27317  28.389  35.336   7.964
 1966POPC   C4A27318  28.322  35.358   7.664
 1966POPC   C1B27319  28.560  35.493   8.564
 1966POPC   C2B27320  28.533  35.502   8.264
 1966POPC   C3B27321  28.541  35.566   7.964
 1966POPC   C4B27322  28.537  35.485   7.664
 1967POPC   NC327323  43.921  18.324   9.464
 1967POPC   PO427324  43.865  18.258   9.164
 1967POPC   GL127325  43.928  18.241   8.864
 1967POPC   GL227326  43.842  18.195   8.864
 1967POPC   C1A27327  43.898  18.300   8.564
 1967POPC   D2A27328  43.876  18.271   8.264
 1967POPC   C3A27329  43.921  18.302   7.964
 1967POPC   C4A27330  43.909  18.268   7.664
 1967POPC   C1B27331  43.703  18.060   8.564
 1967POPC   C2B27332  43.673  18.152   8.264
 1967POPC   C3B27333  43.710  18.054   7.964
 1967POPC   C4B27334  43.734  18.149   7.664
 1968POPC   NC327335  29.194   5.832   9.464
 1968POPC   PO427336  29.118   5.875   9.164
 1968POPC   GL127337  29.132   5.914   8.864
 1968POPC   GL227338  29.001   5.981   8.864
 1968POPC   C1A27339  29.192   5.838   8.564
 1968POPC   D2A27340  29.144   5.855   8.264
 1968POPC   C3A27341  29.167   5.894   7.964
 1968POPC   C4A27342  29.096   5.881   7.664
 1968POPC   C1B27343  28.914   6.036   8.564
 1968POPC   C2B27344  28.919   6.028   8.264
 1968POPC   C3B27345  28.925   5.950   7.964
 1968POPC   C4B27346  28.962   5.999   7.664
 1969POPC   NC327347   3.507  15.167   9.464
 1969POPC   PO427348   3.523  15.204   9.164
 1969POPC   GL127349   3.562  15.182   8.864
 1969POPC   GL227350   3.631  15.247   8.864
 1969POPC   C1A27351   3.588  15.195   8.564
 1969POPC   D2A27352   3.583  15.202   8.264
 1969POPC   C3A27353   3.580  15.169   7.964
 1969POPC   C4A27354   3.567  15.217   7.664
 1969POPC   C1B27355   3.709  15.412   8.564
 1969POPC   C2B27356   3.617  15.380   8.264
 1969POPC   C3B27357   3.658  15.433   7.964
 1969POPC   C4B27358   3.713  15.389   7.664
 1970POPC   NC327359  27.593   8.215   9.464
 1970POPC   PO427360  27.585   8.208   9.164
 1970POPC   GL127361  27.581   8.231   8.864
 1970POPC   GL227362  27.682   8.163   8.864
 1970POPC   C1A27363  27.615   8.223   8.564
 1970POPC   D2A27364  27.618   8.173   8.264
 1970POPC   C3A27365  27.567   8.202   7.964
 1970POPC   C4A27366  27.632   8.240   7.664
 1970POPC   C1B27367  27.842   8.093   8.564
 1970POPC   C2B27368  27.811   8.063   8.264
 1970POPC   C3B27369  27.841   8.101   7.964
 1970POPC   C4B27370  27.787   8.059   7.664
 1971POPC   NC327371  11.345  43.079   9.464
 1971POPC   PO427372  11.336  43.150   9.164
 1971POPC   GL127373  11.330  43.134   8.864
 1971POPC   GL227374  11.357  43.247   8.864
 1971POPC   C1A27375  11.324  43.126   8.564
 1971POPC   D2A27376  11.296  43.077   8.264
 1971POPC   C3A27377  11.251  43.124   7.964
 1971POPC   C4A27378  11.253  43.145   7.664
 1971POPC   C1B27379  11.390  43.376   8.564
 1971POPC   C2B27380  11.443  43.310   8.264
 1971POPC   C3B27381  11.456  43.328   7.964
 1971POPC   C4B27382  11.457  43.376   7.664
 1972POPC   NC327383   2.003  21.401   9.464
 1972POPC   PO427384   1.985  21.396   9.164
 1972POPC   GL127385   2.028  21.363   8.864
 1972POPC   GL227386   2.093  21.342   8.864
 1972POPC   C1A27387   2.037  21.381   8.564
 1972POPC   D2A27388   1.947  21.348   8.264
 1972POPC   C3A27389   1.968  21.426   7.964
 1972POPC   C4A27390   1.991  21.430   7.664
 1972POPC   C1B27391   2.179  21.287   8.564
 1972POPC   C2B27392   2.236  21.229   8.264
 1972POPC   C3B27393   2.244  21.229   7.964
 1972POPC   C4B27394   2.163  21.229   7.664
 1973POPC   NC327395  33.785   9.020   9.464
 1973POPC   PO427396  33.832   8.983   9.164
 1973POPC   GL127397  33.800   8.958   8.864
 1973POPC   GL227398  33.887   8.875   8.864
 1973POPC   C1A27399  33.767   8.968   8.564
 1973POPC   D2A27400  33.849   8.962   8.264
 1973POPC   C3A27401  33.787   8.997   7.964
 1973POPC   C4A27402  33.778   8.969   7.664
 1973POPC   C1B27403  33.960   8.708   8.564
 1973POPC   C2B27404  33.917   8.732   8.264
 1973POPC   C3B27405  33.928   8.777   7.964
 1973POPC   C4B27406  33.922   8.713   7.664
 1974POPC   NC327407  36.101   9.008   9.464
 1974POPC   PO427408  36.132   9.018   9.164
 1974POPC   GL127409  36.081   8.940   8.864
 1974POPC   GL227410  36.255   8.996   8.864
 1974POPC   C1A27411  36.175   8.974   8.564
 1974POPC   D2A27412  36.108   8.999   8.264
 1974POPC   C3A27413  36.085   8.927   7.964
 1974POPC   C4A27414  36.122   8.933   7.664
 1974POPC   C1B27415  36.370   9.065   8.564
 1974POPC   C2B27416  36.323   9.075   8.264
 1974POPC   C3B27417  36.373   9.021   7.964
 1974POPC   C4B27418  36.385   9.056   7.664
 1975POPC   NC327419  35.363   4.276   9.464
 1975POPC   PO427420  35.376   4.348   9.164
 1975POPC   GL127421  35.329   4.364   8.864
 1975POPC   GL227422  35.474   4.215   8.864
 1975POPC   C1A27423  35.308   4.269   8.564
 1975POPC   D2A27424  35.369   4.362   8.264
 1975POPC   C3A27425  35.308   4.366   7.964
 1975POPC   C4A27426  35.376   4.291   7.664
 1975POPC   C1B27427  35.517   4.136   8.564
 1975POPC   C2B27428  35.516   4.105   8.264
 1975POPC   C3B27429  35.574   4.135   7.964
 1975POPC   C4B27430  35.518   4.179   7.664
 1976POPC   NC327431  29.928  17.467   9.464
 1976POPC   PO427432  29.962  17.499   9.164
 1976POPC   GL127433  29.954  17.536   8.864
 1976POPC   GL227434  29.998  17.569   8.864
 1976POPC   C1A27435  29.912  17.493   8.564
 1976POPC   D2A27436  29.917  17.499   8.264
 1976POPC   C3A27437  29.879  17.516   7.964
 1976POPC   C4A27438  29.886  17.542   7.664
 1976POPC   C1B27439  30.063  17.735   8.564
 1976POPC   C2B27440  30.054  17.728   8.264
 1976POPC   C3B27441  30.072  17.654   7.964
 1976POPC   C4B27442  30.038  17.712   7.664
 1977POPC   NC327443  30.693  25.996   9.464
 1977POPC   PO427444  30.707  26.026   9.164
 1977POPC   GL127445  30.738  26.035   8.864
 1977POPC   GL227446  30.761  26.000   8.864
 1977POPC   C1A27447  30.647  26.027   8.564
 1977POPC   D2A27448  30.702  26.036   8.264
 1977POPC   C3A27449  30.701  26.005   7.964
 1977POPC   C4A27450  30.717  26.014   7.664
 1977POPC   C1B27451  30.893  25.954   8.564
 1977POPC   C2B27452  30.935  25.920   8.264
 1977POPC   C3B27453  30.895  25.941   7.964
 1977POPC   C4B27454  30.879  25.918   7.664
 1978POPC   NC327455  40.018  44.627   9.464
 1978POPC   PO427456  39.961  44.683   9.164
 1978POPC   GL127457  39.980  44.663   8.864
 1978POPC   GL227458  39.957  44.769   8.864
 1978POPC   C1A27459  40.043  44.678   8.564
 1978POPC   D2A27460  39.967  44.613   8.264
 1978POPC   C3A27461  39.968  44.632   7.964
 1978POPC   C4A27462  39.975  44.675   7.664
 1978POPC   C1B27463  40.001  44.869   8.564
 1978POPC   C2B27464  39.974  44.893   8.264
 1978POPC   C3B27465  40.022  44.877   7.964
 1978POPC   C4B27466  39.990  44.894   7.664
 1979POPC   NC327467  43.879  32.233   9.464
 1979POPC   PO427468  43.916  32.198   9.164
 1979POPC   GL127469  43.907  32.226   8.864
 1979POPC   GL227470  43.808  32.340   8.864
 1979POPC   C1A27471  43.851  32.253   8.564
 1979POPC   D2A27472  43.873  32.270   8.264
 1979POPC   C3A27473  43.879  32.259   7.964
 1979POPC   C4A27474  43.917  32.261   7.664
 1979POPC   C1B27475  43.724  32.398   8.564
 1979POPC   C2B27476  43.717  32.437   8.264
 1979POPC   C3B27477  43.759  32.473   7.964
 1979POPC   C4B27478  43.687  32.469   7.664
 1980POPC   NC327479  33.031  15.184   9.464
 1980POPC   PO427480  33.024  15.147   9.164
 1980POPC   GL127481  33.026  15.169   8.864
 1980POPC   GL227482  33.109  15.263   8.864
 1980POPC   C1A27483  32.999  15.161   8.564
 1980POPC   D2A27484  32.985  15.196   8.264
 1980POPC   C3A27485  33.033  15.193   7.964
 1980POPC   C4A27486  33.000  15.223   7.664
 1980POPC   C1B27487  33.096  15.443   8.564
 1980POPC   C2B27488  33.093  15.465   8.264
 1980POPC   C3B27489  33.105  15.413   7.964
 1980POPC   C4B27490  33.151  15.376   7.664
 1981POPC   NC327491  32.245   1.975   9.464
 1981POPC   PO427492  32.242   1.989   9.164
 1981POPC   GL127493  32.213   2.020   8.864
 1981POPC   GL227494  32.189   2.100   8.864
 1981POPC   C1A27495  32.276   2.028   8.564
 1981POPC   D2A27496  32.259   2.018   8.264
 1981POPC   C3A27497  32.253   1.952   7.964
 1981POPC   C4A27498  32.231   1.990   7.664
 1981POPC   C1B27499  32.054   2.138   8.564
 1981POPC   C2B27500  32.045   2.198   8.264
 1981POPC   C3B27501  32.076   2.204   7.964
 1981POPC   C4B27502  32.111   2.178   7.664
 1982POPC   NC327503   6.603  24.443   9.464
 1982POPC   PO427504   6.610  24.495   9.164
 1982POPC   GL127505   6.676  24.510   8.864
 1982POPC   GL227506   6.579  24.612   8.864
 1982POPC   C1A27507   6.605  24.517   8.564
 1982POPC   D2A27508   6.597  24.534   8.264
 1982POPC   C3A27509   6.621  24.523   7.964
 1982POPC   C4A27510   6.682  24.447   7.664
 1982POPC   C1B27511   6.502  24.722   8.564
 1982POPC   C2B27512   6.456  24.664   8.264
 1982POPC   C3B27513   6.486  24.641   7.964
 1982POPC   C4B27514   6.486  24.696   7.664
 1983POPC   NC327515   1.184   6.633   9.464
 1983POPC   PO427516   1.168   6.628   9.164
 1983POPC   GL127517   1.251   6.659   8.864
 1983POPC   GL227518   1.125   6.601   8.864
 1983POPC   C1A27519   1.167   6.683   8.564
 1983POPC   D2A27520   1.208   6.673   8.264
 1983POPC   C3A27521   1.260   6.685   7.964
 1983POPC   C4A27522   1.205   6.603   7.664
 1983POPC   C1B27523   1.041   6.475   8.564
 1983POPC   C2B27524   0.996   6.551   8.264
 1983POPC   C3B27525   0.966   6.493   7.964
 1983POPC   C4B27526   0.974   6.529   7.664
 1984POPC   NC327527  33.029  34.548   9.464
 1984POPC   PO427528  33.059  34.557   9.164
 1984POPC   GL127529  33.069  34.547   8.864
 1984POPC   GL227530  33.116  34.589   8.864
 1984POPC   C1A27531  33.057  34.589   8.564
 1984POPC   D2A27532  33.028  34.527   8.264
 1984POPC   C3A27533  33.019  34.555   7.964
 1984POPC   C4A27534  32.982  34.624   7.664
 1984POPC   C1B27535  33.212  34.680   8.564
 1984POPC   C2B27536  33.231  34.690   8.264
 1984POPC   C3B27537  33.283  34.680   7.964
 1984POPC   C4B27538  33.281  34.649   7.664
 1985POPC   NC327539   3.569   2.812   9.464
 1985POPC   PO427540   3.580   2.717   9.164
 1985POPC   GL127541   3.578   2.789   8.864
 1985POPC   GL227542   3.494   2.698   8.864
 1985POPC   C1A27543   3.528   2.779   8.564
 1985POPC   D2A27544   3.526   2.798   8.264
 1985POPC   C3A27545   3.567   2.769   7.964
 1985POPC   C4A27546   3.590   2.743   7.664
 1985POPC   C1B27547   3.332   2.577   8.564
 1985POPC   C2B27548   3.321   2.606   8.264
 1985POPC   C3B27549   3.355   2.577   7.964
 1985POPC   C4B27550   3.348   2.631   7.664
 1986POPC   NC327551  19.882  42.362   9.464
 1986POPC   PO427552  19.816  42.287   9.164
 1986POPC   GL127553  19.859  42.335   8.864
 1986POPC   GL227554  19.901  42.409   8.864
 1986POPC   C1A27555  19.866  42.348   8.564
 1986POPC   D2A27556  19.850  42.320   8.264
 1986POPC   C3A27557  19.840  42.371   7.964
 1986POPC   C4A27558  19.816  42.313   7.664
 1986POPC   C1B27559  19.945  42.501   8.564
 1986POPC   C2B27560  19.994  42.566   8.264
 1986POPC   C3B27561  19.959  42.532   7.964
 1986POPC   C4B27562  20.030  42.524   7.664
 1987POPC   NC327563  21.432  39.234   9.464
 1987POPC   PO427564  21.413  39.243   9.164
 1987POPC   GL127565  21.407  39.266   8.864
 1987POPC   GL227566  21.478  39.193   8.864
 1987POPC   C1A27567  21.398  39.235   8.564
 1987POPC   D2A27568  21.365  39.228   8.264
 1987POPC   C3A27569  21.347  39.253   7.964
 1987POPC   C4A27570  21.368  39.209   7.664
 1987POPC   C1B27571  21.568  39.139   8.564
 1987POPC   C2B27572  21.597  39.133   8.264
 1987POPC   C3B27573  21.563  39.158   7.964
 1987POPC   C4B27574  21.587  39.121   7.664
 1988POPC   NC327575  39.993  20.634   9.464
 1988POPC   PO427576  39.983  20.591   9.164
 1988POPC   GL127577  40.025  20.563   8.864
 1988POPC   GL227578  40.036  20.534   8.864
 1988POPC   C1A27579  40.016  20.658   8.564
 1988POPC   D2A27580  39.998  20.588   8.264
 1988POPC   C3A27581  40.000  20.635   7.964
 1988POPC   C4A27582  40.043  20.602   7.664
 1988POPC   C1B27583  40.142  20.396   8.564
 1988POPC   C2B27584  40.078  20.345   8.264
 1988POPC   C3B27585  40.128  20.380   7.964
 1988POPC   C4B27586  40.081  20.390   7.664
 1989POPC   NC327587   5.890  16.714   9.464
 1989POPC   PO427588   5.890  16.744   9.164
 1989POPC   GL127589   5.903  16.690   8.864
 1989POPC   GL227590   5.703  16.733   8.864
 1989POPC   C1A27591   5.868  16.703   8.564
 1989POPC   D2A27592   5.831  16.763   8.264
 1989POPC   C3A27593   5.832  16.713   7.964
 1989POPC   C4A27594   5.897  16.739   7.664
 1989POPC   C1B27595   5.596  16.604   8.564
 1989POPC   C2B27596   5.677  16.611   8.264
 1989POPC   C3B27597   5.619  16.649   7.964
 1989POPC   C4B27598   5.675  16.619   7.664
 1990POPC   NC327599   1.251  43.867   9.464
 1990POPC   PO427600   1.175  43.901   9.164
 1990POPC   GL127601   1.239  43.914   8.864
 1990POPC   GL227602   1.157  43.779   8.864
 1990POPC   C1A27603   1.244  43.859   8.564
 1990POPC   D2A27604   1.181  43.914   8.264
 1990POPC   C3A27605   1.215  43.914   7.964
 1990POPC   C4A27606   1.252  43.895   7.664
 1990POPC   C1B27607   1.093  43.648   8.564
 1990POPC   C2B27608   1.155  43.700   8.264
 1990POPC   C3B27609   1.117  43.663   7.964
 1990POPC   C4B27610   1.163  43.654   7.664
 1991POPC   NC327611  31.500  25.259   9.464
 1991POPC   PO427612  31.466  25.298   9.164
 1991POPC   GL127613  31.493  25.281   8.864
 1991POPC   GL227614  31.346  25.174   8.864
 1991POPC   C1A27615  31.470  25.248   8.564
 1991POPC   D2A27616  31.454  25.265   8.264
 1991POPC   C3A27617  31.477  25.234   7.964
 1991POPC   C4A27618  31.476  25.231   7.664
 1991POPC   C1B27619  31.261  25.199   8.564
 1991POPC   C2B27620  31.277  25.167   8.264
 1991POPC   C3B27621  31.207  25.217   7.964
 1991POPC   C4B27622  31.259  25.144   7.664
 1992POPC   NC327623  41.517  15.144   9.464
 1992POPC   PO427624  41.514  15.130   9.164
 1992POPC   GL127625  41.607  15.210   8.864
 1992POPC   GL227626  41.694  15.148   8.864
 1992POPC   C1A27627  41.553  15.178   8.564
 1992POPC   D2A27628  41.569  15.149   8.264
 1992POPC   C3A27629  41.544  15.167   7.964
 1992POPC   C4A27630  41.564  15.187   7.664
 1992POPC   C1B27631  41.778  15.039   8.564
 1992POPC   C2B27632  41.763  15.004   8.264
 1992POPC   C3B27633  41.780  15.014   7.964
 1992POPC   C4B27634  41.781  15.008   7.664
 1993POPC   NC327635  17.512  38.454   9.464
 1993POPC   PO427636  17.524  38.437   9.164
 1993POPC   GL127637  17.495  38.462   8.864
 1993POPC   GL227638  17.661  38.470   8.864
 1993POPC   C1A27639  17.503  38.412   8.564
 1993POPC   D2A27640  17.525  38.495   8.264
 1993POPC   C3A27641  17.487  38.461   7.964
 1993POPC   C4A27642  17.484  38.412   7.664
 1993POPC   C1B27643  17.760  38.579   8.564
 1993POPC   C2B27644  17.776  38.599   8.264
 1993POPC   C3B27645  17.730  38.605   7.964
 1993POPC   C4B27646  17.703  38.529   7.664
 1994POPC   NC327647   8.928   7.373   9.464
 1994POPC   PO427648   9.011   7.454   9.164
 1994POPC   GL127649   8.967   7.371   8.864
 1994POPC   GL227650   9.079   7.578   8.864
 1994POPC   C1A27651   8.932   7.419   8.564
 1994POPC   D2A27652   9.019   7.373   8.264
 1994POPC   C3A27653   8.965   7.410   7.964
 1994POPC   C4A27654   9.021   7.460   7.664
 1994POPC   C1B27655   9.099   7.681   8.564
 1994POPC   C2B27656   9.086   7.666   8.264
 1994POPC   C3B27657   9.056   7.658   7.964
 1994POPC   C4B27658   9.148   7.610   7.664
 1995POPC   NC327659   9.019  24.501   9.464
 1995POPC   PO427660   8.955  24.468   9.164
 1995POPC   GL127661   8.956  24.440   8.864
 1995POPC   GL227662   9.121  24.429   8.864
 1995POPC   C1A27663   8.973  24.512   8.564
 1995POPC   D2A27664   9.003  24.524   8.264
 1995POPC   C3A27665   9.019  24.524   7.964
 1995POPC   C4A27666   9.001  24.491   7.664
 1995POPC   C1B27667   9.207  24.342   8.564
 1995POPC   C2B27668   9.151  24.336   8.264
 1995POPC   C3B27669   9.186  24.355   7.964
 1995POPC   C4B27670   9.169  24.384   7.664
 1996POPC   NC327671  35.352  29.188   9.464
 1996POPC   PO427672  35.347  29.113   9.164
 1996POPC   GL127673  35.390  29.166   8.864
 1996POPC   GL227674  35.323  29.307   8.864
 1996POPC   C1A27675  35.321  29.148   8.564
 1996POPC   D2A27676  35.310  29.178   8.264
 1996POPC   C3A27677  35.326  29.115   7.964
 1996POPC   C4A27678  35.336  29.101   7.664
 1996POPC   C1B27679  35.234  29.397   8.564
 1996POPC   C2B27680  35.229  29.407   8.264
 1996POPC   C3B27681  35.210  29.425   7.964
 1996POPC   C4B27682  35.216  29.363   7.664
 1997POPC   NC327683   7.445  19.839   9.464
 1997POPC   PO427684   7.400  19.808   9.164
 1997POPC   GL127685   7.469  19.785   8.864
 1997POPC   GL227686   7.522  19.928   8.864
 1997POPC   C1A27687   7.371  19.809   8.564
 1997POPC   D2A27688   7.409  19.847   8.264
 1997POPC   C3A27689   7.453  19.830   7.964
 1997POPC   C4A27690   7.396  19.881   7.664
 1997POPC   C1B27691   7.576  20.080   8.564
 1997POPC   C2B27692   7.525  20.084   8.264
 1997POPC   C3B27693   7.568  20.017   7.964
 1997POPC   C4B27694   7.530  20.095   7.664
 1998POPC   NC327695  30.658   2.797   9.464
 1998POPC   PO427696  30.724   2.811   9.164
 1998POPC   GL127697  30.701   2.795   8.864
 1998POPC   GL227698  30.649   2.627   8.864
 1998POPC   C1A27699  30.663   2.720   8.564
 1998POPC   D2A27700  30.651   2.770   8.264
 1998POPC   C3A27701  30.654   2.716   7.964
 1998POPC   C4A27702  30.660   2.795   7.664
 1998POPC   C1B27703  30.581   2.559   8.564
 1998POPC   C2B27704  30.579   2.561   8.264
 1998POPC   C3B27705  30.626   2.539   7.964
 1998POPC   C4B27706  30.539   2.509   7.664
 1999POPC   NC327707  26.001  25.297   9.464
 1999POPC   PO427708  26.031  25.268   9.164
 1999POPC   GL127709  26.011  25.276   8.864
 1999POPC   GL227710  25.944  25.163   8.864
 1999POPC   C1A27711  25.998  25.311   8.564
 1999POPC   D2A27712  26.076  25.264   8.264
 1999POPC   C3A27713  25.993  25.306   7.964
 1999POPC   C4A27714  26.014  25.264   7.664
 1999POPC   C1B27715  25.920  25.044   8.564
 1999POPC   C2B27716  25.840  25.048   8.264
 1999POPC   C3B27717  25.847  25.063   7.964
 1999POPC   C4B27718  25.878  25.095   7.664
 2000POPC   NC327719  24.485   8.203   9.464
 2000POPC   PO427720  24.489   8.161   9.164
 2000POPC   GL127721  24.466   8.157   8.864
 2000POPC   GL227722  24.525   8.078   8.864
 2000POPC   C1A27723  24.521   8.196   8.564
 2000POPC   D2A27724  24.484   8.155   8.264
 2000POPC   C3A27725  24.505   8.222   7.964
 2000POPC   C4A27726  24.518   8.217   7.664
 2000POPC   C1B27727  24.442   7.913   8.564
 2000POPC   C2B27728  24.505   7.972   8.264
 2000POPC   C3B27729  24.513   7.959   7.964
 2000POPC   C4B27730  24.498   7.993   7.664
 2001POPC   NC327731   6.687  43.918   9.464
 2001POPC   PO427732   6.599  43.840   9.164
 2001POPC   GL127733   6.634  43.856   8.864
 2001POPC   GL227734   6.663  44.058   8.864
 2001POPC   C1A27735   6.624  43.867   8.564
 2001POPC   D2A27736   6.683  43.838   8.264
 2001POPC   C3A27737   6.623  43.883   7.964
 2001POPC   C4A27738   6.677  43.918   7.664
 2001POPC   C1B27739   6.703  44.087   8.564
 2001POPC   C2B27740   6.684  44.159   8.264
 2001POPC   C3B27741   6.642  44.121   7.964
 2001POPC   C4B27742   6.635  44.157   7.664
 2002POPC   NC327743  11.287  19.850   9.464
 2002POPC   PO427744  11.269  19.841   9.164
 2002POPC   GL127745  11.313  19.860   8.864
 2002POPC   GL227746  11.304  19.680   8.864
 2002POPC   C1A27747  11.286  19.794   8.564
 2002POPC   D2A27748  11.258  19.797   8.264
 2002POPC   C3A27749  11.258  19.859   7.964
 2002POPC   C4A27750  11.335  19.848   7.664
 2002POPC   C1B27751  11.305  19.563   8.564
 2002POPC   C2B27752  11.366  19.591   8.264
 2002POPC   C3B27753  11.343  19.614   7.964
 2002POPC   C4B27754  11.355  19.615   7.664
 2003POPC   NC327755  22.121   2.764   9.464
 2003POPC   PO427756  22.188   2.732   9.164
 2003POPC   GL127757  22.192   2.733   8.864
 2003POPC   GL227758  22.060   2.742   8.864
 2003POPC   C1A27759  22.143   2.761   8.564
 2003POPC   D2A27760  22.124   2.814   8.264
 2003POPC   C3A27761  22.159   2.732   7.964
 2003POPC   C4A27762  22.175   2.728   7.664
 2003POPC   C1B27763  21.940   2.693   8.564
 2003POPC   C2B27764  21.958   2.671   8.264
 2003POPC   C3B27765  21.936   2.675   7.964
 2003POPC   C4B27766  21.931   2.669   7.664
 2004POPC   NC327767   1.989  22.889   9.464
 2004POPC   PO427768   1.944  22.916   9.164
 2004POPC   GL127769   1.973  22.961   8.864
 2004POPC   GL227770   1.912  23.053   8.864
 2004POPC   C1A27771   2.017  22.929   8.564
 2004POPC   D2A27772   2.013  22.976   8.264
 2004POPC   C3A27773   2.020  22.929   7.964
 2004POPC   C4A27774   1.980  22.936   7.664
 2004POPC   C1B27775   1.857  23.165   8.564
 2004POPC   C2B27776   1.827  23.163   8.264
 2004POPC   C3B27777   1.827  23.163   7.964
 2004POPC   C4B27778   1.847  23.114   7.664
 2005POPC   NC327779  42.367  39.241   9.464
 2005POPC   PO427780  42.350  39.273   9.164
 2005POPC   GL127781  42.287  39.200   8.864
 2005POPC   GL227782  42.191  39.269   8.864
 2005POPC   C1A27783  42.308  39.226   8.564
 2005POPC   D2A27784  42.320  39.260   8.264
 2005POPC   C3A27785  42.292  39.184   7.964
 2005POPC   C4A27786  42.320  39.254   7.664
 2005POPC   C1B27787  42.066  39.249   8.564
 2005POPC   C2B27788  42.117  39.177   8.264
 2005POPC   C3B27789  42.037  39.254   7.964
 2005POPC   C4B27790  42.079  39.196   7.664
 2006POPC   NC327791  33.781  37.670   9.464
 2006POPC   PO427792  33.788  37.649   9.164
 2006POPC   GL127793  33.802  37.642   8.864
 2006POPC   GL227794  33.652  37.740   8.864
 2006POPC   C1A27795  33.826  37.727   8.564
 2006POPC   D2A27796  33.843  37.729   8.264
 2006POPC   C3A27797  33.787  37.696   7.964
 2006POPC   C4A27798  33.804  37.678   7.664
 2006POPC   C1B27799  33.599  37.802   8.564
 2006POPC   C2B27800  33.549  37.789   8.264
 2006POPC   C3B27801  33.627  37.787   7.964
 2006POPC   C4B27802  33.591  37.847   7.664
 2007POPC   NC327803  29.901  22.888   9.464
 2007POPC   PO427804  29.881  22.895   9.164
 2007POPC   GL127805  29.964  22.891   8.864
 2007POPC   GL227806  29.892  22.831   8.864
 2007POPC   C1A27807  29.933  22.948   8.564
 2007POPC   D2A27808  29.874  22.922   8.264
 2007POPC   C3A27809  29.954  22.924   7.964
 2007POPC   C4A27810  29.950  22.919   7.664
 2007POPC   C1B27811  29.882  22.719   8.564
 2007POPC   C2B27812  29.898  22.644   8.264
 2007POPC   C3B27813  29.848  22.654   7.964
 2007POPC   C4B27814  29.860  22.734   7.664
 2008POPC   NC327815  22.917   1.946   9.464
 2008POPC   PO427816  22.949   1.953   9.164
 2008POPC   GL127817  22.902   1.984   8.864
 2008POPC   GL227818  22.950   2.059   8.864
 2008POPC   C1A27819  22.965   1.973   8.564
 2008POPC   D2A27820  22.978   1.969   8.264
 2008POPC   C3A27821  22.891   1.978   7.964
 2008POPC   C4A27822  22.906   1.945   7.664
 2008POPC   C1B27823  23.049   2.172   8.564
 2008POPC   C2B27824  23.028   2.173   8.264
 2008POPC   C3B27825  23.022   2.224   7.964
 2008POPC   C4B27826  23.072   2.191   7.664
 2009POPC   NC327827  39.983  12.881   9.464
 2009POPC   PO427828  40.028  12.858   9.164
 2009POPC   GL127829  39.966  12.831   8.864
 2009POPC   GL227830  39.858  12.817   8.864
 2009POPC   C1A27831  40.004  12.837   8.564
 2009POPC   D2A27832  40.054  12.859   8.264
 2009POPC   C3A27833  40.040  12.832   7.964
 2009POPC   C4A27834  40.006  12.882   7.664
 2009POPC   C1B27835  39.781  12.751   8.564
 2009POPC   C2B27836  39.741  12.783   8.264
 2009POPC   C3B27837  39.802  12.740   7.964
 2009POPC   C4B27838  39.725  12.786   7.664
 2010POPC   NC327839   4.272  43.839   9.464
 2010POPC   PO427840   4.335  43.893   9.164
 2010POPC   GL127841   4.354  43.865   8.864
 2010POPC   GL227842   4.293  43.803   8.864
 2010POPC   C1A27843   4.276  43.878   8.564
 2010POPC   D2A27844   4.277  43.923   8.264
 2010POPC   C3A27845   4.310  43.877   7.964
 2010POPC   C4A27846   4.338  43.895   7.664
 2010POPC   C1B27847   4.350  43.590   8.564
 2010POPC   C2B27848   4.288  43.628   8.264
 2010POPC   C3B27849   4.371  43.633   7.964
 2010POPC   C4B27850   4.295  43.616   7.664
 2011POPC   NC327851  36.085  27.637   9.464
 2011POPC   PO427852  36.102  27.600   9.164
 2011POPC   GL127853  36.111  27.610   8.864
 2011POPC   GL227854  36.021  27.582   8.864
 2011POPC   C1A27855  36.087  27.571   8.564
 2011POPC   D2A27856  36.085  27.590   8.264
 2011POPC   C3A27857  36.139  27.563   7.964
 2011POPC   C4A27858  36.157  27.640   7.664
 2011POPC   C1B27859  35.872  27.690   8.564
 2011POPC   C2B27860  35.843  27.631   8.264
 2011POPC   C3B27861  35.845  27.618   7.964
 2011POPC   C4B27862  35.894  27.672   7.664
 2012POPC   NC327863  29.143  24.537   9.464
 2012POPC   PO427864  29.139  24.486   9.164
 2012POPC   GL127865  29.105  24.484   8.864
 2012POPC   GL227866  29.044  24.414   8.864
 2012POPC   C1A27867  29.148  24.524   8.564
 2012POPC   D2A27868  29.134  24.521   8.264
 2012POPC   C3A27869  29.173  24.473   7.964
 2012POPC   C4A27870  29.178  24.534   7.664
 2012POPC   C1B27871  28.908  24.324   8.564
 2012POPC   C2B27872  28.908  24.383   8.264
 2012POPC   C3B27873  28.914  24.327   7.964
 2012POPC   C4B27874  28.995  24.340   7.664
 2013POPC   NC327875   6.626  17.499   9.464
 2013POPC   PO427876   6.614  17.541   9.164
 2013POPC   GL127877   6.677  17.538   8.864
 2013POPC   GL227878   6.554  17.580   8.864
 2013POPC   C1A27879   6.607  17.474   8.564
 2013POPC   D2A27880   6.628  17.499   8.264
 2013POPC   C3A27881   6.654  17.531   7.964
 2013POPC   C4A27882   6.608  17.461   7.664
 2013POPC   C1B27883   6.382  17.661   8.564
 2013POPC   C2B27884   6.392  17.579   8.264
 2013POPC   C3B27885   6.380  17.665   7.964
 2013POPC   C4B27886   6.376  17.622   7.664
 2014POPC   NC327887   6.686  43.079   9.464
 2014POPC   PO427888   6.669  43.074   9.164
 2014POPC   GL127889   6.663  43.098   8.864
 2014POPC   GL227890   6.652  43.235   8.864
 2014POPC   C1A27891   6.610  43.158   8.564
 2014POPC   D2A27892   6.604  43.131   8.264
 2014POPC   C3A27893   6.680  43.129   7.964
 2014POPC   C4A27894   6.664  43.118   7.664
 2014POPC   C1B27895   6.767  43.331   8.564
 2014POPC   C2B27896   6.710  43.344   8.264
 2014POPC   C3B27897   6.691  43.355   7.964
 2014POPC   C4B27898   6.740  43.307   7.664
 2015POPC   NC327899  26.051  43.102   9.464
 2015POPC   PO427900  26.072  43.112   9.164
 2015POPC   GL127901  26.070  43.101   8.864
 2015POPC   GL227902  26.155  43.062   8.864
 2015POPC   C1A27903  26.018  43.098   8.564
 2015POPC   D2A27904  26.035  43.129   8.264
 2015POPC   C3A27905  26.046  43.129   7.964
 2015POPC   C4A27906  26.060  43.102   7.664
 2015POPC   C1B27907  26.249  43.153   8.564
 2015POPC   C2B27908  26.265  43.148   8.264
 2015POPC   C3B27909  26.261  43.115   7.964
 2015POPC   C4B27910  26.273  43.147   7.664
 2016POPC   NC327911   7.387  16.000   9.464
 2016POPC   PO427912   7.465  15.936   9.164
 2016POPC   GL127913   7.407  15.958   8.864
 2016POPC   GL227914   7.584  15.897   8.864
 2016POPC   C1A27915   7.429  15.993   8.564
 2016POPC   D2A27916   7.410  15.945   8.264
 2016POPC   C3A27917   7.454  15.928   7.964
 2016POPC   C4A27918   7.426  15.992   7.664
 2016POPC   C1B27919   7.639  15.883   8.564
 2016POPC   C2B27920   7.629  15.871   8.264
 2016POPC   C3B27921   7.691  15.889   7.964
 2016POPC   C4B27922   7.695  15.827   7.664
 2017POPC   NC327923  35.396   2.724   9.464
 2017POPC   PO427924  35.399   2.731   9.164
 2017POPC   GL127925  35.335   2.773   8.864
 2017POPC   GL227926  35.304   2.681   8.864
 2017POPC   C1A27927  35.304   2.758   8.564
 2017POPC   D2A27928  35.401   2.733   8.264
 2017POPC   C3A27929  35.391   2.785   7.964
 2017POPC   C4A27930  35.376   2.740   7.664
 2017POPC   C1B27931  35.265   2.547   8.564
 2017POPC   C2B27932  35.336   2.489   8.264
 2017POPC   C3B27933  35.364   2.519   7.964
 2017POPC   C4B27934  35.296   2.549   7.664
 2018POPC   NC327935  37.680  31.426   9.464
 2018POPC   PO427936  37.699  31.465   9.164
 2018POPC   GL127937  37.652  31.520   8.864
 2018POPC   GL227938  37.609  31.381   8.864
 2018POPC   C1A27939  37.647  31.479   8.564
 2018POPC   D2A27940  37.728  31.484   8.264
 2018POPC   C3A27941  37.697  31.460   7.964
 2018POPC   C4A27942  37.632  31.487   7.664
 2018POPC   C1B27943  37.535  31.225   8.564
 2018POPC   C2B27944  37.581  31.294   8.264
 2018POPC   C3B27945  37.536  31.276   7.964
 2018POPC   C4B27946  37.562  31.240   7.664
 2019POPC   NC327947  30.724   1.262   9.464
 2019POPC   PO427948  30.720   1.241   9.164
 2019POPC   GL127949  30.734   1.253   8.864
 2019POPC   GL227950  30.653   1.109   8.864
 2019POPC   C1A27951  30.669   1.196   8.564
 2019POPC   D2A27952  30.743   1.168   8.264
 2019POPC   C3A27953  30.665   1.199   7.964
 2019POPC   C4A27954  30.678   1.263   7.664
 2019POPC   C1B27955  30.557   1.043   8.564
 2019POPC   C2B27956  30.512   1.013   8.264
 2019POPC   C3B27957  30.512   0.995   7.964
 2019POPC   C4B27958  30.557   1.058   7.664
 2020POPC   NC327959  11.340  29.113   9.464
 2020POPC   PO427960  11.287  29.157   9.164
 2020POPC   GL127961  11.271  29.119   8.864
 2020POPC   GL227962  11.193  29.045   8.864
 2020POPC   C1A27963  11.314  29.126   8.564
 2020POPC   D2A27964  11.267  29.120   8.264
 2020POPC   C3A27965  11.304  29.178   7.964
 2020POPC   C4A27966  11.312  29.106   7.664
 2020POPC   C1B27967  11.106  28.964   8.564
 2020POPC   C2B27968  11.081  28.978   8.264
 2020POPC   C3B27969  11.077  28.968   7.964
 2020POPC   C4B27970  11.130  29.011   7.664
 2021POPC   NC327971   1.957  29.180   9.464
 2021POPC   PO427972   2.015  29.119   9.164
 2021POPC   GL127973   1.982  29.163   8.864
 2021POPC   GL227974   2.142  29.085   8.864
 2021POPC   C1A27975   2.007  29.166   8.564
 2021POPC   D2A27976   1.994  29.141   8.264
 2021POPC   C3A27977   2.025  29.125   7.964
 2021POPC   C4A27978   1.994  29.122   7.664
 2021POPC   C1B27979   2.205  29.131   8.564
 2021POPC   C2B27980   2.215  29.123   8.264
 2021POPC   C3B27981   2.224  29.154   7.964
 2021POPC   C4B27982   2.192  29.154   7.664
 2022POPC   NC327983  29.188   0.402   9.464
 2022POPC   PO427984  29.129   0.428   9.164
 2022POPC   GL127985  29.177   0.469   8.864
 2022POPC   GL227986  29.013   0.440   8.864
 2022POPC   C1A27987  29.180   0.448   8.564
 2022POPC   D2A27988  29.151   0.471   8.264
 2022POPC   C3A27989  29.115   0.480   7.964
 2022POPC   C4A27990  29.143   0.465   7.664
 2022POPC   C1B27991  28.906   0.531   8.564
 2022POPC   C2B27992  28.886   0.499   8.264
 2022POPC   C3B27993  28.892   0.464   7.964
 2022POPC   C4B27994  28.890   0.551   7.664
 2023POPC   NC327995  36.908  33.836   9.464
 2023POPC   PO427996  36.869  33.832   9.164
 2023POPC   GL127997  36.921  33.796   8.864
 2023POPC   GL227998  37.050  33.853   8.864
 2023POPC   C1A27999  36.871  33.823   8.564
 2023POPC   D2A28000  36.933  33.810   8.264
 2023POPC   C3A28001  36.930  33.767   7.964
 2023POPC   C4A28002  36.909  33.795   7.664
 2023POPC   C1B28003  37.114  33.921   8.564
 2023POPC   C2B28004  37.120  33.916   8.264
 2023POPC   C3B28005  37.110  33.945   7.964
 2023POPC   C4B28006  37.110  33.892   7.664
 2024POPC   NC328007  38.500  12.832   9.464
 2024POPC   PO428008  38.444  12.861   9.164
 2024POPC   GL128009  38.480  12.889   8.864
 2024POPC   GL228010  38.346  12.798   8.864
 2024POPC   C1A28011  38.461  12.866   8.564
 2024POPC   D2A28012  38.460  12.838   8.264
 2024POPC   C3A28013  38.444  12.847   7.964
 2024POPC   C4A28014  38.448  12.885   7.664
 2024POPC   C1B28015  38.160  12.817   8.564
 2024POPC   C2B28016  38.236  12.837   8.264
 2024POPC   C3B28017  38.182  12.839   7.964
 2024POPC   C4B28018  38.206  12.785   7.664
 2025POPC   NC328019   1.241   7.457   9.464
 2025POPC   PO428020   1.196   7.450   9.164
 2025POPC   GL128021   1.219   7.442   8.864
 2025POPC   GL228022   1.120   7.341   8.864
 2025POPC   C1A28023   1.228   7.395   8.564
 2025POPC   D2A28024   1.173   7.435   8.264
 2025POPC   C3A28025   1.231   7.371   7.964
 2025POPC   C4A28026   1.197   7.385   7.664
 2025POPC   C1B28027   1.055   7.218   8.564
 2025POPC   C2B28028   1.063   7.261   8.264
 2025POPC   C3B28029   0.988   7.288   7.964
 2025POPC   C4B28030   0.984   7.245   7.664
 2026POPC   NC328031  12.839  43.075   9.464
 2026POPC   PO428032  12.877  43.096   9.164
 2026POPC   GL128033  12.863  43.158   8.864
 2026POPC   GL228034  12.978  43.170   8.864
 2026POPC   C1A28035  12.846  43.110   8.564
 2026POPC   D2A28036  12.867  43.065   8.264
 2026POPC   C3A28037  12.892  43.141   7.964
 2026POPC   C4A28038  12.854  43.144   7.664
 2026POPC   C1B28039  13.079  43.221   8.564
 2026POPC   C2B28040  13.088  43.157   8.264
 2026POPC   C3B28041  13.061  43.232   7.964
 2026POPC   C4B28042  13.071  43.193   7.664
 2027POPC   NC328043  37.702  14.425   9.464
 2027POPC   PO428044  37.670  14.421   9.164
 2027POPC   GL128045  37.651  14.447   8.864
 2027POPC   GL228046  37.623  14.547   8.864
 2027POPC   C1A28047  37.660  14.423   8.564
 2027POPC   D2A28048  37.660  14.354   8.264
 2027POPC   C3A28049  37.655  14.370   7.964
 2027POPC   C4A28050  37.694  14.390   7.664
 2027POPC   C1B28051  37.611  14.651   8.564
 2027POPC   C2B28052  37.604  14.613   8.264
 2027POPC   C3B28053  37.638  14.645   7.964
 2027POPC   C4B28054  37.648  14.653   7.664
 2028POPC   NC328055   9.784  15.925   9.464
 2028POPC   PO428056   9.712  15.925   9.164
 2028POPC   GL128057   9.760  15.928   8.864
 2028POPC   GL228058   9.861  15.854   8.864
 2028POPC   C1A28059   9.713  15.979   8.564
 2028POPC   D2A28060   9.715  15.947   8.264
 2028POPC   C3A28061   9.748  15.943   7.964
 2028POPC   C4A28062   9.756  15.959   7.664
 2028POPC   C1B28063   9.960  15.746   8.564
 2028POPC   C2B28064   9.965  15.744   8.264
 2028POPC   C3B28065   9.887  15.735   7.964
 2028POPC   C4B28066   9.876  15.742   7.664
 2029POPC   NC328067  21.414  15.201   9.464
 2029POPC   PO428068  21.348  15.226   9.164
 2029POPC   GL128069  21.404  15.197   8.864
 2029POPC   GL228070  21.434  15.301   8.864
 2029POPC   C1A28071  21.370  15.142   8.564
 2029POPC   D2A28072  21.347  15.203   8.264
 2029POPC   C3A28073  21.382  15.171   7.964
 2029POPC   C4A28074  21.338  15.166   7.664
 2029POPC   C1B28075  21.346  15.459   8.564
 2029POPC   C2B28076  21.377  15.406   8.264
 2029POPC   C3B28077  21.406  15.449   7.964
 2029POPC   C4B28078  21.356  15.427   7.664
 2030POPC   NC328079  11.315  19.040   9.464
 2030POPC   PO428080  11.284  19.021   9.164
 2030POPC   GL128081  11.274  19.105   8.864
 2030POPC   GL228082  11.220  19.129   8.864
 2030POPC   C1A28083  11.255  19.023   8.564
 2030POPC   D2A28084  11.339  19.046   8.264
 2030POPC   C3A28085  11.262  19.031   7.964
 2030POPC   C4A28086  11.332  19.047   7.664
 2030POPC   C1B28087  11.076  19.070   8.564
 2030POPC   C2B28088  11.064  19.121   8.264
 2030POPC   C3B28089  11.090  19.140   7.964
 2030POPC   C4B28090  11.030  19.082   7.664
 2031POPC   NC328091  19.097   1.982   9.464
 2031POPC   PO428092  19.083   2.034   9.164
 2031POPC   GL128093  19.066   1.967   8.864
 2031POPC   GL228094  19.077   1.903   8.864
 2031POPC   C1A28095  19.010   1.997   8.564
 2031POPC   D2A28096  19.025   2.032   8.264
 2031POPC   C3A28097  19.091   2.020   7.964
 2031POPC   C4A28098  19.022   2.020   7.664
 2031POPC   C1B28099  19.094   1.743   8.564
 2031POPC   C2B28100  19.109   1.752   8.264
 2031POPC   C3B28101  19.065   1.730   7.964
 2031POPC   C4B28102  19.112   1.714   7.664
 2032POPC   NC328103  23.749  14.405   9.464
 2032POPC   PO428104  23.707  14.419   9.164
 2032POPC   GL128105  23.699  14.422   8.864
 2032POPC   GL228106  23.747  14.298   8.864
 2032POPC   C1A28107  23.760  14.408   8.564
 2032POPC   D2A28108  23.749  14.414   8.264
 2032POPC   C3A28109  23.756  14.386   7.964
 2032POPC   C4A28110  23.710  14.406   7.664
 2032POPC   C1B28111  23.818  14.123   8.564
 2032POPC   C2B28112  23.783  14.211   8.264
 2032POPC   C3B28113  23.849  14.181   7.964
 2032POPC   C4B28114  23.797  14.213   7.664
 2033POPC   NC328115  31.464  29.891   9.464
 2033POPC   PO428116  31.463  29.884   9.164
 2033POPC   GL128117  31.510  29.881   8.864
 2033POPC   GL228118  31.587  29.917   8.864
 2033POPC   C1A28119  31.503  29.899   8.564
 2033POPC   D2A28120  31.441  29.945   8.264
 2033POPC   C3A28121  31.456  29.954   7.964
 2033POPC   C4A28122  31.431  29.876   7.664
 2033POPC   C1B28123  31.753  30.048   8.564
 2033POPC   C2B28124  31.749  30.020   8.264
 2033POPC   C3B28125  31.732  30.037   7.964
 2033POPC   C4B28126  31.694  30.043   7.664
 2034POPC   NC328127  26.779  21.337   9.464
 2034POPC   PO428128  26.845  21.400   9.164
 2034POPC   GL128129  26.857  21.410   8.864
 2034POPC   GL228130  26.758  21.289   8.864
 2034POPC   C1A28131  26.768  21.396   8.564
 2034POPC   D2A28132  26.803  21.418   8.264
 2034POPC   C3A28133  26.814  21.370   7.964
 2034POPC   C4A28134  26.826  21.402   7.664
 2034POPC   C1B28135  26.756  21.133   8.564
 2034POPC   C2B28136  26.724  21.202   8.264
 2034POPC   C3B28137  26.738  21.162   7.964
 2034POPC   C4B28138  26.721  21.182   7.664
 2035POPC   NC328139   1.262  31.521   9.464
 2035POPC   PO428140   1.256  31.459   9.164
 2035POPC   GL128141   1.200  31.453   8.864
 2035POPC   GL228142   1.066  31.407   8.864
 2035POPC   C1A28143   1.215  31.488   8.564
 2035POPC   D2A28144   1.204  31.428   8.264
 2035POPC   C3A28145   1.239  31.453   7.964
 2035POPC   C4A28146   1.182  31.486   7.664
 2035POPC   C1B28147   1.014  31.279   8.564
 2035POPC   C2B28148   1.036  31.291   8.264
 2035POPC   C3B28149   1.023  31.304   7.964
 2035POPC   C4B28150   1.054  31.343   7.664
 2036POPC   NC328151  14.354  32.219   9.464
 2036POPC   PO428152  14.410  32.211   9.164
 2036POPC   GL128153  14.449  32.230   8.864
 2036POPC   GL228154  14.551  32.237   8.864
 2036POPC   C1A28155  14.420  32.247   8.564
 2036POPC   D2A28156  14.408  32.220   8.264
 2036POPC   C3A28157  14.420  32.279   7.964
 2036POPC   C4A28158  14.406  32.270   7.664
 2036POPC   C1B28159  14.624  32.190   8.564
 2036POPC   C2B28160  14.690  32.185   8.264
 2036POPC   C3B28161  14.608  32.152   7.964
 2036POPC   C4B28162  14.638  32.140   7.664
 2037POPC   NC328163  28.357  26.835   9.464
 2037POPC   PO428164  28.334  26.776   9.164
 2037POPC   GL128165  28.342  26.811   8.864
 2037POPC   GL228166  28.373  26.720   8.864
 2037POPC   C1A28167  28.417  26.812   8.564
 2037POPC   D2A28168  28.404  26.814   8.264
 2037POPC   C3A28169  28.364  26.806   7.964
 2037POPC   C4A28170  28.381  26.815   7.664
 2037POPC   C1B28171  28.337  26.608   8.564
 2037POPC   C2B28172  28.279  26.598   8.264
 2037POPC   C3B28173  28.267  26.627   7.964
 2037POPC   C4B28174  28.288  26.558   7.664
 2038POPC   NC328175  21.432  36.098   9.464
 2038POPC   PO428176  21.423  36.126   9.164
 2038POPC   GL128177  21.415  36.161   8.864
 2038POPC   GL228178  21.364  36.282   8.864
 2038POPC   C1A28179  21.377  36.164   8.564
 2038POPC   D2A28180  21.409  36.092   8.264
 2038POPC   C3A28181  21.430  36.167   7.964
 2038POPC   C4A28182  21.339  36.099   7.664
 2038POPC   C1B28183  21.361  36.425   8.564
 2038POPC   C2B28184  21.364  36.395   8.264
 2038POPC   C3B28185  21.324  36.337   7.964
 2038POPC   C4B28186  21.414  36.374   7.664
 2039POPC   NC328187   2.730  40.039   9.464
 2039POPC   PO428188   2.802  40.038   9.164
 2039POPC   GL128189   2.756  40.043   8.864
 2039POPC   GL228190   2.878  39.999   8.864
 2039POPC   C1A28191   2.803  39.978   8.564
 2039POPC   D2A28192   2.727  40.041   8.264
 2039POPC   C3A28193   2.731  39.973   7.964
 2039POPC   C4A28194   2.777  39.961   7.664
 2039POPC   C1B28195   3.017  39.936   8.564
 2039POPC   C2B28196   3.009  39.900   8.264
 2039POPC   C3B28197   2.952  39.914   7.964
 2039POPC   C4B28198   3.039  39.888   7.664
 2040POPC   NC328199  13.635  31.433   9.464
 2040POPC   PO428200  13.602  31.487   9.164
 2040POPC   GL128201  13.600  31.467   8.864
 2040POPC   GL228202  13.540  31.557   8.864
 2040POPC   C1A28203  13.580  31.498   8.564
 2040POPC   D2A28204  13.628  31.466   8.264
 2040POPC   C3A28205  13.661  31.495   7.964
 2040POPC   C4A28206  13.664  31.452   7.664
 2040POPC   C1B28207  13.392  31.610   8.564
 2040POPC   C2B28208  13.442  31.581   8.264
 2040POPC   C3B28209  13.362  31.541   7.964
 2040POPC   C4B28210  13.415  31.519   7.664
 2041POPC   NC328211   9.703  19.096   9.464
 2041POPC   PO428212   9.720  19.011   9.164
 2041POPC   GL128213   9.760  19.010   8.864
 2041POPC   GL228214   9.610  19.060   8.864
 2041POPC   C1A28215   9.716  19.055   8.564
 2041POPC   D2A28216   9.777  19.098   8.264
 2041POPC   C3A28217   9.720  19.030   7.964
 2041POPC   C4A28218   9.758  19.095   7.664
 2041POPC   C1B28219   9.545  19.094   8.564
 2041POPC   C2B28220   9.493  19.143   8.264
 2041POPC   C3B28221   9.479  19.161   7.964
 2041POPC   C4B28222   9.519  19.115   7.664
 2042POPC   NC328223  29.898   6.628   9.464
 2042POPC   PO428224  29.881   6.639   9.164
 2042POPC   GL128225  29.959   6.652   8.864
 2042POPC   GL228226  29.994   6.678   8.864
 2042POPC   C1A28227  29.874   6.617   8.564
 2042POPC   D2A28228  29.884   6.597   8.264
 2042POPC   C3A28229  29.891   6.683   7.964
 2042POPC   C4A28230  29.922   6.692   7.664
 2042POPC   C1B28231  30.155   6.768   8.564
 2042POPC   C2B28232  30.132   6.736   8.264
 2042POPC   C3B28233  30.189   6.721   7.964
 2042POPC   C4B28234  30.138   6.760   7.664
 2043POPC   NC328235  15.153  22.900   9.464
 2043POPC   PO428236  15.205  22.963   9.164
 2043POPC   GL128237  15.197  22.961   8.864
 2043POPC   GL228238  15.053  22.970   8.864
 2043POPC   C1A28239  15.181  22.956   8.564
 2043POPC   D2A28240  15.211  22.935   8.264
 2043POPC   C3A28241  15.153  22.957   7.964
 2043POPC   C4A28242  15.166  22.968   7.664
 2043POPC   C1B28243  14.926  23.068   8.564
 2043POPC   C2B28244  14.918  23.012   8.264
 2043POPC   C3B28245  14.906  22.981   7.964
 2043POPC   C4B28246  14.969  23.025   7.664
 2044POPC   NC328247  32.228  15.948   9.464
 2044POPC   PO428248  32.280  16.000   9.164
 2044POPC   GL128249  32.216  15.916   8.864
 2044POPC   GL228250  32.172  15.999   8.864
 2044POPC   C1A28251  32.294  15.942   8.564
 2044POPC   D2A28252  32.293  15.983   8.264
 2044POPC   C3A28253  32.222  15.926   7.964
 2044POPC   C4A28254  32.261  15.991   7.664
 2044POPC   C1B28255  32.048  16.060   8.564
 2044POPC   C2B28256  32.055  16.062   8.264
 2044POPC   C3B28257  32.049  16.039   7.964
 2044POPC   C4B28258  31.996  16.071   7.664
 2045POPC   NC328259   0.464  43.088   9.464
 2045POPC   PO428260   0.396  43.123   9.164
 2045POPC   GL128261   0.423  43.105   8.864
 2045POPC   GL228262   0.403  43.004   8.864
 2045POPC   C1A28263   0.469  43.143   8.564
 2045POPC   D2A28264   0.449  43.123   8.264
 2045POPC   C3A28265   0.434  43.107   7.964
 2045POPC   C4A28266   0.426  43.073   7.664
 2045POPC   C1B28267   0.409  42.858   8.564
 2045POPC   C2B28268   0.426  42.874   8.264
 2045POPC   C3B28269   0.423  42.867   7.964
 2045POPC   C4B28270   0.411  42.816   7.664
 2046POPC   NC328271  13.596   1.996   9.464
 2046POPC   PO428272  13.636   1.994   9.164
 2046POPC   GL128273  13.604   2.003   8.864
 2046POPC   GL228274  13.637   1.853   8.864
 2046POPC   C1A28275  13.578   1.967   8.564
 2046POPC   D2A28276  13.650   1.984   8.264
 2046POPC   C3A28277  13.619   2.032   7.964
 2046POPC   C4A28278  13.663   1.991   7.664
 2046POPC   C1B28279  13.692   1.793   8.564
 2046POPC   C2B28280  13.745   1.740   8.264
 2046POPC   C3B28281  13.681   1.749   7.964
 2046POPC   C4B28282  13.713   1.711   7.664
 2047POPC   NC328283   8.193   8.171   9.464
 2047POPC   PO428284   8.190   8.169   9.164
 2047POPC   GL128285   8.160   8.168   8.864
 2047POPC   GL228286   8.128   8.273   8.864
 2047POPC   C1A28287   8.167   8.148   8.564
 2047POPC   D2A28288   8.223   8.183   8.264
 2047POPC   C3A28289   8.223   8.161   7.964
 2047POPC   C4A28290   8.233   8.166   7.664
 2047POPC   C1B28291   8.071   8.410   8.564
 2047POPC   C2B28292   8.081   8.434   8.264
 2047POPC   C3B28293   8.081   8.392   7.964
 2047POPC   C4B28294   8.101   8.409   7.664
 2048POPC   NC328295  35.321  44.624   9.464
 2048POPC   PO428296  35.375  44.615   9.164
 2048POPC   GL128297  35.320  44.683   8.864
 2048POPC   GL228298  35.450  44.712   8.864
 2048POPC   C1A28299  35.340  44.661   8.564
 2048POPC   D2A28300  35.306  44.653   8.264
 2048POPC   C3A28301  35.365  44.709   7.964
 2048POPC   C4A28302  35.400  44.696   7.664
 2048POPC   C1B28303  35.551  44.745   8.564
 2048POPC   C2B28304  35.612  44.736   8.264
 2048POPC   C3B28305  35.585  44.712   7.964
 2048POPC   C4B28306  35.596  44.756   7.664
 2049POPC   NC328307  19.843  22.134   9.464
 2049POPC   PO428308  19.796  22.186   9.164
 2049POPC   GL128309  19.866  22.195   8.864
 2049POPC   GL228310  19.910  22.249   8.864
 2049POPC   C1A28311  19.818  22.130   8.564
 2049POPC   D2A28312  19.837  22.145   8.264
 2049POPC   C3A28313  19.878  22.203   7.964
 2049POPC   C4A28314  19.856  22.117   7.664
 2049POPC   C1B28315  20.068  22.233   8.564
 2049POPC   C2B28316  20.103  22.295   8.264
 2049POPC   C3B28317  20.111  22.255   7.964
 2049POPC   C4B28318  20.050  22.309   7.664
 2050POPC   NC328319   5.856  33.801   9.464
 2050POPC   PO428320   5.828  33.752   9.164
 2050POPC   GL128321   5.888  33.757   8.864
 2050POPC   GL228322   5.821  33.628   8.864
 2050POPC   C1A28323   5.878  33.783   8.564
 2050POPC   D2A28324   5.875  33.754   8.264
 2050POPC   C3A28325   5.909  33.816   7.964
 2050POPC   C4A28326   5.825  33.814   7.664
 2050POPC   C1B28327   5.839  33.539   8.564
 2050POPC   C2B28328   5.862  33.589   8.264
 2050POPC   C3B28329   5.886  33.548   7.964
 2050POPC   C4B28330   5.837  33.510   7.664
 2051POPC   NC328331  36.158  40.037   9.464
 2051POPC   PO428332  36.111  40.013   9.164
 2051POPC   GL128333  36.140  40.002   8.864
 2051POPC   GL228334  36.213  39.921   8.864
 2051POPC   C1A28335  36.151  39.982   8.564
 2051POPC   D2A28336  36.111  39.998   8.264
 2051POPC   C3A28337  36.101  39.970   7.964
 2051POPC   C4A28338  36.080  40.029   7.664
 2051POPC   C1B28339  36.329  39.834   8.564
 2051POPC   C2B28340  36.232  39.833   8.264
 2051POPC   C3B28341  36.258  39.792   7.964
 2051POPC   C4B28342  36.256  39.819   7.664
 2052POPC   NC328343  39.250   4.360   9.464
 2052POPC   PO428344  39.223   4.331   9.164
 2052POPC   GL128345  39.272   4.294   8.864
 2052POPC   GL228346  39.344   4.442   8.864
 2052POPC   C1A28347  39.221   4.366   8.564
 2052POPC   D2A28348  39.233   4.348   8.264
 2052POPC   C3A28349  39.239   4.276   7.964
 2052POPC   C4A28350  39.265   4.270   7.664
 2052POPC   C1B28351  39.362   4.492   8.564
 2052POPC   C2B28352  39.312   4.569   8.264
 2052POPC   C3B28353  39.351   4.534   7.964
 2052POPC   C4B28354  39.374   4.533   7.664
 2053POPC   NC328355  12.883  44.655   9.464
 2053POPC   PO428356  12.864  44.700   9.164
 2053POPC   GL128357  12.826  44.691   8.864
 2053POPC   GL228358  12.941  44.656   8.864
 2053POPC   C1A28359  12.849  44.658   8.564
 2053POPC   D2A28360  12.826  44.639   8.264
 2053POPC   C3A28361  12.848  44.701   7.964
 2053POPC   C4A28362  12.854  44.711   7.664
 2053POPC   C1B28363  13.121  44.559   8.564
 2053POPC   C2B28364  13.129  44.588   8.264
 2053POPC   C3B28365  13.064  44.588   7.964
 2053POPC   C4B28366  13.142  44.605   7.664
 2054POPC   NC328367  13.676   0.449   9.464
 2054POPC   PO428368  13.667   0.415   9.164
 2054POPC   GL128369  13.581   0.487   8.864
 2054POPC   GL228370  13.614   0.308   8.864
 2054POPC   C1A28371  13.587   0.436   8.564
 2054POPC   D2A28372  13.659   0.407   8.264
 2054POPC   C3A28373  13.589   0.427   7.964
 2054POPC   C4A28374  13.581   0.454   7.664
 2054POPC   C1B28375  13.487   0.175   8.564
 2054POPC   C2B28376  13.487   0.166   8.264
 2054POPC   C3B28377  13.562   0.255   7.964
 2054POPC   C4B28378  13.556   0.186   7.664
 2055POPC   NC328379  15.960   4.355   9.464
 2055POPC   PO428380  15.972   4.328   9.164
 2055POPC   GL128381  15.956   4.330   8.864
 2055POPC   GL228382  15.983   4.171   8.864
 2055POPC   C1A28383  15.936   4.336   8.564
 2055POPC   D2A28384  15.989   4.365   8.264
 2055POPC   C3A28385  15.916   4.278   7.964
 2055POPC   C4A28386  15.976   4.271   7.664
 2055POPC   C1B28387  15.988   4.063   8.564
 2055POPC   C2B28388  15.994   4.032   8.264
 2055POPC   C3B28389  15.936   4.095   7.964
 2055POPC   C4B28390  15.998   4.034   7.664
 2056POPC   NC328391  25.995  36.890   9.464
 2056POPC   PO428392  26.021  36.866   9.164
 2056POPC   GL128393  26.013  36.881   8.864
 2056POPC   GL228394  26.046  36.795   8.864
 2056POPC   C1A28395  26.053  36.899   8.564
 2056POPC   D2A28396  26.063  36.916   8.264
 2056POPC   C3A28397  26.002  36.930   7.964
 2056POPC   C4A28398  26.056  36.872   7.664
 2056POPC   C1B28399  26.104  36.608   8.564
 2056POPC   C2B28400  26.043  36.699   8.264
 2056POPC   C3B28401  26.056  36.627   7.964
 2056POPC   C4B28402  26.083  36.669   7.664
 2057POPC   NC328403   1.228  37.672   9.464
 2057POPC   PO428404   1.181  37.722   9.164
 2057POPC   GL128405   1.211  37.642   8.864
 2057POPC   GL228406   1.130  37.582   8.864
 2057POPC   C1A28407   1.195  37.680   8.564
 2057POPC   D2A28408   1.182  37.725   8.264
 2057POPC   C3A28409   1.213  37.715   7.964
 2057POPC   C4A28410   1.249  37.719   7.664
 2057POPC   C1B28411   1.045  37.452   8.564
 2057POPC   C2B28412   1.130  37.430   8.264
 2057POPC   C3B28413   1.125  37.466   7.964
 2057POPC   C4B28414   1.094  37.441   7.664
 2058POPC   NC328415  31.459   5.121   9.464
 2058POPC   PO428416  31.502   5.123   9.164
 2058POPC   GL128417  31.491   5.118   8.864
 2058POPC   GL228418  31.559   5.054   8.864
 2058POPC   C1A28419  31.449   5.102   8.564
 2058POPC   D2A28420  31.478   5.118   8.264
 2058POPC   C3A28421  31.521   5.102   7.964
 2058POPC   C4A28422  31.511   5.117   7.664
 2058POPC   C1B28423  31.706   5.035   8.564
 2058POPC   C2B28424  31.653   4.950   8.264
 2058POPC   C3B28425  31.691   4.998   7.964
 2058POPC   C4B28426  31.704   4.970   7.664
 2059POPC   NC328427  16.754  18.233   9.464
 2059POPC   PO428428  16.701  18.302   9.164
 2059POPC   GL128429  16.779  18.250   8.864
 2059POPC   GL228430  16.817  18.451   8.864
 2059POPC   C1A28431  16.687  18.281   8.564
 2059POPC   D2A28432  16.728  18.279   8.264
 2059POPC   C3A28433  16.751  18.283   7.964
 2059POPC   C4A28434  16.749  18.305   7.664
 2059POPC   C1B28435  16.788  18.496   8.564
 2059POPC   C2B28436  16.839  18.565   8.264
 2059POPC   C3B28437  16.803  18.555   7.964
 2059POPC   C4B28438  16.822  18.561   7.664
 2060POPC   NC328439   4.268   7.451   9.464
 2060POPC   PO428440   4.334   7.375   9.164
 2060POPC   GL128441   4.306   7.427   8.864
 2060POPC   GL228442   4.246   7.320   8.864
 2060POPC   C1A28443   4.323   7.392   8.564
 2060POPC   D2A28444   4.285   7.465   8.264
 2060POPC   C3A28445   4.310   7.411   7.964
 2060POPC   C4A28446   4.284   7.433   7.664
 2060POPC   C1B28447   4.163   7.270   8.564
 2060POPC   C2B28448   4.110   7.254   8.264
 2060POPC   C3B28449   4.118   7.211   7.964
 2060POPC   C4B28450   4.190   7.234   7.664
 2061POPC   NC328451   6.627  36.903   9.464
 2061POPC   PO428452   6.642  36.922   9.164
 2061POPC   GL128453   6.660  36.950   8.864
 2061POPC   GL228454   6.546  36.943   8.864
 2061POPC   C1A28455   6.658  36.906   8.564
 2061POPC   D2A28456   6.637  36.872   8.264
 2061POPC   C3A28457   6.608  36.876   7.964
 2061POPC   C4A28458   6.612  36.901   7.664
 2061POPC   C1B28459   6.409  36.858   8.564
 2061POPC   C2B28460   6.441  36.899   8.264
 2061POPC   C3B28461   6.421  36.933   7.964
 2061POPC   C4B28462   6.360  36.905   7.664
 2062POPC   NC328463  38.473  14.396   9.464
 2062POPC   PO428464  38.457  14.415   9.164
 2062POPC   GL128465  38.406  14.425   8.864
 2062POPC   GL228466  38.376  14.316   8.864
 2062POPC   C1A28467  38.469  14.407   8.564
 2062POPC   D2A28468  38.464  14.396   8.264
 2062POPC   C3A28469  38.415  14.389   7.964
 2062POPC   C4A28470  38.504  14.361   7.664
 2062POPC   C1B28471  38.344  14.175   8.564
 2062POPC   C2B28472  38.362  14.177   8.264
 2062POPC   C3B28473  38.380  14.183   7.964
 2062POPC   C4B28474  38.369  14.188   7.664
 2063POPC   NC328475  22.892  40.005   9.464
 2063POPC   PO428476  22.916  39.962   9.164
 2063POPC   GL128477  22.929  39.992   8.864
 2063POPC   GL228478  23.066  39.975   8.864
 2063POPC   C1A28479  22.914  40.029   8.564
 2063POPC   D2A28480  22.944  39.966   8.264
 2063POPC   C3A28481  22.934  40.026   7.964
 2063POPC   C4A28482  22.978  40.052   7.664
 2063POPC   C1B28483  23.177  40.008   8.564
 2063POPC   C2B28484  23.175  40.017   8.264
 2063POPC   C3B28485  23.218  40.015   7.964
 2063POPC   C4B28486  23.236  40.049   7.664
 2064POPC   NC328487   8.201   0.434   9.464
 2064POPC   PO428488   8.166   0.398   9.164
 2064POPC   GL128489   8.217   0.430   8.864
 2064POPC   GL228490   8.124   0.539   8.864
 2064POPC   C1A28491   8.239   0.458   8.564
 2064POPC   D2A28492   8.228   0.459   8.264
 2064POPC   C3A28493   8.149   0.462   7.964
 2064POPC   C4A28494   8.204   0.484   7.664
 2064POPC   C1B28495   8.038   0.604   8.564
 2064POPC   C2B28496   8.053   0.624   8.264
 2064POPC   C3B28497   8.063   0.604   7.964
 2064POPC   C4B28498   8.089   0.604   7.664
 2065POPC   NC328499  43.142  29.906   9.464
 2065POPC   PO428500  43.118  29.916   9.164
 2065POPC   GL128501  43.073  29.953   8.864
 2065POPC   GL228502  43.065  29.826   8.864
 2065POPC   C1A28503  43.140  29.946   8.564
 2065POPC   D2A28504  43.062  29.965   8.264
 2065POPC   C3A28505  43.108  29.907   7.964
 2065POPC   C4A28506  43.061  29.914   7.664
 2065POPC   C1B28507  42.999  29.685   8.564
 2065POPC   C2B28508  43.002  29.663   8.264
 2065POPC   C3B28509  42.962  29.697   7.964
 2065POPC   C4B28510  43.020  29.707   7.664
 2066POPC   NC328511  41.570  19.030   9.464
 2066POPC   PO428512  41.528  19.048   9.164
 2066POPC   GL128513  41.563  19.022   8.864
 2066POPC   GL228514  41.544  19.187   8.864
 2066POPC   C1A28515  41.601  19.070   8.564
 2066POPC   D2A28516  41.521  19.073   8.264
 2066POPC   C3A28517  41.541  19.099   7.964
 2066POPC   C4A28518  41.554  19.095   7.664
 2066POPC   C1B28519  41.565  19.348   8.564
 2066POPC   C2B28520  41.612  19.278   8.264
 2066POPC   C3B28521  41.596  19.321   7.964
 2066POPC   C4B28522  41.533  19.290   7.664
 2067POPC   NC328523  22.123   9.794   9.464
 2067POPC   PO428524  22.211   9.783   9.164
 2067POPC   GL128525  22.201   9.782   8.864
 2067POPC   GL228526  22.213   9.824   8.864
 2067POPC   C1A28527  22.203   9.756   8.564
 2067POPC   D2A28528  22.146   9.702   8.264
 2067POPC   C3A28529  22.117   9.735   7.964
 2067POPC   C4A28530  22.167   9.728   7.664
 2067POPC   C1B28531  22.327   9.961   8.564
 2067POPC   C2B28532  22.323   9.972   8.264
 2067POPC   C3B28533  22.269   9.965   7.964
 2067POPC   C4B28534  22.282   9.952   7.664
 2068POPC   NC328535  16.707  35.393   9.464
 2068POPC   PO428536  16.696  35.364   9.164
 2068POPC   GL128537  16.780  35.324   8.864
 2068POPC   GL228538  16.653  35.317   8.864
 2068POPC   C1A28539  16.747  35.347   8.564
 2068POPC   D2A28540  16.716  35.344   8.264
 2068POPC   C3A28541  16.774  35.365   7.964
 2068POPC   C4A28542  16.690  35.331   7.664
 2068POPC   C1B28543  16.512  35.346   8.564
 2068POPC   C2B28544  16.472  35.311   8.264
 2068POPC   C3B28545  16.490  35.301   7.964
 2068POPC   C4B28546  16.515  35.307   7.664
 2069POPC   NC328547  22.985  44.616   9.464
 2069POPC   PO428548  22.979  44.689   9.164
 2069POPC   GL128549  22.911  44.674   8.864
 2069POPC   GL228550  22.967  44.793   8.864
 2069POPC   C1A28551  22.913  44.701   8.564
 2069POPC   D2A28552  22.961  44.625   8.264
 2069POPC   C3A28553  22.942  44.700   7.964
 2069POPC   C4A28554  22.901  44.676   7.664
 2069POPC   C1B28555  22.899  44.894   8.564
 2069POPC   C2B28556  22.904  44.919   8.264
 2069POPC   C3B28557  22.949  44.905   7.964
 2069POPC   C4B28558  22.934  44.948   7.664
 2070POPC   NC328559  40.808   5.903   9.464
 2070POPC   PO428560  40.802   5.901   9.164
 2070POPC   GL128561  40.818   5.887   8.864
 2070POPC   GL228562  40.798   5.960   8.864
 2070POPC   C1A28563  40.828   5.856   8.564
 2070POPC   D2A28564  40.806   5.902   8.264
 2070POPC   C3A28565  40.814   5.891   7.964
 2070POPC   C4A28566  40.810   5.891   7.664
 2070POPC   C1B28567  40.722   6.118   8.564
 2070POPC   C2B28568  40.789   6.120   8.264
 2070POPC   C3B28569  40.754   6.083   7.964
 2070POPC   C4B28570  40.717   6.072   7.664
 2071POPC   NC328571  43.121  30.719   9.464
 2071POPC   PO428572  43.144  30.676   9.164
 2071POPC   GL128573  43.147  30.685   8.864
 2071POPC   GL228574  43.249  30.666   8.864
 2071POPC   C1A28575  43.145  30.689   8.564
 2071POPC   D2A28576  43.153  30.701   8.264
 2071POPC   C3A28577  43.090  30.722   7.964
 2071POPC   C4A28578  43.101  30.652   7.664
 2071POPC   C1B28579  43.371  30.624   8.564
 2071POPC   C2B28580  43.312  30.674   8.264
 2071POPC   C3B28581  43.385  30.707   7.964
 2071POPC   C4B28582  43.370  30.652   7.664
 2072POPC   NC328583  28.329  28.353   9.464
 2072POPC   PO428584  28.353  28.364   9.164
 2072POPC   GL128585  28.402  28.408   8.864
 2072POPC   GL228586  28.269  28.283   8.864
 2072POPC   C1A28587  28.413  28.417   8.564
 2072POPC   D2A28588  28.352  28.327   8.264
 2072POPC   C3A28589  28.400  28.401   7.964
 2072POPC   C4A28590  28.369  28.330   7.664
 2072POPC   C1B28591  28.134  28.251   8.564
 2072POPC   C2B28592  28.113  28.264   8.264
 2072POPC   C3B28593  28.104  28.236   7.964
 2072POPC   C4B28594  28.151  28.249   7.664
 2073POPC   NC328595   4.359   2.760   9.464
 2073POPC   PO428596   4.322   2.802   9.164
 2073POPC   GL128597   4.299   2.763   8.864
 2073POPC   GL228598   4.165   2.689   8.864
 2073POPC   C1A28599   4.279   2.815   8.564
 2073POPC   D2A28600   4.309   2.781   8.264
 2073POPC   C3A28601   4.350   2.783   7.964
 2073POPC   C4A28602   4.305   2.789   7.664
 2073POPC   C1B28603   4.091   2.679   8.564
 2073POPC   C2B28604   4.038   2.663   8.264
 2073POPC   C3B28605   4.061   2.747   7.964
 2073POPC   C4B28606   4.037   2.663   7.664
 2074POPC   NC328607  11.300  12.074   9.464
 2074POPC   PO428608  11.346  12.112   9.164
 2074POPC   GL128609  11.265  12.077   8.864
 2074POPC   GL228610  11.189  12.053   8.864
 2074POPC   C1A28611  11.330  12.092   8.564
 2074POPC   D2A28612  11.280  12.104   8.264
 2074POPC   C3A28613  11.271  12.088   7.964
 2074POPC   C4A28614  11.318  12.090   7.664
 2074POPC   C1B28615  11.001  12.114   8.564
 2074POPC   C2B28616  11.003  12.078   8.264
 2074POPC   C3B28617  11.058  12.080   7.964
 2074POPC   C4B28618  11.057  12.061   7.664
 2075POPC   NC328619  10.569  16.710   9.464
 2075POPC   PO428620  10.570  16.716   9.164
 2075POPC   GL128621  10.497  16.754   8.864
 2075POPC   GL228622  10.489  16.616   8.864
 2075POPC   C1A28623  10.526  16.779   8.564
 2075POPC   D2A28624  10.559  16.748   8.264
 2075POPC   C3A28625  10.568  16.773   7.964
 2075POPC   C4A28626  10.513  16.766   7.664
 2075POPC   C1B28627  10.419  16.513   8.564
 2075POPC   C2B28628  10.464  16.477   8.264
 2075POPC   C3B28629  10.451  16.461   7.964
 2075POPC   C4B28630  10.402  16.500   7.664
 2076POPC   NC328631   0.409   4.344   9.464
 2076POPC   PO428632   0.418   4.313   9.164
 2076POPC   GL128633   0.419   4.306   8.864
 2076POPC   GL228634   0.299   4.367   8.864
 2076POPC   C1A28635   0.414   4.352   8.564
 2076POPC   D2A28636   0.433   4.348   8.264
 2076POPC   C3A28637   0.484   4.268   7.964
 2076POPC   C4A28638   0.485   4.333   7.664
 2076POPC   C1B28639   0.210   4.429   8.564
 2076POPC   C2B28640   0.264   4.425   8.264
 2076POPC   C3B28641   0.231   4.479   7.964
 2076POPC   C4B28642   0.285   4.491   7.664
 2077POPC   NC328643  29.916  39.232   9.464
 2077POPC   PO428644  29.938  39.190   9.164
 2077POPC   GL128645  29.968  39.202   8.864
 2077POPC   GL228646  30.035  39.358   8.864
 2077POPC   C1A28647  29.929  39.258   8.564
 2077POPC   D2A28648  29.901  39.259   8.264
 2077POPC   C3A28649  29.954  39.220   7.964
 2077POPC   C4A28650  29.901  39.208   7.664
 2077POPC   C1B28651  30.105  39.477   8.564
 2077POPC   C2B28652  30.071  39.447   8.264
 2077POPC   C3B28653  30.119  39.453   7.964
 2077POPC   C4B28654  30.096  39.455   7.664
 2078POPC   NC328655  34.581  15.988   9.464
 2078POPC   PO428656  34.529  15.913   9.164
 2078POPC   GL128657  34.536  15.910   8.864
 2078POPC   GL228658  34.612  16.077   8.864
 2078POPC   C1A28659  34.596  15.918   8.564
 2078POPC   D2A28660  34.557  15.908   8.264
 2078POPC   C3A28661  34.536  15.965   7.964
 2078POPC   C4A28662  34.590  15.992   7.664
 2078POPC   C1B28663  34.612  16.216   8.564
 2078POPC   C2B28664  34.625  16.192   8.264
 2078POPC   C3B28665  34.662  16.184   7.964
 2078POPC   C4B28666  34.604  16.209   7.664
 2079POPC   NC328667  43.143  41.593   9.464
 2079POPC   PO428668  43.094  41.562   9.164
 2079POPC   GL128669  43.081  41.525   8.864
 2079POPC   GL228670  43.185  41.660   8.864
 2079POPC   C1A28671  43.068  41.562   8.564
 2079POPC   D2A28672  43.141  41.550   8.264
 2079POPC   C3A28673  43.061  41.510   7.964
 2079POPC   C4A28674  43.117  41.602   7.664
 2079POPC   C1B28675  43.293  41.760   8.564
 2079POPC   C2B28676  43.246  41.780   8.264
 2079POPC   C3B28677  43.228  41.720   7.964
 2079POPC   C4B28678  43.307  41.721   7.664
 2080POPC   NC328679  23.671  32.287   9.464
 2080POPC   PO428680  23.732  32.238   9.164
 2080POPC   GL128681  23.690  32.265   8.864
 2080POPC   GL228682  23.768  32.089   8.864
 2080POPC   C1A28683  23.721  32.287   8.564
 2080POPC   D2A28684  23.739  32.228   8.264
 2080POPC   C3A28685  23.676  32.204   7.964
 2080POPC   C4A28686  23.722  32.272   7.664
 2080POPC   C1B28687  23.798  32.031   8.564
 2080POPC   C2B28688  23.758  32.048   8.264
 2080POPC   C3B28689  23.795  32.027   7.964
 2080POPC   C4B28690  23.706  32.009   7.664
 2081POPC   NC328691   7.459  17.549   9.464
 2081POPC   PO428692   7.448  17.465   9.164
 2081POPC   GL128693   7.390  17.467   8.864
 2081POPC   GL228694   7.494  17.604   8.864
 2081POPC   C1A28695   7.418  17.503   8.564
 2081POPC   D2A28696   7.424  17.513   8.264
 2081POPC   C3A28697   7.423  17.505   7.964
 2081POPC   C4A28698   7.390  17.468   7.664
 2081POPC   C1B28699   7.501  17.710   8.564
 2081POPC   C2B28700   7.501  17.740   8.264
 2081POPC   C3B28701   7.454  17.766   7.964
 2081POPC   C4B28702   7.472  17.799   7.664
 2082POPC   NC328703  15.159  21.357   9.464
 2082POPC   PO428704  15.135  21.397   9.164
 2082POPC   GL128705  15.192  21.372   8.864
 2082POPC   GL228706  15.346  21.455   8.864
 2082POPC   C1A28707  15.148  21.349   8.564
 2082POPC   D2A28708  15.225  21.412   8.264
 2082POPC   C3A28709  15.131  21.384   7.964
 2082POPC   C4A28710  15.206  21.356   7.664
 2082POPC   C1B28711  15.461  21.425   8.564
 2082POPC   C2B28712  15.391  21.407   8.264
 2082POPC   C3B28713  15.446  21.402   7.964
 2082POPC   C4B28714  15.425  21.422   7.664
 2083POPC   NC328715   2.788  12.029   9.464
 2083POPC   PO428716   2.785  12.096   9.164
 2083POPC   GL128717   2.735  12.075   8.864
 2083POPC   GL228718   2.723  11.938   8.864
 2083POPC   C1A28719   2.722  12.053   8.564
 2083POPC   D2A28720   2.798  12.107   8.264
 2083POPC   C3A28721   2.757  12.112   7.964
 2083POPC   C4A28722   2.781  12.061   7.664
 2083POPC   C1B28723   2.818  11.790   8.564
 2083POPC   C2B28724   2.748  11.778   8.264
 2083POPC   C3B28725   2.781  11.830   7.964
 2083POPC   C4B28726   2.750  11.800   7.664
 2084POPC   NC328727  27.554   9.795   9.464
 2084POPC   PO428728  27.563   9.731   9.164
 2084POPC   GL128729  27.605   9.798   8.864
 2084POPC   GL228730  27.488   9.784   8.864
 2084POPC   C1A28731  27.561   9.731   8.564
 2084POPC   D2A28732  27.628   9.736   8.264
 2084POPC   C3A28733  27.583   9.777   7.964
 2084POPC   C4A28734  27.594   9.765   7.664
 2084POPC   C1B28735  27.301   9.726   8.564
 2084POPC   C2B28736  27.306   9.746   8.264
 2084POPC   C3B28737  27.354   9.740   7.964
 2084POPC   C4B28738  27.303   9.754   7.664
 2085POPC   NC328739  25.234  33.039   9.464
 2085POPC   PO428740  25.240  33.059   9.164
 2085POPC   GL128741  25.283  33.040   8.864
 2085POPC   GL228742  25.155  32.876   8.864
 2085POPC   C1A28743  25.286  33.067   8.564
 2085POPC   D2A28744  25.263  33.018   8.264
 2085POPC   C3A28745  25.272  32.994   7.964
 2085POPC   C4A28746  25.253  32.977   7.664
 2085POPC   C1B28747  25.141  32.833   8.564
 2085POPC   C2B28748  25.132  32.821   8.264
 2085POPC   C3B28749  25.171  32.821   7.964
 2085POPC   C4B28750  25.149  32.784   7.664
 2086POPC   NC328751  43.911  22.966   9.464
 2086POPC   PO428752  43.902  22.952   9.164
 2086POPC   GL128753  43.852  22.943   8.864
 2086POPC   GL228754  43.970  22.947   8.864
 2086POPC   C1A28755  43.890  22.980   8.564
 2086POPC   D2A28756  43.848  22.914   8.264
 2086POPC   C3A28757  43.925  22.920   7.964
 2086POPC   C4A28758  43.893  22.945   7.664
 2086POPC   C1B28759  44.099  23.008   8.564
 2086POPC   C2B28760  44.112  23.052   8.264
 2086POPC   C3B28761  44.099  23.025   7.964
 2086POPC   C4B28762  44.145  23.066   7.664
 2087POPC   NC328763  32.238  18.273   9.464
 2087POPC   PO428764  32.267  18.287   9.164
 2087POPC   GL128765  32.252  18.245   8.864
 2087POPC   GL228766  32.231  18.425   8.864
 2087POPC   C1A28767  32.298  18.325   8.564
 2087POPC   D2A28768  32.226  18.257   8.264
 2087POPC   C3A28769  32.233  18.296   7.964
 2087POPC   C4A28770  32.264  18.270   7.664
 2087POPC   C1B28771  32.295  18.539   8.564
 2087POPC   C2B28772  32.309  18.574   8.264
 2087POPC   C3B28773  32.269  18.562   7.964
 2087POPC   C4B28774  32.305  18.536   7.664
 2088POPC   NC328775  10.557  42.288   9.464
 2088POPC   PO428776  10.508  42.324   9.164
 2088POPC   GL128777  10.490  42.341   8.864
 2088POPC   GL228778  10.600  42.500   8.864
 2088POPC   C1A28779  10.504  42.328   8.564
 2088POPC   D2A28780  10.533  42.313   8.264
 2088POPC   C3A28781  10.528  42.286   7.964
 2088POPC   C4A28782  10.489  42.311   7.664
 2088POPC   C1B28783  10.634  42.604   8.564
 2088POPC   C2B28784  10.618  42.538   8.264
 2088POPC   C3B28785  10.577  42.556   7.964
 2088POPC   C4B28786  10.571  42.572   7.664
 2089POPC   NC328787  25.281  29.896   9.464
 2089POPC   PO428788  25.240  29.912   9.164
 2089POPC   GL128789  25.231  29.881   8.864
 2089POPC   GL228790  25.302  30.067   8.864
 2089POPC   C1A28791  25.264  29.965   8.564
 2089POPC   D2A28792  25.314  29.873   8.264
 2089POPC   C3A28793  25.254  29.900   7.964
 2089POPC   C4A28794  25.290  29.878   7.664
 2089POPC   C1B28795  25.257  30.215   8.564
 2089POPC   C2B28796  25.224  30.130   8.264
 2089POPC   C3B28797  25.247  30.180   7.964
 2089POPC   C4B28798  25.313  30.165   7.664
 2090POPC   NC328799  42.375   3.572   9.464
 2090POPC   PO428800  42.376   3.587   9.164
 2090POPC   GL128801  42.373   3.543   8.864
 2090POPC   GL228802  42.385   3.711   8.864
 2090POPC   C1A28803  42.382   3.588   8.564
 2090POPC   D2A28804  42.382   3.574   8.264
 2090POPC   C3A28805  42.378   3.569   7.964
 2090POPC   C4A28806  42.371   3.576   7.664
 2090POPC   C1B28807  42.367   3.810   8.564
 2090POPC   C2B28808  42.373   3.773   8.264
 2090POPC   C3B28809  42.392   3.804   7.964
 2090POPC   C4B28810  42.332   3.780   7.664
 2091POPC   NC328811   2.806  38.469   9.464
 2091POPC   PO428812   2.802  38.466   9.164
 2091POPC   GL128813   2.733  38.436   8.864
 2091POPC   GL228814   2.772  38.607   8.864
 2091POPC   C1A28815   2.797  38.502   8.564
 2091POPC   D2A28816   2.773  38.451   8.264
 2091POPC   C3A28817   2.723  38.463   7.964
 2091POPC   C4A28818   2.768  38.430   7.664
 2091POPC   C1B28819   2.809  38.740   8.564
 2091POPC   C2B28820   2.868  38.727   8.264
 2091POPC   C3B28821   2.802  38.714   7.964
 2091POPC   C4B28822   2.887  38.671   7.664
 2092POPC   NC328823  16.004  36.878   9.464
 2092POPC   PO428824  15.926  36.897   9.164
 2092POPC   GL128825  15.974  36.898   8.864
 2092POPC   GL228826  15.947  36.761   8.864
 2092POPC   C1A28827  15.997  36.870   8.564
 2092POPC   D2A28828  15.948  36.948   8.264
 2092POPC   C3A28829  15.910  36.937   7.964
 2092POPC   C4A28830  15.933  36.950   7.664
 2092POPC   C1B28831  16.030  36.628   8.564
 2092POPC   C2B28832  16.045  36.672   8.264
 2092POPC   C3B28833  16.029  36.650   7.964
 2092POPC   C4B28834  15.967  36.640   7.664
 2093POPC   NC328835   5.859  12.867   9.464
 2093POPC   PO428836   5.866  12.874   9.164
 2093POPC   GL128837   5.908  12.830   8.864
 2093POPC   GL228838   5.833  12.685   8.864
 2093POPC   C1A28839   5.912  12.846   8.564
 2093POPC   D2A28840   5.893  12.880   8.264
 2093POPC   C3A28841   5.903  12.811   7.964
 2093POPC   C4A28842   5.835  12.891   7.664
 2093POPC   C1B28843   5.792  12.567   8.564
 2093POPC   C2B28844   5.846  12.634   8.264
 2093POPC   C3B28845   5.847  12.594   7.964
 2093POPC   C4B28846   5.752  12.594   7.664
 2094POPC   NC328847  11.339  36.924   9.464
 2094POPC   PO428848  11.315  36.856   9.164
 2094POPC   GL128849  11.290  36.941   8.864
 2094POPC   GL228850  11.377  36.971   8.864
 2094POPC   C1A28851  11.320  36.872   8.564
 2094POPC   D2A28852  11.296  36.882   8.264
 2094POPC   C3A28853  11.253  36.935   7.964
 2094POPC   C4A28854  11.332  36.947   7.664
 2094POPC   C1B28855  11.420  37.150   8.564
 2094POPC   C2B28856  11.427  37.122   8.264
 2094POPC   C3B28857  11.395  37.100   7.964
 2094POPC   C4B28858  11.419  37.162   7.664
 2095POPC   NC328859  36.121   5.118   9.464
 2095POPC   PO428860  36.136   5.140   9.164
 2095POPC   GL128861  36.151   5.106   8.864
 2095POPC   GL228862  36.211   5.129   8.864
 2095POPC   C1A28863  36.140   5.120   8.564
 2095POPC   D2A28864  36.118   5.086   8.264
 2095POPC   C3A28865  36.090   5.066   7.964
 2095POPC   C4A28866  36.095   5.121   7.664
 2095POPC   C1B28867  36.398   5.065   8.564
 2095POPC   C2B28868  36.355   5.079   8.264
 2095POPC   C3B28869  36.424   5.091   7.964
 2095POPC   C4B28870  36.377   5.068   7.664
 2096POPC   NC328871   1.173  16.695   9.464
 2096POPC   PO428872   1.222  16.764   9.164
 2096POPC   GL128873   1.221  16.746   8.864
 2096POPC   GL228874   1.132  16.589   8.864
 2096POPC   C1A28875   1.261  16.724   8.564
 2096POPC   D2A28876   1.194  16.732   8.264
 2096POPC   C3A28877   1.255  16.775   7.964
 2096POPC   C4A28878   1.188  16.685   7.664
 2096POPC   C1B28879   1.045  16.479   8.564
 2096POPC   C2B28880   1.119  16.501   8.264
 2096POPC   C3B28881   1.061  16.515   7.964
 2096POPC   C4B28882   1.052  16.544   7.664
 2097POPC   NC328883  32.209  35.318   9.464
 2097POPC   PO428884  32.283  35.365   9.164
 2097POPC   GL128885  32.261  35.365   8.864
 2097POPC   GL228886  32.238  35.278   8.864
 2097POPC   C1A28887  32.236  35.338   8.564
 2097POPC   D2A28888  32.247  35.399   8.264
 2097POPC   C3A28889  32.245  35.324   7.964
 2097POPC   C4A28890  32.225  35.393   7.664
 2097POPC   C1B28891  32.207  35.099   8.564
 2097POPC   C2B28892  32.204  35.152   8.264
 2097POPC   C3B28893  32.187  35.124   7.964
 2097POPC   C4B28894  32.168  35.076   7.664
 2098POPC   NC328895  31.468  33.060   9.464
 2098POPC   PO428896  31.436  33.044   9.164
 2098POPC   GL128897  31.512  33.062   8.864
 2098POPC   GL228898  31.403  33.109   8.864
 2098POPC   C1A28899  31.464  33.005   8.564
 2098POPC   D2A28900  31.515  33.022   8.264
 2098POPC   C3A28901  31.488  32.985   7.964
 2098POPC   C4A28902  31.468  33.052   7.664
 2098POPC   C1B28903  31.255  33.138   8.564
 2098POPC   C2B28904  31.206  33.167   8.264
 2098POPC   C3B28905  31.272  33.098   7.964
 2098POPC   C4B28906  31.275  33.096   7.664
 2099POPC   NC328907  13.604   4.271   9.464
 2099POPC   PO428908  13.590   4.310   9.164
 2099POPC   GL128909  13.647   4.323   8.864
 2099POPC   GL228910  13.506   4.183   8.864
 2099POPC   C1A28911  13.593   4.286   8.564
 2099POPC   D2A28912  13.629   4.336   8.264
 2099POPC   C3A28913  13.640   4.325   7.964
 2099POPC   C4A28914  13.648   4.366   7.664
 2099POPC   C1B28915  13.426   4.174   8.564
 2099POPC   C2B28916  13.481   4.149   8.264
 2099POPC   C3B28917  13.497   4.172   7.964
 2099POPC   C4B28918  13.421   4.109   7.664
 2100POPC   NC328919  10.476   8.998   9.464
 2100POPC   PO428920  10.488   8.989   9.164
 2100POPC   GL128921  10.501   8.955   8.864
 2100POPC   GL228922  10.602   8.973   8.864
 2100POPC   C1A28923  10.522   8.970   8.564
 2100POPC   D2A28924  10.516   8.935   8.264
 2100POPC   C3A28925  10.491   8.967   7.964
 2100POPC   C4A28926  10.562   8.948   7.664
 2100POPC   C1B28927  10.734   9.044   8.564
 2100POPC   C2B28928  10.770   9.004   8.264
 2100POPC   C3B28929  10.736   9.046   7.964
 2100POPC   C4B28930  10.790   9.010   7.664
 2101POPC   NC328931  16.706  30.657   9.464
 2101POPC   PO428932  16.691  30.717   9.164
 2101POPC   GL128933  16.727  30.679   8.864
 2101POPC   GL228934  16.785  30.781   8.864
 2101POPC   C1A28935  16.752  30.723   8.564
 2101POPC   D2A28936  16.758  30.704   8.264
 2101POPC   C3A28937  16.717  30.707   7.964
 2101POPC   C4A28938  16.735  30.654   7.664
 2101POPC   C1B28939  16.786  30.901   8.564
 2101POPC   C2B28940  16.807  30.895   8.264
 2101POPC   C3B28941  16.792  30.965   7.964
 2101POPC   C4B28942  16.779  30.941   7.664
 2102POPC   NC328943  43.087   0.419   9.464
 2102POPC   PO428944  43.115   0.419   9.164
 2102POPC   GL128945  43.086   0.420   8.864
 2102POPC   GL228946  43.072   0.520   8.864
 2102POPC   C1A28947  43.102   0.402   8.564
 2102POPC   D2A28948  43.156   0.456   8.264
 2102POPC   C3A28949  43.087   0.442   7.964
 2102POPC   C4A28950  43.091   0.461   7.664
 2102POPC   C1B28951  43.049   0.705   8.564
 2102POPC   C2B28952  43.103   0.699   8.264
 2102POPC   C3B28953  43.100   0.674   7.964
 2102POPC   C4B28954  43.110   0.705   7.664
 2103POPC   NC328955  37.723  34.555   9.464
 2103POPC   PO428956  37.725  34.585   9.164
 2103POPC   GL128957  37.719  34.622   8.864
 2103POPC   GL228958  37.697  34.703   8.864
 2103POPC   C1A28959  37.706  34.586   8.564
 2103POPC   D2A28960  37.713  34.597   8.264
 2103POPC   C3A28961  37.642  34.544   7.964
 2103POPC   C4A28962  37.686  34.566   7.664
 2103POPC   C1B28963  37.682  34.781   8.564
 2103POPC   C2B28964  37.729  34.777   8.264
 2103POPC   C3B28965  37.736  34.866   7.964
 2103POPC   C4B28966  37.749  34.841   7.664
 2104POPC   NC328967  30.732  33.827   9.464
 2104POPC   PO428968  30.691  33.849   9.164
 2104POPC   GL128969  30.745  33.807   8.864
 2104POPC   GL228970  30.809  33.751   8.864
 2104POPC   C1A28971  30.697  33.791   8.564
 2104POPC   D2A28972  30.651  33.789   8.264
 2104POPC   C3A28973  30.680  33.826   7.964
 2104POPC   C4A28974  30.670  33.800   7.664
 2104POPC   C1B28975  30.934  33.746   8.564
 2104POPC   C2B28976  30.928  33.771   8.264
 2104POPC   C3B28977  30.966  33.693   7.964
 2104POPC   C4B28978  30.888  33.726   7.664
 2105POPC   NC328979  24.445  23.730   9.464
 2105POPC   PO428980  24.521  23.756   9.164
 2105POPC   GL128981  24.471  23.762   8.864
 2105POPC   GL228982  24.434  23.555   8.864
 2105POPC   C1A28983  24.490  23.699   8.564
 2105POPC   D2A28984  24.526  23.695   8.264
 2105POPC   C3A28985  24.500  23.668   7.964
 2105POPC   C4A28986  24.508  23.753   7.664
 2105POPC   C1B28987  24.414  23.462   8.564
 2105POPC   C2B28988  24.449  23.460   8.264
 2105POPC   C3B28989  24.454  23.447   7.964
 2105POPC   C4B28990  24.385  23.504   7.664
 2106POPC   NC328991  26.840   1.221   9.464
 2106POPC   PO428992  26.822   1.219   9.164
 2106POPC   GL128993  26.865   1.259   8.864
 2106POPC   GL228994  26.793   1.094   8.864
 2106POPC   C1A28995  26.812   1.211   8.564
 2106POPC   D2A28996  26.801   1.192   8.264
 2106POPC   C3A28997  26.803   1.244   7.964
 2106POPC   C4A28998  26.836   1.213   7.664
 2106POPC   C1B28999  26.769   0.996   8.564
 2106POPC   C2B29000  26.739   1.000   8.264
 2106POPC   C3B29001  26.705   0.943   7.964
 2106POPC   C4B29002  26.747   0.968   7.664
 2107POPC   NC329003   8.977   1.186   9.464
 2107POPC   PO429004   9.002   1.195   9.164
 2107POPC   GL129005   9.015   1.195   8.864
 2107POPC   GL229006   8.933   1.082   8.864
 2107POPC   C1A29007   9.002   1.192   8.564
 2107POPC   D2A29008   8.976   1.224   8.264
 2107POPC   C3A29009   8.989   1.170   7.964
 2107POPC   C4A29010   8.978   1.201   7.664
 2107POPC   C1B29011   8.882   0.955   8.564
 2107POPC   C2B29012   8.900   0.998   8.264
 2107POPC   C3B29013   8.874   0.942   7.964
 2107POPC   C4B29014   8.826   1.010   7.664
 2108POPC   NC329015   5.912  41.560   9.464
 2108POPC   PO429016   5.851  41.515   9.164
 2108POPC   GL129017   5.867  41.527   8.864
 2108POPC   GL229018   5.812  41.470   8.864
 2108POPC   C1A29019   5.836  41.541   8.564
 2108POPC   D2A29020   5.906  41.539   8.264
 2108POPC   C3A29021   5.862  41.515   7.964
 2108POPC   C4A29022   5.840  41.518   7.664
 2108POPC   C1B29023   5.723  41.348   8.564
 2108POPC   C2B29024   5.673  41.404   8.264
 2108POPC   C3B29025   5.730  41.328   7.964
 2108POPC   C4B29026   5.661  41.407   7.664
 2109POPC   NC329027  14.385   6.667   9.464
 2109POPC   PO429028  14.451   6.609   9.164
 2109POPC   GL129029  14.427   6.688   8.864
 2109POPC   GL229030  14.468   6.548   8.864
 2109POPC   C1A29031  14.397   6.613   8.564
 2109POPC   D2A29032  14.364   6.625   8.264
 2109POPC   C3A29033  14.409   6.666   7.964
 2109POPC   C4A29034  14.363   6.688   7.664
 2109POPC   C1B29035  14.561   6.431   8.564
 2109POPC   C2B29036  14.566   6.469   8.264
 2109POPC   C3B29037  14.579   6.476   7.964
 2109POPC   C4B29038  14.605   6.461   7.664
 2110POPC   NC329039  39.215  22.171   9.464
 2110POPC   PO429040  39.225  22.180   9.164
 2110POPC   GL129041  39.276  22.113   8.864
 2110POPC   GL229042  39.304  22.211   8.864
 2110POPC   C1A29043  39.196  22.117   8.564
 2110POPC   D2A29044  39.223  22.186   8.264
 2110POPC   C3A29045  39.218  22.172   7.964
 2110POPC   C4A29046  39.220  22.126   7.664
 2110POPC   C1B29047  39.458  22.298   8.564
 2110POPC   C2B29048  39.418  22.271   8.264
 2110POPC   C3B29049  39.463  22.255   7.964
 2110POPC   C4B29050  39.491  22.245   7.664
 2111POPC   NC329051  33.832   4.274   9.464
 2111POPC   PO429052  33.843   4.357   9.164
 2111POPC   GL129053  33.769   4.294   8.864
 2111POPC   GL229054  33.756   4.232   8.864
 2111POPC   C1A29055  33.788   4.353   8.564
 2111POPC   D2A29056  33.816   4.352   8.264
 2111POPC   C3A29057  33.828   4.360   7.964
 2111POPC   C4A29058  33.835   4.277   7.664
 2111POPC   C1B29059  33.760   4.039   8.564
 2111POPC   C2B29060  33.728   4.096   8.264
 2111POPC   C3B29061  33.688   4.070   7.964
 2111POPC   C4B29062  33.722   4.110   7.664
 2112POPC   NC329063  39.228  19.859   9.464
 2112POPC   PO429064  39.184  19.868   9.164
 2112POPC   GL129065  39.275  19.877   8.864
 2112POPC   GL229066  39.211  19.950   8.864
 2112POPC   C1A29067  39.193  19.855   8.564
 2112POPC   D2A29068  39.258  19.848   8.264
 2112POPC   C3A29069  39.248  19.812   7.964
 2112POPC   C4A29070  39.246  19.797   7.664
 2112POPC   C1B29071  39.152  20.046   8.564
 2112POPC   C2B29072  39.204  20.105   8.264
 2112POPC   C3B29073  39.140  20.050   7.964
 2112POPC   C4B29074  39.160  20.068   7.664
 2113POPC   NC329075  40.027   9.704   9.464
 2113POPC   PO429076  39.965   9.735   9.164
 2113POPC   GL129077  40.057   9.745   8.864
 2113POPC   GL229078  39.983   9.583   8.864
 2113POPC   C1A29079  40.046   9.772   8.564
 2113POPC   D2A29080  39.990   9.714   8.264
 2113POPC   C3A29081  40.051   9.746   7.964
 2113POPC   C4A29082  40.040   9.725   7.664
 2113POPC   C1B29083  39.907   9.511   8.564
 2113POPC   C2B29084  39.928   9.462   8.264
 2113POPC   C3B29085  39.896   9.549   7.964
 2113POPC   C4B29086  39.898   9.482   7.664
 2114POPC   NC329087  40.010  19.060   9.464
 2114POPC   PO429088  39.977  19.055   9.164
 2114POPC   GL129089  39.970  19.058   8.864
 2114POPC   GL229090  39.973  19.199   8.864
 2114POPC   C1A29091  40.047  19.071   8.564
 2114POPC   D2A29092  40.003  19.037   8.264
 2114POPC   C3A29093  40.049  19.042   7.964
 2114POPC   C4A29094  39.998  19.009   7.664
 2114POPC   C1B29095  39.842  19.276   8.564
 2114POPC   C2B29096  39.836  19.219   8.264
 2114POPC   C3B29097  39.885  19.255   7.964
 2114POPC   C4B29098  39.819  19.247   7.664
 2115POPC   NC329099  13.641   9.780   9.464
 2115POPC   PO429100  13.653   9.791   9.164
 2115POPC   GL129101  13.639   9.717   8.864
 2115POPC   GL229102  13.543   9.720   8.864
 2115POPC   C1A29103  13.579   9.775   8.564
 2115POPC   D2A29104  13.599   9.717   8.264
 2115POPC   C3A29105  13.676   9.728   7.964
 2115POPC   C4A29106  13.606   9.721   7.664
 2115POPC   C1B29107  13.422   9.653   8.564
 2115POPC   C2B29108  13.363   9.644   8.264
 2115POPC   C3B29109  13.395   9.659   7.964
 2115POPC   C4B29110  13.443   9.673   7.664
 2116POPC   NC329111  36.933  42.310   9.464
 2116POPC   PO429112  36.889  42.285   9.164
 2116POPC   GL129113  36.905  42.331   8.864
 2116POPC   GL229114  36.757  42.371   8.864
 2116POPC   C1A29115  36.883  42.328   8.564
 2116POPC   D2A29116  36.897  42.367   8.264
 2116POPC   C3A29117  36.871  42.300   7.964
 2116POPC   C4A29118  36.929  42.323   7.664
 2116POPC   C1B29119  36.718  42.390   8.564
 2116POPC   C2B29120  36.640  42.437   8.264
 2116POPC   C3B29121  36.620  42.445   7.964
 2116POPC   C4B29122  36.644  42.385   7.664
 2117POPC   NC329123  21.363   5.112   9.464
 2117POPC   PO429124  21.367   5.049   9.164
 2117POPC   GL129125  21.396   5.121   8.864
 2117POPC   GL229126  21.217   5.044   8.864
 2117POPC   C1A29127  21.420   5.106   8.564
 2117POPC   D2A29128  21.386   5.107   8.264
 2117POPC   C3A29129  21.374   5.138   7.964
 2117POPC   C4A29130  21.399   5.085   7.664
 2117POPC   C1B29131  21.114   5.010   8.564
 2117POPC   C2B29132  21.156   5.065   8.264
 2117POPC   C3B29133  21.128   4.984   7.964
 2117POPC   C4B29134  21.120   5.006   7.664
 2118POPC   NC329135  32.975  15.927   9.464
 2118POPC   PO429136  33.049  15.924   9.164
 2118POPC   GL129137  33.055  15.977   8.864
 2118POPC   GL229138  33.098  16.008   8.864
 2118POPC   C1A29139  32.998  15.967   8.564
 2118POPC   D2A29140  32.984  15.925   8.264
 2118POPC   C3A29141  33.038  15.959   7.964
 2118POPC   C4A29142  33.071  15.908   7.664
 2118POPC   C1B29143  33.239  16.044   8.564
 2118POPC   C2B29144  33.276  16.010   8.264
 2118POPC   C3B29145  33.244  15.972   7.964
 2118POPC   C4B29146  33.270  16.031   7.664
 2119POPC   NC329147  22.191  43.869   9.464
 2119POPC   PO429148  22.158  43.894   9.164
 2119POPC   GL129149  22.156  43.884   8.864
 2119POPC   GL229150  22.280  43.922   8.864
 2119POPC   C1A29151  22.168  43.901   8.564
 2119POPC   D2A29152  22.187  43.840   8.264
 2119POPC   C3A29153  22.204  43.925   7.964
 2119POPC   C4A29154  22.199  43.839   7.664
 2119POPC   C1B29155  22.375  44.023   8.564
 2119POPC   C2B29156  22.412  43.965   8.264
 2119POPC   C3B29157  22.423  43.948   7.964
 2119POPC   C4B29158  22.372  44.012   7.664
 2120POPC   NC329159  10.535  29.944   9.464
 2120POPC   PO429160  10.506  29.927   9.164
 2120POPC   GL129161  10.499  29.968   8.864
 2120POPC   GL229162  10.481  30.065   8.864
 2120POPC   C1A29163  10.565  29.953   8.564
 2120POPC   D2A29164  10.525  29.873   8.264
 2120POPC   C3A29165  10.487  29.960   7.964
 2120POPC   C4A29166  10.507  29.966   7.664
 2120POPC   C1B29167  10.516  30.152   8.564
 2120POPC   C2B29168  10.453  30.170   8.264
 2120POPC   C3B29169  10.536  30.136   7.964
 2120POPC   C4B29170  10.492  30.175   7.664
 2121POPC   NC329171  18.328  26.824   9.464
 2121POPC   PO429172  18.247  26.849   9.164
 2121POPC   GL129173  18.273  26.864   8.864
 2121POPC   GL229174  18.201  26.937   8.864
 2121POPC   C1A29175  18.248  26.815   8.564
 2121POPC   D2A29176  18.262  26.806   8.264
 2121POPC   C3A29177  18.313  26.819   7.964
 2121POPC   C4A29178  18.233  26.779   7.664
 2121POPC   C1B29179  18.051  27.002   8.564
 2121POPC   C2B29180  18.100  26.992   8.264
 2121POPC   C3B29181  18.114  26.966   7.964
 2121POPC   C4B29182  18.139  27.032   7.664
 2122POPC   NC329183  15.196  11.322   9.464
 2122POPC   PO429184  15.174  11.265   9.164
 2122POPC   GL129185  15.191  11.296   8.864
 2122POPC   GL229186  15.108  11.200   8.864
 2122POPC   C1A29187  15.224  11.323   8.564
 2122POPC   D2A29188  15.196  11.256   8.264
 2122POPC   C3A29189  15.168  11.315   7.964
 2122POPC   C4A29190  15.221  11.306   7.664
 2122POPC   C1B29191  14.947  11.247   8.564
 2122POPC   C2B29192  14.913  11.235   8.264
 2122POPC   C3B29193  14.957  11.208   7.964
 2122POPC   C4B29194  14.958  11.235   7.664
 2123POPC   NC329195  41.557  39.245   9.464
 2123POPC   PO429196  41.547  39.256   9.164
 2123POPC   GL129197  41.509  39.239   8.864
 2123POPC   GL229198  41.430  39.186   8.864
 2123POPC   C1A29199  41.540  39.219   8.564
 2123POPC   D2A29200  41.579  39.209   8.264
 2123POPC   C3A29201  41.564  39.197   7.964
 2123POPC   C4A29202  41.603  39.236   7.664
 2123POPC   C1B29203  41.282  39.201   8.564
 2123POPC   C2B29204  41.297  39.262   8.264
 2123POPC   C3B29205  41.284  39.257   7.964
 2123POPC   C4B29206  41.272  39.235   7.664
 2124POPC   NC329207  19.095   3.556   9.464
 2124POPC   PO429208  19.022   3.558   9.164
 2124POPC   GL129209  19.026   3.505   8.864
 2124POPC   GL229210  19.119   3.404   8.864
 2124POPC   C1A29211  19.040   3.588   8.564
 2124POPC   D2A29212  19.069   3.563   8.264
 2124POPC   C3A29213  19.087   3.562   7.964
 2124POPC   C4A29214  19.071   3.540   7.664
 2124POPC   C1B29215  19.125   3.337   8.564
 2124POPC   C2B29216  19.185   3.317   8.264
 2124POPC   C3B29217  19.179   3.310   7.964
 2124POPC   C4B29218  19.162   3.284   7.664
 2125POPC   NC329219   8.225   5.829   9.464
 2125POPC   PO429220   8.221   5.862   9.164
 2125POPC   GL129221   8.205   5.896   8.864
 2125POPC   GL229222   8.110   5.993   8.864
 2125POPC   C1A29223   8.184   5.851   8.564
 2125POPC   D2A29224   8.216   5.827   8.264
 2125POPC   C3A29225   8.170   5.824   7.964
 2125POPC   C4A29226   8.151   5.918   7.664
 2125POPC   C1B29227   7.997   6.015   8.564
 2125POPC   C2B29228   8.067   6.014   8.264
 2125POPC   C3B29229   8.059   6.059   7.964
 2125POPC   C4B29230   8.005   6.009   7.664
 2126POPC   NC329231  18.286  32.268   9.464
 2126POPC   PO429232  18.259  32.298   9.164
 2126POPC   GL129233  18.326  32.208   8.864
 2126POPC   GL229234  18.264  32.158   8.864
 2126POPC   C1A29235  18.298  32.278   8.564
 2126POPC   D2A29236  18.258  32.209   8.264
 2126POPC   C3A29237  18.323  32.213   7.964
 2126POPC   C4A29238  18.287  32.210   7.664
 2126POPC   C1B29239  18.153  31.996   8.564
 2126POPC   C2B29240  18.161  32.032   8.264
 2126POPC   C3B29241  18.198  31.999   7.964
 2126POPC   C4B29242  18.218  31.981   7.664
 2127POPC   NC329243   5.044   1.962   9.464
 2127POPC   PO429244   5.078   1.944   9.164
 2127POPC   GL129245   5.066   1.975   8.864
 2127POPC   GL229246   5.201   2.008   8.864
 2127POPC   C1A29247   5.089   2.016   8.564
 2127POPC   D2A29248   5.067   1.951   8.264
 2127POPC   C3A29249   5.095   1.969   7.964
 2127POPC   C4A29250   5.071   2.024   7.664
 2127POPC   C1B29251   5.281   2.115   8.564
 2127POPC   C2B29252   5.350   2.069   8.264
 2127POPC   C3B29253   5.310   2.068   7.964
 2127POPC   C4B29254   5.332   2.073   7.664
 2128POPC   NC329255  25.298  22.193   9.464
 2128POPC   PO429256  25.283  22.131   9.164
 2128POPC   GL129257  25.266  22.171   8.864
 2128POPC   GL229258  25.172  22.061   8.864
 2128POPC   C1A29259  25.279  22.165   8.564
 2128POPC   D2A29260  25.266  22.114   8.264
 2128POPC   C3A29261  25.304  22.143   7.964
 2128POPC   C4A29262  25.279  22.167   7.664
 2128POPC   C1B29263  25.214  21.905   8.564
 2128POPC   C2B29264  25.143  21.907   8.264
 2128POPC   C3B29265  25.193  21.962   7.964
 2128POPC   C4B29266  25.217  21.911   7.664
 2129POPC   NC329267  21.391  24.473   9.464
 2129POPC   PO429268  21.378  24.480   9.164
 2129POPC   GL129269  21.345  24.445   8.864
 2129POPC   GL229270  21.515  24.453   8.864
 2129POPC   C1A29271  21.412  24.470   8.564
 2129POPC   D2A29272  21.392  24.458   8.264
 2129POPC   C3A29273  21.401  24.453   7.964
 2129POPC   C4A29274  21.421  24.466   7.664
 2129POPC   C1B29275  21.668  24.521   8.564
 2129POPC   C2B29276  21.610  24.554   8.264
 2129POPC   C3B29277  21.652  24.459   7.964
 2129POPC   C4B29278  21.606  24.485   7.664
 2130POPC   NC329279   8.938  40.034   9.464
 2130POPC   PO429280   9.021  39.997   9.164
 2130POPC   GL129281   8.943  40.038   8.864
 2130POPC   GL229282   9.047  40.163   8.864
 2130POPC   C1A29283   8.948  40.039   8.564
 2130POPC   D2A29284   9.015  40.044   8.264
 2130POPC   C3A29285   8.932  40.028   7.964
 2130POPC   C4A29286   8.932  39.960   7.664
 2130POPC   C1B29287   9.106  40.270   8.564
 2130POPC   C2B29288   9.055  40.273   8.264
 2130POPC   C3B29289   9.091  40.241   7.964
 2130POPC   C4B29290   9.086  40.183   7.664
 2131POPC   NC329291   9.752  33.809   9.464
 2131POPC   PO429292   9.751  33.822   9.164
 2131POPC   GL129293   9.793  33.796   8.864
 2131POPC   GL229294   9.832  33.680   8.864
 2131POPC   C1A29295   9.749  33.782   8.564
 2131POPC   D2A29296   9.761  33.775   8.264
 2131POPC   C3A29297   9.776  33.767   7.964
 2131POPC   C4A29298   9.702  33.778   7.664
 2131POPC   C1B29299   9.970  33.616   8.564
 2131POPC   C2B29300   9.978  33.606   8.264
 2131POPC   C3B29301   9.971  33.649   7.964
 2131POPC   C4B29302   9.944  33.661   7.664
 2132POPC   NC329303  40.785  36.129   9.464
 2132POPC   PO429304  40.761  36.168   9.164
 2132POPC   GL129305  40.740  36.146   8.864
 2132POPC   GL229306  40.667  36.118   8.864
 2132POPC   C1A29307  40.820  36.089   8.564
 2132POPC   D2A29308  40.742  36.084   8.264
 2132POPC   C3A29309  40.801  36.154   7.964
 2132POPC   C4A29310  40.747  36.147   7.664
 2132POPC   C1B29311  40.509  36.095   8.564
 2132POPC   C2B29312  40.493  36.046   8.264
 2132POPC   C3B29313  40.499  36.024   7.964
 2132POPC   C4B29314  40.511  36.029   7.664
 2133POPC   NC329315   1.993  31.465   9.464
 2133POPC   PO429316   2.001  31.520   9.164
 2133POPC   GL129317   1.968  31.455   8.864
 2133POPC   GL229318   2.066  31.371   8.864
 2133POPC   C1A29319   1.958  31.471   8.564
 2133POPC   D2A29320   1.964  31.484   8.264
 2133POPC   C3A29321   1.992  31.516   7.964
 2133POPC   C4A29322   1.945  31.455   7.664
 2133POPC   C1B29323   2.149  31.262   8.564
 2133POPC   C2B29324   2.164  31.330   8.264
 2133POPC   C3B29325   2.200  31.332   7.964
 2133POPC   C4B29326   2.195  31.307   7.664
 2134POPC   NC329327  32.251  12.035   9.464
 2134POPC   PO429328  32.261  12.037   9.164
 2134POPC   GL129329  32.247  12.071   8.864
 2134POPC   GL229330  32.285  12.166   8.864
 2134POPC   C1A29331  32.247  12.114   8.564
 2134POPC   D2A29332  32.227  12.029   8.264
 2134POPC   C3A29333  32.253  12.054   7.964
 2134POPC   C4A29334  32.223  12.043   7.664
 2134POPC   C1B29335  32.339  12.314   8.564
 2134POPC   C2B29336  32.395  12.264   8.264
 2134POPC   C3B29337  32.332  12.337   7.964
 2134POPC   C4B29338  32.371  12.341   7.664
 2135POPC   NC329339  26.022  44.629   9.464
 2135POPC   PO429340  26.028  44.668   9.164
 2135POPC   GL129341  26.063  44.638   8.864
 2135POPC   GL229342  25.936  44.554   8.864
 2135POPC   C1A29343  26.039  44.630   8.564
 2135POPC   D2A29344  25.997  44.661   8.264
 2135POPC   C3A29345  26.072  44.648   7.964
 2135POPC   C4A29346  25.994  44.615   7.664
 2135POPC   C1B29347  25.820  44.466   8.564
 2135POPC   C2B29348  25.867  44.455   8.264
 2135POPC   C3B29349  25.856  44.531   7.964
 2135POPC   C4B29350  25.833  44.458   7.664
 2136POPC   NC329351   3.564  43.919   9.464
 2136POPC   PO429352   3.544  43.856   9.164
 2136POPC   GL129353   3.495  43.928   8.864
 2136POPC   GL229354   3.684  43.824   8.864
 2136POPC   C1A29355   3.518  43.849   8.564
 2136POPC   D2A29356   3.520  43.917   8.264
 2136POPC   C3A29357   3.559  43.856   7.964
 2136POPC   C4A29358   3.532  43.864   7.664
 2136POPC   C1B29359   3.740  43.802   8.564
 2136POPC   C2B29360   3.781  43.760   8.264
 2136POPC   C3B29361   3.816  43.778   7.964
 2136POPC   C4B29362   3.755  43.780   7.664
 2137POPC   NC329363   8.149  31.428   9.464
 2137POPC   PO429364   8.228  31.449   9.164
 2137POPC   GL129365   8.229  31.482   8.864
 2137POPC   GL229366   8.202  31.624   8.864
 2137POPC   C1A29367   8.197  31.482   8.564
 2137POPC   D2A29368   8.161  31.434   8.264
 2137POPC   C3A29369   8.161  31.465   7.964
 2137POPC   C4A29370   8.186  31.459   7.664
 2137POPC   C1B29371   8.201  31.675   8.564
 2137POPC   C2B29372   8.142  31.737   8.264
 2137POPC   C3B29373   8.231  31.721   7.964
 2137POPC   C4B29374   8.150  31.708   7.664
 2138POPC   NC329375  15.150  32.276   9.464
 2138POPC   PO429376  15.179  32.288   9.164
 2138POPC   GL129377  15.152  32.271   8.864
 2138POPC   GL229378  15.033  32.250   8.864
 2138POPC   C1A29379  15.160  32.220   8.564
 2138POPC   D2A29380  15.213  32.294   8.264
 2138POPC   C3A29381  15.212  32.216   7.964
 2138POPC   C4A29382  15.210  32.232   7.664
 2138POPC   C1B29383  14.914  32.301   8.564
 2138POPC   C2B29384  14.941  32.260   8.264
 2138POPC   C3B29385  14.914  32.275   7.964
 2138POPC   C4B29386  14.917  32.288   7.664
 2139POPC   NC329387  12.807  41.514   9.464
 2139POPC   PO429388  12.894  41.547   9.164
 2139POPC   GL129389  12.866  41.591   8.864
 2139POPC   GL229390  12.932  41.562   8.864
 2139POPC   C1A29391  12.894  41.533   8.564
 2139POPC   D2A29392  12.878  41.606   8.264
 2139POPC   C3A29393  12.824  41.540   7.964
 2139POPC   C4A29394  12.900  41.531   7.664
 2139POPC   C1B29395  13.129  41.574   8.564
 2139POPC   C2B29396  13.122  41.561   8.264
 2139POPC   C3B29397  13.144  41.542   7.964
 2139POPC   C4B29398  13.096  41.564   7.664
 2140POPC   NC329399  12.116  23.754   9.464
 2140POPC   PO429400  12.053  23.744   9.164
 2140POPC   GL129401  12.110  23.743   8.864
 2140POPC   GL229402  12.076  23.857   8.864
 2140POPC   C1A29403  12.079  23.718   8.564
 2140POPC   D2A29404  12.053  23.762   8.264
 2140POPC   C3A29405  12.039  23.752   7.964
 2140POPC   C4A29406  12.098  23.746   7.664
 2140POPC   C1B29407  11.999  23.999   8.564
 2140POPC   C2B29408  11.999  23.940   8.264
 2140POPC   C3B29409  12.033  23.948   7.964
 2140POPC   C4B29410  11.976  23.975   7.664
 2141POPC   NC329411  17.537   4.331   9.464
 2141POPC   PO429412  17.494   4.359   9.164
 2141POPC   GL129413  17.513   4.325   8.864
 2141POPC   GL229414  17.336   4.355   8.864
 2141POPC   C1A29415  17.507   4.341   8.564
 2141POPC   D2A29416  17.494   4.335   8.264
 2141POPC   C3A29417  17.532   4.289   7.964
 2141POPC   C4A29418  17.547   4.322   7.664
 2141POPC   C1B29419  17.217   4.308   8.564
 2141POPC   C2B29420  17.260   4.367   8.264
 2141POPC   C3B29421  17.257   4.383   7.964
 2141POPC   C4B29422  17.247   4.382   7.664
 2142POPC   NC329423  12.873  34.614   9.464
 2142POPC   PO429424  12.867  34.626   9.164
 2142POPC   GL129425  12.819  34.583   8.864
 2142POPC   GL229426  12.726  34.685   8.864
 2142POPC   C1A29427  12.824  34.600   8.564
 2142POPC   D2A29428  12.830  34.620   8.264
 2142POPC   C3A29429  12.895  34.577   7.964
 2142POPC   C4A29430  12.837  34.555   7.664
 2142POPC   C1B29431  12.694  34.718   8.564
 2142POPC   C2B29432  12.720  34.774   8.264
 2142POPC   C3B29433  12.670  34.725   7.964
 2142POPC   C4B29434  12.698  34.807   7.664
 2143POPC   NC329435  24.500  42.374   9.464
 2143POPC   PO429436  24.493  42.289   9.164
 2143POPC   GL129437  24.441  42.297   8.864
 2143POPC   GL229438  24.562  42.272   8.864
 2143POPC   C1A29439  24.538  42.337   8.564
 2143POPC   D2A29440  24.500  42.301   8.264
 2143POPC   C3A29441  24.508  42.381   7.964
 2143POPC   C4A29442  24.534  42.307   7.664
 2143POPC   C1B29443  24.678  42.188   8.564
 2143POPC   C2B29444  24.674  42.249   8.264
 2143POPC   C3B29445  24.667  42.215   7.964
 2143POPC   C4B29446  24.685  42.246   7.664
 2144POPC   NC329447  17.484  33.039   9.464
 2144POPC   PO429448  17.549  33.020   9.164
 2144POPC   GL129449  17.535  33.036   8.864
 2144POPC   GL229450  17.426  33.128   8.864
 2144POPC   C1A29451  17.482  33.028   8.564
 2144POPC   D2A29452  17.469  32.976   8.264
 2144POPC   C3A29453  17.541  33.010   7.964
 2144POPC   C4A29454  17.528  32.995   7.664
 2144POPC   C1B29455  17.349  33.216   8.564
 2144POPC   C2B29456  17.369  33.225   8.264
 2144POPC   C3B29457  17.306  33.213   7.964
 2144POPC   C4B29458  17.318  33.147   7.664
 2145POPC   NC329459  22.940  23.750   9.464
 2145POPC   PO429460  22.968  23.684   9.164
 2145POPC   GL129461  22.936  23.665   8.864
 2145POPC   GL229462  22.925  23.615   8.864
 2145POPC   C1A29463  22.981  23.745   8.564
 2145POPC   D2A29464  22.904  23.667   8.264
 2145POPC   C3A29465  22.933  23.669   7.964
 2145POPC   C4A29466  22.934  23.742   7.664
 2145POPC   C1B29467  22.900  23.436   8.564
 2145POPC   C2B29468  22.847  23.502   8.264
 2145POPC   C3B29469  22.842  23.515   7.964
 2145POPC   C4B29470  22.853  23.515   7.664
 2146POPC   NC329471  33.799   9.726   9.464
 2146POPC   PO429472  33.780   9.721   9.164
 2146POPC   GL129473  33.770   9.758   8.864
 2146POPC   GL229474  33.677   9.675   8.864
 2146POPC   C1A29475  33.759   9.730   8.564
 2146POPC   D2A29476  33.771   9.709   8.264
 2146POPC   C3A29477  33.823   9.760   7.964
 2146POPC   C4A29478  33.813   9.796   7.664
 2146POPC   C1B29479  33.617   9.672   8.564
 2146POPC   C2B29480  33.578   9.647   8.264
 2146POPC   C3B29481  33.617   9.673   7.964
 2146POPC   C4B29482  33.596   9.664   7.664
 2147POPC   NC329483   8.939  22.187   9.464
 2147POPC   PO429484   9.011  22.189   9.164
 2147POPC   GL129485   8.923  22.171   8.864
 2147POPC   GL229486   8.879  22.269   8.864
 2147POPC   C1A29487   8.926  22.173   8.564
 2147POPC   D2A29488   8.982  22.118   8.264
 2147POPC   C3A29489   8.937  22.190   7.964
 2147POPC   C4A29490   9.008  22.164   7.664
 2147POPC   C1B29491   8.833  22.352   8.564
 2147POPC   C2B29492   8.802  22.402   8.264
 2147POPC   C3B29493   8.844  22.372   7.964
 2147POPC   C4B29494   8.829  22.394   7.664
 2148POPC   NC329495  43.901   7.376   9.464
 2148POPC   PO429496  43.883   7.415   9.164
 2148POPC   GL129497  43.913   7.386   8.864
 2148POPC   GL229498  43.873   7.248   8.864
 2148POPC   C1A29499  43.904   7.378   8.564
 2148POPC   D2A29500  43.924   7.456   8.264
 2148POPC   C3A29501  43.896   7.419   7.964
 2148POPC   C4A29502  43.870   7.427   7.664
 2148POPC   C1B29503  43.912   7.157   8.564
 2148POPC   C2B29504  43.887   7.180   8.264
 2148POPC   C3B29505  43.909   7.183   7.964
 2148POPC   C4B29506  43.903   7.162   7.664
 2149POPC   NC329507   8.997  21.395   9.464
 2149POPC   PO429508   8.971  21.366   9.164
 2149POPC   GL129509   8.979  21.417   8.864
 2149POPC   GL229510   8.815  21.410   8.864
 2149POPC   C1A29511   8.953  21.412   8.564
 2149POPC   D2A29512   8.936  21.431   8.264
 2149POPC   C3A29513   9.010  21.348   7.964
 2149POPC   C4A29514   8.936  21.392   7.664
 2149POPC   C1B29515   8.709  21.464   8.564
 2149POPC   C2B29516   8.733  21.497   8.264
 2149POPC   C3B29517   8.766  21.447   7.964
 2149POPC   C4B29518   8.755  21.446   7.664
 2150POPC   NC329519  15.179  39.257   9.464
 2150POPC   PO429520  15.138  39.251   9.164
 2150POPC   GL129521  15.152  39.231   8.864
 2150POPC   GL229522  15.033  39.199   8.864
 2150POPC   C1A29523  15.197  39.223   8.564
 2150POPC   D2A29524  15.191  39.194   8.264
 2150POPC   C3A29525  15.167  39.263   7.964
 2150POPC   C4A29526  15.134  39.203   7.664
 2150POPC   C1B29527  14.899  39.155   8.564
 2150POPC   C2B29528  14.969  39.164   8.264
 2150POPC   C3B29529  14.915  39.218   7.964
 2150POPC   C4B29530  14.944  39.168   7.664
 2151POPC   NC329531  15.160  19.025   9.464
 2151POPC   PO429532  15.160  19.081   9.164
 2151POPC   GL129533  15.140  19.097   8.864
 2151POPC   GL229534  15.045  19.007   8.864
 2151POPC   C1A29535  15.164  19.093   8.564
 2151POPC   D2A29536  15.219  19.016   8.264
 2151POPC   C3A29537  15.215  19.029   7.964
 2151POPC   C4A29538  15.188  19.057   7.664
 2151POPC   C1B29539  15.006  18.941   8.564
 2151POPC   C2B29540  14.946  18.867   8.264
 2151POPC   C3B29541  15.032  18.939   7.964
 2151POPC   C4B29542  15.034  18.931   7.664
 2152POPC   NC329543  15.972  20.606   9.464
 2152POPC   PO429544  15.923  20.606   9.164
 2152POPC   GL129545  16.005  20.599   8.864
 2152POPC   GL229546  15.896  20.452   8.864
 2152POPC   C1A29547  15.957  20.619   8.564
 2152POPC   D2A29548  15.937  20.649   8.264
 2152POPC   C3A29549  15.930  20.653   7.964
 2152POPC   C4A29550  15.942  20.601   7.664
 2152POPC   C1B29551  15.909  20.387   8.564
 2152POPC   C2B29552  15.861  20.367   8.264
 2152POPC   C3B29553  15.831  20.330   7.964
 2152POPC   C4B29554  15.858  20.385   7.664
 2153POPC   NC329555  26.793  38.468   9.464
 2153POPC   PO429556  26.782  38.491   9.164
 2153POPC   GL129557  26.782  38.464   8.864
 2153POPC   GL229558  26.851  38.389   8.864
 2153POPC   C1A29559  26.850  38.487   8.564
 2153POPC   D2A29560  26.848  38.428   8.264
 2153POPC   C3A29561  26.843  38.494   7.964
 2153POPC   C4A29562  26.816  38.446   7.664
 2153POPC   C1B29563  26.961  38.272   8.564
 2153POPC   C2B29564  27.015  38.242   8.264
 2153POPC   C3B29565  26.973  38.239   7.964
 2153POPC   C4B29566  27.000  38.265   7.664
 2154POPC   NC329567  39.268  16.763   9.464
 2154POPC   PO429568  39.252  16.761   9.164
 2154POPC   GL129569  39.192  16.692   8.864
 2154POPC   GL229570  39.301  16.597   8.864
 2154POPC   C1A29571  39.203  16.706   8.564
 2154POPC   D2A29572  39.256  16.703   8.264
 2154POPC   C3A29573  39.185  16.762   7.964
 2154POPC   C4A29574  39.217  16.775   7.664
 2154POPC   C1B29575  39.400  16.521   8.564
 2154POPC   C2B29576  39.430  16.577   8.264
 2154POPC   C3B29577  39.436  16.579   7.964
 2154POPC   C4B29578  39.350  16.505   7.664
 2155POPC   NC329579  26.795  43.899   9.464
 2155POPC   PO429580  26.837  43.893   9.164
 2155POPC   GL129581  26.824  43.907   8.864
 2155POPC   GL229582  26.717  44.021   8.864
 2155POPC   C1A29583  26.852  43.872   8.564
 2155POPC   D2A29584  26.819  43.902   8.264
 2155POPC   C3A29585  26.820  43.859   7.964
 2155POPC   C4A29586  26.831  43.863   7.664
 2155POPC   C1B29587  26.680  44.081   8.564
 2155POPC   C2B29588  26.674  44.119   8.264
 2155POPC   C3B29589  26.688  44.073   7.964
 2155POPC   C4B29590  26.635  44.060   7.664
 2156POPC   NC329591   5.086   1.187   9.464
 2156POPC   PO429592   5.129   1.180   9.164
 2156POPC   GL129593   5.124   1.190   8.864
 2156POPC   GL229594   5.208   1.257   8.864
 2156POPC   C1A29595   5.046   1.185   8.564
 2156POPC   D2A29596   5.112   1.187   8.264
 2156POPC   C3A29597   5.077   1.200   7.964
 2156POPC   C4A29598   5.123   1.251   7.664
 2156POPC   C1B29599   5.242   1.428   8.564
 2156POPC   C2B29600   5.301   1.362   8.264
 2156POPC   C3B29601   5.285   1.412   7.964
 2156POPC   C4B29602   5.283   1.361   7.664
 2157POPC   NC329603  36.949  44.614   9.464
 2157POPC   PO429604  36.856  44.685   9.164
 2157POPC   GL129605  36.929  44.622   8.864
 2157POPC   GL229606  36.865  44.575   8.864
 2157POPC   C1A29607  36.914  44.618   8.564
 2157POPC   D2A29608  36.914  44.654   8.264
 2157POPC   C3A29609  36.902  44.620   7.964
 2157POPC   C4A29610  36.878  44.660   7.664
 2157POPC   C1B29611  36.800  44.485   8.564
 2157POPC   C2B29612  36.774  44.455   8.264
 2157POPC   C3B29613  36.766  44.466   7.964
 2157POPC   C4B29614  36.758  44.463   7.664
 2158POPC   NC329615  15.943   1.230   9.464
 2158POPC   PO429616  15.947   1.247   9.164
 2158POPC   GL129617  15.948   1.209   8.864
 2158POPC   GL229618  16.085   1.240   8.864
 2158POPC   C1A29619  15.932   1.206   8.564
 2158POPC   D2A29620  15.959   1.195   8.264
 2158POPC   C3A29621  15.953   1.177   7.964
 2158POPC   C4A29622  15.968   1.175   7.664
 2158POPC   C1B29623  16.155   1.137   8.564
 2158POPC   C2B29624  16.234   1.153   8.264
 2158POPC   C3B29625  16.250   1.135   7.964
 2158POPC   C4B29626  16.164   1.153   7.664
 2159POPC   NC329627  43.924  19.815   9.464
 2159POPC   PO429628  43.862  19.855   9.164
 2159POPC   GL129629  43.893  19.799   8.864
 2159POPC   GL229630  43.730  19.845   8.864
 2159POPC   C1A29631  43.907  19.879   8.564
 2159POPC   D2A29632  43.845  19.845   8.264
 2159POPC   C3A29633  43.898  19.859   7.964
 2159POPC   C4A29634  43.872  19.789   7.664
 2159POPC   C1B29635  43.655  19.850   8.564
 2159POPC   C2B29636  43.624  19.942   8.264
 2159POPC   C3B29637  43.635  19.871   7.964
 2159POPC   C4B29638  43.627  19.910   7.664
 2160POPC   NC329639   3.556  36.939   9.464
 2160POPC   PO429640   3.510  36.946   9.164
 2160POPC   GL129641   3.571  36.896   8.864
 2160POPC   GL229642   3.378  36.914   8.864
 2160POPC   C1A29643   3.513  36.891   8.564
 2160POPC   D2A29644   3.497  36.866   8.264
 2160POPC   C3A29645   3.585  36.915   7.964
 2160POPC   C4A29646   3.590  36.918   7.664
 2160POPC   C1B29647   3.333  36.877   8.564
 2160POPC   C2B29648   3.328  36.908   8.264
 2160POPC   C3B29649   3.302  36.845   7.964
 2160POPC   C4B29650   3.281  36.913   7.664
 2161POPC   NC329651   5.077   8.956   9.464
 2161POPC   PO429652   5.094   8.958   9.164
 2161POPC   GL129653   5.121   8.930   8.864
 2161POPC   GL229654   5.002   8.864   8.864
 2161POPC   C1A29655   5.067   8.960   8.564
 2161POPC   D2A29656   5.065   8.999   8.264
 2161POPC   C3A29657   5.140   8.934   7.964
 2161POPC   C4A29658   5.128   8.972   7.664
 2161POPC   C1B29659   4.929   8.853   8.564
 2161POPC   C2B29660   4.858   8.840   8.264
 2161POPC   C3B29661   4.876   8.771   7.964
 2161POPC   C4B29662   4.890   8.825   7.664
 2162POPC   NC329663  35.363  36.890   9.464
 2162POPC   PO429664  35.324  36.887   9.164
 2162POPC   GL129665  35.368  36.911   8.864
 2162POPC   GL229666  35.197  36.904   8.864
 2162POPC   C1A29667  35.366  36.865   8.564
 2162POPC   D2A29668  35.375  36.945   8.264
 2162POPC   C3A29669  35.340  36.898   7.964
 2162POPC   C4A29670  35.377  36.864   7.664
 2162POPC   C1B29671  35.093  36.952   8.564
 2162POPC   C2B29672  35.065  36.993   8.264
 2162POPC   C3B29673  35.061  36.936   7.964
 2162POPC   C4B29674  35.123  37.011   7.664
 2163POPC   NC329675   9.751  39.257   9.464
 2163POPC   PO429676   9.718  39.223   9.164
 2163POPC   GL129677   9.713  39.256   8.864
 2163POPC   GL229678   9.681  39.334   8.864
 2163POPC   C1A29679   9.753  39.184   8.564
 2163POPC   D2A29680   9.796  39.227   8.264
 2163POPC   C3A29681   9.760  39.241   7.964
 2163POPC   C4A29682   9.702  39.271   7.664
 2163POPC   C1B29683   9.634  39.487   8.564
 2163POPC   C2B29684   9.702  39.450   8.264
 2163POPC   C3B29685   9.630  39.432   7.964
 2163POPC   C4B29686   9.642  39.460   7.664
 2164POPC   NC329687  14.447  26.795   9.464
 2164POPC   PO429688  14.389  26.776   9.164
 2164POPC   GL129689  14.431  26.783   8.864
 2164POPC   GL229690  14.233  26.817   8.864
 2164POPC   C1A29691  14.434  26.816   8.564
 2164POPC   D2A29692  14.430  26.808   8.264
 2164POPC   C3A29693  14.406  26.861   7.964
 2164POPC   C4A29694  14.374  26.805   7.664
 2164POPC   C1B29695  14.158  26.845   8.564
 2164POPC   C2B29696  14.131  26.799   8.264
 2164POPC   C3B29697  14.187  26.786   7.964
 2164POPC   C4B29698  14.201  26.826   7.664
 2165POPC   NC329699  22.194  36.079   9.464
 2165POPC   PO429700  22.137  36.106   9.164
 2165POPC   GL129701  22.130  36.148   8.864
 2165POPC   GL229702  22.044  36.164   8.864
 2165POPC   C1A29703  22.156  36.150   8.564
 2165POPC   D2A29704  22.161  36.178   8.264
 2165POPC   C3A29705  22.141  36.083   7.964
 2165POPC   C4A29706  22.158  36.170   7.664
 2165POPC   C1B29707  21.886  36.155   8.564
 2165POPC   C2B29708  21.949  36.199   8.264
 2165POPC   C3B29709  21.904  36.229   7.964
 2165POPC   C4B29710  21.907  36.238   7.664
 2166POPC   NC329711  42.344  43.085   9.464
 2166POPC   PO429712  42.382  43.142   9.164
 2166POPC   GL129713  42.324  43.089   8.864
 2166POPC   GL229714  42.488  43.050   8.864
 2166POPC   C1A29715  42.331  43.090   8.564
 2166POPC   D2A29716  42.301  43.082   8.264
 2166POPC   C3A29717  42.340  43.109   7.964
 2166POPC   C4A29718  42.352  43.095   7.664
 2166POPC   C1B29719  42.603  43.081   8.564
 2166POPC   C2B29720  42.598  43.061   8.264
 2166POPC   C3B29721  42.590  43.098   7.964
 2166POPC   C4B29722  42.592  43.107   7.664
 2167POPC   NC329723  25.271  33.835   9.464
 2167POPC   PO429724  25.266  33.827   9.164
 2167POPC   GL129725  25.304  33.792   8.864
 2167POPC   GL229726  25.188  33.722   8.864
 2167POPC   C1A29727  25.221  33.828   8.564
 2167POPC   D2A29728  25.314  33.762   8.264
 2167POPC   C3A29729  25.249  33.807   7.964
 2167POPC   C4A29730  25.226  33.813   7.664
 2167POPC   C1B29731  25.013  33.679   8.564
 2167POPC   C2B29732  25.006  33.680   8.264
 2167POPC   C3B29733  25.003  33.729   7.964
 2167POPC   C4B29734  25.077  33.670   7.664
 2168POPC   NC329735  36.160  33.786   9.464
 2168POPC   PO429736  36.111  33.753   9.164
 2168POPC   GL129737  36.145  33.829   8.864
 2168POPC   GL229738  36.230  33.656   8.864
 2168POPC   C1A29739  36.125  33.834   8.564
 2168POPC   D2A29740  36.155  33.811   8.264
 2168POPC   C3A29741  36.164  33.769   7.964
 2168POPC   C4A29742  36.173  33.789   7.664
 2168POPC   C1B29743  36.244  33.549   8.564
 2168POPC   C2B29744  36.272  33.551   8.264
 2168POPC   C3B29745  36.224  33.602   7.964
 2168POPC   C4B29746  36.289  33.588   7.664
 2169POPC   NC329747  29.951   1.999   9.464
 2169POPC   PO429748  29.877   1.972   9.164
 2169POPC   GL129749  29.905   1.954   8.864
 2169POPC   GL229750  29.772   1.967   8.864
 2169POPC   C1A29751  29.902   2.001   8.564
 2169POPC   D2A29752  29.929   1.956   8.264
 2169POPC   C3A29753  29.904   2.023   7.964
 2169POPC   C4A29754  29.932   1.982   7.664
 2169POPC   C1B29755  29.711   1.968   8.564
 2169POPC   C2B29756  29.681   1.934   8.264
 2169POPC   C3B29757  29.655   1.938   7.964
 2169POPC   C4B29758  29.710   1.994   7.664
 2170POPC   NC329759   2.000  22.118   9.464
 2170POPC   PO429760   1.944  22.142   9.164
 2170POPC   GL129761   1.957  22.195   8.864
 2170POPC   GL229762   1.842  22.210   8.864
 2170POPC   C1A29763   1.940  22.175   8.564
 2170POPC   D2A29764   1.975  22.197   8.264
 2170POPC   C3A29765   2.026  22.163   7.964
 2170POPC   C4A29766   1.977  22.197   7.664
 2170POPC   C1B29767   1.826  22.279   8.564
 2170POPC   C2B29768   1.779  22.340   8.264
 2170POPC   C3B29769   1.781  22.355   7.964
 2170POPC   C4B29770   1.776  22.304   7.664
 2171POPC   NC329771  21.354  11.311   9.464
 2171POPC   PO429772  21.388  11.253   9.164
 2171POPC   GL129773  21.414  11.270   8.864
 2171POPC   GL229774  21.523  11.276   8.864
 2171POPC   C1A29775  21.436  11.260   8.564
 2171POPC   D2A29776  21.406  11.286   8.264
 2171POPC   C3A29777  21.421  11.268   7.964
 2171POPC   C4A29778  21.371  11.306   7.664
 2171POPC   C1B29779  21.608  11.222   8.564
 2171POPC   C2B29780  21.581  11.175   8.264
 2171POPC   C3B29781  21.581  11.161   7.964
 2171POPC   C4B29782  21.618  11.231   7.664
 2172POPC   NC329783  39.957  10.492   9.464
 2172POPC   PO429784  39.995  10.517   9.164
 2172POPC   GL129785  39.964  10.543   8.864
 2172POPC   GL229786  40.177  10.551   8.864
 2172POPC   C1A29787  39.980  10.545   8.564
 2172POPC   D2A29788  40.003  10.536   8.264
 2172POPC   C3A29789  40.038  10.522   7.964
 2172POPC   C4A29790  39.976  10.525   7.664
 2172POPC   C1B29791  40.240  10.460   8.564
 2172POPC   C2B29792  40.270  10.505   8.264
 2172POPC   C3B29793  40.228  10.449   7.964
 2172POPC   C4B29794  40.227  10.465   7.664
 2173POPC   NC329795  26.007  32.234   9.464
 2173POPC   PO429796  26.086  32.287   9.164
 2173POPC   GL129797  26.019  32.266   8.864
 2173POPC   GL229798  26.142  32.394   8.864
 2173POPC   C1A29799  26.079  32.289   8.564
 2173POPC   D2A29800  26.051  32.227   8.264
 2173POPC   C3A29801  26.065  32.258   7.964
 2173POPC   C4A29802  26.043  32.288   7.664
 2173POPC   C1B29803  26.183  32.434   8.564
 2173POPC   C2B29804  26.120  32.427   8.264
 2173POPC   C3B29805  26.159  32.517   7.964
 2173POPC   C4B29806  26.171  32.511   7.664
 2174POPC   NC329807  12.083  14.451   9.464
 2174POPC   PO429808  12.084  14.420   9.164
 2174POPC   GL129809  12.120  14.432   8.864
 2174POPC   GL229810  12.052  14.547   8.864
 2174POPC   C1A29811  12.076  14.363   8.564
 2174POPC   D2A29812  12.064  14.405   8.264
 2174POPC   C3A29813  12.075  14.412   7.964
 2174POPC   C4A29814  12.041  14.366   7.664
 2174POPC   C1B29815  12.079  14.629   8.564
 2174POPC   C2B29816  12.136  14.643   8.264
 2174POPC   C3B29817  12.122  14.663   7.964
 2174POPC   C4B29818  12.098  14.629   7.664
 2175POPC   NC329819   0.481  19.037   9.464
 2175POPC   PO429820   0.443  19.103   9.164
 2175POPC   GL129821   0.448  19.064   8.864
 2175POPC   GL229822   0.528  19.133   8.864
 2175POPC   C1A29823   0.485  19.043   8.564
 2175POPC   D2A29824   0.464  19.040   8.264
 2175POPC   C3A29825   0.404  19.062   7.964
 2175POPC   C4A29826   0.416  19.046   7.664
 2175POPC   C1B29827   0.572  19.304   8.564
 2175POPC   C2B29828   0.566  19.310   8.264
 2175POPC   C3B29829   0.510  19.269   7.964
 2175POPC   C4B29830   0.509  19.319   7.664
 2176POPC   NC329831  24.447  38.451   9.464
 2176POPC   PO429832  24.537  38.413   9.164
 2176POPC   GL129833  24.521  38.436   8.864
 2176POPC   GL229834  24.647  38.409   8.864
 2176POPC   C1A29835  24.443  38.470   8.564
 2176POPC   D2A29836  24.491  38.484   8.264
 2176POPC   C3A29837  24.479  38.467   7.964
 2176POPC   C4A29838  24.496  38.425   7.664
 2176POPC   C1B29839  24.766  38.326   8.564
 2176POPC   C2B29840  24.705  38.402   8.264
 2176POPC   C3B29841  24.729  38.315   7.964
 2176POPC   C4B29842  24.718  38.350   7.664
 2177POPC   NC329843  30.661  15.961   9.464
 2177POPC   PO429844  30.695  15.936   9.164
 2177POPC   GL129845  30.670  15.946   8.864
 2177POPC   GL229846  30.619  15.952   8.864
 2177POPC   C1A29847  30.711  15.917   8.564
 2177POPC   D2A29848  30.702  15.972   8.264
 2177POPC   C3A29849  30.706  16.004   7.964
 2177POPC   C4A29850  30.723  15.986   7.664
 2177POPC   C1B29851  30.429  15.992   8.564
 2177POPC   C2B29852  30.401  16.009   8.264
 2177POPC   C3B29853  30.483  15.949   7.964
 2177POPC   C4B29854  30.481  15.960   7.664
 2178POPC   NC329855  35.331  12.878   9.464
 2178POPC   PO429856  35.394  12.867   9.164
 2178POPC   GL129857  35.389  12.855   8.864
 2178POPC   GL229858  35.491  12.770   8.864
 2178POPC   C1A29859  35.371  12.836   8.564
 2178POPC   D2A29860  35.341  12.821   8.264
 2178POPC   C3A29861  35.362  12.873   7.964
 2178POPC   C4A29862  35.393  12.869   7.664
 2178POPC   C1B29863  35.604  12.763   8.564
 2178POPC   C2B29864  35.559  12.784   8.264
 2178POPC   C3B29865  35.573  12.777   7.964
 2178POPC   C4B29866  35.578  12.786   7.664
 2179POPC   NC329867  41.578   1.257   9.464
 2179POPC   PO429868  41.563   1.239   9.164
 2179POPC   GL129869  41.598   1.175   8.864
 2179POPC   GL229870  41.439   1.252   8.864
 2179POPC   C1A29871  41.585   1.236   8.564
 2179POPC   D2A29872  41.561   1.242   8.264
 2179POPC   C3A29873  41.554   1.250   7.964
 2179POPC   C4A29874  41.576   1.237   7.664
 2179POPC   C1B29875  41.345   1.235   8.564
 2179POPC   C2B29876  41.343   1.220   8.264
 2179POPC   C3B29877  41.285   1.215   7.964
 2179POPC   C4B29878  41.353   1.288   7.664
 2180POPC   NC329879  11.329   9.763   9.464
 2180POPC   PO429880  11.283   9.733   9.164
 2180POPC   GL129881  11.319   9.702   8.864
 2180POPC   GL229882  11.171   9.728   8.864
 2180POPC   C1A29883  11.298   9.781   8.564
 2180POPC   D2A29884  11.308   9.737   8.264
 2180POPC   C3A29885  11.310   9.777   7.964
 2180POPC   C4A29886  11.271   9.760   7.664
 2180POPC   C1B29887  11.021   9.757   8.564
 2180POPC   C2B29888  11.079   9.761   8.264
 2180POPC   C3B29889  11.010   9.817   7.964
 2180POPC   C4B29890  11.032   9.832   7.664
 2181POPC   NC329891  21.432   7.400   9.464
 2181POPC   PO429892  21.421   7.432   9.164
 2181POPC   GL129893  21.354   7.423   8.864
 2181POPC   GL229894  21.368   7.543   8.864
 2181POPC   C1A29895  21.404   7.431   8.564
 2181POPC   D2A29896  21.397   7.441   8.264
 2181POPC   C3A29897  21.362   7.431   7.964
 2181POPC   C4A29898  21.349   7.428   7.664
 2181POPC   C1B29899  21.414   7.650   8.564
 2181POPC   C2B29900  21.425   7.667   8.264
 2181POPC   C3B29901  21.391   7.692   7.964
 2181POPC   C4B29902  21.385   7.701   7.664
 2182POPC   NC329903  29.883   8.210   9.464
 2182POPC   PO429904  29.881   8.151   9.164
 2182POPC   GL129905  29.926   8.240   8.864
 2182POPC   GL229906  29.794   8.167   8.864
 2182POPC   C1A29907  29.967   8.216   8.564
 2182POPC   D2A29908  29.965   8.168   8.264
 2182POPC   C3A29909  29.890   8.155   7.964
 2182POPC   C4A29910  29.932   8.152   7.664
 2182POPC   C1B29911  29.707   8.022   8.564
 2182POPC   C2B29912  29.743   8.039   8.264
 2182POPC   C3B29913  29.768   8.005   7.964
 2182POPC   C4B29914  29.724   8.057   7.664
 2183POPC   NC329915  43.897   5.823   9.464
 2183POPC   PO429916  43.889   5.831   9.164
 2183POPC   GL129917  43.902   5.857   8.864
 2183POPC   GL229918  43.988   5.928   8.864
 2183POPC   C1A29919  43.892   5.899   8.564
 2183POPC   D2A29920  43.936   5.834   8.264
 2183POPC   C3A29921  43.847   5.900   7.964
 2183POPC   C4A29922  43.905   5.860   7.664
 2183POPC   C1B29923  44.024   6.116   8.564
 2183POPC   C2B29924  44.072   6.052   8.264
 2183POPC   C3B29925  44.037   6.075   7.964
 2183POPC   C4B29926  43.976   6.124   7.664
 2184POPC   NC329927  15.145  37.665   9.464
 2184POPC   PO429928  15.160  37.724   9.164
 2184POPC   GL129929  15.191  37.702   8.864
 2184POPC   GL229930  15.108  37.643   8.864
 2184POPC   C1A29931  15.143  37.708   8.564
 2184POPC   D2A29932  15.228  37.723   8.264
 2184POPC   C3A29933  15.222  37.694   7.964
 2184POPC   C4A29934  15.146  37.711   7.664
 2184POPC   C1B29935  14.977  37.539   8.564
 2184POPC   C2B29936  14.946  37.530   8.264
 2184POPC   C3B29937  15.013  37.566   7.964
 2184POPC   C4B29938  14.990  37.546   7.664
 2185POPC   NC329939  21.416  13.618   9.464
 2185POPC   PO429940  21.356  13.589   9.164
 2185POPC   GL129941  21.418  13.653   8.864
 2185POPC   GL229942  21.459  13.716   8.864
 2185POPC   C1A29943  21.429  13.658   8.564
 2185POPC   D2A29944  21.416  13.639   8.264
 2185POPC   C3A29945  21.371  13.586   7.964
 2185POPC   C4A29946  21.358  13.633   7.664
 2185POPC   C1B29947  21.509  13.836   8.564
 2185POPC   C2B29948  21.427  13.878   8.264
 2185POPC   C3B29949  21.452  13.823   7.964
 2185POPC   C4B29950  21.503  13.833   7.664
 2186POPC   NC329951  33.776  16.716   9.464
 2186POPC   PO429952  33.838  16.744   9.164
 2186POPC   GL129953  33.770  16.772   8.864
 2186POPC   GL229954  33.650  16.799   8.864
 2186POPC   C1A29955  33.819  16.749   8.564
 2186POPC   D2A29956  33.826  16.779   8.264
 2186POPC   C3A29957  33.771  16.774   7.964
 2186POPC   C4A29958  33.844  16.779   7.664
 2186POPC   C1B29959  33.577  16.782   8.564
 2186POPC   C2B29960  33.576  16.829   8.264
 2186POPC   C3B29961  33.555  16.767   7.964
 2186POPC   C4B29962  33.598  16.768   7.664
 2187POPC   NC329963  15.973  29.892   9.464
 2187POPC   PO429964  15.958  29.954   9.164
 2187POPC   GL129965  15.983  29.874   8.864
 2187POPC   GL229966  15.865  29.901   8.864
 2187POPC   C1A29967  16.002  29.916   8.564
 2187POPC   D2A29968  15.970  29.881   8.264
 2187POPC   C3A29969  15.992  29.967   7.964
 2187POPC   C4A29970  15.971  29.921   7.664
 2187POPC   C1B29971  15.741  29.942   8.564
 2187POPC   C2B29972  15.678  29.930   8.264
 2187POPC   C3B29973  15.695  29.950   7.964
 2187POPC   C4B29974  15.730  29.999   7.664
 2188POPC   NC329975  42.362  32.277   9.464
 2188POPC   PO429976  42.321  32.231   9.164
 2188POPC   GL129977  42.299  32.224   8.864
 2188POPC   GL229978  42.309  32.147   8.864
 2188POPC   C1A29979  42.307  32.271   8.564
 2188POPC   D2A29980  42.315  32.293   8.264
 2188POPC   C3A29981  42.350  32.214   7.964
 2188POPC   C4A29982  42.375  32.230   7.664
 2188POPC   C1B29983  42.292  32.041   8.564
 2188POPC   C2B29984  42.245  32.012   8.264
 2188POPC   C3B29985  42.289  32.023   7.964
 2188POPC   C4B29986  42.284  32.019   7.664
 2189POPC   NC329987  19.788  43.080   9.464
 2189POPC   PO429988  19.823  43.119   9.164
 2189POPC   GL129989  19.817  43.117   8.864
 2189POPC   GL229990  19.911  43.262   8.864
 2189POPC   C1A29991  19.821  43.137   8.564
 2189POPC   D2A29992  19.869  43.076   8.264
 2189POPC   C3A29993  19.829  43.157   7.964
 2189POPC   C4A29994  19.861  43.143   7.664
 2189POPC   C1B29995  19.951  43.295   8.564
 2189POPC   C2B29996  19.947  43.351   8.264
 2189POPC   C3B29997  19.957  43.299   7.964
 2189POPC   C4B29998  19.995  43.303   7.664
 2190POPC   NC329999  41.552   2.750   9.464
 2190POPC   PO430000  41.532   2.776   9.164
 2190POPC   GL130001  41.560   2.803   8.864
 2190POPC   GL230002  41.685   2.772   8.864
 2190POPC   C1A30003  41.582   2.766   8.564
 2190POPC   D2A30004  41.537   2.790   8.264
 2190POPC   C3A30005  41.595   2.795   7.964
 2190POPC   C4A30006  41.516   2.758   7.664
 2190POPC   C1B30007  41.848   2.756   8.564
 2190POPC   C2B30008  41.775   2.748   8.264
 2190POPC   C3B30009  41.828   2.760   7.964
 2190POPC   C4B30010  41.852   2.725   7.664
 2191POPC   NC330011  23.706  22.185   9.464
 2191POPC   PO430012  23.687  22.116   9.164
 2191POPC   GL130013  23.676  22.170   8.864
 2191POPC   GL230014  23.763  22.014   8.864
 2191POPC   C1A30015  23.739  22.212   8.564
 2191POPC   D2A30016  23.728  22.138   8.264
 2191POPC   C3A30017  23.752  22.118   7.964
 2191POPC   C4A30018  23.757  22.128   7.664
 2191POPC   C1B30019  23.798  21.950   8.564
 2191POPC   C2B30020  23.776  21.915   8.264
 2191POPC   C3B30021  23.779  21.889   7.964
 2191POPC   C4B30022  23.779  21.942   7.664
 2192POPC   NC330023  17.475  22.926   9.464
 2192POPC   PO430024  17.518  22.942   9.164
 2192POPC   GL130025  17.556  22.912   8.864
 2192POPC   GL230026  17.368  22.881   8.864
 2192POPC   C1A30027  17.494  22.978   8.564
 2192POPC   D2A30028  17.553  22.947   8.264
 2192POPC   C3A30029  17.493  22.921   7.964
 2192POPC   C4A30030  17.467  22.966   7.664
 2192POPC   C1B30031  17.245  22.894   8.564
 2192POPC   C2B30032  17.234  22.871   8.264
 2192POPC   C3B30033  17.297  22.861   7.964
 2192POPC   C4B30034  17.228  22.878   7.664
 2193POPC   NC330035  21.431   2.743   9.464
 2193POPC   PO430036  21.407   2.737   9.164
 2193POPC   GL130037  21.364   2.804   8.864
 2193POPC   GL230038  21.533   2.728   8.864
 2193POPC   C1A30039  21.429   2.798   8.564
 2193POPC   D2A30040  21.406   2.752   8.264
 2193POPC   C3A30041  21.401   2.763   7.964
 2193POPC   C4A30042  21.376   2.790   7.664
 2193POPC   C1B30043  21.610   2.662   8.564
 2193POPC   C2B30044  21.580   2.680   8.264
 2193POPC   C3B30045  21.604   2.669   7.964
 2193POPC   C4B30046  21.579   2.667   7.664
 2194POPC   NC330047   8.942   9.788   9.464
 2194POPC   PO430048   8.970   9.765   9.164
 2194POPC   GL130049   8.959   9.735   8.864
 2194POPC   GL230050   8.869   9.824   8.864
 2194POPC   C1A30051   9.009   9.733   8.564
 2194POPC   D2A30052   9.019   9.751   8.264
 2194POPC   C3A30053   9.002   9.787   7.964
 2194POPC   C4A30054   8.951   9.707   7.664
 2194POPC   C1B30055   8.784   9.877   8.564
 2194POPC   C2B30056   8.795   9.912   8.264
 2194POPC   C3B30057   8.779   9.935   7.964
 2194POPC   C4B30058   8.810   9.935   7.664
 2195POPC   NC330059  21.391  43.891   9.464
 2195POPC   PO430060  21.354  43.838   9.164
 2195POPC   GL130061  21.357  43.875   8.864
 2195POPC   GL230062  21.228  43.901   8.864
 2195POPC   C1A30063  21.430  43.884   8.564
 2195POPC   D2A30064  21.388  43.901   8.264
 2195POPC   C3A30065  21.391  43.901   7.964
 2195POPC   C4A30066  21.411  43.886   7.664
 2195POPC   C1B30067  21.216  43.970   8.564
 2195POPC   C2B30068  21.183  43.987   8.264
 2195POPC   C3B30069  21.173  44.014   7.964
 2195POPC   C4B30070  21.179  44.041   7.664
 2196POPC   NC330071   6.618  34.553   9.464
 2196POPC   PO430072   6.659  34.606   9.164
 2196POPC   GL130073   6.659  34.582   8.864
 2196POPC   GL230074   6.666  34.497   8.864
 2196POPC   C1A30075   6.606  34.602   8.564
 2196POPC   D2A30076   6.675  34.545   8.264
 2196POPC   C3A30077   6.635  34.585   7.964
 2196POPC   C4A30078   6.666  34.609   7.664
 2196POPC   C1B30079   6.668  34.368   8.564
 2196POPC   C2B30080   6.590  34.337   8.264
 2196POPC   C3B30081   6.665  34.363   7.964
 2196POPC   C4B30082   6.646  34.286   7.664
 2197POPC   NC330083   4.283  15.176   9.464
 2197POPC   PO430084   4.364  15.227   9.164
 2197POPC   GL130085   4.340  15.181   8.864
 2197POPC   GL230086   4.270  15.263   8.864
 2197POPC   C1A30087   4.353  15.214   8.564
 2197POPC   D2A30088   4.292  15.208   8.264
 2197POPC   C3A30089   4.293  15.136   7.964
 2197POPC   C4A30090   4.347  15.144   7.664
 2197POPC   C1B30091   4.285  15.435   8.564
 2197POPC   C2B30092   4.214  15.417   8.264
 2197POPC   C3B30093   4.252  15.391   7.964
 2197POPC   C4B30094   4.218  15.417   7.664
 2198POPC   NC330095   8.926  22.969   9.464
 2198POPC   PO430096   8.993  22.985   9.164
 2198POPC   GL130097   8.934  22.895   8.864
 2198POPC   GL230098   9.089  22.965   8.864
 2198POPC   C1A30099   8.950  22.974   8.564
 2198POPC   D2A30100   8.929  22.894   8.264
 2198POPC   C3A30101   8.931  22.972   7.964
 2198POPC   C4A30102   8.980  22.913   7.664
 2198POPC   C1B30103   9.195  23.056   8.564
 2198POPC   C2B30104   9.215  23.035   8.264
 2198POPC   C3B30105   9.223  23.029   7.964
 2198POPC   C4B30106   9.234  23.034   7.664
 2199POPC   NC330107  13.597  40.744   9.464
 2199POPC   PO430108  13.663  40.783   9.164
 2199POPC   GL130109  13.666  40.818   8.864
 2199POPC   GL230110  13.716  40.826   8.864
 2199POPC   C1A30111  13.608  40.815   8.564
 2199POPC   D2A30112  13.612  40.811   8.264
 2199POPC   C3A30113  13.667  40.797   7.964
 2199POPC   C4A30114  13.634  40.818   7.664
 2199POPC   C1B30115  13.798  40.990   8.564
 2199POPC   C2B30116  13.780  40.961   8.264
 2199POPC   C3B30117  13.825  40.908   7.964
 2199POPC   C4B30118  13.840  40.994   7.664
 2200POPC   NC330119  43.088  20.583   9.464
 2200POPC   PO430120  43.141  20.639   9.164
 2200POPC   GL130121  43.094  20.577   8.864
 2200POPC   GL230122  42.965  20.645   8.864
 2200POPC   C1A30123  43.135  20.603   8.564
 2200POPC   D2A30124  43.118  20.622   8.264
 2200POPC   C3A30125  43.073  20.596   7.964
 2200POPC   C4A30126  43.117  20.622   7.664
 2200POPC   C1B30127  42.894  20.725   8.564
 2200POPC   C2B30128  42.894  20.729   8.264
 2200POPC   C3B30129  42.831  20.687   7.964
 2200POPC   C4B30130  42.876  20.702   7.664
 2201POPC   NC330131  16.748   9.000   9.464
 2201POPC   PO430132  16.723   8.926   9.164
 2201POPC   GL130133  16.724   9.000   8.864
 2201POPC   GL230134  16.636   9.055   8.864
 2201POPC   C1A30135  16.720   9.020   8.564
 2201POPC   D2A30136  16.751   8.935   8.264
 2201POPC   C3A30137  16.714   8.986   7.964
 2201POPC   C4A30138  16.743   8.972   7.664
 2201POPC   C1B30139  16.577   9.143   8.564
 2201POPC   C2B30140  16.618   9.141   8.264
 2201POPC   C3B30141  16.613   9.144   7.964
 2201POPC   C4B30142  16.549   9.189   7.664
 2202POPC   NC330143  18.291  29.150   9.464
 2202POPC   PO430144  18.262  29.180   9.164
 2202POPC   GL130145  18.256  29.143   8.864
 2202POPC   GL230146  18.345  29.229   8.864
 2202POPC   C1A30147  18.238  29.114   8.564
 2202POPC   D2A30148  18.247  29.174   8.264
 2202POPC   C3A30149  18.248  29.165   7.964
 2202POPC   C4A30150  18.319  29.137   7.664
 2202POPC   C1B30151  18.387  29.395   8.564
 2202POPC   C2B30152  18.363  29.349   8.264
 2202POPC   C3B30153  18.392  29.388   7.964
 2202POPC   C4B30154  18.458  29.334   7.664
 2203POPC   NC330155  31.424   1.996   9.464
 2203POPC   PO430156  31.507   2.039   9.164
 2203POPC   GL130157  31.446   2.021   8.864
 2203POPC   GL230158  31.475   2.129   8.864
 2203POPC   C1A30159  31.516   1.972   8.564
 2203POPC   D2A30160  31.432   1.974   8.264
 2203POPC   C3A30161  31.451   2.004   7.964
 2203POPC   C4A30162  31.496   2.018   7.664
 2203POPC   C1B30163  31.426   2.286   8.564
 2203POPC   C2B30164  31.472   2.198   8.264
 2203POPC   C3B30165  31.482   2.236   7.964
 2203POPC   C4B30166  31.497   2.248   7.664
 2204POPC   NC330167  20.566   2.755   9.464
 2204POPC   PO430168  20.591   2.783   9.164
 2204POPC   GL130169  20.590   2.718   8.864
 2204POPC   GL230170  20.772   2.730   8.864
 2204POPC   C1A30171  20.656   2.763   8.564
 2204POPC   D2A30172  20.577   2.752   8.264
 2204POPC   C3A30173  20.618   2.725   7.964
 2204POPC   C4A30174  20.637   2.763   7.664
 2204POPC   C1B30175  20.826   2.658   8.564
 2204POPC   C2B30176  20.830   2.738   8.264
 2204POPC   C3B30177  20.857   2.735   7.964
 2204POPC   C4B30178  20.840   2.662   7.664
 2205POPC   NC330179   2.739  23.670   9.464
 2205POPC   PO430180   2.749  23.721   9.164
 2205POPC   GL130181   2.778  23.676   8.864
 2205POPC   GL230182   2.912  23.615   8.864
 2205POPC   C1A30183   2.733  23.733   8.564
 2205POPC   D2A30184   2.729  23.753   8.264
 2205POPC   C3A30185   2.775  23.682   7.964
 2205POPC   C4A30186   2.772  23.688   7.664
 2205POPC   C1B30187   2.970  23.557   8.564
 2205POPC   C2B30188   3.005  23.527   8.264
 2205POPC   C3B30189   2.998  23.560   7.964
 2205POPC   C4B30190   2.939  23.542   7.664
 2206POPC   NC330191  34.532  40.774   9.464
 2206POPC   PO430192  34.541  40.735   9.164
 2206POPC   GL130193  34.621  40.803   8.864
 2206POPC   GL230194  34.436  40.811   8.864
 2206POPC   C1A30195  34.608  40.757   8.564
 2206POPC   D2A30196  34.617  40.739   8.264
 2206POPC   C3A30197  34.579  40.741   7.964
 2206POPC   C4A30198  34.619  40.786   7.664
 2206POPC   C1B30199  34.322  40.902   8.564
 2206POPC   C2B30200  34.333  40.864   8.264
 2206POPC   C3B30201  34.323  40.906   7.964
 2206POPC   C4B30202  34.331  40.857   7.664
 2207POPC   NC330203  30.724  12.113   9.464
 2207POPC   PO430204  30.703  12.031   9.164
 2207POPC   GL130205  30.705  12.057   8.864
 2207POPC   GL230206  30.843  12.152   8.864
 2207POPC   C1A30207  30.732  12.103   8.564
 2207POPC   D2A30208  30.654  12.052   8.264
 2207POPC   C3A30209  30.735  12.069   7.964
 2207POPC   C4A30210  30.707  12.048   7.664
 2207POPC   C1B30211  30.896  12.118   8.564
 2207POPC   C2B30212  30.925  12.134   8.264
 2207POPC   C3B30213  30.927  12.139   7.964
 2207POPC   C4B30214  30.967  12.191   7.664
 2208POPC   NC330215   9.718  22.890   9.464
 2208POPC   PO430216   9.756  22.938   9.164
 2208POPC   GL130217   9.749  22.926   8.864
 2208POPC   GL230218   9.902  22.906   8.864
 2208POPC   C1A30219   9.740  22.916   8.564
 2208POPC   D2A30220   9.781  22.963   8.264
 2208POPC   C3A30221   9.790  22.905   7.964
 2208POPC   C4A30222   9.775  22.955   7.664
 2208POPC   C1B30223   9.966  22.792   8.564
 2208POPC   C2B30224   9.942  22.827   8.264
 2208POPC   C3B30225   9.987  22.804   7.964
 2208POPC   C4B30226   9.938  22.882   7.664
 2209POPC   NC330227  36.933   5.095   9.464
 2209POPC   PO430228  36.902   5.087   9.164
 2209POPC   GL130229  36.905   5.127   8.864
 2209POPC   GL230230  36.938   5.217   8.864
 2209POPC   C1A30231  36.925   5.109   8.564
 2209POPC   D2A30232  36.920   5.059   8.264
 2209POPC   C3A30233  36.889   5.056   7.964
 2209POPC   C4A30234  36.895   5.128   7.664
 2209POPC   C1B30235  36.978   5.351   8.564
 2209POPC   C2B30236  36.954   5.364   8.264
 2209POPC   C3B30237  37.019   5.301   7.964
 2209POPC   C4B30238  37.019   5.377   7.664
 2210POPC   NC330239   9.017  32.978   9.464
 2210POPC   PO430240   9.007  33.052   9.164
 2210POPC   GL130241   8.984  32.984   8.864
 2210POPC   GL230242   8.879  33.103   8.864
 2210POPC   C1A30243   9.012  33.019   8.564
 2210POPC   D2A30244   8.976  33.060   8.264
 2210POPC   C3A30245   9.019  33.058   7.964
 2210POPC   C4A30246   8.992  33.015   7.664
 2210POPC   C1B30247   8.804  33.135   8.564
 2210POPC   C2B30248   8.759  33.148   8.264
 2210POPC   C3B30249   8.771  33.165   7.964
 2210POPC   C4B30250   8.806  33.136   7.664
 2211POPC   NC330251   8.971  17.511   9.464
 2211POPC   PO430252   8.942  17.500   9.164
 2211POPC   GL130253   8.944  17.495   8.864
 2211POPC   GL230254   8.845  17.420   8.864
 2211POPC   C1A30255   8.956  17.539   8.564
 2211POPC   D2A30256   8.968  17.548   8.264
 2211POPC   C3A30257   8.968  17.478   7.964
 2211POPC   C4A30258   9.020  17.539   7.664
 2211POPC   C1B30259   8.713  17.426   8.564
 2211POPC   C2B30260   8.715  17.435   8.264
 2211POPC   C3B30261   8.765  17.440   7.964
 2211POPC   C4B30262   8.713  17.421   7.664
 2212POPC   NC330263  36.105  24.443   9.464
 2212POPC   PO430264  36.117  24.471   9.164
 2212POPC   GL130265  36.139  24.487   8.864
 2212POPC   GL230266  36.012  24.501   8.864
 2212POPC   C1A30267  36.146  24.534   8.564
 2212POPC   D2A30268  36.174  24.502   8.264
 2212POPC   C3A30269  36.127  24.506   7.964
 2212POPC   C4A30270  36.155  24.506   7.664
 2212POPC   C1B30271  35.877  24.525   8.564
 2212POPC   C2B30272  35.858  24.466   8.264
 2212POPC   C3B30273  35.870  24.501   7.964
 2212POPC   C4B30274  35.923  24.506   7.664
 2213POPC   NC330275   0.465  23.697   9.464
 2213POPC   PO430276   0.472  23.687   9.164
 2213POPC   GL130277   0.474  23.687   8.864
 2213POPC   GL230278   0.460  23.802   8.864
 2213POPC   C1A30279   0.474  23.675   8.564
 2213POPC   D2A30280   0.403  23.742   8.264
 2213POPC   C3A30281   0.410  23.750   7.964
 2213POPC   C4A30282   0.447  23.710   7.664
 2213POPC   C1B30283   0.491  23.954   8.564
 2213POPC   C2B30284   0.534  23.956   8.264
 2213POPC   C3B30285   0.547  23.972   7.964
 2213POPC   C4B30286   0.489  23.973   7.664
 2214POPC   NC330287   2.767  30.737   9.464
 2214POPC   PO430288   2.780  30.701   9.164
 2214POPC   GL130289   2.738  30.657   8.864
 2214POPC   GL230290   2.867  30.703   8.864
 2214POPC   C1A30291   2.782  30.729   8.564
 2214POPC   D2A30292   2.770  30.649   8.264
 2214POPC   C3A30293   2.778  30.683   7.964
 2214POPC   C4A30294   2.748  30.732   7.664
 2214POPC   C1B30295   3.017  30.818   8.564
 2214POPC   C2B30296   2.990  30.779   8.264
 2214POPC   C3B30297   3.015  30.817   7.964
 2214POPC   C4B30298   3.007  30.748   7.664
 2215POPC   NC330299  43.119  34.526   9.464
 2215POPC   PO430300  43.141  34.592   9.164
 2215POPC   GL130301  43.083  34.556   8.864
 2215POPC   GL230302  43.227  34.578   8.864
 2215POPC   C1A30303  43.119  34.616   8.564
 2215POPC   D2A30304  43.066  34.621   8.264
 2215POPC   C3A30305  43.142  34.539   7.964
 2215POPC   C4A30306  43.115  34.586   7.664
 2215POPC   C1B30307  43.356  34.546   8.564
 2215POPC   C2B30308  43.329  34.590   8.264
 2215POPC   C3B30309  43.340  34.546   7.964
 2215POPC   C4B30310  43.317  34.580   7.664
 2216POPC   NC330311  42.367   0.472   9.464
 2216POPC   PO430312  42.317   0.454   9.164
 2216POPC   GL130313  42.374   0.463   8.864
 2216POPC   GL230314  42.179   0.342   8.864
 2216POPC   C1A30315  42.290   0.483   8.564
 2216POPC   D2A30316  42.349   0.486   8.264
 2216POPC   C3A30317  42.304   0.432   7.964
 2216POPC   C4A30318  42.353   0.416   7.664
 2216POPC   C1B30319  42.158   0.333   8.564
 2216POPC   C2B30320  42.135   0.319   8.264
 2216POPC   C3B30321  42.146   0.322   7.964
 2216POPC   C4B30322  42.103   0.367   7.664
 2217POPC   NC330323  37.670   5.047   9.464
 2217POPC   PO430324  37.672   5.087   9.164
 2217POPC   GL130325  37.636   5.121   8.864
 2217POPC   GL230326  37.613   5.225   8.864
 2217POPC   C1A30327  37.658   5.069   8.564
 2217POPC   D2A30328  37.637   5.101   8.264
 2217POPC   C3A30329  37.638   5.114   7.964
 2217POPC   C4A30330  37.634   5.129   7.664
 2217POPC   C1B30331  37.560   5.295   8.564
 2217POPC   C2B30332  37.566   5.283   8.264
 2217POPC   C3B30333  37.572   5.317   7.964
 2217POPC   C4B30334  37.630   5.288   7.664
 2218POPC   NC330335  19.093  27.595   9.464
 2218POPC   PO430336  19.075  27.555   9.164
 2218POPC   GL130337  19.016  27.583   8.864
 2218POPC   GL230338  18.988  27.702   8.864
 2218POPC   C1A30339  19.108  27.568   8.564
 2218POPC   D2A30340  19.062  27.635   8.264
 2218POPC   C3A30341  19.044  27.591   7.964
 2218POPC   C4A30342  19.050  27.562   7.664
 2218POPC   C1B30343  18.832  27.791   8.564
 2218POPC   C2B30344  18.874  27.734   8.264
 2218POPC   C3B30345  18.877  27.762   7.964
 2218POPC   C4B30346  18.894  27.808   7.664
 2219POPC   NC330347  33.029  33.820   9.464
 2219POPC   PO430348  33.021  33.808   9.164
 2219POPC   GL130349  33.014  33.826   8.864
 2219POPC   GL230350  33.193  33.811   8.864
 2219POPC   C1A30351  33.057  33.766   8.564
 2219POPC   D2A30352  32.985  33.832   8.264
 2219POPC   C3A30353  33.001  33.810   7.964
 2219POPC   C4A30354  33.006  33.766   7.664
 2219POPC   C1B30355  33.246  33.840   8.564
 2219POPC   C2B30356  33.258  33.836   8.264
 2219POPC   C3B30357  33.231  33.853   7.964
 2219POPC   C4B30358  33.278  33.864   7.664
 2220POPC   NC330359  25.287  15.920   9.464
 2220POPC   PO430360  25.253  15.923   9.164
 2220POPC   GL130361  25.306  15.963   8.864
 2220POPC   GL230362  25.256  15.817   8.864
 2220POPC   C1A30363  25.251  15.975   8.564
 2220POPC   D2A30364  25.283  15.937   8.264
 2220POPC   C3A30365  25.288  15.908   7.964
 2220POPC   C4A30366  25.222  15.991   7.664
 2220POPC   C1B30367  25.217  15.733   8.564
 2220POPC   C2B30368  25.295  15.672   8.264
 2220POPC   C3B30369  25.259  15.675   7.964
 2220POPC   C4B30370  25.260  15.708   7.664
 2221POPC   NC330371  23.716   5.051   9.464
 2221POPC   PO430372  23.761   5.114   9.164
 2221POPC   GL130373  23.699   5.110   8.864
 2221POPC   GL230374  23.630   4.980   8.864
 2221POPC   C1A30375  23.664   5.106   8.564
 2221POPC   D2A30376  23.667   5.091   8.264
 2221POPC   C3A30377  23.743   5.098   7.964
 2221POPC   C4A30378  23.743   5.057   7.664
 2221POPC   C1B30379  23.535   4.931   8.564
 2221POPC   C2B30380  23.530   4.925   8.264
 2221POPC   C3B30381  23.539   4.949   7.964
 2221POPC   C4B30382  23.503   4.972   7.664
 2222POPC   NC330383  43.061  25.218   9.464
 2222POPC   PO430384  43.106  25.308   9.164
 2222POPC   GL130385  43.061  25.273   8.864
 2222POPC   GL230386  43.164  25.435   8.864
 2222POPC   C1A30387  43.122  25.271   8.564
 2222POPC   D2A30388  43.099  25.249   8.264
 2222POPC   C3A30389  43.117  25.312   7.964
 2222POPC   C4A30390  43.150  25.295   7.664
 2222POPC   C1B30391  43.145  25.512   8.564
 2222POPC   C2B30392  43.170  25.533   8.264
 2222POPC   C3B30393  43.161  25.495   7.964
 2222POPC   C4B30394  43.201  25.546   7.664
 2223POPC   NC330395  41.552  19.855   9.464
 2223POPC   PO430396  41.516  19.815   9.164
 2223POPC   GL130397  41.511  19.867   8.864
 2223POPC   GL230398  41.581  19.979   8.864
 2223POPC   C1A30399  41.585  19.865   8.564
 2223POPC   D2A30400  41.557  19.795   8.264
 2223POPC   C3A30401  41.530  19.830   7.964
 2223POPC   C4A30402  41.521  19.796   7.664
 2223POPC   C1B30403  41.731  20.023   8.564
 2223POPC   C2B30404  41.670  20.072   8.264
 2223POPC   C3B30405  41.652  19.999   7.964
 2223POPC   C4B30406  41.654  20.003   7.664
 2224POPC   NC330407  39.220  28.334   9.464
 2224POPC   PO430408  39.240  28.374   9.164
 2224POPC   GL130409  39.252  28.409   8.864
 2224POPC   GL230410  39.327  28.422   8.864
 2224POPC   C1A30411  39.267  28.378   8.564
 2224POPC   D2A30412  39.217  28.350   8.264
 2224POPC   C3A30413  39.238  28.419   7.964
 2224POPC   C4A30414  39.275  28.335   7.664
 2224POPC   C1B30415  39.468  28.546   8.564
 2224POPC   C2B30416  39.426  28.575   8.264
 2224POPC   C3B30417  39.440  28.484   7.964
 2224POPC   C4B30418  39.394  28.487   7.664
 2225POPC   NC330419  28.372   8.979   9.464
 2225POPC   PO430420  28.383   8.975   9.164
 2225POPC   GL130421  28.326   8.949   8.864
 2225POPC   GL230422  28.455   9.064   8.864
 2225POPC   C1A30423  28.413   8.922   8.564
 2225POPC   D2A30424  28.410   8.982   8.264
 2225POPC   C3A30425  28.369   8.946   7.964
 2225POPC   C4A30426  28.376   9.009   7.664
 2225POPC   C1B30427  28.502   9.194   8.564
 2225POPC   C2B30428  28.476   9.157   8.264
 2225POPC   C3B30429  28.540   9.185   7.964
 2225POPC   C4B30430  28.484   9.151   7.664
 2226POPC   NC330431  17.543  12.826   9.464
 2226POPC   PO430432  17.512  12.827   9.164
 2226POPC   GL130433  17.504  12.884   8.864
 2226POPC   GL230434  17.400  12.840   8.864
 2226POPC   C1A30435  17.473  12.844   8.564
 2226POPC   D2A30436  17.518  12.808   8.264
 2226POPC   C3A30437  17.512  12.829   7.964
 2226POPC   C4A30438  17.526  12.852   7.664
 2226POPC   C1B30439  17.237  12.856   8.564
 2226POPC   C2B30440  17.220  12.889   8.264
 2226POPC   C3B30441  17.210  12.878   7.964
 2226POPC   C4B30442  17.292  12.856   7.664
 2227POPC   NC330443  42.361  41.574   9.464
 2227POPC   PO430444  42.366  41.572   9.164
 2227POPC   GL130445  42.359  41.571   8.864
 2227POPC   GL230446  42.222  41.567   8.864
 2227POPC   C1A30447  42.309  41.526   8.564
 2227POPC   D2A30448  42.357  41.594   8.264
 2227POPC   C3A30449  42.334  41.554   7.964
 2227POPC   C4A30450  42.335  41.537   7.664
 2227POPC   C1B30451  42.109  41.489   8.564
 2227POPC   C2B30452  42.068  41.489   8.264
 2227POPC   C3B30453  42.097  41.491   7.964
 2227POPC   C4B30454  42.101  41.472   7.664
 2228POPC   NC330455  33.849  26.023   9.464
 2228POPC   PO430456  33.775  26.040   9.164
 2228POPC   GL130457  33.784  26.002   8.864
 2228POPC   GL230458  33.635  26.122   8.864
 2228POPC   C1A30459  33.802  26.024   8.564
 2228POPC   D2A30460  33.797  26.002   8.264
 2228POPC   C3A30461  33.810  26.082   7.964
 2228POPC   C4A30462  33.799  26.031   7.664
 2228POPC   C1B30463  33.559  26.157   8.564
 2228POPC   C2B30464  33.533  26.080   8.264
 2228POPC   C3B30465  33.562  26.156   7.964
 2228POPC   C4B30466  33.609  26.104   7.664
 2229POPC   NC330467   0.425  39.186   9.464
 2229POPC   PO430468   0.477  39.230   9.164
 2229POPC   GL130469   0.457  39.272   8.864
 2229POPC   GL230470   0.565  39.210   8.864
 2229POPC   C1A30471   0.487  39.211   8.564
 2229POPC   D2A30472   0.393  39.192   8.264
 2229POPC   C3A30473   0.465  39.256   7.964
 2229POPC   C4A30474   0.402  39.213   7.664
 2229POPC   C1B30475   0.668  39.224   8.564
 2229POPC   C2B30476   0.664  39.256   8.264
 2229POPC   C3B30477   0.649  39.307   7.964
 2229POPC   C4B30478   0.655  39.301   7.664
 2230POPC   NC330479  43.152   4.349   9.464
 2230POPC   PO430480  43.069   4.357   9.164
 2230POPC   GL130481  43.066   4.316   8.864
 2230POPC   GL230482  43.029   4.369   8.864
 2230POPC   C1A30483  43.069   4.312   8.564
 2230POPC   D2A30484  43.100   4.288   8.264
 2230POPC   C3A30485  43.110   4.284   7.964
 2230POPC   C4A30486  43.067   4.283   7.664
 2230POPC   C1B30487  42.941   4.415   8.564
 2230POPC   C2B30488  42.926   4.426   8.264
 2230POPC   C3B30489  42.921   4.405   7.964
 2230POPC   C4B30490  42.938   4.494   7.664
 2231POPC   NC330491  29.889   7.415   9.464
 2231POPC   PO430492  29.875   7.452   9.164
 2231POPC   GL130493  29.907   7.451   8.864
 2231POPC   GL230494  29.845   7.412   8.864
 2231POPC   C1A30495  29.940   7.426   8.564
 2231POPC   D2A30496  29.904   7.417   8.264
 2231POPC   C3A30497  29.903   7.447   7.964
 2231POPC   C4A30498  29.927   7.443   7.664
 2231POPC   C1B30499  29.646   7.445   8.564
 2231POPC   C2B30500  29.656   7.360   8.264
 2231POPC   C3B30501  29.708   7.435   7.964
 2231POPC   C4B30502  29.631   7.402   7.664
 2232POPC   NC330503   3.504  26.012   9.464
 2232POPC   PO430504   3.498  26.061   9.164
 2232POPC   GL130505   3.563  26.076   8.864
 2232POPC   GL230506   3.394  26.016   8.864
 2232POPC   C1A30507   3.523  26.004   8.564
 2232POPC   D2A30508   3.555  26.006   8.264
 2232POPC   C3A30509   3.544  26.054   7.964
 2232POPC   C4A30510   3.566  26.062   7.664
 2232POPC   C1B30511   3.332  25.986   8.564
 2232POPC   C2B30512   3.289  26.030   8.264
 2232POPC   C3B30513   3.292  26.027   7.964
 2232POPC   C4B30514   3.254  26.004   7.664
 2233POPC   NC330515  23.757  33.782   9.464
 2233POPC   PO430516  23.703  33.816   9.164
 2233POPC   GL130517  23.677  33.845   8.864
 2233POPC   GL230518  23.602  33.941   8.864
 2233POPC   C1A30519  23.737  33.766   8.564
 2233POPC   D2A30520  23.752  33.832   8.264
 2233POPC   C3A30521  23.722  33.753   7.964
 2233POPC   C4A30522  23.716  33.781   7.664
 2233POPC   C1B30523  23.569  33.967   8.564
 2233POPC   C2B30524  23.581  33.948   8.264
 2233POPC   C3B30525  23.555  33.970   7.964
 2233POPC   C4B30526  23.571  34.020   7.664
 2234POPC   NC330527  14.354   2.037   9.464
 2234POPC   PO430528  14.411   2.038   9.164
 2234POPC   GL130529  14.355   1.952   8.864
 2234POPC   GL230530  14.271   2.073   8.864
 2234POPC   C1A30531  14.414   2.023   8.564
 2234POPC   D2A30532  14.388   2.001   8.264
 2234POPC   C3A30533  14.428   1.965   7.964
 2234POPC   C4A30534  14.388   2.005   7.664
 2234POPC   C1B30535  14.181   2.127   8.564
 2234POPC   C2B30536  14.173   2.071   8.264
 2234POPC   C3B30537  14.163   2.053   7.964
 2234POPC   C4B30538  14.153   2.081   7.664
 2235POPC   NC330539  24.498  29.128   9.464
 2235POPC   PO430540  24.522  29.184   9.164
 2235POPC   GL130541  24.536  29.171   8.864
 2235POPC   GL230542  24.567  29.085   8.864
 2235POPC   C1A30543  24.536  29.168   8.564
 2235POPC   D2A30544  24.520  29.168   8.264
 2235POPC   C3A30545  24.491  29.146   7.964
 2235POPC   C4A30546  24.539  29.103   7.664
 2235POPC   C1B30547  24.699  29.005   8.564
 2235POPC   C2B30548  24.680  28.950   8.264
 2235POPC   C3B30549  24.687  29.036   7.964
 2235POPC   C4B30550  24.718  29.014   7.664
 2236POPC   NC330551  27.548  19.017   9.464
 2236POPC   PO430552  27.641  19.045   9.164
 2236POPC   GL130553  27.544  19.090   8.864
 2236POPC   GL230554  27.663  19.104   8.864
 2236POPC   C1A30555  27.617  19.093   8.564
 2236POPC   D2A30556  27.598  19.065   8.264
 2236POPC   C3A30557  27.583  19.067   7.964
 2236POPC   C4A30558  27.629  19.053   7.664
 2236POPC   C1B30559  27.865  19.185   8.564
 2236POPC   C2B30560  27.803  19.131   8.264
 2236POPC   C3B30561  27.821  19.106   7.964
 2236POPC   C4B30562  27.815  19.096   7.664
 2237POPC   NC330563  25.235  27.636   9.464
 2237POPC   PO430564  25.248  27.568   9.164
 2237POPC   GL130565  25.223  27.587   8.864
 2237POPC   GL230566  25.419  27.564   8.864
 2237POPC   C1A30567  25.289  27.592   8.564
 2237POPC   D2A30568  25.287  27.607   8.264
 2237POPC   C3A30569  25.282  27.569   7.964
 2237POPC   C4A30570  25.238  27.611   7.664
 2237POPC   C1B30571  25.498  27.568   8.564
 2237POPC   C2B30572  25.484  27.572   8.264
 2237POPC   C3B30573  25.479  27.630   7.964
 2237POPC   C4B30574  25.502  27.577   7.664
 2238POPC   NC330575  31.491  44.639   9.464
 2238POPC   PO430576  31.489  44.617   9.164
 2238POPC   GL130577  31.465  44.617   8.864
 2238POPC   GL230578  31.339  44.736   8.864
 2238POPC   C1A30579  31.497  44.638   8.564
 2238POPC   D2A30580  31.477  44.712   8.264
 2238POPC   C3A30581  31.511  44.658   7.964
 2238POPC   C4A30582  31.427  44.635   7.664
 2238POPC   C1B30583  31.298  44.808   8.564
 2238POPC   C2B30584  31.335  44.806   8.264
 2238POPC   C3B30585  31.274  44.835   7.964
 2238POPC   C4B30586  31.333  44.813   7.664
 2239POPC   NC330587   5.071  33.804   9.464
 2239POPC   PO430588   5.122  33.830   9.164
 2239POPC   GL130589   5.047  33.761   8.864
 2239POPC   GL230590   5.128  33.881   8.864
 2239POPC   C1A30591   5.117  33.841   8.564
 2239POPC   D2A30592   5.114  33.767   8.264
 2239POPC   C3A30593   5.069  33.833   7.964
 2239POPC   C4A30594   5.045  33.797   7.664
 2239POPC   C1B30595   5.185  34.038   8.564
 2239POPC   C2B30596   5.168  34.009   8.264
 2239POPC   C3B30597   5.181  34.005   7.964
 2239POPC   C4B30598   5.226  33.994   7.664
 2240POPC   NC330599   0.436  15.133   9.464
 2240POPC   PO430600   0.458  15.177   9.164
 2240POPC   GL130601   0.426  15.229   8.864
 2240POPC   GL230602   0.315  15.124   8.864
 2240POPC   C1A30603   0.455  15.207   8.564
 2240POPC   D2A30604   0.481  15.188   8.264
 2240POPC   C3A30605   0.456  15.168   7.964
 2240POPC   C4A30606   0.398  15.189   7.664
 2240POPC   C1B30607   0.265  14.971   8.564
 2240POPC   C2B30608   0.272  14.954   8.264
 2240POPC   C3B30609   0.288  15.011   7.964
 2240POPC   C4B30610   0.293  15.042   7.664
 2241POPC   NC330611  10.478   1.165   9.464
 2241POPC   PO430612  10.484   1.196   9.164
 2241POPC   GL130613  10.543   1.236   8.864
 2241POPC   GL230614  10.638   1.133   8.864
 2241POPC   C1A30615  10.553   1.185   8.564
 2241POPC   D2A30616  10.511   1.197   8.264
 2241POPC   C3A30617  10.494   1.192   7.964
 2241POPC   C4A30618  10.520   1.207   7.664
 2241POPC   C1B30619  10.673   1.008   8.564
 2241POPC   C2B30620  10.634   1.030   8.264
 2241POPC   C3B30621  10.629   1.020   7.964
 2241POPC   C4B30622  10.682   1.011   7.664
 2242POPC   NC330623  34.566  43.845   9.464
 2242POPC   PO430624  34.539  43.876   9.164
 2242POPC   GL130625  34.614  43.898   8.864
 2242POPC   GL230626  34.594  43.794   8.864
 2242POPC   C1A30627  34.599  43.906   8.564
 2242POPC   D2A30628  34.538  43.880   8.264
 2242POPC   C3A30629  34.622  43.843   7.964
 2242POPC   C4A30630  34.620  43.933   7.664
 2242POPC   C1B30631  34.667  43.676   8.564
 2242POPC   C2B30632  34.679  43.683   8.264
 2242POPC   C3B30633  34.641  43.634   7.964
 2242POPC   C4B30634  34.698  43.660   7.664
 2243POPC   NC330635  17.503   1.980   9.464
 2243POPC   PO430636  17.522   1.980   9.164
 2243POPC   GL130637  17.539   1.993   8.864
 2243POPC   GL230638  17.402   1.967   8.864
 2243POPC   C1A30639  17.469   1.976   8.564
 2243POPC   D2A30640  17.503   1.964   8.264
 2243POPC   C3A30641  17.527   1.982   7.964
 2243POPC   C4A30642  17.538   2.008   7.664
 2243POPC   C1B30643  17.224   1.863   8.564
 2243POPC   C2B30644  17.292   1.892   8.264
 2243POPC   C3B30645  17.298   1.933   7.964
 2243POPC   C4B30646  17.252   1.928   7.664
 2244POPC   NC330647  22.947  22.178   9.464
 2244POPC   PO430648  22.987  22.200   9.164
 2244POPC   GL130649  22.981  22.143   8.864
 2244POPC   GL230650  22.994  22.245   8.864
 2244POPC   C1A30651  22.961  22.199   8.564
 2244POPC   D2A30652  22.915  22.126   8.264
 2244POPC   C3A30653  22.889  22.193   7.964
 2244POPC   C4A30654  22.911  22.152   7.664
 2244POPC   C1B30655  23.079  22.356   8.564
 2244POPC   C2B30656  23.095  22.362   8.264
 2244POPC   C3B30657  23.026  22.353   7.964
 2244POPC   C4B30658  23.102  22.367   7.664
 2245POPC   NC330659  40.055  42.378   9.464
 2245POPC   PO430660  40.023  42.300   9.164
 2245POPC   GL130661  39.972  42.374   8.864
 2245POPC   GL230662  40.146  42.313   8.864
 2245POPC   C1A30663  39.991  42.287   8.564
 2245POPC   D2A30664  39.965  42.360   8.264
 2245POPC   C3A30665  39.992  42.349   7.964
 2245POPC   C4A30666  39.990  42.321   7.664
 2245POPC   C1B30667  40.270  42.251   8.564
 2245POPC   C2B30668  40.271  42.205   8.264
 2245POPC   C3B30669  40.235  42.216   7.964
 2245POPC   C4B30670  40.208  42.260   7.664
 2246POPC   NC330671  24.511  29.950   9.464
 2246POPC   PO430672  24.513  29.909   9.164
 2246POPC   GL130673  24.458  29.957   8.864
 2246POPC   GL230674  24.596  29.893   8.864
 2246POPC   C1A30675  24.540  29.947   8.564
 2246POPC   D2A30676  24.447  29.956   8.264
 2246POPC   C3A30677  24.539  29.927   7.964
 2246POPC   C4A30678  24.478  29.873   7.664
 2246POPC   C1B30679  24.707  29.794   8.564
 2246POPC   C2B30680  24.709  29.767   8.264
 2246POPC   C3B30681  24.673  29.813   7.964
 2246POPC   C4B30682  24.684  29.779   7.664
 2247POPC   NC330683  22.143  12.068   9.464
 2247POPC   PO430684  22.161  12.095   9.164
 2247POPC   GL130685  22.125  12.029   8.864
 2247POPC   GL230686  22.233  12.007   8.864
 2247POPC   C1A30687  22.168  12.037   8.564
 2247POPC   D2A30688  22.113  12.027   8.264
 2247POPC   C3A30689  22.127  12.087   7.964
 2247POPC   C4A30690  22.147  12.100   7.664
 2247POPC   C1B30691  22.325  11.923   8.564
 2247POPC   C2B30692  22.309  11.887   8.264
 2247POPC   C3B30693  22.278  11.857   7.964
 2247POPC   C4B30694  22.318  11.860   7.664
 2248POPC   NC330695  38.463  29.910   9.464
 2248POPC   PO430696  38.424  29.931   9.164
 2248POPC   GL130697  38.483  29.887   8.864
 2248POPC   GL230698  38.551  30.036   8.864
 2248POPC   C1A30699  38.471  29.871   8.564
 2248POPC   D2A30700  38.504  29.888   8.264
 2248POPC   C3A30701  38.491  29.953   7.964
 2248POPC   C4A30702  38.463  29.878   7.664
 2248POPC   C1B30703  38.557  30.166   8.564
 2248POPC   C2B30704  38.536  30.096   8.264
 2248POPC   C3B30705  38.522  30.153   7.964
 2248POPC   C4B30706  38.546  30.177   7.664
 2249POPC   NC330707  16.736  29.131   9.464
 2249POPC   PO430708  16.687  29.154   9.164
 2249POPC   GL130709  16.714  29.133   8.864
 2249POPC   GL230710  16.770  29.017   8.864
 2249POPC   C1A30711  16.743  29.178   8.564
 2249POPC   D2A30712  16.753  29.159   8.264
 2249POPC   C3A30713  16.756  29.134   7.964
 2249POPC   C4A30714  16.722  29.104   7.664
 2249POPC   C1B30715  16.883  28.935   8.564
 2249POPC   C2B30716  16.865  28.958   8.264
 2249POPC   C3B30717  16.888  28.928   7.964
 2249POPC   C4B30718  16.912  28.948   7.664
 2250POPC   NC330719   8.989  18.263   9.464
 2250POPC   PO430720   9.016  18.310   9.164
 2250POPC   GL130721   8.980  18.305   8.864
 2250POPC   GL230722   9.036  18.381   8.864
 2250POPC   C1A30723   9.002  18.284   8.564
 2250POPC   D2A30724   8.983  18.280   8.264
 2250POPC   C3A30725   8.933  18.316   7.964
 2250POPC   C4A30726   9.022  18.242   7.664
 2250POPC   C1B30727   9.016  18.533   8.564
 2250POPC   C2B30728   9.100  18.501   8.264
 2250POPC   C3B30729   9.023  18.553   7.964
 2250POPC   C4B30730   9.026  18.471   7.664
 2251POPC   NC330731  19.876   9.020   9.464
 2251POPC   PO430732  19.870   8.928   9.164
 2251POPC   GL130733  19.832   8.925   8.864
 2251POPC   GL230734  19.755   9.023   8.864
 2251POPC   C1A30735  19.853   9.019   8.564
 2251POPC   D2A30736  19.878   8.926   8.264
 2251POPC   C3A30737  19.838   8.936   7.964
 2251POPC   C4A30738  19.786   8.922   7.664
 2251POPC   C1B30739  19.593   9.034   8.564
 2251POPC   C2B30740  19.641   9.028   8.264
 2251POPC   C3B30741  19.553   9.061   7.964
 2251POPC   C4B30742  19.574   9.025   7.664
 2252POPC   NC330743  11.295  10.516   9.464
 2252POPC   PO430744  11.321  10.488   9.164
 2252POPC   GL130745  11.314  10.535   8.864
 2252POPC   GL230746  11.206  10.651   8.864
 2252POPC   C1A30747  11.266  10.565   8.564
 2252POPC   D2A30748  11.329  10.532   8.264
 2252POPC   C3A30749  11.251  10.526   7.964
 2252POPC   C4A30750  11.251  10.480   7.664
 2252POPC   C1B30751  11.188  10.748   8.564
 2252POPC   C2B30752  11.143  10.699   8.264
 2252POPC   C3B30753  11.157  10.732   7.964
 2252POPC   C4B30754  11.162  10.735   7.664
 2253POPC   NC330755  12.103  15.918   9.464
 2253POPC   PO430756  12.043  15.978   9.164
 2253POPC   GL130757  12.042  15.917   8.864
 2253POPC   GL230758  12.194  15.967   8.864
 2253POPC   C1A30759  12.106  16.001   8.564
 2253POPC   D2A30760  12.043  15.922   8.264
 2253POPC   C3A30761  12.073  15.907   7.964
 2253POPC   C4A30762  12.104  16.004   7.664
 2253POPC   C1B30763  12.347  16.036   8.564
 2253POPC   C2B30764  12.291  16.059   8.264
 2253POPC   C3B30765  12.349  16.022   7.964
 2253POPC   C4B30766  12.306  16.000   7.664
 2254POPC   NC330767  31.458  42.287   9.464
 2254POPC   PO430768  31.468  42.372   9.164
 2254POPC   GL130769  31.423  42.310   8.864
 2254POPC   GL230770  31.599  42.355   8.864
 2254POPC   C1A30771  31.505  42.344   8.564
 2254POPC   D2A30772  31.505  42.285   8.264
 2254POPC   C3A30773  31.496  42.364   7.964
 2254POPC   C4A30774  31.512  42.323   7.664
 2254POPC   C1B30775  31.683  42.431   8.564
 2254POPC   C2B30776  31.721  42.426   8.264
 2254POPC   C3B30777  31.698  42.414   7.964
 2254POPC   C4B30778  31.737  42.358   7.664
 2255POPC   NC330779   1.229  15.942   9.464
 2255POPC   PO430780   1.251  15.940   9.164
 2255POPC   GL130781   1.181  15.959   8.864
 2255POPC   GL230782   1.229  15.869   8.864
 2255POPC   C1A30783   1.199  15.942   8.564
 2255POPC   D2A30784   1.246  15.954   8.264
 2255POPC   C3A30785   1.194  15.917   7.964
 2255POPC   C4A30786   1.177  15.976   7.664
 2255POPC   C1B30787   1.253  15.674   8.564
 2255POPC   C2B30788   1.248  15.737   8.264
 2255POPC   C3B30789   1.250  15.664   7.964
 2255POPC   C4B30790   1.318  15.725   7.664
 2256POPC   NC330791   4.314  31.472   9.464
 2256POPC   PO430792   4.340  31.477   9.164
 2256POPC   GL130793   4.353  31.490   8.864
 2256POPC   GL230794   4.452  31.451   8.864
 2256POPC   C1A30795   4.367  31.441   8.564
 2256POPC   D2A30796   4.345  31.490   8.264
 2256POPC   C3A30797   4.326  31.490   7.964
 2256POPC   C4A30798   4.346  31.504   7.664
 2256POPC   C1B30799   4.546  31.398   8.564
 2256POPC   C2B30800   4.558  31.405   8.264
 2256POPC   C3B30801   4.605  31.398   7.964
 2256POPC   C4B30802   4.529  31.394   7.664
 2257POPC   NC330803   3.506  37.630   9.464
 2257POPC   PO430804   3.559  37.701   9.164
 2257POPC   GL130805   3.509  37.667   8.864
 2257POPC   GL230806   3.619  37.726   8.864
 2257POPC   C1A30807   3.538  37.697   8.564
 2257POPC   D2A30808   3.579  37.722   8.264
 2257POPC   C3A30809   3.523  37.652   7.964
 2257POPC   C4A30810   3.535  37.699   7.664
 2257POPC   C1B30811   3.726  37.885   8.564
 2257POPC   C2B30812   3.772  37.877   8.264
 2257POPC   C3B30813   3.714  37.825   7.964
 2257POPC   C4B30814   3.684  37.878   7.664
 2258POPC   NC330815   3.526  32.274   9.464
 2258POPC   PO430816   3.581  32.274   9.164
 2258POPC   GL130817   3.579  32.212   8.864
 2258POPC   GL230818   3.478  32.386   8.864
 2258POPC   C1A30819   3.516  32.239   8.564
 2258POPC   D2A30820   3.546  32.252   8.264
 2258POPC   C3A30821   3.505  32.207   7.964
 2258POPC   C4A30822   3.558  32.278   7.664
 2258POPC   C1B30823   3.467  32.511   8.564
 2258POPC   C2B30824   3.466  32.504   8.264
 2258POPC   C3B30825   3.450  32.445   7.964
 2258POPC   C4B30826   3.441  32.506   7.664
 2259POPC   NC330827  23.758   7.398   9.464
 2259POPC   PO430828  23.753   7.454   9.164
 2259POPC   GL130829  23.760   7.371   8.864
 2259POPC   GL230830  23.838   7.478   8.864
 2259POPC   C1A30831  23.722   7.383   8.564
 2259POPC   D2A30832  23.717   7.380   8.264
 2259POPC   C3A30833  23.681   7.454   7.964
 2259POPC   C4A30834  23.685   7.401   7.664
 2259POPC   C1B30835  23.914   7.651   8.564
 2259POPC   C2B30836  23.875   7.620   8.264
 2259POPC   C3B30837  23.911   7.627   7.964
 2259POPC   C4B30838  23.873   7.652   7.664
 2260POPC   NC330839  32.259   8.211   9.464
 2260POPC   PO430840  32.241   8.244   9.164
 2260POPC   GL130841  32.273   8.148   8.864
 2260POPC   GL230842  32.130   8.133   8.864
 2260POPC   C1A30843  32.277   8.214   8.564
 2260POPC   D2A30844  32.265   8.240   8.264
 2260POPC   C3A30845  32.250   8.224   7.964
 2260POPC   C4A30846  32.224   8.224   7.664
 2260POPC   C1B30847  31.974   8.072   8.564
 2260POPC   C2B30848  32.031   8.095   8.264
 2260POPC   C3B30849  32.002   8.144   7.964
 2260POPC   C4B30850  31.969   8.156   7.664
 2261POPC   NC330851  40.829  18.317   9.464
 2261POPC   PO430852  40.745  18.318   9.164
 2261POPC   GL130853  40.736  18.284   8.864
 2261POPC   GL230854  40.715  18.165   8.864
 2261POPC   C1A30855  40.821  18.278   8.564
 2261POPC   D2A30856  40.770  18.287   8.264
 2261POPC   C3A30857  40.802  18.278   7.964
 2261POPC   C4A30858  40.783  18.277   7.664
 2261POPC   C1B30859  40.723  18.036   8.564
 2261POPC   C2B30860  40.726  18.053   8.264
 2261POPC   C3B30861  40.711  18.007   7.964
 2261POPC   C4B30862  40.676  18.097   7.664
 2262POPC   NC330863  44.664  35.346   9.464
 2262POPC   PO430864  44.696  35.371   9.164
 2262POPC   GL130865  44.690  35.345   8.864
 2262POPC   GL230866  44.622  35.478   8.864
 2262POPC   C1A30867  44.664  35.310   8.564
 2262POPC   D2A30868  44.676  35.345   8.264
 2262POPC   C3A30869  44.626  35.386   7.964
 2262POPC   C4A30870  44.619  35.319   7.664
 2262POPC   C1B30871  44.632  35.629   8.564
 2262POPC   C2B30872  44.635  35.583   8.264
 2262POPC   C3B30873  44.602  35.643   7.964
 2262POPC   C4B30874  44.628  35.610   7.664
 2263POPC   NC330875  30.719  27.608   9.464
 2263POPC   PO430876  30.706  27.550   9.164
 2263POPC   GL130877  30.744  27.640   8.864
 2263POPC   GL230878  30.680  27.453   8.864
 2263POPC   C1A30879  30.650  27.581   8.564
 2263POPC   D2A30880  30.695  27.600   8.264
 2263POPC   C3A30881  30.736  27.572   7.964
 2263POPC   C4A30882  30.673  27.620   7.664
 2263POPC   C1B30883  30.578  27.392   8.564
 2263POPC   C2B30884  30.653  27.394   8.264
 2263POPC   C3B30885  30.653  27.319   7.964
 2263POPC   C4B30886  30.584  27.310   7.664
 2264POPC   NC330887  16.692   1.207   9.464
 2264POPC   PO430888  16.773   1.197   9.164
 2264POPC   GL130889  16.766   1.209   8.864
 2264POPC   GL230890  16.620   1.230   8.864
 2264POPC   C1A30891  16.758   1.252   8.564
 2264POPC   D2A30892  16.770   1.177   8.264
 2264POPC   C3A30893  16.703   1.200   7.964
 2264POPC   C4A30894  16.761   1.166   7.664
 2264POPC   C1B30895  16.453   1.260   8.564
 2264POPC   C2B30896  16.462   1.190   8.264
 2264POPC   C3B30897  16.439   1.247   7.964
 2264POPC   C4B30898  16.527   1.229   7.664
 2265POPC   NC330899  36.903  34.614   9.464
 2265POPC   PO430900  36.861  34.534   9.164
 2265POPC   GL130901  36.914  34.594   8.864
 2265POPC   GL230902  36.987  34.582   8.864
 2265POPC   C1A30903  36.894  34.573   8.564
 2265POPC   D2A30904  36.854  34.622   8.264
 2265POPC   C3A30905  36.924  34.536   7.964
 2265POPC   C4A30906  36.873  34.624   7.664
 2265POPC   C1B30907  37.114  34.557   8.564
 2265POPC   C2B30908  37.153  34.554   8.264
 2265POPC   C3B30909  37.165  34.555   7.964
 2265POPC   C4B30910  37.125  34.601   7.664
 2266POPC   NC330911  24.539  44.684   9.464
 2266POPC   PO430912  24.490  44.668   9.164
 2266POPC   GL130913  24.471  44.683   8.864
 2266POPC   GL230914  24.392  44.666   8.864
 2266POPC   C1A30915  24.531  44.635   8.564
 2266POPC   D2A30916  24.458  44.698   8.264
 2266POPC   C3A30917  24.480  44.671   7.964
 2266POPC   C4A30918  24.463  44.656   7.664
 2266POPC   C1B30919  24.268  44.582   8.564
 2266POPC   C2B30920  24.262  44.583   8.264
 2266POPC   C3B30921  24.195  44.578   7.964
 2266POPC   C4B30922  24.234  44.637   7.664
 2267POPC   NC330923   9.716  40.801   9.464
 2267POPC   PO430924   9.777  40.820   9.164
 2267POPC   GL130925   9.776  40.802   8.864
 2267POPC   GL230926   9.658  40.671   8.864
 2267POPC   C1A30927   9.706  40.754   8.564
 2267POPC   D2A30928   9.729  40.809   8.264
 2267POPC   C3A30929   9.769  40.763   7.964
 2267POPC   C4A30930   9.742  40.812   7.664
 2267POPC   C1B30931   9.622  40.633   8.564
 2267POPC   C2B30932   9.602  40.556   8.264
 2267POPC   C3B30933   9.582  40.631   7.964
 2267POPC   C4B30934   9.551  40.584   7.664
 2268POPC   NC330935   6.636   8.956   9.464
 2268POPC   PO430936   6.630   8.933   9.164
 2268POPC   GL130937   6.649   8.988   8.864
 2268POPC   GL230938   6.737   8.839   8.864
 2268POPC   C1A30939   6.645   9.004   8.564
 2268POPC   D2A30940   6.673   9.011   8.264
 2268POPC   C3A30941   6.684   9.001   7.964
 2268POPC   C4A30942   6.689   8.987   7.664
 2268POPC   C1B30943   6.734   8.716   8.564
 2268POPC   C2B30944   6.757   8.792   8.264
 2268POPC   C3B30945   6.819   8.783   7.964
 2268POPC   C4B30946   6.768   8.800   7.664
 2269POPC   NC330947  40.006  40.813   9.464
 2269POPC   PO430948  39.976  40.803   9.164
 2269POPC   GL130949  40.056  40.757   8.864
 2269POPC   GL230950  40.103  40.743   8.864
 2269POPC   C1A30951  40.003  40.734   8.564
 2269POPC   D2A30952  40.035  40.833   8.264
 2269POPC   C3A30953  40.036  40.794   7.964
 2269POPC   C4A30954  40.047  40.803   7.664
 2269POPC   C1B30955  40.279  40.722   8.564
 2269POPC   C2B30956  40.283  40.761   8.264
 2269POPC   C3B30957  40.272  40.703   7.964
 2269POPC   C4B30958  40.295  40.714   7.664
 2270POPC   NC330959  14.424  19.855   9.464
 2270POPC   PO430960  14.445  19.874   9.164
 2270POPC   GL130961  14.359  19.798   8.864
 2270POPC   GL230962  14.391  19.662   8.864
 2270POPC   C1A30963  14.388  19.853   8.564
 2270POPC   D2A30964  14.426  19.868   8.264
 2270POPC   C3A30965  14.425  19.815   7.964
 2270POPC   C4A30966  14.382  19.817   7.664
 2270POPC   C1B30967  14.334  19.636   8.564
 2270POPC   C2B30968  14.389  19.586   8.264
 2270POPC   C3B30969  14.387  19.545   7.964
 2270POPC   C4B30970  14.328  19.600   7.664
 2271POPC   NC330971  22.955  11.317   9.464
 2271POPC   PO430972  22.955  11.284   9.164
 2271POPC   GL130973  22.889  11.332   8.864
 2271POPC   GL230974  22.934  11.217   8.864
 2271POPC   C1A30975  22.971  11.273   8.564
 2271POPC   D2A30976  22.928  11.279   8.264
 2271POPC   C3A30977  22.933  11.284   7.964
 2271POPC   C4A30978  22.906  11.338   7.664
 2271POPC   C1B30979  22.924  11.055   8.564
 2271POPC   C2B30980  22.886  11.086   8.264
 2271POPC   C3B30981  22.965  11.078   7.964
 2271POPC   C4B30982  22.882  11.077   7.664
 2272POPC   NC330983  11.298  31.473   9.464
 2272POPC   PO430984  11.252  31.476   9.164
 2272POPC   GL130985  11.324  31.486   8.864
 2272POPC   GL230986  11.305  31.316   8.864
 2272POPC   C1A30987  11.307  31.480   8.564
 2272POPC   D2A30988  11.332  31.455   8.264
 2272POPC   C3A30989  11.314  31.478   7.964
 2272POPC   C4A30990  11.337  31.483   7.664
 2272POPC   C1B30991  11.338  31.220   8.564
 2272POPC   C2B30992  11.334  31.271   8.264
 2272POPC   C3B30993  11.377  31.178   7.964
 2272POPC   C4B30994  11.395  31.265   7.664
 2273POPC   NC330995   7.457  32.204   9.464
 2273POPC   PO430996   7.419  32.287   9.164
 2273POPC   GL130997   7.373  32.278   8.864
 2273POPC   GL230998   7.343  32.390   8.864
 2273POPC   C1A30999   7.384  32.236   8.564
 2273POPC   D2A31000   7.448  32.284   8.264
 2273POPC   C3A31001   7.372  32.241   7.964
 2273POPC   C4A31002   7.385  32.289   7.664
 2273POPC   C1B31003   7.284  32.444   8.564
 2273POPC   C2B31004   7.311  32.449   8.264
 2273POPC   C3B31005   7.306  32.414   7.964
 2273POPC   C4B31006   7.317  32.450   7.664
 2274POPC   NC331007  32.284   4.270   9.464
 2274POPC   PO431008  32.207   4.307   9.164
 2274POPC   GL131009  32.289   4.313   8.864
 2274POPC   GL231010  32.250   4.413   8.864
 2274POPC   C1A31011  32.244   4.279   8.564
 2274POPC   D2A31012  32.298   4.326   8.264
 2274POPC   C3A31013  32.214   4.287   7.964
 2274POPC   C4A31014  32.217   4.287   7.664
 2274POPC   C1B31015  32.208   4.570   8.564
 2274POPC   C2B31016  32.173   4.573   8.264
 2274POPC   C3B31017  32.170   4.605   7.964
 2274POPC   C4B31018  32.193   4.556   7.664
 2275POPC   NC331019   1.964  25.298   9.464
 2275POPC   PO431020   1.981  25.241   9.164
 2275POPC   GL131021   1.944  25.243   8.864
 2275POPC   GL231022   2.126  25.180   8.864
 2275POPC   C1A31023   1.980  25.305   8.564
 2275POPC   D2A31024   1.995  25.223   8.264
 2275POPC   C3A31025   1.983  25.271   7.964
 2275POPC   C4A31026   1.945  25.265   7.664
 2275POPC   C1B31027   2.190  25.187   8.564
 2275POPC   C2B31028   2.215  25.176   8.264
 2275POPC   C3B31029   2.264  25.177   7.964
 2275POPC   C4B31030   2.191  25.207   7.664
 2276POPC   NC331031  39.962   5.897   9.464
 2276POPC   PO431032  39.974   5.899   9.164
 2276POPC   GL131033  40.030   5.888   8.864
 2276POPC   GL231034  40.007   6.033   8.864
 2276POPC   C1A31035  39.992   5.820   8.564
 2276POPC   D2A31036  39.981   5.842   8.264
 2276POPC   C3A31037  40.028   5.893   7.964
 2276POPC   C4A31038  40.044   5.909   7.664
 2276POPC   C1B31039  40.051   6.112   8.564
 2276POPC   C2B31040  40.035   6.094   8.264
 2276POPC   C3B31041  40.023   6.127   7.964
 2276POPC   C4B31042  40.022   6.088   7.664
 2277POPC   NC331043  10.494  26.059   9.464
 2277POPC   PO431044  10.562  26.056   9.164
 2277POPC   GL131045  10.482  26.091   8.864
 2277POPC   GL231046  10.387  26.027   8.864
 2277POPC   C1A31047  10.569  26.030   8.564
 2277POPC   D2A31048  10.479  25.998   8.264
 2277POPC   C3A31049  10.561  26.016   7.964
 2277POPC   C4A31050  10.561  26.035   7.664
 2277POPC   C1B31051  10.259  25.893   8.564
 2277POPC   C2B31052  10.305  25.932   8.264
 2277POPC   C3B31053  10.269  25.975   7.964
 2277POPC   C4B31054  10.256  25.900   7.664
 2278POPC   NC331055  27.566  35.383   9.464
 2278POPC   PO431056  27.577  35.305   9.164
 2278POPC   GL131057  27.572  35.392   8.864
 2278POPC   GL231058  27.584  35.273   8.864
 2278POPC   C1A31059  27.556  35.395   8.564
 2278POPC   D2A31060  27.587  35.318   8.264
 2278POPC   C3A31061  27.588  35.336   7.964
 2278POPC   C4A31062  27.544  35.336   7.664
 2278POPC   C1B31063  27.649  35.074   8.564
 2278POPC   C2B31064  27.608  35.121   8.264
 2278POPC   C3B31065  27.622  35.081   7.964
 2278POPC   C4B31066  27.638  35.139   7.664
 2279POPC   NC331067   5.135  39.266   9.464
 2279POPC   PO431068   5.136  39.277   9.164
 2279POPC   GL131069   5.098  39.191   8.864
 2279POPC   GL231070   4.985  39.107   8.864
 2279POPC   C1A31071   5.116  39.269   8.564
 2279POPC   D2A31072   5.055  39.231   8.264
 2279POPC   C3A31073   5.118  39.250   7.964
 2279POPC   C4A31074   5.082  39.223   7.664
 2279POPC   C1B31075   5.004  39.040   8.564
 2279POPC   C2B31076   4.979  39.027   8.264
 2279POPC   C3B31077   5.005  39.038   7.964
 2279POPC   C4B31078   4.938  39.028   7.664
 2280POPC   NC331079  26.033  26.036   9.464
 2280POPC   PO431080  26.069  26.031   9.164
 2280POPC   GL131081  26.091  26.056   8.864
 2280POPC   GL231082  26.141  25.994   8.864
 2280POPC   C1A31083  26.046  26.041   8.564
 2280POPC   D2A31084  26.033  26.005   8.264
 2280POPC   C3A31085  26.020  26.023   7.964
 2280POPC   C4A31086  26.069  26.004   7.664
 2280POPC   C1B31087  26.221  25.916   8.564
 2280POPC   C2B31088  26.242  25.843   8.264
 2280POPC   C3B31089  26.185  25.914   7.964
 2280POPC   C4B31090  26.270  25.910   7.664
 2281POPC   NC331091  20.653  10.518   9.464
 2281POPC   PO431092  20.628  10.570   9.164
 2281POPC   GL131093  20.593  10.494   8.864
 2281POPC   GL231094  20.763  10.491   8.864
 2281POPC   C1A31095  20.640  10.538   8.564
 2281POPC   D2A31096  20.614  10.545   8.264
 2281POPC   C3A31097  20.637  10.492   7.964
 2281POPC   C4A31098  20.568  10.566   7.664
 2281POPC   C1B31099  20.812  10.542   8.564
 2281POPC   C2B31100  20.907  10.495   8.264
 2281POPC   C3B31101  20.813  10.495   7.964
 2281POPC   C4B31102  20.829  10.495   7.664
 2282POPC   NC331103  32.983  21.363   9.464
 2282POPC   PO431104  32.980  21.406   9.164
 2282POPC   GL131105  32.986  21.436   8.864
 2282POPC   GL231106  33.068  21.462   8.864
 2282POPC   C1A31107  33.032  21.415   8.564
 2282POPC   D2A31108  32.975  21.425   8.264
 2282POPC   C3A31109  33.073  21.429   7.964
 2282POPC   C4A31110  32.988  21.412   7.664
 2282POPC   C1B31111  33.008  21.609   8.564
 2282POPC   C2B31112  33.041  21.659   8.264
 2282POPC   C3B31113  33.034  21.659   7.964
 2282POPC   C4B31114  33.079  21.604   7.664
 2283POPC   NC331115  40.830  27.624   9.464
 2283POPC   PO431116  40.810  27.558   9.164
 2283POPC   GL131117  40.778  27.605   8.864
 2283POPC   GL231118  40.786  27.729   8.864
 2283POPC   C1A31119  40.821  27.609   8.564
 2283POPC   D2A31120  40.775  27.623   8.264
 2283POPC   C3A31121  40.805  27.603   7.964
 2283POPC   C4A31122  40.785  27.637   7.664
 2283POPC   C1B31123  40.853  27.837   8.564
 2283POPC   C2B31124  40.860  27.866   8.264
 2283POPC   C3B31125  40.856  27.785   7.964
 2283POPC   C4B31126  40.865  27.867   7.664
 2284POPC   NC331127  41.539  30.711   9.464
 2284POPC   PO431128  41.592  30.664   9.164
 2284POPC   GL131129  41.581  30.721   8.864
 2284POPC   GL231130  41.709  30.674   8.864
 2284POPC   C1A31131  41.557  30.717   8.564
 2284POPC   D2A31132  41.523  30.735   8.264
 2284POPC   C3A31133  41.535  30.662   7.964
 2284POPC   C4A31134  41.586  30.713   7.664
 2284POPC   C1B31135  41.817  30.705   8.564
 2284POPC   C2B31136  41.852  30.686   8.264
 2284POPC   C3B31137  41.767  30.661   7.964
 2284POPC   C4B31138  41.829  30.685   7.664
 2285POPC   NC331139  25.269   7.466   9.464
 2285POPC   PO431140  25.267   7.443   9.164
 2285POPC   GL131141  25.272   7.397   8.864
 2285POPC   GL231142  25.246   7.506   8.864
 2285POPC   C1A31143  25.277   7.392   8.564
 2285POPC   D2A31144  25.286   7.378   8.264
 2285POPC   C3A31145  25.230   7.383   7.964
 2285POPC   C4A31146  25.314   7.457   7.664
 2285POPC   C1B31147  25.205   7.647   8.564
 2285POPC   C2B31148  25.221   7.625   8.264
 2285POPC   C3B31149  25.236   7.704   7.964
 2285POPC   C4B31150  25.233   7.637   7.664
 2286POPC   NC331151   1.227  26.771   9.464
 2286POPC   PO431152   1.246  26.795   9.164
 2286POPC   GL131153   1.173  26.862   8.864
 2286POPC   GL231154   1.328  26.760   8.864
 2286POPC   C1A31155   1.180  26.847   8.564
 2286POPC   D2A31156   1.198  26.805   8.264
 2286POPC   C3A31157   1.200  26.781   7.964
 2286POPC   C4A31158   1.253  26.827   7.664
 2286POPC   C1B31159   1.434  26.734   8.564
 2286POPC   C2B31160   1.461  26.666   8.264
 2286POPC   C3B31161   1.400  26.712   7.964
 2286POPC   C4B31162   1.451  26.709   7.664
 2287POPC   NC331163  11.338   8.926   9.464
 2287POPC   PO431164  11.334   8.933   9.164
 2287POPC   GL131165  11.252   9.004   8.864
 2287POPC   GL231166  11.322   8.839   8.864
 2287POPC   C1A31167  11.285   9.010   8.564
 2287POPC   D2A31168  11.339   8.994   8.264
 2287POPC   C3A31169  11.311   9.009   7.964
 2287POPC   C4A31170  11.313   8.950   7.664
 2287POPC   C1B31171  11.335   8.690   8.564
 2287POPC   C2B31172  11.369   8.701   8.264
 2287POPC   C3B31173  11.394   8.776   7.964
 2287POPC   C4B31174  11.320   8.701   7.664
 2288POPC   NC331175  21.395   1.204   9.464
 2288POPC   PO431176  21.377   1.211   9.164
 2288POPC   GL131177  21.394   1.190   8.864
 2288POPC   GL231178  21.435   1.320   8.864
 2288POPC   C1A31179  21.339   1.245   8.564
 2288POPC   D2A31180  21.422   1.172   8.264
 2288POPC   C3A31181  21.338   1.194   7.964
 2288POPC   C4A31182  21.411   1.236   7.664
 2288POPC   C1B31183  21.433   1.501   8.564
 2288POPC   C2B31184  21.415   1.499   8.264
 2288POPC   C3B31185  21.367   1.465   7.964
 2288POPC   C4B31186  21.450   1.414   7.664
 2289POPC   NC331187   8.971  14.426   9.464
 2289POPC   PO431188   8.953  14.434   9.164
 2289POPC   GL131189   8.982  14.390   8.864
 2289POPC   GL231190   9.076  14.411   8.864
 2289POPC   C1A31191   9.017  14.395   8.564
 2289POPC   D2A31192   8.947  14.427   8.264
 2289POPC   C3A31193   8.931  14.355   7.964
 2289POPC   C4A31194   8.937  14.396   7.664
 2289POPC   C1B31195   9.192  14.290   8.564
 2289POPC   C2B31196   9.214  14.319   8.264
 2289POPC   C3B31197   9.207  14.295   7.964
 2289POPC   C4B31198   9.205  14.319   7.664
 2290POPC   NC331199  25.246  35.380   9.464
 2290POPC   PO431200  25.283  35.316   9.164
 2290POPC   GL131201  25.263  35.313   8.864
 2290POPC   GL231202  25.291  35.459   8.864
 2290POPC   C1A31203  25.256  35.339   8.564
 2290POPC   D2A31204  25.280  35.383   8.264
 2290POPC   C3A31205  25.269  35.304   7.964
 2290POPC   C4A31206  25.295  35.373   7.664
 2290POPC   C1B31207  25.410  35.533   8.564
 2290POPC   C2B31208  25.377  35.624   8.264
 2290POPC   C3B31209  25.348  35.560   7.964
 2290POPC   C4B31210  25.316  35.614   7.664
 2291POPC   NC331211  22.911  13.592   9.464
 2291POPC   PO431212  22.967  13.650   9.164
 2291POPC   GL131213  22.913  13.598   8.864
 2291POPC   GL231214  22.912  13.539   8.864
 2291POPC   C1A31215  22.891  13.616   8.564
 2291POPC   D2A31216  22.966  13.671   8.264
 2291POPC   C3A31217  22.940  13.665   7.964
 2291POPC   C4A31218  22.917  13.660   7.664
 2291POPC   C1B31219  22.914  13.398   8.564
 2291POPC   C2B31220  22.883  13.379   8.264
 2291POPC   C3B31221  22.882  13.375   7.964
 2291POPC   C4B31222  22.862  13.379   7.664
 2292POPC   NC331223  26.054  15.146   9.464
 2292POPC   PO431224  26.071  15.189   9.164
 2292POPC   GL131225  26.035  15.198   8.864
 2292POPC   GL231226  25.942  15.055   8.864
 2292POPC   C1A31227  26.060  15.200   8.564
 2292POPC   D2A31228  25.998  15.134   8.264
 2292POPC   C3A31229  26.027  15.162   7.964
 2292POPC   C4A31230  26.090  15.211   7.664
 2292POPC   C1B31231  25.832  14.974   8.564
 2292POPC   C2B31232  25.836  15.049   8.264
 2292POPC   C3B31233  25.841  15.073   7.964
 2292POPC   C4B31234  25.880  15.046   7.664
 2293POPC   NC331235  12.075  19.010   9.464
 2293POPC   PO431236  12.044  19.077   9.164
 2293POPC   GL131237  12.058  19.030   8.864
 2293POPC   GL231238  12.114  19.177   8.864
 2293POPC   C1A31239  12.089  19.069   8.564
 2293POPC   D2A31240  12.069  19.025   8.264
 2293POPC   C3A31241  12.026  19.102   7.964
 2293POPC   C4A31242  12.082  19.100   7.664
 2293POPC   C1B31243  12.223  19.231   8.564
 2293POPC   C2B31244  12.273  19.248   8.264
 2293POPC   C3B31245  12.239  19.223   7.964
 2293POPC   C4B31246  12.268  19.249   7.664
 2294POPC   NC331247  17.524   9.007   9.464
 2294POPC   PO431248  17.458   8.978   9.164
 2294POPC   GL131249  17.548   9.018   8.864
 2294POPC   GL231250  17.590   9.010   8.864
 2294POPC   C1A31251  17.491   8.947   8.564
 2294POPC   D2A31252  17.537   8.969   8.264
 2294POPC   C3A31253  17.502   9.016   7.964
 2294POPC   C4A31254  17.499   8.965   7.664
 2294POPC   C1B31255  17.718   9.058   8.564
 2294POPC   C2B31256  17.758   9.103   8.264
 2294POPC   C3B31257  17.740   9.083   7.964
 2294POPC   C4B31258  17.773   9.108   7.664
 2295POPC   NC331259  44.675   3.574   9.464
 2295POPC   PO431260  44.709   3.525   9.164
 2295POPC   GL131261  44.632   3.541   8.864
 2295POPC   GL231262  44.555   3.535   8.864
 2295POPC   C1A31263  44.612   3.581   8.564
 2295POPC   D2A31264  44.699   3.551   8.264
 2295POPC   C3A31265  44.619   3.578   7.964
 2295POPC   C4A31266  44.670   3.520   7.664
 2295POPC   C1B31267  44.450   3.537   8.564
 2295POPC   C2B31268  44.432   3.534   8.264
 2295POPC   C3B31269  44.438   3.577   7.964
 2295POPC   C4B31270  44.412   3.491   7.664
 2296POPC   NC331271  35.387  25.284   9.464
 2296POPC   PO431272  35.360  25.274   9.164
 2296POPC   GL131273  35.402  25.301   8.864
 2296POPC   GL231274  35.263  25.241   8.864
 2296POPC   C1A31275  35.395  25.305   8.564
 2296POPC   D2A31276  35.337  25.250   8.264
 2296POPC   C3A31277  35.396  25.269   7.964
 2296POPC   C4A31278  35.303  25.314   7.664
 2296POPC   C1B31279  35.108  25.147   8.564
 2296POPC   C2B31280  35.093  25.151   8.264
 2296POPC   C3B31281  35.088  25.118   7.964
 2296POPC   C4B31282  35.123  25.135   7.664
 2297POPC   NC331283  10.511  22.947   9.464
 2297POPC   PO431284  10.503  22.957   9.164
 2297POPC   GL131285  10.492  22.918   8.864
 2297POPC   GL231286  10.515  23.076   8.864
 2297POPC   C1A31287  10.513  22.903   8.564
 2297POPC   D2A31288  10.492  22.890   8.264
 2297POPC   C3A31289  10.513  22.954   7.964
 2297POPC   C4A31290  10.559  22.969   7.664
 2297POPC   C1B31291  10.439  23.184   8.564
 2297POPC   C2B31292  10.454  23.217   8.264
 2297POPC   C3B31293  10.505  23.186   7.964
 2297POPC   C4B31294  10.452  23.220   7.664
 2298POPC   NC331295  31.516  22.987   9.464
 2298POPC   PO431296  31.450  22.922   9.164
 2298POPC   GL131297  31.458  22.910   8.864
 2298POPC   GL231298  31.417  22.873   8.864
 2298POPC   C1A31299  31.457  22.955   8.564
 2298POPC   D2A31300  31.512  22.915   8.264
 2298POPC   C3A31301  31.503  22.929   7.964
 2298POPC   C4A31302  31.505  22.898   7.664
 2298POPC   C1B31303  31.324  22.806   8.564
 2298POPC   C2B31304  31.270  22.716   8.264
 2298POPC   C3B31305  31.309  22.731   7.964
 2298POPC   C4B31306  31.294  22.771   7.664
 2299POPC   NC331307  28.353  16.758   9.464
 2299POPC   PO431308  28.356  16.727   9.164
 2299POPC   GL131309  28.390  16.696   8.864
 2299POPC   GL231310  28.477  16.810   8.864
 2299POPC   C1A31311  28.327  16.686   8.564
 2299POPC   D2A31312  28.323  16.779   8.264
 2299POPC   C3A31313  28.411  16.718   7.964
 2299POPC   C4A31314  28.362  16.761   7.664
 2299POPC   C1B31315  28.554  16.858   8.564
 2299POPC   C2B31316  28.589  16.883   8.264
 2299POPC   C3B31317  28.604  16.872   7.964
 2299POPC   C4B31318  28.578  16.851   7.664
 2300POPC   NC331319   3.492  14.431   9.464
 2300POPC   PO431320   3.565  14.433   9.164
 2300POPC   GL131321   3.504  14.411   8.864
 2300POPC   GL231322   3.452  14.413   8.864
 2300POPC   C1A31323   3.515  14.416   8.564
 2300POPC   D2A31324   3.507  14.428   8.264
 2300POPC   C3A31325   3.548  14.439   7.964
 2300POPC   C4A31326   3.505  14.448   7.664
 2300POPC   C1B31327   3.324  14.388   8.564
 2300POPC   C2B31328   3.316  14.410   8.264
 2300POPC   C3B31329   3.343  14.374   7.964
 2300POPC   C4B31330   3.310  14.418   7.664
 2301POPC   NC331331  19.086  42.312   9.464
 2301POPC   PO431332  19.072  42.373   9.164
 2301POPC   GL131333  19.060  42.383   8.864
 2301POPC   GL231334  19.154  42.402   8.864
 2301POPC   C1A31335  19.072  42.315   8.564
 2301POPC   D2A31336  19.014  42.321   8.264
 2301POPC   C3A31337  19.054  42.332   7.964
 2301POPC   C4A31338  19.034  42.296   7.664
 2301POPC   C1B31339  19.217  42.522   8.564
 2301POPC   C2B31340  19.198  42.537   8.264
 2301POPC   C3B31341  19.168  42.549   7.964
 2301POPC   C4B31342  19.151  42.540   7.664
 2302POPC   NC331343  42.336  10.519   9.464
 2302POPC   PO431344  42.319  10.539   9.164
 2302POPC   GL131345  42.301  10.570   8.864
 2302POPC   GL231346  42.484  10.540   8.864
 2302POPC   C1A31347  42.378  10.490   8.564
 2302POPC   D2A31348  42.289  10.555   8.264
 2302POPC   C3A31349  42.374  10.547   7.964
 2302POPC   C4A31350  42.294  10.531   7.664
 2302POPC   C1B31351  42.592  10.543   8.564
 2302POPC   C2B31352  42.601  10.533   8.264
 2302POPC   C3B31353  42.604  10.484   7.964
 2302POPC   C4B31354  42.619  10.519   7.664
 2303POPC   NC331355  31.434  14.437   9.464
 2303POPC   PO431356  31.434  14.445   9.164
 2303POPC   GL131357  31.469  14.366   8.864
 2303POPC   GL231358  31.618  14.411   8.864
 2303POPC   C1A31359  31.503  14.438   8.564
 2303POPC   D2A31360  31.488  14.368   8.264
 2303POPC   C3A31361  31.447  14.375   7.964
 2303POPC   C4A31362  31.438  14.448   7.664
 2303POPC   C1B31363  31.694  14.511   8.564
 2303POPC   C2B31364  31.716  14.453   8.264
 2303POPC   C3B31365  31.679  14.465   7.964
 2303POPC   C4B31366  31.677  14.477   7.664
 2304POPC   NC331367   4.309  20.599   9.464
 2304POPC   PO431368   4.350  20.573   9.164
 2304POPC   GL131369   4.278  20.598   8.864
 2304POPC   GL231370   4.230  20.605   8.864
 2304POPC   C1A31371   4.308  20.618   8.564
 2304POPC   D2A31372   4.325  20.563   8.264
 2304POPC   C3A31373   4.298  20.645   7.964
 2304POPC   C4A31374   4.326  20.658   7.664
 2304POPC   C1B31375   4.093  20.733   8.564
 2304POPC   C2B31376   4.071  20.687   8.264
 2304POPC   C3B31377   4.042  20.713   7.964
 2304POPC   C4B31378   4.111  20.678   7.664
 2305POPC   NC331379  38.405  31.512   9.464
 2305POPC   PO431380  38.441  31.450   9.164
 2305POPC   GL131381  38.444  31.449   8.864
 2305POPC   GL231382  38.527  31.366   8.864
 2305POPC   C1A31383  38.437  31.499   8.564
 2305POPC   D2A31384  38.410  31.507   8.264
 2305POPC   C3A31385  38.420  31.437   7.964
 2305POPC   C4A31386  38.504  31.515   7.664
 2305POPC   C1B31387  38.589  31.266   8.564
 2305POPC   C2B31388  38.545  31.205   8.264
 2305POPC   C3B31389  38.570  31.280   7.964
 2305POPC   C4B31390  38.526  31.200   7.664
 2306POPC   NC331391  36.887  28.347   9.464
 2306POPC   PO431392  36.937  28.400   9.164
 2306POPC   GL131393  36.867  28.416   8.864
 2306POPC   GL231394  36.905  28.256   8.864
 2306POPC   C1A31395  36.904  28.348   8.564
 2306POPC   D2A31396  36.908  28.399   8.264
 2306POPC   C3A31397  36.935  28.412   7.964
 2306POPC   C4A31398  36.915  28.376   7.664
 2306POPC   C1B31399  36.899  28.105   8.564
 2306POPC   C2B31400  36.931  28.080   8.264
 2306POPC   C3B31401  36.908  28.141   7.964
 2306POPC   C4B31402  36.950  28.145   7.664
 2307POPC   NC331403  14.362  40.811   9.464
 2307POPC   PO431404  14.382  40.818   9.164
 2307POPC   GL131405  14.374  40.736   8.864
 2307POPC   GL231406  14.330  40.848   8.864
 2307POPC   C1A31407  14.379  40.814   8.564
 2307POPC   D2A31408  14.382  40.789   8.264
 2307POPC   C3A31409  14.377  40.785   7.964
 2307POPC   C4A31410  14.404  40.753   7.664
 2307POPC   C1B31411  14.305  41.056   8.564
 2307POPC   C2B31412  14.274  40.968   8.264
 2307POPC   C3B31413  14.279  41.012   7.964
 2307POPC   C4B31414  14.312  41.019   7.664
 2308POPC   NC331415  40.803  19.863   9.464
 2308POPC   PO431416  40.773  19.814   9.164
 2308POPC   GL131417  40.814  19.837   8.864
 2308POPC   GL231418  40.769  19.761   8.864
 2308POPC   C1A31419  40.793  19.829   8.564
 2308POPC   D2A31420  40.811  19.801   8.264
 2308POPC   C3A31421  40.806  19.855   7.964
 2308POPC   C4A31422  40.788  19.874   7.664
 2308POPC   C1B31423  40.653  19.580   8.564
 2308POPC   C2B31424  40.711  19.566   8.264
 2308POPC   C3B31425  40.669  19.555   7.964
 2308POPC   C4B31426  40.739  19.560   7.664
 2309POPC   NC331427   8.157  41.597   9.464
 2309POPC   PO431428   8.226  41.550   9.164
 2309POPC   GL131429   8.217  41.598   8.864
 2309POPC   GL231430   8.142  41.466   8.864
 2309POPC   C1A31431   8.193  41.539   8.564
 2309POPC   D2A31432   8.245  41.528   8.264
 2309POPC   C3A31433   8.189  41.601   7.964
 2309POPC   C4A31434   8.181  41.570   7.664
 2309POPC   C1B31435   8.151  41.310   8.564
 2309POPC   C2B31436   8.120  41.295   8.264
 2309POPC   C3B31437   8.105  41.284   7.964
 2309POPC   C4B31438   8.176  41.349   7.664
 2310POPC   NC331439  26.833  17.511   9.464
 2310POPC   PO431440  26.819  17.474   9.164
 2310POPC   GL131441  26.800  17.500   8.864
 2310POPC   GL231442  26.933  17.509   8.864
 2310POPC   C1A31443  26.782  17.497   8.564
 2310POPC   D2A31444  26.772  17.552   8.264
 2310POPC   C3A31445  26.809  17.553   7.964
 2310POPC   C4A31446  26.804  17.493   7.664
 2310POPC   C1B31447  27.064  17.556   8.564
 2310POPC   C2B31448  27.097  17.555   8.264
 2310POPC   C3B31449  27.055  17.528   7.964
 2310POPC   C4B31450  27.051  17.507   7.664
 2311POPC   NC331451  37.657  25.262   9.464
 2311POPC   PO431452  37.682  25.251   9.164
 2311POPC   GL131453  37.670  25.261   8.864
 2311POPC   GL231454  37.680  25.183   8.864
 2311POPC   C1A31455  37.695  25.281   8.564
 2311POPC   D2A31456  37.711  25.304   8.264
 2311POPC   C3A31457  37.632  25.313   7.964
 2311POPC   C4A31458  37.644  25.267   7.664
 2311POPC   C1B31459  37.702  25.021   8.564
 2311POPC   C2B31460  37.732  24.972   8.264
 2311POPC   C3B31461  37.720  24.987   7.964
 2311POPC   C4B31462  37.668  25.042   7.664
 2312POPC   NC331463  33.074  32.219   9.464
 2312POPC   PO431464  33.036  32.205   9.164
 2312POPC   GL131465  33.056  32.250   8.864
 2312POPC   GL231466  33.052  32.360   8.864
 2312POPC   C1A31467  33.000  32.294   8.564
 2312POPC   D2A31468  32.999  32.265   8.264
 2312POPC   C3A31469  32.992  32.273   7.964
 2312POPC   C4A31470  32.982  32.225   7.664
 2312POPC   C1B31471  33.015  32.520   8.564
 2312POPC   C2B31472  32.990  32.500   8.264
 2312POPC   C3B31473  32.974  32.465   7.964
 2312POPC   C4B31474  32.985  32.513   7.664
 2313POPC   NC331475  40.764  17.546   9.464
 2313POPC   PO431476  40.759  17.522   9.164
 2313POPC   GL131477  40.739  17.538   8.864
 2313POPC   GL231478  40.703  17.410   8.864
 2313POPC   C1A31479  40.741  17.512   8.564
 2313POPC   D2A31480  40.793  17.475   8.264
 2313POPC   C3A31481  40.800  17.555   7.964
 2313POPC   C4A31482  40.749  17.488   7.664
 2313POPC   C1B31483  40.557  17.418   8.564
 2313POPC   C2B31484  40.531  17.402   8.264
 2313POPC   C3B31485  40.598  17.442   7.964
 2313POPC   C4B31486  40.559  17.390   7.664
 2314POPC   NC331487  33.806   5.894   9.464
 2314POPC   PO431488  33.840   5.829   9.164
 2314POPC   GL131489  33.788   5.871   8.864
 2314POPC   GL231490  33.626   5.812   8.864
 2314POPC   C1A31491  33.766   5.834   8.564
 2314POPC   D2A31492  33.799   5.863   8.264
 2314POPC   C3A31493  33.783   5.852   7.964
 2314POPC   C4A31494  33.758   5.869   7.664
 2314POPC   C1B31495  33.591   5.830   8.564
 2314POPC   C2B31496  33.583   5.833   8.264
 2314POPC   C3B31497  33.525   5.820   7.964
 2314POPC   C4B31498  33.507   5.867   7.664
 2315POPC   NC331499  36.095  10.493   9.464
 2315POPC   PO431500  36.139  10.501   9.164
 2315POPC   GL131501  36.172  10.498   8.864
 2315POPC   GL231502  36.118  10.403   8.864
 2315POPC   C1A31503  36.136  10.514   8.564
 2315POPC   D2A31504  36.132  10.567   8.264
 2315POPC   C3A31505  36.078  10.523   7.964
 2315POPC   C4A31506  36.152  10.548   7.664
 2315POPC   C1B31507  36.188  10.247   8.564
 2315POPC   C2B31508  36.190  10.324   8.264
 2315POPC   C3B31509  36.171  10.236   7.964
 2315POPC   C4B31510  36.181  10.245   7.664
 2316POPC   NC331511   5.910  40.028   9.464
 2316POPC   PO431512   5.830  40.004   9.164
 2316POPC   GL131513   5.829  40.011   8.864
 2316POPC   GL231514   5.821  40.160   8.864
 2316POPC   C1A31515   5.836  39.992   8.564
 2316POPC   D2A31516   5.854  40.009   8.264
 2316POPC   C3A31517   5.916  39.963   7.964
 2316POPC   C4A31518   5.899  40.017   7.664
 2316POPC   C1B31519   5.845  40.252   8.564
 2316POPC   C2B31520   5.843  40.282   8.264
 2316POPC   C3B31521   5.852  40.252   7.964
 2316POPC   C4B31522   5.871  40.223   7.664
 2317POPC   NC331523  39.215  26.834   9.464
 2317POPC   PO431524  39.255  26.840   9.164
 2317POPC   GL131525  39.265  26.864   8.864
 2317POPC   GL231526  39.163  26.758   8.864
 2317POPC   C1A31527  39.234  26.803   8.564
 2317POPC   D2A31528  39.244  26.859   8.264
 2317POPC   C3A31529  39.250  26.806   7.964
 2317POPC   C4A31530  39.214  26.845   7.664
 2317POPC   C1B31531  39.034  26.764   8.564
 2317POPC   C2B31532  39.034  26.699   8.264
 2317POPC   C3B31533  38.948  26.763   7.964
 2317POPC   C4B31534  38.951  26.733   7.664
 2318POPC   NC331535  34.613  11.288   9.464
 2318POPC   PO431536  34.567  11.285   9.164
 2318POPC   GL131537  34.610  11.304   8.864
 2318POPC   GL231538  34.673  11.293   8.864
 2318POPC   C1A31539  34.594  11.268   8.564
 2318POPC   D2A31540  34.607  11.337   8.264
 2318POPC   C3A31541  34.526  11.305   7.964
 2318POPC   C4A31542  34.568  11.316   7.664
 2318POPC   C1B31543  34.779  11.223   8.564
 2318POPC   C2B31544  34.790  11.262   8.264
 2318POPC   C3B31545  34.799  11.304   7.964
 2318POPC   C4B31546  34.850  11.283   7.664
 2319POPC   NC331547  31.426  24.516   9.464
 2319POPC   PO431548  31.506  24.475   9.164
 2319POPC   GL131549  31.521  24.538   8.864
 2319POPC   GL231550  31.505  24.403   8.864
 2319POPC   C1A31551  31.473  24.516   8.564
 2319POPC   D2A31552  31.495  24.488   8.264
 2319POPC   C3A31553  31.443  24.512   7.964
 2319POPC   C4A31554  31.489  24.504   7.664
 2319POPC   C1B31555  31.513  24.194   8.564
 2319POPC   C2B31556  31.565  24.264   8.264
 2319POPC   C3B31557  31.467  24.289   7.964
 2319POPC   C4B31558  31.473  24.260   7.664
 2320POPC   NC331559  40.764  35.340   9.464
 2320POPC   PO431560  40.785  35.373   9.164
 2320POPC   GL131561  40.751  35.319   8.864
 2320POPC   GL231562  40.862  35.283   8.864
 2320POPC   C1A31563  40.831  35.315   8.564
 2320POPC   D2A31564  40.766  35.318   8.264
 2320POPC   C3A31565  40.768  35.327   7.964
 2320POPC   C4A31566  40.829  35.329   7.664
 2320POPC   C1B31567  40.950  35.104   8.564
 2320POPC   C2B31568  40.965  35.172   8.264
 2320POPC   C3B31569  40.915  35.117   7.964
 2320POPC   C4B31570  40.968  35.173   7.664
 2321POPC   NC331571  44.712  40.770   9.464
 2321POPC   PO431572  44.687  40.809   9.164
 2321POPC   GL131573  44.696  40.788   8.864
 2321POPC   GL231574  44.701  40.627   8.864
 2321POPC   C1A31575  44.654  40.784   8.564
 2321POPC   D2A31576  44.631  40.812   8.264
 2321POPC   C3A31577  44.653  40.795   7.964
 2321POPC   C4A31578  44.675  40.755   7.664
 2321POPC   C1B31579  44.772  40.584   8.564
 2321POPC   C2B31580  44.727  40.561   8.264
 2321POPC   C3B31581  44.712  40.512   7.964
 2321POPC   C4B31582  44.711  40.521   7.664
 2322POPC   NC331583  40.758   8.217   9.464
 2322POPC   PO431584  40.778   8.230   9.164
 2322POPC   GL131585  40.827   8.243   8.864
 2322POPC   GL231586  40.843   8.118   8.864
 2322POPC   C1A31587  40.742   8.149   8.564
 2322POPC   D2A31588  40.754   8.168   8.264
 2322POPC   C3A31589  40.829   8.209   7.964
 2322POPC   C4A31590  40.740   8.167   7.664
 2322POPC   C1B31591  40.994   8.076   8.564
 2322POPC   C2B31592  40.975   8.074   8.264
 2322POPC   C3B31593  40.961   8.047   7.964
 2322POPC   C4B31594  40.997   7.985   7.664
 2323POPC   NC331595   1.209  19.068   9.464
 2323POPC   PO431596   1.175  19.069   9.164
 2323POPC   GL131597   1.176  19.090   8.864
 2323POPC   GL231598   1.093  19.147   8.864
 2323POPC   C1A31599   1.259  19.051   8.564
 2323POPC   D2A31600   1.229  19.024   8.264
 2323POPC   C3A31601   1.212  19.106   7.964
 2323POPC   C4A31602   1.214  19.057   7.664
 2323POPC   C1B31603   1.021  19.206   8.564
 2323POPC   C2B31604   1.038  19.267   8.264
 2323POPC   C3B31605   1.046  19.219   7.964
 2323POPC   C4B31606   1.051  19.271   7.664
 2324POPC   NC331607  30.655  15.204   9.464
 2324POPC   PO431608  30.729  15.216   9.164
 2324POPC   GL131609  30.734  15.171   8.864
 2324POPC   GL231610  30.807  15.301   8.864
 2324POPC   C1A31611  30.682  15.219   8.564
 2324POPC   D2A31612  30.716  15.160   8.264
 2324POPC   C3A31613  30.659  15.174   7.964
 2324POPC   C4A31614  30.685  15.150   7.664
 2324POPC   C1B31615  30.828  15.345   8.564
 2324POPC   C2B31616  30.846  15.328   8.264
 2324POPC   C3B31617  30.878  15.338   7.964
 2324POPC   C4B31618  30.812  15.340   7.664
 2325POPC   NC331619  26.865   0.441   9.464
 2325POPC   PO431620  26.819   0.406   9.164
 2325POPC   GL131621  26.783   0.473   8.864
 2325POPC   GL231622  26.724   0.519   8.864
 2325POPC   C1A31623  26.861   0.448   8.564
 2325POPC   D2A31624  26.854   0.440   8.264
 2325POPC   C3A31625  26.822   0.390   7.964
 2325POPC   C4A31626  26.790   0.475   7.664
 2325POPC   C1B31627  26.631   0.595   8.564
 2325POPC   C2B31628  26.630   0.668   8.264
 2325POPC   C3B31629  26.617   0.642   7.964
 2325POPC   C4B31630  26.630   0.597   7.664
 2326POPC   NC331631   6.603  21.425   9.464
 2326POPC   PO431632   6.605  21.419   9.164
 2326POPC   GL131633   6.677  21.405   8.864
 2326POPC   GL231634   6.670  21.221   8.864
 2326POPC   C1A31635   6.658  21.375   8.564
 2326POPC   D2A31636   6.604  21.431   8.264
 2326POPC   C3A31637   6.648  21.341   7.964
 2326POPC   C4A31638   6.596  21.377   7.664
 2326POPC   C1B31639   6.722  21.150   8.564
 2326POPC   C2B31640   6.711  21.168   8.264
 2326POPC   C3B31641   6.784  21.194   7.964
 2326POPC   C4B31642   6.702  21.168   7.664
 2327POPC   NC331643  41.587  39.967   9.464
 2327POPC   PO431644  41.574  39.996   9.164
 2327POPC   GL131645  41.597  40.024   8.864
 2327POPC   GL231646  41.713  40.084   8.864
 2327POPC   C1A31647  41.591  39.970   8.564
 2327POPC   D2A31648  41.520  40.051   8.264
 2327POPC   C3A31649  41.572  40.008   7.964
 2327POPC   C4A31650  41.511  40.035   7.664
 2327POPC   C1B31651  41.761  40.060   8.564
 2327POPC   C2B31652  41.752  40.072   8.264
 2327POPC   C3B31653  41.773  40.129   7.964
 2327POPC   C4B31654  41.820  40.107   7.664
 2328POPC   NC331655  43.913   9.760   9.464
 2328POPC   PO431656  43.854   9.729   9.164
 2328POPC   GL131657  43.922   9.744   8.864
 2328POPC   GL231658  43.807   9.810   8.864
 2328POPC   C1A31659  43.933   9.719   8.564
 2328POPC   D2A31660  43.848   9.725   8.264
 2328POPC   C3A31661  43.866   9.732   7.964
 2328POPC   C4A31662  43.885   9.704   7.664
 2328POPC   C1B31663  43.619   9.792   8.564
 2328POPC   C2B31664  43.667   9.833   8.264
 2328POPC   C3B31665  43.636   9.772   7.964
 2328POPC   C4B31666  43.664   9.778   7.664
 2329POPC   NC331667  43.923  19.034   9.464
 2329POPC   PO431668  43.875  19.027   9.164
 2329POPC   GL131669  43.901  19.072   8.864
 2329POPC   GL231670  43.977  19.032   8.864
 2329POPC   C1A31671  43.926  19.096   8.564
 2329POPC   D2A31672  43.863  19.033   8.264
 2329POPC   C3A31673  43.861  19.023   7.964
 2329POPC   C4A31674  43.935  19.038   7.664
 2329POPC   C1B31675  44.141  18.922   8.564
 2329POPC   C2B31676  44.101  18.910   8.264
 2329POPC   C3B31677  44.100  18.918   7.964
 2329POPC   C4B31678  44.080  18.999   7.664
 2330POPC   NC331679  17.529  41.566   9.464
 2330POPC   PO431680  17.471  41.544   9.164
 2330POPC   GL131681  17.526  41.604   8.864
 2330POPC   GL231682  17.597  41.532   8.864
 2330POPC   C1A31683  17.492  41.587   8.564
 2330POPC   D2A31684  17.534  41.543   8.264
 2330POPC   C3A31685  17.515  41.523   7.964
 2330POPC   C4A31686  17.468  41.524   7.664
 2330POPC   C1B31687  17.750  41.519   8.564
 2330POPC   C2B31688  17.790  41.461   8.264
 2330POPC   C3B31689  17.787  41.441   7.964
 2330POPC   C4B31690  17.788  41.477   7.664
 2331POPC   NC331691  12.074   7.413   9.464
 2331POPC   PO431692  12.033   7.416   9.164
 2331POPC   GL131693  12.105   7.382   8.864
 2331POPC   GL231694  12.155   7.400   8.864
 2331POPC   C1A31695  12.122   7.381   8.564
 2331POPC   D2A31696  12.086   7.393   8.264
 2331POPC   C3A31697  12.087   7.415   7.964
 2331POPC   C4A31698  12.068   7.464   7.664
 2331POPC   C1B31699  12.322   7.294   8.564
 2331POPC   C2B31700  12.286   7.320   8.264
 2331POPC   C3B31701  12.292   7.335   7.964
 2331POPC   C4B31702  12.287   7.308   7.664
 2332POPC   NC331703  42.320  32.981   9.464
 2332POPC   PO431704  42.358  33.019   9.164
 2332POPC   GL131705  42.295  33.023   8.864
 2332POPC   GL231706  42.311  32.883   8.864
 2332POPC   C1A31707  42.346  33.017   8.564
 2332POPC   D2A31708  42.348  33.056   8.264
 2332POPC   C3A31709  42.332  33.059   7.964
 2332POPC   C4A31710  42.365  33.011   7.664
 2332POPC   C1B31711  42.367  32.761   8.564
 2332POPC   C2B31712  42.386  32.760   8.264
 2332POPC   C3B31713  42.324  32.793   7.964
 2332POPC   C4B31714  42.367  32.773   7.664
 2333POPC   NC331715  36.856  26.797   9.464
 2333POPC   PO431716  36.896  26.839   9.164
 2333POPC   GL131717  36.947  26.777   8.864
 2333POPC   GL231718  36.962  26.965   8.864
 2333POPC   C1A31719  36.933  26.825   8.564
 2333POPC   D2A31720  36.883  26.845   8.264
 2333POPC   C3A31721  36.855  26.793   7.964
 2333POPC   C4A31722  36.932  26.860   7.664
 2333POPC   C1B31723  36.940  27.042   8.564
 2333POPC   C2B31724  36.938  27.062   8.264
 2333POPC   C3B31725  37.001  27.071   7.964
 2333POPC   C4B31726  36.932  27.050   7.664
 2334POPC   NC331727  33.006  12.881   9.464
 2334POPC   PO431728  33.072  12.893   9.164
 2334POPC   GL131729  32.988  12.867   8.864
 2334POPC   GL231730  33.154  12.896   8.864
 2334POPC   C1A31731  33.069  12.837   8.564
 2334POPC   D2A31732  33.025  12.836   8.264
 2334POPC   C3A31733  33.042  12.878   7.964
 2334POPC   C4A31734  32.981  12.896   7.664
 2334POPC   C1B31735  33.234  13.061   8.564
 2334POPC   C2B31736  33.262  13.061   8.264
 2334POPC   C3B31737  33.210  13.032   7.964
 2334POPC   C4B31738  33.256  13.057   7.664
 2335POPC   NC331739  36.913   0.394   9.464
 2335POPC   PO431740  36.924   0.405   9.164
 2335POPC   GL131741  36.934   0.395   8.864
 2335POPC   GL231742  37.040   0.322   8.864
 2335POPC   C1A31743  36.920   0.410   8.564
 2335POPC   D2A31744  36.902   0.431   8.264
 2335POPC   C3A31745  36.887   0.466   7.964
 2335POPC   C4A31746  36.938   0.450   7.664
 2335POPC   C1B31747  37.105   0.272   8.564
 2335POPC   C2B31748  37.162   0.333   8.264
 2335POPC   C3B31749  37.149   0.350   7.964
 2335POPC   C4B31750  37.158   0.269   7.664
 2336POPC   NC331751  16.728  22.983   9.464
 2336POPC   PO431752  16.773  22.957   9.164
 2336POPC   GL131753  16.685  22.902   8.864
 2336POPC   GL231754  16.775  23.087   8.864
 2336POPC   C1A31755  16.760  22.962   8.564
 2336POPC   D2A31756  16.760  22.916   8.264
 2336POPC   C3A31757  16.777  22.936   7.964
 2336POPC   C4A31758  16.689  22.949   7.664
 2336POPC   C1B31759  16.797  23.216   8.564
 2336POPC   C2B31760  16.742  23.234   8.264
 2336POPC   C3B31761  16.754  23.174   7.964
 2336POPC   C4B31762  16.759  23.220   7.664
 2337POPC   NC331763  24.441  16.718   9.464
 2337POPC   PO431764  24.458  16.772   9.164
 2337POPC   GL131765  24.483  16.722   8.864
 2337POPC   GL231766  24.375  16.614   8.864
 2337POPC   C1A31767  24.489  16.704   8.564
 2337POPC   D2A31768  24.516  16.699   8.264
 2337POPC   C3A31769  24.485  16.734   7.964
 2337POPC   C4A31770  24.461  16.778   7.664
 2337POPC   C1B31771  24.378  16.549   8.564
 2337POPC   C2B31772  24.317  16.515   8.264
 2337POPC   C3B31773  24.296  16.519   7.964
 2337POPC   C4B31774  24.296  16.537   7.664
 2338POPC   NC331775  24.443   4.278   9.464
 2338POPC   PO431776  24.440   4.341   9.164
 2338POPC   GL131777  24.521   4.296   8.864
 2338POPC   GL231778  24.379   4.359   8.864
 2338POPC   C1A31779  24.508   4.338   8.564
 2338POPC   D2A31780  24.519   4.308   8.264
 2338POPC   C3A31781  24.449   4.291   7.964
 2338POPC   C4A31782  24.445   4.363   7.664
 2338POPC   C1B31783  24.247   4.386   8.564
 2338POPC   C2B31784  24.227   4.453   8.264
 2338POPC   C3B31785  24.245   4.408   7.964
 2338POPC   C4B31786  24.271   4.435   7.664
 2339POPC   NC331787  18.243  27.610   9.464
 2339POPC   PO431788  18.331  27.637   9.164
 2339POPC   GL131789  18.325  27.618   8.864
 2339POPC   GL231790  18.449  27.591   8.864
 2339POPC   C1A31791  18.287  27.557   8.564
 2339POPC   D2A31792  18.327  27.554   8.264
 2339POPC   C3A31793  18.316  27.581   7.964
 2339POPC   C4A31794  18.294  27.618   7.664
 2339POPC   C1B31795  18.510  27.600   8.564
 2339POPC   C2B31796  18.501  27.600   8.264
 2339POPC   C3B31797  18.478  27.651   7.964
 2339POPC   C4B31798  18.517  27.686   7.664
 2340POPC   NC331799   9.759  19.825   9.464
 2340POPC   PO431800   9.781  19.818   9.164
 2340POPC   GL131801   9.709  19.812   8.864
 2340POPC   GL231802   9.803  19.757   8.864
 2340POPC   C1A31803   9.798  19.823   8.564
 2340POPC   D2A31804   9.708  19.826   8.264
 2340POPC   C3A31805   9.737  19.809   7.964
 2340POPC   C4A31806   9.760  19.785   7.664
 2340POPC   C1B31807   9.770  19.619   8.564
 2340POPC   C2B31808   9.842  19.627   8.264
 2340POPC   C3B31809   9.786  19.582   7.964
 2340POPC   C4B31810   9.814  19.580   7.664
 2341POPC   NC331811  33.843  25.279   9.464
 2341POPC   PO431812  33.790  25.313   9.164
 2341POPC   GL131813  33.814  25.266   8.864
 2341POPC   GL231814  33.732  25.379   8.864
 2341POPC   C1A31815  33.773  25.293   8.564
 2341POPC   D2A31816  33.787  25.276   8.264
 2341POPC   C3A31817  33.767  25.315   7.964
 2341POPC   C4A31818  33.828  25.262   7.664
 2341POPC   C1B31819  33.784  25.525   8.564
 2341POPC   C2B31820  33.786  25.465   8.264
 2341POPC   C3B31821  33.801  25.468   7.964
 2341POPC   C4B31822  33.777  25.506   7.664
 2342POPC   NC331823  20.640  22.134   9.464
 2342POPC   PO431824  20.618  22.201   9.164
 2342POPC   GL131825  20.603  22.173   8.864
 2342POPC   GL231826  20.600  22.055   8.864
 2342POPC   C1A31827  20.619  22.116   8.564
 2342POPC   D2A31828  20.596  22.211   8.264
 2342POPC   C3A31829  20.603  22.206   7.964
 2342POPC   C4A31830  20.628  22.186   7.664
 2342POPC   C1B31831  20.553  21.911   8.564
 2342POPC   C2B31832  20.570  21.951   8.264
 2342POPC   C3B31833  20.575  21.892   7.964
 2342POPC   C4B31834  20.602  21.920   7.664
 2343POPC   NC331835  10.560  36.914   9.464
 2343POPC   PO431836  10.502  36.886   9.164
 2343POPC   GL131837  10.498  36.884   8.864
 2343POPC   GL231838  10.371  36.860   8.864
 2343POPC   C1A31839  10.550  36.868   8.564
 2343POPC   D2A31840  10.519  36.887   8.264
 2343POPC   C3A31841  10.499  36.869   7.964
 2343POPC   C4A31842  10.485  36.874   7.664
 2343POPC   C1B31843  10.286  36.844   8.564
 2343POPC   C2B31844  10.307  36.812   8.264
 2343POPC   C3B31845  10.265  36.836   7.964
 2343POPC   C4B31846  10.238  36.819   7.664
 2344POPC   NC331847   3.583  42.366   9.464
 2344POPC   PO431848   3.507  42.317   9.164
 2344POPC   GL131849   3.544  42.376   8.864
 2344POPC   GL231850   3.403  42.292   8.864
 2344POPC   C1A31851   3.495  42.357   8.564
 2344POPC   D2A31852   3.549  42.383   8.264
 2344POPC   C3A31853   3.525  42.335   7.964
 2344POPC   C4A31854   3.534  42.375   7.664
 2344POPC   C1B31855   3.348  42.237   8.564
 2344POPC   C2B31856   3.299  42.214   8.264
 2344POPC   C3B31857   3.343  42.188   7.964
 2344POPC   C4B31858   3.341  42.146   7.664
 2345POPC   NC331859  30.704  19.024   9.464
 2345POPC   PO431860  30.717  19.102   9.164
 2345POPC   GL131861  30.697  19.035   8.864
 2345POPC   GL231862  30.814  18.960   8.864
 2345POPC   C1A31863  30.740  19.095   8.564
 2345POPC   D2A31864  30.729  19.013   8.264
 2345POPC   C3A31865  30.665  19.067   7.964
 2345POPC   C4A31866  30.693  19.019   7.664
 2345POPC   C1B31867  30.909  18.943   8.564
 2345POPC   C2B31868  30.888  18.884   8.264
 2345POPC   C3B31869  30.938  18.918   7.964
 2345POPC   C4B31870  30.882  18.902   7.664
 2346POPC   NC331871  43.859  26.863   9.464
 2346POPC   PO431872  43.889  26.805   9.164
 2346POPC   GL131873  43.880  26.770   8.864
 2346POPC   GL231874  43.886  26.959   8.864
 2346POPC   C1A31875  43.873  26.777   8.564
 2346POPC   D2A31876  43.848  26.840   8.264
 2346POPC   C3A31877  43.863  26.776   7.964
 2346POPC   C4A31878  43.876  26.813   7.664
 2346POPC   C1B31879  43.939  27.036   8.564
 2346POPC   C2B31880  43.978  27.077   8.264
 2346POPC   C3B31881  43.970  27.018   7.964
 2346POPC   C4B31882  43.956  27.018   7.664
 2347POPC   NC331883  42.302  36.142   9.464
 2347POPC   PO431884  42.296  36.101   9.164
 2347POPC   GL131885  42.301  36.153   8.864
 2347POPC   GL231886  42.254  36.221   8.864
 2347POPC   C1A31887  42.373  36.114   8.564
 2347POPC   D2A31888  42.381  36.099   8.264
 2347POPC   C3A31889  42.369  36.126   7.964
 2347POPC   C4A31890  42.331  36.141   7.664
 2347POPC   C1B31891  42.128  36.248   8.564
 2347POPC   C2B31892  42.162  36.269   8.264
 2347POPC   C3B31893  42.068  36.262   7.964
 2347POPC   C4B31894  42.114  36.252   7.664
 2348POPC   NC331895   8.924  30.693   9.464
 2348POPC   PO431896   8.960  30.740   9.164
 2348POPC   GL131897   8.973  30.699   8.864
 2348POPC   GL231898   8.881  30.603   8.864
 2348POPC   C1A31899   8.974  30.667   8.564
 2348POPC   D2A31900   8.989  30.685   8.264
 2348POPC   C3A31901   8.956  30.715   7.964
 2348POPC   C4A31902   8.964  30.740   7.664
 2348POPC   C1B31903   8.815  30.526   8.564
 2348POPC   C2B31904   8.801  30.502   8.264
 2348POPC   C3B31905   8.758  30.499   7.964
 2348POPC   C4B31906   8.754  30.559   7.664
 2349POPC   NC331907  19.022  25.296   9.464
 2349POPC   PO431908  19.065  25.222   9.164
 2349POPC   GL131909  19.051  25.216   8.864
 2349POPC   GL231910  19.086  25.350   8.864
 2349POPC   C1A31911  19.033  25.260   8.564
 2349POPC   D2A31912  19.108  25.311   8.264
 2349POPC   C3A31913  19.080  25.300   7.964
 2349POPC   C4A31914  19.099  25.312   7.664
 2349POPC   C1B31915  19.156  25.484   8.564
 2349POPC   C2B31916  19.079  25.553   8.264
 2349POPC   C3B31917  19.125  25.483   7.964
 2349POPC   C4B31918  19.122  25.514   7.664
 2350POPC   NC331919   8.152  35.307   9.464
 2350POPC   PO431920   8.185  35.360   9.164
 2350POPC   GL131921   8.226  35.380   8.864
 2350POPC   GL231922   8.308  35.232   8.864
 2350POPC   C1A31923   8.162  35.331   8.564
 2350POPC   D2A31924   8.207  35.378   8.264
 2350POPC   C3A31925   8.185  35.377   7.964
 2350POPC   C4A31926   8.210  35.360   7.664
 2350POPC   C1B31927   8.366  35.218   8.564
 2350POPC   C2B31928   8.393  35.156   8.264
 2350POPC   C3B31929   8.413  35.188   7.964
 2350POPC   C4B31930   8.412  35.152   7.664
 2351POPC   NC331931   1.969   8.952   9.464
 2351POPC   PO431932   1.996   9.021   9.164
 2351POPC   GL131933   1.962   8.979   8.864
 2351POPC   GL231934   2.097   8.911   8.864
 2351POPC   C1A31935   1.972   8.950   8.564
 2351POPC   D2A31936   1.944   9.019   8.264
 2351POPC   C3A31937   1.955   9.012   7.964
 2351POPC   C4A31938   1.940   8.992   7.664
 2351POPC   C1B31939   2.167   8.741   8.564
 2351POPC   C2B31940   2.169   8.771   8.264
 2351POPC   C3B31941   2.150   8.810   7.964
 2351POPC   C4B31942   2.175   8.765   7.664
 2352POPC   NC331943  13.579  33.008   9.464
 2352POPC   PO431944  13.582  33.013   9.164
 2352POPC   GL131945  13.668  33.058   8.864
 2352POPC   GL231946  13.598  32.876   8.864
 2352POPC   C1A31947  13.627  33.044   8.564
 2352POPC   D2A31948  13.664  33.045   8.264
 2352POPC   C3A31949  13.634  33.023   7.964
 2352POPC   C4A31950  13.629  33.061   7.664
 2352POPC   C1B31951  13.466  32.868   8.564
 2352POPC   C2B31952  13.496  32.828   8.264
 2352POPC   C3B31953  13.477  32.832   7.964
 2352POPC   C4B31954  13.489  32.796   7.664
 2353POPC   NC331955  29.150  43.118   9.464
 2353POPC   PO431956  29.187  43.091   9.164
 2353POPC   GL131957  29.099  43.146   8.864
 2353POPC   GL231958  29.056  43.172   8.864
 2353POPC   C1A31959  29.191  43.084   8.564
 2353POPC   D2A31960  29.153  43.121   8.264
 2353POPC   C3A31961  29.160  43.135   7.964
 2353POPC   C4A31962  29.191  43.143   7.664
 2353POPC   C1B31963  28.962  43.229   8.564
 2353POPC   C2B31964  28.937  43.256   8.264
 2353POPC   C3B31965  28.955  43.208   7.964
 2353POPC   C4B31966  28.972  43.243   7.664
 2354POPC   NC331967   5.864   5.087   9.464
 2354POPC   PO431968   5.867   5.078   9.164
 2354POPC   GL131969   5.859   5.097   8.864
 2354POPC   GL231970   5.767   4.961   8.864
 2354POPC   C1A31971   5.846   5.044   8.564
 2354POPC   D2A31972   5.877   5.053   8.264
 2354POPC   C3A31973   5.849   5.075   7.964
 2354POPC   C4A31974   5.886   5.086   7.664
 2354POPC   C1B31975   5.644   4.916   8.564
 2354POPC   C2B31976   5.663   4.917   8.264
 2354POPC   C3B31977   5.687   4.910   7.964
 2354POPC   C4B31978   5.652   4.935   7.664
 2355POPC   NC331979  26.854   2.747   9.464
 2355POPC   PO431980  26.802   2.727   9.164
 2355POPC   GL131981  26.797   2.768   8.864
 2355POPC   GL231982  26.715   2.676   8.864
 2355POPC   C1A31983  26.819   2.765   8.564
 2355POPC   D2A31984  26.831   2.723   8.264
 2355POPC   C3A31985  26.786   2.729   7.964
 2355POPC   C4A31986  26.784   2.759   7.664
 2355POPC   C1B31987  26.631   2.636   8.564
 2355POPC   C2B31988  26.607   2.643   8.264
 2355POPC   C3B31989  26.569   2.674   7.964
 2355POPC   C4B31990  26.589   2.640   7.664
 2356POPC   NC331991  26.788  22.918   9.464
 2356POPC   PO431992  26.773  22.927   9.164
 2356POPC   GL131993  26.865  22.941   8.864
 2356POPC   GL231994  26.713  22.868   8.864
 2356POPC   C1A31995  26.829  22.963   8.564
 2356POPC   D2A31996  26.839  22.954   8.264
 2356POPC   C3A31997  26.797  22.892   7.964
 2356POPC   C4A31998  26.860  22.899   7.664
 2356POPC   C1B31999  26.632  22.800   8.564
 2356POPC   C2B32000  26.547  22.854   8.264
 2356POPC   C3B32001  26.558  22.818   7.964
 2356POPC   C4B32002  26.545  22.837   7.664
 2357POPC   NC332003  19.791  36.155   9.464
 2357POPC   PO432004  19.829  36.125   9.164
 2357POPC   GL132005  19.841  36.145   8.864
 2357POPC   GL232006  19.740  36.105   8.864
 2357POPC   C1A32007  19.879  36.134   8.564
 2357POPC   D2A32008  19.856  36.172   8.264
 2357POPC   C3A32009  19.882  36.087   7.964
 2357POPC   C4A32010  19.845  36.176   7.664
 2357POPC   C1B32011  19.635  36.002   8.564
 2357POPC   C2B32012  19.611  36.023   8.264
 2357POPC   C3B32013  19.632  36.010   7.964
 2357POPC   C4B32014  19.639  36.048   7.664
 2358POPC   NC332015   7.433  38.455   9.464
 2358POPC   PO432016   7.435  38.445   9.164
 2358POPC   GL132017   7.397  38.419   8.864
 2358POPC   GL232018   7.340  38.501   8.864
 2358POPC   C1A32019   7.416  38.459   8.564
 2358POPC   D2A32020   7.420  38.449   8.264
 2358POPC   C3A32021   7.452  38.423   7.964
 2358POPC   C4A32022   7.446  38.449   7.664
 2358POPC   C1B32023   7.168  38.449   8.564
 2358POPC   C2B32024   7.159  38.475   8.264
 2358POPC   C3B32025   7.220  38.431   7.964
 2358POPC   C4B32026   7.143  38.433   7.664
 2359POPC   NC332027  14.392  41.524   9.464
 2359POPC   PO432028  14.371  41.565   9.164
 2359POPC   GL132029  14.439  41.573   8.864
 2359POPC   GL232030  14.279  41.572   8.864
 2359POPC   C1A32031  14.388  41.564   8.564
 2359POPC   D2A32032  14.358  41.567   8.264
 2359POPC   C3A32033  14.355  41.577   7.964
 2359POPC   C4A32034  14.423  41.514   7.664
 2359POPC   C1B32035  14.217  41.668   8.564
 2359POPC   C2B32036  14.153  41.672   8.264
 2359POPC   C3B32037  14.191  41.696   7.964
 2359POPC   C4B32038  14.167  41.635   7.664
 2360POPC   NC332039   1.995  23.751   9.464
 2360POPC   PO432040   1.950  23.703   9.164
 2360POPC   GL132041   2.017  23.676   8.864
 2360POPC   GL232042   1.876  23.718   8.864
 2360POPC   C1A32043   2.038  23.754   8.564
 2360POPC   D2A32044   2.008  23.698   8.264
 2360POPC   C3A32045   2.026  23.763   7.964
 2360POPC   C4A32046   2.027  23.747   7.664
 2360POPC   C1B32047   1.770  23.712   8.564
 2360POPC   C2B32048   1.694  23.759   8.264
 2360POPC   C3B32049   1.706  23.704   7.964
 2360POPC   C4B32050   1.753  23.709   7.664
 2361POPC   NC332051   1.991  30.674   9.464
 2361POPC   PO432052   1.941  30.687   9.164
 2361POPC   GL132053   2.035  30.707   8.864
 2361POPC   GL232054   2.059  30.631   8.864
 2361POPC   C1A32055   2.028  30.692   8.564
 2361POPC   D2A32056   1.952  30.671   8.264
 2361POPC   C3A32057   1.988  30.665   7.964
 2361POPC   C4A32058   1.988  30.686   7.664
 2361POPC   C1B32059   2.099  30.487   8.564
 2361POPC   C2B32060   2.125  30.456   8.264
 2361POPC   C3B32061   2.108  30.529   7.964
 2361POPC   C4B32062   2.191  30.492   7.664
 2362POPC   NC332063   1.971  41.550   9.464
 2362POPC   PO432064   2.020  41.604   9.164
 2362POPC   GL132065   2.011  41.598   8.864
 2362POPC   GL232066   2.155  41.561   8.864
 2362POPC   C1A32067   1.970  41.582   8.564
 2362POPC   D2A32068   1.963  41.509   8.264
 2362POPC   C3A32069   2.016  41.511   7.964
 2362POPC   C4A32070   1.968  41.539   7.664
 2362POPC   C1B32071   2.271  41.632   8.564
 2362POPC   C2B32072   2.263  41.671   8.264
 2362POPC   C3B32073   2.209  41.683   7.964
 2362POPC   C4B32074   2.218  41.649   7.664
 2363POPC   NC332075  18.242  41.575   9.464
 2363POPC   PO432076  18.261  41.538   9.164
 2363POPC   GL132077  18.289  41.587   8.864
 2363POPC   GL232078  18.391  41.621   8.864
 2363POPC   C1A32079  18.289  41.584   8.564
 2363POPC   D2A32080  18.313  41.593   8.264
 2363POPC   C3A32081  18.316  41.606   7.964
 2363POPC   C4A32082  18.323  41.549   7.664
 2363POPC   C1B32083  18.545  41.590   8.564
 2363POPC   C2B32084  18.488  41.654   8.264
 2363POPC   C3B32085  18.472  41.629   7.964
 2363POPC   C4B32086  18.473  41.674   7.664
 2364POPC   NC332087  21.411  36.937   9.464
 2364POPC   PO432088  21.385  36.877   9.164
 2364POPC   GL132089  21.417  36.914   8.864
 2364POPC   GL232090  21.513  36.937   8.864
 2364POPC   C1A32091  21.392  36.878   8.564
 2364POPC   D2A32092  21.425  36.873   8.264
 2364POPC   C3A32093  21.346  36.911   7.964
 2364POPC   C4A32094  21.383  36.893   7.664
 2364POPC   C1B32095  21.673  36.970   8.564
 2364POPC   C2B32096  21.602  36.947   8.264
 2364POPC   C3B32097  21.646  36.944   7.964
 2364POPC   C4B32098  21.591  36.949   7.664
 2365POPC   NC332099   1.229  32.275   9.464
 2365POPC   PO432100   1.252  32.242   9.164
 2365POPC   GL132101   1.215  32.271   8.864
 2365POPC   GL232102   1.319  32.132   8.864
 2365POPC   C1A32103   1.245  32.262   8.564
 2365POPC   D2A32104   1.191  32.248   8.264
 2365POPC   C3A32105   1.237  32.294   7.964
 2365POPC   C4A32106   1.230  32.261   7.664
 2365POPC   C1B32107   1.383  32.082   8.564
 2365POPC   C2B32108   1.358  32.019   8.264
 2365POPC   C3B32109   1.369  32.094   7.964
 2365POPC   C4B32110   1.342  32.089   7.664
 2366POPC   NC332111  12.832   4.308   9.464
 2366POPC   PO432112  12.808   4.281   9.164
 2366POPC   GL132113  12.845   4.289   8.864
 2366POPC   GL232114  12.932   4.287   8.864
 2366POPC   C1A32115  12.892   4.355   8.564
 2366POPC   D2A32116  12.887   4.335   8.264
 2366POPC   C3A32117  12.893   4.344   7.964
 2366POPC   C4A32118  12.830   4.337   7.664
 2366POPC   C1B32119  13.122   4.174   8.564
 2366POPC   C2B32120  13.071   4.248   8.264
 2366POPC   C3B32121  13.102   4.202   7.964
 2366POPC   C4B32122  13.049   4.269   7.664
 2367POPC   NC332123  28.335  22.903   9.464
 2367POPC   PO432124  28.384  22.900   9.164
 2367POPC   GL132125  28.341  22.917   8.864
 2367POPC   GL232126  28.484  22.992   8.864
 2367POPC   C1A32127  28.379  22.910   8.564
 2367POPC   D2A32128  28.320  22.984   8.264
 2367POPC   C3A32129  28.373  22.987   7.964
 2367POPC   C4A32130  28.375  22.986   7.664
 2367POPC   C1B32131  28.542  23.128   8.564
 2367POPC   C2B32132  28.596  23.080   8.264
 2367POPC   C3B32133  28.529  23.094   7.964
 2367POPC   C4B32134  28.550  23.071   7.664
 2368POPC   NC332135  33.057  44.636   9.464
 2368POPC   PO432136  33.060  44.638   9.164
 2368POPC   GL132137  32.979  44.667   8.864
 2368POPC   GL232138  33.125  44.722   8.864
 2368POPC   C1A32139  33.027  44.623   8.564
 2368POPC   D2A32140  32.977  44.637   8.264
 2368POPC   C3A32141  33.069  44.616   7.964
 2368POPC   C4A32142  33.070  44.700   7.664
 2368POPC   C1B32143  33.203  44.856   8.564
 2368POPC   C2B32144  33.208  44.873   8.264
 2368POPC   C3B32145  33.199  44.833   7.964
 2368POPC   C4B32146  33.194  44.846   7.664
 2369POPC   NC332147  29.170  16.001   9.464
 2369POPC   PO432148  29.112  15.964   9.164
 2369POPC   GL132149  29.160  15.940   8.864
 2369POPC   GL232150  29.141  15.878   8.864
 2369POPC   C1A32151  29.106  15.979   8.564
 2369POPC   D2A32152  29.122  15.979   8.264
 2369POPC   C3A32153  29.145  15.984   7.964
 2369POPC   C4A32154  29.120  15.941   7.664
 2369POPC   C1B32155  29.118  15.752   8.564
 2369POPC   C2B32156  29.086  15.745   8.264
 2369POPC   C3B32157  29.083  15.676   7.964
 2369POPC   C4B32158  29.069  15.700   7.664
 2370POPC   NC332159  43.843  41.569   9.464
 2370POPC   PO432160  43.928  41.606   9.164
 2370POPC   GL132161  43.872  41.566   8.864
 2370POPC   GL232162  43.965  41.539   8.864
 2370POPC   C1A32163  43.915  41.589   8.564
 2370POPC   D2A32164  43.858  41.514   8.264
 2370POPC   C3A32165  43.925  41.588   7.964
 2370POPC   C4A32166  43.907  41.576   7.664
 2370POPC   C1B32167  44.141  41.381   8.564
 2370POPC   C2B32168  44.092  41.447   8.264
 2370POPC   C3B32169  44.117  41.457   7.964
 2370POPC   C4B32170  44.074  41.456   7.664
 2371POPC   NC332171  42.357  14.427   9.464
 2371POPC   PO432172  42.378  14.367   9.164
 2371POPC   GL132173  42.302  14.373   8.864
 2371POPC   GL232174  42.457  14.469   8.864
 2371POPC   C1A32175  42.366  14.409   8.564
 2371POPC   D2A32176  42.338  14.405   8.264
 2371POPC   C3A32177  42.358  14.430   7.964
 2371POPC   C4A32178  42.356  14.401   7.664
 2371POPC   C1B32179  42.530  14.468   8.564
 2371POPC   C2B32180  42.614  14.449   8.264
 2371POPC   C3B32181  42.591  14.483   7.964
 2371POPC   C4B32182  42.607  14.446   7.664
 2372POPC   NC332183   5.841  17.513   9.464
 2372POPC   PO432184   5.884  17.513   9.164
 2372POPC   GL132185   5.820  17.506   8.864
 2372POPC   GL232186   5.760  17.530   8.864
 2372POPC   C1A32187   5.883  17.479   8.564
 2372POPC   D2A32188   5.835  17.496   8.264
 2372POPC   C3A32189   5.858  17.524   7.964
 2372POPC   C4A32190   5.823  17.457   7.664
 2372POPC   C1B32191   5.585  17.499   8.564
 2372POPC   C2B32192   5.638  17.504   8.264
 2372POPC   C3B32193   5.579  17.427   7.964
 2372POPC   C4B32194   5.579  17.482   7.664
 2373POPC   NC332195   3.551  11.333   9.464
 2373POPC   PO432196   3.579  11.296   9.164
 2373POPC   GL132197   3.496  11.287   8.864
 2373POPC   GL232198   3.540  11.163   8.864
 2373POPC   C1A32199   3.514  11.345   8.564
 2373POPC   D2A32200   3.564  11.293   8.264
 2373POPC   C3A32201   3.518  11.347   7.964
 2373POPC   C4A32202   3.521  11.279   7.664
 2373POPC   C1B32203   3.500  11.109   8.564
 2373POPC   C2B32204   3.453  11.019   8.264
 2373POPC   C3B32205   3.424  11.077   7.964
 2373POPC   C4B32206   3.418  11.087   7.664
 2374POPC   NC332207  17.524   1.242   9.464
 2374POPC   PO432208  17.543   1.200   9.164
 2374POPC   GL132209  17.524   1.256   8.864
 2374POPC   GL232210  17.618   1.144   8.864
 2374POPC   C1A32211  17.493   1.204   8.564
 2374POPC   D2A32212  17.488   1.206   8.264
 2374POPC   C3A32213  17.497   1.256   7.964
 2374POPC   C4A32214  17.499   1.259   7.664
 2374POPC   C1B32215  17.651   1.033   8.564
 2374POPC   C2B32216  17.707   1.036   8.264
 2374POPC   C3B32217  17.695   1.041   7.964
 2374POPC   C4B32218  17.688   1.070   7.664
 2375POPC   NC332219   2.768   8.216   9.464
 2375POPC   PO432220   2.793   8.240   9.164
 2375POPC   GL132221   2.738   8.189   8.864
 2375POPC   GL232222   2.903   8.248   8.864
 2375POPC   C1A32223   2.732   8.156   8.564
 2375POPC   D2A32224   2.815   8.173   8.264
 2375POPC   C3A32225   2.767   8.157   7.964
 2375POPC   C4A32226   2.769   8.166   7.664
 2375POPC   C1B32227   3.015   8.233   8.564
 2375POPC   C2B32228   2.992   8.215   8.264
 2375POPC   C3B32229   3.049   8.232   7.964
 2375POPC   C4B32230   2.968   8.240   7.664
 2376POPC   NC332231  33.026  11.268   9.464
 2376POPC   PO432232  33.014  11.268   9.164
 2376POPC   GL132233  33.037  11.342   8.864
 2376POPC   GL232234  33.162  11.371   8.864
 2376POPC   C1A32235  32.996  11.341   8.564
 2376POPC   D2A32236  33.067  11.307   8.264
 2376POPC   C3A32237  33.020  11.346   7.964
 2376POPC   C4A32238  32.976  11.269   7.664
 2376POPC   C1B32239  33.283  11.346   8.564
 2376POPC   C2B32240  33.244  11.352   8.264
 2376POPC   C3B32241  33.241  11.381   7.964
 2376POPC   C4B32242  33.252  11.366   7.664
 2377POPC   NC332243  36.085   6.671   9.464
 2377POPC   PO432244  36.153   6.676   9.164
 2377POPC   GL132245  36.140   6.623   8.864
 2377POPC   GL232246  36.117   6.480   8.864
 2377POPC   C1A32247  36.171   6.600   8.564
 2377POPC   D2A32248  36.119   6.643   8.264
 2377POPC   C3A32249  36.078   6.654   7.964
 2377POPC   C4A32250  36.150   6.674   7.664
 2377POPC   C1B32251  36.172   6.395   8.564
 2377POPC   C2B32252  36.183   6.423   8.264
 2377POPC   C3B32253  36.144   6.428   7.964
 2377POPC   C4B32254  36.181   6.400   7.664
 2378POPC   NC332255   4.276  36.861   9.464
 2378POPC   PO432256   4.356  36.948   9.164
 2378POPC   GL132257   4.317  36.857   8.864
 2378POPC   GL232258   4.372  37.010   8.864
 2378POPC   C1A32259   4.342  36.944   8.564
 2378POPC   D2A32260   4.327  36.916   8.264
 2378POPC   C3A32261   4.316  36.902   7.964
 2378POPC   C4A32262   4.340  36.943   7.664
 2378POPC   C1B32263   4.489  37.147   8.564
 2378POPC   C2B32264   4.453  37.114   8.264
 2378POPC   C3B32265   4.440  37.094   7.964
 2378POPC   C4B32266   4.446  37.075   7.664
 2379POPC   NC332267  16.764  20.605   9.464
 2379POPC   PO432268  16.776  20.584   9.164
 2379POPC   GL132269  16.745  20.578   8.864
 2379POPC   GL232270  16.863  20.471   8.864
 2379POPC   C1A32271  16.690  20.633   8.564
 2379POPC   D2A32272  16.724  20.595   8.264
 2379POPC   C3A32273  16.733  20.644   7.964
 2379POPC   C4A32274  16.739  20.637   7.664
 2379POPC   C1B32275  16.870  20.388   8.564
 2379POPC   C2B32276  16.910  20.374   8.264
 2379POPC   C3B32277  16.894  20.464   7.964
 2379POPC   C4B32278  16.931  20.471   7.664
 2380POPC   NC332279   8.163  15.906   9.464
 2380POPC   PO432280   8.162  15.932   9.164
 2380POPC   GL132281   8.196  15.920   8.864
 2380POPC   GL232282   8.298  16.053   8.864
 2380POPC   C1A32283   8.193  15.924   8.564
 2380POPC   D2A32284   8.158  15.939   8.264
 2380POPC   C3A32285   8.156  15.933   7.964
 2380POPC   C4A32286   8.246  15.982   7.664
 2380POPC   C1B32287   8.373  16.162   8.564
 2380POPC   C2B32288   8.397  16.184   8.264
 2380POPC   C3B32289   8.386  16.121   7.964
 2380POPC   C4B32290   8.379  16.119   7.664
 2381POPC   NC332291  31.514   2.771   9.464
 2381POPC   PO432292  31.434   2.769   9.164
 2381POPC   GL132293  31.460   2.773   8.864
 2381POPC   GL232294  31.598   2.687   8.864
 2381POPC   C1A32295  31.448   2.803   8.564
 2381POPC   D2A32296  31.469   2.770   8.264
 2381POPC   C3A32297  31.443   2.784   7.964
 2381POPC   C4A32298  31.499   2.761   7.664
 2381POPC   C1B32299  31.617   2.595   8.564
 2381POPC   C2B32300  31.604   2.582   8.264
 2381POPC   C3B32301  31.677   2.636   7.964
 2381POPC   C4B32302  31.623   2.618   7.664
 2382POPC   NC332303  11.283   4.356   9.464
 2382POPC   PO432304  11.328   4.332   9.164
 2382POPC   GL132305  11.317   4.277   8.864
 2382POPC   GL232306  11.428   4.385   8.864
 2382POPC   C1A32307  11.303   4.325   8.564
 2382POPC   D2A32308  11.292   4.291   8.264
 2382POPC   C3A32309  11.310   4.347   7.964
 2382POPC   C4A32310  11.344   4.313   7.664
 2382POPC   C1B32311  11.543   4.360   8.564
 2382POPC   C2B32312  11.595   4.374   8.264
 2382POPC   C3B32313  11.505   4.375   7.964
 2382POPC   C4B32314  11.549   4.333   7.664
 2383POPC   NC332315   8.172   1.207   9.464
 2383POPC   PO432316   8.194   1.251   9.164
 2383POPC   GL132317   8.158   1.196   8.864
 2383POPC   GL232318   8.267   1.104   8.864
 2383POPC   C1A32319   8.201   1.227   8.564
 2383POPC   D2A32320   8.230   1.218   8.264
 2383POPC   C3A32321   8.185   1.255   7.964
 2383POPC   C4A32322   8.151   1.231   7.664
 2383POPC   C1B32323   8.310   1.008   8.564
 2383POPC   C2B32324   8.263   0.968   8.264
 2383POPC   C3B32325   8.288   1.002   7.964
 2383POPC   C4B32326   8.265   0.978   7.664
 2384POPC   NC332327  39.967   1.258   9.464
 2384POPC   PO432328  40.045   1.228   9.164
 2384POPC   GL132329  40.029   1.178   8.864
 2384POPC   GL232330  40.138   1.199   8.864
 2384POPC   C1A32331  40.028   1.170   8.564
 2384POPC   D2A32332  40.041   1.173   8.264
 2384POPC   C3A32333  40.036   1.170   7.964
 2384POPC   C4A32334  39.988   1.214   7.664
 2384POPC   C1B32335  40.208   1.212   8.564
 2384POPC   C2B32336  40.245   1.228   8.264
 2384POPC   C3B32337  40.217   1.231   7.964
 2384POPC   C4B32338  40.244   1.283   7.664
 2385POPC   NC332339  44.630  33.059   9.464
 2385POPC   PO432340  44.709  33.042   9.164
 2385POPC   GL132341  44.620  32.975   8.864
 2385POPC   GL232342  44.731  33.182   8.864
 2385POPC   C1A32343  44.696  33.043   8.564
 2385POPC   D2A32344  44.664  33.050   8.264
 2385POPC   C3A32345  44.648  33.053   7.964
 2385POPC   C4A32346  44.662  33.001   7.664
 2385POPC   C1B32347  44.745  33.235   8.564
 2385POPC   C2B32348  44.774  33.208   8.264
 2385POPC   C3B32349  44.745  33.221   7.964
 2385POPC   C4B32350  44.791  33.283   7.664
 2386POPC   NC332351  22.115  38.476   9.464
 2386POPC   PO432352  22.192  38.464   9.164
 2386POPC   GL132353  22.161  38.486   8.864
 2386POPC   GL232354  22.159  38.557   8.864
 2386POPC   C1A32355  22.152  38.415   8.564
 2386POPC   D2A32356  22.113  38.467   8.264
 2386POPC   C3A32357  22.193  38.495   7.964
 2386POPC   C4A32358  22.155  38.502   7.664
 2386POPC   C1B32359  22.243  38.730   8.564
 2386POPC   C2B32360  22.208  38.714   8.264
 2386POPC   C3B32361  22.250  38.673   7.964
 2386POPC   C4B32362  22.206  38.652   7.664
 2387POPC   NC332363  39.977  36.892   9.464
 2387POPC   PO432364  40.028  36.945   9.164
 2387POPC   GL132365  40.039  36.953   8.864
 2387POPC   GL232366  40.142  36.852   8.864
 2387POPC   C1A32367  39.977  36.870   8.564
 2387POPC   D2A32368  40.021  36.874   8.264
 2387POPC   C3A32369  40.001  36.912   7.964
 2387POPC   C4A32370  39.984  36.864   7.664
 2387POPC   C1B32371  40.167  36.793   8.564
 2387POPC   C2B32372  40.157  36.774   8.264
 2387POPC   C3B32373  40.198  36.720   7.964
 2387POPC   C4B32374  40.238  36.786   7.664
 2388POPC   NC332375  38.451  39.226   9.464
 2388POPC   PO432376  38.485  39.228   9.164
 2388POPC   GL132377  38.406  39.250   8.864
 2388POPC   GL232378  38.570  39.103   8.864
 2388POPC   C1A32379  38.419  39.229   8.564
 2388POPC   D2A32380  38.409  39.232   8.264
 2388POPC   C3A32381  38.434  39.239   7.964
 2388POPC   C4A32382  38.440  39.234   7.664
 2388POPC   C1B32383  38.621  39.000   8.564
 2388POPC   C2B32384  38.610  39.062   8.264
 2388POPC   C3B32385  38.604  39.003   7.964
 2388POPC   C4B32386  38.615  38.999   7.664
 2389POPC   NC332387   4.309   8.167   9.464
 2389POPC   PO432388   4.281   8.157   9.164
 2389POPC   GL132389   4.273   8.192   8.864
 2389POPC   GL232390   4.211   8.180   8.864
 2389POPC   C1A32391   4.290   8.229   8.564
 2389POPC   D2A32392   4.304   8.225   8.264
 2389POPC   C3A32393   4.343   8.224   7.964
 2389POPC   C4A32394   4.279   8.178   7.664
 2389POPC   C1B32395   4.127   8.097   8.564
 2389POPC   C2B32396   4.078   8.059   8.264
 2389POPC   C3B32397   4.079   8.122   7.964
 2389POPC   C4B32398   4.072   8.078   7.664
 2390POPC   NC332399  13.612   5.841   9.464
 2390POPC   PO432400  13.641   5.866   9.164
 2390POPC   GL132401  13.665   5.838   8.864
 2390POPC   GL232402  13.482   5.887   8.864
 2390POPC   C1A32403  13.633   5.854   8.564
 2390POPC   D2A32404  13.579   5.886   8.264
 2390POPC   C3A32405  13.603   5.844   7.964
 2390POPC   C4A32406  13.627   5.846   7.664
 2390POPC   C1B32407  13.336   5.845   8.564
 2390POPC   C2B32408  13.369   5.816   8.264
 2390POPC   C3B32409  13.366   5.789   7.964
 2390POPC   C4B32410  13.351   5.815   7.664
 2391POPC   NC332411  41.547   5.837   9.464
 2391POPC   PO432412  41.516   5.880   9.164
 2391POPC   GL132413  41.538   5.851   8.864
 2391POPC   GL232414  41.465   5.727   8.864
 2391POPC   C1A32415  41.525   5.833   8.564
 2391POPC   D2A32416  41.548   5.855   8.264
 2391POPC   C3A32417  41.596   5.822   7.964
 2391POPC   C4A32418  41.568   5.898   7.664
 2391POPC   C1B32419  41.384   5.702   8.564
 2391POPC   C2B32420  41.439   5.713   8.264
 2391POPC   C3B32421  41.377   5.706   7.964
 2391POPC   C4B32422  41.413   5.629   7.664
 2392POPC   NC332423   3.572  34.537   9.464
 2392POPC   PO432424   3.532  34.621   9.164
 2392POPC   GL132425   3.529  34.553   8.864
 2392POPC   GL232426   3.419  34.464   8.864
 2392POPC   C1A32427   3.575  34.624   8.564
 2392POPC   D2A32428   3.526  34.529   8.264
 2392POPC   C3A32429   3.498  34.607   7.964
 2392POPC   C4A32430   3.579  34.543   7.664
 2392POPC   C1B32431   3.279  34.405   8.564
 2392POPC   C2B32432   3.370  34.494   8.264
 2392POPC   C3B32433   3.351  34.449   7.964
 2392POPC   C4B32434   3.341  34.453   7.664
 2393POPC   NC332435  26.013  26.863   9.464
 2393POPC   PO432436  26.064  26.781   9.164
 2393POPC   GL132437  26.075  26.840   8.864
 2393POPC   GL232438  26.073  26.950   8.864
 2393POPC   C1A32439  26.036  26.805   8.564
 2393POPC   D2A32440  26.043  26.808   8.264
 2393POPC   C3A32441  26.016  26.835   7.964
 2393POPC   C4A32442  26.073  26.837   7.664
 2393POPC   C1B32443  26.030  27.079   8.564
 2393POPC   C2B32444  26.081  27.103   8.264
 2393POPC   C3B32445  26.057  27.054   7.964
 2393POPC   C4B32446  26.022  27.115   7.664
 2394POPC   NC332447   1.193   0.429   9.464
 2394POPC   PO432448   1.261   0.476   9.164
 2394POPC   GL132449   1.214   0.398   8.864
 2394POPC   GL232450   1.105   0.549   8.864
 2394POPC   C1A32451   1.170   0.476   8.564
 2394POPC   D2A32452   1.242   0.478   8.264
 2394POPC   C3A32453   1.257   0.482   7.964
 2394POPC   C4A32454   1.249   0.414   7.664
 2394POPC   C1B32455   1.097   0.606   8.564
 2394POPC   C2B32456   1.061   0.660   8.264
 2394POPC   C3B32457   1.018   0.604   7.964
 2394POPC   C4B32458   1.090   0.593   7.664
 2395POPC   NC332459  39.242  37.719   9.464
 2395POPC   PO432460  39.193  37.687   9.164
 2395POPC   GL132461  39.197  37.661   8.864
 2395POPC   GL232462  39.282  37.829   8.864
 2395POPC   C1A32463  39.221  37.704   8.564
 2395POPC   D2A32464  39.210  37.654   8.264
 2395POPC   C3A32465  39.232  37.729   7.964
 2395POPC   C4A32466  39.188  37.644   7.664
 2395POPC   C1B32467  39.239  37.880   8.564
 2395POPC   C2B32468  39.260  37.968   8.264
 2395POPC   C3B32469  39.225  37.883   7.964
 2395POPC   C4B32470  39.302  37.906   7.664
 2396POPC   NC332471  10.528   6.645   9.464
 2396POPC   PO432472  10.511   6.629   9.164
 2396POPC   GL132473  10.488   6.693   8.864
 2396POPC   GL232474  10.510   6.735   8.864
 2396POPC   C1A32475  10.528   6.629   8.564
 2396POPC   D2A32476  10.536   6.671   8.264
 2396POPC   C3A32477  10.554   6.607   7.964
 2396POPC   C4A32478  10.487   6.608   7.664
 2396POPC   C1B32479  10.373   6.844   8.564
 2396POPC   C2B32480  10.392   6.832   8.264
 2396POPC   C3B32481  10.421   6.860   7.964
 2396POPC   C4B32482  10.376   6.883   7.664
 2397POPC   NC332483   6.603   5.086   9.464
 2397POPC   PO432484   6.655   5.050   9.164
 2397POPC   GL132485   6.659   5.102   8.864
 2397POPC   GL232486   6.725   5.252   8.864
 2397POPC   C1A32487   6.640   5.093   8.564
 2397POPC   D2A32488   6.618   5.062   8.264
 2397POPC   C3A32489   6.623   5.075   7.964
 2397POPC   C4A32490   6.625   5.091   7.664
 2397POPC   C1B32491   6.684   5.343   8.564
 2397POPC   C2B32492   6.663   5.382   8.264
 2397POPC   C3B32493   6.713   5.312   7.964
 2397POPC   C4B32494   6.720   5.364   7.664
 2398POPC   NC332495  12.867  24.460   9.464
 2398POPC   PO432496  12.849  24.469   9.164
 2398POPC   GL132497  12.834  24.487   8.864
 2398POPC   GL232498  12.762  24.456   8.864
 2398POPC   C1A32499  12.858  24.532   8.564
 2398POPC   D2A32500  12.814  24.531   8.264
 2398POPC   C3A32501  12.810  24.478   7.964
 2398POPC   C4A32502  12.844  24.519   7.664
 2398POPC   C1B32503  12.596  24.361   8.564
 2398POPC   C2B32504  12.570  24.402   8.264
 2398POPC   C3B32505  12.652  24.369   7.964
 2398POPC   C4B32506  12.629  24.405   7.664
 2399POPC   NC332507  33.010  16.720   9.464
 2399POPC   PO432508  33.029  16.753   9.164
 2399POPC   GL132509  33.049  16.703   8.864
 2399POPC   GL232510  33.001  16.885   8.864
 2399POPC   C1A32511  33.034  16.686   8.564
 2399POPC   D2A32512  33.001  16.750   8.264
 2399POPC   C3A32513  33.025  16.684   7.964
 2399POPC   C4A32514  32.992  16.698   7.664
 2399POPC   C1B32515  32.959  16.942   8.564
 2399POPC   C2B32516  32.971  16.946   8.264
 2399POPC   C3B32517  32.951  16.991   7.964
 2399POPC   C4B32518  32.978  16.965   7.664
 2400POPC   NC332519  15.225  26.792   9.464
 2400POPC   PO432520  15.153  26.823   9.164
 2400POPC   GL132521  15.220  26.832   8.864
 2400POPC   GL232522  15.278  26.697   8.864
 2400POPC   C1A32523  15.207  26.853   8.564
 2400POPC   D2A32524  15.146  26.804   8.264
 2400POPC   C3A32525  15.172  26.795   7.964
 2400POPC   C4A32526  15.200  26.838   7.664
 2400POPC   C1B32527  15.376  26.644   8.564
 2400POPC   C2B32528  15.338  26.655   8.264
 2400POPC   C3B32529  15.360  26.593   7.964
 2400POPC   C4B32530  15.341  26.613   7.664
 2401POPC   NC332531  29.935  12.057   9.464
 2401POPC   PO432532  29.877  12.091   9.164
 2401POPC   GL132533  29.965  12.049   8.864
 2401POPC   GL232534  30.091  12.120   8.864
 2401POPC   C1A32535  29.919  12.083   8.564
 2401POPC   D2A32536  29.910  12.044   8.264
 2401POPC   C3A32537  29.902  12.072   7.964
 2401POPC   C4A32538  29.924  12.101   7.664
 2401POPC   C1B32539  30.158  12.141   8.564
 2401POPC   C2B32540  30.167  12.143   8.264
 2401POPC   C3B32541  30.165  12.062   7.964
 2401POPC   C4B32542  30.159  12.124   7.664
 2402POPC   NC332543  15.910  32.209   9.464
 2402POPC   PO432544  15.978  32.253   9.164
 2402POPC   GL132545  15.963  32.271   8.864
 2402POPC   GL232546  15.895  32.169   8.864
 2402POPC   C1A32547  15.911  32.265   8.564
 2402POPC   D2A32548  15.914  32.213   8.264
 2402POPC   C3A32549  15.969  32.235   7.964
 2402POPC   C4A32550  15.969  32.208   7.664
 2402POPC   C1B32551  15.852  32.067   8.564
 2402POPC   C2B32552  15.780  31.999   8.264
 2402POPC   C3B32553  15.780  32.093   7.964
 2402POPC   C4B32554  15.776  32.006   7.664
 2403POPC   NC332555  32.223  31.456   9.464
 2403POPC   PO432556  32.222  31.489   9.164
 2403POPC   GL132557  32.230  31.442   8.864
 2403POPC   GL232558  32.165  31.397   8.864
 2403POPC   C1A32559  32.202  31.457   8.564
 2403POPC   D2A32560  32.248  31.430   8.264
 2403POPC   C3A32561  32.234  31.434   7.964
 2403POPC   C4A32562  32.283  31.510   7.664
 2403POPC   C1B32563  32.127  31.314   8.564
 2403POPC   C2B32564  32.088  31.315   8.264
 2403POPC   C3B32565  32.095  31.262   7.964
 2403POPC   C4B32566  32.109  31.267   7.664
 2404POPC   NC332567   1.194   1.957   9.464
 2404POPC   PO432568   1.230   2.022   9.164
 2404POPC   GL132569   1.260   2.025   8.864
 2404POPC   GL232570   1.240   1.841   8.864
 2404POPC   C1A32571   1.224   2.013   8.564
 2404POPC   D2A32572   1.219   1.998   8.264
 2404POPC   C3A32573   1.256   1.940   7.964
 2404POPC   C4A32574   1.186   1.987   7.664
 2404POPC   C1B32575   1.327   1.724   8.564
 2404POPC   C2B32576   1.240   1.732   8.264
 2404POPC   C3B32577   1.328   1.789   7.964
 2404POPC   C4B32578   1.269   1.747   7.664
 2405POPC   NC332579  40.038  24.521   9.464
 2405POPC   PO432580  39.998  24.530   9.164
 2405POPC   GL132581  40.003  24.513   8.864
 2405POPC   GL232582  39.914  24.573   8.864
 2405POPC   C1A32583  39.976  24.530   8.564
 2405POPC   D2A32584  40.056  24.472   8.264
 2405POPC   C3A32585  39.982  24.459   7.964
 2405POPC   C4A32586  40.021  24.506   7.664
 2405POPC   C1B32587  39.879  24.701   8.564
 2405POPC   C2B32588  39.895  24.690   8.264
 2405POPC   C3B32589  39.874  24.660   7.964
 2405POPC   C4B32590  39.839  24.713   7.664
 2406POPC   NC332591  19.021  10.527   9.464
 2406POPC   PO432592  19.106  10.516   9.164
 2406POPC   GL132593  19.034  10.556   8.864
 2406POPC   GL232594  19.187  10.425   8.864
 2406POPC   C1A32595  19.037  10.574   8.564
 2406POPC   D2A32596  19.043  10.514   8.264
 2406POPC   C3A32597  19.021  10.573   7.964
 2406POPC   C4A32598  19.037  10.523   7.664
 2406POPC   C1B32599  19.289  10.451   8.564
 2406POPC   C2B32600  19.252  10.407   8.264
 2406POPC   C3B32601  19.240  10.421   7.964
 2406POPC   C4B32602  19.291  10.380   7.664
 2407POPC   NC332603   7.392  22.905   9.464
 2407POPC   PO432604   7.432  22.898   9.164
 2407POPC   GL132605   7.417  22.890   8.864
 2407POPC   GL232606   7.378  23.026   8.864
 2407POPC   C1A32607   7.372  22.983   8.564
 2407POPC   D2A32608   7.438  22.919   8.264
 2407POPC   C3A32609   7.372  22.946   7.964
 2407POPC   C4A32610   7.403  22.973   7.664
 2407POPC   C1B32611   7.244  23.147   8.564
 2407POPC   C2B32612   7.232  23.188   8.264
 2407POPC   C3B32613   7.305  23.108   7.964
 2407POPC   C4B32614   7.311  23.130   7.664
 2408POPC   NC332615   5.056  29.940   9.464
 2408POPC   PO432616   5.076  29.946   9.164
 2408POPC   GL132617   5.140  29.911   8.864
 2408POPC   GL232618   5.180  29.998   8.864
 2408POPC   C1A32619   5.103  29.960   8.564
 2408POPC   D2A32620   5.088  29.909   8.264
 2408POPC   C3A32621   5.123  29.919   7.964
 2408POPC   C4A32622   5.089  29.970   7.664
 2408POPC   C1B32623   5.154  30.135   8.564
 2408POPC   C2B32624   5.187  30.153   8.264
 2408POPC   C3B32625   5.153  30.200   7.964
 2408POPC   C4B32626   5.148  30.131   7.664
 2409POPC   NC332627  33.768  10.500   9.464
 2409POPC   PO432628  33.816  10.530   9.164
 2409POPC   GL132629  33.775  10.534   8.864
 2409POPC   GL232630  33.776  10.660   8.864
 2409POPC   C1A32631  33.791  10.481   8.564
 2409POPC   D2A32632  33.806  10.521   8.264
 2409POPC   C3A32633  33.826  10.491   7.964
 2409POPC   C4A32634  33.846  10.571   7.664
 2409POPC   C1B32635  33.796  10.772   8.564
 2409POPC   C2B32636  33.747  10.727   8.264
 2409POPC   C3B32637  33.743  10.775   7.964
 2409POPC   C4B32638  33.757  10.757   7.664
 2410POPC   NC332639  15.979  28.374   9.464
 2410POPC   PO432640  16.004  28.354   9.164
 2410POPC   GL132641  15.993  28.383   8.864
 2410POPC   GL232642  15.874  28.267   8.864
 2410POPC   C1A32643  15.990  28.348   8.564
 2410POPC   D2A32644  15.976  28.329   8.264
 2410POPC   C3A32645  15.946  28.371   7.964
 2410POPC   C4A32646  15.980  28.349   7.664
 2410POPC   C1B32647  15.838  28.179   8.564
 2410POPC   C2B32648  15.893  28.159   8.264
 2410POPC   C3B32649  15.863  28.091   7.964
 2410POPC   C4B32650  15.858  28.145   7.664
 2411POPC   NC332651  32.281   9.753   9.464
 2411POPC   PO432652  32.213   9.793   9.164
 2411POPC   GL132653  32.266   9.793   8.864
 2411POPC   GL232654  32.276   9.619   8.864
 2411POPC   C1A32655  32.216   9.792   8.564
 2411POPC   D2A32656  32.250   9.706   8.264
 2411POPC   C3A32657  32.274   9.789   7.964
 2411POPC   C4A32658  32.222   9.782   7.664
 2411POPC   C1B32659  32.276   9.460   8.564
 2411POPC   C2B32660  32.297   9.456   8.264
 2411POPC   C3B32661  32.241   9.519   7.964
 2411POPC   C4B32662  32.232   9.457   7.664
 2412POPC   NC332663   5.849  40.751   9.464
 2412POPC   PO432664   5.887  40.752   9.164
 2412POPC   GL132665   5.822  40.795   8.864
 2412POPC   GL232666   6.023  40.801   8.864
 2412POPC   C1A32667   5.827  40.783   8.564
 2412POPC   D2A32668   5.850  40.806   8.264
 2412POPC   C3A32669   5.832  40.766   7.964
 2412POPC   C4A32670   5.829  40.800   7.664
 2412POPC   C1B32671   6.105  40.879   8.564
 2412POPC   C2B32672   6.062  40.913   8.264
 2412POPC   C3B32673   6.081  40.938   7.964
 2412POPC   C4B32674   6.123  40.909   7.664
 2413POPC   NC332675  44.702  39.281   9.464
 2413POPC   PO432676  44.625  39.272   9.164
 2413POPC   GL132677  44.666  39.253   8.864
 2413POPC   GL232678  44.643  39.386   8.864
 2413POPC   C1A32679  44.648  39.198   8.564
 2413POPC   D2A32680  44.655  39.211   8.264
 2413POPC   C3A32681  44.699  39.260   7.964
 2413POPC   C4A32682  44.696  39.272   7.664
 2413POPC   C1B32683  44.751  39.437   8.564
 2413POPC   C2B32684  44.714  39.527   8.264
 2413POPC   C3B32685  44.685  39.475   7.964
 2413POPC   C4B32686  44.668  39.491   7.664
 2414POPC   NC332687  14.434  23.688   9.464
 2414POPC   PO432688  14.355  23.739   9.164
 2414POPC   GL132689  14.373  23.677   8.864
 2414POPC   GL232690  14.405  23.813   8.864
 2414POPC   C1A32691  14.403  23.679   8.564
 2414POPC   D2A32692  14.431  23.692   8.264
 2414POPC   C3A32693  14.410  23.704   7.964
 2414POPC   C4A32694  14.362  23.702   7.664
 2414POPC   C1B32695  14.483  23.972   8.564
 2414POPC   C2B32696  14.540  23.923   8.264
 2414POPC   C3B32697  14.517  23.955   7.964
 2414POPC   C4B32698  14.520  23.971   7.664
 2415POPC   NC332699  28.377   8.224   9.464
 2415POPC   PO432700  28.350   8.220   9.164
 2415POPC   GL132701  28.380   8.235   8.864
 2415POPC   GL232702  28.329   8.076   8.864
 2415POPC   C1A32703  28.402   8.170   8.564
 2415POPC   D2A32704  28.364   8.153   8.264
 2415POPC   C3A32705  28.366   8.179   7.964
 2415POPC   C4A32706  28.384   8.218   7.664
 2415POPC   C1B32707  28.248   8.009   8.564
 2415POPC   C2B32708  28.242   8.003   8.264
 2415POPC   C3B32709  28.200   7.955   7.964
 2415POPC   C4B32710  28.234   7.972   7.664
 2416POPC   NC332711  44.644  41.597   9.464
 2416POPC   PO432712  44.660  41.542   9.164
 2416POPC   GL132713  44.652  41.566   8.864
 2416POPC   GL232714  44.800  41.614   8.864
 2416POPC   C1A32715  44.630  41.555   8.564
 2416POPC   D2A32716  44.654  41.546   8.264
 2416POPC   C3A32717  44.708  41.596   7.964
 2416POPC   C4A32718  44.643  41.607   7.664
 2416POPC   C1B32719  44.875  41.756   8.564
 2416POPC   C2B32720  44.869  41.713   8.264
 2416POPC   C3B32721  44.824  41.742   7.964
 2416POPC   C4B32722  44.870  41.706   7.664
 2417POPC   NC332723  20.631   5.101   9.464
 2417POPC   PO432724  20.568   5.139   9.164
 2417POPC   GL132725  20.625   5.050   8.864
 2417POPC   GL232726  20.762   5.163   8.864
 2417POPC   C1A32727  20.565   5.122   8.564
 2417POPC   D2A32728  20.592   5.055   8.264
 2417POPC   C3A32729  20.583   5.101   7.964
 2417POPC   C4A32730  20.602   5.055   7.664
 2417POPC   C1B32731  20.851   5.186   8.564
 2417POPC   C2B32732  20.797   5.174   8.264
 2417POPC   C3B32733  20.846   5.141   7.964
 2417POPC   C4B32734  20.847   5.186   7.664
 2418POPC   NC332735  43.127  44.654   9.464
 2418POPC   PO432736  43.098  44.686   9.164
 2418POPC   GL132737  43.088  44.660   8.864
 2418POPC   GL232738  43.123  44.738   8.864
 2418POPC   C1A32739  43.135  44.689   8.564
 2418POPC   D2A32740  43.073  44.667   8.264
 2418POPC   C3A32741  43.080  44.667   7.964
 2418POPC   C4A32742  43.107  44.695   7.664
 2418POPC   C1B32743  43.043  44.945   8.564
 2418POPC   C2B32744  43.104  44.920   8.264
 2418POPC   C3B32745  43.098  44.916   7.964
 2418POPC   C4B32746  43.111  44.940   7.664
 2419POPC   NC332747  12.820  40.746   9.464
 2419POPC   PO432748  12.834  40.746   9.164
 2419POPC   GL132749  12.827  40.810   8.864
 2419POPC   GL232750  12.986  40.843   8.864
 2419POPC   C1A32751  12.843  40.735   8.564
 2419POPC   D2A32752  12.897  40.755   8.264
 2419POPC   C3A32753  12.872  40.803   7.964
 2419POPC   C4A32754  12.883  40.733   7.664
 2419POPC   C1B32755  13.080  40.988   8.564
 2419POPC   C2B32756  13.025  40.969   8.264
 2419POPC   C3B32757  13.039  40.983   7.964
 2419POPC   C4B32758  13.061  40.902   7.664
 2420POPC   NC332759  28.417  42.365   9.464
 2420POPC   PO432760  28.399  42.373   9.164
 2420POPC   GL132761  28.395  42.324   8.864
 2420POPC   GL232762  28.280  42.289   8.864
 2420POPC   C1A32763  28.353  42.378   8.564
 2420POPC   D2A32764  28.342  42.317   8.264
 2420POPC   C3A32765  28.390  42.332   7.964
 2420POPC   C4A32766  28.346  42.361   7.664
 2420POPC   C1B32767  28.156  42.179   8.564
 2420POPC   C2B32768  28.158  42.139   8.264
 2420POPC   C3B32769  28.133  42.198   7.964
 2420POPC   C4B32770  28.172  42.180   7.664
 2421POPC   NC332771   1.989  29.969   9.464
 2421POPC   PO432772   1.987  29.871   9.164
 2421POPC   GL132773   2.025  29.939   8.864
 2421POPC   GL232774   2.047  30.039   8.864
 2421POPC   C1A32775   1.960  29.946   8.564
 2421POPC   D2A32776   2.019  29.923   8.264
 2421POPC   C3A32777   2.028  29.900   7.964
 2421POPC   C4A32778   1.984  29.885   7.664
 2421POPC   C1B32779   1.990  30.122   8.564
 2421POPC   C2B32780   1.973  30.171   8.264
 2421POPC   C3B32781   1.995  30.168   7.964
 2421POPC   C4B32782   2.009  30.137   7.664
 2422POPC   NC332783  27.582  15.994   9.464
 2422POPC   PO432784  27.578  16.000   9.164
 2422POPC   GL132785  27.566  16.003   8.864
 2422POPC   GL232786  27.445  16.061   8.864
 2422POPC   C1A32787  27.592  15.991   8.564
 2422POPC   D2A32788  27.591  15.909   8.264
 2422POPC   C3A32789  27.586  15.908   7.964
 2422POPC   C4A32790  27.642  15.996   7.664
 2422POPC   C1B32791  27.384  16.079   8.564
 2422POPC   C2B32792  27.425  16.081   8.264
 2422POPC   C3B32793  27.439  16.107   7.964
 2422POPC   C4B32794  27.351  16.067   7.664
 2423POPC   NC332795   8.149  32.245   9.464
 2423POPC   PO432796   8.193  32.250   9.164
 2423POPC   GL132797   8.184  32.223   8.864
 2423POPC   GL232798   8.310  32.283   8.864
 2423POPC   C1A32799   8.148  32.223   8.564
 2423POPC   D2A32800   8.242  32.224   8.264
 2423POPC   C3A32801   8.241  32.289   7.964
 2423POPC   C4A32802   8.173  32.285   7.664
 2423POPC   C1B32803   8.405  32.420   8.564
 2423POPC   C2B32804   8.393  32.350   8.264
 2423POPC   C3B32805   8.444  32.377   7.964
 2423POPC   C4B32806   8.396  32.355   7.664
 2424POPC   NC332807  38.417   5.068   9.464
 2424POPC   PO432808  38.485   5.135   9.164
 2424POPC   GL132809  38.441   5.141   8.864
 2424POPC   GL232810  38.360   5.023   8.864
 2424POPC   C1A32811  38.492   5.113   8.564
 2424POPC   D2A32812  38.449   5.075   8.264
 2424POPC   C3A32813  38.456   5.062   7.964
 2424POPC   C4A32814  38.441   5.105   7.664
 2424POPC   C1B32815  38.193   5.003   8.564
 2424POPC   C2B32816  38.221   4.954   8.264
 2424POPC   C3B32817  38.259   5.018   7.964
 2424POPC   C4B32818  38.224   4.948   7.664
 2425POPC   NC332819  16.742  12.853   9.464
 2425POPC   PO432820  16.771  12.896   9.164
 2425POPC   GL132821  16.685  12.894   8.864
 2425POPC   GL232822  16.774  12.702   8.864
 2425POPC   C1A32823  16.751  12.864   8.564
 2425POPC   D2A32824  16.699  12.900   8.264
 2425POPC   C3A32825  16.751  12.894   7.964
 2425POPC   C4A32826  16.706  12.878   7.664
 2425POPC   C1B32827  16.820  12.643   8.564
 2425POPC   C2B32828  16.885  12.595   8.264
 2425POPC   C3B32829  16.846  12.640   7.964
 2425POPC   C4B32830  16.873  12.645   7.664
 2426POPC   NC332831  43.917   5.110   9.464
 2426POPC   PO432832  43.902   5.073   9.164
 2426POPC   GL132833  43.883   5.112   8.864
 2426POPC   GL232834  43.882   4.949   8.864
 2426POPC   C1A32835  43.843   5.115   8.564
 2426POPC   D2A32836  43.924   5.088   8.264
 2426POPC   C3A32837  43.899   5.129   7.964
 2426POPC   C4A32838  43.877   5.093   7.664
 2426POPC   C1B32839  43.967   4.873   8.564
 2426POPC   C2B32840  43.976   4.871   8.264
 2426POPC   C3B32841  43.960   4.895   7.964
 2426POPC   C4B32842  43.989   4.861   7.664
 2427POPC   NC332843   2.794  29.106   9.464
 2427POPC   PO432844   2.740  29.099   9.164
 2427POPC   GL132845   2.774  29.180   8.864
 2427POPC   GL232846   2.678  29.224   8.864
 2427POPC   C1A32847   2.743  29.154   8.564
 2427POPC   D2A32848   2.720  29.101   8.264
 2427POPC   C3A32849   2.746  29.134   7.964
 2427POPC   C4A32850   2.752  29.131   7.664
 2427POPC   C1B32851   2.589  29.366   8.564
 2427POPC   C2B32852   2.656  29.295   8.264
 2427POPC   C3B32853   2.609  29.316   7.964
 2427POPC   C4B32854   2.654  29.341   7.664
 2428POPC   NC332855   1.953  19.789   9.464
 2428POPC   PO432856   1.999  19.786   9.164
 2428POPC   GL132857   1.945  19.876   8.864
 2428POPC   GL232858   2.061  19.754   8.864
 2428POPC   C1A32859   2.027  19.839   8.564
 2428POPC   D2A32860   1.991  19.882   8.264
 2428POPC   C3A32861   2.038  19.833   7.964
 2428POPC   C4A32862   2.030  19.794   7.664
 2428POPC   C1B32863   2.060  19.634   8.564
 2428POPC   C2B32864   2.114  19.627   8.264
 2428POPC   C3B32865   2.152  19.598   7.964
 2428POPC   C4B32866   2.155  19.659   7.664
 2429POPC   NC332867  10.482  26.798   9.464
 2429POPC   PO432868  10.513  26.819   9.164
 2429POPC   GL132869  10.483  26.785   8.864
 2429POPC   GL232870  10.636  26.854   8.864
 2429POPC   C1A32871  10.509  26.799   8.564
 2429POPC   D2A32872  10.521  26.801   8.264
 2429POPC   C3A32873  10.475  26.806   7.964
 2429POPC   C4A32874  10.503  26.850   7.664
 2429POPC   C1B32875  10.753  26.836   8.564
 2429POPC   C2B32876  10.731  26.786   8.264
 2429POPC   C3B32877  10.818  26.788   7.964
 2429POPC   C4B32878  10.800  26.872   7.664
 2430POPC   NC332879  22.964   7.395   9.464
 2430POPC   PO432880  22.955   7.409   9.164
 2430POPC   GL132881  22.955   7.434   8.864
 2430POPC   GL232882  22.878   7.483   8.864
 2430POPC   C1A32883  22.964   7.380   8.564
 2430POPC   D2A32884  22.889   7.428   8.264
 2430POPC   C3A32885  22.946   7.459   7.964
 2430POPC   C4A32886  22.923   7.450   7.664
 2430POPC   C1B32887  22.746   7.605   8.564
 2430POPC   C2B32888  22.836   7.668   8.264
 2430POPC   C3B32889  22.828   7.657   7.964
 2430POPC   C4B32890  22.782   7.650   7.664
 2431POPC   NC332891  29.193  44.711   9.464
 2431POPC   PO432892  29.175  44.618   9.164
 2431POPC   GL132893  29.185  44.656   8.864
 2431POPC   GL232894  29.148  44.494   8.864
 2431POPC   C1A32895  29.124  44.695   8.564
 2431POPC   D2A32896  29.191  44.710   8.264
 2431POPC   C3A32897  29.184  44.683   7.964
 2431POPC   C4A32898  29.109  44.684   7.664
 2431POPC   C1B32899  29.129  44.442   8.564
 2431POPC   C2B32900  29.104  44.378   8.264
 2431POPC   C3B32901  29.140  44.431   7.964
 2431POPC   C4B32902  29.160  44.439   7.664
 2432POPC   NC332903  42.331  30.723   9.464
 2432POPC   PO432904  42.317  30.650   9.164
 2432POPC   GL132905  42.308  30.651   8.864
 2432POPC   GL232906  42.407  30.774   8.864
 2432POPC   C1A32907  42.285  30.703   8.564
 2432POPC   D2A32908  42.318  30.654   8.264
 2432POPC   C3A32909  42.363  30.660   7.964
 2432POPC   C4A32910  42.363  30.698   7.664
 2432POPC   C1B32911  42.571  30.754   8.564
 2432POPC   C2B32912  42.546  30.778   8.264
 2432POPC   C3B32913  42.561  30.821   7.964
 2432POPC   C4B32914  42.566  30.800   7.664
 2433POPC   NC332915  29.914  18.266   9.464
 2433POPC   PO432916  29.926  18.248   9.164
 2433POPC   GL132917  29.897  18.268   8.864
 2433POPC   GL232918  30.070  18.307   8.864
 2433POPC   C1A32919  29.939  18.266   8.564
 2433POPC   D2A32920  29.956  18.315   8.264
 2433POPC   C3A32921  29.899  18.270   7.964
 2433POPC   C4A32922  29.931  18.281   7.664
 2433POPC   C1B32923  30.184  18.295   8.564
 2433POPC   C2B32924  30.218  18.244   8.264
 2433POPC   C3B32925  30.173  18.316   7.964
 2433POPC   C4B32926  30.206  18.322   7.664
 2434POPC   NC332927   1.971  13.675   9.464
 2434POPC   PO432928   2.004  13.600   9.164
 2434POPC   GL132929   1.999  13.629   8.864
 2434POPC   GL232930   2.114  13.567   8.864
 2434POPC   C1A32931   1.980  13.593   8.564
 2434POPC   D2A32932   1.944  13.667   8.264
 2434POPC   C3A32933   2.027  13.624   7.964
 2434POPC   C4A32934   1.993  13.669   7.664
 2434POPC   C1B32935   2.205  13.502   8.564
 2434POPC   C2B32936   2.193  13.467   8.264
 2434POPC   C3B32937   2.229  13.449   7.964
 2434POPC   C4B32938   2.152  13.536   7.664
 2435POPC   NC332939  26.778  28.329   9.464
 2435POPC   PO432940  26.787  28.395   9.164
 2435POPC   GL132941  26.812  28.378   8.864
 2435POPC   GL232942  26.749  28.276   8.864
 2435POPC   C1A32943  26.779  28.376   8.564
 2435POPC   D2A32944  26.784  28.340   8.264
 2435POPC   C3A32945  26.857  28.410   7.964
 2435POPC   C4A32946  26.862  28.346   7.664
 2435POPC   C1B32947  26.697  28.150   8.564
 2435POPC   C2B32948  26.657  28.160   8.264
 2435POPC   C3B32949  26.638  28.159   7.964
 2435POPC   C4B32950  26.600  28.173   7.664
 2436POPC   NC332951  15.913  32.983   9.464
 2436POPC   PO432952  15.980  33.033   9.164
 2436POPC   GL132953  15.920  33.010   8.864
 2436POPC   GL232954  16.034  33.043   8.864
 2436POPC   C1A32955  15.985  33.049   8.564
 2436POPC   D2A32956  15.932  32.975   8.264
 2436POPC   C3A32957  15.979  33.018   7.964
 2436POPC   C4A32958  15.952  33.003   7.664
 2436POPC   C1B32959  16.194  33.195   8.564
 2436POPC   C2B32960  16.127  33.131   8.264
 2436POPC   C3B32961  16.200  33.177   7.964
 2436POPC   C4B32962  16.172  33.100   7.664
 2437POPC   NC332963   6.599  11.304   9.464
 2437POPC   PO432964   6.634  11.274   9.164
 2437POPC   GL132965   6.693  11.275   8.864
 2437POPC   GL232966   6.522  11.283   8.864
 2437POPC   C1A32967   6.666  11.258   8.564
 2437POPC   D2A32968   6.625  11.328   8.264
 2437POPC   C3A32969   6.653  11.259   7.964
 2437POPC   C4A32970   6.668  11.273   7.664
 2437POPC   C1B32971   6.419  11.286   8.564
 2437POPC   C2B32972   6.400  11.303   8.264
 2437POPC   C3B32973   6.373  11.258   7.964
 2437POPC   C4B32974   6.378  11.319   7.664
 2438POPC   NC332975  40.743  42.302   9.464
 2438POPC   PO432976  40.783  42.369   9.164
 2438POPC   GL132977  40.795  42.329   8.864
 2438POPC   GL232978  40.617  42.388   8.864
 2438POPC   C1A32979  40.760  42.334   8.564
 2438POPC   D2A32980  40.803  42.291   8.264
 2438POPC   C3A32981  40.766  42.375   7.964
 2438POPC   C4A32982  40.744  42.300   7.664
 2438POPC   C1B32983  40.564  42.309   8.564
 2438POPC   C2B32984  40.560  42.325   8.264
 2438POPC   C3B32985  40.516  42.330   7.964
 2438POPC   C4B32986  40.508  42.344   7.664
 2439POPC   NC332987   7.398  29.876   9.464
 2439POPC   PO432988   7.421  29.954   9.164
 2439POPC   GL132989   7.459  29.877   8.864
 2439POPC   GL232990   7.301  29.977   8.864
 2439POPC   C1A32991   7.443  29.939   8.564
 2439POPC   D2A32992   7.389  29.888   8.264
 2439POPC   C3A32993   7.382  29.919   7.964
 2439POPC   C4A32994   7.372  29.958   7.664
 2439POPC   C1B32995   7.239  30.036   8.564
 2439POPC   C2B32996   7.177  30.032   8.264
 2439POPC   C3B32997   7.170  29.989   7.964
 2439POPC   C4B32998   7.189  29.984   7.664
 2440POPC   NC332999  42.300  19.030   9.464
 2440POPC   PO433000  42.330  19.021   9.164
 2440POPC   GL133001  42.313  19.075   8.864
 2440POPC   GL233002  42.478  19.074   8.864
 2440POPC   C1A33003  42.302  19.084   8.564
 2440POPC   D2A33004  42.334  19.059   8.264
 2440POPC   C3A33005  42.344  19.052   7.964
 2440POPC   C4A33006  42.298  19.037   7.664
 2440POPC   C1B33007  42.621  19.119   8.564
 2440POPC   C2B33008  42.625  19.070   8.264
 2440POPC   C3B33009  42.547  19.095   7.964
 2440POPC   C4B33010  42.610  19.084   7.664
 2441POPC   NC333011   2.775  10.572   9.464
 2441POPC   PO433012   2.760  10.483   9.164
 2441POPC   GL133013   2.719  10.524   8.864
 2441POPC   GL233014   2.847  10.662   8.864
 2441POPC   C1A33015   2.760  10.497   8.564
 2441POPC   D2A33016   2.746  10.565   8.264
 2441POPC   C3A33017   2.747  10.480   7.964
 2441POPC   C4A33018   2.803  10.503   7.664
 2441POPC   C1B33019   2.908  10.758   8.564
 2441POPC   C2B33020   2.962  10.702   8.264
 2441POPC   C3B33021   2.899  10.740   7.964
 2441POPC   C4B33022   2.929  10.677   7.664
 2442POPC   NC333023  17.482  30.697   9.464
 2442POPC   PO433024  17.488  30.667   9.164
 2442POPC   GL133025  17.535  30.733   8.864
 2442POPC   GL233026  17.387  30.642   8.864
 2442POPC   C1A33027  17.537  30.681   8.564
 2442POPC   D2A33028  17.488  30.736   8.264
 2442POPC   C3A33029  17.548  30.711   7.964
 2442POPC   C4A33030  17.543  30.669   7.664
 2442POPC   C1B33031  17.261  30.560   8.564
 2442POPC   C2B33032  17.321  30.594   8.264
 2442POPC   C3B33033  17.329  30.576   7.964
 2442POPC   C4B33034  17.309  30.610   7.664
 2443POPC   NC333035   2.790  43.844   9.464
 2443POPC   PO433036   2.785  43.852   9.164
 2443POPC   GL133037   2.793  43.873   8.864
 2443POPC   GL233038   2.768  43.748   8.864
 2443POPC   C1A33039   2.720  43.875   8.564
 2443POPC   D2A33040   2.811  43.889   8.264
 2443POPC   C3A33041   2.750  43.894   7.964
 2443POPC   C4A33042   2.800  43.870   7.664
 2443POPC   C1B33043   2.661  43.669   8.564
 2443POPC   C2B33044   2.710  43.631   8.264
 2443POPC   C3B33045   2.681  43.675   7.964
 2443POPC   C4B33046   2.711  43.670   7.664
 2444POPC   NC333047   3.554   6.686   9.464
 2444POPC   PO433048   3.524   6.612   9.164
 2444POPC   GL133049   3.524   6.615   8.864
 2444POPC   GL233050   3.664   6.557   8.864
 2444POPC   C1A33051   3.533   6.643   8.564
 2444POPC   D2A33052   3.574   6.657   8.264
 2444POPC   C3A33053   3.518   6.654   7.964
 2444POPC   C4A33054   3.559   6.649   7.664
 2444POPC   C1B33055   3.752   6.544   8.564
 2444POPC   C2B33056   3.745   6.542   8.264
 2444POPC   C3B33057   3.753   6.512   7.964
 2444POPC   C4B33058   3.757   6.544   7.664
 2445POPC   NC333059  12.033  31.461   9.464
 2445POPC   PO433060  12.049  31.425   9.164
 2445POPC   GL133061  12.034  31.484   8.864
 2445POPC   GL233062  12.173  31.382   8.864
 2445POPC   C1A33063  12.069  31.472   8.564
 2445POPC   D2A33064  12.075  31.438   8.264
 2445POPC   C3A33065  12.036  31.483   7.964
 2445POPC   C4A33066  12.027  31.515   7.664
 2445POPC   C1B33067  12.171  31.237   8.564
 2445POPC   C2B33068  12.201  31.260   8.264
 2445POPC   C3B33069  12.232  31.309   7.964
 2445POPC   C4B33070  12.244  31.235   7.664
 2446POPC   NC333071  11.275  12.831   9.464
 2446POPC   PO433072  11.258  12.845   9.164
 2446POPC   GL133073  11.325  12.895   8.864
 2446POPC   GL233074  11.242  12.975   8.864
 2446POPC   C1A33075  11.280  12.867   8.564
 2446POPC   D2A33076  11.315  12.844   8.264
 2446POPC   C3A33077  11.299  12.804   7.964
 2446POPC   C4A33078  11.274  12.843   7.664
 2446POPC   C1B33079  11.112  12.986   8.564
 2446POPC   C2B33080  11.112  13.045   8.264
 2446POPC   C3B33081  11.130  13.025   7.964
 2446POPC   C4B33082  11.134  13.006   7.664
 2447POPC   NC333083  36.155  17.466   9.464
 2447POPC   PO433084  36.133  17.551   9.164
 2447POPC   GL133085  36.119  17.480   8.864
 2447POPC   GL233086  36.248  17.530   8.864
 2447POPC   C1A33087  36.134  17.520   8.564
 2447POPC   D2A33088  36.157  17.463   8.264
 2447POPC   C3A33089  36.166  17.474   7.964
 2447POPC   C4A33090  36.137  17.464   7.664
 2447POPC   C1B33091  36.348  17.684   8.564
 2447POPC   C2B33092  36.295  17.614   8.264
 2447POPC   C3B33093  36.376  17.667   7.964
 2447POPC   C4B33094  36.359  17.683   7.664
 2448POPC   NC333095  26.828  20.585   9.464
 2448POPC   PO433096  26.798  20.650   9.164
 2448POPC   GL133097  26.786  20.635   8.864
 2448POPC   GL233098  26.925  20.601   8.864
 2448POPC   C1A33099  26.859  20.635   8.564
 2448POPC   D2A33100  26.862  20.616   8.264
 2448POPC   C3A33101  26.822  20.611   7.964
 2448POPC   C4A33102  26.834  20.643   7.664
 2448POPC   C1B33103  27.057  20.569   8.564
 2448POPC   C2B33104  27.067  20.603   8.264
 2448POPC   C3B33105  27.106  20.635   7.964
 2448POPC   C4B33106  27.017  20.593   7.664
 2449POPC   NC333107  37.720  13.637   9.464
 2449POPC   PO433108  37.659  13.578   9.164
 2449POPC   GL133109  37.695  13.601   8.864
 2449POPC   GL233110  37.770  13.548   8.864
 2449POPC   C1A33111  37.691  13.609   8.564
 2449POPC   D2A33112  37.710  13.625   8.264
 2449POPC   C3A33113  37.727  13.641   7.964
 2449POPC   C4A33114  37.727  13.675   7.664
 2449POPC   C1B33115  37.802  13.461   8.564
 2449POPC   C2B33116  37.827  13.460   8.264
 2449POPC   C3B33117  37.844  13.396   7.964
 2449POPC   C4B33118  37.859  13.463   7.664
 2450POPC   NC333119  18.272  43.896   9.464
 2450POPC   PO433120  18.247  43.851   9.164
 2450POPC   GL133121  18.272  43.928   8.864
 2450POPC   GL233122  18.367  43.915   8.864
 2450POPC   C1A33123  18.327  43.921   8.564
 2450POPC   D2A33124  18.330  43.857   8.264
 2450POPC   C3A33125  18.321  43.930   7.964
 2450POPC   C4A33126  18.235  43.854   7.664
 2450POPC   C1B33127  18.543  43.862   8.564
 2450POPC   C2B33128  18.522  43.851   8.264
 2450POPC   C3B33129  18.497  43.819   7.964
 2450POPC   C4B33130  18.517  43.871   7.664
 2451POPC   NC333131  26.843  26.067   9.464
 2451POPC   PO433132  26.830  26.013   9.164
 2451POPC   GL133133  26.858  26.080   8.864
 2451POPC   GL233134  26.892  26.098   8.864
 2451POPC   C1A33135  26.804  26.005   8.564
 2451POPC   D2A33136  26.785  26.055   8.264
 2451POPC   C3A33137  26.777  26.028   7.964
 2451POPC   C4A33138  26.807  26.014   7.664
 2451POPC   C1B33139  27.021  26.179   8.564
 2451POPC   C2B33140  27.053  26.167   8.264
 2451POPC   C3B33141  27.002  26.180   7.964
 2451POPC   C4B33142  27.025  26.178   7.664
 2452POPC   NC333143   8.174  29.117   9.464
 2452POPC   PO433144   8.181  29.146   9.164
 2452POPC   GL133145   8.186  29.193   8.864
 2452POPC   GL233146   8.276  29.202   8.864
 2452POPC   C1A33147   8.188  29.165   8.564
 2452POPC   D2A33148   8.213  29.167   8.264
 2452POPC   C3A33149   8.148  29.134   7.964
 2452POPC   C4A33150   8.219  29.152   7.664
 2452POPC   C1B33151   8.490  29.227   8.564
 2452POPC   C2B33152   8.491  29.175   8.264
 2452POPC   C3B33153   8.491  29.215   7.964
 2452POPC   C4B33154   8.477  29.208   7.664
 2453POPC   NC333155  30.658  38.426   9.464
 2453POPC   PO433156  30.661  38.441   9.164
 2453POPC   GL133157  30.700  38.438   8.864
 2453POPC   GL233158  30.667  38.533   8.864
 2453POPC   C1A33159  30.653  38.437   8.564
 2453POPC   D2A33160  30.681  38.487   8.264
 2453POPC   C3A33161  30.652  38.479   7.964
 2453POPC   C4A33162  30.688  38.443   7.664
 2453POPC   C1B33163  30.646  38.722   8.564
 2453POPC   C2B33164  30.693  38.691   8.264
 2453POPC   C3B33165  30.674  38.708   7.964
 2453POPC   C4B33166  30.696  38.738   7.664
 2454POPC   NC333167  15.969  41.567   9.464
 2454POPC   PO433168  15.934  41.598   9.164
 2454POPC   GL133169  15.998  41.573   8.864
 2454POPC   GL233170  15.897  41.436   8.864
 2454POPC   C1A33171  15.928  41.555   8.564
 2454POPC   D2A33172  15.909  41.585   8.264
 2454POPC   C3A33173  15.996  41.556   7.964
 2454POPC   C4A33174  15.991  41.530   7.664
 2454POPC   C1B33175  15.784  41.361   8.564
 2454POPC   C2B33176  15.782  41.375   8.264
 2454POPC   C3B33177  15.843  41.350   7.964
 2454POPC   C4B33178  15.819  41.352   7.664
 2455POPC   NC333179  25.257  16.682   9.464
 2455POPC   PO433180  25.299  16.693   9.164
 2455POPC   GL133181  25.256  16.711   8.864
 2455POPC   GL233182  25.421  16.720   8.864
 2455POPC   C1A33183  25.299  16.764   8.564
 2455POPC   D2A33184  25.216  16.748   8.264
 2455POPC   C3A33185  25.263  16.688   7.964
 2455POPC   C4A33186  25.221  16.770   7.664
 2455POPC   C1B33187  25.527  16.625   8.564
 2455POPC   C2B33188  25.507  16.663   8.264
 2455POPC   C3B33189  25.460  16.645   7.964
 2455POPC   C4B33190  25.520  16.616   7.664
 2456POPC   NC333191  40.804  29.132   9.464
 2456POPC   PO433192  40.817  29.182   9.164
 2456POPC   GL133193  40.806  29.122   8.864
 2456POPC   GL233194  40.738  29.266   8.864
 2456POPC   C1A33195  40.825  29.099   8.564
 2456POPC   D2A33196  40.779  29.146   8.264
 2456POPC   C3A33197  40.796  29.179   7.964
 2456POPC   C4A33198  40.736  29.166   7.664
 2456POPC   C1B33199  40.566  29.326   8.564
 2456POPC   C2B33200  40.619  29.338   8.264
 2456POPC   C3B33201  40.577  29.284   7.964
 2456POPC   C4B33202  40.567  29.361   7.664
 2457POPC   NC333203  34.528  22.125   9.464
 2457POPC   PO433204  34.619  22.150   9.164
 2457POPC   GL133205  34.594  22.167   8.864
 2457POPC   GL233206  34.655  22.310   8.864
 2457POPC   C1A33207  34.586  22.188   8.564
 2457POPC   D2A33208  34.560  22.199   8.264
 2457POPC   C3A33209  34.543  22.143   7.964
 2457POPC   C4A33210  34.563  22.186   7.664
 2457POPC   C1B33211  34.656  22.360   8.564
 2457POPC   C2B33212  34.646  22.371   8.264
 2457POPC   C3B33213  34.655  22.409   7.964
 2457POPC   C4B33214  34.705  22.413   7.664
 2458POPC   NC333215  36.160  43.083   9.464
 2458POPC   PO433216  36.080  43.112   9.164
 2458POPC   GL133217  36.150  43.069   8.864
 2458POPC   GL233218  36.071  42.969   8.864
 2458POPC   C1A33219  36.152  43.114   8.564
 2458POPC   D2A33220  36.133  43.075   8.264
 2458POPC   C3A33221  36.157  43.088   7.964
 2458POPC   C4A33222  36.137  43.124   7.664
 2458POPC   C1B33223  35.913  42.902   8.564
 2458POPC   C2B33224  36.004  42.952   8.264
 2458POPC   C3B33225  35.975  42.961   7.964
 2458POPC   C4B33226  35.975  42.970   7.664
 2459POPC   NC333227  19.021  31.440   9.464
 2459POPC   PO433228  19.078  31.484   9.164
 2459POPC   GL133229  19.101  31.511   8.864
 2459POPC   GL233230  19.025  31.398   8.864
 2459POPC   C1A33231  19.102  31.424   8.564
 2459POPC   D2A33232  19.011  31.489   8.264
 2459POPC   C3A33233  19.087  31.500   7.964
 2459POPC   C4A33234  19.079  31.466   7.664
 2459POPC   C1B33235  18.934  31.203   8.564
 2459POPC   C2B33236  18.985  31.233   8.264
 2459POPC   C3B33237  18.972  31.252   7.964
 2459POPC   C4B33238  18.938  31.217   7.664
 2460POPC   NC333239  43.883   1.241   9.464
 2460POPC   PO433240  43.922   1.255   9.164
 2460POPC   GL133241  43.839   1.225   8.864
 2460POPC   GL233242  43.863   1.047   8.864
 2460POPC   C1A33243  43.919   1.254   8.564
 2460POPC   D2A33244  43.861   1.258   8.264
 2460POPC   C3A33245  43.846   1.202   7.964
 2460POPC   C4A33246  43.881   1.259   7.664
 2460POPC   C1B33247  43.902   0.941   8.564
 2460POPC   C2B33248  43.884   1.011   8.264
 2460POPC   C3B33249  43.880   1.007   7.964
 2460POPC   C4B33250  43.878   1.003   7.664
 2461POPC   NC333251   3.518  24.509   9.464
 2461POPC   PO433252   3.576  24.497   9.164
 2461POPC   GL133253   3.564  24.490   8.864
 2461POPC   GL233254   3.530  24.385   8.864
 2461POPC   C1A33255   3.503  24.481   8.564
 2461POPC   D2A33256   3.544  24.455   8.264
 2461POPC   C3A33257   3.563  24.525   7.964
 2461POPC   C4A33258   3.526  24.536   7.664
 2461POPC   C1B33259   3.457  24.239   8.564
 2461POPC   C2B33260   3.415  24.305   8.264
 2461POPC   C3B33261   3.449  24.233   7.964
 2461POPC   C4B33262   3.489  24.294   7.664
 2462POPC   NC333263   5.819   7.391   9.464
 2462POPC   PO433264   5.889   7.468   9.164
 2462POPC   GL133265   5.826   7.384   8.864
 2462POPC   GL233266   5.981   7.325   8.864
 2462POPC   C1A33267   5.837   7.391   8.564
 2462POPC   D2A33268   5.880   7.425   8.264
 2462POPC   C3A33269   5.846   7.385   7.964
 2462POPC   C4A33270   5.900   7.415   7.664
 2462POPC   C1B33271   6.040   7.284   8.564
 2462POPC   C2B33272   6.069   7.308   8.264
 2462POPC   C3B33273   6.075   7.218   7.964
 2462POPC   C4B33274   6.073   7.289   7.664
 2463POPC   NC333275  40.740  30.706   9.464
 2463POPC   PO433276  40.809  30.718   9.164
 2463POPC   GL133277  40.808  30.723   8.864
 2463POPC   GL233278  40.689  30.611   8.864
 2463POPC   C1A33279  40.804  30.712   8.564
 2463POPC   D2A33280  40.818  30.737   8.264
 2463POPC   C3A33281  40.749  30.684   7.964
 2463POPC   C4A33282  40.827  30.687   7.664
 2463POPC   C1B33283  40.573  30.561   8.564
 2463POPC   C2B33284  40.579  30.619   8.264
 2463POPC   C3B33285  40.529  30.608   7.964
 2463POPC   C4B33286  40.603  30.627   7.664
 2464POPC   NC333287  34.533   0.437   9.464
 2464POPC   PO433288  34.553   0.394   9.164
 2464POPC   GL133289  34.624   0.394   8.864
 2464POPC   GL233290  34.521   0.588   8.864
 2464POPC   C1A33291  34.617   0.404   8.564
 2464POPC   D2A33292  34.542   0.468   8.264
 2464POPC   C3A33293  34.554   0.430   7.964
 2464POPC   C4A33294  34.528   0.441   7.664
 2464POPC   C1B33295  34.494   0.637   8.564
 2464POPC   C2B33296  34.540   0.630   8.264
 2464POPC   C3B33297  34.513   0.653   7.964
 2464POPC   C4B33298  34.520   0.660   7.664
 2465POPC   NC333299  42.382  43.929   9.464
 2465POPC   PO433300  42.292  43.912   9.164
 2465POPC   GL133301  42.364  43.837   8.864
 2465POPC   GL233302  42.205  43.928   8.864
 2465POPC   C1A33303  42.314  43.923   8.564
 2465POPC   D2A33304  42.372  43.880   8.264
 2465POPC   C3A33305  42.307  43.933   7.964
 2465POPC   C4A33306  42.336  43.884   7.664
 2465POPC   C1B33307  42.132  43.899   8.564
 2465POPC   C2B33308  42.095  43.916   8.264
 2465POPC   C3B33309  42.095  43.965   7.964
 2465POPC   C4B33310  42.111  43.886   7.664
 2466POPC   NC333311  23.682  12.117   9.464
 2466POPC   PO433312  23.707  12.092   9.164
 2466POPC   GL133313  23.704  12.083   8.864
 2466POPC   GL233314  23.790  11.987   8.864
 2466POPC   C1A33315  23.762  12.123   8.564
 2466POPC   D2A33316  23.672  12.109   8.264
 2466POPC   C3A33317  23.700  12.117   7.964
 2466POPC   C4A33318  23.704  12.061   7.664
 2466POPC   C1B33319  23.889  11.884   8.564
 2466POPC   C2B33320  23.949  11.900   8.264
 2466POPC   C3B33321  23.915  11.928   7.964
 2466POPC   C4B33322  23.879  11.977   7.664
 2467POPC   NC333323  36.886  40.806   9.464
 2467POPC   PO433324  36.936  40.771   9.164
 2467POPC   GL133325  36.921  40.831   8.864
 2467POPC   GL233326  36.890  40.677   8.864
 2467POPC   C1A33327  36.900  40.813   8.564
 2467POPC   D2A33328  36.894  40.763   8.264
 2467POPC   C3A33329  36.890  40.760   7.964
 2467POPC   C4A33330  36.934  40.783   7.664
 2467POPC   C1B33331  36.884  40.515   8.564
 2467POPC   C2B33332  36.822  40.569   8.264
 2467POPC   C3B33333  36.880  40.578   7.964
 2467POPC   C4B33334  36.858  40.546   7.664
 2468POPC   NC333335  30.647  13.670   9.464
 2468POPC   PO433336  30.690  13.655   9.164
 2468POPC   GL133337  30.746  13.658   8.864
 2468POPC   GL233338  30.700  13.512   8.864
 2468POPC   C1A33339  30.684  13.677   8.564
 2468POPC   D2A33340  30.675  13.644   8.264
 2468POPC   C3A33341  30.746  13.615   7.964
 2468POPC   C4A33342  30.688  13.593   7.664
 2468POPC   C1B33343  30.657  13.385   8.564
 2468POPC   C2B33344  30.608  13.361   8.264
 2468POPC   C3B33345  30.684  13.349   7.964
 2468POPC   C4B33346  30.643  13.416   7.664
 2469POPC   NC333347  24.470  24.512   9.464
 2469POPC   PO433348  24.530  24.465   9.164
 2469POPC   GL133349  24.476  24.484   8.864
 2469POPC   GL233350  24.348  24.535   8.864
 2469POPC   C1A33351  24.505  24.496   8.564
 2469POPC   D2A33352  24.493  24.512   8.264
 2469POPC   C3A33353  24.533  24.504   7.964
 2469POPC   C4A33354  24.531  24.482   7.664
 2469POPC   C1B33355  24.261  24.616   8.564
 2469POPC   C2B33356  24.338  24.681   8.264
 2469POPC   C3B33357  24.315  24.686   7.964
 2469POPC   C4B33358  24.336  24.678   7.664
 2470POPC   NC333359  20.589  38.433   9.464
 2470POPC   PO433360  20.641  38.428   9.164
 2470POPC   GL133361  20.619  38.445   8.864
 2470POPC   GL233362  20.587  38.347   8.864
 2470POPC   C1A33363  20.632  38.458   8.564
 2470POPC   D2A33364  20.566  38.419   8.264
 2470POPC   C3A33365  20.647  38.443   7.964
 2470POPC   C4A33366  20.629  38.450   7.664
 2470POPC   C1B33367  20.534  38.241   8.564
 2470POPC   C2B33368  20.550  38.241   8.264
 2470POPC   C3B33369  20.621  38.170   7.964
 2470POPC   C4B33370  20.575  38.250   7.664
 2471POPC   NC333371   2.739  44.673   9.464
 2471POPC   PO433372   2.781  44.654   9.164
 2471POPC   GL133373   2.799  44.702   8.864
 2471POPC   GL233374   2.685  44.567   8.864
 2471POPC   C1A33375   2.776  44.628   8.564
 2471POPC   D2A33376   2.748  44.662   8.264
 2471POPC   C3A33377   2.805  44.638   7.964
 2471POPC   C4A33378   2.778  44.684   7.664
 2471POPC   C1B33379   2.597  44.505   8.564
 2471POPC   C2B33380   2.632  44.476   8.264
 2471POPC   C3B33381   2.627  44.487   7.964
 2471POPC   C4B33382   2.648  44.515   7.664
 2472POPC   NC333383  39.263  27.599   9.464
 2472POPC   PO433384  39.204  27.617   9.164
 2472POPC   GL133385  39.219  27.579   8.864
 2472POPC   GL233386  39.307  27.734   8.864
 2472POPC   C1A33387  39.240  27.570   8.564
 2472POPC   D2A33388  39.196  27.587   8.264
 2472POPC   C3A33389  39.269  27.561   7.964
 2472POPC   C4A33390  39.189  27.550   7.664
 2472POPC   C1B33391  39.373  27.805   8.564
 2472POPC   C2B33392  39.427  27.815   8.264
 2472POPC   C3B33393  39.400  27.806   7.964
 2472POPC   C4B33394  39.344  27.765   7.664
 2473POPC   NC333395  30.650  36.935   9.464
 2473POPC   PO433396  30.713  36.924   9.164
 2473POPC   GL133397  30.702  36.939   8.864
 2473POPC   GL233398  30.782  36.871   8.864
 2473POPC   C1A33399  30.691  36.886   8.564
 2473POPC   D2A33400  30.672  36.915   8.264
 2473POPC   C3A33401  30.739  36.903   7.964
 2473POPC   C4A33402  30.740  36.953   7.664
 2473POPC   C1B33403  30.948  36.887   8.564
 2473POPC   C2B33404  30.935  36.886   8.264
 2473POPC   C3B33405  30.966  36.892   7.964
 2473POPC   C4B33406  30.980  36.908   7.664
 2474POPC   NC333407  44.679  19.102   9.464
 2474POPC   PO433408  44.633  19.078   9.164
 2474POPC   GL133409  44.640  19.056   8.864
 2474POPC   GL233410  44.659  19.216   8.864
 2474POPC   C1A33411  44.627  19.083   8.564
 2474POPC   D2A33412  44.673  19.035   8.264
 2474POPC   C3A33413  44.629  19.059   7.964
 2474POPC   C4A33414  44.634  19.010   7.664
 2474POPC   C1B33415  44.675  19.269   8.564
 2474POPC   C2B33416  44.717  19.276   8.264
 2474POPC   C3B33417  44.727  19.259   7.964
 2474POPC   C4B33418  44.695  19.269   7.664
 2475POPC   NC333419  15.186  44.655   9.464
 2475POPC   PO433420  15.205  44.637   9.164
 2475POPC   GL133421  15.209  44.701   8.864
 2475POPC   GL233422  15.162  44.513   8.864
 2475POPC   C1A33423  15.180  44.628   8.564
 2475POPC   D2A33424  15.195  44.644   8.264
 2475POPC   C3A33425  15.173  44.614   7.964
 2475POPC   C4A33426  15.219  44.701   7.664
 2475POPC   C1B33427  15.107  44.431   8.564
 2475POPC   C2B33428  15.062  44.402   8.264
 2475POPC   C3B33429  15.067  44.436   7.964
 2475POPC   C4B33430  15.081  44.445   7.664
 2476POPC   NC333431  32.244  28.334   9.464
 2476POPC   PO433432  32.221  28.346   9.164
 2476POPC   GL133433  32.202  28.333   8.864
 2476POPC   GL233434  32.117  28.309   8.864
 2476POPC   C1A33435  32.209  28.377   8.564
 2476POPC   D2A33436  32.259  28.405   8.264
 2476POPC   C3A33437  32.286  28.399   7.964
 2476POPC   C4A33438  32.206  28.354   7.664
 2476POPC   C1B33439  32.025  28.340   8.564
 2476POPC   C2B33440  32.046  28.338   8.264
 2476POPC   C3B33441  32.026  28.303   7.964
 2476POPC   C4B33442  32.003  28.318   7.664
 2477POPC   NC333443  17.547   5.088   9.464
 2477POPC   PO433444  17.491   5.074   9.164
 2477POPC   GL133445  17.480   5.063   8.864
 2477POPC   GL233446  17.432   4.936   8.864
 2477POPC   C1A33447  17.509   5.124   8.564
 2477POPC   D2A33448  17.473   5.091   8.264
 2477POPC   C3A33449  17.481   5.097   7.964
 2477POPC   C4A33450  17.507   5.049   7.664
 2477POPC   C1B33451  17.431   4.876   8.564
 2477POPC   C2B33452  17.387   4.878   8.264
 2477POPC   C3B33453  17.373   4.833   7.964
 2477POPC   C4B33454  17.374   4.875   7.664
 2478POPC   NC333455   8.179  23.692   9.464
 2478POPC   PO433456   8.218  23.701   9.164
 2478POPC   GL133457   8.227  23.757   8.864
 2478POPC   GL233458   8.339  23.809   8.864
 2478POPC   C1A33459   8.224  23.748   8.564
 2478POPC   D2A33460   8.171  23.698   8.264
 2478POPC   C3A33461   8.202  23.757   7.964
 2478POPC   C4A33462   8.205  23.693   7.664
 2478POPC   C1B33463   8.443  23.835   8.564
 2478POPC   C2B33464   8.415  23.814   8.264
 2478POPC   C3B33465   8.439  23.843   7.964
 2478POPC   C4B33466   8.379  23.862   7.664
 2479POPC   NC333467  20.563  13.662   9.464
 2479POPC   PO433468  20.648  13.594   9.164
 2479POPC   GL133469  20.653  13.585   8.864
 2479POPC   GL233470  20.490  13.645   8.864
 2479POPC   C1A33471  20.583  13.618   8.564
 2479POPC   D2A33472  20.656  13.626   8.264
 2479POPC   C3A33473  20.627  13.652   7.964
 2479POPC   C4A33474  20.644  13.676   7.664
 2479POPC   C1B33475  20.387  13.566   8.564
 2479POPC   C2B33476  20.366  13.554   8.264
 2479POPC   C3B33477  20.334  13.566   7.964
 2479POPC   C4B33478  20.385  13.570   7.664
 2480POPC   NC333479   3.522  33.010   9.464
 2480POPC   PO433480   3.522  33.036   9.164
 2480POPC   GL133481   3.573  33.047   8.864
 2480POPC   GL233482   3.620  32.961   8.864
 2480POPC   C1A33483   3.573  33.061   8.564
 2480POPC   D2A33484   3.492  33.070   8.264
 2480POPC   C3A33485   3.543  33.043   7.964
 2480POPC   C4A33486   3.551  33.057   7.664
 2480POPC   C1B33487   3.799  32.973   8.564
 2480POPC   C2B33488   3.757  32.936   8.264
 2480POPC   C3B33489   3.778  32.996   7.964
 2480POPC   C4B33490   3.738  32.915   7.664
 2481POPC   NC333491  37.684  23.703   9.464
 2481POPC   PO433492  37.677  23.696   9.164
 2481POPC   GL133493  37.647  23.697   8.864
 2481POPC   GL233494  37.546  23.741   8.864
 2481POPC   C1A33495  37.708  23.727   8.564
 2481POPC   D2A33496  37.647  23.732   8.264
 2481POPC   C3A33497  37.655  23.761   7.964
 2481POPC   C4A33498  37.641  23.756   7.664
 2481POPC   C1B33499  37.477  23.664   8.564
 2481POPC   C2B33500  37.381  23.699   8.264
 2481POPC   C3B33501  37.398  23.669   7.964
 2481POPC   C4B33502  37.422  23.677   7.664
 2482POPC   NC333503  42.324  16.689   9.464
 2482POPC   PO433504  42.324  16.703   9.164
 2482POPC   GL133505  42.307  16.773   8.864
 2482POPC   GL233506  42.407  16.601   8.864
 2482POPC   C1A33507  42.331  16.774   8.564
 2482POPC   D2A33508  42.329  16.740   8.264
 2482POPC   C3A33509  42.343  16.771   7.964
 2482POPC   C4A33510  42.338  16.728   7.664
 2482POPC   C1B33511  42.422  16.522   8.564
 2482POPC   C2B33512  42.482  16.489   8.264
 2482POPC   C3B33513  42.408  16.460   7.964
 2482POPC   C4B33514  42.422  16.508   7.664
 2483POPC   NC333515  20.625   6.629   9.464
 2483POPC   PO433516  20.609   6.647   9.164
 2483POPC   GL133517  20.595   6.659   8.864
 2483POPC   GL233518  20.646   6.482   8.864
 2483POPC   C1A33519  20.612   6.627   8.564
 2483POPC   D2A33520  20.579   6.676   8.264
 2483POPC   C3A33521  20.627   6.666   7.964
 2483POPC   C4A33522  20.604   6.616   7.664
 2483POPC   C1B33523  20.706   6.409   8.564
 2483POPC   C2B33524  20.692   6.437   8.264
 2483POPC   C3B33525  20.715   6.406   7.964
 2483POPC   C4B33526  20.684   6.413   7.664
 2484POPC   NC333527   2.815  15.944   9.464
 2484POPC   PO433528   2.811  15.917   9.164
 2484POPC   GL133529   2.739  15.931   8.864
 2484POPC   GL233530   2.757  16.039   8.864
 2484POPC   C1A33531   2.750  15.941   8.564
 2484POPC   D2A33532   2.792  15.937   8.264
 2484POPC   C3A33533   2.740  15.948   7.964
 2484POPC   C4A33534   2.799  15.953   7.664
 2484POPC   C1B33535   2.623  16.188   8.564
 2484POPC   C2B33536   2.640  16.164   8.264
 2484POPC   C3B33537   2.611  16.174   7.964
 2484POPC   C4B33538   2.602  16.197   7.664
 2485POPC   NC333539  43.837  25.236   9.464
 2485POPC   PO433540  43.847  25.293   9.164
 2485POPC   GL133541  43.912  25.217   8.864
 2485POPC   GL233542  43.803  25.401   8.864
 2485POPC   C1A33543  43.919  25.267   8.564
 2485POPC   D2A33544  43.878  25.234   8.264
 2485POPC   C3A33545  43.906  25.232   7.964
 2485POPC   C4A33546  43.932  25.217   7.664
 2485POPC   C1B33547  43.677  25.430   8.564
 2485POPC   C2B33548  43.722  25.422   8.264
 2485POPC   C3B33549  43.757  25.449   7.964
 2485POPC   C4B33550  43.767  25.424   7.664
 2486POPC   NC333551  35.326  43.859   9.464
 2486POPC   PO433552  35.397  43.922   9.164
 2486POPC   GL133553  35.399  43.875   8.864
 2486POPC   GL233554  35.475  43.848   8.864
 2486POPC   C1A33555  35.316  43.921   8.564
 2486POPC   D2A33556  35.351  43.897   8.264
 2486POPC   C3A33557  35.342  43.884   7.964
 2486POPC   C4A33558  35.396  43.921   7.664
 2486POPC   C1B33559  35.573  43.793   8.564
 2486POPC   C2B33560  35.585  43.766   8.264
 2486POPC   C3B33561  35.586  43.780   7.964
 2486POPC   C4B33562  35.599  43.814   7.664
 2487POPC   NC333563  44.698  39.964   9.464
 2487POPC   PO433564  44.616  40.044   9.164
 2487POPC   GL133565  44.705  39.995   8.864
 2487POPC   GL233566  44.579  39.936   8.864
 2487POPC   C1A33567  44.628  40.044   8.564
 2487POPC   D2A33568  44.712  40.035   8.264
 2487POPC   C3A33569  44.614  40.052   7.964
 2487POPC   C4A33570  44.681  39.983   7.664
 2487POPC   C1B33571  44.444  39.943   8.564
 2487POPC   C2B33572  44.384  39.924   8.264
 2487POPC   C3B33573  44.412  39.862   7.964
 2487POPC   C4B33574  44.445  39.864   7.664
 2488POPC   NC333575  26.069  34.622   9.464
 2488POPC   PO433576  26.090  34.619   9.164
 2488POPC   GL133577  26.070  34.527   8.864
 2488POPC   GL233578  25.914  34.524   8.864
 2488POPC   C1A33579  25.995  34.551   8.564
 2488POPC   D2A33580  26.033  34.604   8.264
 2488POPC   C3A33581  26.059  34.541   7.964
 2488POPC   C4A33582  26.038  34.557   7.664
 2488POPC   C1B33583  25.852  34.407   8.564
 2488POPC   C2B33584  25.861  34.406   8.264
 2488POPC   C3B33585  25.824  34.437   7.964
 2488POPC   C4B33586  25.863  34.346   7.664
 2489POPC   NC333587  30.707   5.061   9.464
 2489POPC   PO433588  30.707   5.115   9.164
 2489POPC   GL133589  30.674   5.120   8.864
 2489POPC   GL233590  30.562   5.022   8.864
 2489POPC   C1A33591  30.715   5.116   8.564
 2489POPC   D2A33592  30.684   5.125   8.264
 2489POPC   C3A33593  30.665   5.068   7.964
 2489POPC   C4A33594  30.650   5.059   7.664
 2489POPC   C1B33595  30.416   5.051   8.564
 2489POPC   C2B33596  30.475   5.066   8.264
 2489POPC   C3B33597  30.425   5.060   7.964
 2489POPC   C4B33598  30.468   5.013   7.664
 2490POPC   NC333599  14.418   5.908   9.464
 2490POPC   PO433600  14.360   5.913   9.164
 2490POPC   GL133601  14.391   5.914   8.864
 2490POPC   GL233602  14.237   5.817   8.864
 2490POPC   C1A33603  14.400   5.831   8.564
 2490POPC   D2A33604  14.359   5.876   8.264
 2490POPC   C3A33605  14.413   5.849   7.964
 2490POPC   C4A33606  14.403   5.870   7.664
 2490POPC   C1B33607  14.126   5.855   8.564
 2490POPC   C2B33608  14.179   5.900   8.264
 2490POPC   C3B33609  14.179   5.816   7.964
 2490POPC   C4B33610  14.156   5.831   7.664
 2491POPC   NC333611  25.252  32.242   9.464
 2491POPC   PO433612  25.263  32.222   9.164
 2491POPC   GL133613  25.251  32.296   8.864
 2491POPC   GL233614  25.203  32.113   8.864
 2491POPC   C1A33615  25.298  32.276   8.564
 2491POPC   D2A33616  25.279  32.233   8.264
 2491POPC   C3A33617  25.283  32.294   7.964
 2491POPC   C4A33618  25.242  32.278   7.664
 2491POPC   C1B33619  25.128  32.034   8.564
 2491POPC   C2B33620  25.093  32.016   8.264
 2491POPC   C3B33621  25.121  32.073   7.964
 2491POPC   C4B33622  25.140  32.084   7.664
 2492POPC   NC333623  32.235  33.037   9.464
 2492POPC   PO433624  32.201  33.009   9.164
 2492POPC   GL133625  32.245  32.980   8.864
 2492POPC   GL233626  32.119  32.962   8.864
 2492POPC   C1A33627  32.269  33.062   8.564
 2492POPC   D2A33628  32.221  33.036   8.264
 2492POPC   C3A33629  32.213  32.996   7.964
 2492POPC   C4A33630  32.255  32.987   7.664
 2492POPC   C1B33631  32.093  32.919   8.564
 2492POPC   C2B33632  32.068  32.895   8.264
 2492POPC   C3B33633  32.100  32.843   7.964
 2492POPC   C4B33634  32.095  32.897   7.664
 2493POPC   NC333635  43.075  11.299   9.464
 2493POPC   PO433636  43.061  11.348   9.164
 2493POPC   GL133637  43.095  11.349   8.864
 2493POPC   GL233638  43.060  11.235   8.864
 2493POPC   C1A33639  43.156  11.259   8.564
 2493POPC   D2A33640  43.111  11.300   8.264
 2493POPC   C3A33641  43.143  11.275   7.964
 2493POPC   C4A33642  43.115  11.273   7.664
 2493POPC   C1B33643  43.002  11.128   8.564
 2493POPC   C2B33644  42.958  11.097   8.264
 2493POPC   C3B33645  42.914  11.078   7.964
 2493POPC   C4B33646  42.991  11.139   7.664
 2494POPC   NC333647  44.674  12.067   9.464
 2494POPC   PO433648  44.684  12.045   9.164
 2494POPC   GL133649  44.649  12.125   8.864
 2494POPC   GL233650  44.705  11.995   8.864
 2494POPC   C1A33651  44.673  12.027   8.564
 2494POPC   D2A33652  44.702  12.051   8.264
 2494POPC   C3A33653  44.674  12.057   7.964
 2494POPC   C4A33654  44.642  12.056   7.664
 2494POPC   C1B33655  44.621  11.809   8.564
 2494POPC   C2B33656  44.681  11.779   8.264
 2494POPC   C3B33657  44.680  11.841   7.964
 2494POPC   C4B33658  44.714  11.822   7.664
 2495POPC   NC333659  42.315  12.891   9.464
 2495POPC   PO433660  42.352  12.898   9.164
 2495POPC   GL133661  42.356  12.829   8.864
 2495POPC   GL233662  42.210  12.949   8.864
 2495POPC   C1A33663  42.317  12.838   8.564
 2495POPC   D2A33664  42.328  12.846   8.264
 2495POPC   C3A33665  42.285  12.828   7.964
 2495POPC   C4A33666  42.377  12.877   7.664
 2495POPC   C1B33667  42.183  13.055   8.564
 2495POPC   C2B33668  42.155  13.042   8.264
 2495POPC   C3B33669  42.141  13.032   7.964
 2495POPC   C4B33670  42.223  13.081   7.664
 2496POPC   NC333671  10.551  17.541   9.464
 2496POPC   PO433672  10.496  17.541   9.164
 2496POPC   GL133673  10.545  17.460   8.864
 2496POPC   GL233674  10.444  17.452   8.864
 2496POPC   C1A33675  10.546  17.471   8.564
 2496POPC   D2A33676  10.570  17.545   8.264
 2496POPC   C3A33677  10.547  17.490   7.964
 2496POPC   C4A33678  10.540  17.466   7.664
 2496POPC   C1B33679  10.266  17.457   8.564
 2496POPC   C2B33680  10.248  17.449   8.264
 2496POPC   C3B33681  10.284  17.425   7.964
 2496POPC   C4B33682  10.307  17.412   7.664
 2497POPC   NC333683   5.866  33.033   9.464
 2497POPC   PO433684   5.871  33.014   9.164
 2497POPC   GL133685   5.839  33.027   8.864
 2497POPC   GL233686   5.920  32.863   8.864
 2497POPC   C1A33687   5.888  33.053   8.564
 2497POPC   D2A33688   5.823  32.984   8.264
 2497POPC   C3A33689   5.901  33.051   7.964
 2497POPC   C4A33690   5.829  32.998   7.664
 2497POPC   C1B33691   5.942  32.746   8.564
 2497POPC   C2B33692   5.903  32.741   8.264
 2497POPC   C3B33693   5.857  32.748   7.964
 2497POPC   C4B33694   5.905  32.820   7.664
 2498POPC   NC333695  40.763   2.724   9.464
 2498POPC   PO433696  40.747   2.764   9.164
 2498POPC   GL133697  40.763   2.802   8.864
 2498POPC   GL233698  40.677   2.813   8.864
 2498POPC   C1A33699  40.808   2.789   8.564
 2498POPC   D2A33700  40.811   2.726   8.264
 2498POPC   C3A33701  40.751   2.778   7.964
 2498POPC   C4A33702  40.765   2.813   7.664
 2498POPC   C1B33703  40.572   2.775   8.564
 2498POPC   C2B33704  40.519   2.850   8.264
 2498POPC   C3B33705  40.572   2.784   7.964
 2498POPC   C4B33706  40.575   2.825   7.664
 2499POPC   NC333707  32.976  36.123   9.464
 2499POPC   PO433708  32.986  36.156   9.164
 2499POPC   GL133709  32.985  36.113   8.864
 2499POPC   GL233710  32.872  36.189   8.864
 2499POPC   C1A33711  33.053  36.139   8.564
 2499POPC   D2A33712  32.985  36.081   8.264
 2499POPC   C3A33713  33.031  36.126   7.964
 2499POPC   C4A33714  33.029  36.095   7.664
 2499POPC   C1B33715  32.780  36.129   8.564
 2499POPC   C2B33716  32.742  36.140   8.264
 2499POPC   C3B33717  32.751  36.195   7.964
 2499POPC   C4B33718  32.778  36.191   7.664
 2500POPC   NC333719   8.189  36.923   9.464
 2500POPC   PO433720   8.224  36.873   9.164
 2500POPC   GL133721   8.211  36.908   8.864
 2500POPC   GL233722   8.077  36.908   8.864
 2500POPC   C1A33723   8.178  36.924   8.564
 2500POPC   D2A33724   8.226  36.941   8.264
 2500POPC   C3A33725   8.191  36.863   7.964
 2500POPC   C4A33726   8.149  36.874   7.664
 2500POPC   C1B33727   7.976  36.841   8.564
 2500POPC   C2B33728   7.949  36.836   8.264
 2500POPC   C3B33729   7.907  36.845   7.964
 2500POPC   C4B33730   7.934  36.851   7.664
 2501POPC   NC333731   0.418  13.644   9.464
 2501POPC   PO433732   0.406  13.600   9.164
 2501POPC   GL133733   0.472  13.621   8.864
 2501POPC   GL233734   0.369  13.769   8.864
 2501POPC   C1A33735   0.449  13.647   8.564
 2501POPC   D2A33736   0.469  13.662   8.264
 2501POPC   C3A33737   0.401  13.602   7.964
 2501POPC   C4A33738   0.389  13.606   7.664
 2501POPC   C1B33739   0.322  13.877   8.564
 2501POPC   C2B33740   0.290  13.803   8.264
 2501POPC   C3B33741   0.272  13.830   7.964
 2501POPC   C4B33742   0.314  13.869   7.664
 2502POPC   NC333743  36.095  40.799   9.464
 2502POPC   PO433744  36.099  40.817   9.164
 2502POPC   GL133745  36.088  40.768   8.864
 2502POPC   GL233746  36.290  40.765   8.864
 2502POPC   C1A33747  36.124  40.796   8.564
 2502POPC   D2A33748  36.160  40.745   8.264
 2502POPC   C3A33749  36.080  40.791   7.964
 2502POPC   C4A33750  36.177  40.771   7.664
 2502POPC   C1B33751  36.382  40.689   8.564
 2502POPC   C2B33752  36.344  40.682   8.264
 2502POPC   C3B33753  36.321  40.714   7.964
 2502POPC   C4B33754  36.340  40.664   7.664
 2503POPC   NC333755   7.447  43.100   9.464
 2503POPC   PO433756   7.450  43.099   9.164
 2503POPC   GL133757   7.384  43.077   8.864
 2503POPC   GL233758   7.338  43.247   8.864
 2503POPC   C1A33759   7.433  43.119   8.564
 2503POPC   D2A33760   7.440  43.122   8.264
 2503POPC   C3A33761   7.428  43.079   7.964
 2503POPC   C4A33762   7.396  43.112   7.664
 2503POPC   C1B33763   7.327  43.337   8.564
 2503POPC   C2B33764   7.313  43.309   8.264
 2503POPC   C3B33765   7.298  43.291   7.964
 2503POPC   C4B33766   7.288  43.350   7.664
 2504POPC   NC333767  24.528  12.804   9.464
 2504POPC   PO433768  24.515  12.887   9.164
 2504POPC   GL133769  24.456  12.877   8.864
 2504POPC   GL233770  24.412  12.872   8.864
 2504POPC   C1A33771  24.470  12.864   8.564
 2504POPC   D2A33772  24.487  12.857   8.264
 2504POPC   C3A33773  24.523  12.825   7.964
 2504POPC   C4A33774  24.482  12.880   7.664
 2504POPC   C1B33775  24.236  12.919   8.564
 2504POPC   C2B33776  24.273  12.855   8.264
 2504POPC   C3B33777  24.227  12.919   7.964
 2504POPC   C4B33778  24.267  12.856   7.664
 2505POPC   NC333779  33.756  24.462   9.464
 2505POPC   PO433780  33.768  24.527   9.164
 2505POPC   GL133781  33.790  24.515   8.864
 2505POPC   GL233782  33.751  24.567   8.864
 2505POPC   C1A33783  33.843  24.536   8.564
 2505POPC   D2A33784  33.755  24.440   8.264
 2505POPC   C3A33785  33.848  24.512   7.964
 2505POPC   C4A33786  33.751  24.463   7.664
 2505POPC   C1B33787  33.598  24.661   8.564
 2505POPC   C2B33788  33.653  24.633   8.264
 2505POPC   C3B33789  33.613  24.666   7.964
 2505POPC   C4B33790  33.657  24.664   7.664
 2506POPC   NC333791  14.370  44.640   9.464
 2506POPC   PO433792  14.428  44.698   9.164
 2506POPC   GL133793  14.452  44.681   8.864
 2506POPC   GL233794  14.473  44.736   8.864
 2506POPC   C1A33795  14.390  44.637   8.564
 2506POPC   D2A33796  14.446  44.701   8.264
 2506POPC   C3A33797  14.429  44.628   7.964
 2506POPC   C4A33798  14.413  44.689   7.664
 2506POPC   C1B33799  14.637  44.850   8.564
 2506POPC   C2B33800  14.617  44.857   8.264
 2506POPC   C3B33801  14.585  44.799   7.964
 2506POPC   C4B33802  14.631  44.779   7.664
 2507POPC   NC333803   8.165  37.632   9.464
 2507POPC   PO433804   8.246  37.632   9.164
 2507POPC   GL133805   8.243  37.728   8.864
 2507POPC   GL233806   8.193  37.522   8.864
 2507POPC   C1A33807   8.159  37.721   8.564
 2507POPC   D2A33808   8.184  37.646   8.264
 2507POPC   C3A33809   8.200  37.680   7.964
 2507POPC   C4A33810   8.161  37.693   7.664
 2507POPC   C1B33811   8.171  37.395   8.564
 2507POPC   C2B33812   8.205  37.406   8.264
 2507POPC   C3B33813   8.142  37.418   7.964
 2507POPC   C4B33814   8.172  37.458   7.664
 2508POPC   NC333815   5.059  24.447   9.464
 2508POPC   PO433816   5.086  24.539   9.164
 2508POPC   GL133817   5.064  24.482   8.864
 2508POPC   GL233818   5.168  24.447   8.864
 2508POPC   C1A33819   5.141  24.488   8.564
 2508POPC   D2A33820   5.068  24.475   8.264
 2508POPC   C3A33821   5.056  24.534   7.964
 2508POPC   C4A33822   5.054  24.440   7.664
 2508POPC   C1B33823   5.278  24.430   8.564
 2508POPC   C2B33824   5.370  24.373   8.264
 2508POPC   C3B33825   5.279  24.440   7.964
 2508POPC   C4B33826   5.278  24.389   7.664
 2509POPC   NC333827  37.710  44.641   9.464
 2509POPC   PO433828  37.723  44.709   9.164
 2509POPC   GL133829  37.659  44.644   8.864
 2509POPC   GL233830  37.720  44.783   8.864
 2509POPC   C1A33831  37.697  44.646   8.564
 2509POPC   D2A33832  37.672  44.617   8.264
 2509POPC   C3A33833  37.667  44.656   7.964
 2509POPC   C4A33834  37.719  44.639   7.664
 2509POPC   C1B33835  37.735  44.916   8.564
 2509POPC   C2B33836  37.726  44.960   8.264
 2509POPC   C3B33837  37.750  44.926   7.964
 2509POPC   C4B33838  37.673  44.956   7.664
 2510POPC   NC333839  39.183   2.747   9.464
 2510POPC   PO433840  39.189   2.758   9.164
 2510POPC   GL133841  39.255   2.734   8.864
 2510POPC   GL233842  39.116   2.894   8.864
 2510POPC   C1A33843  39.217   2.717   8.564
 2510POPC   D2A33844  39.207   2.798   8.264
 2510POPC   C3A33845  39.199   2.788   7.964
 2510POPC   C4A33846  39.233   2.725   7.664
 2510POPC   C1B33847  39.062   2.963   8.564
 2510POPC   C2B33848  39.023   2.941   8.264
 2510POPC   C3B33849  39.060   2.911   7.964
 2510POPC   C4B33850  39.006   2.944   7.664
 2511POPC   NC333851  32.261  43.923   9.464
 2511POPC   PO433852  32.286  43.887   9.164
 2511POPC   GL133853  32.263  43.929   8.864
 2511POPC   GL233854  32.341  43.816   8.864
 2511POPC   C1A33855  32.255  43.864   8.564
 2511POPC   D2A33856  32.269  43.892   8.264
 2511POPC   C3A33857  32.199  43.925   7.964
 2511POPC   C4A33858  32.273  43.872   7.664
 2511POPC   C1B33859  32.499  43.778   8.564
 2511POPC   C2B33860  32.442  43.734   8.264
 2511POPC   C3B33861  32.457  43.823   7.964
 2511POPC   C4B33862  32.510  43.807   7.664
 2512POPC   NC333863  37.709   4.343   9.464
 2512POPC   PO433864  37.691   4.283   9.164
 2512POPC   GL133865  37.633   4.275   8.864
 2512POPC   GL233866  37.661   4.437   8.864
 2512POPC   C1A33867  37.716   4.322   8.564
 2512POPC   D2A33868  37.646   4.291   8.264
 2512POPC   C3A33869  37.693   4.358   7.964
 2512POPC   C4A33870  37.704   4.291   7.664
 2512POPC   C1B33871  37.749   4.541   8.564
 2512POPC   C2B33872  37.756   4.567   8.264
 2512POPC   C3B33873  37.657   4.571   7.964
 2512POPC   C4B33874  37.743   4.614   7.664
 2513POPC   NC333875  17.509   3.591   9.464
 2513POPC   PO433876  17.495   3.578   9.164
 2513POPC   GL133877  17.465   3.501   8.864
 2513POPC   GL233878  17.547   3.638   8.864
 2513POPC   C1A33879  17.513   3.510   8.564
 2513POPC   D2A33880  17.462   3.514   8.264
 2513POPC   C3A33881  17.534   3.550   7.964
 2513POPC   C4A33882  17.539   3.558   7.664
 2513POPC   C1B33883  17.588   3.819   8.564
 2513POPC   C2B33884  17.492   3.777   8.264
 2513POPC   C3B33885  17.516   3.821   7.964
 2513POPC   C4B33886  17.502   3.805   7.664
 2514POPC   NC333887  15.160  12.073   9.464
 2514POPC   PO433888  15.129  12.078   9.164
 2514POPC   GL133889  15.220  12.052   8.864
 2514POPC   GL233890  15.157  11.999   8.864
 2514POPC   C1A33891  15.167  12.070   8.564
 2514POPC   D2A33892  15.144  12.060   8.264
 2514POPC   C3A33893  15.172  12.039   7.964
 2514POPC   C4A33894  15.183  12.085   7.664
 2514POPC   C1B33895  15.250  11.806   8.564
 2514POPC   C2B33896  15.236  11.803   8.264
 2514POPC   C3B33897  15.192  11.817   7.964
 2514POPC   C4B33898  15.205  11.805   7.664
 2515POPC   NC333899  19.065  23.699   9.464
 2515POPC   PO433900  19.089  23.687   9.164
 2515POPC   GL133901  19.100  23.739   8.864
 2515POPC   GL233902  19.151  23.844   8.864
 2515POPC   C1A33903  19.037  23.718   8.564
 2515POPC   D2A33904  19.014  23.736   8.264
 2515POPC   C3A33905  19.078  23.700   7.964
 2515POPC   C4A33906  19.075  23.677   7.664
 2515POPC   C1B33907  19.132  23.911   8.564
 2515POPC   C2B33908  19.195  23.917   8.264
 2515POPC   C3B33909  19.166  23.900   7.964
 2515POPC   C4B33910  19.117  23.913   7.664
 2516POPC   NC333911  34.602  31.453   9.464
 2516POPC   PO433912  34.604  31.518   9.164
 2516POPC   GL133913  34.556  31.441   8.864
 2516POPC   GL233914  34.528  31.567   8.864
 2516POPC   C1A33915  34.540  31.493   8.564
 2516POPC   D2A33916  34.546  31.424   8.264
 2516POPC   C3A33917  34.557  31.516   7.964
 2516POPC   C4A33918  34.621  31.431   7.664
 2516POPC   C1B33919  34.483  31.701   8.564
 2516POPC   C2B33920  34.523  31.716   8.264
 2516POPC   C3B33921  34.503  31.715   7.964
 2516POPC   C4B33922  34.522  31.733   7.664
 2517POPC   NC333923  19.796   0.402   9.464
 2517POPC   PO433924  19.819   0.400   9.164
 2517POPC   GL133925  19.839   0.447   8.864
 2517POPC   GL233926  19.677   0.474   8.864
 2517POPC   C1A33927  19.867   0.474   8.564
 2517POPC   D2A33928  19.858   0.450   8.264
 2517POPC   C3A33929  19.787   0.451   7.964
 2517POPC   C4A33930  19.855   0.471   7.664
 2517POPC   C1B33931  19.549   0.494   8.564
 2517POPC   C2B33932  19.601   0.463   8.264
 2517POPC   C3B33933  19.590   0.539   7.964
 2517POPC   C4B33934  19.631   0.529   7.664
 2518POPC   NC333935  40.741  16.763   9.464
 2518POPC   PO433936  40.782  16.759   9.164
 2518POPC   GL133937  40.749  16.766   8.864
 2518POPC   GL233938  40.721  16.635   8.864
 2518POPC   C1A33939  40.791  16.709   8.564
 2518POPC   D2A33940  40.830  16.686   8.264
 2518POPC   C3A33941  40.776  16.758   7.964
 2518POPC   C4A33942  40.823  16.752   7.664
 2518POPC   C1B33943  40.560  16.561   8.564
 2518POPC   C2B33944  40.584  16.578   8.264
 2518POPC   C3B33945  40.607  16.580   7.964
 2518POPC   C4B33946  40.555  16.568   7.664
 2519POPC   NC333947  43.890  15.139   9.464
 2519POPC   PO433948  43.890  15.147   9.164
 2519POPC   GL133949  43.922  15.219   8.864
 2519POPC   GL233950  43.793  15.188   8.864
 2519POPC   C1A33951  43.885  15.209   8.564
 2519POPC   D2A33952  43.900  15.186   8.264
 2519POPC   C3A33953  43.928  15.173   7.964
 2519POPC   C4A33954  43.857  15.147   7.664
 2519POPC   C1B33955  43.680  15.251   8.564
 2519POPC   C2B33956  43.626  15.257   8.264
 2519POPC   C3B33957  43.629  15.256   7.964
 2519POPC   C4B33958  43.683  15.257   7.664
 2520POPC   NC333959  25.237  10.523   9.464
 2520POPC   PO433960  25.277  10.500   9.164
 2520POPC   GL133961  25.282  10.547   8.864
 2520POPC   GL233962  25.337  10.521   8.864
 2520POPC   C1A33963  25.314  10.526   8.564
 2520POPC   D2A33964  25.267  10.550   8.264
 2520POPC   C3A33965  25.284  10.549   7.964
 2520POPC   C4A33966  25.273  10.555   7.664
 2520POPC   C1B33967  25.467  10.587   8.564
 2520POPC   C2B33968  25.480  10.574   8.264
 2520POPC   C3B33969  25.530  10.590   7.964
 2520POPC   C4B33970  25.502  10.608   7.664
 2521POPC   NC333971  29.110  26.783   9.464
 2521POPC   PO433972  29.151  26.768   9.164
 2521POPC   GL133973  29.165  26.835   8.864
 2521POPC   GL233974  28.993  26.862   8.864
 2521POPC   C1A33975  29.098  26.784   8.564
 2521POPC   D2A33976  29.146  26.840   8.264
 2521POPC   C3A33977  29.117  26.854   7.964
 2521POPC   C4A33978  29.139  26.866   7.664
 2521POPC   C1B33979  28.937  26.933   8.564
 2521POPC   C2B33980  28.885  26.865   8.264
 2521POPC   C3B33981  28.896  26.892   7.964
 2521POPC   C4B33982  28.918  26.901   7.664
 2522POPC   NC333983  33.758  38.483   9.464
 2522POPC   PO433984  33.805  38.438   9.164
 2522POPC   GL133985  33.793  38.427   8.864
 2522POPC   GL233986  33.784  38.617   8.864
 2522POPC   C1A33987  33.810  38.435   8.564
 2522POPC   D2A33988  33.809  38.458   8.264
 2522POPC   C3A33989  33.832  38.465   7.964
 2522POPC   C4A33990  33.787  38.441   7.664
 2522POPC   C1B33991  33.859  38.691   8.564
 2522POPC   C2B33992  33.789  38.674   8.264
 2522POPC   C3B33993  33.814  38.703   7.964
 2522POPC   C4B33994  33.829  38.690   7.664
 2523POPC   NC333995  20.643  29.911   9.464
 2523POPC   PO433996  20.579  29.894   9.164
 2523POPC   GL133997  20.595  29.913   8.864
 2523POPC   GL233998  20.687  30.015   8.864
 2523POPC   C1A33999  20.594  29.882   8.564
 2523POPC   D2A34000  20.650  29.906   8.264
 2523POPC   C3A34001  20.638  29.908   7.964
 2523POPC   C4A34002  20.626  29.908   7.664
 2523POPC   C1B34003  20.800  30.080   8.564
 2523POPC   C2B34004  20.789  30.002   8.264
 2523POPC   C3B34005  20.831  30.006   7.964
 2523POPC   C4B34006  20.809  30.014   7.664
 2524POPC   NC334007  15.150   5.913   9.464
 2524POPC   PO434008  15.157   5.871   9.164
 2524POPC   GL134009  15.137   5.885   8.864
 2524POPC   GL234010  15.164   5.738   8.864
 2524POPC   C1A34011  15.198   5.896   8.564
 2524POPC   D2A34012  15.135   5.888   8.264
 2524POPC   C3A34013  15.184   5.854   7.964
 2524POPC   C4A34014  15.200   5.902   7.664
 2524POPC   C1B34015  15.105   5.625   8.564
 2524POPC   C2B34016  15.046   5.588   8.264
 2524POPC   C3B34017  15.046   5.611   7.964
 2524POPC   C4B34018  15.089   5.602   7.664
 2525POPC   NC334019  15.224   7.421   9.464
 2525POPC   PO434020  15.145   7.382   9.164
 2525POPC   GL134021  15.133   7.464   8.864
 2525POPC   GL234022  15.120   7.398   8.864
 2525POPC   C1A34023  15.203   7.413   8.564
 2525POPC   D2A34024  15.161   7.407   8.264
 2525POPC   C3A34025  15.178   7.427   7.964
 2525POPC   C4A34026  15.145   7.375   7.664
 2525POPC   C1B34027  14.943   7.324   8.564
 2525POPC   C2B34028  14.976   7.308   8.264
 2525POPC   C3B34029  14.953   7.296   7.964
 2525POPC   C4B34030  14.998   7.256   7.664
 2526POPC   NC334031  12.071  21.352   9.464
 2526POPC   PO434032  12.061  21.416   9.164
 2526POPC   GL134033  12.036  21.352   8.864
 2526POPC   GL234034  12.199  21.244   8.864
 2526POPC   C1A34035  12.050  21.364   8.564
 2526POPC   D2A34036  12.073  21.381   8.264
 2526POPC   C3A34037  12.056  21.378   7.964
 2526POPC   C4A34038  12.100  21.393   7.664
 2526POPC   C1B34039  12.193  21.176   8.564
 2526POPC   C2B34040  12.281  21.240   8.264
 2526POPC   C3B34041  12.279  21.166   7.964
 2526POPC   C4B34042  12.214  21.222   7.664
 2527POPC   NC334043   5.902  32.220   9.464
 2527POPC   PO434044   5.917  32.208   9.164
 2527POPC   GL134045   5.842  32.264   8.864
 2527POPC   GL234046   5.815  32.362   8.864
 2527POPC   C1A34047   5.840  32.298   8.564
 2527POPC   D2A34048   5.840  32.227   8.264
 2527POPC   C3A34049   5.851  32.215   7.964
 2527POPC   C4A34050   5.906  32.224   7.664
 2527POPC   C1B34051   5.746  32.488   8.564
 2527POPC   C2B34052   5.670  32.460   8.264
 2527POPC   C3B34053   5.666  32.432   7.964
 2527POPC   C4B34054   5.727  32.468   7.664
 2528POPC   NC334055  31.504  20.564   9.464
 2528POPC   PO434056  31.485  20.622   9.164
 2528POPC   GL134057  31.506  20.582   8.864
 2528POPC   GL234058  31.478  20.687   8.864
 2528POPC   C1A34059  31.497  20.611   8.564
 2528POPC   D2A34060  31.502  20.573   8.264
 2528POPC   C3A34061  31.493  20.657   7.964
 2528POPC   C4A34062  31.462  20.582   7.664
 2528POPC   C1B34063  31.525  20.856   8.564
 2528POPC   C2B34064  31.543  20.894   8.264
 2528POPC   C3B34065  31.557  20.874   7.964
 2528POPC   C4B34066  31.542  20.891   7.664
 2529POPC   NC334067  34.591  26.838   9.464
 2529POPC   PO434068  34.564  26.849   9.164
 2529POPC   GL134069  34.567  26.822   8.864
 2529POPC   GL234070  34.574  26.669   8.864
 2529POPC   C1A34071  34.600  26.812   8.564
 2529POPC   D2A34072  34.546  26.800   8.264
 2529POPC   C3A34073  34.545  26.794   7.964
 2529POPC   C4A34074  34.609  26.803   7.664
 2529POPC   C1B34075  34.546  26.539   8.564
 2529POPC   C2B34076  34.514  26.518   8.264
 2529POPC   C3B34077  34.531  26.563   7.964
 2529POPC   C4B34078  34.557  26.590   7.664
 2530POPC   NC334079  40.010  16.720   9.464
 2530POPC   PO434080  39.991  16.744   9.164
 2530POPC   GL134081  40.052  16.700   8.864
 2530POPC   GL234082  39.974  16.585   8.864
 2530POPC   C1A34083  40.013  16.778   8.564
 2530POPC   D2A34084  40.041  16.768   8.264
 2530POPC   C3A34085  40.033  16.771   7.964
 2530POPC   C4A34086  40.031  16.717   7.664
 2530POPC   C1B34087  40.019  16.483   8.564
 2530POPC   C2B34088  40.049  16.480   8.264
 2530POPC   C3B34089  39.997  16.501   7.964
 2530POPC   C4B34090  40.070  16.451   7.664
 2531POPC   NC334091  28.330   2.765   9.464
 2531POPC   PO434092  28.381   2.733   9.164
 2531POPC   GL134093  28.401   2.777   8.864
 2531POPC   GL234094  28.248   2.700   8.864
 2531POPC   C1A34095  28.406   2.791   8.564
 2531POPC   D2A34096  28.374   2.736   8.264
 2531POPC   C3A34097  28.330   2.732   7.964
 2531POPC   C4A34098  28.417   2.755   7.664
 2531POPC   C1B34099  28.142   2.589   8.564
 2531POPC   C2B34100  28.173   2.631   8.264
 2531POPC   C3B34101  28.194   2.622   7.964
 2531POPC   C4B34102  28.208   2.610   7.664
 2532POPC   NC334103  10.532   9.786   9.464
 2532POPC   PO434104  10.556   9.797   9.164
 2532POPC   GL134105  10.498   9.787   8.864
 2532POPC   GL234106  10.569   9.640   8.864
 2532POPC   C1A34107  10.484   9.792   8.564
 2532POPC   D2A34108  10.504   9.728   8.264
 2532POPC   C3A34109  10.496   9.712   7.964
 2532POPC   C4A34110  10.515   9.735   7.664
 2532POPC   C1B34111  10.621   9.577   8.564
 2532POPC   C2B34112  10.610   9.576   8.264
 2532POPC   C3B34113  10.597   9.507   7.964
 2532POPC   C4B34114  10.634   9.548   7.664
 2533POPC   NC334115  33.041  28.394   9.464
 2533POPC   PO434116  33.044  28.323   9.164
 2533POPC   GL134117  33.010  28.346   8.864
 2533POPC   GL234118  33.006  28.211   8.864
 2533POPC   C1A34119  32.997  28.357   8.564
 2533POPC   D2A34120  33.064  28.337   8.264
 2533POPC   C3A34121  33.006  28.329   7.964
 2533POPC   C4A34122  33.064  28.418   7.664
 2533POPC   C1B34123  33.041  28.117   8.564
 2533POPC   C2B34124  33.038  28.126   8.264
 2533POPC   C3B34125  33.046  28.124   7.964
 2533POPC   C4B34126  33.107  28.143   7.664
 2534POPC   NC334127   6.658  40.829   9.464
 2534POPC   PO434128   6.678  40.734   9.164
 2534POPC   GL134129   6.633  40.813   8.864
 2534POPC   GL234130   6.805  40.740   8.864
 2534POPC   C1A34131   6.651  40.751   8.564
 2534POPC   D2A34132   6.616  40.738   8.264
 2534POPC   C3A34133   6.663  40.799   7.964
 2534POPC   C4A34134   6.662  40.785   7.664
 2534POPC   C1B34135   6.890  40.705   8.564
 2534POPC   C2B34136   6.843  40.718   8.264
 2534POPC   C3B34137   6.851  40.659   7.964
 2534POPC   C4B34138   6.894  40.662   7.664
 2535POPC   NC334139  29.885  36.147   9.464
 2535POPC   PO434140  29.894  36.118   9.164
 2535POPC   GL134141  29.963  36.153   8.864
 2535POPC   GL234142  29.768  36.199   8.864
 2535POPC   C1A34143  29.894  36.169   8.564
 2535POPC   D2A34144  29.880  36.141   8.264
 2535POPC   C3A34145  29.945  36.173   7.964
 2535POPC   C4A34146  29.905  36.168   7.664
 2535POPC   C1B34147  29.711  36.187   8.564
 2535POPC   C2B34148  29.702  36.206   8.264
 2535POPC   C3B34149  29.663  36.249   7.964
 2535POPC   C4B34150  29.668  36.250   7.664
 2536POPC   NC334151   1.195   3.540   9.464
 2536POPC   PO434152   1.172   3.583   9.164
 2536POPC   GL134153   1.255   3.572   8.864
 2536POPC   GL234154   1.171   3.403   8.864
 2536POPC   C1A34155   1.235   3.544   8.564
 2536POPC   D2A34156   1.187   3.536   8.264
 2536POPC   C3A34157   1.258   3.566   7.964
 2536POPC   C4A34158   1.240   3.565   7.664
 2536POPC   C1B34159   1.144   3.327   8.564
 2536POPC   C2B34160   1.147   3.337   8.264
 2536POPC   C3B34161   1.190   3.311   7.964
 2536POPC   C4B34162   1.101   3.318   7.664
 2537POPC   NC334163  36.885  17.540   9.464
 2537POPC   PO434164  36.884  17.512   9.164
 2537POPC   GL134165  36.913  17.460   8.864
 2537POPC   GL234166  37.022  17.610   8.864
 2537POPC   C1A34167  36.908  17.500   8.564
 2537POPC   D2A34168  36.905  17.460   8.264
 2537POPC   C3A34169  36.892  17.478   7.964
 2537POPC   C4A34170  36.901  17.552   7.664
 2537POPC   C1B34171  37.100  17.689   8.564
 2537POPC   C2B34172  37.079  17.658   8.264
 2537POPC   C3B34173  37.118  17.671   7.964
 2537POPC   C4B34174  37.068  17.700   7.664
 2538POPC   NC334175  19.097  12.069   9.464
 2538POPC   PO434176  19.023  12.080   9.164
 2538POPC   GL134177  19.043  12.107   8.864
 2538POPC   GL234178  18.981  11.950   8.864
 2538POPC   C1A34179  19.085  12.081   8.564
 2538POPC   D2A34180  19.086  12.053   8.264
 2538POPC   C3A34181  19.018  12.067   7.964
 2538POPC   C4A34182  19.061  12.065   7.664
 2538POPC   C1B34183  18.943  11.904   8.564
 2538POPC   C2B34184  18.932  11.907   8.264
 2538POPC   C3B34185  18.943  11.891   7.964
 2538POPC   C4B34186  18.878  11.835   7.664
 2539POPC   NC334187  40.761   1.953   9.464
 2539POPC   PO434188  40.756   2.009   9.164
 2539POPC   GL134189  40.812   1.941   8.864
 2539POPC   GL234190  40.851   1.862   8.864
 2539POPC   C1A34191  40.801   1.955   8.564
 2539POPC   D2A34192  40.802   2.004   8.264
 2539POPC   C3A34193  40.801   2.007   7.964
 2539POPC   C4A34194  40.788   2.000   7.664
 2539POPC   C1B34195  40.874   1.755   8.564
 2539POPC   C2B34196  40.887   1.714   8.264
 2539POPC   C3B34197  40.889   1.717   7.964
 2539POPC   C4B34198  40.809   1.726   7.664
 2540POPC   NC334199  29.961  13.599   9.464
 2540POPC   PO434200  29.904  13.639   9.164
 2540POPC   GL134201  29.945  13.593   8.864
 2540POPC   GL234202  30.075  13.618   8.864
 2540POPC   C1A34203  29.913  13.614   8.564
 2540POPC   D2A34204  29.935  13.588   8.264
 2540POPC   C3A34205  29.881  13.641   7.964
 2540POPC   C4A34206  29.877  13.673   7.664
 2540POPC   C1B34207  30.175  13.569   8.564
 2540POPC   C2B34208  30.117  13.561   8.264
 2540POPC   C3B34209  30.123  13.553   7.964
 2540POPC   C4B34210  30.139  13.516   7.664
 2541POPC   NC334211   0.479  33.011   9.464
 2541POPC   PO434212   0.469  33.065   9.164
 2541POPC   GL134213   0.392  33.024   8.864
 2541POPC   GL234214   0.329  33.082   8.864
 2541POPC   C1A34215   0.420  33.040   8.564
 2541POPC   D2A34216   0.456  33.042   8.264
 2541POPC   C3A34217   0.412  33.072   7.964
 2541POPC   C4A34218   0.394  33.001   7.664
 2541POPC   C1B34219   0.238  33.184   8.564
 2541POPC   C2B34220   0.275  33.255   8.264
 2541POPC   C3B34221   0.243  33.239   7.964
 2541POPC   C4B34222   0.246  33.252   7.664
 2542POPC   NC334223  30.692  28.344   9.464
 2542POPC   PO434224  30.720  28.413   9.164
 2542POPC   GL134225  30.734  28.349   8.864
 2542POPC   GL234226  30.771  28.429   8.864
 2542POPC   C1A34227  30.731  28.391   8.564
 2542POPC   D2A34228  30.720  28.365   8.264
 2542POPC   C3A34229  30.666  28.408   7.964
 2542POPC   C4A34230  30.657  28.399   7.664
 2542POPC   C1B34231  30.928  28.517   8.564
 2542POPC   C2B34232  30.933  28.543   8.264
 2542POPC   C3B34233  30.910  28.470   7.964
 2542POPC   C4B34234  30.923  28.457   7.664
 2543POPC   NC334235   5.839  29.913   9.464
 2543POPC   PO434236   5.833  29.928   9.164
 2543POPC   GL134237   5.861  29.953   8.864
 2543POPC   GL234238   5.837  30.052   8.864
 2543POPC   C1A34239   5.912  29.948   8.564
 2543POPC   D2A34240   5.915  29.953   8.264
 2543POPC   C3A34241   5.909  29.901   7.964
 2543POPC   C4A34242   5.879  29.963   7.664
 2543POPC   C1B34243   5.677  30.094   8.564
 2543POPC   C2B34244   5.770  30.166   8.264
 2543POPC   C3B34245   5.679  30.139   7.964
 2543POPC   C4B34246   5.697  30.164   7.664
 2544POPC   NC334247  25.996   4.285   9.464
 2544POPC   PO434248  26.065   4.344   9.164
 2544POPC   GL134249  26.043   4.350   8.864
 2544POPC   GL234250  25.994   4.419   8.864
 2544POPC   C1A34251  26.066   4.366   8.564
 2544POPC   D2A34252  26.090   4.279   8.264
 2544POPC   C3A34253  26.078   4.364   7.964
 2544POPC   C4A34254  26.053   4.299   7.664
 2544POPC   C1B34255  25.833   4.474   8.564
 2544POPC   C2B34256  25.855   4.515   8.264
 2544POPC   C3B34257  25.847   4.544   7.964
 2544POPC   C4B34258  25.911   4.485   7.664
 2545POPC   NC334259  11.280  40.745   9.464
 2545POPC   PO434260  11.283  40.795   9.164
 2545POPC   GL134261  11.252  40.797   8.864
 2545POPC   GL234262  11.232  40.875   8.864
 2545POPC   C1A34263  11.301  40.743   8.564
 2545POPC   D2A34264  11.326  40.796   8.264
 2545POPC   C3A34265  11.307  40.807   7.964
 2545POPC   C4A34266  11.286  40.807   7.664
 2545POPC   C1B34267  11.135  40.986   8.564
 2545POPC   C2B34268  11.125  40.935   8.264
 2545POPC   C3B34269  11.158  40.932   7.964
 2545POPC   C4B34270  11.130  40.988   7.664
 2546POPC   NC334271   4.268  19.827   9.464
 2546POPC   PO434272   4.288  19.833   9.164
 2546POPC   GL134273   4.344  19.797   8.864
 2546POPC   GL234274   4.319  19.997   8.864
 2546POPC   C1A34275   4.275  19.882   8.564
 2546POPC   D2A34276   4.294  19.813   8.264
 2546POPC   C3A34277   4.344  19.836   7.964
 2546POPC   C4A34278   4.308  19.796   7.664
 2546POPC   C1B34279   4.382  20.050   8.564
 2546POPC   C2B34280   4.311  20.102   8.264
 2546POPC   C3B34281   4.328  20.060   7.964
 2546POPC   C4B34282   4.345  20.048   7.664
 2547POPC   NC334283  23.693  33.011   9.464
 2547POPC   PO434284  23.700  33.053   9.164
 2547POPC   GL134285  23.694  33.012   8.864
 2547POPC   GL234286  23.779  32.921   8.864
 2547POPC   C1A34287  23.666  32.993   8.564
 2547POPC   D2A34288  23.704  33.050   8.264
 2547POPC   C3A34289  23.747  32.974   7.964
 2547POPC   C4A34290  23.677  33.066   7.664
 2547POPC   C1B34291  23.921  32.902   8.564
 2547POPC   C2B34292  23.924  32.935   8.264
 2547POPC   C3B34293  23.923  32.941   7.964
 2547POPC   C4B34294  23.887  32.853   7.664
 2548POPC   NC334295  26.809   9.792   9.464
 2548POPC   PO434296  26.857   9.769   9.164
 2548POPC   GL134297  26.837   9.779   8.864
 2548POPC   GL234298  26.977   9.746   8.864
 2548POPC   C1A34299  26.842   9.739   8.564
 2548POPC   D2A34300  26.815   9.728   8.264
 2548POPC   C3A34301  26.796   9.757   7.964
 2548POPC   C4A34302  26.800   9.789   7.664
 2548POPC   C1B34303  27.016   9.638   8.564
 2548POPC   C2B34304  27.011   9.634   8.264
 2548POPC   C3B34305  27.046   9.672   7.964
 2548POPC   C4B34306  27.028   9.685   7.664
 2549POPC   NC334307  10.487   2.813   9.464
 2549POPC   PO434308  10.520   2.741   9.164
 2549POPC   GL134309  10.493   2.751   8.864
 2549POPC   GL234310  10.582   2.910   8.864
 2549POPC   C1A34311  10.537   2.746   8.564
 2549POPC   D2A34312  10.549   2.720   8.264
 2549POPC   C3A34313  10.546   2.801   7.964
 2549POPC   C4A34314  10.537   2.735   7.664
 2549POPC   C1B34315  10.584   2.997   8.564
 2549POPC   C2B34316  10.556   2.996   8.264
 2549POPC   C3B34317  10.604   2.989   7.964
 2549POPC   C4B34318  10.614   3.005   7.664
 2550POPC   NC334319  43.083   8.216   9.464
 2550POPC   PO434320  43.105   8.245   9.164
 2550POPC   GL134321  43.081   8.228   8.864
 2550POPC   GL234322  43.219   8.195   8.864
 2550POPC   C1A34323  43.107   8.223   8.564
 2550POPC   D2A34324  43.140   8.162   8.264
 2550POPC   C3A34325  43.071   8.238   7.964
 2550POPC   C4A34326  43.160   8.204   7.664
 2550POPC   C1B34327  43.371   8.210   8.564
 2550POPC   C2B34328  43.309   8.277   8.264
 2550POPC   C3B34329  43.389   8.192   7.964
 2550POPC   C4B34330  43.346   8.246   7.664
 2551POPC   NC334331  32.209  17.518   9.464
 2551POPC   PO434332  32.248  17.468   9.164
 2551POPC   GL134333  32.284  17.522   8.864
 2551POPC   GL234334  32.122  17.471   8.864
 2551POPC   C1A34335  32.276  17.539   8.564
 2551POPC   D2A34336  32.273  17.480   8.264
 2551POPC   C3A34337  32.240  17.528   7.964
 2551POPC   C4A34338  32.228  17.486   7.664
 2551POPC   C1B34339  32.001  17.504   8.564
 2551POPC   C2B34340  31.969  17.515   8.264
 2551POPC   C3B34341  32.014  17.477   7.964
 2551POPC   C4B34342  32.018  17.480   7.664
 2552POPC   NC334343  39.238   3.575   9.464
 2552POPC   PO434344  39.270   3.560   9.164
 2552POPC   GL134345  39.228   3.509   8.864
 2552POPC   GL234346  39.189   3.415   8.864
 2552POPC   C1A34347  39.201   3.560   8.564
 2552POPC   D2A34348  39.227   3.520   8.264
 2552POPC   C3A34349  39.207   3.518   7.964
 2552POPC   C4A34350  39.274   3.514   7.664
 2552POPC   C1B34351  39.138   3.335   8.564
 2552POPC   C2B34352  39.152   3.296   8.264
 2552POPC   C3B34353  39.181   3.319   7.964
 2552POPC   C4B34354  39.108   3.276   7.664
 2553POPC   NC334355  36.127  34.620   9.464
 2553POPC   PO434356  36.140  34.552   9.164
 2553POPC   GL134357  36.147  34.582   8.864
 2553POPC   GL234358  36.055  34.658   8.864
 2553POPC   C1A34359  36.154  34.546   8.564
 2553POPC   D2A34360  36.161  34.528   8.264
 2553POPC   C3A34361  36.088  34.598   7.964
 2553POPC   C4A34362  36.167  34.562   7.664
 2553POPC   C1B34363  36.019  34.755   8.564
 2553POPC   C2B34364  36.012  34.739   8.264
 2553POPC   C3B34365  35.971  34.833   7.964
 2553POPC   C4B34366  35.939  34.734   7.664
 2554POPC   NC334367  29.104  34.540   9.464
 2554POPC   PO434368  29.132  34.610   9.164
 2554POPC   GL134369  29.101  34.527   8.864
 2554POPC   GL234370  29.070  34.446   8.864
 2554POPC   C1A34371  29.165  34.605   8.564
 2554POPC   D2A34372  29.187  34.532   8.264
 2554POPC   C3A34373  29.123  34.570   7.964
 2554POPC   C4A34374  29.152  34.584   7.664
 2554POPC   C1B34375  28.982  34.376   8.564
 2554POPC   C2B34376  29.061  34.385   8.264
 2554POPC   C3B34377  29.070  34.401   7.964
 2554POPC   C4B34378  28.993  34.333   7.664
 2555POPC   NC334379  31.497  39.959   9.464
 2555POPC   PO434380  31.507  40.000   9.164
 2555POPC   GL134381  31.467  40.052   8.864
 2555POPC   GL234382  31.497  39.926   8.864
 2555POPC   C1A34383  31.465  40.022   8.564
 2555POPC   D2A34384  31.459  40.040   8.264
 2555POPC   C3A34385  31.513  40.019   7.964
 2555POPC   C4A34386  31.474  39.984   7.664
 2555POPC   C1B34387  31.583  39.800   8.564
 2555POPC   C2B34388  31.550  39.827   8.264
 2555POPC   C3B34389  31.591  39.803   7.964
 2555POPC   C4B34390  31.548  39.826   7.664
 2556POPC   NC334391   1.241  18.304   9.464
 2556POPC   PO434392   1.179  18.305   9.164
 2556POPC   GL134393   1.231  18.328   8.864
 2556POPC   GL234394   1.209  18.157   8.864
 2556POPC   C1A34395   1.225  18.236   8.564
 2556POPC   D2A34396   1.184  18.271   8.264
 2556POPC   C3A34397   1.231  18.249   7.964
 2556POPC   C4A34398   1.185  18.273   7.664
 2556POPC   C1B34399   1.084  18.059   8.564
 2556POPC   C2B34400   1.075  18.072   8.264
 2556POPC   C3B34401   1.104  18.101   7.964
 2556POPC   C4B34402   1.106  18.054   7.664
 2557POPC   NC334403  17.472  26.004   9.464
 2557POPC   PO434404  17.504  26.003   9.164
 2557POPC   GL134405  17.466  26.006   8.864
 2557POPC   GL234406  17.584  25.952   8.864
 2557POPC   C1A34407  17.538  26.054   8.564
 2557POPC   D2A34408  17.486  26.036   8.264
 2557POPC   C3A34409  17.545  26.037   7.964
 2557POPC   C4A34410  17.545  26.083   7.664
 2557POPC   C1B34411  17.611  25.819   8.564
 2557POPC   C2B34412  17.571  25.804   8.264
 2557POPC   C3B34413  17.624  25.788   7.964
 2557POPC   C4B34414  17.626  25.844   7.664
 2558POPC   NC334415  30.673   2.030   9.464
 2558POPC   PO434416  30.740   1.945   9.164
 2558POPC   GL134417  30.696   2.027   8.864
 2558POPC   GL234418  30.747   1.905   8.864
 2558POPC   C1A34419  30.662   1.953   8.564
 2558POPC   D2A34420  30.729   1.969   8.264
 2558POPC   C3A34421  30.730   1.942   7.964
 2558POPC   C4A34422  30.671   1.940   7.664
 2558POPC   C1B34423  30.751   1.738   8.564
 2558POPC   C2B34424  30.742   1.787   8.264
 2558POPC   C3B34425  30.775   1.792   7.964
 2558POPC   C4B34426  30.703   1.751   7.664
 2559POPC   NC334427  22.136  23.668   9.464
 2559POPC   PO434428  22.137  23.726   9.164
 2559POPC   GL134429  22.200  23.681   8.864
 2559POPC   GL234430  22.061  23.644   8.864
 2559POPC   C1A34431  22.153  23.731   8.564
 2559POPC   D2A34432  22.125  23.736   8.264
 2559POPC   C3A34433  22.135  23.749   7.964
 2559POPC   C4A34434  22.168  23.745   7.664
 2559POPC   C1B34435  21.929  23.707   8.564
 2559POPC   C2B34436  21.885  23.667   8.264
 2559POPC   C3B34437  21.933  23.670   7.964
 2559POPC   C4B34438  21.937  23.717   7.664
 2560POPC   NC334439   7.390  42.295   9.464
 2560POPC   PO434440   7.421  42.357   9.164
 2560POPC   GL134441   7.436  42.324   8.864
 2560POPC   GL234442   7.464  42.197   8.864
 2560POPC   C1A34443   7.388  42.372   8.564
 2560POPC   D2A34444   7.401  42.297   8.264
 2560POPC   C3A34445   7.377  42.343   7.964
 2560POPC   C4A34446   7.459  42.303   7.664
 2560POPC   C1B34447   7.428  42.070   8.564
 2560POPC   C2B34448   7.507  42.049   8.264
 2560POPC   C3B34449   7.490  42.077   7.964
 2560POPC   C4B34450   7.455  42.088   7.664
 2561POPC   NC334451  30.692  19.869   9.464
 2561POPC   PO434452  30.655  19.819   9.164
 2561POPC   GL134453  30.652  19.814   8.864
 2561POPC   GL234454  30.818  19.865   8.864
 2561POPC   C1A34455  30.715  19.791   8.564
 2561POPC   D2A34456  30.745  19.851   8.264
 2561POPC   C3A34457  30.657  19.851   7.964
 2561POPC   C4A34458  30.729  19.840   7.664
 2561POPC   C1B34459  30.987  19.839   8.564
 2561POPC   C2B34460  30.977  19.766   8.264
 2561POPC   C3B34461  30.968  19.841   7.964
 2561POPC   C4B34462  30.980  19.837   7.664
 2562POPC   NC334463  12.071   5.880   9.464
 2562POPC   PO434464  12.080   5.892   9.164
 2562POPC   GL134465  12.081   5.880   8.864
 2562POPC   GL234466  12.192   5.996   8.864
 2562POPC   C1A34467  12.065   5.854   8.564
 2562POPC   D2A34468  12.054   5.896   8.264
 2562POPC   C3A34469  12.064   5.831   7.964
 2562POPC   C4A34470  12.109   5.874   7.664
 2562POPC   C1B34471  12.263   6.057   8.564
 2562POPC   C2B34472  12.260   6.033   8.264
 2562POPC   C3B34473  12.241   6.078   7.964
 2562POPC   C4B34474  12.256   6.106   7.664
 2563POPC   NC334475  22.935   5.859   9.464
 2563POPC   PO434476  22.957   5.864   9.164
 2563POPC   GL134477  22.978   5.851   8.864
 2563POPC   GL234478  23.017   5.747   8.864
 2563POPC   C1A34479  22.944   5.846   8.564
 2563POPC   D2A34480  22.946   5.917   8.264
 2563POPC   C3A34481  22.914   5.903   7.964
 2563POPC   C4A34482  22.928   5.837   7.664
 2563POPC   C1B34483  23.044   5.708   8.564
 2563POPC   C2B34484  23.103   5.648   8.264
 2563POPC   C3B34485  23.118   5.663   7.964
 2563POPC   C4B34486  23.066   5.624   7.664
 2564POPC   NC334487  44.687  17.474   9.464
 2564POPC   PO434488  44.646  17.480   9.164
 2564POPC   GL134489  44.647  17.511   8.864
 2564POPC   GL234490  44.801  17.506   8.864
 2564POPC   C1A34491  44.657  17.507   8.564
 2564POPC   D2A34492  44.617  17.477   8.264
 2564POPC   C3A34493  44.637  17.488   7.964
 2564POPC   C4A34494  44.628  17.519   7.664
 2564POPC   C1B34495  44.939  17.514   8.564
 2564POPC   C2B34496  44.930  17.547   8.264
 2564POPC   C3B34497  44.922  17.563   7.964
 2564POPC   C4B34498  44.924  17.602   7.664
 2565POPC   NC334499  21.413  40.053   9.464
 2565POPC   PO434500  21.386  39.964   9.164
 2565POPC   GL134501  21.435  40.050   8.864
 2565POPC   GL234502  21.259  40.041   8.864
 2565POPC   C1A34503  21.368  39.963   8.564
 2565POPC   D2A34504  21.374  40.004   8.264
 2565POPC   C3A34505  21.367  40.049   7.964
 2565POPC   C4A34506  21.404  39.998   7.664
 2565POPC   C1B34507  21.177  40.182   8.564
 2565POPC   C2B34508  21.154  40.095   8.264
 2565POPC   C3B34509  21.187  40.108   7.964
 2565POPC   C4B34510  21.166  40.174   7.664
 2566POPC   NC334511  34.558  33.003   9.464
 2566POPC   PO434512  34.588  32.996   9.164
 2566POPC   GL134513  34.625  33.041   8.864
 2566POPC   GL234514  34.549  33.124   8.864
 2566POPC   C1A34515  34.618  33.069   8.564
 2566POPC   D2A34516  34.548  33.005   8.264
 2566POPC   C3A34517  34.622  32.975   7.964
 2566POPC   C4A34518  34.542  33.062   7.664
 2566POPC   C1B34519  34.547  33.267   8.564
 2566POPC   C2B34520  34.490  33.247   8.264
 2566POPC   C3B34521  34.526  33.264   7.964
 2566POPC   C4B34522  34.543  33.248   7.664
 2567POPC   NC334523  27.603  11.348   9.464
 2567POPC   PO434524  27.629  11.343   9.164
 2567POPC   GL134525  27.603  11.255   8.864
 2567POPC   GL234526  27.620  11.405   8.864
 2567POPC   C1A34527  27.594  11.328   8.564
 2567POPC   D2A34528  27.640  11.324   8.264
 2567POPC   C3A34529  27.595  11.321   7.964
 2567POPC   C4A34530  27.622  11.293   7.664
 2567POPC   C1B34531  27.700  11.533   8.564
 2567POPC   C2B34532  27.684  11.498   8.264
 2567POPC   C3B34533  27.658  11.509   7.964
 2567POPC   C4B34534  27.693  11.527   7.664
 2568POPC   NC334535  22.972  32.213   9.464
 2568POPC   PO434536  22.983  32.265   9.164
 2568POPC   GL134537  22.968  32.267   8.864
 2568POPC   GL234538  22.977  32.328   8.864
 2568POPC   C1A34539  22.911  32.275   8.564
 2568POPC   D2A34540  22.945  32.237   8.264
 2568POPC   C3A34541  22.897  32.250   7.964
 2568POPC   C4A34542  22.891  32.263   7.664
 2568POPC   C1B34543  23.000  32.426   8.564
 2568POPC   C2B34544  23.021  32.448   8.264
 2568POPC   C3B34545  23.014  32.505   7.964
 2568POPC   C4B34546  22.994  32.513   7.664
 2569POPC   NC334547   1.967  10.541   9.464
 2569POPC   PO434548   1.992  10.508   9.164
 2569POPC   GL134549   1.957  10.553   8.864
 2569POPC   GL234550   1.942  10.414   8.864
 2569POPC   C1A34551   1.949  10.512   8.564
 2569POPC   D2A34552   1.954  10.521   8.264
 2569POPC   C3A34553   1.944  10.565   7.964
 2569POPC   C4A34554   2.016  10.495   7.664
 2569POPC   C1B34555   1.894  10.258   8.564
 2569POPC   C2B34556   1.931  10.278   8.264
 2569POPC   C3B34557   1.915  10.327   7.964
 2569POPC   C4B34558   1.891  10.276   7.664
 2570POPC   NC334559  33.031  12.088   9.464
 2570POPC   PO434560  33.071  12.099   9.164
 2570POPC   GL134561  32.988  12.065   8.864
 2570POPC   GL234562  32.959  12.133   8.864
 2570POPC   C1A34563  33.023  12.077   8.564
 2570POPC   D2A34564  33.054  12.120   8.264
 2570POPC   C3A34565  33.070  12.105   7.964
 2570POPC   C4A34566  33.032  12.030   7.664
 2570POPC   C1B34567  32.819  12.211   8.564
 2570POPC   C2B34568  32.872  12.204   8.264
 2570POPC   C3B34569  32.863  12.209   7.964
 2570POPC   C4B34570  32.825  12.255   7.664
 2571POPC   NC334571  22.209  15.210   9.464
 2571POPC   PO434572  22.169  15.137   9.164
 2571POPC   GL134573  22.151  15.180   8.864
 2571POPC   GL234574  22.014  15.217   8.864
 2571POPC   C1A34575  22.203  15.164   8.564
 2571POPC   D2A34576  22.170  15.219   8.264
 2571POPC   C3A34577  22.193  15.168   7.964
 2571POPC   C4A34578  22.205  15.196   7.664
 2571POPC   C1B34579  21.884  15.178   8.564
 2571POPC   C2B34580  21.959  15.175   8.264
 2571POPC   C3B34581  21.960  15.244   7.964
 2571POPC   C4B34582  21.930  15.252   7.664
 2572POPC   NC334583  32.976  29.119   9.464
 2572POPC   PO434584  33.042  29.144   9.164
 2572POPC   GL134585  33.069  29.151   8.864
 2572POPC   GL234586  32.956  29.038   8.864
 2572POPC   C1A34587  32.994  29.185   8.564
 2572POPC   D2A34588  33.007  29.157   8.264
 2572POPC   C3A34589  33.073  29.158   7.964
 2572POPC   C4A34590  32.979  29.171   7.664
 2572POPC   C1B34591  32.961  28.947   8.564
 2572POPC   C2B34592  33.000  28.933   8.264
 2572POPC   C3B34593  33.023  28.885   7.964
 2572POPC   C4B34594  32.929  28.944   7.664
 2573POPC   NC334595  24.460  26.004   9.464
 2573POPC   PO434596  24.517  26.003   9.164
 2573POPC   GL134597  24.534  26.014   8.864
 2573POPC   GL234598  24.657  26.064   8.864
 2573POPC   C1A34599  24.486  26.018   8.564
 2573POPC   D2A34600  24.491  26.056   8.264
 2573POPC   C3A34601  24.466  26.054   7.964
 2573POPC   C4A34602  24.447  26.076   7.664
 2573POPC   C1B34603  24.710  26.137   8.564
 2573POPC   C2B34604  24.716  26.101   8.264
 2573POPC   C3B34605  24.767  26.114   7.964
 2573POPC   C4B34606  24.763  26.070   7.664
 2574POPC   NC334607  27.641  13.658   9.464
 2574POPC   PO434608  27.607  13.638   9.164
 2574POPC   GL134609  27.591  13.636   8.864
 2574POPC   GL234610  27.612  13.731   8.864
 2574POPC   C1A34611  27.587  13.626   8.564
 2574POPC   D2A34612  27.613  13.623   8.264
 2574POPC   C3A34613  27.585  13.671   7.964
 2574POPC   C4A34614  27.551  13.627   7.664
 2574POPC   C1B34615  27.531  13.839   8.564
 2574POPC   C2B34616  27.606  13.827   8.264
 2574POPC   C3B34617  27.597  13.896   7.964
 2574POPC   C4B34618  27.608  13.916   7.664
 2575POPC   NC334619  36.866  25.307   9.464
 2575POPC   PO434620  36.906  25.299   9.164
 2575POPC   GL134621  36.894  25.315   8.864
 2575POPC   GL234622  36.855  25.177   8.864
 2575POPC   C1A34623  36.883  25.263   8.564
 2575POPC   D2A34624  36.883  25.249   8.264
 2575POPC   C3A34625  36.886  25.287   7.964
 2575POPC   C4A34626  36.854  25.279   7.664
 2575POPC   C1B34627  36.947  24.993   8.564
 2575POPC   C2B34628  36.906  25.002   8.264
 2575POPC   C3B34629  36.898  25.065   7.964
 2575POPC   C4B34630  36.915  24.994   7.664
 2576POPC   NC334631  42.291   8.203   9.464
 2576POPC   PO434632  42.355   8.213   9.164
 2576POPC   GL134633  42.373   8.199   8.864
 2576POPC   GL234634  42.335   8.079   8.864
 2576POPC   C1A34635  42.289   8.148   8.564
 2576POPC   D2A34636  42.378   8.184   8.264
 2576POPC   C3A34637  42.300   8.187   7.964
 2576POPC   C4A34638  42.350   8.239   7.664
 2576POPC   C1B34639  42.357   7.955   8.564
 2576POPC   C2B34640  42.323   7.910   8.264
 2576POPC   C3B34641  42.297   7.921   7.964
 2576POPC   C4B34642  42.372   7.899   7.664
 2577POPC   NC334643  16.753  28.385   9.464
 2577POPC   PO434644  16.703  28.341   9.164
 2577POPC   GL134645  16.713  28.416   8.864
 2577POPC   GL234646  16.640  28.306   8.864
 2577POPC   C1A34647  16.778  28.412   8.564
 2577POPC   D2A34648  16.706  28.364   8.264
 2577POPC   C3A34649  16.684  28.351   7.964
 2577POPC   C4A34650  16.749  28.390   7.664
 2577POPC   C1B34651  16.496  28.248   8.564
 2577POPC   C2B34652  16.562  28.276   8.264
 2577POPC   C3B34653  16.483  28.197   7.964
 2577POPC   C4B34654  16.524  28.228   7.664
 2578POPC   NC334655   2.811  31.469   9.464
 2578POPC   PO434656   2.730  31.491   9.164
 2578POPC   GL134657   2.784  31.518   8.864
 2578POPC   GL234658   2.741  31.577   8.864
 2578POPC   C1A34659   2.798  31.487   8.564
 2578POPC   D2A34660   2.775  31.460   8.264
 2578POPC   C3A34661   2.752  31.489   7.964
 2578POPC   C4A34662   2.756  31.452   7.664
 2578POPC   C1B34663   2.820  31.675   8.564
 2578POPC   C2B34664   2.761  31.722   8.264
 2578POPC   C3B34665   2.781  31.755   7.964
 2578POPC   C4B34666   2.743  31.749   7.664
 2579POPC   NC334667  34.554  28.328   9.464
 2579POPC   PO434668  34.615  28.398   9.164
 2579POPC   GL134669  34.555  28.387   8.864
 2579POPC   GL234670  34.660  28.476   8.864
 2579POPC   C1A34671  34.592  28.364   8.564
 2579POPC   D2A34672  34.539  28.381   8.264
 2579POPC   C3A34673  34.617  28.328   7.964
 2579POPC   C4A34674  34.527  28.356   7.664
 2579POPC   C1B34675  34.660  28.595   8.564
 2579POPC   C2B34676  34.638  28.633   8.264
 2579POPC   C3B34677  34.652  28.548   7.964
 2579POPC   C4B34678  34.698  28.589   7.664
 2580POPC   NC334679  23.735   5.832   9.464
 2580POPC   PO434680  23.741   5.838   9.164
 2580POPC   GL134681  23.714   5.870   8.864
 2580POPC   GL234682  23.802   5.955   8.864
 2580POPC   C1A34683  23.706   5.868   8.564
 2580POPC   D2A34684  23.701   5.884   8.264
 2580POPC   C3A34685  23.704   5.885   7.964
 2580POPC   C4A34686  23.712   5.867   7.664
 2580POPC   C1B34687  23.952   6.009   8.564
 2580POPC   C2B34688  23.865   6.036   8.264
 2580POPC   C3B34689  23.945   5.986   7.964
 2580POPC   C4B34690  23.919   6.025   7.664
 2581POPC   NC334691  30.712  44.624   9.464
 2581POPC   PO434692  30.680  44.634   9.164
 2581POPC   GL134693  30.720  44.690   8.864
 2581POPC   GL234694  30.639  44.542   8.864
 2581POPC   C1A34695  30.739  44.658   8.564
 2581POPC   D2A34696  30.706  44.704   8.264
 2581POPC   C3A34697  30.721  44.668   7.964
 2581POPC   C4A34698  30.693  44.620   7.664
 2581POPC   C1B34699  30.584  44.471   8.564
 2581POPC   C2B34700  30.547  44.422   8.264
 2581POPC   C3B34701  30.530  44.430   7.964
 2581POPC   C4B34702  30.536  44.471   7.664
 2582POPC   NC334703   5.822  35.401   9.464
 2582POPC   PO434704   5.839  35.343   9.164
 2582POPC   GL134705   5.859  35.369   8.864
 2582POPC   GL234706   5.779  35.265   8.864
 2582POPC   C1A34707   5.841  35.326   8.564
 2582POPC   D2A34708   5.821  35.375   8.264
 2582POPC   C3A34709   5.902  35.387   7.964
 2582POPC   C4A34710   5.855  35.363   7.664
 2582POPC   C1B34711   5.659  35.286   8.564
 2582POPC   C2B34712   5.614  35.248   8.264
 2582POPC   C3B34713   5.610  35.236   7.964
 2582POPC   C4B34714   5.652  35.199   7.664
 2583POPC   NC334715   3.581  19.809   9.464
 2583POPC   PO434716   3.541  19.806   9.164
 2583POPC   GL134717   3.545  19.860   8.864
 2583POPC   GL234718   3.634  19.912   8.864
 2583POPC   C1A34719   3.536  19.841   8.564
 2583POPC   D2A34720   3.585  19.825   8.264
 2583POPC   C3A34721   3.552  19.875   7.964
 2583POPC   C4A34722   3.500  19.828   7.664
 2583POPC   C1B34723   3.762  20.001   8.564
 2583POPC   C2B34724   3.769  20.004   8.264
 2583POPC   C3B34725   3.709  19.951   7.964
 2583POPC   C4B34726   3.747  19.981   7.664
 2584POPC   NC334727  29.145   1.209   9.464
 2584POPC   PO434728  29.141   1.192   9.164
 2584POPC   GL134729  29.169   1.263   8.864
 2584POPC   GL234730  29.162   1.055   8.864
 2584POPC   C1A34731  29.145   1.243   8.564
 2584POPC   D2A34732  29.142   1.167   8.264
 2584POPC   C3A34733  29.186   1.225   7.964
 2584POPC   C4A34734  29.137   1.217   7.664
 2584POPC   C1B34735  29.262   0.943   8.564
 2584POPC   C2B34736  29.222   0.969   8.264
 2584POPC   C3B34737  29.235   0.934   7.964
 2584POPC   C4B34738  29.196   0.970   7.664
 2585POPC   NC334739  25.272  31.474   9.464
 2585POPC   PO434740  25.248  31.472   9.164
 2585POPC   GL134741  25.253  31.522   8.864
 2585POPC   GL234742  25.429  31.415   8.864
 2585POPC   C1A34743  25.243  31.504   8.564
 2585POPC   D2A34744  25.252  31.478   8.264
 2585POPC   C3A34745  25.257  31.429   7.964
 2585POPC   C4A34746  25.230  31.494   7.664
 2585POPC   C1B34747  25.539  31.405   8.564
 2585POPC   C2B34748  25.541  31.441   8.264
 2585POPC   C3B34749  25.551  31.403   7.964
 2585POPC   C4B34750  25.474  31.420   7.664
 2586POPC   NC334751  14.441  39.263   9.464
 2586POPC   PO434752  14.391  39.256   9.164
 2586POPC   GL134753  14.371  39.233   8.864
 2586POPC   GL234754  14.231  39.222   8.864
 2586POPC   C1A34755  14.444  39.245   8.564
 2586POPC   D2A34756  14.378  39.198   8.264
 2586POPC   C3A34757  14.388  39.204   7.964
 2586POPC   C4A34758  14.405  39.257   7.664
 2586POPC   C1B34759  14.134  39.248   8.564
 2586POPC   C2B34760  14.111  39.181   8.264
 2586POPC   C3B34761  14.198  39.152   7.964
 2586POPC   C4B34762  14.119  39.245   7.664
 2587POPC   NC334763  18.288  10.485   9.464
 2587POPC   PO434764  18.247  10.505   9.164
 2587POPC   GL134765  18.263  10.528   8.864
 2587POPC   GL234766  18.159  10.501   8.864
 2587POPC   C1A34767  18.243  10.503   8.564
 2587POPC   D2A34768  18.307  10.477   8.264
 2587POPC   C3A34769  18.283  10.523   7.964
 2587POPC   C4A34770  18.284  10.539   7.664
 2587POPC   C1B34771  18.047  10.464   8.564
 2587POPC   C2B34772  18.051  10.488   8.264
 2587POPC   C3B34773  18.027  10.453   7.964
 2587POPC   C4B34774  18.015  10.492   7.664
 2588POPC   NC334775  12.118   8.200   9.464
 2588POPC   PO434776  12.087   8.189   9.164
 2588POPC   GL134777  12.102   8.204   8.864
 2588POPC   GL234778  12.031   8.277   8.864
 2588POPC   C1A34779  12.118   8.163   8.564
 2588POPC   D2A34780  12.035   8.211   8.264
 2588POPC   C3A34781  12.075   8.217   7.964
 2588POPC   C4A34782  12.061   8.150   7.664
 2588POPC   C1B34783  12.059   8.457   8.564
 2588POPC   C2B34784  11.962   8.391   8.264
 2588POPC   C3B34785  12.057   8.395   7.964
 2588POPC   C4B34786  12.041   8.464   7.664
 2589POPC   NC334787  36.094  22.189   9.464
 2589POPC   PO434788  36.163  22.195   9.164
 2589POPC   GL134789  36.119  22.154   8.864
 2589POPC   GL234790  36.076  22.233   8.864
 2589POPC   C1A34791  36.174  22.116   8.564
 2589POPC   D2A34792  36.160  22.207   8.264
 2589POPC   C3A34793  36.083  22.142   7.964
 2589POPC   C4A34794  36.172  22.134   7.664
 2589POPC   C1B34795  36.002  22.390   8.564
 2589POPC   C2B34796  35.993  22.369   8.264
 2589POPC   C3B34797  35.990  22.405   7.964
 2589POPC   C4B34798  36.039  22.379   7.664
 2590POPC   NC334799  26.811  22.133   9.464
 2590POPC   PO434800  26.789  22.193   9.164
 2590POPC   GL134801  26.867  22.139   8.864
 2590POPC   GL234802  26.747  22.305   8.864
 2590POPC   C1A34803  26.861  22.186   8.564
 2590POPC   D2A34804  26.837  22.209   8.264
 2590POPC   C3A34805  26.822  22.148   7.964
 2590POPC   C4A34806  26.816  22.189   7.664
 2590POPC   C1B34807  26.720  22.355   8.564
 2590POPC   C2B34808  26.736  22.358   8.264
 2590POPC   C3B34809  26.677  22.431   7.964
 2590POPC   C4B34810  26.686  22.348   7.664
 2591POPC   NC334811  29.953  39.985   9.464
 2591POPC   PO434812  29.919  39.999   9.164
 2591POPC   GL134813  29.892  39.974   8.864
 2591POPC   GL234814  29.844  40.138   8.864
 2591POPC   C1A34815  29.942  40.022   8.564
 2591POPC   D2A34816  29.940  40.011   8.264
 2591POPC   C3A34817  29.941  40.041   7.964
 2591POPC   C4A34818  29.960  40.010   7.664
 2591POPC   C1B34819  29.822  40.229   8.564
 2591POPC   C2B34820  29.859  40.211   8.264
 2591POPC   C3B34821  29.872  40.281   7.964
 2591POPC   C4B34822  29.818  40.274   7.664
 2592POPC   NC334823  15.968  11.335   9.464
 2592POPC   PO434824  15.983  11.326   9.164
 2592POPC   GL134825  15.963  11.327   8.864
 2592POPC   GL234826  16.000  11.136   8.864
 2592POPC   C1A34827  15.936  11.259   8.564
 2592POPC   D2A34828  15.975  11.331   8.264
 2592POPC   C3A34829  15.956  11.305   7.964
 2592POPC   C4A34830  15.951  11.256   7.664
 2592POPC   C1B34831  15.980  11.064   8.564
 2592POPC   C2B34832  15.999  11.005   8.264
 2592POPC   C3B34833  15.985  11.092   7.964
 2592POPC   C4B34834  15.935  11.026   7.664
 2593POPC   NC334835  24.498  22.888   9.464
 2593POPC   PO434836  24.455  22.921   9.164
 2593POPC   GL134837  24.467  22.961   8.864
 2593POPC   GL234838  24.502  23.105   8.864
 2593POPC   C1A34839  24.441  22.912   8.564
 2593POPC   D2A34840  24.453  22.976   8.264
 2593POPC   C3A34841  24.472  22.920   7.964
 2593POPC   C4A34842  24.526  22.956   7.664
 2593POPC   C1B34843  24.574  23.142   8.564
 2593POPC   C2B34844  24.535  23.221   8.264
 2593POPC   C3B34845  24.512  23.173   7.964
 2593POPC   C4B34846  24.503  23.209   7.664
 2594POPC   NC334847  20.643   1.999   9.464
 2594POPC   PO434848  20.579   1.964   9.164
 2594POPC   GL134849  20.621   1.983   8.864
 2594POPC   GL234850  20.665   2.067   8.864
 2594POPC   C1A34851  20.615   2.019   8.564
 2594POPC   D2A34852  20.636   1.957   8.264
 2594POPC   C3A34853  20.588   2.007   7.964
 2594POPC   C4A34854  20.591   1.945   7.664
 2594POPC   C1B34855  20.643   2.279   8.564
 2594POPC   C2B34856  20.723   2.235   8.264
 2594POPC   C3B34857  20.723   2.260   7.964
 2594POPC   C4B34858  20.704   2.219   7.664
 2595POPC   NC334859   4.327  41.554   9.464
 2595POPC   PO434860   4.355  41.592   9.164
 2595POPC   GL134861   4.338  41.585   8.864
 2595POPC   GL234862   4.273  41.396   8.864
 2595POPC   C1A34863   4.326  41.558   8.564
 2595POPC   D2A34864   4.331  41.546   8.264
 2595POPC   C3A34865   4.338  41.526   7.964
 2595POPC   C4A34866   4.296  41.578   7.664
 2595POPC   C1B34867   4.325  41.281   8.564
 2595POPC   C2B34868   4.340  41.332   8.264
 2595POPC   C3B34869   4.259  41.343   7.964
 2595POPC   C4B34870   4.350  41.316   7.664
 2596POPC   NC334871  33.067  39.187   9.464
 2596POPC   PO434872  33.061  39.207   9.164
 2596POPC   GL134873  33.054  39.271   8.864
 2596POPC   GL234874  32.964  39.387   8.864
 2596POPC   C1A34875  33.016  39.186   8.564
 2596POPC   D2A34876  33.058  39.207   8.264
 2596POPC   C3A34877  33.005  39.227   7.964
 2596POPC   C4A34878  33.019  39.281   7.664
 2596POPC   C1B34879  32.887  39.432   8.564
 2596POPC   C2B34880  32.932  39.500   8.264
 2596POPC   C3B34881  32.892  39.449   7.964
 2596POPC   C4B34882  32.961  39.489   7.664
 2597POPC   NC334883  23.714  43.852   9.464
 2597POPC   PO434884  23.717  43.900   9.164
 2597POPC   GL134885  23.760  43.890   8.864
 2597POPC   GL234886  23.603  43.884   8.864
 2597POPC   C1A34887  23.694  43.840   8.564
 2597POPC   D2A34888  23.754  43.842   8.264
 2597POPC   C3A34889  23.736  43.876   7.964
 2597POPC   C4A34890  23.751  43.866   7.664
 2597POPC   C1B34891  23.496  43.882   8.564
 2597POPC   C2B34892  23.486  43.904   8.264
 2597POPC   C3B34893  23.494  43.929   7.964
 2597POPC   C4B34894  23.513  43.922   7.664
 2598POPC   NC334895  43.066  36.949   9.464
 2598POPC   PO434896  43.094  36.871   9.164
 2598POPC   GL134897  43.149  36.890   8.864
 2598POPC   GL234898  43.195  37.005   8.864
 2598POPC   C1A34899  43.073  36.951   8.564
 2598POPC   D2A34900  43.063  36.874   8.264
 2598POPC   C3A34901  43.084  36.904   7.964
 2598POPC   C4A34902  43.062  36.889   7.664
 2598POPC   C1B34903  43.311  37.048   8.564
 2598POPC   C2B34904  43.322  37.029   8.264
 2598POPC   C3B34905  43.317  37.043   7.964
 2598POPC   C4B34906  43.336  36.973   7.664
 2599POPC   NC334907  42.373  22.963   9.464
 2599POPC   PO434908  42.383  22.969   9.164
 2599POPC   GL134909  42.382  22.894   8.864
 2599POPC   GL234910  42.240  22.906   8.864
 2599POPC   C1A34911  42.302  22.962   8.564
 2599POPC   D2A34912  42.368  22.906   8.264
 2599POPC   C3A34913  42.345  22.932   7.964
 2599POPC   C4A34914  42.316  22.942   7.664
 2599POPC   C1B34915  42.170  22.778   8.564
 2599POPC   C2B34916  42.097  22.812   8.264
 2599POPC   C3B34917  42.152  22.807   7.964
 2599POPC   C4B34918  42.161  22.757   7.664
 2600POPC   NC334919  16.682  21.400   9.464
 2600POPC   PO434920  16.717  21.401   9.164
 2600POPC   GL134921  16.683  21.390   8.864
 2600POPC   GL234922  16.591  21.316   8.864
 2600POPC   C1A34923  16.721  21.341   8.564
 2600POPC   D2A34924  16.698  21.382   8.264
 2600POPC   C3A34925  16.736  21.337   7.964
 2600POPC   C4A34926  16.701  21.436   7.664
 2600POPC   C1B34927  16.514  21.286   8.564
 2600POPC   C2B34928  16.527  21.331   8.264
 2600POPC   C3B34929  16.441  21.369   7.964
 2600POPC   C4B34930  16.463  21.353   7.664
 2601POPC   NC334931  22.919   3.514   9.464
 2601POPC   PO434932  22.941   3.579   9.164
 2601POPC   GL134933  22.894   3.568   8.864
 2601POPC   GL234934  22.997   3.677   8.864
 2601POPC   C1A34935  22.965   3.567   8.564
 2601POPC   D2A34936  22.923   3.507   8.264
 2601POPC   C3A34937  22.894   3.544   7.964
 2601POPC   C4A34938  22.893   3.527   7.664
 2601POPC   C1B34939  23.087   3.784   8.564
 2601POPC   C2B34940  23.061   3.795   8.264
 2601POPC   C3B34941  23.052   3.816   7.964
 2601POPC   C4B34942  23.019   3.746   7.664
 2602POPC   NC334943  17.515  37.675   9.464
 2602POPC   PO434944  17.501  37.635   9.164
 2602POPC   GL134945  17.508  37.707   8.864
 2602POPC   GL234946  17.557  37.766   8.864
 2602POPC   C1A34947  17.521  37.634   8.564
 2602POPC   D2A34948  17.520  37.656   8.264
 2602POPC   C3A34949  17.471  37.695   7.964
 2602POPC   C4A34950  17.526  37.666   7.664
 2602POPC   C1B34951  17.600  37.947   8.564
 2602POPC   C2B34952  17.560  37.877   8.264
 2602POPC   C3B34953  17.570  37.890   7.964
 2602POPC   C4B34954  17.634  37.934   7.664
 2603POPC   NC334955  37.667  18.237   9.464
 2603POPC   PO434956  37.670  18.299   9.164
 2603POPC   GL134957  37.698  18.290   8.864
 2603POPC   GL234958  37.576  18.190   8.864
 2603POPC   C1A34959  37.703  18.307   8.564
 2603POPC   D2A34960  37.665  18.248   8.264
 2603POPC   C3A34961  37.652  18.260   7.964
 2603POPC   C4A34962  37.720  18.252   7.664
 2603POPC   C1B34963  37.545  18.050   8.564
 2603POPC   C2B34964  37.482  18.055   8.264
 2603POPC   C3B34965  37.499  18.124   7.964
 2603POPC   C4B34966  37.495  18.108   7.664
 2604POPC   NC334967  19.857  24.530   9.464
 2604POPC   PO434968  19.799  24.460   9.164
 2604POPC   GL134969  19.840  24.467   8.864
 2604POPC   GL234970  19.782  24.587   8.864
 2604POPC   C1A34971  19.869  24.461   8.564
 2604POPC   D2A34972  19.841  24.512   8.264
 2604POPC   C3A34973  19.812  24.446   7.964
 2604POPC   C4A34974  19.810  24.495   7.664
 2604POPC   C1B34975  19.731  24.754   8.564
 2604POPC   C2B34976  19.775  24.693   8.264
 2604POPC   C3B34977  19.771  24.725   7.964
 2604POPC   C4B34978  19.795  24.734   7.664
 2605POPC   NC334979  29.921  41.605   9.464
 2605POPC   PO434980  29.904  41.528   9.164
 2605POPC   GL134981  29.965  41.559   8.864
 2605POPC   GL234982  29.967  41.658   8.864
 2605POPC   C1A34983  29.960  41.596   8.564
 2605POPC   D2A34984  29.935  41.537   8.264
 2605POPC   C3A34985  29.875  41.571   7.964
 2605POPC   C4A34986  29.880  41.592   7.664
 2605POPC   C1B34987  30.042  41.770   8.564
 2605POPC   C2B34988  29.991  41.787   8.264
 2605POPC   C3B34989  29.994  41.770   7.964
 2605POPC   C4B34990  30.070  41.800   7.664
 2606POPC   NC334991  15.150  24.502   9.464
 2606POPC   PO434992  15.145  24.507   9.164
 2606POPC   GL134993  15.167  24.498   8.864
 2606POPC   GL234994  15.097  24.414   8.864
 2606POPC   C1A34995  15.162  24.528   8.564
 2606POPC   D2A34996  15.136  24.529   8.264
 2606POPC   C3A34997  15.197  24.523   7.964
 2606POPC   C4A34998  15.171  24.539   7.664
 2606POPC   C1B34999  15.022  24.313   8.564
 2606POPC   C2B35000  15.014  24.290   8.264
 2606POPC   C3B35001  15.033  24.238   7.964
 2606POPC   C4B35002  15.061  24.300   7.664
 2607POPC   NC335003  43.081  26.862   9.464
 2607POPC   PO435004  43.152  26.859   9.164
 2607POPC   GL135005  43.155  26.779   8.864
 2607POPC   GL235006  43.249  26.760   8.864
 2607POPC   C1A35007  43.069  26.836   8.564
 2607POPC   D2A35008  43.123  26.840   8.264
 2607POPC   C3A35009  43.149  26.797   7.964
 2607POPC   C4A35010  43.135  26.801   7.664
 2607POPC   C1B35011  43.254  26.682   8.564
 2607POPC   C2B35012  43.267  26.672   8.264
 2607POPC   C3B35013  43.265  26.662   7.964
 2607POPC   C4B35014  43.311  26.664   7.664
 2608POPC   NC335015   8.995   2.019   9.464
 2608POPC   PO435016   9.001   1.948   9.164
 2608POPC   GL135017   8.972   1.996   8.864
 2608POPC   GL235018   8.878   1.894   8.864
 2608POPC   C1A35019   9.009   2.001   8.564
 2608POPC   D2A35020   8.981   1.949   8.264
 2608POPC   C3A35021   8.953   2.010   7.964
 2608POPC   C4A35022   8.985   1.956   7.664
 2608POPC   C1B35023   8.754   1.922   8.564
 2608POPC   C2B35024   8.732   1.872   8.264
 2608POPC   C3B35025   8.725   1.919   7.964
 2608POPC   C4B35026   8.731   1.897   7.664
 2609POPC   NC335027  33.839  14.411   9.464
 2609POPC   PO435028  33.794  14.439   9.164
 2609POPC   GL135029  33.845  14.355   8.864
 2609POPC   GL235030  33.853  14.274   8.864
 2609POPC   C1A35031  33.763  14.410   8.564
 2609POPC   D2A35032  33.820  14.414   8.264
 2609POPC   C3A35033  33.786  14.387   7.964
 2609POPC   C4A35034  33.788  14.403   7.664
 2609POPC   C1B35035  34.010  14.185   8.564
 2609POPC   C2B35036  33.979  14.195   8.264
 2609POPC   C3B35037  33.927  14.210   7.964
 2609POPC   C4B35038  33.992  14.244   7.664
 2610POPC   NC335039  17.530  16.772   9.464
 2610POPC   PO435040  17.503  16.768   9.164
 2610POPC   GL135041  17.468  16.711   8.864
 2610POPC   GL235042  17.663  16.699   8.864
 2610POPC   C1A35043  17.555  16.686   8.564
 2610POPC   D2A35044  17.469  16.747   8.264
 2610POPC   C3A35045  17.476  16.714   7.964
 2610POPC   C4A35046  17.504  16.761   7.664
 2610POPC   C1B35047  17.751  16.718   8.564
 2610POPC   C2B35048  17.798  16.716   8.264
 2610POPC   C3B35049  17.789  16.634   7.964
 2610POPC   C4B35050  17.722  16.663   7.664
 2611POPC   NC335051  19.843  43.841   9.464
 2611POPC   PO435052  19.871  43.876   9.164
 2611POPC   GL135053  19.855  43.862   8.864
 2611POPC   GL235054  19.682  43.802   8.864
 2611POPC   C1A35055  19.858  43.933   8.564
 2611POPC   D2A35056  19.833  43.869   8.264
 2611POPC   C3A35057  19.878  43.870   7.964
 2611POPC   C4A35058  19.859  43.879   7.664
 2611POPC   C1B35059  19.609  43.797   8.564
 2611POPC   C2B35060  19.606  43.740   8.264
 2611POPC   C3B35061  19.581  43.798   7.964
 2611POPC   C4B35062  19.604  43.780   7.664
 2612POPC   NC335063  17.462  36.887   9.464
 2612POPC   PO435064  17.552  36.915   9.164
 2612POPC   GL135065  17.472  36.891   8.864
 2612POPC   GL235066  17.615  36.764   8.864
 2612POPC   C1A35067  17.510  36.870   8.564
 2612POPC   D2A35068  17.541  36.949   8.264
 2612POPC   C3A35069  17.521  36.859   7.964
 2612POPC   C4A35070  17.515  36.908   7.664
 2612POPC   C1B35071  17.657  36.756   8.564
 2612POPC   C2B35072  17.628  36.770   8.264
 2612POPC   C3B35073  17.653  36.746   7.964
 2612POPC   C4B35074  17.640  36.709   7.664
 2613POPC   NC335075   3.525  26.865   9.464
 2613POPC   PO435076   3.590  26.789   9.164
 2613POPC   GL135077   3.571  26.775   8.864
 2613POPC   GL235078   3.666  26.783   8.864
 2613POPC   C1A35079   3.570  26.819   8.564
 2613POPC   D2A35080   3.504  26.794   8.264
 2613POPC   C3A35081   3.571  26.824   7.964
 2613POPC   C4A35082   3.519  26.841   7.664
 2613POPC   C1B35083   3.734  26.716   8.564
 2613POPC   C2B35084   3.774  26.745   8.264
 2613POPC   C3B35085   3.816  26.737   7.964
 2613POPC   C4B35086   3.798  26.743   7.664
 2614POPC   NC335087   9.724   8.220   9.464
 2614POPC   PO435088   9.786   8.201   9.164
 2614POPC   GL135089   9.743   8.217   8.864
 2614POPC   GL235090   9.651   8.146   8.864
 2614POPC   C1A35091   9.782   8.197   8.564
 2614POPC   D2A35092   9.731   8.165   8.264
 2614POPC   C3A35093   9.701   8.172   7.964
 2614POPC   C4A35094   9.709   8.180   7.664
 2614POPC   C1B35095   9.539   8.052   8.564
 2614POPC   C2B35096   9.503   8.035   8.264
 2614POPC   C3B35097   9.503   8.102   7.964
 2614POPC   C4B35098   9.509   8.050   7.664
 2615POPC   NC335099  29.192  28.350   9.464
 2615POPC   PO435100  29.188  28.417   9.164
 2615POPC   GL135101  29.177  28.363   8.864
 2615POPC   GL235102  29.154  28.473   8.864
 2615POPC   C1A35103  29.102  28.358   8.564
 2615POPC   D2A35104  29.143  28.400   8.264
 2615POPC   C3A35105  29.130  28.346   7.964
 2615POPC   C4A35106  29.143  28.414   7.664
 2615POPC   C1B35107  29.215  28.592   8.564
 2615POPC   C2B35108  29.172  28.609   8.264
 2615POPC   C3B35109  29.214  28.589   7.964
 2615POPC   C4B35110  29.227  28.600   7.664
 2616POPC   NC335111  15.978  26.853   9.464
 2616POPC   PO435112  15.936  26.832   9.164
 2616POPC   GL135113  15.980  26.805   8.864
 2616POPC   GL235114  16.004  26.914   8.864
 2616POPC   C1A35115  15.929  26.866   8.564
 2616POPC   D2A35116  15.994  26.837   8.264
 2616POPC   C3A35117  15.947  26.838   7.964
 2616POPC   C4A35118  15.911  26.797   7.664
 2616POPC   C1B35119  16.076  26.966   8.564
 2616POPC   C2B35120  16.070  27.046   8.264
 2616POPC   C3B35121  16.156  27.039   7.964
 2616POPC   C4B35122  16.141  27.009   7.664
 2617POPC   NC335123  18.248   2.736   9.464
 2617POPC   PO435124  18.330   2.725   9.164
 2617POPC   GL135125  18.308   2.761   8.864
 2617POPC   GL235126  18.326   2.872   8.864
 2617POPC   C1A35127  18.319   2.779   8.564
 2617POPC   D2A35128  18.252   2.800   8.264
 2617POPC   C3A35129  18.295   2.805   7.964
 2617POPC   C4A35130  18.237   2.718   7.664
 2617POPC   C1B35131  18.420   2.979   8.564
 2617POPC   C2B35132  18.451   2.974   8.264
 2617POPC   C3B35133  18.424   2.993   7.964
 2617POPC   C4B35134  18.409   2.930   7.664
 2618POPC   NC335135   9.739  20.575   9.464
 2618POPC   PO435136   9.715  20.600   9.164
 2618POPC   GL135137   9.788  20.628   8.864
 2618POPC   GL235138   9.638  20.646   8.864
 2618POPC   C1A35139   9.733  20.647   8.564
 2618POPC   D2A35140   9.761  20.647   8.264
 2618POPC   C3A35141   9.752  20.604   7.964
 2618POPC   C4A35142   9.739  20.622   7.664
 2618POPC   C1B35143   9.603  20.794   8.564
 2618POPC   C2B35144   9.534  20.771   8.264
 2618POPC   C3B35145   9.520  20.786   7.964
 2618POPC   C4B35146   9.522  20.770   7.664
 2619POPC   NC335147   4.303  43.101   9.464
 2619POPC   PO435148   4.339  43.135   9.164
 2619POPC   GL135149   4.296  43.120   8.864
 2619POPC   GL235150   4.395  43.250   8.864
 2619POPC   C1A35151   4.299  43.135   8.564
 2619POPC   D2A35152   4.306  43.084   8.264
 2619POPC   C3A35153   4.330  43.139   7.964
 2619POPC   C4A35154   4.366  43.127   7.664
 2619POPC   C1B35155   4.455  43.373   8.564
 2619POPC   C2B35156   4.443  43.375   8.264
 2619POPC   C3B35157   4.462  43.308   7.964
 2619POPC   C4B35158   4.375  43.344   7.664
 2620POPC   NC335159  36.939  24.522   9.464
 2620POPC   PO435160  36.882  24.522   9.164
 2620POPC   GL135161  36.862  24.492   8.864
 2620POPC   GL235162  36.743  24.557   8.864
 2620POPC   C1A35163  36.879  24.444   8.564
 2620POPC   D2A35164  36.903  24.479   8.264
 2620POPC   C3A35165  36.866  24.513   7.964
 2620POPC   C4A35166  36.858  24.530   7.664
 2620POPC   C1B35167  36.652  24.513   8.564
 2620POPC   C2B35168  36.640  24.477   8.264
 2620POPC   C3B35169  36.625  24.514   7.964
 2620POPC   C4B35170  36.618  24.545   7.664
 2621POPC   NC335171  12.832   6.624   9.464
 2621POPC   PO435172  12.880   6.655   9.164
 2621POPC   GL135173  12.806   6.615   8.864
 2621POPC   GL235174  12.813   6.530   8.864
 2621POPC   C1A35175  12.816   6.646   8.564
 2621POPC   D2A35176  12.818   6.670   8.264
 2621POPC   C3A35177  12.889   6.610   7.964
 2621POPC   C4A35178  12.862   6.622   7.664
 2621POPC   C1B35179  12.773   6.371   8.564
 2621POPC   C2B35180  12.728   6.447   8.264
 2621POPC   C3B35181  12.727   6.369   7.964
 2621POPC   C4B35182  12.719   6.420   7.664
 2622POPC   NC335183  10.491  12.814   9.464
 2622POPC   PO435184  10.503  12.880   9.164
 2622POPC   GL135185  10.552  12.805   8.864
 2622POPC   GL235186  10.589  12.925   8.864
 2622POPC   C1A35187  10.572  12.850   8.564
 2622POPC   D2A35188  10.550  12.888   8.264
 2622POPC   C3A35189  10.488  12.839   7.964
 2622POPC   C4A35190  10.483  12.898   7.664
 2622POPC   C1B35191  10.662  13.048   8.564
 2622POPC   C2B35192  10.718  13.059   8.264
 2622POPC   C3B35193  10.651  12.990   7.964
 2622POPC   C4B35194  10.697  13.051   7.664
 2623POPC   NC335195  15.994   5.858   9.464
 2623POPC   PO435196  15.993   5.847   9.164
 2623POPC   GL135197  15.938   5.874   8.864
 2623POPC   GL235198  15.856   5.887   8.864
 2623POPC   C1A35199  15.943   5.889   8.564
 2623POPC   D2A35200  15.913   5.823   8.264
 2623POPC   C3A35201  15.959   5.905   7.964
 2623POPC   C4A35202  15.938   5.879   7.664
 2623POPC   C1B35203  15.663   5.858   8.564
 2623POPC   C2B35204  15.676   5.855   8.264
 2623POPC   C3B35205  15.677   5.875   7.964
 2623POPC   C4B35206  15.707   5.858   7.664
 2624POPC   NC335207  25.307  15.203   9.464
 2624POPC   PO435208  25.216  15.205   9.164
 2624POPC   GL135209  25.243  15.166   8.864
 2624POPC   GL235210  25.343  15.156   8.864
 2624POPC   C1A35211  25.261  15.204   8.564
 2624POPC   D2A35212  25.308  15.224   8.264
 2624POPC   C3A35213  25.273  15.183   7.964
 2624POPC   C4A35214  25.223  15.202   7.664
 2624POPC   C1B35215  25.498  15.167   8.564
 2624POPC   C2B35216  25.460  15.163   8.264
 2624POPC   C3B35217  25.473  15.073   7.964
 2624POPC   C4B35218  25.556  15.089   7.664
 2625POPC   NC335219  35.353  14.431   9.464
 2625POPC   PO435220  35.373  14.394   9.164
 2625POPC   GL135221  35.342  14.365   8.864
 2625POPC   GL235222  35.228  14.496   8.864
 2625POPC   C1A35223  35.304  14.450   8.564
 2625POPC   D2A35224  35.385  14.408   8.264
 2625POPC   C3A35225  35.365  14.423   7.964
 2625POPC   C4A35226  35.337  14.425   7.664
 2625POPC   C1B35227  35.123  14.613   8.564
 2625POPC   C2B35228  35.112  14.569   8.264
 2625POPC   C3B35229  35.118  14.560   7.964
 2625POPC   C4B35230  35.135  14.556   7.664
 2626POPC   NC335231   4.333  33.061   9.464
 2626POPC   PO435232   4.300  33.072   9.164
 2626POPC   GL135233   4.334  33.055   8.864
 2626POPC   GL235234   4.345  33.149   8.864
 2626POPC   C1A35235   4.330  33.074   8.564
 2626POPC   D2A35236   4.340  32.990   8.264
 2626POPC   C3A35237   4.355  33.070   7.964
 2626POPC   C4A35238   4.333  33.040   7.664
 2626POPC   C1B35239   4.384  33.236   8.564
 2626POPC   C2B35240   4.461  33.277   8.264
 2626POPC   C3B35241   4.386  33.244   7.964
 2626POPC   C4B35242   4.440  33.253   7.664
 2627POPC   NC335243  23.717   6.614   9.464
 2627POPC   PO435244  23.755   6.610   9.164
 2627POPC   GL135245  23.689   6.614   8.864
 2627POPC   GL235246  23.640   6.740   8.864
 2627POPC   C1A35247  23.691   6.670   8.564
 2627POPC   D2A35248  23.701   6.603   8.264
 2627POPC   C3A35249  23.761   6.668   7.964
 2627POPC   C4A35250  23.737   6.677   7.664
 2627POPC   C1B35251  23.543   6.863   8.564
 2627POPC   C2B35252  23.564   6.817   8.264
 2627POPC   C3B35253  23.568   6.785   7.964
 2627POPC   C4B35254  23.557   6.845   7.664
 2628POPC   NC335255  44.697  14.357   9.464
 2628POPC   PO435256  44.643  14.363   9.164
 2628POPC   GL135257  44.694  14.435   8.864
 2628POPC   GL235258  44.733  14.292   8.864
 2628POPC   C1A35259  44.635  14.364   8.564
 2628POPC   D2A35260  44.704  14.446   8.264
 2628POPC   C3A35261  44.651  14.406   7.964
 2628POPC   C4A35262  44.640  14.389   7.664
 2628POPC   C1B35263  44.749  14.179   8.564
 2628POPC   C2B35264  44.747  14.138   8.264
 2628POPC   C3B35265  44.728  14.213   7.964
 2628POPC   C4B35266  44.733  14.138   7.664
 2629POPC   NC335267  17.467  17.486   9.464
 2629POPC   PO435268  17.515  17.483   9.164
 2629POPC   GL135269  17.497  17.498   8.864
 2629POPC   GL235270  17.351  17.507   8.864
 2629POPC   C1A35271  17.512  17.536   8.564
 2629POPC   D2A35272  17.555  17.463   8.264
 2629POPC   C3A35273  17.475  17.477   7.964
 2629POPC   C4A35274  17.466  17.470   7.664
 2629POPC   C1B35275  17.283  17.436   8.564
 2629POPC   C2B35276  17.300  17.487   8.264
 2629POPC   C3B35277  17.280  17.483   7.964
 2629POPC   C4B35278  17.301  17.423   7.664
 2630POPC   NC335279   4.356  12.836   9.464
 2630POPC   PO435280   4.270  12.900   9.164
 2630POPC   GL135281   4.292  12.816   8.864
 2630POPC   GL235282   4.227  12.970   8.864
 2630POPC   C1A35283   4.313  12.838   8.564
 2630POPC   D2A35284   4.274  12.869   8.264
 2630POPC   C3A35285   4.343  12.835   7.964
 2630POPC   C4A35286   4.348  12.895   7.664
 2630POPC   C1B35287   4.160  13.098   8.564
 2630POPC   C2B35288   4.183  13.108   8.264
 2630POPC   C3B35289   4.170  13.051   7.964
 2630POPC   C4B35290   4.132  13.015   7.664
 2631POPC   NC335291  42.329   6.655   9.464
 2631POPC   PO435292  42.306   6.645   9.164
 2631POPC   GL135293  42.324   6.598   8.864
 2631POPC   GL235294  42.430   6.753   8.864
 2631POPC   C1A35295  42.309   6.665   8.564
 2631POPC   D2A35296  42.288   6.684   8.264
 2631POPC   C3A35297  42.307   6.648   7.964
 2631POPC   C4A35298  42.358   6.638   7.664
 2631POPC   C1B35299  42.435   6.855   8.564
 2631POPC   C2B35300  42.463   6.858   8.264
 2631POPC   C3B35301  42.414   6.868   7.964
 2631POPC   C4B35302  42.470   6.890   7.664
 2632POPC   NC335303  43.104  12.086   9.464
 2632POPC   PO435304  43.138  12.030   9.164
 2632POPC   GL135305  43.115  12.090   8.864
 2632POPC   GL235306  43.200  12.146   8.864
 2632POPC   C1A35307  43.130  12.091   8.564
 2632POPC   D2A35308  43.080  12.081   8.264
 2632POPC   C3A35309  43.115  12.118   7.964
 2632POPC   C4A35310  43.158  12.034   7.664
 2632POPC   C1B35311  43.306  12.193   8.564
 2632POPC   C2B35312  43.348  12.183   8.264
 2632POPC   C3B35313  43.344  12.155   7.964
 2632POPC   C4B35314  43.370  12.203   7.664
 2633POPC   NC335315   1.252   8.201   9.464
 2633POPC   PO435316   1.229   8.207   9.164
 2633POPC   GL135317   1.182   8.211   8.864
 2633POPC   GL235318   1.358   8.141   8.864
 2633POPC   C1A35319   1.263   8.227   8.564
 2633POPC   D2A35320   1.164   8.162   8.264
 2633POPC   C3A35321   1.245   8.232   7.964
 2633POPC   C4A35322   1.168   8.215   7.664
 2633POPC   C1B35323   1.448   8.053   8.564
 2633POPC   C2B35324   1.356   8.056   8.264
 2633POPC   C3B35325   1.373   8.056   7.964
 2633POPC   C4B35326   1.433   7.991   7.664
 2634POPC   NC335327  12.870  40.045   9.464
 2634POPC   PO435328  12.816  39.959   9.164
 2634POPC   GL135329  12.819  40.019   8.864
 2634POPC   GL235330  12.764  39.951   8.864
 2634POPC   C1A35331  12.815  39.994   8.564
 2634POPC   D2A35332  12.889  40.019   8.264
 2634POPC   C3A35333  12.851  40.044   7.964
 2634POPC   C4A35334  12.803  40.046   7.664
 2634POPC   C1B35335  12.613  39.932   8.564
 2634POPC   C2B35336  12.633  39.937   8.264
 2634POPC   C3B35337  12.560  39.963   7.964
 2634POPC   C4B35338  12.636  40.002   7.664
 2635POPC   NC335339  15.156  20.631   9.464
 2635POPC   PO435340  15.173  20.596   9.164
 2635POPC   GL135341  15.179  20.600   8.864
 2635POPC   GL235342  15.298  20.618   8.864
 2635POPC   C1A35343  15.160  20.595   8.564
 2635POPC   D2A35344  15.184  20.561   8.264
 2635POPC   C3A35345  15.203  20.604   7.964
 2635POPC   C4A35346  15.144  20.609   7.664
 2635POPC   C1B35347  15.434  20.585   8.564
 2635POPC   C2B35348  15.385  20.584   8.264
 2635POPC   C3B35349  15.451  20.633   7.964
 2635POPC   C4B35350  15.428  20.597   7.664
 2636POPC   NC335351  38.405  35.354   9.464
 2636POPC   PO435352  38.409  35.380   9.164
 2636POPC   GL135353  38.451  35.331   8.864
 2636POPC   GL235354  38.317  35.372   8.864
 2636POPC   C1A35355  38.432  35.379   8.564
 2636POPC   D2A35356  38.450  35.329   8.264
 2636POPC   C3A35357  38.407  35.374   7.964
 2636POPC   C4A35358  38.411  35.332   7.664
 2636POPC   C1B35359  38.196  35.324   8.564
 2636POPC   C2B35360  38.213  35.297   8.264
 2636POPC   C3B35361  38.233  35.310   7.964
 2636POPC   C4B35362  38.229  35.269   7.664
 2637POPC   NC335363  28.384  37.638   9.464
 2637POPC   PO435364  28.324  37.684   9.164
 2637POPC   GL135365  28.398  37.673   8.864
 2637POPC   GL235366  28.264  37.590   8.864
 2637POPC   C1A35367  28.415  37.707   8.564
 2637POPC   D2A35368  28.369  37.667   8.264
 2637POPC   C3A35369  28.390  37.667   7.964
 2637POPC   C4A35370  28.320  37.674   7.664
 2637POPC   C1B35371  28.227  37.495   8.564
 2637POPC   C2B35372  28.224  37.462   8.264
 2637POPC   C3B35373  28.247  37.451   7.964
 2637POPC   C4B35374  28.234  37.466   7.664
 2638POPC   NC335375  13.665  24.525   9.464
 2638POPC   PO435376  13.581  24.478   9.164
 2638POPC   GL135377  13.606  24.469   8.864
 2638POPC   GL235378  13.678  24.382   8.864
 2638POPC   C1A35379  13.580  24.445   8.564
 2638POPC   D2A35380  13.674  24.500   8.264
 2638POPC   C3A35381  13.650  24.533   7.964
 2638POPC   C4A35382  13.630  24.532   7.664
 2638POPC   C1B35383  13.677  24.250   8.564
 2638POPC   C2B35384  13.742  24.285   8.264
 2638POPC   C3B35385  13.757  24.216   7.964
 2638POPC   C4B35386  13.666  24.292   7.664
 2639POPC   NC335387  19.805   4.331   9.464
 2639POPC   PO435388  19.826   4.331   9.164
 2639POPC   GL135389  19.852   4.326   8.864
 2639POPC   GL235390  19.846   4.474   8.864
 2639POPC   C1A35391  19.797   4.335   8.564
 2639POPC   D2A35392  19.877   4.362   8.264
 2639POPC   C3A35393  19.790   4.349   7.964
 2639POPC   C4A35394  19.802   4.364   7.664
 2639POPC   C1B35395  19.927   4.504   8.564
 2639POPC   C2B35396  19.930   4.548   8.264
 2639POPC   C3B35397  19.909   4.500   7.964
 2639POPC   C4B35398  19.992   4.545   7.664
 2640POPC   NC335399  25.992   9.019   9.464
 2640POPC   PO435400  26.030   9.017   9.164
 2640POPC   GL135401  26.043   9.019   8.864
 2640POPC   GL235402  26.121   8.927   8.864
 2640POPC   C1A35403  26.032   8.951   8.564
 2640POPC   D2A35404  26.087   8.935   8.264
 2640POPC   C3A35405  26.007   9.010   7.964
 2640POPC   C4A35406  26.006   8.951   7.664
 2640POPC   C1B35407  26.227   8.905   8.564
 2640POPC   C2B35408  26.283   8.900   8.264
 2640POPC   C3B35409  26.287   8.901   7.964
 2640POPC   C4B35410  26.249   8.832   7.664
 2641POPC   NC335411   0.483  33.782   9.464
 2641POPC   PO435412   0.410  33.808   9.164
 2641POPC   GL135413   0.424  33.751   8.864
 2641POPC   GL235414   0.588  33.729   8.864
 2641POPC   C1A35415   0.473  33.808   8.564
 2641POPC   D2A35416   0.485  33.786   8.264
 2641POPC   C3A35417   0.389  33.815   7.964
 2641POPC   C4A35418   0.449  33.763   7.664
 2641POPC   C1B35419   0.640  33.721   8.564
 2641POPC   C2B35420   0.722  33.744   8.264
 2641POPC   C3B35421   0.728  33.757   7.964
 2641POPC   C4B35422   0.662  33.746   7.664
 2642POPC   NC335423   5.055  30.742   9.464
 2642POPC   PO435424   5.054  30.650   9.164
 2642POPC   GL135425   5.125  30.693   8.864
 2642POPC   GL235426   5.162  30.575   8.864
 2642POPC   C1A35427   5.112  30.714   8.564
 2642POPC   D2A35428   5.075  30.700   8.264
 2642POPC   C3A35429   5.065  30.704   7.964
 2642POPC   C4A35430   5.110  30.655   7.664
 2642POPC   C1B35431   5.225  30.480   8.564
 2642POPC   C2B35432   5.232  30.521   8.264
 2642POPC   C3B35433   5.269  30.449   7.964
 2642POPC   C4B35434   5.241  30.497   7.664
 2643POPC   NC335435  19.030  39.278   9.464
 2643POPC   PO435436  19.075  39.264   9.164
 2643POPC   GL135437  19.016  39.272   8.864
 2643POPC   GL235438  19.149  39.280   8.864
 2643POPC   C1A35439  19.077  39.197   8.564
 2643POPC   D2A35440  19.091  39.249   8.264
 2643POPC   C3A35441  19.079  39.214   7.964
 2643POPC   C4A35442  19.047  39.232   7.664
 2643POPC   C1B35443  19.271  39.199   8.564
 2643POPC   C2B35444  19.302  39.255   8.264
 2643POPC   C3B35445  19.271  39.214   7.964
 2643POPC   C4B35446  19.348  39.284   7.664
 2644POPC   NC335447   9.730  18.271   9.464
 2644POPC   PO435448   9.796  18.264   9.164
 2644POPC   GL135449   9.715  18.253   8.864
 2644POPC   GL235450   9.660  18.163   8.864
 2644POPC   C1A35451   9.735  18.292   8.564
 2644POPC   D2A35452   9.796  18.297   8.264
 2644POPC   C3A35453   9.749  18.276   7.964
 2644POPC   C4A35454   9.764  18.245   7.664
 2644POPC   C1B35455   9.615  18.069   8.564
 2644POPC   C2B35456   9.611  18.082   8.264
 2644POPC   C3B35457   9.536  18.140   7.964
 2644POPC   C4B35458   9.566  18.074   7.664
 2645POPC   NC335459   8.200   7.389   9.464
 2645POPC   PO435460   8.181   7.403   9.164
 2645POPC   GL135461   8.210   7.391   8.864
 2645POPC   GL235462   8.171   7.341   8.864
 2645POPC   C1A35463   8.241   7.396   8.564
 2645POPC   D2A35464   8.188   7.456   8.264
 2645POPC   C3A35465   8.181   7.459   7.964
 2645POPC   C4A35466   8.229   7.426   7.664
 2645POPC   C1B35467   8.137   7.191   8.564
 2645POPC   C2B35468   8.117   7.161   8.264
 2645POPC   C3B35469   8.140   7.127   7.964
 2645POPC   C4B35470   8.135   7.163   7.664
 2646POPC   NC335471   8.160  40.031   9.464
 2646POPC   PO435472   8.174  39.974   9.164
 2646POPC   GL135473   8.158  40.024   8.864
 2646POPC   GL235474   8.132  40.110   8.864
 2646POPC   C1A35475   8.223  40.016   8.564
 2646POPC   D2A35476   8.178  39.988   8.264
 2646POPC   C3A35477   8.189  40.000   7.964
 2646POPC   C4A35478   8.181  39.973   7.664
 2646POPC   C1B35479   7.993  40.214   8.564
 2646POPC   C2B35480   8.058  40.133   8.264
 2646POPC   C3B35481   7.991  40.179   7.964
 2646POPC   C4B35482   8.000  40.217   7.664
 2647POPC   NC335483  33.838  36.913   9.464
 2647POPC   PO435484  33.831  36.952   9.164
 2647POPC   GL135485  33.826  36.873   8.864
 2647POPC   GL235486  33.960  36.881   8.864
 2647POPC   C1A35487  33.818  36.890   8.564
 2647POPC   D2A35488  33.845  36.894   8.264
 2647POPC   C3A35489  33.826  36.915   7.964
 2647POPC   C4A35490  33.839  36.908   7.664
 2647POPC   C1B35491  33.988  36.778   8.564
 2647POPC   C2B35492  34.035  36.835   8.264
 2647POPC   C3B35493  34.066  36.789   7.964
 2647POPC   C4B35494  33.997  36.835   7.664
 2648POPC   NC335495  10.509  40.807   9.464
 2648POPC   PO435496  10.548  40.823   9.164
 2648POPC   GL135497  10.482  40.801   8.864
 2648POPC   GL235498  10.650  40.669   8.864
 2648POPC   C1A35499  10.536  40.775   8.564
 2648POPC   D2A35500  10.537  40.829   8.264
 2648POPC   C3A35501  10.487  40.736   7.964
 2648POPC   C4A35502  10.477  40.792   7.664
 2648POPC   C1B35503  10.688  40.585   8.564
 2648POPC   C2B35504  10.722  40.580   8.264
 2648POPC   C3B35505  10.641  40.620   7.964
 2648POPC   C4B35506  10.713  40.551   7.664
 2649POPC   NC335507   4.341  22.987   9.464
 2649POPC   PO435508   4.325  22.904   9.164
 2649POPC   GL135509   4.270  22.931   8.864
 2649POPC   GL235510   4.368  22.852   8.864
 2649POPC   C1A35511   4.272  22.976   8.564
 2649POPC   D2A35512   4.299  22.922   8.264
 2649POPC   C3A35513   4.347  22.965   7.964
 2649POPC   C4A35514   4.275  22.948   7.664
 2649POPC   C1B35515   4.405  22.682   8.564
 2649POPC   C2B35516   4.402  22.681   8.264
 2649POPC   C3B35517   4.418  22.709   7.964
 2649POPC   C4B35518   4.403  22.740   7.664
 2650POPC   NC335519  44.613  43.887   9.464
 2650POPC   PO435520  44.681  43.872   9.164
 2650POPC   GL135521  44.630  43.893   8.864
 2650POPC   GL235522  44.827  43.956   8.864
 2650POPC   C1A35523  44.620  43.878   8.564
 2650POPC   D2A35524  44.684  43.866   8.264
 2650POPC   C3A35525  44.711  43.918   7.964
 2650POPC   C4A35526  44.666  43.865   7.664
 2650POPC   C1B35527  44.940  43.893   8.564
 2650POPC   C2B35528  44.943  43.925   8.264
 2650POPC   C3B35529  44.859  43.928   7.964
 2650POPC   C4B35530  44.882  43.984   7.664
 2651POPC   NC335531   8.174  18.330   9.464
 2651POPC   PO435532   8.152  18.265   9.164
 2651POPC   GL135533   8.167  18.262   8.864
 2651POPC   GL235534   8.095  18.387   8.864
 2651POPC   C1A35535   8.200  18.249   8.564
 2651POPC   D2A35536   8.239  18.317   8.264
 2651POPC   C3A35537   8.241  18.267   7.964
 2651POPC   C4A35538   8.152  18.282   7.664
 2651POPC   C1B35539   8.032  18.513   8.564
 2651POPC   C2B35540   8.086  18.494   8.264
 2651POPC   C3B35541   8.080  18.429   7.964
 2651POPC   C4B35542   8.053  18.434   7.664
 2652POPC   NC335543   5.121  36.894   9.464
 2652POPC   PO435544   5.128  36.948   9.164
 2652POPC   GL135545   5.137  36.953   8.864
 2652POPC   GL235546   5.066  36.792   8.864
 2652POPC   C1A35547   5.058  36.888   8.564
 2652POPC   D2A35548   5.130  36.953   8.264
 2652POPC   C3A35549   5.075  36.898   7.964
 2652POPC   C4A35550   5.061  36.865   7.664
 2652POPC   C1B35551   5.075  36.649   8.564
 2652POPC   C2B35552   5.045  36.662   8.264
 2652POPC   C3B35553   5.000  36.684   7.964
 2652POPC   C4B35554   5.045  36.694   7.664
 2653POPC   NC335555   1.981  36.146   9.464
 2653POPC   PO435556   2.014  36.142   9.164
 2653POPC   GL135557   1.975  36.160   8.864
 2653POPC   GL235558   2.014  36.028   8.864
 2653POPC   C1A35559   1.975  36.168   8.564
 2653POPC   D2A35560   1.948  36.135   8.264
 2653POPC   C3A35561   2.010  36.171   7.964
 2653POPC   C4A35562   1.962  36.118   7.664
 2653POPC   C1B35563   2.118  35.890   8.564
 2653POPC   C2B35564   2.077  35.927   8.264
 2653POPC   C3B35565   2.139  35.858   7.964
 2653POPC   C4B35566   2.114  35.943   7.664
 2654POPC   NC335567  19.872  41.551   9.464
 2654POPC   PO435568  19.829  41.608   9.164
 2654POPC   GL135569  19.796  41.584   8.864
 2654POPC   GL235570  19.826  41.473   8.864
 2654POPC   C1A35571  19.858  41.609   8.564
 2654POPC   D2A35572  19.858  41.561   8.264
 2654POPC   C3A35573  19.810  41.551   7.964
 2654POPC   C4A35574  19.789  41.573   7.664
 2654POPC   C1B35575  19.867  41.344   8.564
 2654POPC   C2B35576  19.923  41.312   8.264
 2654POPC   C3B35577  19.858  41.360   7.964
 2654POPC   C4B35578  19.865  41.313   7.664
 2655POPC   NC335579  38.495  23.671   9.464
 2655POPC   PO435580  38.471  23.684   9.164
 2655POPC   GL135581  38.440  23.673   8.864
 2655POPC   GL235582  38.387  23.752   8.864
 2655POPC   C1A35583  38.447  23.710   8.564
 2655POPC   D2A35584  38.437  23.675   8.264
 2655POPC   C3A35585  38.457  23.693   7.964
 2655POPC   C4A35586  38.441  23.724   7.664
 2655POPC   C1B35587  38.291  23.906   8.564
 2655POPC   C2B35588  38.320  23.864   8.264
 2655POPC   C3B35589  38.270  23.935   7.964
 2655POPC   C4B35590  38.321  23.928   7.664
 2656POPC   NC335591  44.653  29.126   9.464
 2656POPC   PO435592  44.696  29.178   9.164
 2656POPC   GL135593  44.639  29.161   8.864
 2656POPC   GL235594  44.666  28.977   8.864
 2656POPC   C1A35595  44.691  29.144   8.564
 2656POPC   D2A35596  44.643  29.103   8.264
 2656POPC   C3A35597  44.635  29.136   7.964
 2656POPC   C4A35598  44.616  29.142   7.664
 2656POPC   C1B35599  44.648  28.935   8.564
 2656POPC   C2B35600  44.721  28.864   8.264
 2656POPC   C3B35601  44.660  28.881   7.964
 2656POPC   C4B35602  44.690  28.884   7.664
 2657POPC   NC335603  31.521  35.386   9.464
 2657POPC   PO435604  31.502  35.370   9.164
 2657POPC   GL135605  31.494  35.355   8.864
 2657POPC   GL235606  31.321  35.465   8.864
 2657POPC   C1A35607  31.456  35.388   8.564
 2657POPC   D2A35608  31.499  35.371   8.264
 2657POPC   C3A35609  31.453  35.385   7.964
 2657POPC   C4A35610  31.438  35.306   7.664
 2657POPC   C1B35611  31.254  35.461   8.564
 2657POPC   C2B35612  31.243  35.499   8.264
 2657POPC   C3B35613  31.261  35.513   7.964
 2657POPC   C4B35614  31.294  35.453   7.664
 2658POPC   NC335615   8.236  40.800   9.464
 2658POPC   PO435616   8.213  40.759   9.164
 2658POPC   GL135617   8.164  40.830   8.864
 2658POPC   GL235618   8.302  40.787   8.864
 2658POPC   C1A35619   8.182  40.797   8.564
 2658POPC   D2A35620   8.175  40.824   8.264
 2658POPC   C3A35621   8.147  40.809   7.964
 2658POPC   C4A35622   8.149  40.806   7.664
 2658POPC   C1B35623   8.429  40.872   8.564
 2658POPC   C2B35624   8.438  40.911   8.264
 2658POPC   C3B35625   8.444  40.867   7.964
 2658POPC   C4B35626   8.386  40.859   7.664
 2659POPC   NC335627   3.553   1.178   9.464
 2659POPC   PO435628   3.547   1.194   9.164
 2659POPC   GL135629   3.532   1.237   8.864
 2659POPC   GL235630   3.642   1.070   8.864
 2659POPC   C1A35631   3.510   1.231   8.564
 2659POPC   D2A35632   3.551   1.190   8.264
 2659POPC   C3A35633   3.562   1.237   7.964
 2659POPC   C4A35634   3.493   1.166   7.664
 2659POPC   C1B35635   3.693   0.955   8.564
 2659POPC   C2B35636   3.718   1.048   8.264
 2659POPC   C3B35637   3.699   0.965   7.964
 2659POPC   C4B35638   3.716   0.999   7.664
 2660POPC   NC335639  15.988  19.865   9.464
 2660POPC   PO435640  15.910  19.883   9.164
 2660POPC   GL135641  16.004  19.836   8.864
 2660POPC   GL235642  16.073  19.819   8.864
 2660POPC   C1A35643  15.908  19.813   8.564
 2660POPC   D2A35644  15.969  19.827   8.264
 2660POPC   C3A35645  15.931  19.816   7.964
 2660POPC   C4A35646  15.911  19.786   7.664
 2660POPC   C1B35647  16.230  19.779   8.564
 2660POPC   C2B35648  16.155  19.834   8.264
 2660POPC   C3B35649  16.169  19.791   7.964
 2660POPC   C4B35650  16.244  19.795   7.664
 2661POPC   NC335651  31.497  11.278   9.464
 2661POPC   PO435652  31.476  11.294   9.164
 2661POPC   GL135653  31.506  11.289   8.864
 2661POPC   GL235654  31.333  11.406   8.864
 2661POPC   C1A35655  31.474  11.274   8.564
 2661POPC   D2A35656  31.483  11.314   8.264
 2661POPC   C3A35657  31.474  11.333   7.964
 2661POPC   C4A35658  31.458  11.280   7.664
 2661POPC   C1B35659  31.283  11.450   8.564
 2661POPC   C2B35660  31.297  11.461   8.264
 2661POPC   C3B35661  31.333  11.454   7.964
 2661POPC   C4B35662  31.302  11.447   7.664
 2662POPC   NC335663   9.711  17.540   9.464
 2662POPC   PO435664   9.713  17.549   9.164
 2662POPC   GL135665   9.755  17.469   8.864
 2662POPC   GL235666   9.645  17.611   8.864
 2662POPC   C1A35667   9.710  17.544   8.564
 2662POPC   D2A35668   9.790  17.461   8.264
 2662POPC   C3A35669   9.700  17.528   7.964
 2662POPC   C4A35670   9.758  17.494   7.664
 2662POPC   C1B35671   9.651  17.683   8.564
 2662POPC   C2B35672   9.575  17.694   8.264
 2662POPC   C3B35673   9.614  17.770   7.964
 2662POPC   C4B35674   9.626  17.758   7.664
 2663POPC   NC335675  35.336  22.967   9.464
 2663POPC   PO435676  35.367  22.939   9.164
 2663POPC   GL135677  35.354  22.961   8.864
 2663POPC   GL235678  35.331  23.075   8.864
 2663POPC   C1A35679  35.361  22.927   8.564
 2663POPC   D2A35680  35.375  22.986   8.264
 2663POPC   C3A35681  35.387  22.959   7.964
 2663POPC   C4A35682  35.357  22.960   7.664
 2663POPC   C1B35683  35.345  23.177   8.564
 2663POPC   C2B35684  35.326  23.175   8.264
 2663POPC   C3B35685  35.330  23.197   7.964
 2663POPC   C4B35686  35.327  23.186   7.664
 2664POPC   NC335687  25.242  34.610   9.464
 2664POPC   PO435688  25.274  34.570   9.164
 2664POPC   GL135689  25.255  34.605   8.864
 2664POPC   GL235690  25.349  34.609   8.864
 2664POPC   C1A35691  25.235  34.561   8.564
 2664POPC   D2A35692  25.306  34.531   8.264
 2664POPC   C3A35693  25.307  34.601   7.964
 2664POPC   C4A35694  25.225  34.574   7.664
 2664POPC   C1B35695  25.508  34.620   8.564
 2664POPC   C2B35696  25.550  34.553   8.264
 2664POPC   C3B35697  25.550  34.605   7.964
 2664POPC   C4B35698  25.486  34.616   7.664
 2665POPC   NC335699  43.910  17.527   9.464
 2665POPC   PO435700  43.872  17.472   9.164
 2665POPC   GL135701  43.935  17.538   8.864
 2665POPC   GL235702  43.895  17.657   8.864
 2665POPC   C1A35703  43.895  17.470   8.564
 2665POPC   D2A35704  43.853  17.533   8.264
 2665POPC   C3A35705  43.920  17.539   7.964
 2665POPC   C4A35706  43.863  17.528   7.664
 2665POPC   C1B35707  43.946  17.704   8.564
 2665POPC   C2B35708  43.976  17.783   8.264
 2665POPC   C3B35709  43.943  17.783   7.964
 2665POPC   C4B35710  43.981  17.694   7.664
 2666POPC   NC335711  31.508  12.118   9.464
 2666POPC   PO435712  31.494  12.070   9.164
 2666POPC   GL135713  31.434  12.120   8.864
 2666POPC   GL235714  31.378  12.200   8.864
 2666POPC   C1A35715  31.428  12.071   8.564
 2666POPC   D2A35716  31.458  12.124   8.264
 2666POPC   C3A35717  31.432  12.115   7.964
 2666POPC   C4A35718  31.476  12.035   7.664
 2666POPC   C1B35719  31.295  12.302   8.564
 2666POPC   C2B35720  31.300  12.217   8.264
 2666POPC   C3B35721  31.274  12.304   7.964
 2666POPC   C4B35722  31.344  12.240   7.664
 2667POPC   NC335723   9.010  15.919   9.464
 2667POPC   PO435724   8.930  15.907   9.164
 2667POPC   GL135725   9.003  15.908   8.864
 2667POPC   GL235726   9.015  15.830   8.864
 2667POPC   C1A35727   8.951  15.996   8.564
 2667POPC   D2A35728   8.932  16.001   8.264
 2667POPC   C3A35729   9.000  15.982   7.964
 2667POPC   C4A35730   8.928  15.948   7.664
 2667POPC   C1B35731   9.133  15.736   8.564
 2667POPC   C2B35732   9.152  15.794   8.264
 2667POPC   C3B35733   9.092  15.800   7.964
 2667POPC   C4B35734   9.152  15.751   7.664
 2668POPC   NC335735  13.635  19.819   9.464
 2668POPC   PO435736  13.651  19.868   9.164
 2668POPC   GL135737  13.621  19.811   8.864
 2668POPC   GL235738  13.523  19.917   8.864
 2668POPC   C1A35739  13.644  19.821   8.564
 2668POPC   D2A35740  13.677  19.826   8.264
 2668POPC   C3A35741  13.675  19.828   7.964
 2668POPC   C4A35742  13.671  19.843   7.664
 2668POPC   C1B35743  13.529  20.055   8.564
 2668POPC   C2B35744  13.467  20.057   8.264
 2668POPC   C3B35745  13.508  20.001   7.964
 2668POPC   C4B35746  13.455  20.054   7.664
 2669POPC   NC335747   2.004  15.188   9.464
 2669POPC   PO435748   1.961  15.210   9.164
 2669POPC   GL135749   2.028  15.195   8.864
 2669POPC   GL235750   2.073  15.206   8.864
 2669POPC   C1A35751   2.014  15.198   8.564
 2669POPC   D2A35752   1.956  15.155   8.264
 2669POPC   C3A35753   2.037  15.209   7.964
 2669POPC   C4A35754   2.013  15.153   7.664
 2669POPC   C1B35755   2.216  15.336   8.564
 2669POPC   C2B35756   2.230  15.302   8.264
 2669POPC   C3B35757   2.172  15.338   7.964
 2669POPC   C4B35758   2.224  15.280   7.664
 2670POPC   NC335759  39.245  43.082   9.464
 2670POPC   PO435760  39.240  43.154   9.164
 2670POPC   GL135761  39.267  43.142   8.864
 2670POPC   GL235762  39.158  43.193   8.864
 2670POPC   C1A35763  39.200  43.139   8.564
 2670POPC   D2A35764  39.248  43.092   8.264
 2670POPC   C3A35765  39.199  43.068   7.964
 2670POPC   C4A35766  39.240  43.067   7.664
 2670POPC   C1B35767  39.084  43.336   8.564
 2670POPC   C2B35768  39.050  43.278   8.264
 2670POPC   C3B35769  39.061  43.324   7.964
 2670POPC   C4B35770  39.079  43.351   7.664
 2671POPC   NC335771  23.757  17.494   9.464
 2671POPC   PO435772  23.722  17.508   9.164
 2671POPC   GL135773  23.706  17.492   8.864
 2671POPC   GL235774  23.734  17.390   8.864
 2671POPC   C1A35775  23.757  17.480   8.564
 2671POPC   D2A35776  23.756  17.466   8.264
 2671POPC   C3A35777  23.709  17.475   7.964
 2671POPC   C4A35778  23.763  17.464   7.664
 2671POPC   C1B35779  23.746  17.290   8.564
 2671POPC   C2B35780  23.790  17.290   8.264
 2671POPC   C3B35781  23.786  17.249   7.964
 2671POPC   C4B35782  23.756  17.302   7.664
 2672POPC   NC335783  33.760  43.903   9.464
 2672POPC   PO435784  33.832  43.888   9.164
 2672POPC   GL135785  33.788  43.935   8.864
 2672POPC   GL235786  33.704  43.964   8.864
 2672POPC   C1A35787  33.837  43.879   8.564
 2672POPC   D2A35788  33.837  43.900   8.264
 2672POPC   C3A35789  33.773  43.933   7.964
 2672POPC   C4A35790  33.848  43.932   7.664
 2672POPC   C1B35791  33.583  43.991   8.564
 2672POPC   C2B35792  33.515  43.991   8.264
 2672POPC   C3B35793  33.558  43.954   7.964
 2672POPC   C4B35794  33.508  43.893   7.664
 2673POPC   NC335795   7.375  16.727   9.464
 2673POPC   PO435796   7.439  16.754   9.164
 2673POPC   GL135797   7.427  16.734   8.864
 2673POPC   GL235798   7.347  16.603   8.864
 2673POPC   C1A35799   7.382  16.725   8.564
 2673POPC   D2A35800   7.384  16.737   8.264
 2673POPC   C3A35801   7.459  16.730   7.964
 2673POPC   C4A35802   7.376  16.686   7.664
 2673POPC   C1B35803   7.308  16.492   8.564
 2673POPC   C2B35804   7.262  16.521   8.264
 2673POPC   C3B35805   7.302  16.507   7.964
 2673POPC   C4B35806   7.267  16.535   7.664
 2674POPC   NC335807  36.867  38.436   9.464
 2674POPC   PO435808  36.893  38.478   9.164
 2674POPC   GL135809  36.932  38.471   8.864
 2674POPC   GL235810  37.054  38.476   8.864
 2674POPC   C1A35811  36.917  38.427   8.564
 2674POPC   D2A35812  36.858  38.428   8.264
 2674POPC   C3A35813  36.864  38.451   7.964
 2674POPC   C4A35814  36.948  38.504   7.664
 2674POPC   C1B35815  37.186  38.448   8.564
 2674POPC   C2B35816  37.180  38.445   8.264
 2674POPC   C3B35817  37.136  38.510   7.964
 2674POPC   C4B35818  37.187  38.502   7.664
 2675POPC   NC335819  40.807  26.090   9.464
 2675POPC   PO435820  40.811  26.006   9.164
 2675POPC   GL135821  40.753  26.071   8.864
 2675POPC   GL235822  40.693  26.149   8.864
 2675POPC   C1A35823  40.763  26.043   8.564
 2675POPC   D2A35824  40.760  26.076   8.264
 2675POPC   C3A35825  40.790  26.085   7.964
 2675POPC   C4A35826  40.767  26.021   7.664
 2675POPC   C1B35827  40.589  26.161   8.564
 2675POPC   C2B35828  40.551  26.168   8.264
 2675POPC   C3B35829  40.607  26.149   7.964
 2675POPC   C4B35830  40.605  26.154   7.664
 2676POPC   NC335831  17.542  15.991   9.464
 2676POPC   PO435832  17.483  15.942   9.164
 2676POPC   GL135833  17.490  15.974   8.864
 2676POPC   GL235834  17.583  15.847   8.864
 2676POPC   C1A35835  17.476  15.920   8.564
 2676POPC   D2A35836  17.538  15.912   8.264
 2676POPC   C3A35837  17.484  15.942   7.964
 2676POPC   C4A35838  17.505  15.932   7.664
 2676POPC   C1B35839  17.630  15.709   8.564
 2676POPC   C2B35840  17.641  15.731   8.264
 2676POPC   C3B35841  17.640  15.685   7.964
 2676POPC   C4B35842  17.578  15.765   7.664
 2677POPC   NC335843   5.107  21.422   9.464
 2677POPC   PO435844   5.110  21.344   9.164
 2677POPC   GL135845   5.064  21.358   8.864
 2677POPC   GL235846   5.136  21.494   8.864
 2677POPC   C1A35847   5.054  21.342   8.564
 2677POPC   D2A35848   5.123  21.414   8.264
 2677POPC   C3A35849   5.093  21.362   7.964
 2677POPC   C4A35850   5.062  21.394   7.664
 2677POPC   C1B35851   5.186  21.553   8.564
 2677POPC   C2B35852   5.243  21.551   8.264
 2677POPC   C3B35853   5.234  21.617   7.964
 2677POPC   C4B35854   5.180  21.623   7.664
 2678POPC   NC335855  38.468  22.974   9.464
 2678POPC   PO435856  38.499  22.969   9.164
 2678POPC   GL135857  38.407  22.952   8.864
 2678POPC   GL235858  38.484  22.831   8.864
 2678POPC   C1A35859  38.465  22.940   8.564
 2678POPC   D2A35860  38.457  22.906   8.264
 2678POPC   C3A35861  38.488  22.940   7.964
 2678POPC   C4A35862  38.435  22.892   7.664
 2678POPC   C1B35863  38.543  22.755   8.564
 2678POPC   C2B35864  38.601  22.764   8.264
 2678POPC   C3B35865  38.601  22.709   7.964
 2678POPC   C4B35866  38.545  22.727   7.664
 2679POPC   NC335867  10.505   5.871   9.464
 2679POPC   PO435868  10.502   5.823   9.164
 2679POPC   GL135869  10.492   5.829   8.864
 2679POPC   GL235870  10.529   5.733   8.864
 2679POPC   C1A35871  10.476   5.846   8.564
 2679POPC   D2A35872  10.553   5.886   8.264
 2679POPC   C3A35873  10.504   5.900   7.964
 2679POPC   C4A35874  10.514   5.909   7.664
 2679POPC   C1B35875  10.553   5.599   8.564
 2679POPC   C2B35876  10.637   5.629   8.264
 2679POPC   C3B35877  10.539   5.592   7.964
 2679POPC   C4B35878  10.588   5.611   7.664
 2680POPC   NC335879  32.257   5.110   9.464
 2680POPC   PO435880  32.269   5.107   9.164
 2680POPC   GL135881  32.263   5.097   8.864
 2680POPC   GL235882  32.171   5.118   8.864
 2680POPC   C1A35883  32.203   5.061   8.564
 2680POPC   D2A35884  32.244   5.080   8.264
 2680POPC   C3A35885  32.259   5.072   7.964
 2680POPC   C4A35886  32.245   5.058   7.664
 2680POPC   C1B35887  31.994   5.150   8.564
 2680POPC   C2B35888  32.058   5.163   8.264
 2680POPC   C3B35889  31.999   5.213   7.964
 2680POPC   C4B35890  32.025   5.226   7.664
 2681POPC   NC335891  44.649   0.422   9.464
 2681POPC   PO435892  44.694   0.407   9.164
 2681POPC   GL135893  44.670   0.456   8.864
 2681POPC   GL235894  44.506   0.486   8.864
 2681POPC   C1A35895  44.701   0.483   8.564
 2681POPC   D2A35896  44.678   0.414   8.264
 2681POPC   C3A35897  44.623   0.460   7.964
 2681POPC   C4A35898  44.624   0.438   7.664
 2681POPC   C1B35899  44.475   0.587   8.564
 2681POPC   C2B35900  44.455   0.516   8.264
 2681POPC   C3B35901  44.435   0.545   7.964
 2681POPC   C4B35902  44.425   0.514   7.664
 2682POPC   NC335903  44.699  15.172   9.464
 2682POPC   PO435904  44.693  15.205   9.164
 2682POPC   GL135905  44.628  15.146   8.864
 2682POPC   GL235906  44.579  15.225   8.864
 2682POPC   C1A35907  44.649  15.175   8.564
 2682POPC   D2A35908  44.654  15.130   8.264
 2682POPC   C3A35909  44.635  15.199   7.964
 2682POPC   C4A35910  44.656  15.158   7.664
 2682POPC   C1B35911  44.501  15.365   8.564
 2682POPC   C2B35912  44.489  15.352   8.264
 2682POPC   C3B35913  44.435  15.402   7.964
 2682POPC   C4B35914  44.504  15.353   7.664
 2683POPC   NC335915  32.270   2.775   9.464
 2683POPC   PO435916  32.243   2.723   9.164
 2683POPC   GL135917  32.233   2.813   8.864
 2683POPC   GL235918  32.376   2.877   8.864
 2683POPC   C1A35919  32.286   2.777   8.564
 2683POPC   D2A35920  32.251   2.765   8.264
 2683POPC   C3A35921  32.244   2.811   7.964
 2683POPC   C4A35922  32.246   2.733   7.664
 2683POPC   C1B35923  32.406   2.930   8.564
 2683POPC   C2B35924  32.480   2.881   8.264
 2683POPC   C3B35925  32.479   2.910   7.964
 2683POPC   C4B35926  32.456   2.943   7.664
 2684POPC   NC335927  37.682  40.739   9.464
 2684POPC   PO435928  37.666  40.799   9.164
 2684POPC   GL135929  37.680  40.830   8.864
 2684POPC   GL235930  37.740  40.658   8.864
 2684POPC   C1A35931  37.708  40.789   8.564
 2684POPC   D2A35932  37.668  40.823   8.264
 2684POPC   C3A35933  37.664  40.792   7.964
 2684POPC   C4A35934  37.633  40.774   7.664
 2684POPC   C1B35935  37.808  40.558   8.564
 2684POPC   C2B35936  37.817  40.574   8.264
 2684POPC   C3B35937  37.802  40.617   7.964
 2684POPC   C4B35938  37.819  40.549   7.664
 2685POPC   NC335939  21.404   8.212   9.464
 2685POPC   PO435940  21.421   8.172   9.164
 2685POPC   GL135941  21.388   8.173   8.864
 2685POPC   GL235942  21.517   8.097   8.864
 2685POPC   C1A35943  21.366   8.230   8.564
 2685POPC   D2A35944  21.428   8.170   8.264
 2685POPC   C3A35945  21.414   8.155   7.964
 2685POPC   C4A35946  21.424   8.156   7.664
 2685POPC   C1B35947  21.567   8.017   8.564
 2685POPC   C2B35948  21.540   7.993   8.264
 2685POPC   C3B35949  21.543   8.056   7.964
 2685POPC   C4B35950  21.592   7.992   7.664
 2686POPC   NC335951   1.239  28.419   9.464
 2686POPC   PO435952   1.219  28.398   9.164
 2686POPC   GL135953   1.181  28.410   8.864
 2686POPC   GL235954   1.132  28.369   8.864
 2686POPC   C1A35955   1.185  28.359   8.564
 2686POPC   D2A35956   1.256  28.413   8.264
 2686POPC   C3A35957   1.241  28.319   7.964
 2686POPC   C4A35958   1.244  28.370   7.664
 2686POPC   C1B35959   0.955  28.431   8.564
 2686POPC   C2B35960   0.948  28.384   8.264
 2686POPC   C3B35961   0.996  28.409   7.964
 2686POPC   C4B35962   0.981  28.450   7.664
 2687POPC   NC335963  34.536   7.453   9.464
 2687POPC   PO435964  34.622   7.395   9.164
 2687POPC   GL135965  34.604   7.450   8.864
 2687POPC   GL235966  34.628   7.563   8.864
 2687POPC   C1A35967  34.604   7.413   8.564
 2687POPC   D2A35968  34.551   7.392   8.264
 2687POPC   C3A35969  34.611   7.469   7.964
 2687POPC   C4A35970  34.540   7.464   7.664
 2687POPC   C1B35971  34.690   7.569   8.564
 2687POPC   C2B35972  34.703   7.664   8.264
 2687POPC   C3B35973  34.740   7.636   7.964
 2687POPC   C4B35974  34.706   7.609   7.664
 2688POPC   NC335975   5.904   5.913   9.464
 2688POPC   PO435976   5.833   5.855   9.164
 2688POPC   GL135977   5.892   5.872   8.864
 2688POPC   GL235978   5.755   5.798   8.864
 2688POPC   C1A35979   5.841   5.864   8.564
 2688POPC   D2A35980   5.835   5.830   8.264
 2688POPC   C3A35981   5.912   5.846   7.964
 2688POPC   C4A35982   5.873   5.854   7.664
 2688POPC   C1B35983   5.647   5.793   8.564
 2688POPC   C2B35984   5.663   5.798   8.264
 2688POPC   C3B35985   5.609   5.818   7.964
 2688POPC   C4B35986   5.659   5.742   7.664
 2689POPC   NC335987  33.058   4.351   9.464
 2689POPC   PO435988  32.982   4.272   9.164
 2689POPC   GL135989  33.024   4.285   8.864
 2689POPC   GL235990  32.909   4.317   8.864
 2689POPC   C1A35991  33.059   4.293   8.564
 2689POPC   D2A35992  33.065   4.330   8.264
 2689POPC   C3A35993  33.045   4.298   7.964
 2689POPC   C4A35994  33.036   4.323   7.664
 2689POPC   C1B35995  32.798   4.335   8.564
 2689POPC   C2B35996  32.809   4.380   8.264
 2689POPC   C3B35997  32.780   4.355   7.964
 2689POPC   C4B35998  32.814   4.302   7.664
 2690POPC   NC335999   7.412  36.095   9.464
 2690POPC   PO436000   7.463  36.101   9.164
 2690POPC   GL136001   7.382  36.164   8.864
 2690POPC   GL236002   7.468  36.236   8.864
 2690POPC   C1A36003   7.439  36.124   8.564
 2690POPC   D2A36004   7.453  36.106   8.264
 2690POPC   C3A36005   7.414  36.164   7.964
 2690POPC   C4A36006   7.420  36.132   7.664
 2690POPC   C1B36007   7.493  36.370   8.564
 2690POPC   C2B36008   7.515  36.388   8.264
 2690POPC   C3B36009   7.506  36.333   7.964
 2690POPC   C4B36010   7.516  36.359   7.664
 2691POPC   NC336011  30.729  25.233   9.464
 2691POPC   PO436012  30.739  25.315   9.164
 2691POPC   GL136013  30.736  25.254   8.864
 2691POPC   GL236014  30.672  25.114   8.864
 2691POPC   C1A36015  30.729  25.247   8.564
 2691POPC   D2A36016  30.715  25.261   8.264
 2691POPC   C3A36017  30.711  25.310   7.964
 2691POPC   C4A36018  30.716  25.224   7.664
 2691POPC   C1B36019  30.572  25.034   8.564
 2691POPC   C2B36020  30.605  25.065   8.264
 2691POPC   C3B36021  30.579  25.070   7.964
 2691POPC   C4B36022  30.516  25.069   7.664
 2692POPC   NC336023  35.375  16.732   9.464
 2692POPC   PO436024  35.332  16.721   9.164
 2692POPC   GL136025  35.363  16.697   8.864
 2692POPC   GL236026  35.357  16.605   8.864
 2692POPC   C1A36027  35.341  16.707   8.564
 2692POPC   D2A36028  35.303  16.736   8.264
 2692POPC   C3A36029  35.336  16.696   7.964
 2692POPC   C4A36030  35.337  16.725   7.664
 2692POPC   C1B36031  35.473  16.477   8.564
 2692POPC   C2B36032  35.444  16.497   8.264
 2692POPC   C3B36033  35.402  16.459   7.964
 2692POPC   C4B36034  35.456  16.457   7.664
 2693POPC   NC336035   1.263  19.883   9.464
 2693POPC   PO436036   1.249  19.786   9.164
 2693POPC   GL136037   1.230  19.806   8.864
 2693POPC   GL236038   1.078  19.804   8.864
 2693POPC   C1A36039   1.222  19.824   8.564
 2693POPC   D2A36040   1.204  19.793   8.264
 2693POPC   C3A36041   1.254  19.844   7.964
 2693POPC   C4A36042   1.188  19.869   7.664
 2693POPC   C1B36043   0.987  19.720   8.564
 2693POPC   C2B36044   1.027  19.739   8.264
 2693POPC   C3B36045   0.950  19.748   7.964
 2693POPC   C4B36046   0.979  19.752   7.664
 2694POPC   NC336047  30.705  14.411   9.464
 2694POPC   PO436048  30.704  14.435   9.164
 2694POPC   GL136049  30.727  14.447   8.864
 2694POPC   GL236050  30.723  14.310   8.864
 2694POPC   C1A36051  30.743  14.440   8.564
 2694POPC   D2A36052  30.656  14.362   8.264
 2694POPC   C3A36053  30.676  14.355   7.964
 2694POPC   C4A36054  30.743  14.426   7.664
 2694POPC   C1B36055  30.832  14.141   8.564
 2694POPC   C2B36056  30.792  14.220   8.264
 2694POPC   C3B36057  30.789  14.203   7.964
 2694POPC   C4B36058  30.808  14.162   7.664
 2695POPC   NC336059  23.712   4.315   9.464
 2695POPC   PO436060  23.736   4.308   9.164
 2695POPC   GL136061  23.708   4.340   8.864
 2695POPC   GL236062  23.621   4.351   8.864
 2695POPC   C1A36063  23.713   4.280   8.564
 2695POPC   D2A36064  23.679   4.302   8.264
 2695POPC   C3A36065  23.760   4.292   7.964
 2695POPC   C4A36066  23.668   4.306   7.664
 2695POPC   C1B36067  23.525   4.426   8.564
 2695POPC   C2B36068  23.519   4.506   8.264
 2695POPC   C3B36069  23.498   4.432   7.964
 2695POPC   C4B36070  23.465   4.418   7.664
 2696POPC   NC336071  15.166  42.375   9.464
 2696POPC   PO436072  15.140  42.287   9.164
 2696POPC   GL136073  15.139  42.328   8.864
 2696POPC   GL236074  15.297  42.460   8.864
 2696POPC   C1A36075  15.159  42.348   8.564
 2696POPC   D2A36076  15.177  42.379   8.264
 2696POPC   C3A36077  15.161  42.337   7.964
 2696POPC   C4A36078  15.199  42.320   7.664
 2696POPC   C1B36079  15.350  42.519   8.564
 2696POPC   C2B36080  15.327  42.523   8.264
 2696POPC   C3B36081  15.404  42.534   7.964
 2696POPC   C4B36082  15.367  42.477   7.664
 2697POPC   NC336083   1.998  39.205   9.464
 2697POPC   PO436084   1.950  39.262   9.164
 2697POPC   GL136085   2.012  39.272   8.864
 2697POPC   GL236086   1.967  39.158   8.864
 2697POPC   C1A36087   2.005  39.242   8.564
 2697POPC   D2A36088   2.012  39.280   8.264
 2697POPC   C3A36089   2.004  39.208   7.964
 2697POPC   C4A36090   1.952  39.218   7.664
 2697POPC   C1B36091   1.826  38.968   8.564
 2697POPC   C2B36092   1.900  39.006   8.264
 2697POPC   C3B36093   1.814  38.970   7.964
 2697POPC   C4B36094   1.862  38.967   7.664
 2698POPC   NC336095  41.519  29.925   9.464
 2698POPC   PO436096  41.555  29.963   9.164
 2698POPC   GL136097  41.518  29.887   8.864
 2698POPC   GL236098  41.462  29.809   8.864
 2698POPC   C1A36099  41.592  29.896   8.564
 2698POPC   D2A36100  41.561  29.943   8.264
 2698POPC   C3A36101  41.555  29.956   7.964
 2698POPC   C4A36102  41.591  29.943   7.664
 2698POPC   C1B36103  41.416  29.705   8.564
 2698POPC   C2B36104  41.475  29.661   8.264
 2698POPC   C3B36105  41.463  29.660   7.964
 2698POPC   C4B36106  41.478  29.662   7.664
 2699POPC   NC336107   4.323   1.230   9.464
 2699POPC   PO436108   4.300   1.239   9.164
 2699POPC   GL136109   4.306   1.180   8.864
 2699POPC   GL236110   4.261   1.092   8.864
 2699POPC   C1A36111   4.292   1.231   8.564
 2699POPC   D2A36112   4.356   1.199   8.264
 2699POPC   C3A36113   4.335   1.190   7.964
 2699POPC   C4A36114   4.310   1.240   7.664
 2699POPC   C1B36115   4.305   0.930   8.564
 2699POPC   C2B36116   4.296   1.012   8.264
 2699POPC   C3B36117   4.290   0.981   7.964
 2699POPC   C4B36118   4.236   0.922   7.664
 2700POPC   NC336119  28.399  26.083   9.464
 2700POPC   PO436120  28.343  26.047   9.164
 2700POPC   GL136121  28.324  26.008   8.864
 2700POPC   GL236122  28.440  26.042   8.864
 2700POPC   C1A36123  28.413  26.055   8.564
 2700POPC   D2A36124  28.406  25.997   8.264
 2700POPC   C3A36125  28.345  26.003   7.964
 2700POPC   C4A36126  28.350  26.027   7.664
 2700POPC   C1B36127  28.578  26.119   8.564
 2700POPC   C2B36128  28.597  26.119   8.264
 2700POPC   C3B36129  28.639  26.104   7.964
 2700POPC   C4B36130  28.566  26.088   7.664
 2701POPC   NC336131  22.180  36.867   9.464
 2701POPC   PO436132  22.115  36.937   9.164
 2701POPC   GL136133  22.211  36.912   8.864
 2701POPC   GL236134  22.262  36.849   8.864
 2701POPC   C1A36135  22.127  36.896   8.564
 2701POPC   D2A36136  22.176  36.919   8.264
 2701POPC   C3A36137  22.191  36.893   7.964
 2701POPC   C4A36138  22.147  36.953   7.664
 2701POPC   C1B36139  22.371  36.846   8.564
 2701POPC   C2B36140  22.351  36.861   8.264
 2701POPC   C3B36141  22.413  36.789   7.964
 2701POPC   C4B36142  22.418  36.770   7.664
 2702POPC   NC336143  22.888  16.716   9.464
 2702POPC   PO436144  22.907  16.706   9.164
 2702POPC   GL136145  22.962  16.753   8.864
 2702POPC   GL236146  23.016  16.846   8.864
 2702POPC   C1A36147  22.898  16.763   8.564
 2702POPC   D2A36148  22.969  16.719   8.264
 2702POPC   C3A36149  22.906  16.716   7.964
 2702POPC   C4A36150  22.902  16.746   7.664
 2702POPC   C1B36151  22.981  16.970   8.564
 2702POPC   C2B36152  23.058  16.933   8.264
 2702POPC   C3B36153  23.058  16.948   7.964
 2702POPC   C4B36154  23.021  17.018   7.664
 2703POPC   NC336155  33.825  27.600   9.464
 2703POPC   PO436156  33.809  27.613   9.164
 2703POPC   GL136157  33.808  27.553   8.864
 2703POPC   GL236158  33.650  27.637   8.864
 2703POPC   C1A36159  33.776  27.565   8.564
 2703POPC   D2A36160  33.849  27.602   8.264
 2703POPC   C3A36161  33.842  27.567   7.964
 2703POPC   C4A36162  33.773  27.554   7.664
 2703POPC   C1B36163  33.559  27.681   8.564
 2703POPC   C2B36164  33.617  27.740   8.264
 2703POPC   C3B36165  33.615  27.710   7.964
 2703POPC   C4B36166  33.584  27.763   7.664
 2704POPC   NC336167  40.040   8.200   9.464
 2704POPC   PO436168  40.011   8.172   9.164
 2704POPC   GL136169  39.988   8.219   8.864
 2704POPC   GL236170  39.946   8.300   8.864
 2704POPC   C1A36171  40.023   8.237   8.564
 2704POPC   D2A36172  39.996   8.228   8.264
 2704POPC   C3A36173  39.987   8.206   7.964
 2704POPC   C4A36174  40.021   8.196   7.664
 2704POPC   C1B36175  39.767   8.382   8.564
 2704POPC   C2B36176  39.791   8.386   8.264
 2704POPC   C3B36177  39.806   8.313   7.964
 2704POPC   C4B36178  39.770   8.375   7.664
 2705POPC   NC336179   6.628  15.968   9.464
 2705POPC   PO436180   6.657  15.922   9.164
 2705POPC   GL136181   6.652  15.966   8.864
 2705POPC   GL236182   6.712  15.840   8.864
 2705POPC   C1A36183   6.683  15.987   8.564
 2705POPC   D2A36184   6.665  15.941   8.264
 2705POPC   C3A36185   6.664  15.973   7.964
 2705POPC   C4A36186   6.653  15.931   7.664
 2705POPC   C1B36187   6.750  15.770   8.564
 2705POPC   C2B36188   6.752  15.770   8.264
 2705POPC   C3B36189   6.776  15.729   7.964
 2705POPC   C4B36190   6.763  15.765   7.664
 2706POPC   NC336191   9.761  42.370   9.464
 2706POPC   PO436192   9.748  42.336   9.164
 2706POPC   GL136193   9.723  42.321   8.864
 2706POPC   GL236194   9.809  42.492   8.864
 2706POPC   C1A36195   9.729  42.365   8.564
 2706POPC   D2A36196   9.782  42.305   8.264
 2706POPC   C3A36197   9.779  42.377   7.964
 2706POPC   C4A36198   9.793  42.299   7.664
 2706POPC   C1B36199   9.769  42.587   8.564
 2706POPC   C2B36200   9.758  42.620   8.264
 2706POPC   C3B36201   9.775  42.606   7.964
 2706POPC   C4B36202   9.755  42.555   7.664
 2707POPC   NC336203  32.276  20.626   9.464
 2707POPC   PO436204  32.226  20.565   9.164
 2707POPC   GL136205  32.203  20.625   8.864
 2707POPC   GL236206  32.167  20.643   8.864
 2707POPC   C1A36207  32.239  20.564   8.564
 2707POPC   D2A36208  32.208  20.640   8.264
 2707POPC   C3A36209  32.281  20.606   7.964
 2707POPC   C4A36210  32.232  20.618   7.664
 2707POPC   C1B36211  32.036  20.788   8.564
 2707POPC   C2B36212  32.009  20.723   8.264
 2707POPC   C3B36213  32.057  20.743   7.964
 2707POPC   C4B36214  32.039  20.787   7.664
 2708POPC   NC336215  41.555  32.249   9.464
 2708POPC   PO436216  41.602  32.200   9.164
 2708POPC   GL136217  41.549  32.227   8.864
 2708POPC   GL236218  41.671  32.286   8.864
 2708POPC   C1A36219  41.586  32.241   8.564
 2708POPC   D2A36220  41.534  32.244   8.264
 2708POPC   C3A36221  41.527  32.242   7.964
 2708POPC   C4A36222  41.593  32.229   7.664
 2708POPC   C1B36223  41.724  32.362   8.564
 2708POPC   C2B36224  41.748  32.384   8.264
 2708POPC   C3B36225  41.778  32.348   7.964
 2708POPC   C4B36226  41.732  32.401   7.664
 2709POPC   NC336227   0.479   3.528   9.464
 2709POPC   PO436228   0.451   3.493   9.164
 2709POPC   GL136229   0.487   3.581   8.864
 2709POPC   GL236230   0.492   3.675   8.864
 2709POPC   C1A36231   0.417   3.519   8.564
 2709POPC   D2A36232   0.431   3.536   8.264
 2709POPC   C3A36233   0.438   3.500   7.964
 2709POPC   C4A36234   0.482   3.581   7.664
 2709POPC   C1B36235   0.455   3.830   8.564
 2709POPC   C2B36236   0.441   3.830   8.264
 2709POPC   C3B36237   0.499   3.803   7.964
 2709POPC   C4B36238   0.416   3.817   7.664
 2710POPC   NC336239  19.870  37.663   9.464
 2710POPC   PO436240  19.884  37.668   9.164
 2710POPC   GL136241  19.796  37.652   8.864
 2710POPC   GL236242  19.929  37.775   8.864
 2710POPC   C1A36243  19.790  37.662   8.564
 2710POPC   D2A36244  19.795  37.686   8.264
 2710POPC   C3A36245  19.845  37.677   7.964
 2710POPC   C4A36246  19.804  37.690   7.664
 2710POPC   C1B36247  20.008  37.851   8.564
 2710POPC   C2B36248  20.055  37.809   8.264
 2710POPC   C3B36249  20.009  37.786   7.964
 2710POPC   C4B36250  20.029  37.769   7.664
 2711POPC   NC336251  36.127  12.810   9.464
 2711POPC   PO436252  36.161  12.873   9.164
 2711POPC   GL136253  36.088  12.805   8.864
 2711POPC   GL236254  36.202  12.774   8.864
 2711POPC   C1A36255  36.177  12.891   8.564
 2711POPC   D2A36256  36.100  12.844   8.264
 2711POPC   C3A36257  36.133  12.841   7.964
 2711POPC   C4A36258  36.110  12.857   7.664
 2711POPC   C1B36259  36.337  12.713   8.564
 2711POPC   C2B36260  36.348  12.647   8.264
 2711POPC   C3B36261  36.313  12.710   7.964
 2711POPC   C4B36262  36.330  12.676   7.664
 2712POPC   NC336263   4.286  35.380   9.464
 2712POPC   PO436264   4.306  35.369   9.164
 2712POPC   GL136265   4.330  35.312   8.864
 2712POPC   GL236266   4.402  35.373   8.864
 2712POPC   C1A36267   4.353  35.356   8.564
 2712POPC   D2A36268   4.314  35.385   8.264
 2712POPC   C3A36269   4.360  35.339   7.964
 2712POPC   C4A36270   4.353  35.321   7.664
 2712POPC   C1B36271   4.568  35.447   8.564
 2712POPC   C2B36272   4.513  35.481   8.264
 2712POPC   C3B36273   4.576  35.480   7.964
 2712POPC   C4B36274   4.506  35.483   7.664
 2713POPC   NC336275  15.947   0.395   9.464
 2713POPC   PO436276  15.982   0.424   9.164
 2713POPC   GL136277  15.993   0.473   8.864
 2713POPC   GL236278  15.820   0.379   8.864
 2713POPC   C1A36279  15.993   0.396   8.564
 2713POPC   D2A36280  15.963   0.475   8.264
 2713POPC   C3A36281  15.944   0.456   7.964
 2713POPC   C4A36282  15.997   0.390   7.664
 2713POPC   C1B36283  15.725   0.437   8.564
 2713POPC   C2B36284  15.690   0.405   8.264
 2713POPC   C3B36285  15.749   0.406   7.964
 2713POPC   C4B36286  15.659   0.367   7.664
 2714POPC   NC336287  21.359   3.494   9.464
 2714POPC   PO436288  21.385   3.560   9.164
 2714POPC   GL136289  21.403   3.550   8.864
 2714POPC   GL236290  21.483   3.614   8.864
 2714POPC   C1A36291  21.390   3.572   8.564
 2714POPC   D2A36292  21.366   3.571   8.264
 2714POPC   C3A36293  21.341   3.511   7.964
 2714POPC   C4A36294  21.380   3.588   7.664
 2714POPC   C1B36295  21.663   3.617   8.564
 2714POPC   C2B36296  21.633   3.613   8.264
 2714POPC   C3B36297  21.637   3.582   7.964
 2714POPC   C4B36298  21.589   3.572   7.664
 2715POPC   NC336299   1.228  34.558   9.464
 2715POPC   PO436300   1.166  34.537   9.164
 2715POPC   GL136301   1.178  34.625   8.864
 2715POPC   GL236302   1.169  34.415   8.864
 2715POPC   C1A36303   1.220  34.536   8.564
 2715POPC   D2A36304   1.230  34.544   8.264
 2715POPC   C3A36305   1.216  34.595   7.964
 2715POPC   C4A36306   1.258  34.561   7.664
 2715POPC   C1B36307   1.201  34.320   8.564
 2715POPC   C2B36308   1.242  34.305   8.264
 2715POPC   C3B36309   1.261  34.281   7.964
 2715POPC   C4B36310   1.237  34.279   7.664
 2716POPC   NC336311  30.697   0.469   9.464
 2716POPC   PO436312  30.667   0.389   9.164
 2716POPC   GL136313  30.668   0.447   8.864
 2716POPC   GL236314  30.563   0.529   8.864
 2716POPC   C1A36315  30.669   0.451   8.564
 2716POPC   D2A36316  30.671   0.456   8.264
 2716POPC   C3A36317  30.722   0.485   7.964
 2716POPC   C4A36318  30.656   0.402   7.664
 2716POPC   C1B36319  30.423   0.574   8.564
 2716POPC   C2B36320  30.464   0.495   8.264
 2716POPC   C3B36321  30.431   0.544   7.964
 2716POPC   C4B36322  30.486   0.523   7.664
 2717POPC   NC336323  34.600  24.538   9.464
 2717POPC   PO436324  34.573  24.497   9.164
 2717POPC   GL136325  34.616  24.470   8.864
 2717POPC   GL236326  34.574  24.626   8.864
 2717POPC   C1A36327  34.564  24.470   8.564
 2717POPC   D2A36328  34.539  24.520   8.264
 2717POPC   C3A36329  34.580  24.453   7.964
 2717POPC   C4A36330  34.604  24.503   7.664
 2717POPC   C1B36331  34.596  24.726   8.564
 2717POPC   C2B36332  34.646  24.719   8.264
 2717POPC   C3B36333  34.667  24.704   7.964
 2717POPC   C4B36334  34.662  24.722   7.664
 2718POPC   NC336335  21.404   9.780   9.464
 2718POPC   PO436336  21.405   9.766   9.164
 2718POPC   GL136337  21.340   9.788   8.864
 2718POPC   GL236338  21.434   9.834   8.864
 2718POPC   C1A36339  21.418   9.728   8.564
 2718POPC   D2A36340  21.387   9.784   8.264
 2718POPC   C3A36341  21.347   9.787   7.964
 2718POPC   C4A36342  21.362   9.775   7.664
 2718POPC   C1B36343  21.403   9.953   8.564
 2718POPC   C2B36344  21.431   9.940   8.264
 2718POPC   C3B36345  21.467   9.985   7.964
 2718POPC   C4B36346  21.403  10.014   7.664
 2719POPC   NC336347   9.712  39.999   9.464
 2719POPC   PO436348   9.773  39.961   9.164
 2719POPC   GL136349   9.704  40.018   8.864
 2719POPC   GL236350   9.666  39.925   8.864
 2719POPC   C1A36351   9.782  39.962   8.564
 2719POPC   D2A36352   9.762  39.993   8.264
 2719POPC   C3A36353   9.798  39.969   7.964
 2719POPC   C4A36354   9.752  40.025   7.664
 2719POPC   C1B36355   9.668  39.800   8.564
 2719POPC   C2B36356   9.685  39.779   8.264
 2719POPC   C3B36357   9.698  39.750   7.964
 2719POPC   C4B36358   9.687  39.767   7.664
 2720POPC   NC336359   2.010  12.864   9.464
 2720POPC   PO436360   1.982  12.833   9.164
 2720POPC   GL136361   1.981  12.870   8.864
 2720POPC   GL236362   1.849  12.858   8.864
 2720POPC   C1A36363   1.948  12.809   8.564
 2720POPC   D2A36364   1.982  12.813   8.264
 2720POPC   C3A36365   1.988  12.838   7.964
 2720POPC   C4A36366   2.000  12.896   7.664
 2720POPC   C1B36367   1.749  12.934   8.564
 2720POPC   C2B36368   1.797  12.973   8.264
 2720POPC   C3B36369   1.769  12.905   7.964
 2720POPC   C4B36370   1.721  12.904   7.664
 2721POPC   NC336371  18.314  17.499   9.464
 2721POPC   PO436372  18.233  17.468   9.164
 2721POPC   GL136373  18.287  17.504   8.864
 2721POPC   GL236374  18.124  17.548   8.864
 2721POPC   C1A36375  18.317  17.460   8.564
 2721POPC   D2A36376  18.318  17.464   8.264
 2721POPC   C3A36377  18.311  17.550   7.964
 2721POPC   C4A36378  18.304  17.529   7.664
 2721POPC   C1B36379  18.074  17.496   8.564
 2721POPC   C2B36380  18.003  17.490   8.264
 2721POPC   C3B36381  18.066  17.507   7.964
 2721POPC   C4B36382  18.078  17.564   7.664
 2722POPC   NC336383  38.502  25.248   9.464
 2722POPC   PO436384  38.490  25.299   9.164
 2722POPC   GL136385  38.446  25.309   8.864
 2722POPC   GL236386  38.524  25.341   8.864
 2722POPC   C1A36387  38.420  25.292   8.564
 2722POPC   D2A36388  38.479  25.308   8.264
 2722POPC   C3A36389  38.500  25.242   7.964
 2722POPC   C4A36390  38.433  25.291   7.664
 2722POPC   C1B36391  38.595  25.399   8.564
 2722POPC   C2B36392  38.665  25.454   8.264
 2722POPC   C3B36393  38.690  25.415   7.964
 2722POPC   C4B36394  38.608  25.405   7.664
 2723POPC   NC336395  34.616  14.438   9.464
 2723POPC   PO436396  34.545  14.452   9.164
 2723POPC   GL136397  34.575  14.378   8.864
 2723POPC   GL236398  34.576  14.494   8.864
 2723POPC   C1A36399  34.563  14.369   8.564
 2723POPC   D2A36400  34.615  14.405   8.264
 2723POPC   C3A36401  34.621  14.376   7.964
 2723POPC   C4A36402  34.532  14.359   7.664
 2723POPC   C1B36403  34.564  14.652   8.564
 2723POPC   C2B36404  34.627  14.663   8.264
 2723POPC   C3B36405  34.627  14.699   7.964
 2723POPC   C4B36406  34.636  14.606   7.664
 2724POPC   NC336407  43.155   3.523   9.464
 2724POPC   PO436408  43.145   3.552   9.164
 2724POPC   GL136409  43.155   3.498   8.864
 2724POPC   GL236410  43.236   3.530   8.864
 2724POPC   C1A36411  43.148   3.518   8.564
 2724POPC   D2A36412  43.114   3.559   8.264
 2724POPC   C3A36413  43.074   3.570   7.964
 2724POPC   C4A36414  43.093   3.506   7.664
 2724POPC   C1B36415  43.315   3.497   8.564
 2724POPC   C2B36416  43.309   3.520   8.264
 2724POPC   C3B36417  43.390   3.547   7.964
 2724POPC   C4B36418  43.353   3.468   7.664
 2725POPC   NC336419  19.088  19.073   9.464
 2725POPC   PO436420  19.108  19.101   9.164
 2725POPC   GL136421  19.056  19.103   8.864
 2725POPC   GL236422  19.121  18.969   8.864
 2725POPC   C1A36423  19.072  19.042   8.564
 2725POPC   D2A36424  19.025  19.073   8.264
 2725POPC   C3A36425  19.096  19.027   7.964
 2725POPC   C4A36426  19.089  19.062   7.664
 2725POPC   C1B36427  19.232  18.862   8.564
 2725POPC   C2B36428  19.206  18.844   8.264
 2725POPC   C3B36429  19.245  18.926   7.964
 2725POPC   C4B36430  19.247  18.895   7.664
 2726POPC   NC336431  43.111  40.053   9.464
 2726POPC   PO436432  43.087  40.023   9.164
 2726POPC   GL136433  43.151  39.992   8.864
 2726POPC   GL236434  43.131  39.889   8.864
 2726POPC   C1A36435  43.078  39.960   8.564
 2726POPC   D2A36436  43.096  40.015   8.264
 2726POPC   C3A36437  43.129  40.009   7.964
 2726POPC   C4A36438  43.063  40.008   7.664
 2726POPC   C1B36439  43.176  39.729   8.564
 2726POPC   C2B36440  43.202  39.782   8.264
 2726POPC   C3B36441  43.239  39.763   7.964
 2726POPC   C4B36442  43.186  39.752   7.664
 2727POPC   NC336443   8.946  16.689   9.464
 2727POPC   PO436444   8.932  16.734   9.164
 2727POPC   GL136445   8.959  16.706   8.864
 2727POPC   GL236446   9.042  16.621   8.864
 2727POPC   C1A36447   8.969  16.775   8.564
 2727POPC   D2A36448   9.013  16.757   8.264
 2727POPC   C3A36449   8.976  16.760   7.964
 2727POPC   C4A36450   8.937  16.757   7.664
 2727POPC   C1B36451   9.006  16.458   8.564
 2727POPC   C2B36452   9.050  16.501   8.264
 2727POPC   C3B36453   9.033  16.470   7.964
 2727POPC   C4B36454   9.010  16.510   7.664
 2728POPC   NC336455  11.345  37.726   9.464
 2728POPC   PO436456  11.327  37.674   9.164
 2728POPC   GL136457  11.321  37.636   8.864
 2728POPC   GL236458  11.327  37.532   8.864
 2728POPC   C1A36459  11.344  37.675   8.564
 2728POPC   D2A36460  11.275  37.690   8.264
 2728POPC   C3A36461  11.337  37.679   7.964
 2728POPC   C4A36462  11.262  37.644   7.664
 2728POPC   C1B36463  11.225  37.472   8.564
 2728POPC   C2B36464  11.300  37.430   8.264
 2728POPC   C3B36465  11.297  37.459   7.964
 2728POPC   C4B36466  11.281  37.384   7.664
 2729POPC   NC336467  33.829  40.001   9.464
 2729POPC   PO436468  33.756  40.047   9.164
 2729POPC   GL136469  33.775  40.044   8.864
 2729POPC   GL236470  33.768  40.128   8.864
 2729POPC   C1A36471  33.798  39.965   8.564
 2729POPC   D2A36472  33.835  39.967   8.264
 2729POPC   C3A36473  33.762  39.990   7.964
 2729POPC   C4A36474  33.766  40.018   7.664
 2729POPC   C1B36475  33.638  40.225   8.564
 2729POPC   C2B36476  33.683  40.214   8.264
 2729POPC   C3B36477  33.718  40.192   7.964
 2729POPC   C4B36478  33.696  40.195   7.664
 2730POPC   NC336479  39.224  38.439   9.464
 2730POPC   PO436480  39.219  38.413   9.164
 2730POPC   GL136481  39.233  38.461   8.864
 2730POPC   GL236482  39.201  38.595   8.864
 2730POPC   C1A36483  39.209  38.405   8.564
 2730POPC   D2A36484  39.213  38.482   8.264
 2730POPC   C3A36485  39.213  38.466   7.964
 2730POPC   C4A36486  39.256  38.505   7.664
 2730POPC   C1B36487  39.130  38.672   8.564
 2730POPC   C2B36488  39.082  38.660   8.264
 2730POPC   C3B36489  39.137  38.706   7.964
 2730POPC   C4B36490  39.115  38.679   7.664
 2731POPC   NC336491  32.991  36.927   9.464
 2731POPC   PO436492  32.997  36.953   9.164
 2731POPC   GL136493  33.053  36.864   8.864
 2731POPC   GL236494  32.984  36.791   8.864
 2731POPC   C1A36495  32.985  36.867   8.564
 2731POPC   D2A36496  32.987  36.896   8.264
 2731POPC   C3A36497  32.987  36.920   7.964
 2731POPC   C4A36498  33.065  36.890   7.664
 2731POPC   C1B36499  32.977  36.657   8.564
 2731POPC   C2B36500  33.011  36.610   8.264
 2731POPC   C3B36501  33.027  36.686   7.964
 2731POPC   C4B36502  33.030  36.662   7.664
 2732POPC   NC336503   5.897   9.746   9.464
 2732POPC   PO436504   5.852   9.713   9.164
 2732POPC   GL136505   5.872   9.728   8.864
 2732POPC   GL236506   5.860   9.913   8.864
 2732POPC   C1A36507   5.878   9.716   8.564
 2732POPC   D2A36508   5.858   9.750   8.264
 2732POPC   C3A36509   5.896   9.704   7.964
 2732POPC   C4A36510   5.908   9.761   7.664
 2732POPC   C1B36511   5.876   9.993   8.564
 2732POPC   C2B36512   5.880   9.986   8.264
 2732POPC   C3B36513   5.915   9.954   7.964
 2732POPC   C4B36514   5.957   9.946   7.664
 2733POPC   NC336515  41.527   8.970   9.464
 2733POPC   PO436516  41.516   8.964   9.164
 2733POPC   GL136517  41.522   9.001   8.864
 2733POPC   GL236518  41.490   8.838   8.864
 2733POPC   C1A36519  41.514   8.973   8.564
 2733POPC   D2A36520  41.576   8.967   8.264
 2733POPC   C3A36521  41.529   8.980   7.964
 2733POPC   C4A36522  41.588   8.947   7.664
 2733POPC   C1B36523  41.391   8.782   8.564
 2733POPC   C2B36524  41.417   8.739   8.264
 2733POPC   C3B36525  41.374   8.733   7.964
 2733POPC   C4B36526  41.451   8.761   7.664
 2734POPC   NC336527   5.113  36.103   9.464
 2734POPC   PO436528   5.069  36.135   9.164
 2734POPC   GL136529   5.104  36.097   8.864
 2734POPC   GL236530   5.068  36.216   8.864
 2734POPC   C1A36531   5.088  36.100   8.564
 2734POPC   D2A36532   5.128  36.121   8.264
 2734POPC   C3A36533   5.109  36.147   7.964
 2734POPC   C4A36534   5.116  36.089   7.664
 2734POPC   C1B36535   5.099  36.334   8.564
 2734POPC   C2B36536   5.147  36.331   8.264
 2734POPC   C3B36537   5.102  36.384   7.964
 2734POPC   C4B36538   5.121  36.361   7.664
 2735POPC   NC336539  25.256  14.359   9.464
 2735POPC   PO436540  25.237  14.400   9.164
 2735POPC   GL136541  25.294  14.448   8.864
 2735POPC   GL236542  25.392  14.288   8.864
 2735POPC   C1A36543  25.241  14.405   8.564
 2735POPC   D2A36544  25.230  14.436   8.264
 2735POPC   C3A36545  25.231  14.448   7.964
 2735POPC   C4A36546  25.295  14.410   7.664
 2735POPC   C1B36547  25.509  14.235   8.564
 2735POPC   C2B36548  25.434  14.297   8.264
 2735POPC   C3B36549  25.499  14.254   7.964
 2735POPC   C4B36550  25.523  14.253   7.664
 2736POPC   NC336551  43.842  20.619   9.464
 2736POPC   PO436552  43.883  20.596   9.164
 2736POPC   GL136553  43.920  20.596   8.864
 2736POPC   GL236554  43.975  20.590   8.864
 2736POPC   C1A36555  43.857  20.633   8.564
 2736POPC   D2A36556  43.908  20.627   8.264
 2736POPC   C3A36557  43.876  20.619   7.964
 2736POPC   C4A36558  43.864  20.565   7.664
 2736POPC   C1B36559  44.150  20.520   8.564
 2736POPC   C2B36560  44.059  20.441   8.264
 2736POPC   C3B36561  44.060  20.507   7.964
 2736POPC   C4B36562  44.090  20.490   7.664
 2737POPC   NC336563   7.402   3.522   9.464
 2737POPC   PO436564   7.401   3.529   9.164
 2737POPC   GL136565   7.399   3.519   8.864
 2737POPC   GL236566   7.301   3.604   8.864
 2737POPC   C1A36567   7.445   3.546   8.564
 2737POPC   D2A36568   7.468   3.585   8.264
 2737POPC   C3A36569   7.397   3.492   7.964
 2737POPC   C4A36570   7.377   3.582   7.664
 2737POPC   C1B36571   7.277   3.712   8.564
 2737POPC   C2B36572   7.187   3.680   8.264
 2737POPC   C3B36573   7.248   3.720   7.964
 2737POPC   C4B36574   7.273   3.720   7.664
 2738POPC   NC336575  31.436   1.242   9.464
 2738POPC   PO436576  31.487   1.241   9.164
 2738POPC   GL136577  31.485   1.239   8.864
 2738POPC   GL236578  31.607   1.203   8.864
 2738POPC   C1A36579  31.446   1.255   8.564
 2738POPC   D2A36580  31.508   1.193   8.264
 2738POPC   C3A36581  31.492   1.182   7.964
 2738POPC   C4A36582  31.509   1.251   7.664
 2738POPC   C1B36583  31.723   1.209   8.564
 2738POPC   C2B36584  31.712   1.217   8.264
 2738POPC   C3B36585  31.720   1.227   7.964
 2738POPC   C4B36586  31.767   1.211   7.664
 2739POPC   NC336587  12.817  12.064   9.464
 2739POPC   PO436588  12.876  12.034   9.164
 2739POPC   GL136589  12.844  12.060   8.864
 2739POPC   GL236590  12.980  12.006   8.864
 2739POPC   C1A36591  12.854  12.119   8.564
 2739POPC   D2A36592  12.827  12.112   8.264
 2739POPC   C3A36593  12.844  12.057   7.964
 2739POPC   C4A36594  12.808  12.091   7.664
 2739POPC   C1B36595  13.049  11.853   8.564
 2739POPC   C2B36596  13.065  11.931   8.264
 2739POPC   C3B36597  13.019  11.874   7.964
 2739POPC   C4B36598  12.998  11.879   7.664
 2740POPC   NC336599  22.211  13.665   9.464
 2740POPC   PO436600  22.195  13.610   9.164
 2740POPC   GL136601  22.166  13.661   8.864
 2740POPC   GL236602  22.067  13.613   8.864
 2740POPC   C1A36603  22.188  13.634   8.564
 2740POPC   D2A36604  22.140  13.597   8.264
 2740POPC   C3A36605  22.116  13.666   7.964
 2740POPC   C4A36606  22.150  13.634   7.664
 2740POPC   C1B36607  21.929  13.532   8.564
 2740POPC   C2B36608  21.904  13.523   8.264
 2740POPC   C3B36609  21.880  13.558   7.964
 2740POPC   C4B36610  21.923  13.554   7.664
 2741POPC   NC336611  43.932  42.384   9.464
 2741POPC   PO436612  43.851  42.373   9.164
 2741POPC   GL136613  43.875  42.364   8.864
 2741POPC   GL236614  43.899  42.506   8.864
 2741POPC   C1A36615  43.900  42.344   8.564
 2741POPC   D2A36616  43.911  42.313   8.264
 2741POPC   C3A36617  43.838  42.331   7.964
 2741POPC   C4A36618  43.852  42.318   7.664
 2741POPC   C1B36619  43.821  42.607   8.564
 2741POPC   C2B36620  43.845  42.538   8.264
 2741POPC   C3B36621  43.816  42.540   7.964
 2741POPC   C4B36622  43.789  42.553   7.664
 2742POPC   NC336623  17.492  25.269   9.464
 2742POPC   PO436624  17.461  25.217   9.164
 2742POPC   GL136625  17.506  25.237   8.864
 2742POPC   GL236626  17.488  25.406   8.864
 2742POPC   C1A36627  17.516  25.297   8.564
 2742POPC   D2A36628  17.463  25.244   8.264
 2742POPC   C3A36629  17.473  25.289   7.964
 2742POPC   C4A36630  17.482  25.232   7.664
 2742POPC   C1B36631  17.573  25.545   8.564
 2742POPC   C2B36632  17.550  25.475   8.264
 2742POPC   C3B36633  17.568  25.469   7.964
 2742POPC   C4B36634  17.577  25.518   7.664
 2743POPC   NC336635  17.520  18.244   9.464
 2743POPC   PO436636  17.520  18.280   9.164
 2743POPC   GL136637  17.550  18.333   8.864
 2743POPC   GL236638  17.600  18.249   8.864
 2743POPC   C1A36639  17.494  18.257   8.564
 2743POPC   D2A36640  17.464  18.321   8.264
 2743POPC   C3A36641  17.530  18.319   7.964
 2743POPC   C4A36642  17.479  18.332   7.664
 2743POPC   C1B36643  17.708  18.195   8.564
 2743POPC   C2B36644  17.766  18.284   8.264
 2743POPC   C3B36645  17.769  18.222   7.964
 2743POPC   C4B36646  17.767  18.249   7.664
 2744POPC   NC336647   5.142   2.803   9.464
 2744POPC   PO436648   5.076   2.790   9.164
 2744POPC   GL136649   5.071   2.730   8.864
 2744POPC   GL236650   5.015   2.841   8.864
 2744POPC   C1A36651   5.077   2.763   8.564
 2744POPC   D2A36652   5.083   2.731   8.264
 2744POPC   C3A36653   5.120   2.762   7.964
 2744POPC   C4A36654   5.141   2.730   7.664
 2744POPC   C1B36655   5.056   2.984   8.564
 2744POPC   C2B36656   5.066   2.985   8.264
 2744POPC   C3B36657   5.015   3.006   7.964
 2744POPC   C4B36658   5.054   3.027   7.664
 2745POPC   NC336659  34.580  13.614   9.464
 2745POPC   PO436660  34.598  13.653   9.164
 2745POPC   GL136661  34.608  13.633   8.864
 2745POPC   GL236662  34.499  13.516   8.864
 2745POPC   C1A36663  34.556  13.613   8.564
 2745POPC   D2A36664  34.566  13.584   8.264
 2745POPC   C3A36665  34.527  13.626   7.964
 2745POPC   C4A36666  34.588  13.650   7.664
 2745POPC   C1B36667  34.448  13.431   8.564
 2745POPC   C2B36668  34.421  13.417   8.264
 2745POPC   C3B36669  34.353  13.442   7.964
 2745POPC   C4B36670  34.402  13.494   7.664
 2746POPC   NC336671  14.436  31.518   9.464
 2746POPC   PO436672  14.424  31.515   9.164
 2746POPC   GL136673  14.374  31.424   8.864
 2746POPC   GL236674  14.318  31.522   8.864
 2746POPC   C1A36675  14.399  31.427   8.564
 2746POPC   D2A36676  14.386  31.520   8.264
 2746POPC   C3A36677  14.445  31.452   7.964
 2746POPC   C4A36678  14.419  31.422   7.664
 2746POPC   C1B36679  14.241  31.657   8.564
 2746POPC   C2B36680  14.209  31.569   8.264
 2746POPC   C3B36681  14.237  31.631   7.964
 2746POPC   C4B36682  14.211  31.576   7.664
 2747POPC   NC336683  15.951  39.188   9.464
 2747POPC   PO436684  15.982  39.203   9.164
 2747POPC   GL136685  15.943  39.280   8.864
 2747POPC   GL236686  16.026  39.183   8.864
 2747POPC   C1A36687  15.939  39.218   8.564
 2747POPC   D2A36688  15.967  39.237   8.264
 2747POPC   C3A36689  15.933  39.209   7.964
 2747POPC   C4A36690  15.945  39.222   7.664
 2747POPC   C1B36691  16.119  39.121   8.564
 2747POPC   C2B36692  16.104  39.087   8.264
 2747POPC   C3B36693  16.100  39.035   7.964
 2747POPC   C4B36694  16.127  39.105   7.664
 2748POPC   NC336695  24.468  22.139   9.464
 2748POPC   PO436696  24.446  22.136   9.164
 2748POPC   GL136697  24.453  22.149   8.864
 2748POPC   GL236698  24.516  22.052   8.864
 2748POPC   C1A36699  24.476  22.142   8.564
 2748POPC   D2A36700  24.491  22.139   8.264
 2748POPC   C3A36701  24.504  22.127   7.964
 2748POPC   C4A36702  24.521  22.113   7.664
 2748POPC   C1B36703  24.444  21.930   8.564
 2748POPC   C2B36704  24.466  21.882   8.264
 2748POPC   C3B36705  24.518  21.928   7.964
 2748POPC   C4B36706  24.445  21.880   7.664
 2749POPC   NC336707  13.638   8.986   9.464
 2749POPC   PO436708  13.676   8.946   9.164
 2749POPC   GL136709  13.657   8.942   8.864
 2749POPC   GL236710  13.539   9.110   8.864
 2749POPC   C1A36711  13.591   8.935   8.564
 2749POPC   D2A36712  13.578   8.949   8.264
 2749POPC   C3A36713  13.668   8.946   7.964
 2749POPC   C4A36714  13.584   8.943   7.664
 2749POPC   C1B36715  13.492   9.205   8.564
 2749POPC   C2B36716  13.467   9.177   8.264
 2749POPC   C3B36717  13.477   9.221   7.964
 2749POPC   C4B36718  13.530   9.224   7.664
 2750POPC   NC336719  42.333  40.033   9.464
 2750POPC   PO436720  42.319  40.044   9.164
 2750POPC   GL136721  42.311  39.960   8.864
 2750POPC   GL236722  42.310  39.858   8.864
 2750POPC   C1A36723  42.333  39.971   8.564
 2750POPC   D2A36724  42.324  39.975   8.264
 2750POPC   C3A36725  42.293  40.004   7.964
 2750POPC   C4A36726  42.383  40.049   7.664
 2750POPC   C1B36727  42.208  39.769   8.564
 2750POPC   C2B36728  42.217  39.730   8.264
 2750POPC   C3B36729  42.242  39.727   7.964
 2750POPC   C4B36730  42.201  39.818   7.664
 2751POPC   NC336731  16.715   8.206   9.464
 2751POPC   PO436732  16.743   8.203   9.164
 2751POPC   GL136733  16.709   8.152   8.864
 2751POPC   GL236734  16.741   8.025   8.864
 2751POPC   C1A36735  16.763   8.233   8.564
 2751POPC   D2A36736  16.682   8.191   8.264
 2751POPC   C3A36737  16.778   8.153   7.964
 2751POPC   C4A36738  16.757   8.172   7.664
 2751POPC   C1B36739  16.754   7.954   8.564
 2751POPC   C2B36740  16.732   7.951   8.264
 2751POPC   C3B36741  16.735   7.940   7.964
 2751POPC   C4B36742  16.781   7.913   7.664
 2752POPC   NC336743   9.724  10.510   9.464
 2752POPC   PO436744   9.772  10.508   9.164
 2752POPC   GL136745   9.720  10.481   8.864
 2752POPC   GL236746   9.846  10.460   8.864
 2752POPC   C1A36747   9.702  10.502   8.564
 2752POPC   D2A36748   9.744  10.493   8.264
 2752POPC   C3A36749   9.796  10.532   7.964
 2752POPC   C4A36750   9.721  10.571   7.664
 2752POPC   C1B36751   9.820  10.300   8.564
 2752POPC   C2B36752   9.834  10.293   8.264
 2752POPC   C3B36753   9.898  10.264   7.964
 2752POPC   C4B36754   9.903  10.317   7.664
 2753POPC   NC336755   1.260  26.080   9.464
 2753POPC   PO436756   1.182  26.038   9.164
 2753POPC   GL136757   1.206  26.065   8.864
 2753POPC   GL236758   1.268  25.960   8.864
 2753POPC   C1A36759   1.258  26.088   8.564
 2753POPC   D2A36760   1.239  26.041   8.264
 2753POPC   C3A36761   1.253  26.050   7.964
 2753POPC   C4A36762   1.240  26.086   7.664
 2753POPC   C1B36763   1.250  25.773   8.564
 2753POPC   C2B36764   1.236  25.829   8.264
 2753POPC   C3B36765   1.230  25.781   7.964
 2753POPC   C4B36766   1.259  25.777   7.664
 2754POPC   NC336767   2.761  15.227   9.464
 2754POPC   PO436768   2.759  15.169   9.164
 2754POPC   GL136769   2.740  15.215   8.864
 2754POPC   GL236770   2.694  15.273   8.864
 2754POPC   C1A36771   2.813  15.130   8.564
 2754POPC   D2A36772   2.756  15.198   8.264
 2754POPC   C3A36773   2.725  15.197   7.964
 2754POPC   C4A36774   2.725  15.170   7.664
 2754POPC   C1B36775   2.650  15.393   8.564
 2754POPC   C2B36776   2.567  15.378   8.264
 2754POPC   C3B36777   2.641  15.331   7.964
 2754POPC   C4B36778   2.564  15.376   7.664
 2755POPC   NC336779  29.143   5.068   9.464
 2755POPC   PO436780  29.125   5.111   9.164
 2755POPC   GL136781  29.164   5.094   8.864
 2755POPC   GL236782  28.987   5.057   8.864
 2755POPC   C1A36783  29.157   5.092   8.564
 2755POPC   D2A36784  29.144   5.128   8.264
 2755POPC   C3A36785  29.108   5.124   7.964
 2755POPC   C4A36786  29.118   5.141   7.664
 2755POPC   C1B36787  28.883   5.047   8.564
 2755POPC   C2B36788  28.902   5.032   8.264
 2755POPC   C3B36789  28.851   5.055   7.964
 2755POPC   C4B36790  28.932   5.034   7.664
 2756POPC   NC336791  22.205   5.112   9.464
 2756POPC   PO436792  22.165   5.080   9.164
 2756POPC   GL136793  22.149   5.079   8.864
 2756POPC   GL236794  22.133   5.014   8.864
 2756POPC   C1A36795  22.122   5.084   8.564
 2756POPC   D2A36796  22.156   5.053   8.264
 2756POPC   C3A36797  22.159   5.120   7.964
 2756POPC   C4A36798  22.175   5.141   7.664
 2756POPC   C1B36799  22.008   4.844   8.564
 2756POPC   C2B36800  22.092   4.920   8.264
 2756POPC   C3B36801  22.094   4.840   7.964
 2756POPC   C4B36802  22.082   4.846   7.664
 2757POPC   NC336803  13.603   8.190   9.464
 2757POPC   PO436804  13.621   8.183   9.164
 2757POPC   GL136805  13.592   8.209   8.864
 2757POPC   GL236806  13.680   8.357   8.864
 2757POPC   C1A36807  13.665   8.204   8.564
 2757POPC   D2A36808  13.632   8.182   8.264
 2757POPC   C3A36809  13.650   8.168   7.964
 2757POPC   C4A36810  13.589   8.201   7.664
 2757POPC   C1B36811  13.714   8.424   8.564
 2757POPC   C2B36812  13.655   8.416   8.264
 2757POPC   C3B36813  13.712   8.486   7.964
 2757POPC   C4B36814  13.634   8.461   7.664
 2758POPC   NC336815  40.794  15.133   9.464
 2758POPC   PO436816  40.815  15.203   9.164
 2758POPC   GL136817  40.799  15.204   8.864
 2758POPC   GL236818  40.934  15.257   8.864
 2758POPC   C1A36819  40.813  15.221   8.564
 2758POPC   D2A36820  40.786  15.161   8.264
 2758POPC   C3A36821  40.756  15.186   7.964
 2758POPC   C4A36822  40.766  15.183   7.664
 2758POPC   C1B36823  41.005  15.280   8.564
 2758POPC   C2B36824  41.040  15.280   8.264
 2758POPC   C3B36825  40.984  15.264   7.964
 2758POPC   C4B36826  41.026  15.275   7.664
 2759POPC   NC336827  38.424  26.838   9.464
 2759POPC   PO436828  38.441  26.786   9.164
 2759POPC   GL136829  38.461  26.839   8.864
 2759POPC   GL236830  38.319  26.817   8.864
 2759POPC   C1A36831  38.488  26.811   8.564
 2759POPC   D2A36832  38.407  26.825   8.264
 2759POPC   C3A36833  38.414  26.819   7.964
 2759POPC   C4A36834  38.458  26.834   7.664
 2759POPC   C1B36835  38.201  26.840   8.564
 2759POPC   C2B36836  38.194  26.911   8.264
 2759POPC   C3B36837  38.202  26.844   7.964
 2759POPC   C4B36838  38.168  26.833   7.664
 2760POPC   NC336839  43.133  37.652   9.464
 2760POPC   PO436840  43.154  37.642   9.164
 2760POPC   GL136841  43.121  37.724   8.864
 2760POPC   GL236842  43.066  37.529   8.864
 2760POPC   C1A36843  43.153  37.638   8.564
 2760POPC   D2A36844  43.118  37.647   8.264
 2760POPC   C3A36845  43.084  37.673   7.964
 2760POPC   C4A36846  43.153  37.682   7.664
 2760POPC   C1B36847  43.008  37.432   8.564
 2760POPC   C2B36848  42.935  37.465   8.264
 2760POPC   C3B36849  43.004  37.496   7.964
 2760POPC   C4B36850  42.933  37.454   7.664
 2761POPC   NC336851  26.821  12.077   9.464
 2761POPC   PO436852  26.803  12.034   9.164
 2761POPC   GL136853  26.867  12.123   8.864
 2761POPC   GL236854  26.841  12.160   8.864
 2761POPC   C1A36855  26.769  12.062   8.564
 2761POPC   D2A36856  26.798  12.054   8.264
 2761POPC   C3A36857  26.852  12.043   7.964
 2761POPC   C4A36858  26.856  12.028   7.664
 2761POPC   C1B36859  26.906  12.239   8.564
 2761POPC   C2B36860  26.959  12.246   8.264
 2761POPC   C3B36861  26.973  12.321   7.964
 2761POPC   C4B36862  26.980  12.268   7.664
 2762POPC   NC336863  27.569  43.932   9.464
 2762POPC   PO436864  27.604  43.895   9.164
 2762POPC   GL136865  27.570  43.878   8.864
 2762POPC   GL236866  27.677  43.800   8.864
 2762POPC   C1A36867  27.571  43.917   8.564
 2762POPC   D2A36868  27.592  43.892   8.264
 2762POPC   C3A36869  27.606  43.861   7.964
 2762POPC   C4A36870  27.615  43.868   7.664
 2762POPC   C1B36871  27.755  43.660   8.564
 2762POPC   C2B36872  27.674  43.671   8.264
 2762POPC   C3B36873  27.737  43.648   7.964
 2762POPC   C4B36874  27.733  43.671   7.664
 2763POPC   NC336875  43.914  10.529   9.464
 2763POPC   PO436876  43.887  10.501   9.164
 2763POPC   GL136877  43.907  10.530   8.864
 2763POPC   GL236878  43.858  10.640   8.864
 2763POPC   C1A36879  43.906  10.568   8.564
 2763POPC   D2A36880  43.841  10.552   8.264
 2763POPC   C3A36881  43.873  10.522   7.964
 2763POPC   C4A36882  43.919  10.541   7.664
 2763POPC   C1B36883  43.897  10.744   8.564
 2763POPC   C2B36884  43.933  10.743   8.264
 2763POPC   C3B36885  43.887  10.822   7.964
 2763POPC   C4B36886  43.867  10.798   7.664
 2764POPC   NC336887  44.631  20.605   9.464
 2764POPC   PO436888  44.622  20.591   9.164
 2764POPC   GL136889  44.640  20.627   8.864
 2764POPC   GL236890  44.601  20.479   8.864
 2764POPC   C1A36891  44.645  20.651   8.564
 2764POPC   D2A36892  44.703  20.623   8.264
 2764POPC   C3A36893  44.663  20.598   7.964
 2764POPC   C4A36894  44.684  20.584   7.664
 2764POPC   C1B36895  44.633  20.338   8.564
 2764POPC   C2B36896  44.641  20.375   8.264
 2764POPC   C3B36897  44.612  20.394   7.964
 2764POPC   C4B36898  44.573  20.387   7.664
 2765POPC   NC336899  41.553  10.499   9.464
 2765POPC   PO436900  41.525  10.533   9.164
 2765POPC   GL136901  41.598  10.568   8.864
 2765POPC   GL236902  41.618  10.409   8.864
 2765POPC   C1A36903  41.566  10.483   8.564
 2765POPC   D2A36904  41.590  10.544   8.264
 2765POPC   C3A36905  41.571  10.525   7.964
 2765POPC   C4A36906  41.586  10.523   7.664
 2765POPC   C1B36907  41.693  10.345   8.564
 2765POPC   C2B36908  41.692  10.254   8.264
 2765POPC   C3B36909  41.725  10.279   7.964
 2765POPC   C4B36910  41.672  10.343   7.664
 2766POPC   NC336911  31.445  17.536   9.464
 2766POPC   PO436912  31.436  17.464   9.164
 2766POPC   GL136913  31.463  17.485   8.864
 2766POPC   GL236914  31.424  17.375   8.864
 2766POPC   C1A36915  31.477  17.475   8.564
 2766POPC   D2A36916  31.425  17.465   8.264
 2766POPC   C3A36917  31.455  17.484   7.964
 2766POPC   C4A36918  31.475  17.494   7.664
 2766POPC   C1B36919  31.380  17.309   8.564
 2766POPC   C2B36920  31.376  17.321   8.264
 2766POPC   C3B36921  31.338  17.284   7.964
 2766POPC   C4B36922  31.346  17.254   7.664
 2767POPC   NC336923  28.338   4.321   9.464
 2767POPC   PO436924  28.415   4.308   9.164
 2767POPC   GL136925  28.407   4.272   8.864
 2767POPC   GL236926  28.295   4.178   8.864
 2767POPC   C1A36927  28.392   4.294   8.564
 2767POPC   D2A36928  28.376   4.303   8.264
 2767POPC   C3A36929  28.335   4.296   7.964
 2767POPC   C4A36930  28.353   4.289   7.664
 2767POPC   C1B36931  28.282   4.075   8.564
 2767POPC   C2B36932  28.328   4.046   8.264
 2767POPC   C3B36933  28.345   4.118   7.964
 2767POPC   C4B36934  28.273   4.044   7.664
 2768POPC   NC336935  23.679   9.019   9.464
 2768POPC   PO436936  23.682   8.961   9.164
 2768POPC   GL136937  23.756   9.007   8.864
 2768POPC   GL236938  23.641   9.038   8.864
 2768POPC   C1A36939  23.694   8.958   8.564
 2768POPC   D2A36940  23.689   8.963   8.264
 2768POPC   C3A36941  23.759   9.017   7.964
 2768POPC   C4A36942  23.717   8.930   7.664
 2768POPC   C1B36943  23.519   9.159   8.564
 2768POPC   C2B36944  23.495   9.077   8.264
 2768POPC   C3B36945  23.498   9.123   7.964
 2768POPC   C4B36946  23.544   9.081   7.664
 2769POPC   NC336947   4.321  38.480   9.464
 2769POPC   PO436948   4.358  38.431   9.164
 2769POPC   GL136949   4.288  38.488   8.864
 2769POPC   GL236950   4.400  38.533   8.864
 2769POPC   C1A36951   4.308  38.412   8.564
 2769POPC   D2A36952   4.359  38.497   8.264
 2769POPC   C3A36953   4.364  38.425   7.964
 2769POPC   C4A36954   4.308  38.503   7.664
 2769POPC   C1B36955   4.526  38.497   8.564
 2769POPC   C2B36956   4.582  38.530   8.264
 2769POPC   C3B36957   4.541  38.480   7.964
 2769POPC   C4B36958   4.520  38.538   7.664
 2770POPC   NC336959  43.882  29.965   9.464
 2770POPC   PO436960  43.884  29.890   9.164
 2770POPC   GL136961  43.922  29.890   8.864
 2770POPC   GL236962  44.004  29.823   8.864
 2770POPC   C1A36963  43.857  29.938   8.564
 2770POPC   D2A36964  43.898  29.952   8.264
 2770POPC   C3A36965  43.898  29.968   7.964
 2770POPC   C4A36966  43.876  29.915   7.664
 2770POPC   C1B36967  44.010  29.735   8.564
 2770POPC   C2B36968  44.063  29.758   8.264
 2770POPC   C3B36969  44.087  29.711   7.964
 2770POPC   C4B36970  44.061  29.694   7.664
 2771POPC   NC336971   5.881  22.139   9.464
 2771POPC   PO436972   5.893  22.132   9.164
 2771POPC   GL136973   5.840  22.211   8.864
 2771POPC   GL236974   5.975  22.124   8.864
 2771POPC   C1A36975   5.896  22.154   8.564
 2771POPC   D2A36976   5.860  22.191   8.264
 2771POPC   C3A36977   5.863  22.113   7.964
 2771POPC   C4A36978   5.852  22.160   7.664
 2771POPC   C1B36979   6.112  22.033   8.564
 2771POPC   C2B36980   6.089  22.072   8.264
 2771POPC   C3B36981   6.072  22.093   7.964
 2771POPC   C4B36982   6.124  22.047   7.664
 2772POPC   NC336983  40.771   8.958   9.464
 2772POPC   PO436984  40.824   9.002   9.164
 2772POPC   GL136985  40.828   9.003   8.864
 2772POPC   GL236986  40.904   8.984   8.864
 2772POPC   C1A36987  40.774   8.923   8.564
 2772POPC   D2A36988  40.753   8.932   8.264
 2772POPC   C3A36989  40.801   8.985   7.964
 2772POPC   C4A36990  40.827   8.946   7.664
 2772POPC   C1B36991  41.063   8.989   8.564
 2772POPC   C2B36992  41.009   8.916   8.264
 2772POPC   C3B36993  41.070   8.941   7.964
 2772POPC   C4B36994  41.048   8.979   7.664
 2773POPC   NC336995   2.014  32.983   9.464
 2773POPC   PO436996   1.971  33.004   9.164
 2773POPC   GL136997   2.033  33.054   8.864
 2773POPC   GL236998   2.067  32.954   8.864
 2773POPC   C1A36999   1.965  32.988   8.564
 2773POPC   D2A37000   2.000  33.001   8.264
 2773POPC   C3A37001   2.031  33.022   7.964
 2773POPC   C4A37002   1.961  33.031   7.664
 2773POPC   C1B37003   2.164  32.807   8.564
 2773POPC   C2B37004   2.180  32.878   8.264
 2773POPC   C3B37005   2.128  32.870   7.964
 2773POPC   C4B37006   2.110  32.808   7.664
 2774POPC   NC337007  15.967  43.889   9.464
 2774POPC   PO437008  15.946  43.910   9.164
 2774POPC   GL137009  15.974  43.929   8.864
 2774POPC   GL237010  16.055  43.783   8.864
 2774POPC   C1A37011  15.984  43.844   8.564
 2774POPC   D2A37012  15.925  43.881   8.264
 2774POPC   C3A37013  16.000  43.920   7.964
 2774POPC   C4A37014  15.941  43.860   7.664
 2774POPC   C1B37015  16.083  43.629   8.564
 2774POPC   C2B37016  16.128  43.633   8.264
 2774POPC   C3B37017  16.102  43.676   7.964
 2774POPC   C4B37018  16.076  43.632   7.664
 2775POPC   NC337019  35.356  10.533   9.464
 2775POPC   PO437020  35.401  10.553   9.164
 2775POPC   GL137021  35.352  10.501   8.864
 2775POPC   GL237022  35.437  10.386   8.864
 2775POPC   C1A37023  35.393  10.550   8.564
 2775POPC   D2A37024  35.313  10.565   8.264
 2775POPC   C3A37025  35.304  10.545   7.964
 2775POPC   C4A37026  35.390  10.528   7.664
 2775POPC   C1B37027  35.488  10.377   8.564
 2775POPC   C2B37028  35.544  10.358   8.264
 2775POPC   C3B37029  35.471  10.297   7.964
 2775POPC   C4B37030  35.510  10.291   7.664
 2776POPC   NC337031  12.092  24.502   9.464
 2776POPC   PO437032  12.083  24.493   9.164
 2776POPC   GL137033  12.029  24.445   8.864
 2776POPC   GL237034  11.954  24.390   8.864
 2776POPC   C1A37035  12.101  24.445   8.564
 2776POPC   D2A37036  12.124  24.517   8.264
 2776POPC   C3A37037  12.071  24.452   7.964
 2776POPC   C4A37038  12.031  24.453   7.664
 2776POPC   C1B37039  11.866  24.273   8.564
 2776POPC   C2B37040  11.871  24.321   8.264
 2776POPC   C3B37041  11.932  24.299   7.964
 2776POPC   C4B37042  11.917  24.293   7.664
 2777POPC   NC337043  11.303  15.224   9.464
 2777POPC   PO437044  11.322  15.184   9.164
 2777POPC   GL137045  11.325  15.228   8.864
 2777POPC   GL237046  11.302  15.017   8.864
 2777POPC   C1A37047  11.319  15.229   8.564
 2777POPC   D2A37048  11.325  15.229   8.264
 2777POPC   C3A37049  11.328  15.203   7.964
 2777POPC   C4A37050  11.283  15.133   7.664
 2777POPC   C1B37051  11.278  14.915   8.564
 2777POPC   C2B37052  11.279  14.938   8.264
 2777POPC   C3B37053  11.270  14.912   7.964
 2777POPC   C4B37054  11.216  14.976   7.664
 2778POPC   NC337055  22.967   6.611   9.464
 2778POPC   PO437056  22.982   6.664   9.164
 2778POPC   GL137057  22.922   6.638   8.864
 2778POPC   GL237058  23.012   6.730   8.864
 2778POPC   C1A37059  22.975   6.662   8.564
 2778POPC   D2A37060  22.893   6.652   8.264
 2778POPC   C3A37061  22.967   6.658   7.964
 2778POPC   C4A37062  22.894   6.595   7.664
 2778POPC   C1B37063  23.077   6.845   8.564
 2778POPC   C2B37064  23.092   6.837   8.264
 2778POPC   C3B37065  23.099   6.772   7.964
 2778POPC   C4B37066  23.145   6.830   7.664
 2779POPC   NC337067  35.386  40.029   9.464
 2779POPC   PO437068  35.359  40.006   9.164
 2779POPC   GL137069  35.376  40.012   8.864
 2779POPC   GL237070  35.423  40.086   8.864
 2779POPC   C1A37071  35.332  40.029   8.564
 2779POPC   D2A37072  35.350  40.012   8.264
 2779POPC   C3A37073  35.351  39.974   7.964
 2779POPC   C4A37074  35.321  39.977   7.664
 2779POPC   C1B37075  35.439  40.209   8.564
 2779POPC   C2B37076  35.430  40.268   8.264
 2779POPC   C3B37077  35.429  40.223   7.964
 2779POPC   C4B37078  35.482  40.245   7.664
 2780POPC   NC337079   8.194  36.140   9.464
 2780POPC   PO437080   8.222  36.160   9.164
 2780POPC   GL137081   8.239  36.097   8.864
 2780POPC   GL237082   8.239  36.192   8.864
 2780POPC   C1A37083   8.182  36.167   8.564
 2780POPC   D2A37084   8.189  36.108   8.264
 2780POPC   C3A37085   8.246  36.099   7.964
 2780POPC   C4A37086   8.181  36.122   7.664
 2780POPC   C1B37087   8.311  36.363   8.564
 2780POPC   C2B37088   8.314  36.313   8.264
 2780POPC   C3B37089   8.280  36.399   7.964
 2780POPC   C4B37090   8.334  36.376   7.664
 2781POPC   NC337091  44.693   6.656   9.464
 2781POPC   PO437092  44.679   6.680   9.164
 2781POPC   GL137093  44.624   6.674   8.864
 2781POPC   GL237094  44.594   6.757   8.864
 2781POPC   C1A37095  44.697   6.601   8.564
 2781POPC   D2A37096  44.616   6.608   8.264
 2781POPC   C3A37097  44.649   6.611   7.964
 2781POPC   C4A37098  44.648   6.687   7.664
 2781POPC   C1B37099  44.505   6.847   8.564
 2781POPC   C2B37100  44.479   6.845   8.264
 2781POPC   C3B37101  44.561   6.812   7.964
 2781POPC   C4B37102  44.562   6.871   7.664
 2782POPC   NC337103  11.281  35.369   9.464
 2782POPC   PO437104  11.289  35.356   9.164
 2782POPC   GL137105  11.336  35.325   8.864
 2782POPC   GL237106  11.183  35.359   8.864
 2782POPC   C1A37107  11.261  35.384   8.564
 2782POPC   D2A37108  11.269  35.329   8.264
 2782POPC   C3A37109  11.302  35.316   7.964
 2782POPC   C4A37110  11.341  35.347   7.664
 2782POPC   C1B37111  11.055  35.449   8.564
 2782POPC   C2B37112  11.070  35.498   8.264
 2782POPC   C3B37113  11.096  35.456   7.964
 2782POPC   C4B37114  11.036  35.454   7.664
 2783POPC   NC337115  24.486  25.219   9.464
 2783POPC   PO437116  24.527  25.314   9.164
 2783POPC   GL137117  24.450  25.295   8.864
 2783POPC   GL237118  24.427  25.372   8.864
 2783POPC   C1A37119  24.459  25.244   8.564
 2783POPC   D2A37120  24.505  25.230   8.264
 2783POPC   C3A37121  24.507  25.223   7.964
 2783POPC   C4A37122  24.473  25.305   7.664
 2783POPC   C1B37123  24.432  25.473   8.564
 2783POPC   C2B37124  24.424  25.555   8.264
 2783POPC   C3B37125  24.393  25.504   7.964
 2783POPC   C4B37126  24.431  25.504   7.664
 2784POPC   NC337127  29.192  10.535   9.464
 2784POPC   PO437128  29.174  10.517   9.164
 2784POPC   GL137129  29.173  10.496   8.864
 2784POPC   GL237130  29.152  10.599   8.864
 2784POPC   C1A37131  29.169  10.564   8.564
 2784POPC   D2A37132  29.130  10.498   8.264
 2784POPC   C3A37133  29.129  10.542   7.964
 2784POPC   C4A37134  29.123  10.508   7.664
 2784POPC   C1B37135  29.157  10.776   8.564
 2784POPC   C2B37136  29.121  10.754   8.264
 2784POPC   C3B37137  29.155  10.803   7.964
 2784POPC   C4B37138  29.136  10.819   7.664
 2785POPC   NC337139  23.672  30.725   9.464
 2785POPC   PO437140  23.710  30.730   9.164
 2785POPC   GL137141  23.735  30.703   8.864
 2785POPC   GL237142  23.807  30.813   8.864
 2785POPC   C1A37143  23.763  30.693   8.564
 2785POPC   D2A37144  23.726  30.689   8.264
 2785POPC   C3A37145  23.722  30.713   7.964
 2785POPC   C4A37146  23.669  30.658   7.664
 2785POPC   C1B37147  23.873  30.934   8.564
 2785POPC   C2B37148  23.815  30.883   8.264
 2785POPC   C3B37149  23.870  30.944   7.964
 2785POPC   C4B37150  23.795  30.898   7.664
 2786POPC   NC337151  30.722  37.675   9.464
 2786POPC   PO437152  30.722  37.700   9.164
 2786POPC   GL137153  30.723  37.715   8.864
 2786POPC   GL237154  30.728  37.755   8.864
 2786POPC   C1A37155  30.672  37.707   8.564
 2786POPC   D2A37156  30.715  37.726   8.264
 2786POPC   C3A37157  30.682  37.678   7.964
 2786POPC   C4A37158  30.703  37.710   7.664
 2786POPC   C1B37159  30.771  37.959   8.564
 2786POPC   C2B37160  30.761  37.869   8.264
 2786POPC   C3B37161  30.748  37.886   7.964
 2786POPC   C4B37162  30.750  37.894   7.664
 2787POPC   NC337163  12.839   3.509   9.464
 2787POPC   PO437164  12.852   3.561   9.164
 2787POPC   GL137165  12.863   3.496   8.864
 2787POPC   GL237166  12.926   3.405   8.864
 2787POPC   C1A37167  12.825   3.537   8.564
 2787POPC   D2A37168  12.846   3.560   8.264
 2787POPC   C3A37169  12.857   3.520   7.964
 2787POPC   C4A37170  12.867   3.590   7.664
 2787POPC   C1B37171  13.039   3.365   8.564
 2787POPC   C2B37172  12.997   3.383   8.264
 2787POPC   C3B37173  13.003   3.360   7.964
 2787POPC   C4B37174  13.026   3.321   7.664
 2788POPC   NC337175   4.353  24.517   9.464
 2788POPC   PO437176   4.312  24.533   9.164
 2788POPC   GL137177   4.302  24.444   8.864
 2788POPC   GL237178   4.475  24.435   8.864
 2788POPC   C1A37179   4.279  24.534   8.564
 2788POPC   D2A37180   4.342  24.490   8.264
 2788POPC   C3A37181   4.340  24.538   7.964
 2788POPC   C4A37182   4.333  24.529   7.664
 2788POPC   C1B37183   4.548  24.413   8.564
 2788POPC   C2B37184   4.580  24.439   8.264
 2788POPC   C3B37185   4.604  24.474   7.964
 2788POPC   C4B37186   4.600  24.491   7.664
 2789POPC   NC337187  35.346  11.324   9.464
 2789POPC   PO437188  35.313  11.316   9.164
 2789POPC   GL137189  35.361  11.253   8.864
 2789POPC   GL237190  35.197  11.350   8.864
 2789POPC   C1A37191  35.385  11.291   8.564
 2789POPC   D2A37192  35.306  11.325   8.264
 2789POPC   C3A37193  35.394  11.255   7.964
 2789POPC   C4A37194  35.401  11.311   7.664
 2789POPC   C1B37195  35.122  11.358   8.564
 2789POPC   C2B37196  35.076  11.403   8.264
 2789POPC   C3B37197  35.156  11.400   7.964
 2789POPC   C4B37198  35.115  11.329   7.664
 2790POPC   NC337199  33.050   5.090   9.464
 2790POPC   PO437200  32.994   5.063   9.164
 2790POPC   GL137201  33.071   5.060   8.864
 2790POPC   GL237202  33.079   5.193   8.864
 2790POPC   C1A37203  33.004   5.100   8.564
 2790POPC   D2A37204  33.040   5.084   8.264
 2790POPC   C3A37205  33.036   5.120   7.964
 2790POPC   C4A37206  33.072   5.100   7.664
 2790POPC   C1B37207  33.083   5.337   8.564
 2790POPC   C2B37208  33.123   5.365   8.264
 2790POPC   C3B37209  33.069   5.324   7.964
 2790POPC   C4B37210  33.141   5.357   7.664
 2791POPC   NC337211   5.857  15.194   9.464
 2791POPC   PO437212   5.882  15.224   9.164
 2791POPC   GL137213   5.866  15.136   8.864
 2791POPC   GL237214   5.846  15.036   8.864
 2791POPC   C1A37215   5.851  15.159   8.564
 2791POPC   D2A37216   5.903  15.220   8.264
 2791POPC   C3A37217   5.909  15.174   7.964
 2791POPC   C4A37218   5.834  15.154   7.664
 2791POPC   C1B37219   5.870  14.954   8.564
 2791POPC   C2B37220   5.887  14.914   8.264
 2791POPC   C3B37221   5.800  14.967   7.964
 2791POPC   C4B37222   5.853  14.968   7.664
 2792POPC   NC337223   5.120  43.075   9.464
 2792POPC   PO437224   5.119  43.117   9.164
 2792POPC   GL137225   5.112  43.127   8.864
 2792POPC   GL237226   4.985  43.029   8.864
 2792POPC   C1A37227   5.091  43.124   8.564
 2792POPC   D2A37228   5.142  43.060   8.264
 2792POPC   C3A37229   5.092  43.088   7.964
 2792POPC   C4A37230   5.140  43.123   7.664
 2792POPC   C1B37231   4.854  42.995   8.564
 2792POPC   C2B37232   4.845  43.032   8.264
 2792POPC   C3B37233   4.879  43.006   7.964
 2792POPC   C4B37234   4.842  42.986   7.664
 2793POPC   NC337235  33.035  38.484   9.464
 2793POPC   PO437236  33.023  38.432   9.164
 2793POPC   GL137237  32.981  38.436   8.864
 2793POPC   GL237238  32.914  38.380   8.864
 2793POPC   C1A37239  33.004  38.414   8.564
 2793POPC   D2A37240  33.005  38.491   8.264
 2793POPC   C3A37241  33.060  38.405   7.964
 2793POPC   C4A37242  33.051  38.458   7.664
 2793POPC   C1B37243  32.925  38.205   8.564
 2793POPC   C2B37244  32.899  38.273   8.264
 2793POPC   C3B37245  32.935  38.254   7.964
 2793POPC   C4B37246  32.870  38.226   7.664
 2794POPC   NC337247  44.698  29.936   9.464
 2794POPC   PO437248  44.702  29.918   9.164
 2794POPC   GL137249  44.615  29.890   8.864
 2794POPC   GL237250  44.745  30.014   8.864
 2794POPC   C1A37251  44.618  29.940   8.564
 2794POPC   D2A37252  44.663  29.929   8.264
 2794POPC   C3A37253  44.656  29.907   7.964
 2794POPC   C4A37254  44.707  29.949   7.664
 2794POPC   C1B37255  44.806  30.125   8.564
 2794POPC   C2B37256  44.857  30.141   8.264
 2794POPC   C3B37257  44.860  30.106   7.964
 2794POPC   C4B37258  44.823  30.133   7.664
 2795POPC   NC337259  28.355  21.400   9.464
 2795POPC   PO437260  28.353  21.394   9.164
 2795POPC   GL137261  28.399  21.346   8.864
 2795POPC   GL237262  28.227  21.329   8.864
 2795POPC   C1A37263  28.364  21.340   8.564
 2795POPC   D2A37264  28.392  21.357   8.264
 2795POPC   C3A37265  28.371  21.364   7.964
 2795POPC   C4A37266  28.370  21.403   7.664
 2795POPC   C1B37267  28.134  21.239   8.564
 2795POPC   C2B37268  28.158  21.266   8.264
 2795POPC   C3B37269  28.179  21.237   7.964
 2795POPC   C4B37270  28.115  21.205   7.664
 2796POPC   NC337271  20.604  18.311   9.464
 2796POPC   PO437272  20.630  18.302   9.164
 2796POPC   GL137273  20.645  18.326   8.864
 2796POPC   GL237274  20.509  18.254   8.864
 2796POPC   C1A37275  20.619  18.303   8.564
 2796POPC   D2A37276  20.616  18.248   8.264
 2796POPC   C3A37277  20.614  18.310   7.964
 2796POPC   C4A37278  20.644  18.329   7.664
 2796POPC   C1B37279  20.377  18.172   8.564
 2796POPC   C2B37280  20.418  18.150   8.264
 2796POPC   C3B37281  20.423  18.174   7.964
 2796POPC   C4B37282  20.410  18.141   7.664
 2797POPC   NC337283  43.930  22.177   9.464
 2797POPC   PO437284  43.878  22.177   9.164
 2797POPC   GL137285  43.894  22.167   8.864
 2797POPC   GL237286  44.022  22.062   8.864
 2797POPC   C1A37287  43.916  22.131   8.564
 2797POPC   D2A37288  43.883  22.167   8.264
 2797POPC   C3A37289  43.910  22.135   7.964
 2797POPC   C4A37290  43.935  22.203   7.664
 2797POPC   C1B37291  44.092  22.006   8.564
 2797POPC   C2B37292  44.086  21.951   8.264
 2797POPC   C3B37293  44.054  21.942   7.964
 2797POPC   C4B37294  44.063  22.009   7.664
 2798POPC   NC337295  30.729  20.589   9.464
 2798POPC   PO437296  30.734  20.589   9.164
 2798POPC   GL137297  30.652  20.567   8.864
 2798POPC   GL237298  30.781  20.583   8.864
 2798POPC   C1A37299  30.686  20.578   8.564
 2798POPC   D2A37300  30.701  20.642   8.264
 2798POPC   C3A37301  30.707  20.580   7.964
 2798POPC   C4A37302  30.735  20.567   7.664
 2798POPC   C1B37303  30.920  20.607   8.564
 2798POPC   C2B37304  30.927  20.634   8.264
 2798POPC   C3B37305  30.977  20.653   7.964
 2798POPC   C4B37306  30.993  20.626   7.664
 2799POPC   NC337307  19.011  32.259   9.464
 2799POPC   PO437308  19.100  32.256   9.164
 2799POPC   GL137309  19.083  32.223   8.864
 2799POPC   GL237310  18.925  32.255   8.864
 2799POPC   C1A37311  19.084  32.221   8.564
 2799POPC   D2A37312  19.069  32.221   8.264
 2799POPC   C3A37313  19.025  32.223   7.964
 2799POPC   C4A37314  19.097  32.218   7.664
 2799POPC   C1B37315  18.860  32.146   8.564
 2799POPC   C2B37316  18.774  32.118   8.264
 2799POPC   C3B37317  18.796  32.200   7.964
 2799POPC   C4B37318  18.805  32.163   7.664
 2800POPC   NC337319  33.051  32.977   9.464
 2800POPC   PO437320  33.019  33.025   9.164
 2800POPC   GL137321  33.058  33.039   8.864
 2800POPC   GL237322  33.061  32.896   8.864
 2800POPC   C1A37323  32.988  33.008   8.564
 2800POPC   D2A37324  33.005  33.035   8.264
 2800POPC   C3A37325  32.978  33.023   7.964
 2800POPC   C4A37326  33.005  33.063   7.664
 2800POPC   C1B37327  33.195  32.830   8.564
 2800POPC   C2B37328  33.185  32.877   8.264
 2800POPC   C3B37329  33.183  32.825   7.964
 2800POPC   C4B37330  33.172  32.878   7.664
 2801POPC   NC337331  38.479   4.292   9.464
 2801POPC   PO437332  38.418   4.347   9.164
 2801POPC   GL137333  38.434   4.312   8.864
 2801POPC   GL237334  38.452   4.221   8.864
 2801POPC   C1A37335  38.468   4.359   8.564
 2801POPC   D2A37336  38.487   4.310   8.264
 2801POPC   C3A37337  38.485   4.283   7.964
 2801POPC   C4A37338  38.421   4.357   7.664
 2801POPC   C1B37339  38.461   4.037   8.564
 2801POPC   C2B37340  38.498   4.038   8.264
 2801POPC   C3B37341  38.512   4.059   7.964
 2801POPC   C4B37342  38.559   4.039   7.664
 2802POPC   NC337343  42.312  20.603   9.464
 2802POPC   PO437344  42.355  20.650   9.164
 2802POPC   GL137345  42.362  20.585   8.864
 2802POPC   GL237346  42.215  20.576   8.864
 2802POPC   C1A37347  42.382  20.654   8.564
 2802POPC   D2A37348  42.300  20.569   8.264
 2802POPC   C3A37349  42.335  20.602   7.964
 2802POPC   C4A37350  42.312  20.573   7.664
 2802POPC   C1B37351  42.110  20.413   8.564
 2802POPC   C2B37352  42.112  20.462   8.264
 2802POPC   C3B37353  42.121  20.481   7.964
 2802POPC   C4B37354  42.117  20.480   7.664
 2803POPC   NC337355   2.766  21.411   9.464
 2803POPC   PO437356   2.724  21.370   9.164
 2803POPC   GL137357   2.739  21.373   8.864
 2803POPC   GL237358   2.903  21.359   8.864
 2803POPC   C1A37359   2.777  21.364   8.564
 2803POPC   D2A37360   2.729  21.398   8.264
 2803POPC   C3A37361   2.736  21.364   7.964
 2803POPC   C4A37362   2.724  21.365   7.664
 2803POPC   C1B37363   2.990  21.251   8.564
 2803POPC   C2B37364   2.991  21.283   8.264
 2803POPC   C3B37365   2.937  21.187   7.964
 2803POPC   C4B37366   2.957  21.202   7.664
 2804POPC   NC337367  24.469  11.306   9.464
 2804POPC   PO437368  24.522  11.252   9.164
 2804POPC   GL137369  24.518  11.344   8.864
 2804POPC   GL237370  24.381  11.386   8.864
 2804POPC   C1A37371  24.469  11.345   8.564
 2804POPC   D2A37372  24.509  11.328   8.264
 2804POPC   C3A37373  24.447  11.301   7.964
 2804POPC   C4A37374  24.537  11.317   7.664
 2804POPC   C1B37375  24.323  11.458   8.564
 2804POPC   C2B37376  24.344  11.550   8.264
 2804POPC   C3B37377  24.366  11.516   7.964
 2804POPC   C4B37378  24.375  11.546   7.664
 2805POPC   NC337379  34.534   2.810   9.464
 2805POPC   PO437380  34.531   2.738   9.164
 2805POPC   GL137381  34.586   2.785   8.864
 2805POPC   GL237382  34.509   2.912   8.864
 2805POPC   C1A37383  34.559   2.728   8.564
 2805POPC   D2A37384  34.615   2.739   8.264
 2805POPC   C3A37385  34.583   2.785   7.964
 2805POPC   C4A37386  34.538   2.728   7.664
 2805POPC   C1B37387  34.477   3.005   8.564
 2805POPC   C2B37388  34.447   3.014   8.264
 2805POPC   C3B37389  34.431   2.955   7.964
 2805POPC   C4B37390  34.454   2.979   7.664
 2806POPC   NC337391  31.453  43.085   9.464
 2806POPC   PO437392  31.495  43.062   9.164
 2806POPC   GL137393  31.495  43.151   8.864
 2806POPC   GL237394  31.380  43.010   8.864
 2806POPC   C1A37395  31.501  43.095   8.564
 2806POPC   D2A37396  31.445  43.083   8.264
 2806POPC   C3A37397  31.497  43.080   7.964
 2806POPC   C4A37398  31.469  43.094   7.664
 2806POPC   C1B37399  31.301  42.901   8.564
 2806POPC   C2B37400  31.256  42.885   8.264
 2806POPC   C3B37401  31.312  42.952   7.964
 2806POPC   C4B37402  31.309  42.921   7.664
 2807POPC   NC337403  20.605   4.335   9.464
 2807POPC   PO437404  20.618   4.322   9.164
 2807POPC   GL137405  20.633   4.364   8.864
 2807POPC   GL237406  20.549   4.437   8.864
 2807POPC   C1A37407  20.572   4.344   8.564
 2807POPC   D2A37408  20.650   4.324   8.264
 2807POPC   C3A37409  20.659   4.359   7.964
 2807POPC   C4A37410  20.642   4.275   7.664
 2807POPC   C1B37411  20.509   4.559   8.564
 2807POPC   C2B37412  20.539   4.580   8.264
 2807POPC   C3B37413  20.532   4.524   7.964
 2807POPC   C4B37414  20.543   4.561   7.664
 2808POPC   NC337415  39.999  23.696   9.464
 2808POPC   PO437416  40.029  23.673   9.164
 2808POPC   GL137417  40.012  23.696   8.864
 2808POPC   GL237418  40.013  23.808   8.864
 2808POPC   C1A37419  39.976  23.745   8.564
 2808POPC   D2A37420  39.994  23.718   8.264
 2808POPC   C3A37421  40.030  23.688   7.964
 2808POPC   C4A37422  40.020  23.697   7.664
 2808POPC   C1B37423  39.955  23.951   8.564
 2808POPC   C2B37424  40.005  24.012   8.264
 2808POPC   C3B37425  39.970  23.960   7.964
 2808POPC   C4B37426  39.949  24.000   7.664
 2809POPC   NC337427  33.037   2.015   9.464
 2809POPC   PO437428  33.054   2.002   9.164
 2809POPC   GL137429  32.981   1.959   8.864
 2809POPC   GL237430  33.120   1.937   8.864
 2809POPC   C1A37431  32.993   1.962   8.564
 2809POPC   D2A37432  33.065   1.960   8.264
 2809POPC   C3A37433  33.020   1.963   7.964
 2809POPC   C4A37434  33.067   2.031   7.664
 2809POPC   C1B37435  33.210   1.838   8.564
 2809POPC   C2B37436  33.227   1.841   8.264
 2809POPC   C3B37437  33.281   1.911   7.964
 2809POPC   C4B37438  33.246   1.895   7.664
 2810POPC   NC337439   0.405  19.858   9.464
 2810POPC   PO437440   0.412  19.822   9.164
 2810POPC   GL137441   0.422  19.859   8.864
 2810POPC   GL237442   0.375  19.939   8.864
 2810POPC   C1A37443   0.450  19.809   8.564
 2810POPC   D2A37444   0.399  19.843   8.264
 2810POPC   C3A37445   0.391  19.791   7.964
 2810POPC   C4A37446   0.449  19.787   7.664
 2810POPC   C1B37447   0.381  20.038   8.564
 2810POPC   C2B37448   0.359  20.063   8.264
 2810POPC   C3B37449   0.393  20.036   7.964
 2810POPC   C4B37450   0.320  20.105   7.664
 2811POPC   NC337451  26.038  10.488   9.464
 2811POPC   PO437452  26.078  10.549   9.164
 2811POPC   GL137453  26.042  10.524   8.864
 2811POPC   GL237454  26.059  10.409   8.864
 2811POPC   C1A37455  26.040  10.507   8.564
 2811POPC   D2A37456  26.084  10.517   8.264
 2811POPC   C3A37457  26.084  10.563   7.964
 2811POPC   C4A37458  26.070  10.545   7.664
 2811POPC   C1B37459  26.120  10.326   8.564
 2811POPC   C2B37460  26.081  10.327   8.264
 2811POPC   C3B37461  26.131  10.243   7.964
 2811POPC   C4B37462  26.098  10.287   7.664
 2812POPC   NC337463  35.341  38.418   9.464
 2812POPC   PO437464  35.392  38.408   9.164
 2812POPC   GL137465  35.332  38.433   8.864
 2812POPC   GL237466  35.399  38.337   8.864
 2812POPC   C1A37467  35.345  38.497   8.564
 2812POPC   D2A37468  35.355  38.464   8.264
 2812POPC   C3A37469  35.362  38.451   7.964
 2812POPC   C4A37470  35.327  38.448   7.664
 2812POPC   C1B37471  35.455  38.290   8.564
 2812POPC   C2B37472  35.538  38.212   8.264
 2812POPC   C3B37473  35.519  38.289   7.964
 2812POPC   C4B37474  35.495  38.252   7.664
 2813POPC   NC337475  14.415   5.107   9.464
 2813POPC   PO437476  14.373   5.139   9.164
 2813POPC   GL137477  14.446   5.051   8.864
 2813POPC   GL237478  14.469   4.932   8.864
 2813POPC   C1A37479  14.389   5.108   8.564
 2813POPC   D2A37480  14.367   5.105   8.264
 2813POPC   C3A37481  14.362   5.124   7.964
 2813POPC   C4A37482  14.424   5.101   7.664
 2813POPC   C1B37483  14.437   4.880   8.564
 2813POPC   C2B37484  14.457   4.813   8.264
 2813POPC   C3B37485  14.438   4.895   7.964
 2813POPC   C4B37486  14.457   4.831   7.664
 2814POPC   NC337487   8.965  11.341   9.464
 2814POPC   PO437488   8.939  11.283   9.164
 2814POPC   GL137489   9.022  11.281   8.864
 2814POPC   GL237490   8.910  11.375   8.864
 2814POPC   C1A37491   8.969  11.332   8.564
 2814POPC   D2A37492   8.954  11.297   8.264
 2814POPC   C3A37493   8.944  11.263   7.964
 2814POPC   C4A37494   8.981  11.266   7.664
 2814POPC   C1B37495   8.837  11.492   8.564
 2814POPC   C2B37496   8.803  11.454   8.264
 2814POPC   C3B37497   8.823  11.453   7.964
 2814POPC   C4B37498   8.812  11.494   7.664
 2815POPC   NC337499  28.418  18.287   9.464
 2815POPC   PO437500  28.404  18.320   9.164
 2815POPC   GL137501  28.341  18.304   8.864
 2815POPC   GL237502  28.503  18.239   8.864
 2815POPC   C1A37503  28.417  18.280   8.564
 2815POPC   D2A37504  28.381  18.306   8.264
 2815POPC   C3A37505  28.338  18.251   7.964
 2815POPC   C4A37506  28.407  18.243   7.664
 2815POPC   C1B37507  28.618  18.108   8.564
 2815POPC   C2B37508  28.539  18.185   8.264
 2815POPC   C3B37509  28.606  18.150   7.964
 2815POPC   C4B37510  28.557  18.125   7.664
 2816POPC   NC337511   2.009   4.321   9.464
 2816POPC   PO437512   1.944   4.292   9.164
 2816POPC   GL137513   2.017   4.329   8.864
 2816POPC   GL237514   2.100   4.346   8.864
 2816POPC   C1A37515   2.036   4.320   8.564
 2816POPC   D2A37516   2.032   4.322   8.264
 2816POPC   C3A37517   1.996   4.287   7.964
 2816POPC   C4A37518   2.026   4.350   7.664
 2816POPC   C1B37519   2.195   4.404   8.564
 2816POPC   C2B37520   2.239   4.311   8.264
 2816POPC   C3B37521   2.280   4.365   7.964
 2816POPC   C4B37522   2.256   4.368   7.664
 2817POPC   NC337523   4.326  29.098   9.464
 2817POPC   PO437524   4.275  29.115   9.164
 2817POPC   GL137525   4.345  29.113   8.864
 2817POPC   GL237526   4.310  28.987   8.864
 2817POPC   C1A37527   4.331  29.159   8.564
 2817POPC   D2A37528   4.272  29.171   8.264
 2817POPC   C3A37529   4.290  29.156   7.964
 2817POPC   C4A37530   4.339  29.098   7.664
 2817POPC   C1B37531   4.357  28.898   8.564
 2817POPC   C2B37532   4.377  28.948   8.264
 2817POPC   C3B37533   4.361  28.925   7.964
 2817POPC   C4B37534   4.412  28.882   7.664
 2818POPC   NC337535   0.399   9.789   9.464
 2818POPC   PO437536   0.389   9.715   9.164
 2818POPC   GL137537   0.446   9.728   8.864
 2818POPC   GL237538   0.431   9.843   8.864
 2818POPC   C1A37539   0.447   9.728   8.564
 2818POPC   D2A37540   0.456   9.710   8.264
 2818POPC   C3A37541   0.389   9.706   7.964
 2818POPC   C4A37542   0.442   9.707   7.664
 2818POPC   C1B37543   0.411   9.980   8.564
 2818POPC   C2B37544   0.456   9.977   8.264
 2818POPC   C3B37545   0.388  10.024   7.964
 2818POPC   C4B37546   0.406  10.016   7.664
 2819POPC   NC337547  16.781  43.936   9.464
 2819POPC   PO437548  16.708  43.844   9.164
 2819POPC   GL137549  16.773  43.857   8.864
 2819POPC   GL237550  16.574  43.928   8.864
 2819POPC   C1A37551  16.740  43.914   8.564
 2819POPC   D2A37552  16.764  43.899   8.264
 2819POPC   C3A37553  16.721  43.912   7.964
 2819POPC   C4A37554  16.717  43.934   7.664
 2819POPC   C1B37555  16.458  43.962   8.564
 2819POPC   C2B37556  16.455  43.969   8.264
 2819POPC   C3B37557  16.475  43.902   7.964
 2819POPC   C4B37558  16.512  43.961   7.664
 2820POPC   NC337559   7.423   8.240   9.464
 2820POPC   PO437560   7.456   8.223   9.164
 2820POPC   GL137561   7.388   8.181   8.864
 2820POPC   GL237562   7.532   8.277   8.864
 2820POPC   C1A37563   7.379   8.228   8.564
 2820POPC   D2A37564   7.468   8.238   8.264
 2820POPC   C3A37565   7.466   8.188   7.964
 2820POPC   C4A37566   7.393   8.209   7.664
 2820POPC   C1B37567   7.529   8.384   8.564
 2820POPC   C2B37568   7.557   8.379   8.264
 2820POPC   C3B37569   7.541   8.402   7.964
 2820POPC   C4B37570   7.554   8.397   7.664
 2821POPC   NC337571   9.010  36.927   9.464
 2821POPC   PO437572   8.990  36.915   9.164
 2821POPC   GL137573   8.934  36.874   8.864
 2821POPC   GL237574   9.089  36.965   8.864
 2821POPC   C1A37575   8.934  36.898   8.564
 2821POPC   D2A37576   8.933  36.871   8.264
 2821POPC   C3A37577   8.932  36.856   7.964
 2821POPC   C4A37578   8.930  36.943   7.664
 2821POPC   C1B37579   9.131  37.064   8.564
 2821POPC   C2B37580   9.130  37.049   8.264
 2821POPC   C3B37581   9.167  37.049   7.964
 2821POPC   C4B37582   9.142  37.038   7.664
 2822POPC   NC337583  18.297  22.143   9.464
 2822POPC   PO437584  18.246  22.117   9.164
 2822POPC   GL137585  18.332  22.180   8.864
 2822POPC   GL237586  18.370  22.290   8.864
 2822POPC   C1A37587  18.236  22.133   8.564
 2822POPC   D2A37588  18.304  22.141   8.264
 2822POPC   C3A37589  18.291  22.188   7.964
 2822POPC   C4A37590  18.298  22.172   7.664
 2822POPC   C1B37591  18.424  22.335   8.564
 2822POPC   C2B37592  18.446  22.335   8.264
 2822POPC   C3B37593  18.429  22.365   7.964
 2822POPC   C4B37594  18.481  22.313   7.664
 2823POPC   NC337595  16.754  36.916   9.464
 2823POPC   PO437596  16.737  36.883   9.164
 2823POPC   GL137597  16.727  36.901   8.864
 2823POPC   GL237598  16.618  36.853   8.864
 2823POPC   C1A37599  16.712  36.917   8.564
 2823POPC   D2A37600  16.747  36.897   8.264
 2823POPC   C3A37601  16.760  36.898   7.964
 2823POPC   C4A37602  16.728  36.891   7.664
 2823POPC   C1B37603  16.499  36.775   8.564
 2823POPC   C2B37604  16.557  36.738   8.264
 2823POPC   C3B37605  16.480  36.746   7.964
 2823POPC   C4B37606  16.544  36.787   7.664
 2824POPC   NC337607   8.943  27.591   9.464
 2824POPC   PO437608   8.971  27.582   9.164
 2824POPC   GL137609   8.954  27.623   8.864
 2824POPC   GL237610   8.970  27.457   8.864
 2824POPC   C1A37611   9.001  27.548   8.564
 2824POPC   D2A37612   8.940  27.562   8.264
 2824POPC   C3A37613   9.008  27.583   7.964
 2824POPC   C4A37614   8.939  27.623   7.664
 2824POPC   C1B37615   8.933  27.301   8.564
 2824POPC   C2B37616   8.994  27.315   8.264
 2824POPC   C3B37617   9.017  27.359   7.964
 2824POPC   C4B37618   8.955  27.354   7.664
 2825POPC   NC337619  10.497  33.837   9.464
 2825POPC   PO437620  10.546  33.806   9.164
 2825POPC   GL137621  10.527  33.801   8.864
 2825POPC   GL237622  10.408  33.780   8.864
 2825POPC   C1A37623  10.541  33.787   8.564
 2825POPC   D2A37624  10.559  33.781   8.264
 2825POPC   C3A37625  10.511  33.827   7.964
 2825POPC   C4A37626  10.512  33.805   7.664
 2825POPC   C1B37627  10.267  33.777   8.564
 2825POPC   C2B37628  10.293  33.823   8.264
 2825POPC   C3B37629  10.299  33.815   7.964
 2825POPC   C4B37630  10.280  33.823   7.664
 2826POPC   NC337631  26.026   6.648   9.464
 2826POPC   PO437632  26.084   6.686   9.164
 2826POPC   GL137633  26.026   6.680   8.864
 2826POPC   GL237634  26.088   6.769   8.864
 2826POPC   C1A37635  26.042   6.646   8.564
 2826POPC   D2A37636  26.053   6.652   8.264
 2826POPC   C3A37637  26.054   6.619   7.964
 2826POPC   C4A37638  26.071   6.607   7.664
 2826POPC   C1B37639  26.038   6.910   8.564
 2826POPC   C2B37640  26.052   6.889   8.264
 2826POPC   C3B37641  26.041   6.938   7.964
 2826POPC   C4B37642  26.016   6.936   7.664
 2827POPC   NC337643  25.272  44.708   9.464
 2827POPC   PO437644  25.291  44.617   9.164
 2827POPC   GL137645  25.216  44.629   8.864
 2827POPC   GL237646  25.313  44.585   8.864
 2827POPC   C1A37647  25.289  44.662   8.564
 2827POPC   D2A37648  25.291  44.612   8.264
 2827POPC   C3A37649  25.237  44.632   7.964
 2827POPC   C4A37650  25.264  44.694   7.664
 2827POPC   C1B37651  25.372  44.421   8.564
 2827POPC   C2B37652  25.357  44.422   8.264
 2827POPC   C3B37653  25.436  44.470   7.964
 2827POPC   C4B37654  25.382  44.437   7.664
 2828POPC   NC337655  19.084  14.435   9.464
 2828POPC   PO437656  19.086  14.360   9.164
 2828POPC   GL137657  19.049  14.427   8.864
 2828POPC   GL237658  19.190  14.268   8.864
 2828POPC   C1A37659  19.104  14.382   8.564
 2828POPC   D2A37660  19.043  14.389   8.264
 2828POPC   C3A37661  19.081  14.423   7.964
 2828POPC   C4A37662  19.048  14.450   7.664
 2828POPC   C1B37663  19.273  14.228   8.564
 2828POPC   C2B37664  19.262  14.190   8.264
 2828POPC   C3B37665  19.206  14.183   7.964
 2828POPC   C4B37666  19.247  14.205   7.664
 2829POPC   NC337667   8.216  12.808   9.464
 2829POPC   PO437668   8.193  12.884   9.164
 2829POPC   GL137669   8.176  12.869   8.864
 2829POPC   GL237670   8.059  12.947   8.864
 2829POPC   C1A37671   8.159  12.811   8.564
 2829POPC   D2A37672   8.195  12.804   8.264
 2829POPC   C3A37673   8.235  12.808   7.964
 2829POPC   C4A37674   8.214  12.840   7.664
 2829POPC   C1B37675   8.003  13.032   8.564
 2829POPC   C2B37676   8.059  13.046   8.264
 2829POPC   C3B37677   8.022  13.002   7.964
 2829POPC   C4B37678   8.057  12.989   7.664
 2830POPC   NC337679  29.923  37.686   9.464
 2830POPC   PO437680  29.961  37.663   9.164
 2830POPC   GL137681  29.964  37.715   8.864
 2830POPC   GL237682  29.878  37.794   8.864
 2830POPC   C1A37683  29.951  37.663   8.564
 2830POPC   D2A37684  29.960  37.667   8.264
 2830POPC   C3A37685  29.900  37.644   7.964
 2830POPC   C4A37686  29.940  37.711   7.664
 2830POPC   C1B37687  29.864  37.885   8.564
 2830POPC   C2B37688  29.831  37.930   8.264
 2830POPC   C3B37689  29.835  37.907   7.964
 2830POPC   C4B37690  29.804  37.909   7.664
 2831POPC   NC337691   6.661  19.036   9.464
 2831POPC   PO437692   6.681  19.023   9.164
 2831POPC   GL137693   6.651  19.056   8.864
 2831POPC   GL237694   6.571  18.904   8.864
 2831POPC   C1A37695   6.605  19.061   8.564
 2831POPC   D2A37696   6.642  19.086   8.264
 2831POPC   C3A37697   6.600  19.034   7.964
 2831POPC   C4A37698   6.695  19.015   7.664
 2831POPC   C1B37699   6.564  18.832   8.564
 2831POPC   C2B37700   6.564  18.790   8.264
 2831POPC   C3B37701   6.497  18.817   7.964
 2831POPC   C4B37702   6.502  18.784   7.664
 2832POPC   NC337703  33.794  15.980   9.464
 2832POPC   PO437704  33.799  15.991   9.164
 2832POPC   GL137705  33.758  15.976   8.864
 2832POPC   GL237706  33.898  16.033   8.864
 2832POPC   C1A37707  33.796  15.945   8.564
 2832POPC   D2A37708  33.767  15.988   8.264
 2832POPC   C3A37709  33.816  15.945   7.964
 2832POPC   C4A37710  33.781  15.950   7.664
 2832POPC   C1B37711  33.996  16.199   8.564
 2832POPC   C2B37712  33.916  16.131   8.264
 2832POPC   C3B37713  33.919  16.200   7.964
 2832POPC   C4B37714  33.961  16.153   7.664
 2833POPC   NC337715  34.574  27.556   9.464
 2833POPC   PO437716  34.551  27.613   9.164
 2833POPC   GL137717  34.550  27.561   8.864
 2833POPC   GL237718  34.477  27.650   8.864
 2833POPC   C1A37719  34.555  27.552   8.564
 2833POPC   D2A37720  34.614  27.632   8.264
 2833POPC   C3A37721  34.564  27.626   7.964
 2833POPC   C4A37722  34.621  27.616   7.664
 2833POPC   C1B37723  34.345  27.655   8.564
 2833POPC   C2B37724  34.388  27.674   8.264
 2833POPC   C3B37725  34.382  27.738   7.964
 2833POPC   C4B37726  34.307  27.663   7.664
 2834POPC   NC337727  22.982  40.810   9.464
 2834POPC   PO437728  22.981  40.745   9.164
 2834POPC   GL137729  22.917  40.760   8.864
 2834POPC   GL237730  23.089  40.748   8.864
 2834POPC   C1A37731  22.957  40.780   8.564
 2834POPC   D2A37732  22.916  40.820   8.264
 2834POPC   C3A37733  22.949  40.780   7.964
 2834POPC   C4A37734  22.960  40.795   7.664
 2834POPC   C1B37735  23.234  40.769   8.564
 2834POPC   C2B37736  23.212  40.725   8.264
 2834POPC   C3B37737  23.163  40.790   7.964
 2834POPC   C4B37738  23.225  40.780   7.664
 2835POPC   NC337739  25.998  33.000   9.464
 2835POPC   PO437740  26.061  33.024   9.164
 2835POPC   GL137741  25.996  32.997   8.864
 2835POPC   GL237742  25.897  33.094   8.864
 2835POPC   C1A37743  26.061  33.068   8.564
 2835POPC   D2A37744  26.061  33.009   8.264
 2835POPC   C3A37745  26.084  32.996   7.964
 2835POPC   C4A37746  26.050  33.051   7.664
 2835POPC   C1B37747  25.882  33.137   8.564
 2835POPC   C2B37748  25.837  33.128   8.264
 2835POPC   C3B37749  25.852  33.152   7.964
 2835POPC   C4B37750  25.847  33.151   7.664
 2836POPC   NC337751   1.209  43.065   9.464
 2836POPC   PO437752   1.257  43.135   9.164
 2836POPC   GL137753   1.197  43.145   8.864
 2836POPC   GL237754   1.239  43.216   8.864
 2836POPC   C1A37755   1.218  43.096   8.564
 2836POPC   D2A37756   1.206  43.158   8.264
 2836POPC   C3A37757   1.236  43.089   7.964
 2836POPC   C4A37758   1.167  43.130   7.664
 2836POPC   C1B37759   1.263  43.337   8.564
 2836POPC   C2B37760   1.288  43.357   8.264
 2836POPC   C3B37761   1.228  43.322   7.964
 2836POPC   C4B37762   1.241  43.360   7.664
 2837POPC   NC337763  33.825  36.142   9.464
 2837POPC   PO437764  33.768  36.112   9.164
 2837POPC   GL137765  33.759  36.115   8.864
 2837POPC   GL237766  33.685  36.161   8.864
 2837POPC   C1A37767  33.801  36.113   8.564
 2837POPC   D2A37768  33.766  36.147   8.264
 2837POPC   C3A37769  33.775  36.164   7.964
 2837POPC   C4A37770  33.774  36.110   7.664
 2837POPC   C1B37771  33.565  36.092   8.564
 2837POPC   C2B37772  33.581  36.098   8.264
 2837POPC   C3B37773  33.532  36.109   7.964
 2837POPC   C4B37774  33.595  36.105   7.664
 2838POPC   NC337775  29.950  26.072   9.464
 2838POPC   PO437776  29.881  26.048   9.164
 2838POPC   GL137777  29.906  26.064   8.864
 2838POPC   GL237778  29.845  26.081   8.864
 2838POPC   C1A37779  29.962  26.010   8.564
 2838POPC   D2A37780  29.934  26.072   8.264
 2838POPC   C3A37781  29.917  26.038   7.964
 2838POPC   C4A37782  29.906  26.008   7.664
 2838POPC   C1B37783  29.709  26.017   8.564
 2838POPC   C2B37784  29.627  26.015   8.264
 2838POPC   C3B37785  29.713  26.075   7.964
 2838POPC   C4B37786  29.683  26.081   7.664
 2839POPC   NC337787  20.616  15.909   9.464
 2839POPC   PO437788  20.638  15.920   9.164
 2839POPC   GL137789  20.605  15.964   8.864
 2839POPC   GL237790  20.746  15.865   8.864
 2839POPC   C1A37791  20.597  15.987   8.564
 2839POPC   D2A37792  20.616  15.955   8.264
 2839POPC   C3A37793  20.631  15.927   7.964
 2839POPC   C4A37794  20.626  15.929   7.664
 2839POPC   C1B37795  20.808  15.790   8.564
 2839POPC   C2B37796  20.775  15.853   8.264
 2839POPC   C3B37797  20.775  15.823   7.964
 2839POPC   C4B37798  20.775  15.785   7.664
 2840POPC   NC337799  15.953   3.582   9.464
 2840POPC   PO437800  15.944   3.563   9.164
 2840POPC   GL137801  15.962   3.511   8.864
 2840POPC   GL237802  15.880   3.603   8.864
 2840POPC   C1A37803  15.932   3.520   8.564
 2840POPC   D2A37804  15.975   3.567   8.264
 2840POPC   C3A37805  15.990   3.525   7.964
 2840POPC   C4A37806  15.948   3.500   7.664
 2840POPC   C1B37807  15.724   3.547   8.564
 2840POPC   C2B37808  15.717   3.579   8.264
 2840POPC   C3B37809  15.713   3.629   7.964
 2840POPC   C4B37810  15.668   3.556   7.664
 2841POPC   NC337811  16.001   5.112   9.464
 2841POPC   PO437812  15.936   5.107   9.164
 2841POPC   GL137813  15.942   5.079   8.864
 2841POPC   GL237814  15.853   4.949   8.864
 2841POPC   C1A37815  15.952   5.078   8.564
 2841POPC   D2A37816  15.945   5.054   8.264
 2841POPC   C3A37817  15.958   5.081   7.964
 2841POPC   C4A37818  15.929   5.121   7.664
 2841POPC   C1B37819  15.847   4.874   8.564
 2841POPC   C2B37820  15.839   4.879   8.264
 2841POPC   C3B37821  15.848   4.929   7.964
 2841POPC   C4B37822  15.827   4.900   7.664
 2842POPC   NC337823  19.059  22.936   9.464
 2842POPC   PO437824  19.037  22.896   9.164
 2842POPC   GL137825  19.105  22.958   8.864
 2842POPC   GL237826  18.932  23.047   8.864
 2842POPC   C1A37827  19.103  22.944   8.564
 2842POPC   D2A37828  19.025  22.912   8.264
 2842POPC   C3A37829  19.018  22.898   7.964
 2842POPC   C4A37830  19.054  22.899   7.664
 2842POPC   C1B37831  18.913  23.102   8.564
 2842POPC   C2B37832  18.905  23.110   8.264
 2842POPC   C3B37833  18.881  23.105   7.964
 2842POPC   C4B37834  18.850  23.112   7.664
 2843POPC   NC337835   8.148  43.144   9.464
 2843POPC   PO437836   8.165  43.150   9.164
 2843POPC   GL137837   8.202  43.100   8.864
 2843POPC   GL237838   8.283  42.994   8.864
 2843POPC   C1A37839   8.188  43.079   8.564
 2843POPC   D2A37840   8.170  43.121   8.264
 2843POPC   C3A37841   8.230  43.139   7.964
 2843POPC   C4A37842   8.221  43.135   7.664
 2843POPC   C1B37843   8.296  42.935   8.564
 2843POPC   C2B37844   8.356  42.909   8.264
 2843POPC   C3B37845   8.373  42.946   7.964
 2843POPC   C4B37846   8.334  42.866   7.664
 2844POPC   NC337847  10.540  37.649   9.464
 2844POPC   PO437848  10.505  37.638   9.164
 2844POPC   GL137849  10.533  37.637   8.864
 2844POPC   GL237850  10.520  37.521   8.864
 2844POPC   C1A37851  10.487  37.688   8.564
 2844POPC   D2A37852  10.477  37.646   8.264
 2844POPC   C3A37853  10.512  37.726   7.964
 2844POPC   C4A37854  10.528  37.720   7.664
 2844POPC   C1B37855  10.456  37.483   8.564
 2844POPC   C2B37856  10.378  37.413   8.264
 2844POPC   C3B37857  10.399  37.453   7.964
 2844POPC   C4B37858  10.403  37.453   7.664
 2845POPC   NC337859  44.707  28.414   9.464
 2845POPC   PO437860  44.699  28.364   9.164
 2845POPC   GL137861  44.641  28.343   8.864
 2845POPC   GL237862  44.653  28.287   8.864
 2845POPC   C1A37863  44.680  28.398   8.564
 2845POPC   D2A37864  44.712  28.402   8.264
 2845POPC   C3A37865  44.680  28.388   7.964
 2845POPC   C4A37866  44.622  28.382   7.664
 2845POPC   C1B37867  44.694  28.099   8.564
 2845POPC   C2B37868  44.718  28.125   8.264
 2845POPC   C3B37869  44.737  28.160   7.964
 2845POPC   C4B37870  44.657  28.157   7.664
 2846POPC   NC337871  26.848  42.344   9.464
 2846POPC   PO437872  26.816  42.326   9.164
 2846POPC   GL137873  26.768  42.380   8.864
 2846POPC   GL237874  26.944  42.391   8.864
 2846POPC   C1A37875  26.825  42.289   8.564
 2846POPC   D2A37876  26.835  42.337   8.264
 2846POPC   C3A37877  26.810  42.319   7.964
 2846POPC   C4A37878  26.858  42.368   7.664
 2846POPC   C1B37879  27.082  42.477   8.564
 2846POPC   C2B37880  26.998  42.452   8.264
 2846POPC   C3B37881  27.017  42.480   7.964
 2846POPC   C4B37882  27.065  42.477   7.664
 2847POPC   NC337883  11.303   1.177   9.464
 2847POPC   PO437884  11.290   1.217   9.164
 2847POPC   GL137885  11.267   1.231   8.864
 2847POPC   GL237886  11.281   1.312   8.864
 2847POPC   C1A37887  11.324   1.207   8.564
 2847POPC   D2A37888  11.302   1.196   8.264
 2847POPC   C3A37889  11.344   1.237   7.964
 2847POPC   C4A37890  11.282   1.206   7.664
 2847POPC   C1B37891  11.239   1.449   8.564
 2847POPC   C2B37892  11.244   1.426   8.264
 2847POPC   C3B37893  11.175   1.485   7.964
 2847POPC   C4B37894  11.171   1.438   7.664
 2848POPC   NC337895  37.671  22.965   9.464
 2848POPC   PO437896  37.652  22.895   9.164
 2848POPC   GL137897  37.672  22.953   8.864
 2848POPC   GL237898  37.655  22.863   8.864
 2848POPC   C1A37899  37.688  22.963   8.564
 2848POPC   D2A37900  37.673  22.968   8.264
 2848POPC   C3A37901  37.654  22.948   7.964
 2848POPC   C4A37902  37.676  22.962   7.664
 2848POPC   C1B37903  37.583  22.657   8.564
 2848POPC   C2B37904  37.570  22.657   8.264
 2848POPC   C3B37905  37.648  22.694   7.964
 2848POPC   C4B37906  37.590  22.730   7.664
 2849POPC   NC337907  42.306   1.947   9.464
 2849POPC   PO437908  42.296   1.994   9.164
 2849POPC   GL137909  42.308   2.021   8.864
 2849POPC   GL237910  42.323   1.861   8.864
 2849POPC   C1A37911  42.311   2.015   8.564
 2849POPC   D2A37912  42.314   1.950   8.264
 2849POPC   C3A37913  42.313   1.985   7.964
 2849POPC   C4A37914  42.297   2.036   7.664
 2849POPC   C1B37915  42.284   1.785   8.564
 2849POPC   C2B37916  42.351   1.734   8.264
 2849POPC   C3B37917  42.305   1.710   7.964
 2849POPC   C4B37918  42.284   1.785   7.664
 2850POPC   NC337919  15.167  43.141   9.464
 2850POPC   PO437920  15.222  43.141   9.164
 2850POPC   GL137921  15.220  43.074   8.864
 2850POPC   GL237922  15.103  43.012   8.864
 2850POPC   C1A37923  15.136  43.139   8.564
 2850POPC   D2A37924  15.167  43.155   8.264
 2850POPC   C3A37925  15.186  43.125   7.964
 2850POPC   C4A37926  15.190  43.090   7.664
 2850POPC   C1B37927  15.110  42.902   8.564
 2850POPC   C2B37928  15.101  42.876   8.264
 2850POPC   C3B37929  15.143  42.894   7.964
 2850POPC   C4B37930  15.104  42.874   7.664
 2851POPC   NC337931  23.724  39.203   9.464
 2851POPC   PO437932  23.666  39.201   9.164
 2851POPC   GL137933  23.691  39.221   8.864
 2851POPC   GL237934  23.639  39.261   8.864
 2851POPC   C1A37935  23.684  39.270   8.564
 2851POPC   D2A37936  23.704  39.203   8.264
 2851POPC   C3A37937  23.668  39.265   7.964
 2851POPC   C4A37938  23.706  39.253   7.664
 2851POPC   C1B37939  23.499  39.233   8.564
 2851POPC   C2B37940  23.418  39.286   8.264
 2851POPC   C3B37941  23.457  39.238   7.964
 2851POPC   C4B37942  23.452  39.272   7.664
 2852POPC   NC337943   0.424  42.362   9.464
 2852POPC   PO437944   0.417  42.317   9.164
 2852POPC   GL137945   0.470  42.297   8.864
 2852POPC   GL237946   0.431  42.198   8.864
 2852POPC   C1A37947   0.456  42.354   8.564
 2852POPC   D2A37948   0.441  42.360   8.264
 2852POPC   C3A37949   0.399  42.328   7.964
 2852POPC   C4A37950   0.476  42.323   7.664
 2852POPC   C1B37951   0.466  42.128   8.564
 2852POPC   C2B37952   0.458  42.070   8.264
 2852POPC   C3B37953   0.450  42.045   7.964
 2852POPC   C4B37954   0.420  42.100   7.664
 2853POPC   NC337955  43.099  14.412   9.464
 2853POPC   PO437956  43.076  14.359   9.164
 2853POPC   GL137957  43.096  14.359   8.864
 2853POPC   GL237958  42.998  14.446   8.864
 2853POPC   C1A37959  43.113  14.358   8.564
 2853POPC   D2A37960  43.070  14.445   8.264
 2853POPC   C3A37961  43.073  14.420   7.964
 2853POPC   C4A37962  43.087  14.385   7.664
 2853POPC   C1B37963  42.955  14.560   8.564
 2853POPC   C2B37964  42.955  14.547   8.264
 2853POPC   C3B37965  42.915  14.568   7.964
 2853POPC   C4B37966  42.957  14.548   7.664
 2854POPC   NC337967  22.891  10.542   9.464
 2854POPC   PO437968  22.938  10.525   9.164
 2854POPC   GL137969  22.959  10.563   8.864
 2854POPC   GL237970  22.869  10.561   8.864
 2854POPC   C1A37971  22.916  10.553   8.564
 2854POPC   D2A37972  22.928  10.563   8.264
 2854POPC   C3A37973  22.953  10.489   7.964
 2854POPC   C4A37974  22.915  10.534   7.664
 2854POPC   C1B37975  22.761  10.701   8.564
 2854POPC   C2B37976  22.693  10.691   8.264
 2854POPC   C3B37977  22.787  10.648   7.964
 2854POPC   C4B37978  22.703  10.641   7.664
 2855POPC   NC337979  23.731   2.007   9.464
 2855POPC   PO437980  23.701   1.983   9.164
 2855POPC   GL137981  23.698   1.979   8.864
 2855POPC   GL237982  23.847   1.941   8.864
 2855POPC   C1A37983  23.751   2.038   8.564
 2855POPC   D2A37984  23.714   2.016   8.264
 2855POPC   C3A37985  23.709   2.002   7.964
 2855POPC   C4A37986  23.734   1.964   7.664
 2855POPC   C1B37987  23.879   1.826   8.564
 2855POPC   C2B37988  23.883   1.760   8.264
 2855POPC   C3B37989  23.856   1.843   7.964
 2855POPC   C4B37990  23.911   1.803   7.664
 2856POPC   NC337991   1.962  17.480   9.464
 2856POPC   PO437992   1.960  17.465   9.164
 2856POPC   GL137993   1.981  17.502   8.864
 2856POPC   GL237994   2.007  17.430   8.864
 2856POPC   C1A37995   2.031  17.543   8.564
 2856POPC   D2A37996   2.028  17.457   8.264
 2856POPC   C3A37997   1.968  17.542   7.964
 2856POPC   C4A37998   2.003  17.530   7.664
 2856POPC   C1B37999   2.015  17.270   8.564
 2856POPC   C2B38000   2.045  17.259   8.264
 2856POPC   C3B38001   2.028  17.223   7.964
 2856POPC   C4B38002   2.017  17.271   7.664
 2857POPC   NC338003   5.129  23.685   9.464
 2857POPC   PO438004   5.123  23.697   9.164
 2857POPC   GL138005   5.122  23.744   8.864
 2857POPC   GL238006   5.179  23.766   8.864
 2857POPC   C1A38007   5.076  23.711   8.564
 2857POPC   D2A38008   5.061  23.673   8.264
 2857POPC   C3A38009   5.134  23.667   7.964
 2857POPC   C4A38010   5.122  23.714   7.664
 2857POPC   C1B38011   5.323  23.834   8.564
 2857POPC   C2B38012   5.313  23.818   8.264
 2857POPC   C3B38013   5.262  23.899   7.964
 2857POPC   C4B38014   5.255  23.913   7.664
 2858POPC   NC338015   2.751  32.256   9.464
 2858POPC   PO438016   2.752  32.245   9.164
 2858POPC   GL138017   2.781  32.283   8.864
 2858POPC   GL238018   2.713  32.157   8.864
 2858POPC   C1A38019   2.726  32.232   8.564
 2858POPC   D2A38020   2.754  32.252   8.264
 2858POPC   C3A38021   2.773  32.262   7.964
 2858POPC   C4A38022   2.807  32.285   7.664
 2858POPC   C1B38023   2.725  31.968   8.564
 2858POPC   C2B38024   2.683  32.020   8.264
 2858POPC   C3B38025   2.692  31.976   7.964
 2858POPC   C4B38026   2.644  32.057   7.664
 2859POPC   NC338027  15.954  40.744   9.464
 2859POPC   PO438028  15.922  40.795   9.164
 2859POPC   GL138029  15.971  40.812   8.864
 2859POPC   GL238030  15.861  40.922   8.864
 2859POPC   C1A38031  15.973  40.807   8.564
 2859POPC   D2A38032  15.997  40.747   8.264
 2859POPC   C3A38033  15.916  40.819   7.964
 2859POPC   C4A38034  15.955  40.816   7.664
 2859POPC   C1B38035  15.841  40.981   8.564
 2859POPC   C2B38036  15.778  40.971   8.264
 2859POPC   C3B38037  15.852  40.966   7.964
 2859POPC   C4B38038  15.817  40.946   7.664
 2860POPC   NC338039   5.141   6.654   9.464
 2860POPC   PO438040   5.105   6.654   9.164
 2860POPC   GL138041   5.044   6.595   8.864
 2860POPC   GL238042   5.231   6.639   8.864
 2860POPC   C1A38043   5.064   6.661   8.564
 2860POPC   D2A38044   5.109   6.692   8.264
 2860POPC   C3A38045   5.051   6.617   7.964
 2860POPC   C4A38046   5.078   6.681   7.664
 2860POPC   C1B38047   5.305   6.664   8.564
 2860POPC   C2B38048   5.357   6.726   8.264
 2860POPC   C3B38049   5.302   6.726   7.964
 2860POPC   C4B38050   5.317   6.709   7.664
 2861POPC   NC338051  32.203  16.762   9.464
 2861POPC   PO438052  32.265  16.748   9.164
 2861POPC   GL138053  32.243  16.735   8.864
 2861POPC   GL238054  32.291  16.578   8.864
 2861POPC   C1A38055  32.272  16.751   8.564
 2861POPC   D2A38056  32.205  16.741   8.264
 2861POPC   C3A38057  32.258  16.754   7.964
 2861POPC   C4A38058  32.275  16.780   7.664
 2861POPC   C1B38059  32.409  16.523   8.564
 2861POPC   C2B38060  32.336  16.564   8.264
 2861POPC   C3B38061  32.349  16.492   7.964
 2861POPC   C4B38062  32.383  16.559   7.664
 2862POPC   NC338063  29.907  15.998   9.464
 2862POPC   PO438064  29.888  15.967   9.164
 2862POPC   GL138065  29.929  15.950   8.864
 2862POPC   GL238066  29.771  16.029   8.864
 2862POPC   C1A38067  29.913  15.918   8.564
 2862POPC   D2A38068  29.942  15.963   8.264
 2862POPC   C3A38069  29.958  15.993   7.964
 2862POPC   C4A38070  29.951  15.949   7.664
 2862POPC   C1B38071  29.685  16.068   8.564
 2862POPC   C2B38072  29.728  16.133   8.264
 2862POPC   C3B38073  29.709  16.135   7.964
 2862POPC   C4B38074  29.762  16.108   7.664
 2863POPC   NC338075  23.682  23.725   9.464
 2863POPC   PO438076  23.740  23.701   9.164
 2863POPC   GL138077  23.693  23.734   8.864
 2863POPC   GL238078  23.783  23.596   8.864
 2863POPC   C1A38079  23.679  23.726   8.564
 2863POPC   D2A38080  23.679  23.741   8.264
 2863POPC   C3A38081  23.674  23.736   7.964
 2863POPC   C4A38082  23.734  23.704   7.664
 2863POPC   C1B38083  23.882  23.532   8.564
 2863POPC   C2B38084  23.838  23.497   8.264
 2863POPC   C3B38085  23.842  23.522   7.964
 2863POPC   C4B38086  23.846  23.487   7.664
 2864POPC   NC338087  43.123  31.506   9.464
 2864POPC   PO438088  43.086  31.477   9.164
 2864POPC   GL138089  43.085  31.485   8.864
 2864POPC   GL238090  43.200  31.614   8.864
 2864POPC   C1A38091  43.124  31.521   8.564
 2864POPC   D2A38092  43.125  31.430   8.264
 2864POPC   C3A38093  43.127  31.519   7.964
 2864POPC   C4A38094  43.133  31.522   7.664
 2864POPC   C1B38095  43.166  31.684   8.564
 2864POPC   C2B38096  43.238  31.654   8.264
 2864POPC   C3B38097  43.199  31.746   7.964
 2864POPC   C4B38098  43.235  31.675   7.664
 2865POPC   NC338099  40.020  25.259   9.464
 2865POPC   PO438100  40.030  25.235   9.164
 2865POPC   GL138101  40.018  25.304   8.864
 2865POPC   GL238102  39.931  25.330   8.864
 2865POPC   C1A38103  39.991  25.249   8.564
 2865POPC   D2A38104  40.032  25.314   8.264
 2865POPC   C3A38105  40.018  25.264   7.964
 2865POPC   C4A38106  40.051  25.265   7.664
 2865POPC   C1B38107  39.877  25.407   8.564
 2865POPC   C2B38108  39.879  25.411   8.264
 2865POPC   C3B38109  39.868  25.494   7.964
 2865POPC   C4B38110  39.877  25.399   7.664
 2866POPC   NC338111  40.781  23.707   9.464
 2866POPC   PO438112  40.738  23.752   9.164
 2866POPC   GL138113  40.749  23.708   8.864
 2866POPC   GL238114  40.913  23.785   8.864
 2866POPC   C1A38115  40.824  23.756   8.564
 2866POPC   D2A38116  40.811  23.675   8.264
 2866POPC   C3A38117  40.764  23.745   7.964
 2866POPC   C4A38118  40.778  23.741   7.664
 2866POPC   C1B38119  40.984  23.802   8.564
 2866POPC   C2B38120  40.982  23.854   8.264
 2866POPC   C3B38121  40.988  23.776   7.964
 2866POPC   C4B38122  40.985  23.785   7.664
 2867POPC   NC338123  36.126   5.883   9.464
 2867POPC   PO438124  36.102   5.868   9.164
 2867POPC   GL138125  36.095   5.850   8.864
 2867POPC   GL238126  36.175   6.036   8.864
 2867POPC   C1A38127  36.158   5.879   8.564
 2867POPC   D2A38128  36.167   5.836   8.264
 2867POPC   C3A38129  36.170   5.876   7.964
 2867POPC   C4A38130  36.132   5.820   7.664
 2867POPC   C1B38131  36.127   6.129   8.564
 2867POPC   C2B38132  36.129   6.108   8.264
 2867POPC   C3B38133  36.116   6.073   7.964
 2867POPC   C4B38134  36.104   6.073   7.664
 2868POPC   NC338135  43.927   8.191   9.464
 2868POPC   PO438136  43.919   8.245   9.164
 2868POPC   GL138137  43.930   8.188   8.864
 2868POPC   GL238138  43.741   8.197   8.864
 2868POPC   C1A38139  43.918   8.219   8.564
 2868POPC   D2A38140  43.922   8.243   8.264
 2868POPC   C3A38141  43.843   8.160   7.964
 2868POPC   C4A38142  43.849   8.195   7.664
 2868POPC   C1B38143  43.593   8.197   8.564
 2868POPC   C2B38144  43.635   8.154   8.264
 2868POPC   C3B38145  43.621   8.137   7.964
 2868POPC   C4B38146  43.676   8.153   7.664
 2869POPC   NC338147  40.798  12.114   9.464
 2869POPC   PO438148  40.791  12.114   9.164
 2869POPC   GL138149  40.742  12.035   8.864
 2869POPC   GL238150  40.878  12.101   8.864
 2869POPC   C1A38151  40.782  12.041   8.564
 2869POPC   D2A38152  40.772  12.067   8.264
 2869POPC   C3A38153  40.800  12.087   7.964
 2869POPC   C4A38154  40.828  12.105   7.664
 2869POPC   C1B38155  41.001  12.159   8.564
 2869POPC   C2B38156  40.991  12.084   8.264
 2869POPC   C3B38157  41.062  12.111   7.964
 2869POPC   C4B38158  41.002  12.100   7.664
 2870POPC   NC338159  42.359  42.312   9.464
 2870POPC   PO438160  42.302  42.370   9.164
 2870POPC   GL138161  42.306  42.311   8.864
 2870POPC   GL238162  42.362  42.459   8.864
 2870POPC   C1A38163  42.329  42.318   8.564
 2870POPC   D2A38164  42.289  42.358   8.264
 2870POPC   C3A38165  42.287  42.310   7.964
 2870POPC   C4A38166  42.286  42.362   7.664
 2870POPC   C1B38167  42.459  42.576   8.564
 2870POPC   C2B38168  42.469  42.518   8.264
 2870POPC   C3B38169  42.471  42.552   7.964
 2870POPC   C4B38170  42.448  42.611   7.664
 2871POPC   NC338171  18.246  42.380   9.464
 2871POPC   PO438172  18.314  42.294   9.164
 2871POPC   GL138173  18.298  42.286   8.864
 2871POPC   GL238174  18.426  42.366   8.864
 2871POPC   C1A38175  18.297  42.303   8.564
 2871POPC   D2A38176  18.237  42.357   8.264
 2871POPC   C3A38177  18.275  42.318   7.964
 2871POPC   C4A38178  18.293  42.330   7.664
 2871POPC   C1B38179  18.549  42.395   8.564
 2871POPC   C2B38180  18.554  42.363   8.264
 2871POPC   C3B38181  18.539  42.404   7.964
 2871POPC   C4B38182  18.554  42.331   7.664
 2872POPC   NC338183  38.494  12.073   9.464
 2872POPC   PO438184  38.432  12.032   9.164
 2872POPC   GL138185  38.483  12.041   8.864
 2872POPC   GL238186  38.494  12.143   8.864
 2872POPC   C1A38187  38.438  12.053   8.564
 2872POPC   D2A38188  38.412  12.116   8.264
 2872POPC   C3A38189  38.480  12.096   7.964
 2872POPC   C4A38190  38.430  12.029   7.664
 2872POPC   C1B38191  38.666  12.278   8.564
 2872POPC   C2B38192  38.656  12.241   8.264
 2872POPC   C3B38193  38.600  12.274   7.964
 2872POPC   C4B38194  38.583  12.229   7.664
 2873POPC   NC338195  22.156  31.481   9.464
 2873POPC   PO438196  22.131  31.485   9.164
 2873POPC   GL138197  22.173  31.432   8.864
 2873POPC   GL238198  22.261  31.444   8.864
 2873POPC   C1A38199  22.145  31.501   8.564
 2873POPC   D2A38200  22.126  31.470   8.264
 2873POPC   C3A38201  22.172  31.448   7.964
 2873POPC   C4A38202  22.212  31.450   7.664
 2873POPC   C1B38203  22.378  31.379   8.564
 2873POPC   C2B38204  22.372  31.401   8.264
 2873POPC   C3B38205  22.381  31.436   7.964
 2873POPC   C4B38206  22.428  31.443   7.664
 2874POPC   NC338207  36.918  15.180   9.464
 2874POPC   PO438208  36.884  15.203   9.164
 2874POPC   GL138209  36.911  15.166   8.864
 2874POPC   GL238210  37.033  15.126   8.864
 2874POPC   C1A38211  36.862  15.220   8.564
 2874POPC   D2A38212  36.913  15.164   8.264
 2874POPC   C3A38213  36.899  15.144   7.964
 2874POPC   C4A38214  36.886  15.150   7.664
 2874POPC   C1B38215  37.181  15.108   8.564
 2874POPC   C2B38216  37.140  15.121   8.264
 2874POPC   C3B38217  37.132  15.095   7.964
 2874POPC   C4B38218  37.157  15.120   7.664
 2875POPC   NC338219   8.927  39.240   9.464
 2875POPC   PO438220   8.964  39.222   9.164
 2875POPC   GL138221   8.996  39.227   8.864
 2875POPC   GL238222   8.848  39.163   8.864
 2875POPC   C1A38223   9.009  39.262   8.564
 2875POPC   D2A38224   8.986  39.273   8.264
 2875POPC   C3A38225   8.944  39.260   7.964
 2875POPC   C4A38226   9.004  39.197   7.664
 2875POPC   C1B38227   8.753  39.026   8.564
 2875POPC   C2B38228   8.767  39.043   8.264
 2875POPC   C3B38229   8.806  39.037   7.964
 2875POPC   C4B38230   8.799  39.013   7.664
 2876POPC   NC338231  12.036  33.787   9.464
 2876POPC   PO438232  12.120  33.759   9.164
 2876POPC   GL138233  12.100  33.759   8.864
 2876POPC   GL238234  12.040  33.671   8.864
 2876POPC   C1A38235  12.033  33.781   8.564
 2876POPC   D2A38236  12.059  33.837   8.264
 2876POPC   C3A38237  12.105  33.818   7.964
 2876POPC   C4A38238  12.107  33.827   7.664
 2876POPC   C1B38239  12.063  33.525   8.564
 2876POPC   C2B38240  12.070  33.524   8.264
 2876POPC   C3B38241  12.075  33.568   7.964
 2876POPC   C4B38242  12.045  33.596   7.664
 2877POPC   NC338243  42.349   2.781   9.464
 2877POPC   PO438244  42.338   2.776   9.164
 2877POPC   GL138245  42.355   2.804   8.864
 2877POPC   GL238246  42.398   2.754   8.864
 2877POPC   C1A38247  42.373   2.812   8.564
 2877POPC   D2A38248  42.296   2.775   8.264
 2877POPC   C3A38249  42.348   2.733   7.964
 2877POPC   C4A38250  42.310   2.743   7.664
 2877POPC   C1B38251  42.526   2.650   8.564
 2877POPC   C2B38252  42.518   2.671   8.264
 2877POPC   C3B38253  42.591   2.678   7.964
 2877POPC   C4B38254  42.599   2.620   7.664
 2878POPC   NC338255  38.470  16.724   9.464
 2878POPC   PO438256  38.442  16.691   9.164
 2878POPC   GL138257  38.500  16.757   8.864
 2878POPC   GL238258  38.589  16.859   8.864
 2878POPC   C1A38259  38.482  16.741   8.564
 2878POPC   D2A38260  38.426  16.718   8.264
 2878POPC   C3A38261  38.435  16.700   7.964
 2878POPC   C4A38262  38.448  16.768   7.664
 2878POPC   C1B38263  38.612  16.898   8.564
 2878POPC   C2B38264  38.640  16.880   8.264
 2878POPC   C3B38265  38.664  16.940   7.964
 2878POPC   C4B38266  38.666  16.868   7.664
 2879POPC   NC338267  39.226  13.670   9.464
 2879POPC   PO438268  39.209  13.579   9.164
 2879POPC   GL138269  39.182  13.606   8.864
 2879POPC   GL238270  39.105  13.639   8.864
 2879POPC   C1A38271  39.226  13.613   8.564
 2879POPC   D2A38272  39.232  13.677   8.264
 2879POPC   C3A38273  39.211  13.630   7.964
 2879POPC   C4A38274  39.248  13.659   7.664
 2879POPC   C1B38275  38.958  13.679   8.564
 2879POPC   C2B38276  38.987  13.675   8.264
 2879POPC   C3B38277  39.023  13.657   7.964
 2879POPC   C4B38278  38.944  13.661   7.664
 2880POPC   NC338279  23.712   1.176   9.464
 2880POPC   PO438280  23.752   1.259   9.164
 2880POPC   GL138281  23.737   1.171   8.864
 2880POPC   GL238282  23.628   1.333   8.864
 2880POPC   C1A38283  23.717   1.169   8.564
 2880POPC   D2A38284  23.688   1.234   8.264
 2880POPC   C3A38285  23.740   1.229   7.964
 2880POPC   C4A38286  23.763   1.252   7.664
 2880POPC   C1B38287  23.577   1.398   8.564
 2880POPC   C2B38288  23.594   1.404   8.264
 2880POPC   C3B38289  23.631   1.449   7.964
 2880POPC   C4B38290  23.545   1.438   7.664
 2881POPC   NC338291   2.754  22.203   9.464
 2881POPC   PO438292   2.811  22.130   9.164
 2881POPC   GL138293   2.775  22.157   8.864
 2881POPC   GL238294   2.598  22.212   8.864
 2881POPC   C1A38295   2.784  22.186   8.564
 2881POPC   D2A38296   2.773  22.172   8.264
 2881POPC   C3A38297   2.760  22.150   7.964
 2881POPC   C4A38298   2.787  22.183   7.664
 2881POPC   C1B38299   2.524  22.245   8.564
 2881POPC   C2B38300   2.498  22.236   8.264
 2881POPC   C3B38301   2.550  22.244   7.964
 2881POPC   C4B38302   2.540  22.280   7.664
 2882POPC   NC338303  28.326  15.964   9.464
 2882POPC   PO438304  28.407  15.983   9.164
 2882POPC   GL138305  28.328  15.925   8.864
 2882POPC   GL238306  28.394  16.066   8.864
 2882POPC   C1A38307  28.329  15.906   8.564
 2882POPC   D2A38308  28.397  15.921   8.264
 2882POPC   C3A38309  28.380  15.950   7.964
 2882POPC   C4A38310  28.352  15.995   7.664
 2882POPC   C1B38311  28.341  16.203   8.564
 2882POPC   C2B38312  28.355  16.195   8.264
 2882POPC   C3B38313  28.360  16.163   7.964
 2882POPC   C4B38314  28.276  16.186   7.664
 2883POPC   NC338315  27.639  25.223   9.464
 2883POPC   PO438316  27.555  25.276   9.164
 2883POPC   GL138317  27.618  25.274   8.864
 2883POPC   GL238318  27.443  25.296   8.864
 2883POPC   C1A38319  27.611  25.294   8.564
 2883POPC   D2A38320  27.558  25.219   8.264
 2883POPC   C3A38321  27.608  25.298   7.964
 2883POPC   C4A38322  27.544  25.266   7.664
 2883POPC   C1B38323  27.365  25.274   8.564
 2883POPC   C2B38324  27.341  25.253   8.264
 2883POPC   C3B38325  27.335  25.248   7.964
 2883POPC   C4B38326  27.313  25.262   7.664
 2884POPC   NC338327   2.799  26.781   9.464
 2884POPC   PO438328   2.756  26.815   9.164
 2884POPC   GL138329   2.760  26.831   8.864
 2884POPC   GL238330   2.872  26.785   8.864
 2884POPC   C1A38331   2.741  26.813   8.564
 2884POPC   D2A38332   2.763  26.865   8.264
 2884POPC   C3A38333   2.807  26.866   7.964
 2884POPC   C4A38334   2.734  26.772   7.664
 2884POPC   C1B38335   2.951  26.695   8.564
 2884POPC   C2B38336   3.030  26.747   8.264
 2884POPC   C3B38337   3.006  26.728   7.964
 2884POPC   C4B38338   2.960  26.685   7.664
 2885POPC   NC338339  20.653  34.541   9.464
 2885POPC   PO438340  20.589  34.531   9.164
 2885POPC   GL138341  20.626  34.529   8.864
 2885POPC   GL238342  20.593  34.723   8.864
 2885POPC   C1A38343  20.590  34.549   8.564
 2885POPC   D2A38344  20.633  34.549   8.264
 2885POPC   C3A38345  20.609  34.605   7.964
 2885POPC   C4A38346  20.627  34.587   7.664
 2885POPC   C1B38347  20.661  34.832   8.564
 2885POPC   C2B38348  20.573  34.788   8.264
 2885POPC   C3B38349  20.588  34.876   7.964
 2885POPC   C4B38350  20.609  34.872   7.664
 2886POPC   NC338351  28.402  27.594   9.464
 2886POPC   PO438352  28.346  27.550   9.164
 2886POPC   GL138353  28.342  27.616   8.864
 2886POPC   GL238354  28.362  27.683   8.864
 2886POPC   C1A38355  28.331  27.602   8.564
 2886POPC   D2A38356  28.342  27.573   8.264
 2886POPC   C3A38357  28.380  27.608   7.964
 2886POPC   C4A38358  28.398  27.588   7.664
 2886POPC   C1B38359  28.287  27.837   8.564
 2886POPC   C2B38360  28.329  27.811   8.264
 2886POPC   C3B38361  28.281  27.801   7.964
 2886POPC   C4B38362  28.302  27.871   7.664
 2887POPC   NC338363  12.079  26.820   9.464
 2887POPC   PO438364  12.101  26.772   9.164
 2887POPC   GL138365  12.112  26.817   8.864
 2887POPC   GL238366  11.936  26.789   8.864
 2887POPC   C1A38367  12.062  26.781   8.564
 2887POPC   D2A38368  12.073  26.834   8.264
 2887POPC   C3A38369  12.069  26.801   7.964
 2887POPC   C4A38370  12.036  26.780   7.664
 2887POPC   C1B38371  11.780  26.801   8.564
 2887POPC   C2B38372  11.847  26.822   8.264
 2887POPC   C3B38373  11.855  26.837   7.964
 2887POPC   C4B38374  11.827  26.837   7.664
 2888POPC   NC338375  44.647   8.187   9.464
 2888POPC   PO438376  44.698   8.221   9.164
 2888POPC   GL138377  44.703   8.165   8.864
 2888POPC   GL238378  44.534   8.205   8.864
 2888POPC   C1A38379  44.614   8.209   8.564
 2888POPC   D2A38380  44.644   8.210   8.264
 2888POPC   C3A38381  44.680   8.177   7.964
 2888POPC   C4A38382  44.639   8.191   7.664
 2888POPC   C1B38383  44.475   8.252   8.564
 2888POPC   C2B38384  44.477   8.338   8.264
 2888POPC   C3B38385  44.467   8.285   7.964
 2888POPC   C4B38386  44.447   8.294   7.664
 2889POPC   NC338387  17.524   0.419   9.464
 2889POPC   PO438388  17.502   0.399   9.164
 2889POPC   GL138389  17.541   0.414   8.864
 2889POPC   GL238390  17.617   0.448   8.864
 2889POPC   C1A38391  17.460   0.390   8.564
 2889POPC   D2A38392  17.485   0.457   8.264
 2889POPC   C3A38393  17.520   0.459   7.964
 2889POPC   C4A38394  17.458   0.394   7.664
 2889POPC   C1B38395  17.779   0.553   8.564
 2889POPC   C2B38396  17.784   0.502   8.264
 2889POPC   C3B38397  17.699   0.518   7.964
 2889POPC   C4B38398  17.685   0.560   7.664
 2890POPC   NC338399   9.715  29.154   9.464
 2890POPC   PO438400   9.756  29.156   9.164
 2890POPC   GL138401   9.774  29.184   8.864
 2890POPC   GL238402   9.603  29.043   8.864
 2890POPC   C1A38403   9.744  29.140   8.564
 2890POPC   D2A38404   9.779  29.109   8.264
 2890POPC   C3A38405   9.706  29.123   7.964
 2890POPC   C4A38406   9.750  29.105   7.664
 2890POPC   C1B38407   9.533  29.016   8.564
 2890POPC   C2B38408   9.529  29.033   8.264
 2890POPC   C3B38409   9.479  29.033   7.964
 2890POPC   C4B38410   9.503  29.059   7.664
 2891POPC   NC338411  32.987   6.659   9.464
 2891POPC   PO438412  33.071   6.689   9.164
 2891POPC   GL138413  33.026   6.635   8.864
 2891POPC   GL238414  33.051   6.585   8.864
 2891POPC   C1A38415  33.042   6.685   8.564
 2891POPC   D2A38416  33.063   6.639   8.264
 2891POPC   C3A38417  32.995   6.624   7.964
 2891POPC   C4A38418  33.051   6.641   7.664
 2891POPC   C1B38419  33.128   6.467   8.564
 2891POPC   C2B38420  33.171   6.420   8.264
 2891POPC   C3B38421  33.207   6.453   7.964
 2891POPC   C4B38422  33.211   6.437   7.664
 2892POPC   NC338423  28.395   5.090   9.464
 2892POPC   PO438424  28.405   5.092   9.164
 2892POPC   GL138425  28.357   5.127   8.864
 2892POPC   GL238426  28.210   5.109   8.864
 2892POPC   C1A38427  28.343   5.076   8.564
 2892POPC   D2A38428  28.415   5.138   8.264
 2892POPC   C3A38429  28.320   5.075   7.964
 2892POPC   C4A38430  28.325   5.131   7.664
 2892POPC   C1B38431  28.092   5.119   8.564
 2892POPC   C2B38432  28.136   5.063   8.264
 2892POPC   C3B38433  28.145   5.075   7.964
 2892POPC   C4B38434  28.073   5.082   7.664
 2893POPC   NC338435   6.669   4.319   9.464
 2893POPC   PO438436   6.621   4.347   9.164
 2893POPC   GL138437   6.685   4.283   8.864
 2893POPC   GL238438   6.553   4.322   8.864
 2893POPC   C1A38439   6.597   4.275   8.564
 2893POPC   D2A38440   6.627   4.358   8.264
 2893POPC   C3A38441   6.667   4.344   7.964
 2893POPC   C4A38442   6.685   4.281   7.664
 2893POPC   C1B38443   6.418   4.437   8.564
 2893POPC   C2B38444   6.374   4.395   8.264
 2893POPC   C3B38445   6.454   4.349   7.964
 2893POPC   C4B38446   6.384   4.430   7.664
 2894POPC   NC338447  15.142   4.285   9.464
 2894POPC   PO438448  15.210   4.302   9.164
 2894POPC   GL138449  15.173   4.317   8.864
 2894POPC   GL238450  15.063   4.422   8.864
 2894POPC   C1A38451  15.167   4.309   8.564
 2894POPC   D2A38452  15.172   4.341   8.264
 2894POPC   C3A38453  15.225   4.333   7.964
 2894POPC   C4A38454  15.149   4.356   7.664
 2894POPC   C1B38455  15.030   4.535   8.564
 2894POPC   C2B38456  15.074   4.473   8.264
 2894POPC   C3B38457  15.051   4.496   7.964
 2894POPC   C4B38458  14.999   4.546   7.664
 2895POPC   NC338459   2.013   2.027   9.464
 2895POPC   PO438460   1.951   1.946   9.164
 2895POPC   GL138461   2.031   2.035   8.864
 2895POPC   GL238462   1.886   1.899   8.864
 2895POPC   C1A38463   1.960   1.951   8.564
 2895POPC   D2A38464   2.036   2.009   8.264
 2895POPC   C3A38465   1.966   1.990   7.964
 2895POPC   C4A38466   1.949   1.952   7.664
 2895POPC   C1B38467   1.816   1.878   8.564
 2895POPC   C2B38468   1.814   1.855   8.264
 2895POPC   C3B38469   1.735   1.899   7.964
 2895POPC   C4B38470   1.795   1.830   7.664
 2896POPC   NC338471  25.255  12.869   9.464
 2896POPC   PO438472  25.313  12.897   9.164
 2896POPC   GL138473  25.285  12.863   8.864
 2896POPC   GL238474  25.331  12.998   8.864
 2896POPC   C1A38475  25.257  12.890   8.564
 2896POPC   D2A38476  25.237  12.863   8.264
 2896POPC   C3A38477  25.245  12.873   7.964
 2896POPC   C4A38478  25.257  12.825   7.664
 2896POPC   C1B38479  25.286  13.083   8.564
 2896POPC   C2B38480  25.287  13.100   8.264
 2896POPC   C3B38481  25.372  13.114   7.964
 2896POPC   C4B38482  25.288  13.079   7.664
 2897POPC   NC338483  36.923  16.710   9.464
 2897POPC   PO438484  36.881  16.737   9.164
 2897POPC   GL138485  36.880  16.738   8.864
 2897POPC   GL238486  36.979  16.785   8.864
 2897POPC   C1A38487  36.872  16.711   8.564
 2897POPC   D2A38488  36.894  16.711   8.264
 2897POPC   C3A38489  36.890  16.776   7.964
 2897POPC   C4A38490  36.940  16.717   7.664
 2897POPC   C1B38491  37.065  16.875   8.564
 2897POPC   C2B38492  37.114  16.892   8.264
 2897POPC   C3B38493  37.050  16.892   7.964
 2897POPC   C4B38494  37.037  16.885   7.664
 2898POPC   NC338495  13.631   3.507   9.464
 2898POPC   PO438496  13.676   3.533   9.164
 2898POPC   GL138497  13.651   3.565   8.864
 2898POPC   GL238498  13.585   3.609   8.864
 2898POPC   C1A38499  13.640   3.493   8.564
 2898POPC   D2A38500  13.589   3.534   8.264
 2898POPC   C3A38501  13.592   3.550   7.964
 2898POPC   C4A38502  13.660   3.522   7.664
 2898POPC   C1B38503  13.471   3.755   8.564
 2898POPC   C2B38504  13.493   3.754   8.264
 2898POPC   C3B38505  13.462   3.712   7.964
 2898POPC   C4B38506  13.447   3.753   7.664
 2899POPC   NC338507  21.380  14.425   9.464
 2899POPC   PO438508  21.352  14.452   9.164
 2899POPC   GL138509  21.412  14.420   8.864
 2899POPC   GL238510  21.313  14.514   8.864
 2899POPC   C1A38511  21.418  14.406   8.564
 2899POPC   D2A38512  21.358  14.451   8.264
 2899POPC   C3A38513  21.362  14.385   7.964
 2899POPC   C4A38514  21.347  14.354   7.664
 2899POPC   C1B38515  21.197  14.511   8.564
 2899POPC   C2B38516  21.188  14.568   8.264
 2899POPC   C3B38517  21.140  14.533   7.964
 2899POPC   C4B38518  21.169  14.542   7.664
 2900POPC   NC338519  14.425  19.081   9.464
 2900POPC   PO438520  14.386  19.073   9.164
 2900POPC   GL138521  14.440  19.069   8.864
 2900POPC   GL238522  14.294  19.098   8.864
 2900POPC   C1A38523  14.443  19.077   8.564
 2900POPC   D2A38524  14.360  19.057   8.264
 2900POPC   C3A38525  14.437  19.073   7.964
 2900POPC   C4A38526  14.444  19.031   7.664
 2900POPC   C1B38527  14.196  19.130   8.564
 2900POPC   C2B38528  14.134  19.183   8.264
 2900POPC   C3B38529  14.214  19.203   7.964
 2900POPC   C4B38530  14.193  19.198   7.664
 2901POPC   NC338531  21.365  35.361   9.464
 2901POPC   PO438532  21.360  35.303   9.164
 2901POPC   GL138533  21.366  35.316   8.864
 2901POPC   GL238534  21.446  35.489   8.864
 2901POPC   C1A38535  21.343  35.375   8.564
 2901POPC   D2A38536  21.428  35.399   8.264
 2901POPC   C3A38537  21.369  35.326   7.964
 2901POPC   C4A38538  21.419  35.397   7.664
 2901POPC   C1B38539  21.463  35.600   8.564
 2901POPC   C2B38540  21.465  35.547   8.264
 2901POPC   C3B38541  21.464  35.554   7.964
 2901POPC   C4B38542  21.469  35.560   7.664
 2902POPC   NC338543  25.277  36.938   9.464
 2902POPC   PO438544  25.310  36.931   9.164
 2902POPC   GL138545  25.274  36.873   8.864
 2902POPC   GL238546  25.317  36.972   8.864
 2902POPC   C1A38547  25.225  36.905   8.564
 2902POPC   D2A38548  25.256  36.911   8.264
 2902POPC   C3A38549  25.286  36.891   7.964
 2902POPC   C4A38550  25.307  36.921   7.664
 2902POPC   C1B38551  25.427  37.097   8.564
 2902POPC   C2B38552  25.353  37.147   8.264
 2902POPC   C3B38553  25.403  37.114   7.964
 2902POPC   C4B38554  25.408  37.120   7.664
 2903POPC   NC338555   2.005  40.017   9.464
 2903POPC   PO438556   2.030  40.015   9.164
 2903POPC   GL138557   1.957  40.034   8.864
 2903POPC   GL238558   1.885  40.050   8.864
 2903POPC   C1A38559   1.960  39.973   8.564
 2903POPC   D2A38560   1.956  40.031   8.264
 2903POPC   C3A38561   1.969  39.971   7.964
 2903POPC   C4A38562   2.024  39.979   7.664
 2903POPC   C1B38563   1.712  40.079   8.564
 2903POPC   C2B38564   1.739  40.021   8.264
 2903POPC   C3B38565   1.755  39.996   7.964
 2903POPC   C4B38566   1.772  39.997   7.664
 2904POPC   NC338567  30.728  36.122   9.464
 2904POPC   PO438568  30.726  36.080   9.164
 2904POPC   GL138569  30.706  36.097   8.864
 2904POPC   GL238570  30.540  36.108   8.864
 2904POPC   C1A38571  30.740  36.110   8.564
 2904POPC   D2A38572  30.666  36.159   8.264
 2904POPC   C3A38573  30.745  36.144   7.964
 2904POPC   C4A38574  30.718  36.164   7.664
 2904POPC   C1B38575  30.438  36.037   8.564
 2904POPC   C2B38576  30.482  36.029   8.264
 2904POPC   C3B38577  30.509  36.052   7.964
 2904POPC   C4B38578  30.466  35.992   7.664
 2905POPC   NC338579  29.967  24.441   9.464
 2905POPC   PO438580  29.964  24.502   9.164
 2905POPC   GL138581  29.968  24.480   8.864
 2905POPC   GL238582  29.913  24.393   8.864
 2905POPC   C1A38583  29.879  24.510   8.564
 2905POPC   D2A38584  29.929  24.531   8.264
 2905POPC   C3A38585  29.964  24.457   7.964
 2905POPC   C4A38586  29.942  24.450   7.664
 2905POPC   C1B38587  29.810  24.220   8.564
 2905POPC   C2B38588  29.814  24.232   8.264
 2905POPC   C3B38589  29.847  24.279   7.964
 2905POPC   C4B38590  29.781  24.281   7.664
 2906POPC   NC338591  31.481  36.918   9.464
 2906POPC   PO438592  31.475  36.918   9.164
 2906POPC   GL138593  31.493  36.930   8.864
 2906POPC   GL238594  31.495  37.023   8.864
 2906POPC   C1A38595  31.492  36.906   8.564
 2906POPC   D2A38596  31.425  36.878   8.264
 2906POPC   C3A38597  31.513  36.871   7.964
 2906POPC   C4A38598  31.492  36.865   7.664
 2906POPC   C1B38599  31.613  37.124   8.564
 2906POPC   C2B38600  31.609  37.134   8.264
 2906POPC   C3B38601  31.557  37.086   7.964
 2906POPC   C4B38602  31.577  37.087   7.664
 2907POPC   NC338603  43.874   2.757   9.464
 2907POPC   PO438604  43.881   2.809   9.164
 2907POPC   GL138605  43.932   2.734   8.864
 2907POPC   GL238606  43.965   2.916   8.864
 2907POPC   C1A38607  43.918   2.778   8.564
 2907POPC   D2A38608  43.886   2.746   8.264
 2907POPC   C3A38609  43.854   2.718   7.964
 2907POPC   C4A38610  43.889   2.766   7.664
 2907POPC   C1B38611  43.973   2.933   8.564
 2907POPC   C2B38612  44.070   2.945   8.264
 2907POPC   C3B38613  44.018   2.962   7.964
 2907POPC   C4B38614  44.067   2.935   7.664
 2908POPC   NC338615   2.035   9.730   9.464
 2908POPC   PO438616   1.956   9.714   9.164
 2908POPC   GL138617   1.971   9.719   8.864
 2908POPC   GL238618   2.104   9.737   8.864
 2908POPC   C1A38619   2.025   9.793   8.564
 2908POPC   D2A38620   1.983   9.719   8.264
 2908POPC   C3A38621   1.963   9.730   7.964
 2908POPC   C4A38622   1.958   9.734   7.664
 2908POPC   C1B38623   2.258   9.586   8.564
 2908POPC   C2B38624   2.205   9.601   8.264
 2908POPC   C3B38625   2.195   9.673   7.964
 2908POPC   C4B38626   2.254   9.592   7.664
 2909POPC   NC338627  29.956  44.682   9.464
 2909POPC   PO438628  29.941  44.617   9.164
 2909POPC   GL138629  29.884  44.658   8.864
 2909POPC   GL238630  30.005  44.656   8.864
 2909POPC   C1A38631  29.910  44.634   8.564
 2909POPC   D2A38632  29.888  44.662   8.264
 2909POPC   C3A38633  29.965  44.630   7.964
 2909POPC   C4A38634  29.948  44.681   7.664
 2909POPC   C1B38635  30.197  44.732   8.564
 2909POPC   C2B38636  30.121  44.709   8.264
 2909POPC   C3B38637  30.175  44.724   7.964
 2909POPC   C4B38638  30.160  44.768   7.664
 2910POPC   NC338639  15.189  34.601   9.464
 2910POPC   PO438640  15.203  34.594   9.164
 2910POPC   GL138641  15.226  34.563   8.864
 2910POPC   GL238642  15.350  34.596   8.864
 2910POPC   C1A38643  15.194  34.604   8.564
 2910POPC   D2A38644  15.181  34.529   8.264
 2910POPC   C3A38645  15.150  34.533   7.964
 2910POPC   C4A38646  15.171  34.585   7.664
 2910POPC   C1B38647  15.430  34.566   8.564
 2910POPC   C2B38648  15.455  34.603   8.264
 2910POPC   C3B38649  15.465  34.554   7.964
 2910POPC   C4B38650  15.427  34.527   7.664
 2911POPC   NC338651  39.199   1.180   9.464
 2911POPC   PO438652  39.194   1.264   9.164
 2911POPC   GL138653  39.257   1.184   8.864
 2911POPC   GL238654  39.159   1.339   8.864
 2911POPC   C1A38655  39.273   1.192   8.564
 2911POPC   D2A38656  39.204   1.247   8.264
 2911POPC   C3A38657  39.222   1.235   7.964
 2911POPC   C4A38658  39.227   1.167   7.664
 2911POPC   C1B38659  39.059   1.396   8.564
 2911POPC   C2B38660  39.065   1.400   8.264
 2911POPC   C3B38661  39.081   1.352   7.964
 2911POPC   C4B38662  39.063   1.354   7.664
 2912POPC   NC338663  14.430  42.321   9.464
 2912POPC   PO438664  14.416  42.345   9.164
 2912POPC   GL138665  14.407  42.367   8.864
 2912POPC   GL238666  14.374  42.223   8.864
 2912POPC   C1A38667  14.439  42.314   8.564
 2912POPC   D2A38668  14.407  42.309   8.264
 2912POPC   C3A38669  14.358  42.286   7.964
 2912POPC   C4A38670  14.398  42.308   7.664
 2912POPC   C1B38671  14.379  42.119   8.564
 2912POPC   C2B38672  14.469  42.102   8.264
 2912POPC   C3B38673  14.390  42.037   7.964
 2912POPC   C4B38674  14.373  42.060   7.664
 2913POPC   NC338675  26.020  14.426   9.464
 2913POPC   PO438676  26.038  14.396   9.164
 2913POPC   GL138677  26.072  14.418   8.864
 2913POPC   GL238678  25.949  14.552   8.864
 2913POPC   C1A38679  26.078  14.440   8.564
 2913POPC   D2A38680  26.079  14.383   8.264
 2913POPC   C3A38681  26.065  14.386   7.964
 2913POPC   C4A38682  26.054  14.425   7.664
 2913POPC   C1B38683  25.905  14.573   8.564
 2913POPC   C2B38684  25.956  14.629   8.264
 2913POPC   C3B38685  25.918  14.631   7.964
 2913POPC   C4B38686  25.947  14.656   7.664
 2914POPC   NC338687  25.247   3.497   9.464
 2914POPC   PO438688  25.278   3.516   9.164
 2914POPC   GL138689  25.266   3.507   8.864
 2914POPC   GL238690  25.390   3.576   8.864
 2914POPC   C1A38691  25.279   3.494   8.564
 2914POPC   D2A38692  25.302   3.546   8.264
 2914POPC   C3A38693  25.272   3.563   7.964
 2914POPC   C4A38694  25.304   3.548   7.664
 2914POPC   C1B38695  25.541   3.560   8.564
 2914POPC   C2B38696  25.525   3.652   8.264
 2914POPC   C3B38697  25.498   3.575   7.964
 2914POPC   C4B38698  25.514   3.636   7.664
 2915POPC   NC338699  41.590  31.500   9.464
 2915POPC   PO438700  41.565  31.496   9.164
 2915POPC   GL138701  41.565  31.446   8.864
 2915POPC   GL238702  41.408  31.442   8.864
 2915POPC   C1A38703  41.587  31.435   8.564
 2915POPC   D2A38704  41.529  31.483   8.264
 2915POPC   C3A38705  41.510  31.465   7.964
 2915POPC   C4A38706  41.603  31.454   7.664
 2915POPC   C1B38707  41.260  31.438   8.564
 2915POPC   C2B38708  41.292  31.405   8.264
 2915POPC   C3B38709  41.325  31.458   7.964
 2915POPC   C4B38710  41.349  31.405   7.664
 2916POPC   NC338711   5.117  38.410   9.464
 2916POPC   PO438712   5.141  38.417   9.164
 2916POPC   GL138713   5.049  38.481   8.864
 2916POPC   GL238714   5.060  38.332   8.864
 2916POPC   C1A38715   5.118  38.481   8.564
 2916POPC   D2A38716   5.068  38.471   8.264
 2916POPC   C3A38717   5.121  38.476   7.964
 2916POPC   C4A38718   5.138  38.475   7.664
 2916POPC   C1B38719   5.065  38.249   8.564
 2916POPC   C2B38720   5.026  38.257   8.264
 2916POPC   C3B38721   5.096  38.210   7.964
 2916POPC   C4B38722   5.021  38.210   7.664
 2917POPC   NC338723  29.098  11.309   9.464
 2917POPC   PO438724  29.168  11.275   9.164
 2917POPC   GL138725  29.190  11.345   8.864
 2917POPC   GL238726  29.222  11.244   8.864
 2917POPC   C1A38727  29.117  11.336   8.564
 2917POPC   D2A38728  29.167  11.349   8.264
 2917POPC   C3A38729  29.158  11.336   7.964
 2917POPC   C4A38730  29.162  11.276   7.664
 2917POPC   C1B38731  29.346  11.168   8.564
 2917POPC   C2B38732  29.385  11.226   8.264
 2917POPC   C3B38733  29.372  11.221   7.964
 2917POPC   C4B38734  29.334  11.211   7.664
 2918POPC   NC338735  33.068   8.954   9.464
 2918POPC   PO438736  32.988   8.945   9.164
 2918POPC   GL138737  33.012   8.990   8.864
 2918POPC   GL238738  32.929   9.054   8.864
 2918POPC   C1A38739  32.983   8.998   8.564
 2918POPC   D2A38740  33.038   8.972   8.264
 2918POPC   C3A38741  32.994   8.945   7.964
 2918POPC   C4A38742  33.020   8.995   7.664
 2918POPC   C1B38743  32.842   9.096   8.564
 2918POPC   C2B38744  32.810   9.108   8.264
 2918POPC   C3B38745  32.804   9.075   7.964
 2918POPC   C4B38746  32.817   9.104   7.664
 2919POPC   NC338747  13.657  39.985   9.464
 2919POPC   PO438748  13.600  40.013   9.164
 2919POPC   GL138749  13.627  40.038   8.864
 2919POPC   GL238750  13.765  40.094   8.864
 2919POPC   C1A38751  13.578  39.964   8.564
 2919POPC   D2A38752  13.677  40.022   8.264
 2919POPC   C3A38753  13.607  40.007   7.964
 2919POPC   C4A38754  13.671  39.959   7.664
 2919POPC   C1B38755  13.867  40.159   8.564
 2919POPC   C2B38756  13.869  40.165   8.264
 2919POPC   C3B38757  13.854  40.173   7.964
 2919POPC   C4B38758  13.881  40.159   7.664
 2920POPC   NC338759  44.660  23.671   9.464
 2920POPC   PO438760  44.646  23.666   9.164
 2920POPC   GL138761  44.616  23.727   8.864
 2920POPC   GL238762  44.542  23.667   8.864
 2920POPC   C1A38763  44.671  23.744   8.564
 2920POPC   D2A38764  44.624  23.752   8.264
 2920POPC   C3A38765  44.664  23.735   7.964
 2920POPC   C4A38766  44.693  23.715   7.664
 2920POPC   C1B38767  44.462  23.517   8.564
 2920POPC   C2B38768  44.452  23.581   8.264
 2920POPC   C3B38769  44.471  23.554   7.964
 2920POPC   C4B38770  44.490  23.553   7.664
 2921POPC   NC338771  43.916  29.151   9.464
 2921POPC   PO438772  43.870  29.130   9.164
 2921POPC   GL138773  43.878  29.123   8.864
 2921POPC   GL238774  43.957  29.237   8.864
 2921POPC   C1A38775  43.920  29.194   8.564
 2921POPC   D2A38776  43.927  29.107   8.264
 2921POPC   C3A38777  43.908  29.183   7.964
 2921POPC   C4A38778  43.887  29.133   7.664
 2921POPC   C1B38779  44.078  29.371   8.564
 2921POPC   C2B38780  43.989  29.384   8.264
 2921POPC   C3B38781  44.002  29.302   7.964
 2921POPC   C4B38782  44.057  29.362   7.664
 2922POPC   NC338783  44.617   9.720   9.464
 2922POPC   PO438784  44.633   9.794   9.164
 2922POPC   GL138785  44.638   9.754   8.864
 2922POPC   GL238786  44.762   9.837   8.864
 2922POPC   C1A38787  44.632   9.797   8.564
 2922POPC   D2A38788  44.711   9.705   8.264
 2922POPC   C3A38789  44.699   9.777   7.964
 2922POPC   C4A38790  44.696   9.786   7.664
 2922POPC   C1B38791  44.911   9.899   8.564
 2922POPC   C2B38792  44.910   9.883   8.264
 2922POPC   C3B38793  44.899   9.871   7.964
 2922POPC   C4B38794  44.883   9.831   7.664
 2923POPC   NC338795  21.421  25.224   9.464
 2923POPC   PO438796  21.350  25.293   9.164
 2923POPC   GL138797  21.431  25.223   8.864
 2923POPC   GL238798  21.539  25.325   8.864
 2923POPC   C1A38799  21.424  25.300   8.564
 2923POPC   D2A38800  21.338  25.268   8.264
 2923POPC   C3A38801  21.370  25.272   7.964
 2923POPC   C4A38802  21.401  25.270   7.664
 2923POPC   C1B38803  21.608  25.378   8.564
 2923POPC   C2B38804  21.627  25.333   8.264
 2923POPC   C3B38805  21.621  25.415   7.964
 2923POPC   C4B38806  21.569  25.342   7.664
 2924POPC   NC338807  36.166  15.227   9.464
 2924POPC   PO438808  36.131  15.184   9.164
 2924POPC   GL138809  36.108  15.180   8.864
 2924POPC   GL238810  36.105  15.287   8.864
 2924POPC   C1A38811  36.129  15.158   8.564
 2924POPC   D2A38812  36.090  15.174   8.264
 2924POPC   C3A38813  36.108  15.200   7.964
 2924POPC   C4A38814  36.082  15.159   7.664
 2924POPC   C1B38815  36.075  15.432   8.564
 2924POPC   C2B38816  36.051  15.395   8.264
 2924POPC   C3B38817  36.101  15.405   7.964
 2924POPC   C4B38818  36.116  15.424   7.664
 2925POPC   NC338819  36.944  11.315   9.464
 2925POPC   PO438820  36.931  11.293   9.164
 2925POPC   GL138821  36.943  11.337   8.864
 2925POPC   GL238822  36.831  11.359   8.864
 2925POPC   C1A38823  36.866  11.293   8.564
 2925POPC   D2A38824  36.913  11.339   8.264
 2925POPC   C3A38825  36.922  11.301   7.964
 2925POPC   C4A38826  36.926  11.334   7.664
 2925POPC   C1B38827  36.740  11.488   8.564
 2925POPC   C2B38828  36.763  11.552   8.264
 2925POPC   C3B38829  36.768  11.546   7.964
 2925POPC   C4B38830  36.716  11.489   7.664
 2926POPC   NC338831  31.425  29.099   9.464
 2926POPC   PO438832  31.520  29.127   9.164
 2926POPC   GL138833  31.516  29.171   8.864
 2926POPC   GL238834  31.429  29.070   8.864
 2926POPC   C1A38835  31.436  29.135   8.564
 2926POPC   D2A38836  31.497  29.109   8.264
 2926POPC   C3A38837  31.489  29.143   7.964
 2926POPC   C4A38838  31.442  29.147   7.664
 2926POPC   C1B38839  31.412  28.945   8.564
 2926POPC   C2B38840  31.365  28.938   8.264
 2926POPC   C3B38841  31.398  28.918   7.964
 2926POPC   C4B38842  31.404  28.911   7.664
 2927POPC   NC338843  29.937  12.875   9.464
 2927POPC   PO438844  29.933  12.851   9.164
 2927POPC   GL138845  29.906  12.880   8.864
 2927POPC   GL238846  29.909  12.701   8.864
 2927POPC   C1A38847  29.930  12.860   8.564
 2927POPC   D2A38848  29.942  12.848   8.264
 2927POPC   C3A38849  29.934  12.860   7.964
 2927POPC   C4A38850  29.957  12.858   7.664
 2927POPC   C1B38851  29.866  12.639   8.564
 2927POPC   C2B38852  29.926  12.602   8.264
 2927POPC   C3B38853  29.875  12.638   7.964
 2927POPC   C4B38854  29.868  12.643   7.664
 2928POPC   NC338855  11.334  22.149   9.464
 2928POPC   PO438856  11.278  22.172   9.164
 2928POPC   GL138857  11.337  22.133   8.864
 2928POPC   GL238858  11.184  22.186   8.864
 2928POPC   C1A38859  11.329  22.179   8.564
 2928POPC   D2A38860  11.264  22.129   8.264
 2928POPC   C3A38861  11.340  22.140   7.964
 2928POPC   C4A38862  11.277  22.149   7.664
 2928POPC   C1B38863  11.107  22.193   8.564
 2928POPC   C2B38864  11.031  22.250   8.264
 2928POPC   C3B38865  11.097  22.283   7.964
 2928POPC   C4B38866  11.093  22.247   7.664
 2929POPC   NC338867   2.030   1.214   9.464
 2929POPC   PO438868   1.992   1.184   9.164
 2929POPC   GL138869   1.981   1.217   8.864
 2929POPC   GL238870   1.931   1.128   8.864
 2929POPC   C1A38871   2.016   1.210   8.564
 2929POPC   D2A38872   2.002   1.185   8.264
 2929POPC   C3A38873   1.999   1.196   7.964
 2929POPC   C4A38874   1.974   1.202   7.664
 2929POPC   C1B38875   1.808   1.110   8.564
 2929POPC   C2B38876   1.746   1.076   8.264
 2929POPC   C3B38877   1.742   1.086   7.964
 2929POPC   C4B38878   1.794   1.059   7.664
 2930POPC   NC338879  44.706  32.260   9.464
 2930POPC   PO438880  44.641  32.262   9.164
 2930POPC   GL138881  44.680  32.199   8.864
 2930POPC   GL238882  44.517  32.193   8.864
 2930POPC   C1A38883  44.690  32.236   8.564
 2930POPC   D2A38884  44.624  32.205   8.264
 2930POPC   C3A38885  44.623  32.270   7.964
 2930POPC   C4A38886  44.676  32.292   7.664
 2930POPC   C1B38887  44.475  32.092   8.564
 2930POPC   C2B38888  44.473  32.064   8.264
 2930POPC   C3B38889  44.459  32.109   7.964
 2930POPC   C4B38890  44.448  32.124   7.664
 2931POPC   NC338891  40.820  36.875   9.464
 2931POPC   PO438892  40.780  36.889   9.164
 2931POPC   GL138893  40.794  36.857   8.864
 2931POPC   GL238894  40.647  36.840   8.864
 2931POPC   C1A38895  40.832  36.886   8.564
 2931POPC   D2A38896  40.799  36.924   8.264
 2931POPC   C3A38897  40.764  36.929   7.964
 2931POPC   C4A38898  40.802  36.864   7.664
 2931POPC   C1B38899  40.575  36.890   8.564
 2931POPC   C2B38900  40.501  36.903   8.264
 2931POPC   C3B38901  40.508  36.891   7.964
 2931POPC   C4B38902  40.490  36.832   7.664
 2932POPC   NC338903  36.930  22.921   9.464
 2932POPC   PO438904  36.872  22.922   9.164
 2932POPC   GL138905  36.867  22.973   8.864
 2932POPC   GL238906  37.022  22.997   8.864
 2932POPC   C1A38907  36.905  22.939   8.564
 2932POPC   D2A38908  36.918  22.953   8.264
 2932POPC   C3A38909  36.927  22.940   7.964
 2932POPC   C4A38910  36.871  22.982   7.664
 2932POPC   C1B38911  37.084  23.149   8.564
 2932POPC   C2B38912  37.062  23.104   8.264
 2932POPC   C3B38913  37.116  23.081   7.964
 2932POPC   C4B38914  37.082  23.140   7.664
 2933POPC   NC338915  24.489  32.208   9.464
 2933POPC   PO438916  24.522  32.202   9.164
 2933POPC   GL138917  24.476  32.219   8.864
 2933POPC   GL238918  24.463  32.340   8.864
 2933POPC   C1A38919  24.495  32.250   8.564
 2933POPC   D2A38920  24.475  32.290   8.264
 2933POPC   C3A38921  24.477  32.226   7.964
 2933POPC   C4A38922  24.533  32.285   7.664
 2933POPC   C1B38923  24.506  32.465   8.564
 2933POPC   C2B38924  24.478  32.541   8.264
 2933POPC   C3B38925  24.471  32.499   7.964
 2933POPC   C4B38926  24.486  32.466   7.664
 2934POPC   NC338927  44.652  33.770   9.464
 2934POPC   PO438928  44.635  33.823   9.164
 2934POPC   GL138929  44.668  33.771   8.864
 2934POPC   GL238930  44.760  33.860   8.864
 2934POPC   C1A38931  44.684  33.840   8.564
 2934POPC   D2A38932  44.635  33.764   8.264
 2934POPC   C3A38933  44.683  33.754   7.964
 2934POPC   C4A38934  44.659  33.764   7.664
 2934POPC   C1B38935  44.881  33.972   8.564
 2934POPC   C2B38936  44.808  33.948   8.264
 2934POPC   C3B38937  44.872  33.985   7.964
 2934POPC   C4B38938  44.884  33.956   7.664
 2935POPC   NC338939  27.584  22.172   9.464
 2935POPC   PO438940  27.550  22.133   9.164
 2935POPC   GL138941  27.599  22.154   8.864
 2935POPC   GL238942  27.543  22.067   8.864
 2935POPC   C1A38943  27.557  22.190   8.564
 2935POPC   D2A38944  27.617  22.160   8.264
 2935POPC   C3A38945  27.551  22.183   7.964
 2935POPC   C4A38946  27.615  22.132   7.664
 2935POPC   C1B38947  27.529  21.924   8.564
 2935POPC   C2B38948  27.506  21.894   8.264
 2935POPC   C3B38949  27.574  21.924   7.964
 2935POPC   C4B38950  27.543  21.906   7.664
 2936POPC   NC338951  37.706  38.459   9.464
 2936POPC   PO438952  37.649  38.408   9.164
 2936POPC   GL138953  37.685  38.454   8.864
 2936POPC   GL238954  37.638  38.568   8.864
 2936POPC   C1A38955  37.704  38.440   8.564
 2936POPC   D2A38956  37.683  38.461   8.264
 2936POPC   C3A38957  37.635  38.446   7.964
 2936POPC   C4A38958  37.691  38.500   7.664
 2936POPC   C1B38959  37.513  38.623   8.564
 2936POPC   C2B38960  37.550  38.692   8.264
 2936POPC   C3B38961  37.556  38.653   7.964
 2936POPC   C4B38962  37.568  38.696   7.664
 2937POPC   NC338963  40.771  28.417   9.464
 2937POPC   PO438964  40.787  28.370   9.164
 2937POPC   GL138965  40.750  28.368   8.864
 2937POPC   GL238966  40.766  28.471   8.864
 2937POPC   C1A38967  40.778  28.392   8.564
 2937POPC   D2A38968  40.768  28.410   8.264
 2937POPC   C3A38969  40.771  28.334   7.964
 2937POPC   C4A38970  40.742  28.354   7.664
 2937POPC   C1B38971  40.739  28.618   8.564
 2937POPC   C2B38972  40.805  28.631   8.264
 2937POPC   C3B38973  40.781  28.663   7.964
 2937POPC   C4B38974  40.723  28.615   7.664
 2938POPC   NC338975  16.717  24.470   9.464
 2938POPC   PO438976  16.694  24.465   9.164
 2938POPC   GL138977  16.763  24.523   8.864
 2938POPC   GL238978  16.814  24.500   8.864
 2938POPC   C1A38979  16.701  24.463   8.564
 2938POPC   D2A38980  16.726  24.441   8.264
 2938POPC   C3A38981  16.780  24.514   7.964
 2938POPC   C4A38982  16.691  24.503   7.664
 2938POPC   C1B38983  16.965  24.500   8.564
 2938POPC   C2B38984  16.942  24.507   8.264
 2938POPC   C3B38985  16.956  24.470   7.964
 2938POPC   C4B38986  16.978  24.484   7.664
 2939POPC   NC338987   7.435  18.324   9.464
 2939POPC   PO438988   7.455  18.247   9.164
 2939POPC   GL138989   7.399  18.288   8.864
 2939POPC   GL238990   7.575  18.213   8.864
 2939POPC   C1A38991   7.409  18.272   8.564
 2939POPC   D2A38992   7.396  18.273   8.264
 2939POPC   C3A38993   7.378  18.331   7.964
 2939POPC   C4A38994   7.392  18.244   7.664
 2939POPC   C1B38995   7.678  18.129   8.564
 2939POPC   C2B38996   7.678  18.185   8.264
 2939POPC   C3B38997   7.631  18.105   7.964
 2939POPC   C4B38998   7.667  18.106   7.664
 2940POPC   NC338999   8.954  28.338   9.464
 2940POPC   PO439000   8.942  28.384   9.164
 2940POPC   GL139001   8.944  28.334   8.864
 2940POPC   GL239002   8.893  28.297   8.864
 2940POPC   C1A39003   8.947  28.345   8.564
 2940POPC   D2A39004   8.962  28.334   8.264
 2940POPC   C3A39005   8.948  28.396   7.964
 2940POPC   C4A39006   9.007  28.338   7.664
 2940POPC   C1B39007   8.813  28.197   8.564
 2940POPC   C2B39008   8.767  28.173   8.264
 2940POPC   C3B39009   8.761  28.240   7.964
 2940POPC   C4B39010   8.842  28.171   7.664
 2941POPC   NC339011  34.595  16.773   9.464
 2941POPC   PO439012  34.540  16.700   9.164
 2941POPC   GL139013  34.599  16.759   8.864
 2941POPC   GL239014  34.497  16.785   8.864
 2941POPC   C1A39015  34.566  16.692   8.564
 2941POPC   D2A39016  34.605  16.693   8.264
 2941POPC   C3A39017  34.598  16.709   7.964
 2941POPC   C4A39018  34.534  16.747   7.664
 2941POPC   C1B39019  34.337  16.748   8.564
 2941POPC   C2B39020  34.340  16.746   8.264
 2941POPC   C3B39021  34.343  16.765   7.964
 2941POPC   C4B39022  34.286  16.767   7.664
 2942POPC   NC339023  21.421   1.997   9.464
 2942POPC   PO439024  21.425   2.022   9.164
 2942POPC   GL139025  21.350   1.999   8.864
 2942POPC   GL239026  21.552   2.024   8.864
 2942POPC   C1A39027  21.380   2.025   8.564
 2942POPC   D2A39028  21.408   2.008   8.264
 2942POPC   C3A39029  21.374   2.003   7.964
 2942POPC   C4A39030  21.380   2.030   7.664
 2942POPC   C1B39031  21.618   2.014   8.564
 2942POPC   C2B39032  21.620   1.964   8.264
 2942POPC   C3B39033  21.593   2.012   7.964
 2942POPC   C4B39034  21.678   1.997   7.664
 2943POPC   NC339035   2.799  14.406   9.464
 2943POPC   PO439036   2.790  14.441   9.164
 2943POPC   GL139037   2.807  14.437   8.864
 2943POPC   GL239038   2.700  14.303   8.864
 2943POPC   C1A39039   2.734  14.391   8.564
 2943POPC   D2A39040   2.752  14.426   8.264
 2943POPC   C3A39041   2.725  14.368   7.964
 2943POPC   C4A39042   2.751  14.364   7.664
 2943POPC   C1B39043   2.723  14.206   8.564
 2943POPC   C2B39044   2.731  14.181   8.264
 2943POPC   C3B39045   2.712  14.204   7.964
 2943POPC   C4B39046   2.672  14.197   7.664
 2944POPC   NC339047  44.615  24.443   9.464
 2944POPC   PO439048  44.683  24.497   9.164
 2944POPC   GL139049  44.667  24.528   8.864
 2944POPC   GL239050  44.781  24.459   8.864
 2944POPC   C1A39051  44.642  24.471   8.564
 2944POPC   D2A39052  44.656  24.444   8.264
 2944POPC   C3A39053  44.630  24.488   7.964
 2944POPC   C4A39054  44.679  24.443   7.664
 2944POPC   C1B39055  44.954  24.572   8.564
 2944POPC   C2B39056  44.913  24.534   8.264
 2944POPC   C3B39057  44.866  24.527   7.964
 2944POPC   C4B39058  44.917  24.484   7.664
 2945POPC   NC339059  15.227  30.696   9.464
 2945POPC   PO439060  15.136  30.682   9.164
 2945POPC   GL139061  15.180  30.661   8.864
 2945POPC   GL239062  15.085  30.783   8.864
 2945POPC   C1A39063  15.145  30.716   8.564
 2945POPC   D2A39064  15.138  30.654   8.264
 2945POPC   C3A39065  15.162  30.722   7.964
 2945POPC   C4A39066  15.206  30.665   7.664
 2945POPC   C1B39067  14.938  30.858   8.564
 2945POPC   C2B39068  14.993  30.792   8.264
 2945POPC   C3B39069  14.952  30.840   7.964
 2945POPC   C4B39070  14.926  30.797   7.664
 2946POPC   NC339071  37.699   1.250   9.464
 2946POPC   PO439072  37.700   1.170   9.164
 2946POPC   GL139073  37.651   1.230   8.864
 2946POPC   GL239074  37.642   1.123   8.864
 2946POPC   C1A39075  37.707   1.182   8.564
 2946POPC   D2A39076  37.721   1.212   8.264
 2946POPC   C3A39077  37.691   1.214   7.964
 2946POPC   C4A39078  37.655   1.234   7.664
 2946POPC   C1B39079  37.518   1.026   8.564
 2946POPC   C2B39080  37.531   1.009   8.264
 2946POPC   C3B39081  37.601   1.032   7.964
 2946POPC   C4B39082  37.582   1.041   7.664
 2947POPC   NC339083  36.085  31.457   9.464
 2947POPC   PO439084  36.168  31.516   9.164
 2947POPC   GL139085  36.084  31.464   8.864
 2947POPC   GL239086  36.053  31.375   8.864
 2947POPC   C1A39087  36.124  31.427   8.564
 2947POPC   D2A39088  36.143  31.521   8.264
 2947POPC   C3A39089  36.142  31.484   7.964
 2947POPC   C4A39090  36.124  31.469   7.664
 2947POPC   C1B39091  35.939  31.390   8.564
 2947POPC   C2B39092  35.898  31.311   8.264
 2947POPC   C3B39093  35.941  31.396   7.964
 2947POPC   C4B39094  35.890  31.377   7.664
 2948POPC   NC339095  38.474  34.617   9.464
 2948POPC   PO439096  38.458  34.589   9.164
 2948POPC   GL139097  38.441  34.542   8.864
 2948POPC   GL239098  38.501  34.459   8.864
 2948POPC   C1A39099  38.467  34.615   8.564
 2948POPC   D2A39100  38.420  34.575   8.264
 2948POPC   C3A39101  38.446  34.575   7.964
 2948POPC   C4A39102  38.426  34.569   7.664
 2948POPC   C1B39103  38.682  34.364   8.564
 2948POPC   C2B39104  38.603  34.402   8.264
 2948POPC   C3B39105  38.644  34.364   7.964
 2948POPC   C4B39106  38.674  34.424   7.664
 2949POPC   NC339107  43.929  43.083   9.464
 2949POPC   PO439108  43.878  43.149   9.164
 2949POPC   GL139109  43.917  43.062   8.864
 2949POPC   GL239110  43.945  43.001   8.864
 2949POPC   C1A39111  43.884  43.116   8.564
 2949POPC   D2A39112  43.867  43.080   8.264
 2949POPC   C3A39113  43.887  43.066   7.964
 2949POPC   C4A39114  43.856  43.101   7.664
 2949POPC   C1B39115  43.860  42.863   8.564
 2949POPC   C2B39116  43.885  42.852   8.264
 2949POPC   C3B39117  43.920  42.819   7.964
 2949POPC   C4B39118  43.885  42.875   7.664
 2950POPC   NC339119  43.125  39.208   9.464
 2950POPC   PO439120  43.147  39.241   9.164
 2950POPC   GL139121  43.093  39.268   8.864
 2950POPC   GL239122  42.993  39.315   8.864
 2950POPC   C1A39123  43.083  39.204   8.564
 2950POPC   D2A39124  43.128  39.263   8.264
 2950POPC   C3A39125  43.148  39.228   7.964
 2950POPC   C4A39126  43.130  39.195   7.664
 2950POPC   C1B39127  42.884  39.324   8.564
 2950POPC   C2B39128  42.887  39.355   8.264
 2950POPC   C3B39129  42.907  39.309   7.964
 2950POPC   C4B39130  42.858  39.359   7.664
 2951POPC   NC339131  23.732  10.508   9.464
 2951POPC   PO439132  23.727  10.500   9.164
 2951POPC   GL139133  23.677  10.563   8.864
 2951POPC   GL239134  23.590  10.585   8.864
 2951POPC   C1A39135  23.685  10.543   8.564
 2951POPC   D2A39136  23.678  10.513   8.264
 2951POPC   C3A39137  23.752  10.550   7.964
 2951POPC   C4A39138  23.721  10.546   7.664
 2951POPC   C1B39139  23.538  10.742   8.564
 2951POPC   C2B39140  23.574  10.676   8.264
 2951POPC   C3B39141  23.581  10.718   7.964
 2951POPC   C4B39142  23.541  10.724   7.664
 2952POPC   NC339143   4.305  37.693   9.464
 2952POPC   PO439144   4.267  37.647   9.164
 2952POPC   GL139145   4.289  37.689   8.864
 2952POPC   GL239146   4.351  37.565   8.864
 2952POPC   C1A39147   4.282  37.670   8.564
 2952POPC   D2A39148   4.277  37.727   8.264
 2952POPC   C3A39149   4.332  37.655   7.964
 2952POPC   C4A39150   4.364  37.647   7.664
 2952POPC   C1B39151   4.391  37.441   8.564
 2952POPC   C2B39152   4.332  37.478   8.264
 2952POPC   C3B39153   4.397  37.454   7.964
 2952POPC   C4B39154   4.362  37.471   7.664
 2953POPC   NC339155   9.705  13.661   9.464
 2953POPC   PO439156   9.711  13.641   9.164
 2953POPC   GL139157   9.702  13.624   8.864
 2953POPC   GL239158   9.885  13.637   8.864
 2953POPC   C1A39159   9.779  13.676   8.564
 2953POPC   D2A39160   9.700  13.603   8.264
 2953POPC   C3A39161   9.790  13.617   7.964
 2953POPC   C4A39162   9.714  13.638   7.664
 2953POPC   C1B39163   9.945  13.587   8.564
 2953POPC   C2B39164  10.012  13.576   8.264
 2953POPC   C3B39165   9.986  13.602   7.964
 2953POPC   C4B39166   9.999  13.570   7.664
 2954POPC   NC339167  15.160  10.499   9.464
 2954POPC   PO439168  15.216  10.520   9.164
 2954POPC   GL139169  15.205  10.507   8.864
 2954POPC   GL239170  15.208  10.385   8.864
 2954POPC   C1A39171  15.176  10.514   8.564
 2954POPC   D2A39172  15.214  10.475   8.264
 2954POPC   C3A39173  15.166  10.520   7.964
 2954POPC   C4A39174  15.194  10.543   7.664
 2954POPC   C1B39175  15.190  10.228   8.564
 2954POPC   C2B39176  15.256  10.273   8.264
 2954POPC   C3B39177  15.196  10.298   7.964
 2954POPC   C4B39178  15.241  10.248   7.664
 2955POPC   NC339179  19.011  24.472   9.464
 2955POPC   PO439180  19.015  24.472   9.164
 2955POPC   GL139181  19.030  24.534   8.864
 2955POPC   GL239182  18.984  24.528   8.864
 2955POPC   C1A39183  19.027  24.448   8.564
 2955POPC   D2A39184  19.079  24.444   8.264
 2955POPC   C3A39185  19.101  24.500   7.964
 2955POPC   C4A39186  19.037  24.490   7.664
 2955POPC   C1B39187  18.867  24.650   8.564
 2955POPC   C2B39188  18.821  24.607   8.264
 2955POPC   C3B39189  18.811  24.627   7.964
 2955POPC   C4B39190  18.813  24.663   7.664
 2956POPC   NC339191  19.069  30.655   9.464
 2956POPC   PO439192  19.072  30.690   9.164
 2956POPC   GL139193  19.043  30.680   8.864
 2956POPC   GL239194  19.034  30.603   8.864
 2956POPC   C1A39195  19.105  30.650   8.564
 2956POPC   D2A39196  19.023  30.741   8.264
 2956POPC   C3A39197  19.060  30.660   7.964
 2956POPC   C4A39198  19.059  30.735   7.664
 2956POPC   C1B39199  19.057  30.429   8.564
 2956POPC   C2B39200  18.999  30.465   8.264
 2956POPC   C3B39201  19.002  30.423   7.964
 2956POPC   C4B39202  19.027  30.403   7.664
 2957POPC   NC339203  12.804  15.971   9.464
 2957POPC   PO439204  12.899  15.949   9.164
 2957POPC   GL139205  12.893  15.974   8.864
 2957POPC   GL239206  12.828  15.806   8.864
 2957POPC   C1A39207  12.850  15.999   8.564
 2957POPC   D2A39208  12.841  15.909   8.264
 2957POPC   C3A39209  12.868  15.907   7.964
 2957POPC   C4A39210  12.894  15.957   7.664
 2957POPC   C1B39211  12.843  15.669   8.564
 2957POPC   C2B39212  12.803  15.699   8.264
 2957POPC   C3B39213  12.832  15.730   7.964
 2957POPC   C4B39214  12.857  15.676   7.664
 2958POPC   NC339215   5.067  17.536   9.464
 2958POPC   PO439216   5.065  17.546   9.164
 2958POPC   GL139217   5.074  17.476   8.864
 2958POPC   GL239218   5.192  17.469   8.864
 2958POPC   C1A39219   5.109  17.535   8.564
 2958POPC   D2A39220   5.133  17.554   8.264
 2958POPC   C3A39221   5.057  17.537   7.964
 2958POPC   C4A39222   5.088  17.553   7.664
 2958POPC   C1B39223   5.361  17.520   8.564
 2958POPC   C2B39224   5.331  17.530   8.264
 2958POPC   C3B39225   5.312  17.495   7.964
 2958POPC   C4B39226   5.325  17.493   7.664
 2959POPC   NC339227  19.017  36.936   9.464
 2959POPC   PO439228  19.056  36.886   9.164
 2959POPC   GL139229  19.055  36.948   8.864
 2959POPC   GL239230  19.063  36.748   8.864
 2959POPC   C1A39231  19.065  36.911   8.564
 2959POPC   D2A39232  19.039  36.951   8.264
 2959POPC   C3A39233  19.034  36.911   7.964
 2959POPC   C4A39234  19.052  36.895   7.664
 2959POPC   C1B39235  19.038  36.686   8.564
 2959POPC   C2B39236  19.035  36.616   8.264
 2959POPC   C3B39237  19.116  36.679   7.964
 2959POPC   C4B39238  19.085  36.655   7.664
 2960POPC   NC339239  25.258   8.172   9.464
 2960POPC   PO439240  25.248   8.163   9.164
 2960POPC   GL139241  25.290   8.245   8.864
 2960POPC   GL239242  25.220   8.062   8.864
 2960POPC   C1A39243  25.267   8.220   8.564
 2960POPC   D2A39244  25.279   8.243   8.264
 2960POPC   C3A39245  25.246   8.219   7.964
 2960POPC   C4A39246  25.264   8.207   7.664
 2960POPC   C1B39247  25.197   7.940   8.564
 2960POPC   C2B39248  25.256   7.981   8.264
 2960POPC   C3B39249  25.232   7.983   7.964
 2960POPC   C4B39250  25.265   7.906   7.664
 2961POPC   NC339251  19.843  29.945   9.464
 2961POPC   PO439252  19.860  29.960   9.164
 2961POPC   GL139253  19.826  29.875   8.864
 2961POPC   GL239254  19.908  29.804   8.864
 2961POPC   C1A39255  19.870  29.889   8.564
 2961POPC   D2A39256  19.877  29.919   8.264
 2961POPC   C3A39257  19.823  29.963   7.964
 2961POPC   C4A39258  19.870  29.935   7.664
 2961POPC   C1B39259  19.938  29.691   8.564
 2961POPC   C2B39260  20.009  29.716   8.264
 2961POPC   C3B39261  19.998  29.751   7.964
 2961POPC   C4B39262  19.953  29.684   7.664
 2962POPC   NC339263  39.224  10.523   9.464
 2962POPC   PO439264  39.276  10.506   9.164
 2962POPC   GL139265  39.228  10.489   8.864
 2962POPC   GL239266  39.357  10.515   8.864
 2962POPC   C1A39267  39.210  10.507   8.564
 2962POPC   D2A39268  39.273  10.551   8.264
 2962POPC   C3A39269  39.249  10.543   7.964
 2962POPC   C4A39270  39.215  10.540   7.664
 2962POPC   C1B39271  39.489  10.424   8.564
 2962POPC   C2B39272  39.461  10.430   8.264
 2962POPC   C3B39273  39.509  10.472   7.964
 2962POPC   C4B39274  39.490  10.426   7.664
 2963POPC   NC339275   4.349  14.398   9.464
 2963POPC   PO439276   4.319  14.378   9.164
 2963POPC   GL139277   4.333  14.406   8.864
 2963POPC   GL239278   4.288  14.484   8.864
 2963POPC   C1A39279   4.322  14.453   8.564
 2963POPC   D2A39280   4.330  14.419   8.264
 2963POPC   C3A39281   4.339  14.440   7.964
 2963POPC   C4A39282   4.280  14.429   7.664
 2963POPC   C1B39283   4.323  14.649   8.564
 2963POPC   C2B39284   4.276  14.696   8.264
 2963POPC   C3B39285   4.308  14.634   7.964
 2963POPC   C4B39286   4.336  14.604   7.664
 2964POPC   NC339287   1.184  12.033   9.464
 2964POPC   PO439288   1.254  12.090   9.164
 2964POPC   GL139289   1.171  12.074   8.864
 2964POPC   GL239290   1.305  12.130   8.864
 2964POPC   C1A39291   1.224  12.106   8.564
 2964POPC   D2A39292   1.200  12.033   8.264
 2964POPC   C3A39293   1.250  12.027   7.964
 2964POPC   C4A39294   1.245  12.032   7.664
 2964POPC   C1B39295   1.364  12.311   8.564
 2964POPC   C2B39296   1.341  12.266   8.264
 2964POPC   C3B39297   1.317  12.318   7.964
 2964POPC   C4B39298   1.389  12.249   7.664
 2965POPC   NC339299   9.728   5.820   9.464
 2965POPC   PO439300   9.762   5.862   9.164
 2965POPC   GL139301   9.790   5.848   8.864
 2965POPC   GL239302   9.596   5.859   8.864
 2965POPC   C1A39303   9.784   5.841   8.564
 2965POPC   D2A39304   9.732   5.878   8.264
 2965POPC   C3A39305   9.781   5.880   7.964
 2965POPC   C4A39306   9.709   5.849   7.664
 2965POPC   C1B39307   9.505   5.855   8.564
 2965POPC   C2B39308   9.516   5.835   8.264
 2965POPC   C3B39309   9.487   5.795   7.964
 2965POPC   C4B39310   9.507   5.866   7.664
 2966POPC   NC339311   3.552  29.967   9.464
 2966POPC   PO439312   3.513  29.934   9.164
 2966POPC   GL139313   3.547  29.912   8.864
 2966POPC   GL239314   3.483  30.052   8.864
 2966POPC   C1A39315   3.556  29.917   8.564
 2966POPC   D2A39316   3.582  29.925   8.264
 2966POPC   C3A39317   3.587  29.969   7.964
 2966POPC   C4A39318   3.529  29.937   7.664
 2966POPC   C1B39319   3.437  30.073   8.564
 2966POPC   C2B39320   3.341  30.092   8.264
 2966POPC   C3B39321   3.383  30.097   7.964
 2966POPC   C4B39322   3.432  30.130   7.664
 2967POPC   NC339323  31.521  37.636   9.464
 2967POPC   PO439324  31.518  37.645   9.164
 2967POPC   GL139325  31.428  37.716   8.864
 2967POPC   GL239326  31.436  37.787   8.864
 2967POPC   C1A39327  31.465  37.716   8.564
 2967POPC   D2A39328  31.486  37.648   8.264
 2967POPC   C3A39329  31.475  37.656   7.964
 2967POPC   C4A39330  31.442  37.711   7.664
 2967POPC   C1B39331  31.320  37.946   8.564
 2967POPC   C2B39332  31.317  37.867   8.264
 2967POPC   C3B39333  31.328  37.944   7.964
 2967POPC   C4B39334  31.314  37.861   7.664
 2968POPC   NC339335  12.075  41.556   9.464
 2968POPC   PO439336  12.111  41.561   9.164
 2968POPC   GL139337  12.032  41.596   8.864
 2968POPC   GL239338  12.061  41.719   8.864
 2968POPC   C1A39339  12.058  41.523   8.564
 2968POPC   D2A39340  12.084  41.532   8.264
 2968POPC   C3A39341  12.105  41.562   7.964
 2968POPC   C4A39342  12.125  41.587   7.664
 2968POPC   C1B39343  12.122  41.793   8.564
 2968POPC   C2B39344  12.103  41.833   8.264
 2968POPC   C3B39345  12.102  41.812   7.964
 2968POPC   C4B39346  12.139  41.795   7.664
 2969POPC   NC339347  12.815  19.803   9.464
 2969POPC   PO439348  12.814  19.867   9.164
 2969POPC   GL139349  12.827  19.808   8.864
 2969POPC   GL239350  12.941  19.923   8.864
 2969POPC   C1A39351  12.806  19.846   8.564
 2969POPC   D2A39352  12.855  19.882   8.264
 2969POPC   C3A39353  12.859  19.798   7.964
 2969POPC   C4A39354  12.876  19.801   7.664
 2969POPC   C1B39355  12.939  20.002   8.564
 2969POPC   C2B39356  12.997  20.081   8.264
 2969POPC   C3B39357  12.937  20.055   7.964
 2969POPC   C4B39358  12.982  20.068   7.664
 2970POPC   NC339359  29.922  15.183   9.464
 2970POPC   PO439360  29.918  15.133   9.164
 2970POPC   GL139361  29.922  15.145   8.864
 2970POPC   GL239362  30.068  15.117   8.864
 2970POPC   C1A39363  29.874  15.224   8.564
 2970POPC   D2A39364  29.883  15.176   8.264
 2970POPC   C3A39365  29.959  15.159   7.964
 2970POPC   C4A39366  29.915  15.203   7.664
 2970POPC   C1B39367  30.162  15.051   8.564
 2970POPC   C2B39368  30.095  15.014   8.264
 2970POPC   C3B39369  30.136  14.999   7.964
 2970POPC   C4B39370  30.135  15.038   7.664
 2971POPC   NC339371  25.257   0.428   9.464
 2971POPC   PO439372  25.315   0.419   9.164
 2971POPC   GL139373  25.280   0.473   8.864
 2971POPC   GL239374  25.099   0.463   8.864
 2971POPC   C1A39375  25.305   0.463   8.564
 2971POPC   D2A39376  25.247   0.467   8.264
 2971POPC   C3A39377  25.272   0.478   7.964
 2971POPC   C4A39378  25.233   0.439   7.664
 2971POPC   C1B39379  25.014   0.438   8.564
 2971POPC   C2B39380  25.000   0.427   8.264
 2971POPC   C3B39381  25.015   0.437   7.964
 2971POPC   C4B39382  24.998   0.400   7.664
 2972POPC   NC339383  43.855  21.415   9.464
 2972POPC   PO439384  43.866  21.435   9.164
 2972POPC   GL139385  43.864  21.380   8.864
 2972POPC   GL239386  43.802  21.316   8.864
 2972POPC   C1A39387  43.875  21.342   8.564
 2972POPC   D2A39388  43.929  21.410   8.264
 2972POPC   C3A39389  43.916  21.343   7.964
 2972POPC   C4A39390  43.866  21.416   7.664
 2972POPC   C1B39391  43.634  21.297   8.564
 2972POPC   C2B39392  43.687  21.371   8.264
 2972POPC   C3B39393  43.641  21.373   7.964
 2972POPC   C4B39394  43.624  21.376   7.664
 2973POPC   NC339395   8.178  22.159   9.464
 2973POPC   PO439396   8.165  22.133   9.164
 2973POPC   GL139397   8.237  22.126   8.864
 2973POPC   GL239398   8.227  22.263   8.864
 2973POPC   C1A39399   8.176  22.143   8.564
 2973POPC   D2A39400   8.157  22.113   8.264
 2973POPC   C3A39401   8.235  22.200   7.964
 2973POPC   C4A39402   8.227  22.201   7.664
 2973POPC   C1B39403   8.262  22.430   8.564
 2973POPC   C2B39404   8.340  22.391   8.264
 2973POPC   C3B39405   8.253  22.391   7.964
 2973POPC   C4B39406   8.240  22.421   7.664
 2974POPC   NC339407  41.589  43.858   9.464
 2974POPC   PO439408  41.608  43.928   9.164
 2974POPC   GL139409  41.606  43.876   8.864
 2974POPC   GL239410  41.651  43.961   8.864
 2974POPC   C1A39411  41.581  43.909   8.564
 2974POPC   D2A39412  41.581  43.848   8.264
 2974POPC   C3A39413  41.601  43.881   7.964
 2974POPC   C4A39414  41.598  43.873   7.664
 2974POPC   C1B39415  41.688  44.104   8.564
 2974POPC   C2B39416  41.714  44.072   8.264
 2974POPC   C3B39417  41.700  44.123   7.964
 2974POPC   C4B39418  41.728  44.145   7.664
 2975POPC   NC339419  20.630  31.436   9.464
 2975POPC   PO439420  20.654  31.426   9.164
 2975POPC   GL139421  20.637  31.449   8.864
 2975POPC   GL239422  20.497  31.379   8.864
 2975POPC   C1A39423  20.563  31.517   8.564
 2975POPC   D2A39424  20.587  31.481   8.264
 2975POPC   C3A39425  20.622  31.494   7.964
 2975POPC   C4A39426  20.582  31.476   7.664
 2975POPC   C1B39427  20.457  31.355   8.564
 2975POPC   C2B39428  20.394  31.296   8.264
 2975POPC   C3B39429  20.453  31.281   7.964
 2975POPC   C4B39430  20.415  31.288   7.664
 2976POPC   NC339431  15.956  36.177   9.464
 2976POPC   PO439432  15.930  36.153   9.164
 2976POPC   GL139433  15.975  36.097   8.864
 2976POPC   GL239434  16.062  36.130   8.864
 2976POPC   C1A39435  15.986  36.116   8.564
 2976POPC   D2A39436  15.974  36.104   8.264
 2976POPC   C3A39437  15.985  36.124   7.964
 2976POPC   C4A39438  15.954  36.082   7.664
 2976POPC   C1B39439  16.179  36.224   8.564
 2976POPC   C2B39440  16.183  36.238   8.264
 2976POPC   C3B39441  16.164  36.203   7.964
 2976POPC   C4B39442  16.227  36.227   7.664
 2977POPC   NC339443  10.560  19.082   9.464
 2977POPC   PO439444  10.566  19.057   9.164
 2977POPC   GL139445  10.565  19.018   8.864
 2977POPC   GL239446  10.598  19.171   8.864
 2977POPC   C1A39447  10.493  19.099   8.564
 2977POPC   D2A39448  10.483  19.037   8.264
 2977POPC   C3A39449  10.499  19.040   7.964
 2977POPC   C4A39450  10.532  19.087   7.664
 2977POPC   C1B39451  10.664  19.256   8.564
 2977POPC   C2B39452  10.701  19.214   8.264
 2977POPC   C3B39453  10.667  19.291   7.964
 2977POPC   C4B39454  10.660  19.246   7.664
 2978POPC   NC339455   2.781  33.815   9.464
 2978POPC   PO439456   2.814  33.758   9.164
 2978POPC   GL139457   2.758  33.808   8.864
 2978POPC   GL239458   2.605  33.805   8.864
 2978POPC   C1A39459   2.764  33.845   8.564
 2978POPC   D2A39460   2.759  33.843   8.264
 2978POPC   C3A39461   2.773  33.800   7.964
 2978POPC   C4A39462   2.725  33.763   7.664
 2978POPC   C1B39463   2.545  33.795   8.564
 2978POPC   C2B39464   2.538  33.745   8.264
 2978POPC   C3B39465   2.508  33.774   7.964
 2978POPC   C4B39466   2.518  33.751   7.664
 2979POPC   NC339467  36.091  22.977   9.464
 2979POPC   PO439468  36.126  22.981   9.164
 2979POPC   GL139469  36.154  22.975   8.864
 2979POPC   GL239470  36.221  22.982   8.864
 2979POPC   C1A39471  36.135  22.890   8.564
 2979POPC   D2A39472  36.132  22.918   8.264
 2979POPC   C3A39473  36.152  22.923   7.964
 2979POPC   C4A39474  36.135  22.900   7.664
 2979POPC   C1B39475  36.278  23.069   8.564
 2979POPC   C2B39476  36.312  23.130   8.264
 2979POPC   C3B39477  36.325  23.071   7.964
 2979POPC   C4B39478  36.311  23.133   7.664
 2980POPC   NC339479  34.572   3.523   9.464
 2980POPC   PO439480  34.604   3.541   9.164
 2980POPC   GL139481  34.548   3.559   8.864
 2980POPC   GL239482  34.508   3.389   8.864
 2980POPC   C1A39483  34.617   3.553   8.564
 2980POPC   D2A39484  34.559   3.521   8.264
 2980POPC   C3A39485  34.620   3.587   7.964
 2980POPC   C4A39486  34.576   3.571   7.664
 2980POPC   C1B39487  34.548   3.275   8.564
 2980POPC   C2B39488  34.552   3.301   8.264
 2980POPC   C3B39489  34.482   3.309   7.964
 2980POPC   C4B39490  34.558   3.342   7.664
 2981POPC   NC339491  29.158   1.951   9.464
 2981POPC   PO439492  29.192   1.959   9.164
 2981POPC   GL139493  29.113   2.001   8.864
 2981POPC   GL239494  29.037   2.011   8.864
 2981POPC   C1A39495  29.190   2.011   8.564
 2981POPC   D2A39496  29.155   2.010   8.264
 2981POPC   C3A39497  29.131   1.998   7.964
 2981POPC   C4A39498  29.123   1.949   7.664
 2981POPC   C1B39499  28.850   1.987   8.564
 2981POPC   C2B39500  28.943   1.969   8.264
 2981POPC   C3B39501  28.893   1.953   7.964
 2981POPC   C4B39502  28.941   1.995   7.664
 2982POPC   NC339503  15.173  36.085   9.464
 2982POPC   PO439504  15.218  36.089   9.164
 2982POPC   GL139505  15.212  36.110   8.864
 2982POPC   GL239506  15.184  36.283   8.864
 2982POPC   C1A39507  15.161  36.140   8.564
 2982POPC   D2A39508  15.211  36.100   8.264
 2982POPC   C3A39509  15.144  36.089   7.964
 2982POPC   C4A39510  15.171  36.134   7.664
 2982POPC   C1B39511  15.207  36.332   8.564
 2982POPC   C2B39512  15.239  36.377   8.264
 2982POPC   C3B39513  15.263  36.390   7.964
 2982POPC   C4B39514  15.242  36.326   7.664
 2983POPC   NC339515  13.673  13.627   9.464
 2983POPC   PO439516  13.580  13.666   9.164
 2983POPC   GL139517  13.587  13.627   8.864
 2983POPC   GL239518  13.701  13.594   8.864
 2983POPC   C1A39519  13.639  13.590   8.564
 2983POPC   D2A39520  13.633  13.586   8.264
 2983POPC   C3A39521  13.650  13.611   7.964
 2983POPC   C4A39522  13.601  13.584   7.664
 2983POPC   C1B39523  13.877  13.582   8.564
 2983POPC   C2B39524  13.924  13.617   8.264
 2983POPC   C3B39525  13.904  13.583   7.964
 2983POPC   C4B39526  13.919  13.626   7.664
 2984POPC   NC339527  23.735  36.148   9.464
 2984POPC   PO439528  23.673  36.151   9.164
 2984POPC   GL139529  23.699  36.116   8.864
 2984POPC   GL239530  23.752  35.978   8.864
 2984POPC   C1A39531  23.664  36.173   8.564
 2984POPC   D2A39532  23.673  36.162   8.264
 2984POPC   C3A39533  23.738  36.119   7.964
 2984POPC   C4A39534  23.743  36.097   7.664
 2984POPC   C1B39535  23.748  35.840   8.564
 2984POPC   C2B39536  23.671  35.836   8.264
 2984POPC   C3B39537  23.741  35.912   7.964
 2984POPC   C4B39538  23.652  35.854   7.664
 2985POPC   NC339539   1.207  12.831   9.464
 2985POPC   PO439540   1.241  12.889   9.164
 2985POPC   GL139541   1.227  12.822   8.864
 2985POPC   GL239542   1.227  13.023   8.864
 2985POPC   C1A39543   1.254  12.846   8.564
 2985POPC   D2A39544   1.236  12.902   8.264
 2985POPC   C3A39545   1.249  12.804   7.964
 2985POPC   C4A39546   1.258  12.889   7.664
 2985POPC   C1B39547   1.199  13.101   8.564
 2985POPC   C2B39548   1.159  13.124   8.264
 2985POPC   C3B39549   1.198  13.097   7.964
 2985POPC   C4B39550   1.182  13.091   7.664
 2986POPC   NC339551  19.062  28.379   9.464
 2986POPC   PO439552  19.037  28.418   9.164
 2986POPC   GL139553  19.047  28.337   8.864
 2986POPC   GL239554  19.095  28.281   8.864
 2986POPC   C1A39555  19.036  28.397   8.564
 2986POPC   D2A39556  19.101  28.364   8.264
 2986POPC   C3A39557  19.083  28.373   7.964
 2986POPC   C4A39558  19.063  28.374   7.664
 2986POPC   C1B39559  19.200  28.170   8.564
 2986POPC   C2B39560  19.204  28.144   8.264
 2986POPC   C3B39561  19.148  28.123   7.964
 2986POPC   C4B39562  19.229  28.161   7.664
 2987POPC   NC339563  24.487  43.874   9.464
 2987POPC   PO439564  24.538  43.890   9.164
 2987POPC   GL139565  24.525  43.865   8.864
 2987POPC   GL239566  24.406  44.016   8.864
 2987POPC   C1A39567  24.515  43.868   8.564
 2987POPC   D2A39568  24.523  43.926   8.264
 2987POPC   C3A39569  24.477  43.896   7.964
 2987POPC   C4A39570  24.485  43.863   7.664
 2987POPC   C1B39571  24.356  44.092   8.564
 2987POPC   C2B39572  24.275  44.118   8.264
 2987POPC   C3B39573  24.303  44.039   7.964
 2987POPC   C4B39574  24.366  44.035   7.664
 2988POPC   NC339575  30.694  43.067   9.464
 2988POPC   PO439576  30.703  43.120   9.164
 2988POPC   GL139577  30.661  43.102   8.864
 2988POPC   GL239578  30.784  42.976   8.864
 2988POPC   C1A39579  30.657  43.155   8.564
 2988POPC   D2A39580  30.733  43.098   8.264
 2988POPC   C3A39581  30.656  43.090   7.964
 2988POPC   C4A39582  30.707  43.160   7.664
 2988POPC   C1B39583  30.841  42.929   8.564
 2988POPC   C2B39584  30.836  42.938   8.264
 2988POPC   C3B39585  30.838  42.970   7.964
 2988POPC   C4B39586  30.920  42.925   7.664
 2989POPC   NC339587  13.677  26.034   9.464
 2989POPC   PO439588  13.674  26.002   9.164
 2989POPC   GL139589  13.671  26.031   8.864
 2989POPC   GL239590  13.602  25.906   8.864
 2989POPC   C1A39591  13.641  26.034   8.564
 2989POPC   D2A39592  13.604  26.052   8.264
 2989POPC   C3A39593  13.594  26.046   7.964
 2989POPC   C4A39594  13.670  26.020   7.664
 2989POPC   C1B39595  13.528  25.815   8.564
 2989POPC   C2B39596  13.507  25.845   8.264
 2989POPC   C3B39597  13.459  25.827   7.964
 2989POPC   C4B39598  13.474  25.845   7.664
 2990POPC   NC339599  42.296  21.435   9.464
 2990POPC   PO439600  42.339  21.363   9.164
 2990POPC   GL139601  42.373  21.397   8.864
 2990POPC   GL239602  42.395  21.333   8.864
 2990POPC   C1A39603  42.347  21.404   8.564
 2990POPC   D2A39604  42.361  21.370   8.264
 2990POPC   C3A39605  42.297  21.357   7.964
 2990POPC   C4A39606  42.326  21.361   7.664
 2990POPC   C1B39607  42.566  21.249   8.564
 2990POPC   C2B39608  42.556  21.281   8.264
 2990POPC   C3B39609  42.513  21.249   7.964
 2990POPC   C4B39610  42.530  21.249   7.664
 2991POPC   NC339611  28.352   1.989   9.464
 2991POPC   PO439612  28.376   1.945   9.164
 2991POPC   GL139613  28.362   1.958   8.864
 2991POPC   GL239614  28.457   1.882   8.864
 2991POPC   C1A39615  28.342   1.951   8.564
 2991POPC   D2A39616  28.399   2.020   8.264
 2991POPC   C3A39617  28.380   2.020   7.964
 2991POPC   C4A39618  28.379   1.953   7.664
 2991POPC   C1B39619  28.469   1.718   8.564
 2991POPC   C2B39620  28.481   1.789   8.264
 2991POPC   C3B39621  28.500   1.758   7.964
 2991POPC   C4B39622  28.505   1.803   7.664
 2992POPC   NC339623  36.871  37.675   9.464
 2992POPC   PO439624  36.882  37.705   9.164
 2992POPC   GL139625  36.871  37.680   8.864
 2992POPC   GL239626  36.820  37.795   8.864
 2992POPC   C1A39627  36.930  37.691   8.564
 2992POPC   D2A39628  36.921  37.702   8.264
 2992POPC   C3A39629  36.922  37.728   7.964
 2992POPC   C4A39630  36.925  37.726   7.664
 2992POPC   C1B39631  36.746  37.879   8.564
 2992POPC   C2B39632  36.757  37.797   8.264
 2992POPC   C3B39633  36.730  37.856   7.964
 2992POPC   C4B39634  36.699  37.880   7.664
 2993POPC   NC339635  27.588   3.501   9.464
 2993POPC   PO439636  27.614   3.543   9.164
 2993POPC   GL139637  27.639   3.585   8.864
 2993POPC   GL239638  27.537   3.429   8.864
 2993POPC   C1A39639  27.626   3.525   8.564
 2993POPC   D2A39640  27.558   3.562   8.264
 2993POPC   C3A39641  27.560   3.495   7.964
 2993POPC   C4A39642  27.634   3.497   7.664
 2993POPC   C1B39643  27.495   3.344   8.564
 2993POPC   C2B39644  27.496   3.371   8.264
 2993POPC   C3B39645  27.433   3.276   7.964
 2993POPC   C4B39646  27.495   3.316   7.664
 2994POPC   NC339647  41.604   2.029   9.464
 2994POPC   PO439648  41.577   1.972   9.164
 2994POPC   GL139649  41.607   1.940   8.864
 2994POPC   GL239650  41.674   2.052   8.864
 2994POPC   C1A39651  41.582   1.965   8.564
 2994POPC   D2A39652  41.579   1.943   8.264
 2994POPC   C3A39653  41.557   1.951   7.964
 2994POPC   C4A39654  41.537   2.039   7.664
 2994POPC   C1B39655  41.697   2.227   8.564
 2994POPC   C2B39656  41.659   2.184   8.264
 2994POPC   C3B39657  41.747   2.168   7.964
 2994POPC   C4B39658  41.752   2.188   7.664
 2995POPC   NC339659   2.781  28.395   9.464
 2995POPC   PO439660   2.798  28.401   9.164
 2995POPC   GL139661   2.811  28.335   8.864
 2995POPC   GL239662   2.788  28.482   8.864
 2995POPC   C1A39663   2.739  28.405   8.564
 2995POPC   D2A39664   2.786  28.374   8.264
 2995POPC   C3A39665   2.799  28.384   7.964
 2995POPC   C4A39666   2.770  28.408   7.664
 2995POPC   C1B39667   2.939  28.537   8.564
 2995POPC   C2B39668   2.902  28.568   8.264
 2995POPC   C3B39669   2.862  28.537   7.964
 2995POPC   C4B39670   2.912  28.628   7.664
 2996POPC   NC339671  13.594  36.905   9.464
 2996POPC   PO439672  13.606  36.890   9.164
 2996POPC   GL139673  13.615  36.953   8.864
 2996POPC   GL239674  13.787  36.858   8.864
 2996POPC   C1A39675  13.665  36.937   8.564
 2996POPC   D2A39676  13.590  36.895   8.264
 2996POPC   C3A39677  13.642  36.916   7.964
 2996POPC   C4A39678  13.584  36.864   7.664
 2996POPC   C1B39679  13.875  36.832   8.564
 2996POPC   C2B39680  13.828  36.857   8.264
 2996POPC   C3B39681  13.846  36.875   7.964
 2996POPC   C4B39682  13.874  36.824   7.664
 2997POPC   NC339683  31.451  23.692   9.464
 2997POPC   PO439684  31.441  23.717   9.164
 2997POPC   GL139685  31.464  23.736   8.864
 2997POPC   GL239686  31.538  23.837   8.864
 2997POPC   C1A39687  31.460  23.718   8.564
 2997POPC   D2A39688  31.456  23.732   8.264
 2997POPC   C3A39689  31.440  23.733   7.964
 2997POPC   C4A39690  31.430  23.761   7.664
 2997POPC   C1B39691  31.670  23.891   8.564
 2997POPC   C2B39692  31.601  23.881   8.264
 2997POPC   C3B39693  31.601  23.892   7.964
 2997POPC   C4B39694  31.668  23.923   7.664
 2998POPC   NC339695   8.941  26.779   9.464
 2998POPC   PO439696   8.969  26.767   9.164
 2998POPC   GL139697   8.950  26.809   8.864
 2998POPC   GL239698   8.953  26.713   8.864
 2998POPC   C1A39699   8.983  26.795   8.564
 2998POPC   D2A39700   8.945  26.851   8.264
 2998POPC   C3A39701   8.995  26.791   7.964
 2998POPC   C4A39702   8.962  26.789   7.664
 2998POPC   C1B39703   8.830  26.643   8.564
 2998POPC   C2B39704   8.904  26.631   8.264
 2998POPC   C3B39705   8.822  26.570   7.964
 2998POPC   C4B39706   8.807  26.639   7.664
 2999POPC   NC339707  26.803  31.501   9.464
 2999POPC   PO439708  26.773  31.497   9.164
 2999POPC   GL139709  26.823  31.426   8.864
 2999POPC   GL239710  26.656  31.392   8.864
 2999POPC   C1A39711  26.844  31.456   8.564
 2999POPC   D2A39712  26.865  31.490   8.264
 2999POPC   C3A39713  26.861  31.499   7.964
 2999POPC   C4A39714  26.834  31.509   7.664
 2999POPC   C1B39715  26.562  31.367   8.564
 2999POPC   C2B39716  26.627  31.369   8.264
 2999POPC   C3B39717  26.593  31.368   7.964
 2999POPC   C4B39718  26.560  31.433   7.664
 3000POPC   NC339719  23.751  37.692   9.464
 3000POPC   PO439720  23.671  37.654   9.164
 3000POPC   GL139721  23.670  37.647   8.864
 3000POPC   GL239722  23.847  37.624   8.864
 3000POPC   C1A39723  23.668  37.704   8.564
 3000POPC   D2A39724  23.736  37.729   8.264
 3000POPC   C3A39725  23.743  37.703   7.964
 3000POPC   C4A39726  23.729  37.709   7.664
 3000POPC   C1B39727  23.920  37.577   8.564
 3000POPC   C2B39728  23.906  37.482   8.264
 3000POPC   C3B39729  23.931  37.537   7.964
 3000POPC   C4B39730  23.946  37.481   7.664
 3001POPC   NC339731  15.985  23.723   9.464
 3001POPC   PO439732  15.956  23.708   9.164
 3001POPC   GL139733  15.982  23.679   8.864
 3001POPC   GL239734  15.823  23.670   8.864
 3001POPC   C1A39735  15.912  23.692   8.564
 3001POPC   D2A39736  15.954  23.701   8.264
 3001POPC   C3A39737  15.945  23.729   7.964
 3001POPC   C4A39738  15.928  23.680   7.664
 3001POPC   C1B39739  15.696  23.555   8.564
 3001POPC   C2B39740  15.713  23.637   8.264
 3001POPC   C3B39741  15.752  23.598   7.964
 3001POPC   C4B39742  15.751  23.542   7.664
 3002POPC   NC339743  32.212  13.664   9.464
 3002POPC   PO439744  32.271  13.602   9.164
 3002POPC   GL139745  32.245  13.617   8.864
 3002POPC   GL239746  32.174  13.722   8.864
 3002POPC   C1A39747  32.263  13.617   8.564
 3002POPC   D2A39748  32.275  13.655   8.264
 3002POPC   C3A39749  32.269  13.677   7.964
 3002POPC   C4A39750  32.224  13.651   7.664
 3002POPC   C1B39751  32.157  13.848   8.564
 3002POPC   C2B39752  32.159  13.827   8.264
 3002POPC   C3B39753  32.142  13.815   7.964
 3002POPC   C4B39754  32.075  13.851   7.664
 3003POPC   NC339755  36.892  29.169   9.464
 3003POPC   PO439756  36.905  29.174   9.164
 3003POPC   GL139757  36.858  29.177   8.864
 3003POPC   GL239758  36.938  29.223   8.864
 3003POPC   C1A39759  36.929  29.155   8.564
 3003POPC   D2A39760  36.868  29.165   8.264
 3003POPC   C3A39761  36.871  29.142   7.964
 3003POPC   C4A39762  36.930  29.188   7.664
 3003POPC   C1B39763  36.910  29.362   8.564
 3003POPC   C2B39764  36.963  29.429   8.264
 3003POPC   C3B39765  36.944  29.438   7.964
 3003POPC   C4B39766  36.889  29.351   7.664
 3004POPC   NC339767  33.019  26.788   9.464
 3004POPC   PO439768  33.028  26.782   9.164
 3004POPC   GL139769  33.031  26.798   8.864
 3004POPC   GL239770  33.165  26.734   8.864
 3004POPC   C1A39771  32.976  26.772   8.564
 3004POPC   D2A39772  32.992  26.783   8.264
 3004POPC   C3A39773  32.981  26.772   7.964
 3004POPC   C4A39774  33.061  26.855   7.664
 3004POPC   C1B39775  33.260  26.722   8.564
 3004POPC   C2B39776  33.261  26.664   8.264
 3004POPC   C3B39777  33.227  26.727   7.964
 3004POPC   C4B39778  33.271  26.682   7.664
 3005POPC   NC339779  38.474  36.094   9.464
 3005POPC   PO439780  38.487  36.102   9.164
 3005POPC   GL139781  38.455  36.094   8.864
 3005POPC   GL239782  38.538  36.211   8.864
 3005POPC   C1A39783  38.428  36.152   8.564
 3005POPC   D2A39784  38.471  36.128   8.264
 3005POPC   C3A39785  38.454  36.163   7.964
 3005POPC   C4A39786  38.463  36.127   7.664
 3005POPC   C1B39787  38.740  36.170   8.564
 3005POPC   C2B39788  38.679  36.245   8.264
 3005POPC   C3B39789  38.653  36.245   7.964
 3005POPC   C4B39790  38.678  36.171   7.664
 3006POPC   NC339791  10.502  30.734   9.464
 3006POPC   PO439792  10.526  30.708   9.164
 3006POPC   GL139793  10.523  30.741   8.864
 3006POPC   GL239794  10.513  30.584   8.864
 3006POPC   C1A39795  10.488  30.681   8.564
 3006POPC   D2A39796  10.489  30.656   8.264
 3006POPC   C3A39797  10.528  30.660   7.964
 3006POPC   C4A39798  10.567  30.674   7.664
 3006POPC   C1B39799  10.452  30.491   8.564
 3006POPC   C2B39800  10.512  30.477   8.264
 3006POPC   C3B39801  10.542  30.488   7.964
 3006POPC   C4B39802  10.498  30.492   7.664
 3007POPC   NC339803  11.307   5.884   9.464
 3007POPC   PO439804  11.328   5.903   9.164
 3007POPC   GL139805  11.282   5.862   8.864
 3007POPC   GL239806  11.241   5.969   8.864
 3007POPC   C1A39807  11.315   5.904   8.564
 3007POPC   D2A39808  11.314   5.872   8.264
 3007POPC   C3A39809  11.269   5.827   7.964
 3007POPC   C4A39810  11.349   5.855   7.664
 3007POPC   C1B39811  11.247   6.082   8.564
 3007POPC   C2B39812  11.223   6.059   8.264
 3007POPC   C3B39813  11.177   6.058   7.964
 3007POPC   C4B39814  11.240   6.064   7.664
 3008POPC   NC339815   1.260  29.174   9.464
 3008POPC   PO439816   1.217  29.098   9.164
 3008POPC   GL139817   1.180  29.099   8.864
 3008POPC   GL239818   1.051  29.116   8.864
 3008POPC   C1A39819   1.185  29.183   8.564
 3008POPC   D2A39820   1.176  29.119   8.264
 3008POPC   C3A39821   1.166  29.119   7.964
 3008POPC   C4A39822   1.176  29.155   7.664
 3008POPC   C1B39823   0.989  29.211   8.564
 3008POPC   C2B39824   0.941  29.151   8.264
 3008POPC   C3B39825   0.923  29.145   7.964
 3008POPC   C4B39826   0.940  29.180   7.664
 3009POPC   NC339827  12.065  26.028   9.464
 3009POPC   PO439828  12.041  26.046   9.164
 3009POPC   GL139829  12.084  26.061   8.864
 3009POPC   GL239830  12.084  25.883   8.864
 3009POPC   C1A39831  12.088  26.083   8.564
 3009POPC   D2A39832  12.106  26.038   8.264
 3009POPC   C3A39833  12.035  26.020   7.964
 3009POPC   C4A39834  12.120  26.010   7.664
 3009POPC   C1B39835  12.133  25.843   8.564
 3009POPC   C2B39836  12.122  25.834   8.264
 3009POPC   C3B39837  12.102  25.840   7.964
 3009POPC   C4B39838  12.139  25.781   7.664
 3010POPC   NC339839  38.442  19.855   9.464
 3010POPC   PO439840  38.450  19.841   9.164
 3010POPC   GL139841  38.451  19.815   8.864
 3010POPC   GL239842  38.576  19.764   8.864
 3010POPC   C1A39843  38.458  19.828   8.564
 3010POPC   D2A39844  38.501  19.830   8.264
 3010POPC   C3A39845  38.430  19.787   7.964
 3010POPC   C4A39846  38.453  19.828   7.664
 3010POPC   C1B39847  38.701  19.741   8.564
 3010POPC   C2B39848  38.692  19.699   8.264
 3010POPC   C3B39849  38.660  19.719   7.964
 3010POPC   C4B39850  38.645  19.713   7.664
 3011POPC   NC339851  32.215  23.751   9.464
 3011POPC   PO439852  32.202  23.668   9.164
 3011POPC   GL139853  32.259  23.728   8.864
 3011POPC   GL239854  32.143  23.782   8.864
 3011POPC   C1A39855  32.284  23.753   8.564
 3011POPC   D2A39856  32.238  23.687   8.264
 3011POPC   C3A39857  32.220  23.697   7.964
 3011POPC   C4A39858  32.232  23.709   7.664
 3011POPC   C1B39859  31.990  23.858   8.564
 3011POPC   C2B39860  31.990  23.847   8.264
 3011POPC   C3B39861  32.070  23.860   7.964
 3011POPC   C4B39862  32.055  23.806   7.664
 3012POPC   NC339863  37.636  19.081   9.464
 3012POPC   PO439864  37.655  19.060   9.164
 3012POPC   GL139865  37.704  19.053   8.864
 3012POPC   GL239866  37.694  18.951   8.864
 3012POPC   C1A39867  37.686  19.044   8.564
 3012POPC   D2A39868  37.670  19.063   8.264
 3012POPC   C3A39869  37.663  19.040   7.964
 3012POPC   C4A39870  37.691  19.043   7.664
 3012POPC   C1B39871  37.654  18.844   8.564
 3012POPC   C2B39872  37.707  18.843   8.264
 3012POPC   C3B39873  37.633  18.763   7.964
 3012POPC   C4B39874  37.625  18.774   7.664
 3013POPC   NC339875  12.876   5.867   9.464
 3013POPC   PO439876  12.898   5.911   9.164
 3013POPC   GL139877  12.810   5.838   8.864
 3013POPC   GL239878  12.877   5.790   8.864
 3013POPC   C1A39879  12.898   5.897   8.564
 3013POPC   D2A39880  12.883   5.828   8.264
 3013POPC   C3A39881  12.891   5.895   7.964
 3013POPC   C4A39882  12.878   5.834   7.664
 3013POPC   C1B39883  12.855   5.625   8.564
 3013POPC   C2B39884  12.908   5.605   8.264
 3013POPC   C3B39885  12.909   5.593   7.964
 3013POPC   C4B39886  12.838   5.587   7.664
 3014POPC   NC339887  17.546  29.181   9.464
 3014POPC   PO439888  17.476  29.165   9.164
 3014POPC   GL139889  17.517  29.146   8.864
 3014POPC   GL239890  17.459  28.997   8.864
 3014POPC   C1A39891  17.498  29.180   8.564
 3014POPC   D2A39892  17.522  29.165   8.264
 3014POPC   C3A39893  17.510  29.118   7.964
 3014POPC   C4A39894  17.509  29.112   7.664
 3014POPC   C1B39895  17.441  28.864   8.564
 3014POPC   C2B39896  17.469  28.913   8.264
 3014POPC   C3B39897  17.394  28.871   7.964
 3014POPC   C4B39898  17.474  28.862   7.664
 3015POPC   NC339899  40.048   6.606   9.464
 3015POPC   PO439900  39.962   6.630   9.164
 3015POPC   GL139901  40.043   6.636   8.864
 3015POPC   GL239902  40.017   6.741   8.864
 3015POPC   C1A39903  39.981   6.681   8.564
 3015POPC   D2A39904  40.047   6.603   8.264
 3015POPC   C3A39905  39.979   6.687   7.964
 3015POPC   C4A39906  40.024   6.631   7.664
 3015POPC   C1B39907  40.050   6.892   8.564
 3015POPC   C2B39908  40.025   6.880   8.264
 3015POPC   C3B39909  40.006   6.913   7.964
 3015POPC   C4B39910  40.051   6.869   7.664
 3016POPC   NC339911  28.355  13.654   9.464
 3016POPC   PO439912  28.341  13.581   9.164
 3016POPC   GL139913  28.406  13.627   8.864
 3016POPC   GL239914  28.247  13.704   8.864
 3016POPC   C1A39915  28.382  13.594   8.564
 3016POPC   D2A39916  28.411  13.605   8.264
 3016POPC   C3A39917  28.397  13.670   7.964
 3016POPC   C4A39918  28.346  13.671   7.664
 3016POPC   C1B39919  28.143  13.760   8.564
 3016POPC   C2B39920  28.115  13.746   8.264
 3016POPC   C3B39921  28.089  13.700   7.964
 3016POPC   C4B39922  28.139  13.679   7.664
 3017POPC   NC339923  29.164  20.590   9.464
 3017POPC   PO439924  29.190  20.585   9.164
 3017POPC   GL139925  29.179  20.641   8.864
 3017POPC   GL239926  29.269  20.531   8.864
 3017POPC   C1A39927  29.190  20.576   8.564
 3017POPC   D2A39928  29.167  20.620   8.264
 3017POPC   C3A39929  29.126  20.659   7.964
 3017POPC   C4A39930  29.127  20.622   7.664
 3017POPC   C1B39931  29.395  20.514   8.564
 3017POPC   C2B39932  29.322  20.495   8.264
 3017POPC   C3B39933  29.332  20.450   7.964
 3017POPC   C4B39934  29.336  20.504   7.664
 3018POPC   NC339935  27.601  27.629   9.464
 3018POPC   PO439936  27.595  27.581   9.164
 3018POPC   GL139937  27.625  27.617   8.864
 3018POPC   GL239938  27.473  27.538   8.864
 3018POPC   C1A39939  27.620  27.544   8.564
 3018POPC   D2A39940  27.619  27.586   8.264
 3018POPC   C3A39941  27.618  27.605   7.964
 3018POPC   C4A39942  27.557  27.547   7.664
 3018POPC   C1B39943  27.381  27.439   8.564
 3018POPC   C2B39944  27.408  27.406   8.264
 3018POPC   C3B39945  27.411  27.448   7.964
 3018POPC   C4B39946  27.415  27.413   7.664
 3019POPC   NC339947   8.194  20.584   9.464
 3019POPC   PO439948   8.241  20.569   9.164
 3019POPC   GL139949   8.203  20.622   8.864
 3019POPC   GL239950   8.173  20.698   8.864
 3019POPC   C1A39951   8.227  20.573   8.564
 3019POPC   D2A39952   8.213  20.611   8.264
 3019POPC   C3A39953   8.220  20.646   7.964
 3019POPC   C4A39954   8.237  20.579   7.664
 3019POPC   C1B39955   8.077  20.852   8.564
 3019POPC   C2B39956   8.125  20.831   8.264
 3019POPC   C3B39957   8.047  20.804   7.964
 3019POPC   C4B39958   8.098  20.869   7.664
 3020POPC   NC339959  41.591  11.344   9.464
 3020POPC   PO439960  41.575  11.272   9.164
 3020POPC   GL139961  41.579  11.273   8.864
 3020POPC   GL239962  41.673  11.371   8.864
 3020POPC   C1A39963  41.605  11.254   8.564
 3020POPC   D2A39964  41.527  11.254   8.264
 3020POPC   C3A39965  41.562  11.293   7.964
 3020POPC   C4A39966  41.556  11.265   7.664
 3020POPC   C1B39967  41.756  11.421   8.564
 3020POPC   C2B39968  41.825  11.431   8.264
 3020POPC   C3B39969  41.807  11.376   7.964
 3020POPC   C4B39970  41.827  11.436   7.664
 3021POPC   NC339971  31.464  19.053   9.464
 3021POPC   PO439972  31.436  19.069   9.164
 3021POPC   GL139973  31.510  19.012   8.864
 3021POPC   GL239974  31.603  18.934   8.864
 3021POPC   C1A39975  31.485  19.085   8.564
 3021POPC   D2A39976  31.487  19.059   8.264
 3021POPC   C3A39977  31.473  19.088   7.964
 3021POPC   C4A39978  31.495  19.072   7.664
 3021POPC   C1B39979  31.717  18.874   8.564
 3021POPC   C2B39980  31.688  18.856   8.264
 3021POPC   C3B39981  31.719  18.950   7.964
 3021POPC   C4B39982  31.672  18.904   7.664
 3022POPC   NC339983  12.055   6.686   9.464
 3022POPC   PO439984  12.030   6.612   9.164
 3022POPC   GL139985  12.079   6.677   8.864
 3022POPC   GL239986  12.210   6.562   8.864
 3022POPC   C1A39987  12.088   6.666   8.564
 3022POPC   D2A39988  12.091   6.631   8.264
 3022POPC   C3A39989  12.032   6.646   7.964
 3022POPC   C4A39990  12.030   6.602   7.664
 3022POPC   C1B39991  12.211   6.463   8.564
 3022POPC   C2B39992  12.212   6.431   8.264
 3022POPC   C3B39993  12.238   6.417   7.964
 3022POPC   C4B39994  12.256   6.441   7.664
 3023POPC   NC339995   2.027  11.344   9.464
 3023POPC   PO439996   1.999  11.347   9.164
 3023POPC   GL139997   1.999  11.336   8.864
 3023POPC   GL239998   1.907  11.417   8.864
 3023POPC   C1A39999   2.029  11.321   8.564
 3023POPC   D2A40000   2.023  11.346   8.264
 3023POPC   C3A40001   1.941  11.294   7.964
 3023POPC   C4A40002   1.972  11.261   7.664
 3023POPC   C1B40003   1.858  11.543   8.564
 3023POPC   C2B40004   1.875  11.556   8.264
 3023POPC   C3B40005   1.886  11.545   7.964
 3023POPC   C4B40006   1.886  11.531   7.664
 3024POPC   NC340007  30.698  42.381   9.464
 3024POPC   PO440008  30.710  42.296   9.164
 3024POPC   GL140009  30.743  42.310   8.864
 3024POPC   GL240010  30.826  42.331   8.864
 3024POPC   C1A40011  30.670  42.285   8.564
 3024POPC   D2A40012  30.701  42.286   8.264
 3024POPC   C3A40013  30.654  42.328   7.964
 3024POPC   C4A40014  30.746  42.373   7.664
 3024POPC   C1B40015  30.893  42.352   8.564
 3024POPC   C2B40016  30.932  42.436   8.264
 3024POPC   C3B40017  30.972  42.419   7.964
 3024POPC   C4B40018  30.919  42.370   7.664
 3025POPC   NC340019  24.509   6.650   9.464
 3025POPC   PO440020  24.446   6.611   9.164
 3025POPC   GL140021  24.516   6.682   8.864
 3025POPC   GL240022  24.609   6.690   8.864
 3025POPC   C1A40023  24.536   6.614   8.564
 3025POPC   D2A40024  24.526   6.652   8.264
 3025POPC   C3A40025  24.482   6.690   7.964
 3025POPC   C4A40026  24.449   6.686   7.664
 3025POPC   C1B40027  24.711   6.771   8.564
 3025POPC   C2B40028  24.697   6.815   8.264
 3025POPC   C3B40029  24.704   6.831   7.964
 3025POPC   C4B40030  24.712   6.771   7.664
 3026POPC   NC340031  12.104   1.257   9.464
 3026POPC   PO440032  12.102   1.235   9.164
 3026POPC   GL140033  12.067   1.195   8.864
 3026POPC   GL240034  11.949   1.213   8.864
 3026POPC   C1A40035  12.037   1.262   8.564
 3026POPC   D2A40036  12.084   1.190   8.264
 3026POPC   C3A40037  12.123   1.243   7.964
 3026POPC   C4A40038  12.083   1.205   7.664
 3026POPC   C1B40039  11.785   1.289   8.564
 3026POPC   C2B40040  11.868   1.291   8.264
 3026POPC   C3B40041  11.877   1.241   7.964
 3026POPC   C4B40042  11.832   1.259   7.664
 3027POPC   NC340043   0.408  43.917   9.464
 3027POPC   PO440044   0.455  43.840   9.164
 3027POPC   GL140045   0.414  43.862   8.864
 3027POPC   GL240046   0.353  43.933   8.864
 3027POPC   C1A40047   0.418  43.875   8.564
 3027POPC   D2A40048   0.462  43.891   8.264
 3027POPC   C3A40049   0.485  43.854   7.964
 3027POPC   C4A40050   0.437  43.910   7.664
 3027POPC   C1B40051   0.221  44.076   8.564
 3027POPC   C2B40052   0.227  44.015   8.264
 3027POPC   C3B40053   0.264  44.018   7.964
 3027POPC   C4B40054   0.229  44.018   7.664
 3028POPC   NC340055  26.013  33.787   9.464
 3028POPC   PO440056  26.045  33.758   9.164
 3028POPC   GL140057  26.057  33.830   8.864
 3028POPC   GL240058  26.133  33.892   8.864
 3028POPC   C1A40059  26.083  33.847   8.564
 3028POPC   D2A40060  26.074  33.827   8.264
 3028POPC   C3A40061  26.082  33.801   7.964
 3028POPC   C4A40062  25.996  33.753   7.664
 3028POPC   C1B40063  26.160  34.049   8.564
 3028POPC   C2B40064  26.140  34.071   8.264
 3028POPC   C3B40065  26.139  34.075   7.964
 3028POPC   C4B40066  26.115  33.997   7.664
 3029POPC   NC340067  18.261  18.275   9.464
 3029POPC   PO440068  18.235  18.292   9.164
 3029POPC   GL140069  18.308  18.251   8.864
 3029POPC   GL240070  18.149  18.356   8.864
 3029POPC   C1A40071  18.298  18.307   8.564
 3029POPC   D2A40072  18.301  18.319   8.264
 3029POPC   C3A40073  18.315  18.273   7.964
 3029POPC   C4A40074  18.288  18.324   7.664
 3029POPC   C1B40075  18.073  18.462   8.564
 3029POPC   C2B40076  18.120  18.441   8.264
 3029POPC   C3B40077  18.062  18.404   7.964
 3029POPC   C4B40078  18.047  18.385   7.664
 3030POPC   NC340079   1.258  44.652   9.464
 3030POPC   PO440080   1.179  44.675   9.164
 3030POPC   GL140081   1.168  44.623   8.864
 3030POPC   GL240082   1.115  44.636   8.864
 3030POPC   C1A40083   1.216  44.671   8.564
 3030POPC   D2A40084   1.190  44.637   8.264
 3030POPC   C3A40085   1.171  44.614   7.964
 3030POPC   C4A40086   1.185  44.706   7.664
 3030POPC   C1B40087   1.015  44.651   8.564
 3030POPC   C2B40088   0.936  44.661   8.264
 3030POPC   C3B40089   0.955  44.720   7.964
 3030POPC   C4B40090   0.927  44.649   7.664
 3031POPC   NC340091  42.370  18.268   9.464
 3031POPC   PO440092  42.375  18.239   9.164
 3031POPC   GL140093  42.358  18.294   8.864
 3031POPC   GL240094  42.334  18.157   8.864
 3031POPC   C1A40095  42.288  18.301   8.564
 3031POPC   D2A40096  42.341  18.267   8.264
 3031POPC   C3A40097  42.304  18.273   7.964
 3031POPC   C4A40098  42.299  18.255   7.664
 3031POPC   C1B40099  42.350  17.990   8.564
 3031POPC   C2B40100  42.360  18.045   8.264
 3031POPC   C3B40101  42.286  18.076   7.964
 3031POPC   C4B40102  42.289  18.024   7.664
 3032POPC   NC340103  36.078  29.966   9.464
 3032POPC   PO440104  36.107  29.894   9.164
 3032POPC   GL140105  36.082  29.933   8.864
 3032POPC   GL240106  36.162  30.053   8.864
 3032POPC   C1A40107  36.175  29.916   8.564
 3032POPC   D2A40108  36.113  29.946   8.264
 3032POPC   C3A40109  36.136  29.929   7.964
 3032POPC   C4A40110  36.130  29.899   7.664
 3032POPC   C1B40111  36.149  30.187   8.564
 3032POPC   C2B40112  36.199  30.121   8.264
 3032POPC   C3B40113  36.170  30.145   7.964
 3032POPC   C4B40114  36.147  30.135   7.664
 3033POPC   NC340115   1.173  22.942   9.464
 3033POPC   PO440116   1.191  22.919   9.164
 3033POPC   GL140117   1.180  22.957   8.864
 3033POPC   GL240118   1.112  22.965   8.864
 3033POPC   C1A40119   1.245  22.975   8.564
 3033POPC   D2A40120   1.176  22.972   8.264
 3033POPC   C3A40121   1.185  22.928   7.964
 3033POPC   C4A40122   1.189  22.899   7.664
 3033POPC   C1B40123   0.966  23.090   8.564
 3033POPC   C2B40124   1.065  23.089   8.264
 3033POPC   C3B40125   1.025  23.056   7.964
 3033POPC   C4B40126   1.063  23.110   7.664
 3034POPC   NC340127  22.168  33.007   9.464
 3034POPC   PO440128  22.177  33.036   9.164
 3034POPC   GL140129  22.138  32.988   8.864
 3034POPC   GL240130  22.226  32.959   8.864
 3034POPC   C1A40131  22.175  33.051   8.564
 3034POPC   D2A40132  22.186  33.000   8.264
 3034POPC   C3A40133  22.143  33.004   7.964
 3034POPC   C4A40134  22.196  33.043   7.664
 3034POPC   C1B40135  22.275  32.851   8.564
 3034POPC   C2B40136  22.307  32.813   8.264
 3034POPC   C3B40137  22.293  32.833   7.964
 3034POPC   C4B40138  22.264  32.789   7.664
 3035POPC   NC340139  22.915  43.846   9.464
 3035POPC   PO440140  22.895  43.924   9.164
 3035POPC   GL140141  22.937  43.862   8.864
 3035POPC   GL240142  22.886  43.983   8.864
 3035POPC   C1A40143  22.932  43.918   8.564
 3035POPC   D2A40144  22.897  43.886   8.264
 3035POPC   C3A40145  22.929  43.896   7.964
 3035POPC   C4A40146  22.894  43.887   7.664
 3035POPC   C1B40147  22.791  44.113   8.564
 3035POPC   C2B40148  22.782  44.043   8.264
 3035POPC   C3B40149  22.782  44.115   7.964
 3035POPC   C4B40150  22.823  44.116   7.664
 3036POPC   NC340151  42.292  28.376   9.464
 3036POPC   PO440152  42.340  28.354   9.164
 3036POPC   GL140153  42.378  28.360   8.864
 3036POPC   GL240154  42.243  28.451   8.864
 3036POPC   C1A40155  42.369  28.395   8.564
 3036POPC   D2A40156  42.359  28.324   8.264
 3036POPC   C3A40157  42.340  28.321   7.964
 3036POPC   C4A40158  42.295  28.418   7.664
 3036POPC   C1B40159  42.107  28.498   8.564
 3036POPC   C2B40160  42.167  28.510   8.264
 3036POPC   C3B40161  42.138  28.551   7.964
 3036POPC   C4B40162  42.148  28.578   7.664
 3037POPC   NC340163  29.144  22.978   9.464
 3037POPC   PO440164  29.097  22.911   9.164
 3037POPC   GL140165  29.120  22.925   8.864
 3037POPC   GL240166  29.234  23.009   8.864
 3037POPC   C1A40167  29.125  22.894   8.564
 3037POPC   D2A40168  29.164  22.942   8.264
 3037POPC   C3A40169  29.166  22.924   7.964
 3037POPC   C4A40170  29.152  22.929   7.664
 3037POPC   C1B40171  29.336  23.113   8.564
 3037POPC   C2B40172  29.355  23.093   8.264
 3037POPC   C3B40173  29.298  23.096   7.964
 3037POPC   C4B40174  29.346  23.128   7.664
 3038POPC   NC340175  19.106   4.367   9.464
 3038POPC   PO440176  19.106   4.324   9.164
 3038POPC   GL140177  19.071   4.324   8.864
 3038POPC   GL240178  19.172   4.318   8.864
 3038POPC   C1A40179  19.009   4.267   8.564
 3038POPC   D2A40180  19.064   4.300   8.264
 3038POPC   C3A40181  19.046   4.310   7.964
 3038POPC   C4A40182  19.105   4.338   7.664
 3038POPC   C1B40183  19.312   4.413   8.564
 3038POPC   C2B40184  19.261   4.394   8.264
 3038POPC   C3B40185  19.248   4.393   7.964
 3038POPC   C4B40186  19.329   4.393   7.664
 3039POPC   NC340187  38.454   0.433   9.464
 3039POPC   PO440188  38.435   0.481   9.164
 3039POPC   GL140189  38.454   0.469   8.864
 3039POPC   GL240190  38.512   0.557   8.864
 3039POPC   C1A40191  38.456   0.487   8.564
 3039POPC   D2A40192  38.429   0.450   8.264
 3039POPC   C3A40193  38.462   0.461   7.964
 3039POPC   C4A40194  38.429   0.437   7.664
 3039POPC   C1B40195  38.524   0.670   8.564
 3039POPC   C2B40196  38.600   0.675   8.264
 3039POPC   C3B40197  38.523   0.656   7.964
 3039POPC   C4B40198  38.560   0.626   7.664
 3040POPC   NC340199  40.004  35.313   9.464
 3040POPC   PO440200  39.977  35.390   9.164
 3040POPC   GL140201  39.967  35.385   8.864
 3040POPC   GL240202  39.979  35.213   8.864
 3040POPC   C1A40203  40.044  35.401   8.564
 3040POPC   D2A40204  40.034  35.394   8.264
 3040POPC   C3A40205  39.974  35.388   7.964
 3040POPC   C4A40206  40.012  35.316   7.664
 3040POPC   C1B40207  39.899  35.121   8.564
 3040POPC   C2B40208  39.921  35.102   8.264
 3040POPC   C3B40209  39.916  35.115   7.964
 3040POPC   C4B40210  39.887  35.165   7.664
 3041POPC   NC340211  19.812   1.184   9.464
 3041POPC   PO440212  19.794   1.249   9.164
 3041POPC   GL140213  19.829   1.228   8.864
 3041POPC   GL240214  19.712   1.156   8.864
 3041POPC   C1A40215  19.802   1.249   8.564
 3041POPC   D2A40216  19.860   1.257   8.264
 3041POPC   C3A40217  19.791   1.232   7.964
 3041POPC   C4A40218  19.840   1.185   7.664
 3041POPC   C1B40219  19.652   1.109   8.564
 3041POPC   C2B40220  19.555   1.087   8.264
 3041POPC   C3B40221  19.644   1.127   7.964
 3041POPC   C4B40222  19.648   1.129   7.664
 3042POPC   NC340223  39.183  32.219   9.464
 3042POPC   PO440224  39.214  32.204   9.164
 3042POPC   GL140225  39.212  32.289   8.864
 3042POPC   GL240226  39.327  32.239   8.864
 3042POPC   C1A40227  39.223  32.201   8.564
 3042POPC   D2A40228  39.205  32.247   8.264
 3042POPC   C3A40229  39.211  32.210   7.964
 3042POPC   C4A40230  39.187  32.279   7.664
 3042POPC   C1B40231  39.463  32.347   8.564
 3042POPC   C2B40232  39.469  32.302   8.264
 3042POPC   C3B40233  39.452  32.352   7.964
 3042POPC   C4B40234  39.455  32.340   7.664
 3043POPC   NC340235  25.306  25.218   9.464
 3043POPC   PO440236  25.223  25.281   9.164
 3043POPC   GL140237  25.293  25.310   8.864
 3043POPC   GL240238  25.171  25.118   8.864
 3043POPC   C1A40239  25.283  25.294   8.564
 3043POPC   D2A40240  25.231  25.232   8.264
 3043POPC   C3A40241  25.239  25.234   7.964
 3043POPC   C4A40242  25.250  25.234   7.664
 3043POPC   C1B40243  25.109  25.063   8.564
 3043POPC   C2B40244  25.185  25.059   8.264
 3043POPC   C3B40245  25.186  25.075   7.964
 3043POPC   C4B40246  25.139  25.004   7.664
 3044POPC   NC340247  26.843  15.967   9.464
 3044POPC   PO440248  26.855  15.939   9.164
 3044POPC   GL140249  26.855  15.994   8.864
 3044POPC   GL240250  26.679  15.848   8.864
 3044POPC   C1A40251  26.843  15.963   8.564
 3044POPC   D2A40252  26.862  16.002   8.264
 3044POPC   C3A40253  26.795  15.934   7.964
 3044POPC   C4A40254  26.796  15.969   7.664
 3044POPC   C1B40255  26.611  15.838   8.564
 3044POPC   C2B40256  26.630  15.793   8.264
 3044POPC   C3B40257  26.610  15.808   7.964
 3044POPC   C4B40258  26.600  15.869   7.664
 3045POPC   NC340259  27.640  29.105   9.464
 3045POPC   PO440260  27.615  29.140   9.164
 3045POPC   GL140261  27.621  29.193   8.864
 3045POPC   GL240262  27.701  29.117   8.864
 3045POPC   C1A40263  27.578  29.184   8.564
 3045POPC   D2A40264  27.581  29.118   8.264
 3045POPC   C3A40265  27.552  29.125   7.964
 3045POPC   C4A40266  27.607  29.121   7.664
 3045POPC   C1B40267  27.832  29.068   8.564
 3045POPC   C2B40268  27.860  29.069   8.264
 3045POPC   C3B40269  27.885  29.110   7.964
 3045POPC   C4B40270  27.828  29.151   7.664
 3046POPC   NC340271  19.018  38.475   9.464
 3046POPC   PO440272  19.022  38.463   9.164
 3046POPC   GL140273  19.061  38.482   8.864
 3046POPC   GL240274  19.113  38.386   8.864
 3046POPC   C1A40275  19.102  38.452   8.564
 3046POPC   D2A40276  19.042  38.433   8.264
 3046POPC   C3A40277  19.070  38.491   7.964
 3046POPC   C4A40278  19.034  38.473   7.664
 3046POPC   C1B40279  19.195  38.235   8.564
 3046POPC   C2B40280  19.132  38.186   8.264
 3046POPC   C3B40281  19.121  38.220   7.964
 3046POPC   C4B40282  19.119  38.214   7.664
 3047POPC   NC340283  19.869  40.813   9.464
 3047POPC   PO440284  19.872  40.822   9.164
 3047POPC   GL140285  19.836  40.784   8.864
 3047POPC   GL240286  19.776  40.682   8.864
 3047POPC   C1A40287  19.884  40.766   8.564
 3047POPC   D2A40288  19.804  40.744   8.264
 3047POPC   C3A40289  19.857  40.754   7.964
 3047POPC   C4A40290  19.791  40.827   7.664
 3047POPC   C1B40291  19.651  40.620   8.564
 3047POPC   C2B40292  19.679  40.596   8.264
 3047POPC   C3B40293  19.628  40.606   7.964
 3047POPC   C4B40294  19.640  40.588   7.664
 3048POPC   NC340295  15.922  40.022   9.464
 3048POPC   PO440296  15.926  39.993   9.164
 3048POPC   GL140297  15.977  39.972   8.864
 3048POPC   GL240298  15.874  40.156   8.864
 3048POPC   C1A40299  15.979  39.971   8.564
 3048POPC   D2A40300  15.982  40.033   8.264
 3048POPC   C3A40301  15.928  39.960   7.964
 3048POPC   C4A40302  15.991  39.985   7.664
 3048POPC   C1B40303  15.817  40.199   8.564
 3048POPC   C2B40304  15.847  40.161   8.264
 3048POPC   C3B40305  15.814  40.204   7.964
 3048POPC   C4B40306  15.842  40.256   7.664
 3049POPC   NC340307  21.345  42.379   9.464
 3049POPC   PO440308  21.400  42.384   9.164
 3049POPC   GL140309  21.344  42.325   8.864
 3049POPC   GL240310  21.234  42.397   8.864
 3049POPC   C1A40311  21.349  42.314   8.564
 3049POPC   D2A40312  21.365  42.288   8.264
 3049POPC   C3A40313  21.404  42.332   7.964
 3049POPC   C4A40314  21.423  42.295   7.664
 3049POPC   C1B40315  21.161  42.435   8.564
 3049POPC   C2B40316  21.141  42.429   8.264
 3049POPC   C3B40317  21.218  42.424   7.964
 3049POPC   C4B40318  21.122  42.481   7.664
 3050POPC   NC340319  15.223   2.006   9.464
 3050POPC   PO440320  15.168   2.007   9.164
 3050POPC   GL140321  15.168   1.955   8.864
 3050POPC   GL240322  15.270   2.016   8.864
 3050POPC   C1A40323  15.206   1.957   8.564
 3050POPC   D2A40324  15.206   1.949   8.264
 3050POPC   C3A40325  15.147   1.953   7.964
 3050POPC   C4A40326  15.157   2.039   7.664
 3050POPC   C1B40327  15.399   1.962   8.564
 3050POPC   C2B40328  15.471   1.990   8.264
 3050POPC   C3B40329  15.390   1.938   7.964
 3050POPC   C4B40330  15.421   1.952   7.664
 3051POPC   NC340331  22.143  12.827   9.464
 3051POPC   PO440332  22.149  12.803   9.164
 3051POPC   GL140333  22.134  12.888   8.864
 3051POPC   GL240334  22.303  12.857   8.864
 3051POPC   C1A40335  22.202  12.899   8.564
 3051POPC   D2A40336  22.140  12.893   8.264
 3051POPC   C3A40337  22.194  12.823   7.964
 3051POPC   C4A40338  22.160  12.836   7.664
 3051POPC   C1B40339  22.451  12.805   8.564
 3051POPC   C2B40340  22.451  12.815   8.264
 3051POPC   C3B40341  22.388  12.781   7.964
 3051POPC   C4B40342  22.371  12.792   7.664
 3052POPC   NC340343  19.815  20.656   9.464
 3052POPC   PO440344  19.836  20.575   9.164
 3052POPC   GL140345  19.813  20.583   8.864
 3052POPC   GL240346  19.715  20.601   8.864
 3052POPC   C1A40347  19.839  20.582   8.564
 3052POPC   D2A40348  19.864  20.584   8.264
 3052POPC   C3A40349  19.867  20.604   7.964
 3052POPC   C4A40350  19.874  20.596   7.664
 3052POPC   C1B40351  19.568  20.532   8.564
 3052POPC   C2B40352  19.628  20.518   8.264
 3052POPC   C3B40353  19.587  20.507   7.964
 3052POPC   C4B40354  19.629  20.553   7.664
 3053POPC   NC340355   6.686   5.885   9.464
 3053POPC   PO440356   6.671   5.909   9.164
 3053POPC   GL140357   6.643   5.913   8.864
 3053POPC   GL240358   6.554   5.866   8.864
 3053POPC   C1A40359   6.646   5.870   8.564
 3053POPC   D2A40360   6.664   5.885   8.264
 3053POPC   C3A40361   6.681   5.894   7.964
 3053POPC   C4A40362   6.654   5.861   7.664
 3053POPC   C1B40363   6.388   5.812   8.564
 3053POPC   C2B40364   6.433   5.809   8.264
 3053POPC   C3B40365   6.432   5.762   7.964
 3053POPC   C4B40366   6.371   5.734   7.664
 3054POPC   NC340367  18.319  12.901   9.464
 3054POPC   PO440368  18.324  12.867   9.164
 3054POPC   GL140369  18.314  12.863   8.864
 3054POPC   GL240370  18.421  12.848   8.864
 3054POPC   C1A40371  18.272  12.887   8.564
 3054POPC   D2A40372  18.265  12.817   8.264
 3054POPC   C3A40373  18.296  12.894   7.964
 3054POPC   C4A40374  18.234  12.844   7.664
 3054POPC   C1B40375  18.540  12.837   8.564
 3054POPC   C2B40376  18.514  12.861   8.264
 3054POPC   C3B40377  18.577  12.795   7.964
 3054POPC   C4B40378  18.582  12.884   7.664
 3055POPC   NC340379  19.825  39.969   9.464
 3055POPC   PO440380  19.790  40.036   9.164
 3055POPC   GL140381  19.786  40.011   8.864
 3055POPC   GL240382  19.934  40.092   8.864
 3055POPC   C1A40383  19.819  40.028   8.564
 3055POPC   D2A40384  19.837  40.030   8.264
 3055POPC   C3A40385  19.819  40.009   7.964
 3055POPC   C4A40386  19.832  39.957   7.664
 3055POPC   C1B40387  20.072  40.111   8.564
 3055POPC   C2B40388  20.055  40.077   8.264
 3055POPC   C3B40389  20.088  40.062   7.964
 3055POPC   C4B40390  20.070  40.056   7.664
 3056POPC   NC340391  38.433  21.417   9.464
 3056POPC   PO440392  38.455  21.363   9.164
 3056POPC   GL140393  38.450  21.367   8.864
 3056POPC   GL240394  38.331  21.414   8.864
 3056POPC   C1A40395  38.421  21.418   8.564
 3056POPC   D2A40396  38.424  21.436   8.264
 3056POPC   C3A40397  38.410  21.391   7.964
 3056POPC   C4A40398  38.444  21.421   7.664
 3056POPC   C1B40399  38.233  21.489   8.564
 3056POPC   C2B40400  38.209  21.526   8.264
 3056POPC   C3B40401  38.233  21.493   7.964
 3056POPC   C4B40402  38.243  21.514   7.664
 3057POPC   NC340403  39.266  19.022   9.464
 3057POPC   PO440404  39.215  19.072   9.164
 3057POPC   GL140405  39.208  19.014   8.864
 3057POPC   GL240406  39.279  19.180   8.864
 3057POPC   C1A40407  39.271  19.102   8.564
 3057POPC   D2A40408  39.185  19.019   8.264
 3057POPC   C3A40409  39.241  19.026   7.964
 3057POPC   C4A40410  39.239  19.031   7.664
 3057POPC   C1B40411  39.228  19.280   8.564
 3057POPC   C2B40412  39.230  19.282   8.264
 3057POPC   C3B40413  39.265  19.351   7.964
 3057POPC   C4B40414  39.258  19.341   7.664
 3058POPC   NC340415  20.616  15.216   9.464
 3058POPC   PO440416  20.654  15.192   9.164
 3058POPC   GL140417  20.563  15.151   8.864
 3058POPC   GL240418  20.625  15.092   8.864
 3058POPC   C1A40419  20.592  15.176   8.564
 3058POPC   D2A40420  20.623  15.223   8.264
 3058POPC   C3A40421  20.638  15.147   7.964
 3058POPC   C4A40422  20.652  15.134   7.664
 3058POPC   C1B40423  20.566  14.960   8.564
 3058POPC   C2B40424  20.633  14.943   8.264
 3058POPC   C3B40425  20.619  14.911   7.964
 3058POPC   C4B40426  20.595  14.968   7.664
 3059POPC   NC340427  20.596  30.743   9.464
 3059POPC   PO440428  20.659  30.706   9.164
 3059POPC   GL140429  20.624  30.665   8.864
 3059POPC   GL240430  20.547  30.577   8.864
 3059POPC   C1A40431  20.604  30.723   8.564
 3059POPC   D2A40432  20.577  30.662   8.264
 3059POPC   C3A40433  20.614  30.728   7.964
 3059POPC   C4A40434  20.578  30.665   7.664
 3059POPC   C1B40435  20.380  30.553   8.564
 3059POPC   C2B40436  20.425  30.573   8.264
 3059POPC   C3B40437  20.407  30.576   7.964
 3059POPC   C4B40438  20.422  30.557   7.664
 3060POPC   NC340439   7.430  11.325   9.464
 3060POPC   PO440440   7.415  11.261   9.164
 3060POPC   GL140441   7.470  11.254   8.864
 3060POPC   GL240442   7.490  11.332   8.864
 3060POPC   C1A40443   7.421  11.266   8.564
 3060POPC   D2A40444   7.373  11.284   8.264
 3060POPC   C3A40445   7.458  11.283   7.964
 3060POPC   C4A40446   7.466  11.291   7.664
 3060POPC   C1B40447   7.671  11.412   8.564
 3060POPC   C2B40448   7.632  11.420   8.264
 3060POPC   C3B40449   7.677  11.394   7.964
 3060POPC   C4B40450   7.661  11.436   7.664
 3061POPC   NC340451  16.713  42.315   9.464
 3061POPC   PO440452  16.744  42.302   9.164
 3061POPC   GL140453  16.715  42.378   8.864
 3061POPC   GL240454  16.705  42.475   8.864
 3061POPC   C1A40455  16.706  42.338   8.564
 3061POPC   D2A40456  16.777  42.359   8.264
 3061POPC   C3A40457  16.730  42.348   7.964
 3061POPC   C4A40458  16.702  42.299   7.664
 3061POPC   C1B40459  16.733  42.592   8.564
 3061POPC   C2B40460  16.820  42.570   8.264
 3061POPC   C3B40461  16.769  42.585   7.964
 3061POPC   C4B40462  16.812  42.557   7.664
 3062POPC   NC340463  32.210  10.532   9.464
 3062POPC   PO440464  32.251  10.533   9.164
 3062POPC   GL140465  32.236  10.560   8.864
 3062POPC   GL240466  32.151  10.442   8.864
 3062POPC   C1A40467  32.263  10.477   8.564
 3062POPC   D2A40468  32.238  10.496   8.264
 3062POPC   C3A40469  32.208  10.512   7.964
 3062POPC   C4A40470  32.291  10.491   7.664
 3062POPC   C1B40471  32.094  10.339   8.564
 3062POPC   C2B40472  32.011  10.324   8.264
 3062POPC   C3B40473  32.077  10.357   7.964
 3062POPC   C4B40474  32.038  10.370   7.664
 3063POPC   NC340475  43.094  38.470   9.464
 3063POPC   PO440476  43.155  38.473   9.164
 3063POPC   GL140477  43.099  38.496   8.864
 3063POPC   GL240478  43.235  38.415   8.864
 3063POPC   C1A40479  43.082  38.460   8.564
 3063POPC   D2A40480  43.131  38.450   8.264
 3063POPC   C3A40481  43.132  38.457   7.964
 3063POPC   C4A40482  43.105  38.440   7.664
 3063POPC   C1B40483  43.260  38.285   8.564
 3063POPC   C2B40484  43.311  38.288   8.264
 3063POPC   C3B40485  43.350  38.262   7.964
 3063POPC   C4B40486  43.341  38.266   7.664
 3064POPC   NC340487   7.406   4.362   9.464
 3064POPC   PO440488   7.378   4.311   9.164
 3064POPC   GL140489   7.393   4.337   8.864
 3064POPC   GL240490   7.265   4.410   8.864
 3064POPC   C1A40491   7.426   4.270   8.564
 3064POPC   D2A40492   7.407   4.293   8.264
 3064POPC   C3A40493   7.383   4.314   7.964
 3064POPC   C4A40494   7.438   4.338   7.664
 3064POPC   C1B40495   7.158   4.447   8.564
 3064POPC   C2B40496   7.171   4.418   8.264
 3064POPC   C3B40497   7.232   4.470   7.964
 3064POPC   C4B40498   7.229   4.395   7.664
 3065POPC   NC340499  26.014   3.536   9.464
 3065POPC   PO440500  26.060   3.544   9.164
 3065POPC   GL140501  26.059   3.508   8.864
 3065POPC   GL240502  25.890   3.547   8.864
 3065POPC   C1A40503  26.040   3.562   8.564
 3065POPC   D2A40504  26.036   3.587   8.264
 3065POPC   C3A40505  26.038   3.579   7.964
 3065POPC   C4A40506  26.000   3.514   7.664
 3065POPC   C1B40507  25.758   3.509   8.564
 3065POPC   C2B40508  25.760   3.475   8.264
 3065POPC   C3B40509  25.814   3.536   7.964
 3065POPC   C4B40510  25.789   3.499   7.664
 3066POPC   NC340511  44.623  15.954   9.464
 3066POPC   PO440512  44.696  15.952   9.164
 3066POPC   GL140513  44.613  15.918   8.864
 3066POPC   GL240514  44.671  16.035   8.864
 3066POPC   C1A40515  44.677  15.990   8.564
 3066POPC   D2A40516  44.630  15.935   8.264
 3066POPC   C3A40517  44.659  15.957   7.964
 3066POPC   C4A40518  44.691  15.936   7.664
 3066POPC   C1B40519  44.725  16.138   8.564
 3066POPC   C2B40520  44.788  16.130   8.264
 3066POPC   C3B40521  44.781  16.146   7.964
 3066POPC   C4B40522  44.750  16.162   7.664
 3067POPC   NC340523   6.629  44.700   9.464
 3067POPC   PO440524   6.646  44.671   9.164
 3067POPC   GL140525   6.678  44.630   8.864
 3067POPC   GL240526   6.516  44.638   8.864
 3067POPC   C1A40527   6.646  44.651   8.564
 3067POPC   D2A40528   6.662  44.657   8.264
 3067POPC   C3A40529   6.680  44.641   7.964
 3067POPC   C4A40530   6.686  44.662   7.664
 3067POPC   C1B40531   6.405  44.729   8.564
 3067POPC   C2B40532   6.367  44.711   8.264
 3067POPC   C3B40533   6.398  44.746   7.964
 3067POPC   C4B40534   6.420  44.659   7.664
 3068POPC   NC340535  22.927  39.217   9.464
 3068POPC   PO440536  22.915  39.254   9.164
 3068POPC   GL140537  22.981  39.247   8.864
 3068POPC   GL240538  22.884  39.368   8.864
 3068POPC   C1A40539  22.928  39.183   8.564
 3068POPC   D2A40540  22.929  39.270   8.264
 3068POPC   C3A40541  22.929  39.182   7.964
 3068POPC   C4A40542  22.988  39.246   7.664
 3068POPC   C1B40543  22.938  39.529   8.564
 3068POPC   C2B40544  22.866  39.523   8.264
 3068POPC   C3B40545  22.881  39.479   7.964
 3068POPC   C4B40546  22.935  39.461   7.664
 3069POPC   NC340547  22.940  36.155   9.464
 3069POPC   PO440548  22.922  36.109   9.164
 3069POPC   GL140549  22.976  36.145   8.864
 3069POPC   GL240550  23.062  36.033   8.864
 3069POPC   C1A40551  22.909  36.123   8.564
 3069POPC   D2A40552  22.922  36.158   8.264
 3069POPC   C3A40553  22.958  36.157   7.964
 3069POPC   C4A40554  22.979  36.164   7.664
 3069POPC   C1B40555  23.162  36.043   8.564
 3069POPC   C2B40556  23.196  35.963   8.264
 3069POPC   C3B40557  23.147  36.025   7.964
 3069POPC   C4B40558  23.164  36.008   7.664
 3070POPC   NC340559   9.769  14.435   9.464
 3070POPC   PO440560   9.770  14.417   9.164
 3070POPC   GL140561   9.770  14.449   8.864
 3070POPC   GL240562   9.682  14.241   8.864
 3070POPC   C1A40563   9.730  14.446   8.564
 3070POPC   D2A40564   9.712  14.394   8.264
 3070POPC   C3A40565   9.698  14.379   7.964
 3070POPC   C4A40566   9.740  14.362   7.664
 3070POPC   C1B40567   9.615  14.197   8.564
 3070POPC   C2B40568   9.648  14.171   8.264
 3070POPC   C3B40569   9.651  14.140   7.964
 3070POPC   C4B40570   9.662  14.206   7.664
 3071POPC   NC340571  11.252   1.968   9.464
 3071POPC   PO440572  11.318   1.983   9.164
 3071POPC   GL140573  11.265   1.978   8.864
 3071POPC   GL240574  11.367   2.137   8.864
 3071POPC   C1A40575  11.267   1.954   8.564
 3071POPC   D2A40576  11.266   1.981   8.264
 3071POPC   C3A40577  11.309   1.943   7.964
 3071POPC   C4A40578  11.291   2.027   7.664
 3071POPC   C1B40579  11.494   2.240   8.564
 3071POPC   C2B40580  11.469   2.190   8.264
 3071POPC   C3B40581  11.426   2.143   7.964
 3071POPC   C4B40582  11.440   2.210   7.664
 3072POPC   NC340583  27.569  37.635   9.464
 3072POPC   PO440584  27.611  37.699   9.164
 3072POPC   GL140585  27.601  37.637   8.864
 3072POPC   GL240586  27.465  37.579   8.864
 3072POPC   C1A40587  27.600  37.641   8.564
 3072POPC   D2A40588  27.616  37.676   8.264
 3072POPC   C3A40589  27.605  37.714   7.964
 3072POPC   C4A40590  27.578  37.677   7.664
 3072POPC   C1B40591  27.344  37.568   8.564
 3072POPC   C2B40592  27.420  37.537   8.264
 3072POPC   C3B40593  27.427  37.542   7.964
 3072POPC   C4B40594  27.411  37.525   7.664
 3073POPC   NC340595  15.182  36.893   9.464
 3073POPC   PO440596  15.173  36.923   9.164
 3073POPC   GL140597  15.153  36.874   8.864
 3073POPC   GL240598  15.337  36.887   8.864
 3073POPC   C1A40599  15.217  36.872   8.564
 3073POPC   D2A40600  15.207  36.926   8.264
 3073POPC   C3A40601  15.205  36.912   7.964
 3073POPC   C4A40602  15.136  36.912   7.664
 3073POPC   C1B40603  15.399  36.888   8.564
 3073POPC   C2B40604  15.471  36.827   8.264
 3073POPC   C3B40605  15.457  36.896   7.964
 3073POPC   C4B40606  15.472  36.817   7.664
 3074POPC   NC340607  18.279  16.686   9.464
 3074POPC   PO440608  18.244  16.689   9.164
 3074POPC   GL140609  18.287  16.751   8.864
 3074POPC   GL240610  18.237  16.615   8.864
 3074POPC   C1A40611  18.294  16.764   8.564
 3074POPC   D2A40612  18.317  16.737   8.264
 3074POPC   C3A40613  18.233  16.719   7.964
 3074POPC   C4A40614  18.286  16.765   7.664
 3074POPC   C1B40615  18.145  16.553   8.564
 3074POPC   C2B40616  18.099  16.532   8.264
 3074POPC   C3B40617  18.114  16.562   7.964
 3074POPC   C4B40618  18.116  16.581   7.664
 3075POPC   NC340619   5.906  12.100   9.464
 3075POPC   PO440620   5.877  12.076   9.164
 3075POPC   GL140621   5.842  12.074   8.864
 3075POPC   GL240622   6.003  11.996   8.864
 3075POPC   C1A40623   5.897  12.053   8.564
 3075POPC   D2A40624   5.863  12.112   8.264
 3075POPC   C3A40625   5.910  12.033   7.964
 3075POPC   C4A40626   5.830  12.054   7.664
 3075POPC   C1B40627   6.056  11.906   8.564
 3075POPC   C2B40628   6.102  11.956   8.264
 3075POPC   C3B40629   6.064  11.988   7.964
 3075POPC   C4B40630   6.046  11.908   7.664
 3076POPC   NC340631   6.617  30.742   9.464
 3076POPC   PO440632   6.645  30.668   9.164
 3076POPC   GL140633   6.614  30.703   8.864
 3076POPC   GL240634   6.524  30.710   8.864
 3076POPC   C1A40635   6.637  30.665   8.564
 3076POPC   D2A40636   6.681  30.680   8.264
 3076POPC   C3A40637   6.671  30.737   7.964
 3076POPC   C4A40638   6.596  30.676   7.664
 3076POPC   C1B40639   6.426  30.669   8.564
 3076POPC   C2B40640   6.407  30.671   8.264
 3076POPC   C3B40641   6.418  30.725   7.964
 3076POPC   C4B40642   6.402  30.708   7.664
 3077POPC   NC340643  40.802  40.764   9.464
 3077POPC   PO440644  40.799  40.753   9.164
 3077POPC   GL140645  40.810  40.745   8.864
 3077POPC   GL240646  40.718  40.721   8.864
 3077POPC   C1A40647  40.745  40.747   8.564
 3077POPC   D2A40648  40.788  40.790   8.264
 3077POPC   C3A40649  40.782  40.830   7.964
 3077POPC   C4A40650  40.811  40.738   7.664
 3077POPC   C1B40651  40.582  40.602   8.564
 3077POPC   C2B40652  40.581  40.658   8.264
 3077POPC   C3B40653  40.580  40.612   7.964
 3077POPC   C4B40654  40.611  40.598   7.664
 3078POPC   NC340655  36.091   7.438   9.464
 3078POPC   PO440656  36.132   7.413   9.164
 3078POPC   GL140657  36.140   7.437   8.864
 3078POPC   GL240658  36.073   7.300   8.864
 3078POPC   C1A40659  36.091   7.375   8.564
 3078POPC   D2A40660  36.158   7.466   8.264
 3078POPC   C3A40661  36.083   7.397   7.964
 3078POPC   C4A40662  36.148   7.409   7.664
 3078POPC   C1B40663  36.112   7.145   8.564
 3078POPC   C2B40664  36.098   7.148   8.264
 3078POPC   C3B40665  36.104   7.162   7.964
 3078POPC   C4B40666  36.076   7.132   7.664
 3079POPC   NC340667  14.424   1.247   9.464
 3079POPC   PO440668  14.364   1.184   9.164
 3079POPC   GL140669  14.370   1.194   8.864
 3079POPC   GL240670  14.477   1.228   8.864
 3079POPC   C1A40671  14.394   1.207   8.564
 3079POPC   D2A40672  14.453   1.204   8.264
 3079POPC   C3A40673  14.419   1.208   7.964
 3079POPC   C4A40674  14.358   1.225   7.664
 3079POPC   C1B40675  14.672   1.328   8.564
 3079POPC   C2B40676  14.671   1.346   8.264
 3079POPC   C3B40677  14.607   1.364   7.964
 3079POPC   C4B40678  14.652   1.374   7.664
 3080POPC   NC340679  32.291  24.502   9.464
 3080POPC   PO440680  32.233  24.517   9.164
 3080POPC   GL140681  32.226  24.499   8.864
 3080POPC   GL240682  32.305  24.395   8.864
 3080POPC   C1A40683  32.279  24.523   8.564
 3080POPC   D2A40684  32.255  24.540   8.264
 3080POPC   C3A40685  32.202  24.492   7.964
 3080POPC   C4A40686  32.290  24.506   7.664
 3080POPC   C1B40687  32.416  24.395   8.564
 3080POPC   C2B40688  32.460  24.369   8.264
 3080POPC   C3B40689  32.487  24.364   7.964
 3080POPC   C4B40690  32.463  24.337   7.664
 3081POPC   NC340691  28.375  24.443   9.464
 3081POPC   PO440692  28.389  24.538   9.164
 3081POPC   GL140693  28.367  24.518   8.864
 3081POPC   GL240694  28.453  24.607   8.864
 3081POPC   C1A40695  28.353  24.484   8.564
 3081POPC   D2A40696  28.365  24.480   8.264
 3081POPC   C3A40697  28.415  24.444   7.964
 3081POPC   C4A40698  28.330  24.451   7.664
 3081POPC   C1B40699  28.466  24.700   8.564
 3081POPC   C2B40700  28.479  24.697   8.264
 3081POPC   C3B40701  28.479  24.681   7.964
 3081POPC   C4B40702  28.452  24.667   7.664
 3082POPC   NC340703   1.171  29.965   9.464
 3082POPC   PO440704   1.182  29.963   9.164
 3082POPC   GL140705   1.219  29.959   8.864
 3082POPC   GL240706   1.340  29.871   8.864
 3082POPC   C1A40707   1.207  29.917   8.564
 3082POPC   D2A40708   1.231  29.946   8.264
 3082POPC   C3A40709   1.209  29.947   7.964
 3082POPC   C4A40710   1.245  29.932   7.664
 3082POPC   C1B40711   1.493  29.921   8.564
 3082POPC   C2B40712   1.461  29.926   8.264
 3082POPC   C3B40713   1.433  29.881   7.964
 3082POPC   C4B40714   1.435  29.861   7.664
 3083POPC   NC340715  31.504  21.370   9.464
 3083POPC   PO440716  31.492  21.368   9.164
 3083POPC   GL140717  31.497  21.369   8.864
 3083POPC   GL240718  31.494  21.536   8.864
 3083POPC   C1A40719  31.450  21.338   8.564
 3083POPC   D2A40720  31.430  21.373   8.264
 3083POPC   C3A40721  31.480  21.381   7.964
 3083POPC   C4A40722  31.430  21.406   7.664
 3083POPC   C1B40723  31.517  21.654   8.564
 3083POPC   C2B40724  31.515  21.587   8.264
 3083POPC   C3B40725  31.497  21.662   7.964
 3083POPC   C4B40726  31.506  21.656   7.664
 3084POPC   NC340727  11.288  15.911   9.464
 3084POPC   PO440728  11.307  15.939   9.164
 3084POPC   GL140729  11.302  15.941   8.864
 3084POPC   GL240730  11.262  15.858   8.864
 3084POPC   C1A40731  11.286  15.954   8.564
 3084POPC   D2A40732  11.324  15.969   8.264
 3084POPC   C3A40733  11.336  15.963   7.964
 3084POPC   C4A40734  11.307  15.975   7.664
 3084POPC   C1B40735  11.278  15.672   8.564
 3084POPC   C2B40736  11.274  15.692   8.264
 3084POPC   C3B40737  11.284  15.705   7.964
 3084POPC   C4B40738  11.283  15.679   7.664
 3085POPC   NC340739  37.677  15.135   9.464
 3085POPC   PO440740  37.704  15.225   9.164
 3085POPC   GL140741  37.688  15.193   8.864
 3085POPC   GL240742  37.738  15.090   8.864
 3085POPC   C1A40743  37.654  15.136   8.564
 3085POPC   D2A40744  37.724  15.159   8.264
 3085POPC   C3A40745  37.654  15.129   7.964
 3085POPC   C4A40746  37.638  15.201   7.664
 3085POPC   C1B40747  37.791  14.965   8.564
 3085POPC   C2B40748  37.782  14.928   8.264
 3085POPC   C3B40749  37.822  14.966   7.964
 3085POPC   C4B40750  37.799  14.972   7.664
 3086POPC   NC340751  13.597  12.854   9.464
 3086POPC   PO440752  13.654  12.835   9.164
 3086POPC   GL140753  13.633  12.860   8.864
 3086POPC   GL240754  13.516  12.748   8.864
 3086POPC   C1A40755  13.657  12.824   8.564
 3086POPC   D2A40756  13.612  12.824   8.264
 3086POPC   C3A40757  13.581  12.865   7.964
 3086POPC   C4A40758  13.617  12.899   7.664
 3086POPC   C1B40759  13.433  12.772   8.564
 3086POPC   C2B40760  13.442  12.763   8.264
 3086POPC   C3B40761  13.386  12.692   7.964
 3086POPC   C4B40762  13.413  12.720   7.664
 3087POPC   NC340763  43.084  17.496   9.464
 3087POPC   PO440764  43.142  17.535   9.164
 3087POPC   GL140765  43.113  17.528   8.864
 3087POPC   GL240766  43.033  17.515   8.864
 3087POPC   C1A40767  43.130  17.546   8.564
 3087POPC   D2A40768  43.102  17.487   8.264
 3087POPC   C3A40769  43.132  17.491   7.964
 3087POPC   C4A40770  43.127  17.474   7.664
 3087POPC   C1B40771  42.890  17.502   8.564
 3087POPC   C2B40772  42.814  17.552   8.264
 3087POPC   C3B40773  42.888  17.527   7.964
 3087POPC   C4B40774  42.872  17.510   7.664
 3088POPC   NC340775  32.216  22.968   9.464
 3088POPC   PO440776  32.257  22.905   9.164
 3088POPC   GL140777  32.246  22.928   8.864
 3088POPC   GL240778  32.372  22.848   8.864
 3088POPC   C1A40779  32.268  22.928   8.564
 3088POPC   D2A40780  32.261  22.932   8.264
 3088POPC   C3A40781  32.226  22.897   7.964
 3088POPC   C4A40782  32.263  22.910   7.664
 3088POPC   C1B40783  32.531  22.900   8.564
 3088POPC   C2B40784  32.513  22.829   8.264
 3088POPC   C3B40785  32.501  22.811   7.964
 3088POPC   C4B40786  32.496  22.843   7.664
 3089POPC   NC340787  34.573  36.945   9.464
 3089POPC   PO440788  34.533  36.906   9.164
 3089POPC   GL140789  34.618  36.891   8.864
 3089POPC   GL240790  34.473  36.835   8.864
 3089POPC   C1A40791  34.583  36.926   8.564
 3089POPC   D2A40792  34.535  36.930   8.264
 3089POPC   C3A40793  34.566  36.945   7.964
 3089POPC   C4A40794  34.558  36.902   7.664
 3089POPC   C1B40795  34.399  36.704   8.564
 3089POPC   C2B40796  34.388  36.772   8.264
 3089POPC   C3B40797  34.376  36.727   7.964
 3089POPC   C4B40798  34.395  36.728   7.664
 3090POPC   NC340799   9.764   6.598   9.464
 3090POPC   PO440800   9.726   6.620   9.164
 3090POPC   GL140801   9.747   6.660   8.864
 3090POPC   GL240802   9.674   6.541   8.864
 3090POPC   C1A40803   9.766   6.646   8.564
 3090POPC   D2A40804   9.775   6.598   8.264
 3090POPC   C3A40805   9.751   6.639   7.964
 3090POPC   C4A40806   9.725   6.660   7.664
 3090POPC   C1B40807   9.648   6.438   8.564
 3090POPC   C2B40808   9.663   6.407   8.264
 3090POPC   C3B40809   9.628   6.364   7.964
 3090POPC   C4B40810   9.640   6.424   7.664
 3091POPC   NC340811  19.798  31.511   9.464
 3091POPC   PO440812  19.836  31.518   9.164
 3091POPC   GL140813  19.805  31.448   8.864
 3091POPC   GL240814  19.661  31.468   8.864
 3091POPC   C1A40815  19.825  31.478   8.564
 3091POPC   D2A40816  19.790  31.473   8.264
 3091POPC   C3A40817  19.872  31.456   7.964
 3091POPC   C4A40818  19.793  31.495   7.664
 3091POPC   C1B40819  19.621  31.496   8.564
 3091POPC   C2B40820  19.582  31.434   8.264
 3091POPC   C3B40821  19.628  31.502   7.964
 3091POPC   C4B40822  19.628  31.503   7.664
 3092POPC   NC340823   5.907  44.654   9.464
 3092POPC   PO440824   5.842  44.696   9.164
 3092POPC   GL140825   5.855  44.618   8.864
 3092POPC   GL240826   5.862  44.560   8.864
 3092POPC   C1A40827   5.915  44.639   8.564
 3092POPC   D2A40828   5.857  44.678   8.264
 3092POPC   C3A40829   5.831  44.623   7.964
 3092POPC   C4A40830   5.859  44.628   7.664
 3092POPC   C1B40831   5.841  44.383   8.564
 3092POPC   C2B40832   5.910  44.422   8.264
 3092POPC   C3B40833   5.872  44.437   7.964
 3092POPC   C4B40834   5.927  44.389   7.664
 3093POPC   NC340835  18.280  44.662   9.464
 3093POPC   PO440836  18.310  44.679   9.164
 3093POPC   GL140837  18.287  44.643   8.864
 3093POPC   GL240838  18.230  44.764   8.864
 3093POPC   C1A40839  18.291  44.690   8.564
 3093POPC   D2A40840  18.312  44.623   8.264
 3093POPC   C3A40841  18.310  44.638   7.964
 3093POPC   C4A40842  18.320  44.682   7.664
 3093POPC   C1B40843  18.150  44.878   8.564
 3093POPC   C2B40844  18.150  44.867   8.264
 3093POPC   C3B40845  18.125  44.879   7.964
 3093POPC   C4B40846  18.151  44.797   7.664
 3094POPC   NC340847  33.809   1.184   9.464
 3094POPC   PO440848  33.812   1.169   9.164
 3094POPC   GL140849  33.814   1.258   8.864
 3094POPC   GL240850  33.829   1.139   8.864
 3094POPC   C1A40851  33.774   1.235   8.564
 3094POPC   D2A40852  33.765   1.210   8.264
 3094POPC   C3A40853  33.836   1.198   7.964
 3094POPC   C4A40854  33.758   1.190   7.664
 3094POPC   C1B40855  33.761   1.009   8.564
 3094POPC   C2B40856  33.770   0.919   8.264
 3094POPC   C3B40857  33.809   0.929   7.964
 3094POPC   C4B40858  33.804   0.933   7.664
 3095POPC   NC340859   9.755  36.929   9.464
 3095POPC   PO440860   9.708  36.893   9.164
 3095POPC   GL140861   9.710  36.933   8.864
 3095POPC   GL240862   9.750  36.754   8.864
 3095POPC   C1A40863   9.744  36.936   8.564
 3095POPC   D2A40864   9.779  36.873   8.264
 3095POPC   C3A40865   9.791  36.922   7.964
 3095POPC   C4A40866   9.793  36.863   7.664
 3095POPC   C1B40867   9.887  36.652   8.564
 3095POPC   C2B40868   9.856  36.658   8.264
 3095POPC   C3B40869   9.807  36.639   7.964
 3095POPC   C4B40870   9.824  36.701   7.664
 3096POPC   NC340871  44.628  44.639   9.464
 3096POPC   PO440872  44.686  44.624   9.164
 3096POPC   GL140873  44.640  44.698   8.864
 3096POPC   GL240874  44.747  44.572   8.864
 3096POPC   C1A40875  44.663  44.656   8.564
 3096POPC   D2A40876  44.703  44.679   8.264
 3096POPC   C3A40877  44.676  44.623   7.964
 3096POPC   C4A40878  44.707  44.652   7.664
 3096POPC   C1B40879  44.793  44.481   8.564
 3096POPC   C2B40880  44.799  44.456   8.264
 3096POPC   C3B40881  44.792  44.417   7.964
 3096POPC   C4B40882  44.756  44.475   7.664
 3097POPC   NC340883  41.594   3.521   9.464
 3097POPC   PO440884  41.588   3.590   9.164
 3097POPC   GL140885  41.586   3.561   8.864
 3097POPC   GL240886  41.470   3.491   8.864
 3097POPC   C1A40887  41.525   3.535   8.564
 3097POPC   D2A40888  41.584   3.531   8.264
 3097POPC   C3A40889  41.512   3.508   7.964
 3097POPC   C4A40890  41.536   3.507   7.664
 3097POPC   C1B40891  41.278   3.479   8.564
 3097POPC   C2B40892  41.294   3.487   8.264
 3097POPC   C3B40893  41.287   3.561   7.964
 3097POPC   C4B40894  41.309   3.497   7.664
 3098POPC   NC340895  30.700   5.831   9.464
 3098POPC   PO440896  30.678   5.889   9.164
 3098POPC   GL140897  30.742   5.825   8.864
 3098POPC   GL240898  30.649   5.781   8.864
 3098POPC   C1A40899  30.650   5.860   8.564
 3098POPC   D2A40900  30.654   5.838   8.264
 3098POPC   C3A40901  30.679   5.914   7.964
 3098POPC   C4A40902  30.746   5.868   7.664
 3098POPC   C1B40903  30.512   5.691   8.564
 3098POPC   C2B40904  30.561   5.683   8.264
 3098POPC   C3B40905  30.500   5.711   7.964
 3098POPC   C4B40906  30.490   5.697   7.664
 3099POPC   NC340907   6.607  31.494   9.464
 3099POPC   PO440908   6.651  31.518   9.164
 3099POPC   GL140909   6.618  31.489   8.864
 3099POPC   GL240910   6.609  31.598   8.864
 3099POPC   C1A40911   6.677  31.481   8.564
 3099POPC   D2A40912   6.665  31.496   8.264
 3099POPC   C3A40913   6.616  31.430   7.964
 3099POPC   C4A40914   6.622  31.467   7.664
 3099POPC   C1B40915   6.607  31.764   8.564
 3099POPC   C2B40916   6.582  31.747   8.264
 3099POPC   C3B40917   6.653  31.725   7.964
 3099POPC   C4B40918   6.602  31.747   7.664
 3100POPC   NC340919  43.909  13.595   9.464
 3100POPC   PO440920  43.916  13.610   9.164
 3100POPC   GL140921  43.880  13.628   8.864
 3100POPC   GL240922  43.768  13.738   8.864
 3100POPC   C1A40923  43.890  13.592   8.564
 3100POPC   D2A40924  43.886  13.662   8.264
 3100POPC   C3A40925  43.883  13.580   7.964
 3100POPC   C4A40926  43.868  13.671   7.664
 3100POPC   C1B40927  43.712  13.739   8.564
 3100POPC   C2B40928  43.695  13.752   8.264
 3100POPC   C3B40929  43.674  13.751   7.964
 3100POPC   C4B40930  43.686  13.750   7.664
 3101POPC   NC340931  34.533  22.900   9.464
 3101POPC   PO440932  34.566  22.934   9.164
 3101POPC   GL140933  34.592  22.982   8.864
 3101POPC   GL240934  34.524  22.994   8.864
 3101POPC   C1A40935  34.540  22.982   8.564
 3101POPC   D2A40936  34.597  22.967   8.264
 3101POPC   C3A40937  34.609  22.983   7.964
 3101POPC   C4A40938  34.581  22.928   7.664
 3101POPC   C1B40939  34.386  23.160   8.564
 3101POPC   C2B40940  34.432  23.162   8.264
 3101POPC   C3B40941  34.462  23.160   7.964
 3101POPC   C4B40942  34.450  23.105   7.664
 3102POPC   NC340943  20.611  16.696   9.464
 3102POPC   PO440944  20.588  16.713   9.164
 3102POPC   GL140945  20.607  16.704   8.864
 3102POPC   GL240946  20.753  16.666   8.864
 3102POPC   C1A40947  20.655  16.682   8.564
 3102POPC   D2A40948  20.641  16.714   8.264
 3102POPC   C3A40949  20.636  16.685   7.964
 3102POPC   C4A40950  20.581  16.691   7.664
 3102POPC   C1B40951  20.821  16.583   8.564
 3102POPC   C2B40952  20.838  16.637   8.264
 3102POPC   C3B40953  20.868  16.649   7.964
 3102POPC   C4B40954  20.776  16.629   7.664
 3103POPC   NC340955  14.403   0.397   9.464
 3103POPC   PO440956  14.443   0.452   9.164
 3103POPC   GL140957  14.416   0.436   8.864
 3103POPC   GL240958  14.242   0.443   8.864
 3103POPC   C1A40959  14.431   0.460   8.564
 3103POPC   D2A40960  14.365   0.445   8.264
 3103POPC   C3A40961  14.393   0.485   7.964
 3103POPC   C4A40962  14.397   0.449   7.664
 3103POPC   C1B40963  14.152   0.552   8.564
 3103POPC   C2B40964  14.158   0.569   8.264
 3103POPC   C3B40965  14.185   0.578   7.964
 3103POPC   C4B40966  14.155   0.554   7.664
 3104POPC   NC340967  11.319  26.044   9.464
 3104POPC   PO440968  11.259  26.078   9.164
 3104POPC   GL140969  11.256  26.024   8.864
 3104POPC   GL240970  11.217  25.961   8.864
 3104POPC   C1A40971  11.309  26.032   8.564
 3104POPC   D2A40972  11.316  26.026   8.264
 3104POPC   C3A40973  11.336  25.995   7.964
 3104POPC   C4A40974  11.284  26.026   7.664
 3104POPC   C1B40975  11.128  25.842   8.564
 3104POPC   C2B40976  11.204  25.783   8.264
 3104POPC   C3B40977  11.136  25.782   7.964
 3104POPC   C4B40978  11.185  25.835   7.664
 3105POPC   NC340979   9.751  41.541   9.464
 3105POPC   PO440980   9.702  41.574   9.164
 3105POPC   GL140981   9.798  41.509   8.864
 3105POPC   GL240982   9.866  41.495   8.864
 3105POPC   C1A40983   9.699  41.574   8.564
 3105POPC   D2A40984   9.729  41.598   8.264
 3105POPC   C3A40985   9.760  41.573   7.964
 3105POPC   C4A40986   9.741  41.538   7.664
 3105POPC   C1B40987   9.946  41.412   8.564
 3105POPC   C2B40988   9.903  41.422   8.264
 3105POPC   C3B40989   9.941  41.397   7.964
 3105POPC   C4B40990   9.984  41.385   7.664
 3106POPC   NC340991  24.498   1.180   9.464
 3106POPC   PO440992  24.474   1.207   9.164
 3106POPC   GL140993  24.506   1.212   8.864
 3106POPC   GL240994  24.450   1.298   8.864
 3106POPC   C1A40995  24.445   1.213   8.564
 3106POPC   D2A40996  24.486   1.245   8.264
 3106POPC   C3A40997  24.513   1.181   7.964
 3106POPC   C4A40998  24.474   1.180   7.664
 3106POPC   C1B40999  24.333   1.400   8.564
 3106POPC   C2B41000  24.346   1.394   8.264
 3106POPC   C3B41001  24.343   1.388   7.964
 3106POPC   C4B41002  24.365   1.409   7.664
 3107POPC   NC341003  25.238   1.989   9.464
 3107POPC   PO441004  25.223   1.962   9.164
 3107POPC   GL141005  25.233   1.959   8.864
 3107POPC   GL241006  25.245   1.876   8.864
 3107POPC   C1A41007  25.310   2.026   8.564
 3107POPC   D2A41008  25.309   2.001   8.264
 3107POPC   C3A41009  25.279   2.009   7.964
 3107POPC   C4A41010  25.279   1.947   7.664
 3107POPC   C1B41011  25.101   1.817   8.564
 3107POPC   C2B41012  25.115   1.738   8.264
 3107POPC   C3B41013  25.133   1.809   7.964
 3107POPC   C4B41014  25.157   1.746   7.664
 3108POPC   NC341015  26.828   8.221   9.464
 3108POPC   PO441016  26.857   8.162   9.164
 3108POPC   GL141017  26.861   8.155   8.864
 3108POPC   GL241018  26.836   8.046   8.864
 3108POPC   C1A41019  26.818   8.211   8.564
 3108POPC   D2A41020  26.809   8.159   8.264
 3108POPC   C3A41021  26.825   8.150   7.964
 3108POPC   C4A41022  26.814   8.147   7.664
 3108POPC   C1B41023  26.749   7.962   8.564
 3108POPC   C2B41024  26.769   7.964   8.264
 3108POPC   C3B41025  26.776   7.982   7.964
 3108POPC   C4B41026  26.786   7.993   7.664
 3109POPC   NC341027  17.533  20.588   9.464
 3109POPC   PO441028  17.515  20.586   9.164
 3109POPC   GL141029  17.508  20.586   8.864
 3109POPC   GL241030  17.525  20.512   8.864
 3109POPC   C1A41031  17.525  20.601   8.564
 3109POPC   D2A41032  17.509  20.635   8.264
 3109POPC   C3A41033  17.511  20.658   7.964
 3109POPC   C4A41034  17.485  20.600   7.664
 3109POPC   C1B41035  17.448  20.370   8.564
 3109POPC   C2B41036  17.501  20.357   8.264
 3109POPC   C3B41037  17.488  20.328   7.964
 3109POPC   C4B41038  17.441  20.353   7.664
 3110POPC   NC341039  19.061  29.923   9.464
 3110POPC   PO441040  19.030  29.878   9.164
 3110POPC   GL141041  19.033  29.948   8.864
 3110POPC   GL241042  19.118  29.770   8.864
 3110POPC   C1A41043  19.055  29.891   8.564
 3110POPC   D2A41044  19.050  29.890   8.264
 3110POPC   C3A41045  19.032  29.894   7.964
 3110POPC   C4A41046  19.092  29.946   7.664
 3110POPC   C1B41047  19.201  29.722   8.564
 3110POPC   C2B41048  19.171  29.732   8.264
 3110POPC   C3B41049  19.165  29.717   7.964
 3110POPC   C4B41050  19.235  29.685   7.664
 3111POPC   NC341051   3.519  31.472   9.464
 3111POPC   PO441052   3.526  31.473   9.164
 3111POPC   GL141053   3.517  31.435   8.864
 3111POPC   GL241054   3.496  31.337   8.864
 3111POPC   C1A41055   3.496  31.493   8.564
 3111POPC   D2A41056   3.544  31.496   8.264
 3111POPC   C3A41057   3.529  31.460   7.964
 3111POPC   C4A41058   3.547  31.447   7.664
 3111POPC   C1B41059   3.518  31.193   8.564
 3111POPC   C2B41060   3.451  31.185   8.264
 3111POPC   C3B41061   3.441  31.219   7.964
 3111POPC   C4B41062   3.448  31.268   7.664
 3112POPC   NC341063   5.857  31.481   9.464
 3112POPC   PO441064   5.913  31.521   9.164
 3112POPC   GL141065   5.827  31.456   8.864
 3112POPC   GL241066   5.791  31.550   8.864
 3112POPC   C1A41067   5.904  31.479   8.564
 3112POPC   D2A41068   5.844  31.441   8.264
 3112POPC   C3A41069   5.882  31.455   7.964
 3112POPC   C4A41070   5.874  31.463   7.664
 3112POPC   C1B41071   5.630  31.605   8.564
 3112POPC   C2B41072   5.633  31.648   8.264
 3112POPC   C3B41073   5.643  31.646   7.964
 3112POPC   C4B41074   5.670  31.594   7.664
 3113POPC   NC341075  26.033  19.865   9.464
 3113POPC   PO441076  26.057  19.828   9.164
 3113POPC   GL141077  26.039  19.837   8.864
 3113POPC   GL241078  26.190  19.854   8.864
 3113POPC   C1A41079  25.993  19.819   8.564
 3113POPC   D2A41080  26.061  19.824   8.264
 3113POPC   C3A41081  26.052  19.799   7.964
 3113POPC   C4A41082  26.043  19.877   7.664
 3113POPC   C1B41083  26.316  19.817   8.564
 3113POPC   C2B41084  26.245  19.863   8.264
 3113POPC   C3B41085  26.331  19.832   7.964
 3113POPC   C4B41086  26.273  19.836   7.664
 3114POPC   NC341087  36.878  41.519   9.464
 3114POPC   PO441088  36.885  41.555   9.164
 3114POPC   GL141089  36.855  41.561   8.864
 3114POPC   GL241090  37.006  41.467   8.864
 3114POPC   C1A41091  36.895  41.576   8.564
 3114POPC   D2A41092  36.904  41.568   8.264
 3114POPC   C3A41093  36.901  41.549   7.964
 3114POPC   C4A41094  36.859  41.530   7.664
 3114POPC   C1B41095  37.109  41.424   8.564
 3114POPC   C2B41096  37.142  41.420   8.264
 3114POPC   C3B41097  37.133  41.475   7.964
 3114POPC   C4B41098  37.143  41.433   7.664
 3115POPC   NC341099  40.762  22.902   9.464
 3115POPC   PO441100  40.753  22.933   9.164
 3115POPC   GL141101  40.797  22.930   8.864
 3115POPC   GL241102  40.713  22.804   8.864
 3115POPC   C1A41103  40.809  22.956   8.564
 3115POPC   D2A41104  40.824  22.910   8.264
 3115POPC   C3A41105  40.774  22.919   7.964
 3115POPC   C4A41106  40.733  22.890   7.664
 3115POPC   C1B41107  40.756  22.737   8.564
 3115POPC   C2B41108  40.691  22.736   8.264
 3115POPC   C3B41109  40.740  22.693   7.964
 3115POPC   C4B41110  40.735  22.736   7.664
 3116POPC   NC341111  25.283  43.094   9.464
 3116POPC   PO441112  25.241  43.070   9.164
 3116POPC   GL141113  25.221  43.149   8.864
 3116POPC   GL241114  25.366  43.196   8.864
 3116POPC   C1A41115  25.311  43.102   8.564
 3116POPC   D2A41116  25.279  43.081   8.264
 3116POPC   C3A41117  25.283  43.082   7.964
 3116POPC   C4A41118  25.231  43.139   7.664
 3116POPC   C1B41119  25.430  43.285   8.564
 3116POPC   C2B41120  25.380  43.329   8.264
 3116POPC   C3B41121  25.456  43.314   7.964
 3116POPC   C4B41122  25.434  43.310   7.664
 3117POPC   NC341123  20.565  15.164   5.564
 3117POPC   PO441124  20.627  15.160   5.864
 3117POPC   GL141125  20.588  15.211   6.164
 3117POPC   GL241126  20.665  15.057   6.164
 3117POPC   C1A41127  20.601  15.220   6.464
 3117POPC   D2A41128  20.572  15.159   6.764
 3117POPC   C3A41129  20.610  15.156   7.064
 3117POPC   C4A41130  20.571  15.219   7.364
 3117POPC   C1B41131  20.690  14.910   6.464
 3117POPC   C2B41132  20.684  14.920   6.764
 3117POPC   C3B41133  20.698  14.908   7.064
 3117POPC   C4B41134  20.656  14.906   7.364
 3118POPC   NC341135  36.084  26.091   5.564
 3118POPC   PO441136  36.094  26.090   5.864
 3118POPC   GL141137  36.169  26.041   6.164
 3118POPC   GL241138  36.023  25.975   6.164
 3118POPC   C1A41139  36.093  26.067   6.464
 3118POPC   D2A41140  36.147  26.008   6.764
 3118POPC   C3A41141  36.148  26.028   7.064
 3118POPC   C4A41142  36.103  26.060   7.364
 3118POPC   C1B41143  35.916  25.982   6.464
 3118POPC   C2B41144  35.887  25.897   6.764
 3118POPC   C3B41145  35.916  25.977   7.064
 3118POPC   C4B41146  35.911  25.883   7.364
 3119POPC   NC341147   9.791  37.709   5.564
 3119POPC   PO441148   9.716  37.721   5.864
 3119POPC   GL141149   9.701  37.652   6.164
 3119POPC   GL241150   9.761  37.823   6.164
 3119POPC   C1A41151   9.790  37.631   6.464
 3119POPC   D2A41152   9.715  37.703   6.764
 3119POPC   C3A41153   9.755  37.678   7.064
 3119POPC   C4A41154   9.704  37.685   7.364
 3119POPC   C1B41155   9.719  37.882   6.464
 3119POPC   C2B41156   9.753  37.895   6.764
 3119POPC   C3B41157   9.779  37.960   7.064
 3119POPC   C4B41158   9.713  37.889   7.364
 3120POPC   NC341159   8.158   0.400   5.564
 3120POPC   PO441160   8.177   0.486   5.864
 3120POPC   GL141161   8.147   0.472   6.164
 3120POPC   GL241162   8.291   0.389   6.164
 3120POPC   C1A41163   8.177   0.433   6.464
 3120POPC   D2A41164   8.175   0.485   6.764
 3120POPC   C3A41165   8.226   0.440   7.064
 3120POPC   C4A41166   8.213   0.392   7.364
 3120POPC   C1B41167   8.415   0.396   6.464
 3120POPC   C2B41168   8.468   0.353   6.764
 3120POPC   C3B41169   8.431   0.339   7.064
 3120POPC   C4B41170   8.458   0.397   7.364
 3121POPC   NC341171  15.161  26.858   5.564
 3121POPC   PO441172  15.131  26.772   5.864
 3121POPC   GL141173  15.167  26.851   6.164
 3121POPC   GL241174  15.273  26.820   6.164
 3121POPC   C1A41175  15.136  26.858   6.464
 3121POPC   D2A41176  15.160  26.781   6.764
 3121POPC   C3A41177  15.183  26.829   7.064
 3121POPC   C4A41178  15.175  26.861   7.364
 3121POPC   C1B41179  15.438  26.764   6.464
 3121POPC   C2B41180  15.411  26.759   6.764
 3121POPC   C3B41181  15.419  26.777   7.064
 3121POPC   C4B41182  15.430  26.788   7.364
 3122POPC   NC341183  21.430  16.752   5.564
 3122POPC   PO441184  21.375  16.719   5.864
 3122POPC   GL141185  21.413  16.702   6.164
 3122POPC   GL241186  21.222  16.709   6.164
 3122POPC   C1A41187  21.339  16.715   6.464
 3122POPC   D2A41188  21.358  16.698   6.764
 3122POPC   C3A41189  21.384  16.740   7.064
 3122POPC   C4A41190  21.368  16.697   7.364
 3122POPC   C1B41191  21.187  16.645   6.464
 3122POPC   C2B41192  21.125  16.608   6.764
 3122POPC   C3B41193  21.174  16.654   7.064
 3122POPC   C4B41194  21.146  16.660   7.364
 3123POPC   NC341195   0.393  29.134   5.564
 3123POPC   PO441196   0.420  29.101   5.864
 3123POPC   GL141197   0.478  29.143   6.164
 3123POPC   GL241198   0.487  29.017   6.164
 3123POPC   C1A41199   0.457  29.171   6.464
 3123POPC   D2A41200   0.432  29.178   6.764
 3123POPC   C3A41201   0.389  29.185   7.064
 3123POPC   C4A41202   0.445  29.141   7.364
 3123POPC   C1B41203   0.451  28.865   6.464
 3123POPC   C2B41204   0.488  28.943   6.764
 3123POPC   C3B41205   0.510  28.889   7.064
 3123POPC   C4B41206   0.499  28.930   7.364
 3124POPC   NC341207  27.602  12.863   5.564
 3124POPC   PO441208  27.543  12.858   5.864
 3124POPC   GL141209  27.582  12.814   6.164
 3124POPC   GL241210  27.687  12.943   6.164
 3124POPC   C1A41211  27.613  12.829   6.464
 3124POPC   D2A41212  27.555  12.819   6.764
 3124POPC   C3A41213  27.640  12.853   7.064
 3124POPC   C4A41214  27.640  12.861   7.364
 3124POPC   C1B41215  27.732  13.028   6.464
 3124POPC   C2B41216  27.776  13.062   6.764
 3124POPC   C3B41217  27.782  13.036   7.064
 3124POPC   C4B41218  27.784  13.044   7.364
 3125POPC   NC341219  43.899  41.552   5.564
 3125POPC   PO441220  43.861  41.607   5.864
 3125POPC   GL141221  43.898  41.560   6.164
 3125POPC   GL241222  43.816  41.465   6.164
 3125POPC   C1A41223  43.935  41.598   6.464
 3125POPC   D2A41224  43.934  41.517   6.764
 3125POPC   C3A41225  43.925  41.597   7.064
 3125POPC   C4A41226  43.911  41.567   7.364
 3125POPC   C1B41227  43.656  41.447   6.464
 3125POPC   C2B41228  43.670  41.415   6.764
 3125POPC   C3B41229  43.645  41.440   7.064
 3125POPC   C4B41230  43.675  41.414   7.364
 3126POPC   NC341231   5.839   8.152   5.564
 3126POPC   PO441232   5.870   8.188   5.864
 3126POPC   GL141233   5.902   8.211   6.164
 3126POPC   GL241234   5.792   8.266   6.164
 3126POPC   C1A41235   5.847   8.182   6.464
 3126POPC   D2A41236   5.879   8.158   6.764
 3126POPC   C3A41237   5.877   8.158   7.064
 3126POPC   C4A41238   5.827   8.189   7.364
 3126POPC   C1B41239   5.701   8.423   6.464
 3126POPC   C2B41240   5.712   8.377   6.764
 3126POPC   C3B41241   5.691   8.390   7.064
 3126POPC   C4B41242   5.744   8.392   7.364
 3127POPC   NC341243  36.143  33.828   5.564
 3127POPC   PO441244  36.111  33.781   5.864
 3127POPC   GL141245  36.164  33.771   6.164
 3127POPC   GL241246  36.099  33.904   6.164
 3127POPC   C1A41247  36.103  33.768   6.464
 3127POPC   D2A41248  36.083  33.812   6.764
 3127POPC   C3A41249  36.117  33.798   7.064
 3127POPC   C4A41250  36.133  33.798   7.364
 3127POPC   C1B41251  36.056  34.005   6.464
 3127POPC   C2B41252  36.040  34.008   6.764
 3127POPC   C3B41253  36.098  34.069   7.064
 3127POPC   C4B41254  36.082  34.039   7.364
 3128POPC   NC341255   5.090   5.115   5.564
 3128POPC   PO441256   5.096   5.087   5.864
 3128POPC   GL141257   5.083   5.058   6.164
 3128POPC   GL241258   5.150   5.243   6.164
 3128POPC   C1A41259   5.106   5.049   6.464
 3128POPC   D2A41260   5.071   5.097   6.764
 3128POPC   C3A41261   5.109   5.138   7.064
 3128POPC   C4A41262   5.109   5.055   7.364
 3128POPC   C1B41263   5.262   5.254   6.464
 3128POPC   C2B41264   5.246   5.250   6.764
 3128POPC   C3B41265   5.249   5.262   7.064
 3128POPC   C4B41266   5.289   5.271   7.364
 3129POPC   NC341267   4.320   2.760   5.564
 3129POPC   PO441268   4.281   2.795   5.864
 3129POPC   GL141269   4.293   2.795   6.164
 3129POPC   GL241270   4.265   2.897   6.164
 3129POPC   C1A41271   4.333   2.811   6.464
 3129POPC   D2A41272   4.346   2.784   6.764
 3129POPC   C3A41273   4.313   2.791   7.064
 3129POPC   C4A41274   4.293   2.804   7.364
 3129POPC   C1B41275   4.225   2.987   6.464
 3129POPC   C2B41276   4.146   2.937   6.764
 3129POPC   C3B41277   4.147   2.930   7.064
 3129POPC   C4B41278   4.205   3.009   7.364
 3130POPC   NC341279  24.513  22.961   5.564
 3130POPC   PO441280  24.533  22.945   5.864
 3130POPC   GL141281  24.462  22.953   6.164
 3130POPC   GL241282  24.543  22.982   6.164
 3130POPC   C1A41283  24.469  22.978   6.464
 3130POPC   D2A41284  24.487  22.894   6.764
 3130POPC   C3A41285  24.467  22.910   7.064
 3130POPC   C4A41286  24.503  22.939   7.364
 3130POPC   C1B41287  24.697  23.071   6.464
 3130POPC   C2B41288  24.697  23.041   6.764
 3130POPC   C3B41289  24.706  23.106   7.064
 3130POPC   C4B41290  24.677  23.064   7.364
 3131POPC   NC341291  44.633  35.348   5.564
 3131POPC   PO441292  44.699  35.309   5.864
 3131POPC   GL141293  44.641  35.345   6.164
 3131POPC   GL241294  44.808  35.394   6.164
 3131POPC   C1A41295  44.700  35.365   6.464
 3131POPC   D2A41296  44.712  35.327   6.764
 3131POPC   C3A41297  44.700  35.313   7.064
 3131POPC   C4A41298  44.710  35.372   7.364
 3131POPC   C1B41299  44.865  35.532   6.464
 3131POPC   C2B41300  44.814  35.459   6.764
 3131POPC   C3B41301  44.896  35.486   7.064
 3131POPC   C4B41302  44.852  35.486   7.364
 3132POPC   NC341303  24.523  20.637   5.564
 3132POPC   PO441304  24.480  20.621   5.864
 3132POPC   GL141305  24.456  20.584   6.164
 3132POPC   GL241306  24.582  20.541   6.164
 3132POPC   C1A41307  24.497  20.619   6.464
 3132POPC   D2A41308  24.539  20.660   6.764
 3132POPC   C3A41309  24.535  20.590   7.064
 3132POPC   C4A41310  24.447  20.650   7.364
 3132POPC   C1B41311  24.701  20.419   6.464
 3132POPC   C2B41312  24.679  20.476   6.764
 3132POPC   C3B41313  24.717  20.465   7.064
 3132POPC   C4B41314  24.656  20.420   7.364
 3133POPC   NC341315   1.199  12.081   5.564
 3133POPC   PO441316   1.182  12.119   5.864
 3133POPC   GL141317   1.204  12.063   6.164
 3133POPC   GL241318   1.278  11.981   6.164
 3133POPC   C1A41319   1.191  12.095   6.464
 3133POPC   D2A41320   1.191  12.092   6.764
 3133POPC   C3A41321   1.200  12.118   7.064
 3133POPC   C4A41322   1.212  12.058   7.364
 3133POPC   C1B41323   1.414  11.922   6.464
 3133POPC   C2B41324   1.447  11.875   6.764
 3133POPC   C3B41325   1.375  11.941   7.064
 3133POPC   C4B41326   1.441  11.900   7.364
 3134POPC   NC341327  22.205   2.030   5.564
 3134POPC   PO441328  22.156   2.016   5.864
 3134POPC   GL141329  22.122   2.034   6.164
 3134POPC   GL241330  22.074   1.916   6.164
 3134POPC   C1A41331  22.211   1.949   6.464
 3134POPC   D2A41332  22.150   2.027   6.764
 3134POPC   C3A41333  22.194   2.031   7.064
 3134POPC   C4A41334  22.205   2.018   7.364
 3134POPC   C1B41335  21.898   1.940   6.464
 3134POPC   C2B41336  21.880   1.884   6.764
 3134POPC   C3B41337  21.910   1.923   7.064
 3134POPC   C4B41338  21.891   1.895   7.364
 3135POPC   NC341339   4.292  20.610   5.564
 3135POPC   PO441340   4.344  20.574   5.864
 3135POPC   GL141341   4.334  20.637   6.164
 3135POPC   GL241342   4.331  20.450   6.164
 3135POPC   C1A41343   4.320  20.631   6.464
 3135POPC   D2A41344   4.313  20.588   6.764
 3135POPC   C3A41345   4.317  20.651   7.064
 3135POPC   C4A41346   4.352  20.657   7.364
 3135POPC   C1B41347   4.275  20.353   6.464
 3135POPC   C2B41348   4.268  20.412   6.764
 3135POPC   C3B41349   4.240  20.410   7.064
 3135POPC   C4B41350   4.247  20.326   7.364
 3136POPC   NC341351  43.893  33.841   5.564
 3136POPC   PO441352  43.917  33.836   5.864
 3136POPC   GL141353  43.893  33.772   6.164
 3136POPC   GL241354  43.802  33.740   6.164
 3136POPC   C1A41355  43.913  33.810   6.464
 3136POPC   D2A41356  43.913  33.789   6.764
 3136POPC   C3A41357  43.933  33.787   7.064
 3136POPC   C4A41358  43.845  33.831   7.364
 3136POPC   C1B41359  43.651  33.667   6.464
 3136POPC   C2B41360  43.714  33.642   6.764
 3136POPC   C3B41361  43.700  33.672   7.064
 3136POPC   C4B41362  43.726  33.668   7.364
 3137POPC   NC341363  37.717   5.877   5.564
 3137POPC   PO441364  37.705   5.871   5.864
 3137POPC   GL141365  37.703   5.876   6.164
 3137POPC   GL241366  37.549   5.976   6.164
 3137POPC   C1A41367  37.671   5.885   6.464
 3137POPC   D2A41368  37.649   5.838   6.764
 3137POPC   C3A41369  37.644   5.849   7.064
 3137POPC   C4A41370  37.630   5.896   7.364
 3137POPC   C1B41371  37.494   6.017   6.464
 3137POPC   C2B41372  37.494   6.026   6.764
 3137POPC   C3B41373  37.434   6.047   7.064
 3137POPC   C4B41374  37.461   6.023   7.364
 3138POPC   NC341375   9.713  13.620   5.564
 3138POPC   PO441376   9.728  13.610   5.864
 3138POPC   GL141377   9.784  13.675   6.164
 3138POPC   GL241378   9.654  13.675   6.164
 3138POPC   C1A41379   9.722  13.621   6.464
 3138POPC   D2A41380   9.770  13.675   6.764
 3138POPC   C3A41381   9.738  13.628   7.064
 3138POPC   C4A41382   9.778  13.658   7.364
 3138POPC   C1B41383   9.545  13.773   6.464
 3138POPC   C2B41384   9.549  13.787   6.764
 3138POPC   C3B41385   9.504  13.806   7.064
 3138POPC   C4B41386   9.567  13.812   7.364
 3139POPC   NC341387   0.414   7.371   5.564
 3139POPC   PO441388   0.391   7.396   5.864
 3139POPC   GL141389   0.411   7.444   6.164
 3139POPC   GL241390   0.371   7.316   6.164
 3139POPC   C1A41391   0.427   7.426   6.464
 3139POPC   D2A41392   0.430   7.443   6.764
 3139POPC   C3A41393   0.462   7.396   7.064
 3139POPC   C4A41394   0.465   7.374   7.364
 3139POPC   C1B41395   0.310   7.221   6.464
 3139POPC   C2B41396   0.277   7.202   6.764
 3139POPC   C3B41397   0.226   7.262   7.064
 3139POPC   C4B41398   0.290   7.224   7.364
 3140POPC   NC341399   0.416  43.928   5.564
 3140POPC   PO441400   0.392  43.898   5.864
 3140POPC   GL141401   0.480  43.892   6.164
 3140POPC   GL241402   0.426  43.789   6.164
 3140POPC   C1A41403   0.443  43.876   6.464
 3140POPC   D2A41404   0.447  43.920   6.764
 3140POPC   C3A41405   0.398  43.904   7.064
 3140POPC   C4A41406   0.467  43.890   7.364
 3140POPC   C1B41407   0.360  43.664   6.464
 3140POPC   C2B41408   0.344  43.634   6.764
 3140POPC   C3B41409   0.377  43.654   7.064
 3140POPC   C4B41410   0.410  43.664   7.364
 3141POPC   NC341411  28.332  21.363   5.564
 3141POPC   PO441412  28.365  21.425   5.864
 3141POPC   GL141413  28.380  21.426   6.164
 3141POPC   GL241414  28.520  21.374   6.164
 3141POPC   C1A41415  28.350  21.358   6.464
 3141POPC   D2A41416  28.325  21.411   6.764
 3141POPC   C3A41417  28.344  21.361   7.064
 3141POPC   C4A41418  28.385  21.385   7.364
 3141POPC   C1B41419  28.638  21.468   6.464
 3141POPC   C2B41420  28.623  21.420   6.764
 3141POPC   C3B41421  28.622  21.389   7.064
 3141POPC   C4B41422  28.583  21.385   7.364
 3142POPC   NC341423   3.506  39.192   5.564
 3142POPC   PO441424   3.566  39.226   5.864
 3142POPC   GL141425   3.553  39.186   6.164
 3142POPC   GL241426   3.397  39.277   6.164
 3142POPC   C1A41427   3.574  39.216   6.464
 3142POPC   D2A41428   3.584  39.236   6.764
 3142POPC   C3A41429   3.496  39.226   7.064
 3142POPC   C4A41430   3.585  39.258   7.364
 3142POPC   C1B41431   3.353  39.365   6.464
 3142POPC   C2B41432   3.344  39.327   6.764
 3142POPC   C3B41433   3.317  39.362   7.064
 3142POPC   C4B41434   3.292  39.325   7.364
 3143POPC   NC341435  12.092  16.780   5.564
 3143POPC   PO441436  12.103  16.703   5.864
 3143POPC   GL141437  12.058  16.700   6.164
 3143POPC   GL241438  12.137  16.575   6.164
 3143POPC   C1A41439  12.094  16.684   6.464
 3143POPC   D2A41440  12.082  16.737   6.764
 3143POPC   C3A41441  12.102  16.765   7.064
 3143POPC   C4A41442  12.042  16.751   7.364
 3143POPC   C1B41443  12.165  16.520   6.464
 3143POPC   C2B41444  12.175  16.497   6.764
 3143POPC   C3B41445  12.092  16.458   7.064
 3143POPC   C4B41446  12.174  16.510   7.364
 3144POPC   NC341447  33.034  26.086   5.564
 3144POPC   PO441448  33.022  26.009   5.864
 3144POPC   GL141449  33.054  26.069   6.164
 3144POPC   GL241450  32.911  26.140   6.164
 3144POPC   C1A41451  33.046  25.994   6.464
 3144POPC   D2A41452  33.005  26.009   6.764
 3144POPC   C3A41453  32.982  25.994   7.064
 3144POPC   C4A41454  33.031  26.056   7.364
 3144POPC   C1B41455  32.877  26.212   6.464
 3144POPC   C2B41456  32.862  26.287   6.764
 3144POPC   C3B41457  32.907  26.252   7.064
 3144POPC   C4B41458  32.908  26.277   7.364
 3145POPC   NC341459   0.448   9.728   5.564
 3145POPC   PO441460   0.450   9.730   5.864
 3145POPC   GL141461   0.486   9.765   6.164
 3145POPC   GL241462   0.424   9.828   6.164
 3145POPC   C1A41463   0.443   9.774   6.464
 3145POPC   D2A41464   0.483   9.745   6.764
 3145POPC   C3A41465   0.441   9.776   7.064
 3145POPC   C4A41466   0.395   9.794   7.364
 3145POPC   C1B41467   0.454  10.031   6.464
 3145POPC   C2B41468   0.502   9.955   6.764
 3145POPC   C3B41469   0.508  10.037   7.064
 3145POPC   C4B41470   0.505   9.974   7.364
 3146POPC   NC341471  42.368   0.487   5.564
 3146POPC   PO441472  42.355   0.440   5.864
 3146POPC   GL141473  42.308   0.394   6.164
 3146POPC   GL241474  42.316   0.519   6.164
 3146POPC   C1A41475  42.346   0.455   6.464
 3146POPC   D2A41476  42.364   0.414   6.764
 3146POPC   C3A41477  42.312   0.486   7.064
 3146POPC   C4A41478  42.323   0.396   7.364
 3146POPC   C1B41479  42.252   0.649   6.464
 3146POPC   C2B41480  42.220   0.719   6.764
 3146POPC   C3B41481  42.273   0.726   7.064
 3146POPC   C4B41482  42.248   0.680   7.364
 3147POPC   NC341483  31.498  43.885   5.564
 3147POPC   PO441484  31.507  43.882   5.864
 3147POPC   GL141485  31.499  43.874   6.164
 3147POPC   GL241486  31.484  43.996   6.164
 3147POPC   C1A41487  31.454  43.868   6.464
 3147POPC   D2A41488  31.517  43.853   6.764
 3147POPC   C3A41489  31.467  43.916   7.064
 3147POPC   C4A41490  31.449  43.856   7.364
 3147POPC   C1B41491  31.575  44.158   6.464
 3147POPC   C2B41492  31.527  44.096   6.764
 3147POPC   C3B41493  31.546  44.121   7.064
 3147POPC   C4B41494  31.568  44.161   7.364
 3148POPC   NC341495  23.730  34.592   5.564
 3148POPC   PO441496  23.671  34.532   5.864
 3148POPC   GL141497  23.668  34.583   6.164
 3148POPC   GL241498  23.674  34.674   6.164
 3148POPC   C1A41499  23.751  34.572   6.464
 3148POPC   D2A41500  23.725  34.607   6.764
 3148POPC   C3A41501  23.762  34.563   7.064
 3148POPC   C4A41502  23.673  34.598   7.364
 3148POPC   C1B41503  23.521  34.765   6.464
 3148POPC   C2B41504  23.524  34.713   6.764
 3148POPC   C3B41505  23.553  34.796   7.064
 3148POPC   C4B41506  23.517  34.743   7.364
 3149POPC   NC341507  10.538  38.488   5.564
 3149POPC   PO441508  10.527  38.446   5.864
 3149POPC   GL141509  10.566  38.466   6.164
 3149POPC   GL241510  10.630  38.425   6.164
 3149POPC   C1A41511  10.482  38.407   6.464
 3149POPC   D2A41512  10.565  38.417   6.764
 3149POPC   C3A41513  10.535  38.430   7.064
 3149POPC   C4A41514  10.523  38.430   7.364
 3149POPC   C1B41515  10.729  38.351   6.464
 3149POPC   C2B41516  10.721  38.434   6.764
 3149POPC   C3B41517  10.815  38.341   7.064
 3149POPC   C4B41518  10.726  38.392   7.364
 3150POPC   NC341519  37.728   2.803   5.564
 3150POPC   PO441520  37.679   2.814   5.864
 3150POPC   GL141521  37.711   2.809   6.164
 3150POPC   GL241522  37.634   2.681   6.164
 3150POPC   C1A41523  37.660   2.729   6.464
 3150POPC   D2A41524  37.716   2.737   6.764
 3150POPC   C3A41525  37.676   2.813   7.064
 3150POPC   C4A41526  37.717   2.741   7.364
 3150POPC   C1B41527  37.609   2.499   6.464
 3150POPC   C2B41528  37.536   2.533   6.764
 3150POPC   C3B41529  37.583   2.570   7.064
 3150POPC   C4B41530  37.616   2.580   7.364
 3151POPC   NC341531  33.007  18.250   5.564
 3151POPC   PO441532  33.023  18.292   5.864
 3151POPC   GL141533  33.024  18.262   6.164
 3151POPC   GL241534  33.096  18.449   6.164
 3151POPC   C1A41535  33.000  18.286   6.464
 3151POPC   D2A41536  33.038  18.312   6.764
 3151POPC   C3A41537  33.001  18.328   7.064
 3151POPC   C4A41538  33.051  18.313   7.364
 3151POPC   C1B41539  33.108  18.495   6.464
 3151POPC   C2B41540  33.055  18.508   6.764
 3151POPC   C3B41541  33.092  18.551   7.064
 3151POPC   C4B41542  33.085  18.527   7.364
 3152POPC   NC341543   5.847  40.827   5.564
 3152POPC   PO441544   5.872  40.779   5.864
 3152POPC   GL141545   5.871  40.761   6.164
 3152POPC   GL241546   5.985  40.760   6.164
 3152POPC   C1A41547   5.891  40.817   6.464
 3152POPC   D2A41548   5.878  40.754   6.764
 3152POPC   C3A41549   5.876  40.783   7.064
 3152POPC   C4A41550   5.916  40.803   7.364
 3152POPC   C1B41551   6.038  40.597   6.464
 3152POPC   C2B41552   6.109  40.685   6.764
 3152POPC   C3B41553   6.060  40.642   7.064
 3152POPC   C4B41554   6.101  40.670   7.364
 3153POPC   NC341555  22.924  15.165   5.564
 3153POPC   PO441556  22.940  15.218   5.864
 3153POPC   GL141557  22.985  15.157   6.164
 3153POPC   GL241558  22.891  15.315   6.164
 3153POPC   C1A41559  22.963  15.219   6.464
 3153POPC   D2A41560  22.960  15.174   6.764
 3153POPC   C3A41561  22.946  15.167   7.064
 3153POPC   C4A41562  22.890  15.208   7.364
 3153POPC   C1B41563  22.803  15.350   6.464
 3153POPC   C2B41564  22.773  15.429   6.764
 3153POPC   C3B41565  22.847  15.439   7.064
 3153POPC   C4B41566  22.857  15.400   7.364
 3154POPC   NC341567  21.408  37.643   5.564
 3154POPC   PO441568  21.435  37.703   5.864
 3154POPC   GL141569  21.417  37.693   6.164
 3154POPC   GL241570  21.264  37.825   6.164
 3154POPC   C1A41571  21.395  37.696   6.464
 3154POPC   D2A41572  21.398  37.665   6.764
 3154POPC   C3A41573  21.372  37.637   7.064
 3154POPC   C4A41574  21.432  37.656   7.364
 3154POPC   C1B41575  21.252  37.930   6.464
 3154POPC   C2B41576  21.276  37.872   6.764
 3154POPC   C3B41577  21.225  37.864   7.064
 3154POPC   C4B41578  21.222  37.896   7.364
 3155POPC   NC341579  23.693   1.181   5.564
 3155POPC   PO441580  23.665   1.204   5.864
 3155POPC   GL141581  23.763   1.248   6.164
 3155POPC   GL241582  23.834   1.314   6.164
 3155POPC   C1A41583  23.717   1.240   6.464
 3155POPC   D2A41584  23.752   1.200   6.764
 3155POPC   C3A41585  23.727   1.213   7.064
 3155POPC   C4A41586  23.680   1.250   7.364
 3155POPC   C1B41587  23.920   1.393   6.464
 3155POPC   C2B41588  23.958   1.334   6.764
 3155POPC   C3B41589  23.949   1.387   7.064
 3155POPC   C4B41590  23.944   1.351   7.364
 3156POPC   NC341591  16.707   9.728   5.564
 3156POPC   PO441592  16.774   9.735   5.864
 3156POPC   GL141593  16.770   9.791   6.164
 3156POPC   GL241594  16.772   9.627   6.164
 3156POPC   C1A41595  16.736   9.728   6.464
 3156POPC   D2A41596  16.699   9.793   6.764
 3156POPC   C3A41597  16.770   9.774   7.064
 3156POPC   C4A41598  16.765   9.702   7.364
 3156POPC   C1B41599  16.760   9.547   6.464
 3156POPC   C2B41600  16.715   9.456   6.764
 3156POPC   C3B41601  16.764   9.488   7.064
 3156POPC   C4B41602  16.743   9.473   7.364
 3157POPC   NC341603  29.144  40.733   5.564
 3157POPC   PO441604  29.190  40.760   5.864
 3157POPC   GL141605  29.187  40.775   6.164
 3157POPC   GL241606  29.158  40.945   6.164
 3157POPC   C1A41607  29.103  40.757   6.464
 3157POPC   D2A41608  29.148  40.777   6.764
 3157POPC   C3A41609  29.161  40.747   7.064
 3157POPC   C4A41610  29.195  40.761   7.364
 3157POPC   C1B41611  29.167  41.067   6.464
 3157POPC   C2B41612  29.104  41.039   6.764
 3157POPC   C3B41613  29.119  40.998   7.064
 3157POPC   C4B41614  29.112  41.034   7.364
 3158POPC   NC341615  29.100  16.681   5.564
 3158POPC   PO441616  29.113  16.699   5.864
 3158POPC   GL141617  29.128  16.707   6.164
 3158POPC   GL241618  29.187  16.609   6.164
 3158POPC   C1A41619  29.148  16.779   6.464
 3158POPC   D2A41620  29.102  16.723   6.764
 3158POPC   C3A41621  29.151  16.776   7.064
 3158POPC   C4A41622  29.143  16.708   7.364
 3158POPC   C1B41623  29.238  16.501   6.464
 3158POPC   C2B41624  29.202  16.541   6.764
 3158POPC   C3B41625  29.253  16.473   7.064
 3158POPC   C4B41626  29.273  16.553   7.364
 3159POPC   NC341627  40.007  42.326   5.564
 3159POPC   PO441628  40.051  42.349   5.864
 3159POPC   GL141629  39.959  42.297   6.164
 3159POPC   GL241630  40.005  42.221   6.164
 3159POPC   C1A41631  40.038  42.310   6.464
 3159POPC   D2A41632  39.986  42.309   6.764
 3159POPC   C3A41633  40.014  42.324   7.064
 3159POPC   C4A41634  40.050  42.355   7.364
 3159POPC   C1B41635  39.940  42.084   6.464
 3159POPC   C2B41636  40.011  42.114   6.764
 3159POPC   C3B41637  39.961  42.084   7.064
 3159POPC   C4B41638  40.019  42.095   7.364
 3160POPC   NC341639  14.408  26.077   5.564
 3160POPC   PO441640  14.410  26.022   5.864
 3160POPC   GL141641  14.394  26.045   6.164
 3160POPC   GL241642  14.466  26.082   6.164
 3160POPC   C1A41643  14.387  26.057   6.464
 3160POPC   D2A41644  14.370  26.053   6.764
 3160POPC   C3A41645  14.429  26.071   7.064
 3160POPC   C4A41646  14.412  26.023   7.364
 3160POPC   C1B41647  14.618  26.197   6.464
 3160POPC   C2B41648  14.632  26.132   6.764
 3160POPC   C3B41649  14.647  26.174   7.064
 3160POPC   C4B41650  14.613  26.130   7.364
 3161POPC   NC341651  36.876  27.631   5.564
 3161POPC   PO441652  36.912  27.600   5.864
 3161POPC   GL141653  36.932  27.552   6.164
 3161POPC   GL241654  37.033  27.594   6.164
 3161POPC   C1A41655  36.880  27.579   6.464
 3161POPC   D2A41656  36.902  27.549   6.764
 3161POPC   C3A41657  36.913  27.607   7.064
 3161POPC   C4A41658  36.914  27.571   7.364
 3161POPC   C1B41659  37.167  27.454   6.464
 3161POPC   C2B41660  37.167  27.546   6.764
 3161POPC   C3B41661  37.176  27.470   7.064
 3161POPC   C4B41662  37.104  27.502   7.364
 3162POPC   NC341663  31.423   1.212   5.564
 3162POPC   PO441664  31.459   1.190   5.864
 3162POPC   GL141665  31.452   1.181   6.164
 3162POPC   GL241666  31.341   1.184   6.164
 3162POPC   C1A41667  31.469   1.214   6.464
 3162POPC   D2A41668  31.505   1.230   6.764
 3162POPC   C3A41669  31.476   1.213   7.064
 3162POPC   C4A41670  31.501   1.207   7.364
 3162POPC   C1B41671  31.239   1.195   6.464
 3162POPC   C2B41672  31.220   1.172   6.764
 3162POPC   C3B41673  31.210   1.098   7.064
 3162POPC   C4B41674  31.204   1.107   7.364
 3163POPC   NC341675  21.434  42.384   5.564
 3163POPC   PO441676  21.390  42.295   5.864
 3163POPC   GL141677  21.382  42.288   6.164
 3163POPC   GL241678  21.529  42.334   6.164
 3163POPC   C1A41679  21.406  42.362   6.464
 3163POPC   D2A41680  21.410  42.301   6.764
 3163POPC   C3A41681  21.431  42.326   7.064
 3163POPC   C4A41682  21.435  42.327   7.364
 3163POPC   C1B41683  21.650  42.355   6.464
 3163POPC   C2B41684  21.678  42.343   6.764
 3163POPC   C3B41685  21.612  42.367   7.064
 3163POPC   C4B41686  21.597  42.412   7.364
 3164POPC   NC341687  16.732   8.983   5.564
 3164POPC   PO441688  16.748   8.931   5.864
 3164POPC   GL141689  16.755   8.939   6.164
 3164POPC   GL241690  16.642   8.896   6.164
 3164POPC   C1A41691  16.687   8.961   6.464
 3164POPC   D2A41692  16.745   8.975   6.764
 3164POPC   C3A41693  16.697   8.951   7.064
 3164POPC   C4A41694  16.767   9.010   7.364
 3164POPC   C1B41695  16.590   8.740   6.464
 3164POPC   C2B41696  16.642   8.774   6.764
 3164POPC   C3B41697  16.588   8.709   7.064
 3164POPC   C4B41698  16.580   8.752   7.364
 3165POPC   NC341699   0.392  12.064   5.564
 3165POPC   PO441700   0.477  12.040   5.864
 3165POPC   GL141701   0.397  12.085   6.164
 3165POPC   GL241702   0.349  12.199   6.164
 3165POPC   C1A41703   0.402  12.041   6.464
 3165POPC   D2A41704   0.424  12.110   6.764
 3165POPC   C3A41705   0.413  12.042   7.064
 3165POPC   C4A41706   0.398  12.034   7.364
 3165POPC   C1B41707   0.213  12.241   6.464
 3165POPC   C2B41708   0.226  12.271   6.764
 3165POPC   C3B41709   0.261  12.183   7.064
 3165POPC   C4B41710   0.237  12.197   7.364
 3166POPC   NC341711  24.447   3.504   5.564
 3166POPC   PO441712  24.480   3.492   5.864
 3166POPC   GL141713  24.468   3.571   6.164
 3166POPC   GL241714  24.551   3.599   6.164
 3166POPC   C1A41715  24.527   3.568   6.464
 3166POPC   D2A41716  24.510   3.582   6.764
 3166POPC   C3A41717  24.494   3.520   7.064
 3166POPC   C4A41718  24.459   3.523   7.364
 3166POPC   C1B41719  24.676   3.634   6.464
 3166POPC   C2B41720  24.705   3.690   6.764
 3166POPC   C3B41721  24.685   3.645   7.064
 3166POPC   C4B41722  24.707   3.680   7.364
 3167POPC   NC341723  36.101  15.139   5.564
 3167POPC   PO441724  36.170  15.164   5.864
 3167POPC   GL141725  36.150  15.220   6.164
 3167POPC   GL241726  36.082  15.329   6.164
 3167POPC   C1A41727  36.108  15.214   6.464
 3167POPC   D2A41728  36.132  15.171   6.764
 3167POPC   C3A41729  36.131  15.146   7.064
 3167POPC   C4A41730  36.153  15.141   7.364
 3167POPC   C1B41731  36.051  15.459   6.464
 3167POPC   C2B41732  36.084  15.465   6.764
 3167POPC   C3B41733  36.128  15.446   7.064
 3167POPC   C4B41734  36.121  15.467   7.364
 3168POPC   NC341735  13.631  18.305   5.564
 3168POPC   PO441736  13.587  18.243   5.864
 3168POPC   GL141737  13.674  18.265   6.164
 3168POPC   GL241738  13.717  18.198   6.164
 3168POPC   C1A41739  13.608  18.243   6.464
 3168POPC   D2A41740  13.598  18.245   6.764
 3168POPC   C3A41741  13.673  18.278   7.064
 3168POPC   C4A41742  13.629  18.305   7.364
 3168POPC   C1B41743  13.769  18.120   6.464
 3168POPC   C2B41744  13.793  18.086   6.764
 3168POPC   C3B41745  13.803  18.110   7.064
 3168POPC   C4B41746  13.741  18.089   7.364
 3169POPC   NC341747  12.060   2.760   5.564
 3169POPC   PO441748  12.118   2.742   5.864
 3169POPC   GL141749  12.107   2.778   6.164
 3169POPC   GL241750  11.933   2.750   6.164
 3169POPC   C1A41751  12.078   2.780   6.464
 3169POPC   D2A41752  12.111   2.793   6.764
 3169POPC   C3A41753  12.043   2.749   7.064
 3169POPC   C4A41754  12.093   2.805   7.364
 3169POPC   C1B41755  11.840   2.812   6.464
 3169POPC   C2B41756  11.785   2.845   6.764
 3169POPC   C3B41757  11.861   2.815   7.064
 3169POPC   C4B41758  11.859   2.803   7.364
 3170POPC   NC341759  23.686  31.471   5.564
 3170POPC   PO441760  23.716  31.440   5.864
 3170POPC   GL141761  23.749  31.494   6.164
 3170POPC   GL241762  23.648  31.324   6.164
 3170POPC   C1A41763  23.760  31.482   6.464
 3170POPC   D2A41764  23.731  31.440   6.764
 3170POPC   C3A41765  23.763  31.446   7.064
 3170POPC   C4A41766  23.763  31.465   7.364
 3170POPC   C1B41767  23.643  31.263   6.464
 3170POPC   C2B41768  23.723  31.261   6.764
 3170POPC   C3B41769  23.682  31.185   7.064
 3170POPC   C4B41770  23.664  31.253   7.364
 3171POPC   NC341771  15.204  11.269   5.564
 3171POPC   PO441772  15.168  11.303   5.864
 3171POPC   GL141773  15.155  11.326   6.164
 3171POPC   GL241774  15.124  11.416   6.164
 3171POPC   C1A41775  15.211  11.309   6.464
 3171POPC   D2A41776  15.223  11.313   6.764
 3171POPC   C3A41777  15.175  11.334   7.064
 3171POPC   C4A41778  15.196  11.265   7.364
 3171POPC   C1B41779  15.033  11.502   6.464
 3171POPC   C2B41780  15.016  11.545   6.764
 3171POPC   C3B41781  15.014  11.530   7.064
 3171POPC   C4B41782  15.042  11.536   7.364
 3172POPC   NC341783  33.838  27.584   5.564
 3172POPC   PO441784  33.756  27.570   5.864
 3172POPC   GL141785  33.770  27.558   6.164
 3172POPC   GL241786  33.873  27.744   6.164
 3172POPC   C1A41787  33.757  27.608   6.464
 3172POPC   D2A41788  33.838  27.626   6.764
 3172POPC   C3A41789  33.776  27.546   7.064
 3172POPC   C4A41790  33.801  27.562   7.364
 3172POPC   C1B41791  33.876  27.878   6.464
 3172POPC   C2B41792  33.914  27.791   6.764
 3172POPC   C3B41793  33.899  27.854   7.064
 3172POPC   C4B41794  33.881  27.808   7.364
 3173POPC   NC341795  12.877  39.184   5.564
 3173POPC   PO441796  12.854  39.265   5.864
 3173POPC   GL141797  12.817  39.263   6.164
 3173POPC   GL241798  12.803  39.091   6.164
 3173POPC   C1A41799  12.874  39.234   6.464
 3173POPC   D2A41800  12.821  39.260   6.764
 3173POPC   C3A41801  12.866  39.203   7.064
 3173POPC   C4A41802  12.832  39.255   7.364
 3173POPC   C1B41803  12.752  39.062   6.464
 3173POPC   C2B41804  12.718  38.978   6.764
 3173POPC   C3B41805  12.692  39.068   7.064
 3173POPC   C4B41806  12.764  39.065   7.364
 3174POPC   NC341807  36.883   5.079   5.564
 3174POPC   PO441808  36.885   5.115   5.864
 3174POPC   GL141809  36.944   5.085   6.164
 3174POPC   GL241810  37.058   5.127   6.164
 3174POPC   C1A41811  36.933   5.106   6.464
 3174POPC   D2A41812  36.904   5.091   6.764
 3174POPC   C3A41813  36.858   5.140   7.064
 3174POPC   C4A41814  36.910   5.067   7.364
 3174POPC   C1B41815  37.101   5.204   6.464
 3174POPC   C2B41816  37.143   5.166   6.764
 3174POPC   C3B41817  37.133   5.237   7.064
 3174POPC   C4B41818  37.167   5.232   7.364
 3175POPC   NC341819   5.124  14.407   5.564
 3175POPC   PO441820   5.134  14.412   5.864
 3175POPC   GL141821   5.056  14.396   6.164
 3175POPC   GL241822   5.005  14.488   6.164
 3175POPC   C1A41823   5.115  14.446   6.464
 3175POPC   D2A41824   5.117  14.421   6.764
 3175POPC   C3A41825   5.118  14.450   7.064
 3175POPC   C4A41826   5.140  14.433   7.364
 3175POPC   C1B41827   4.946  14.521   6.464
 3175POPC   C2B41828   4.920  14.583   6.764
 3175POPC   C3B41829   4.928  14.522   7.064
 3175POPC   C4B41830   4.875  14.524   7.364
 3176POPC   NC341831  17.460  10.514   5.564
 3176POPC   PO441832  17.470  10.492   5.864
 3176POPC   GL141833  17.518  10.553   6.164
 3176POPC   GL241834  17.558  10.411   6.164
 3176POPC   C1A41835  17.487  10.524   6.464
 3176POPC   D2A41836  17.505  10.566   6.764
 3176POPC   C3A41837  17.465  10.561   7.064
 3176POPC   C4A41838  17.462  10.536   7.364
 3176POPC   C1B41839  17.705  10.282   6.464
 3176POPC   C2B41840  17.636  10.305   6.764
 3176POPC   C3B41841  17.689  10.291   7.064
 3176POPC   C4B41842  17.670  10.369   7.364
 3177POPC   NC341843  36.131  39.278   5.564
 3177POPC   PO441844  36.093  39.239   5.864
 3177POPC   GL141845  36.087  39.184   6.164
 3177POPC   GL241846  36.284  39.237   6.164
 3177POPC   C1A41847  36.144  39.214   6.464
 3177POPC   D2A41848  36.095  39.260   6.764
 3177POPC   C3A41849  36.089  39.234   7.064
 3177POPC   C4A41850  36.174  39.255   7.364
 3177POPC   C1B41851  36.396  39.306   6.464
 3177POPC   C2B41852  36.379  39.312   6.764
 3177POPC   C3B41853  36.350  39.309   7.064
 3177POPC   C4B41854  36.350  39.287   7.364
 3178POPC   NC341855  43.885  25.291   5.564
 3178POPC   PO441856  43.899  25.260   5.864
 3178POPC   GL141857  43.850  25.233   6.164
 3178POPC   GL241858  43.884  25.350   6.164
 3178POPC   C1A41859  43.874  25.247   6.464
 3178POPC   D2A41860  43.843  25.276   6.764
 3178POPC   C3A41861  43.921  25.264   7.064
 3178POPC   C4A41862  43.882  25.266   7.364
 3178POPC   C1B41863  43.868  25.524   6.464
 3178POPC   C2B41864  43.924  25.492   6.764
 3178POPC   C3B41865  43.845  25.529   7.064
 3178POPC   C4B41866  43.837  25.539   7.364
 3179POPC   NC341867  27.617  33.791   5.564
 3179POPC   PO441868  27.590  33.799   5.864
 3179POPC   GL141869  27.594  33.849   6.164
 3179POPC   GL241870  27.733  33.751   6.164
 3179POPC   C1A41871  27.600  33.780   6.464
 3179POPC   D2A41872  27.575  33.777   6.764
 3179POPC   C3A41873  27.614  33.764   7.064
 3179POPC   C4A41874  27.581  33.753   7.364
 3179POPC   C1B41875  27.788  33.703   6.464
 3179POPC   C2B41876  27.790  33.754   6.764
 3179POPC   C3B41877  27.830  33.711   7.064
 3179POPC   C4B41878  27.876  33.734   7.364
 3180POPC   NC341879  15.176  25.310   5.564
 3180POPC   PO441880  15.182  25.298   5.864
 3180POPC   GL141881  15.190  25.294   6.164
 3180POPC   GL241882  15.321  25.228   6.164
 3180POPC   C1A41883  15.175  25.247   6.464
 3180POPC   D2A41884  15.185  25.250   6.764
 3180POPC   C3A41885  15.150  25.299   7.064
 3180POPC   C4A41886  15.147  25.260   7.364
 3180POPC   C1B41887  15.388  25.191   6.464
 3180POPC   C2B41888  15.395  25.189   6.764
 3180POPC   C3B41889  15.445  25.213   7.064
 3180POPC   C4B41890  15.406  25.145   7.364
 3181POPC   NC341891   2.034  28.341   5.564
 3181POPC   PO441892   1.966  28.365   5.864
 3181POPC   GL141893   1.987  28.374   6.164
 3181POPC   GL241894   1.954  28.237   6.164
 3181POPC   C1A41895   1.969  28.362   6.464
 3181POPC   D2A41896   2.003  28.379   6.764
 3181POPC   C3A41897   2.026  28.355   7.064
 3181POPC   C4A41898   2.031  28.406   7.364
 3181POPC   C1B41899   1.989  28.095   6.464
 3181POPC   C2B41900   1.925  28.156   6.764
 3181POPC   C3B41901   1.954  28.118   7.064
 3181POPC   C4B41902   1.921  28.126   7.364
 3182POPC   NC341903  35.391  13.582   5.564
 3182POPC   PO441904  35.313  13.628   5.864
 3182POPC   GL141905  35.310  13.608   6.164
 3182POPC   GL241906  35.302  13.547   6.164
 3182POPC   C1A41907  35.312  13.665   6.464
 3182POPC   D2A41908  35.352  13.626   6.764
 3182POPC   C3A41909  35.388  13.583   7.064
 3182POPC   C4A41910  35.397  13.591   7.364
 3182POPC   C1B41911  35.277  13.380   6.464
 3182POPC   C2B41912  35.214  13.447   6.764
 3182POPC   C3B41913  35.240  13.415   7.064
 3182POPC   C4B41914  35.257  13.359   7.364
 3183POPC   NC341915  22.175  39.187   5.564
 3183POPC   PO441916  22.164  39.204   5.864
 3183POPC   GL141917  22.176  39.201   6.164
 3183POPC   GL241918  22.231  39.119   6.164
 3183POPC   C1A41919  22.143  39.268   6.464
 3183POPC   D2A41920  22.139  39.274   6.764
 3183POPC   C3A41921  22.181  39.275   7.064
 3183POPC   C4A41922  22.117  39.195   7.364
 3183POPC   C1B41923  22.164  38.994   6.464
 3183POPC   C2B41924  22.212  38.946   6.764
 3183POPC   C3B41925  22.232  38.942   7.064
 3183POPC   C4B41926  22.174  38.962   7.364
 3184POPC   NC341927   7.462   5.069   5.564
 3184POPC   PO441928   7.406   5.095   5.864
 3184POPC   GL141929   7.394   5.063   6.164
 3184POPC   GL241930   7.475   5.213   6.164
 3184POPC   C1A41931   7.379   5.095   6.464
 3184POPC   D2A41932   7.373   5.084   6.764
 3184POPC   C3A41933   7.435   5.100   7.064
 3184POPC   C4A41934   7.409   5.059   7.364
 3184POPC   C1B41935   7.587   5.335   6.464
 3184POPC   C2B41936   7.599   5.269   6.764
 3184POPC   C3B41937   7.538   5.311   7.064
 3184POPC   C4B41938   7.613   5.322   7.364
 3185POPC   NC341939  28.392  12.102   5.564
 3185POPC   PO441940  28.333  12.112   5.864
 3185POPC   GL141941  28.408  12.117   6.164
 3185POPC   GL241942  28.515  12.147   6.164
 3185POPC   C1A41943  28.328  12.084   6.464
 3185POPC   D2A41944  28.375  12.082   6.764
 3185POPC   C3A41945  28.350  12.121   7.064
 3185POPC   C4A41946  28.402  12.068   7.364
 3185POPC   C1B41947  28.558  12.178   6.464
 3185POPC   C2B41948  28.607  12.250   6.764
 3185POPC   C3B41949  28.589  12.195   7.064
 3185POPC   C4B41950  28.619  12.192   7.364
 3186POPC   NC341951  25.228  29.919   5.564
 3186POPC   PO441952  25.312  29.896   5.864
 3186POPC   GL141953  25.279  29.917   6.164
 3186POPC   GL241954  25.164  29.976   6.164
 3186POPC   C1A41955  25.264  29.947   6.464
 3186POPC   D2A41956  25.303  29.925   6.764
 3186POPC   C3A41957  25.254  29.951   7.064
 3186POPC   C4A41958  25.315  29.928   7.364
 3186POPC   C1B41959  25.048  29.982   6.464
 3186POPC   C2B41960  24.992  30.002   6.764
 3186POPC   C3B41961  24.983  29.936   7.064
 3186POPC   C4B41962  24.979  29.976   7.364
 3187POPC   NC341963  12.847   2.018   5.564
 3187POPC   PO441964  12.806   1.940   5.864
 3187POPC   GL141965  12.804   1.984   6.164
 3187POPC   GL241966  12.978   1.904   6.164
 3187POPC   C1A41967  12.820   1.955   6.464
 3187POPC   D2A41968  12.884   1.969   6.764
 3187POPC   C3A41969  12.827   2.039   7.064
 3187POPC   C4A41970  12.839   1.988   7.364
 3187POPC   C1B41971  13.045   1.916   6.464
 3187POPC   C2B41972  13.047   1.907   6.764
 3187POPC   C3B41973  13.127   1.893   7.064
 3187POPC   C4B41974  13.037   1.884   7.364
 3188POPC   NC341975  24.443   5.093   5.564
 3188POPC   PO441976  24.457   5.099   5.864
 3188POPC   GL141977  24.496   5.133   6.164
 3188POPC   GL241978  24.465   5.233   6.164
 3188POPC   C1A41979  24.495   5.110   6.464
 3188POPC   D2A41980  24.528   5.127   6.764
 3188POPC   C3A41981  24.469   5.127   7.064
 3188POPC   C4A41982  24.489   5.126   7.364
 3188POPC   C1B41983  24.456   5.390   6.464
 3188POPC   C2B41984  24.440   5.305   6.764
 3188POPC   C3B41985  24.444   5.344   7.064
 3188POPC   C4B41986  24.508   5.392   7.364
 3189POPC   NC341987  19.039  15.213   5.564
 3189POPC   PO441988  19.090  15.150   5.864
 3189POPC   GL141989  19.044  15.142   6.164
 3189POPC   GL241990  19.122  15.292   6.164
 3189POPC   C1A41991  19.077  15.152   6.464
 3189POPC   D2A41992  19.108  15.157   6.764
 3189POPC   C3A41993  19.025  15.142   7.064
 3189POPC   C4A41994  19.107  15.229   7.364
 3189POPC   C1B41995  19.075  15.391   6.464
 3189POPC   C2B41996  19.142  15.449   6.764
 3189POPC   C3B41997  19.131  15.384   7.064
 3189POPC   C4B41998  19.133  15.373   7.364
 3190POPC   NC341999  39.242  32.212   5.564
 3190POPC   PO442000  39.201  32.278   5.864
 3190POPC   GL142001  39.183  32.240   6.164
 3190POPC   GL242002  39.274  32.414   6.164
 3190POPC   C1A42003  39.189  32.199   6.464
 3190POPC   D2A42004  39.234  32.240   6.764
 3190POPC   C3A42005  39.237  32.227   7.064
 3190POPC   C4A42006  39.219  32.236   7.364
 3190POPC   C1B42007  39.280  32.449   6.464
 3190POPC   C2B42008  39.260  32.469   6.764
 3190POPC   C3B42009  39.250  32.472   7.064
 3190POPC   C4B42010  39.323  32.457   7.364
 3191POPC   NC342011  43.140  43.859   5.564
 3191POPC   PO442012  43.118  43.865   5.864
 3191POPC   GL142013  43.076  43.880   6.164
 3191POPC   GL242014  43.204  43.814   6.164
 3191POPC   C1A42015  43.074  43.902   6.464
 3191POPC   D2A42016  43.159  43.918   6.764
 3191POPC   C3A42017  43.064  43.930   7.064
 3191POPC   C4A42018  43.149  43.865   7.364
 3191POPC   C1B42019  43.345  43.792   6.464
 3191POPC   C2B42020  43.344  43.784   6.764
 3191POPC   C3B42021  43.381  43.791   7.064
 3191POPC   C4B42022  43.297  43.802   7.364
 3192POPC   NC342023  41.589   8.969   5.564
 3192POPC   PO442024  41.579   8.941   5.864
 3192POPC   GL142025  41.582   8.940   6.164
 3192POPC   GL242026  41.461   9.054   6.164
 3192POPC   C1A42027  41.521   9.015   6.464
 3192POPC   D2A42028  41.575   9.008   6.764
 3192POPC   C3A42029  41.604   8.965   7.064
 3192POPC   C4A42030  41.568   8.970   7.364
 3192POPC   C1B42031  41.324   9.125   6.464
 3192POPC   C2B42032  41.383   9.115   6.764
 3192POPC   C3B42033  41.319   9.047   7.064
 3192POPC   C4B42034  41.292   9.139   7.364
 3193POPC   NC342035  35.382  29.945   5.564
 3193POPC   PO442036  35.344  29.932   5.864
 3193POPC   GL142037  35.307  29.907   6.164
 3193POPC   GL242038  35.454  29.972   6.164
 3193POPC   C1A42039  35.319  29.940   6.464
 3193POPC   D2A42040  35.333  29.941   6.764
 3193POPC   C3A42041  35.306  29.939   7.064
 3193POPC   C4A42042  35.341  29.952   7.364
 3193POPC   C1B42043  35.545  30.027   6.464
 3193POPC   C2B42044  35.637  29.955   6.764
 3193POPC   C3B42045  35.558  29.971   7.064
 3193POPC   C4B42046  35.591  30.044   7.364
 3194POPC   NC342047  15.184  21.393   5.564
 3194POPC   PO442048  15.132  21.383   5.864
 3194POPC   GL142049  15.156  21.364   6.164
 3194POPC   GL242050  15.106  21.496   6.164
 3194POPC   C1A42051  15.154  21.341   6.464
 3194POPC   D2A42052  15.178  21.346   6.764
 3194POPC   C3A42053  15.136  21.424   7.064
 3194POPC   C4A42054  15.224  21.361   7.364
 3194POPC   C1B42055  15.168  21.649   6.464
 3194POPC   C2B42056  15.168  21.679   6.764
 3194POPC   C3B42057  15.107  21.664   7.064
 3194POPC   C4B42058  15.141  21.627   7.364
 3195POPC   NC342059  21.352   7.451   5.564
 3195POPC   PO442060  21.361   7.412   5.864
 3195POPC   GL142061  21.353   7.393   6.164
 3195POPC   GL242062  21.267   7.450   6.164
 3195POPC   C1A42063  21.379   7.407   6.464
 3195POPC   D2A42064  21.424   7.447   6.764
 3195POPC   C3A42065  21.407   7.394   7.064
 3195POPC   C4A42066  21.368   7.470   7.364
 3195POPC   C1B42067  21.131   7.598   6.464
 3195POPC   C2B42068  21.212   7.586   6.764
 3195POPC   C3B42069  21.219   7.568   7.064
 3195POPC   C4B42070  21.197   7.562   7.364
 3196POPC   NC342071   1.245  22.170   5.564
 3196POPC   PO442072   1.220  22.176   5.864
 3196POPC   GL142073   1.226  22.118   6.164
 3196POPC   GL242074   1.068  22.215   6.164
 3196POPC   C1A42075   1.203  22.189   6.464
 3196POPC   D2A42076   1.175  22.176   6.764
 3196POPC   C3A42077   1.171  22.204   7.064
 3196POPC   C4A42078   1.179  22.149   7.364
 3196POPC   C1B42079   0.967  22.334   6.464
 3196POPC   C2B42080   1.025  22.317   6.764
 3196POPC   C3B42081   1.012  22.294   7.064
 3196POPC   C4B42082   1.055  22.341   7.364
 3197POPC   NC342083  30.724  43.858   5.564
 3197POPC   PO442084  30.660  43.861   5.864
 3197POPC   GL142085  30.663  43.895   6.164
 3197POPC   GL242086  30.788  43.983   6.164
 3197POPC   C1A42087  30.652  43.891   6.464
 3197POPC   D2A42088  30.661  43.874   6.764
 3197POPC   C3A42089  30.699  43.849   7.064
 3197POPC   C4A42090  30.688  43.846   7.364
 3197POPC   C1B42091  30.933  43.988   6.464
 3197POPC   C2B42092  30.897  43.996   6.764
 3197POPC   C3B42093  30.956  43.964   7.064
 3197POPC   C4B42094  30.927  43.990   7.364
 3198POPC   NC342095  25.306  43.113   5.564
 3198POPC   PO442096  25.296  43.157   5.864
 3198POPC   GL142097  25.259  43.097   6.164
 3198POPC   GL242098  25.380  43.169   6.164
 3198POPC   C1A42099  25.286  43.100   6.464
 3198POPC   D2A42100  25.223  43.092   6.764
 3198POPC   C3A42101  25.268  43.139   7.064
 3198POPC   C4A42102  25.248  43.130   7.364
 3198POPC   C1B42103  25.484  43.199   6.464
 3198POPC   C2B42104  25.497  43.222   6.764
 3198POPC   C3B42105  25.528  43.198   7.064
 3198POPC   C4B42106  25.509  43.207   7.364
 3199POPC   NC342107  43.879  34.582   5.564
 3199POPC   PO442108  43.858  34.619   5.864
 3199POPC   GL142109  43.888  34.564   6.164
 3199POPC   GL242110  44.002  34.722   6.164
 3199POPC   C1A42111  43.850  34.547   6.464
 3199POPC   D2A42112  43.911  34.595   6.764
 3199POPC   C3A42113  43.878  34.620   7.064
 3199POPC   C4A42114  43.849  34.570   7.364
 3199POPC   C1B42115  44.008  34.798   6.464
 3199POPC   C2B42116  44.067  34.782   6.764
 3199POPC   C3B42117  44.062  34.823   7.064
 3199POPC   C4B42118  44.074  34.827   7.364
 3200POPC   NC342119   5.090  13.617   5.564
 3200POPC   PO442120   5.051  13.665   5.864
 3200POPC   GL142121   5.091  13.641   6.164
 3200POPC   GL242122   5.055  13.718   6.164
 3200POPC   C1A42123   5.140  13.628   6.464
 3200POPC   D2A42124   5.085  13.638   6.764
 3200POPC   C3A42125   5.051  13.611   7.064
 3200POPC   C4A42126   5.104  13.585   7.364
 3200POPC   C1B42127   5.031  13.838   6.464
 3200POPC   C2B42128   5.047  13.845   6.764
 3200POPC   C3B42129   5.064  13.832   7.064
 3200POPC   C4B42130   5.095  13.916   7.364
 3201POPC   NC342131  37.698  33.001   5.564
 3201POPC   PO442132  37.655  33.033   5.864
 3201POPC   GL142133  37.640  33.003   6.164
 3201POPC   GL242134  37.689  32.878   6.164
 3201POPC   C1A42135  37.652  33.033   6.464
 3201POPC   D2A42136  37.712  33.028   6.764
 3201POPC   C3A42137  37.711  33.006   7.064
 3201POPC   C4A42138  37.702  33.044   7.364
 3201POPC   C1B42139  37.698  32.728   6.464
 3201POPC   C2B42140  37.659  32.810   6.764
 3201POPC   C3B42141  37.623  32.759   7.064
 3201POPC   C4B42142  37.681  32.822   7.364
 3202POPC   NC342143  21.425  32.252   5.564
 3202POPC   PO442144  21.436  32.247   5.864
 3202POPC   GL142145  21.403  32.201   6.164
 3202POPC   GL242146  21.450  32.378   6.164
 3202POPC   C1A42147  21.432  32.260   6.464
 3202POPC   D2A42148  21.429  32.287   6.764
 3202POPC   C3A42149  21.368  32.287   7.064
 3202POPC   C4A42150  21.346  32.263   7.364
 3202POPC   C1B42151  21.552  32.504   6.464
 3202POPC   C2B42152  21.562  32.420   6.764
 3202POPC   C3B42153  21.508  32.416   7.064
 3202POPC   C4B42154  21.502  32.433   7.364
 3203POPC   NC342155  20.586  23.756   5.564
 3203POPC   PO442156  20.658  23.667   5.864
 3203POPC   GL142157  20.641  23.700   6.164
 3203POPC   GL242158  20.700  23.610   6.164
 3203POPC   C1A42159  20.640  23.747   6.464
 3203POPC   D2A42160  20.636  23.699   6.764
 3203POPC   C3A42161  20.584  23.700   7.064
 3203POPC   C4A42162  20.650  23.738   7.364
 3203POPC   C1B42163  20.766  23.501   6.464
 3203POPC   C2B42164  20.761  23.543   6.764
 3203POPC   C3B42165  20.770  23.545   7.064
 3203POPC   C4B42166  20.818  23.528   7.364
 3204POPC   NC342167  28.393  40.831   5.564
 3204POPC   PO442168  28.319  40.833   5.864
 3204POPC   GL142169  28.359  40.741   6.164
 3204POPC   GL242170  28.406  40.857   6.164
 3204POPC   C1A42171  28.409  40.788   6.464
 3204POPC   D2A42172  28.324  40.813   6.764
 3204POPC   C3A42173  28.321  40.745   7.064
 3204POPC   C4A42174  28.324  40.799   7.364
 3204POPC   C1B42175  28.498  40.973   6.464
 3204POPC   C2B42176  28.449  41.013   6.764
 3204POPC   C3B42177  28.472  40.976   7.064
 3204POPC   C4B42178  28.461  41.022   7.364
 3205POPC   NC342179  41.580   1.956   5.564
 3205POPC   PO442180  41.536   2.009   5.864
 3205POPC   GL142181  41.600   2.008   6.164
 3205POPC   GL242182  41.470   1.967   6.164
 3205POPC   C1A42183  41.531   1.997   6.464
 3205POPC   D2A42184  41.526   2.013   6.764
 3205POPC   C3A42185  41.565   2.014   7.064
 3205POPC   C4A42186  41.561   1.986   7.364
 3205POPC   C1B42187  41.363   1.878   6.464
 3205POPC   C2B42188  41.332   1.878   6.764
 3205POPC   C3B42189  41.347   1.899   7.064
 3205POPC   C4B42190  41.350   1.859   7.364
 3206POPC   NC342191  27.603  10.567   5.564
 3206POPC   PO442192  27.583  10.525   5.864
 3206POPC   GL142193  27.584  10.542   6.164
 3206POPC   GL242194  27.460  10.654   6.164
 3206POPC   C1A42195  27.616  10.500   6.464
 3206POPC   D2A42196  27.585  10.519   6.764
 3206POPC   C3A42197  27.617  10.497   7.064
 3206POPC   C4A42198  27.598  10.496   7.364
 3206POPC   C1B42199  27.453  10.703   6.464
 3206POPC   C2B42200  27.392  10.741   6.764
 3206POPC   C3B42201  27.444  10.705   7.064
 3206POPC   C4B42202  27.459  10.651   7.364
 3207POPC   NC342203  32.275   5.849   5.564
 3207POPC   PO442204  32.281   5.877   5.864
 3207POPC   GL142205  32.239   5.840   6.164
 3207POPC   GL242206  32.282   5.935   6.164
 3207POPC   C1A42207  32.213   5.822   6.464
 3207POPC   D2A42208  32.271   5.886   6.764
 3207POPC   C3A42209  32.242   5.849   7.064
 3207POPC   C4A42210  32.298   5.902   7.364
 3207POPC   C1B42211  32.375   6.114   6.464
 3207POPC   C2B42212  32.415   6.043   6.764
 3207POPC   C3B42213  32.356   6.029   7.064
 3207POPC   C4B42214  32.431   6.065   7.364
 3208POPC   NC342215  33.793  13.675   5.564
 3208POPC   PO442216  33.757  13.651   5.864
 3208POPC   GL142217  33.840  13.642   6.164
 3208POPC   GL242218  33.901  13.554   6.164
 3208POPC   C1A42219  33.791  13.639   6.464
 3208POPC   D2A42220  33.826  13.630   6.764
 3208POPC   C3A42221  33.801  13.655   7.064
 3208POPC   C4A42222  33.763  13.578   7.364
 3208POPC   C1B42223  33.975  13.377   6.464
 3208POPC   C2B42224  33.916  13.375   6.764
 3208POPC   C3B42225  33.930  13.432   7.064
 3208POPC   C4B42226  33.914  13.373   7.364
 3209POPC   NC342227   8.197  12.121   5.564
 3209POPC   PO442228   8.179  12.036   5.864
 3209POPC   GL142229   8.242  12.048   6.164
 3209POPC   GL242230   8.260  11.995   6.164
 3209POPC   C1A42231   8.236  12.098   6.464
 3209POPC   D2A42232   8.154  12.060   6.764
 3209POPC   C3A42233   8.165  12.050   7.064
 3209POPC   C4A42234   8.176  12.048   7.364
 3209POPC   C1B42235   8.257  11.878   6.464
 3209POPC   C2B42236   8.260  11.806   6.764
 3209POPC   C3B42237   8.275  11.880   7.064
 3209POPC   C4B42238   8.257  11.837   7.364
 3210POPC   NC342239  38.412  31.445   5.564
 3210POPC   PO442240  38.418  31.507   5.864
 3210POPC   GL142241  38.464  31.428   6.164
 3210POPC   GL242242  38.364  31.427   6.164
 3210POPC   C1A42243  38.443  31.450   6.464
 3210POPC   D2A42244  38.424  31.494   6.764
 3210POPC   C3A42245  38.485  31.439   7.064
 3210POPC   C4A42246  38.474  31.517   7.364
 3210POPC   C1B42247  38.164  31.451   6.464
 3210POPC   C2B42248  38.196  31.495   6.764
 3210POPC   C3B42249  38.225  31.406   7.064
 3210POPC   C4B42250  38.232  31.472   7.364
 3211POPC   NC342251  12.876  37.692   5.564
 3211POPC   PO442252  12.847  37.679   5.864
 3211POPC   GL142253  12.839  37.703   6.164
 3211POPC   GL242254  12.931  37.651   6.164
 3211POPC   C1A42255  12.823  37.643   6.464
 3211POPC   D2A42256  12.898  37.671   6.764
 3211POPC   C3A42257  12.819  37.669   7.064
 3211POPC   C4A42258  12.820  37.676   7.364
 3211POPC   C1B42259  13.110  37.634   6.464
 3211POPC   C2B42260  13.075  37.647   6.764
 3211POPC   C3B42261  13.083  37.631   7.064
 3211POPC   C4B42262  13.130  37.630   7.364
 3212POPC   NC342263   9.718  27.562   5.564
 3212POPC   PO442264   9.776  27.581   5.864
 3212POPC   GL142265   9.775  27.623   6.164
 3212POPC   GL242266   9.680  27.464   6.164
 3212POPC   C1A42267   9.710  27.571   6.464
 3212POPC   D2A42268   9.742  27.632   6.764
 3212POPC   C3A42269   9.768  27.550   7.064
 3212POPC   C4A42270   9.737  27.595   7.364
 3212POPC   C1B42271   9.553  27.449   6.464
 3212POPC   C2B42272   9.569  27.375   6.764
 3212POPC   C3B42273   9.598  27.392   7.064
 3212POPC   C4B42274   9.550  27.370   7.364
 3213POPC   NC342275  41.519  22.142   5.564
 3213POPC   PO442276  41.555  22.194   5.864
 3213POPC   GL142277  41.559  22.180   6.164
 3213POPC   GL242278  41.404  22.232   6.164
 3213POPC   C1A42279  41.538  22.137   6.464
 3213POPC   D2A42280  41.537  22.200   6.764
 3213POPC   C3A42281  41.564  22.130   7.064
 3213POPC   C4A42282  41.536  22.135   7.364
 3213POPC   C1B42283  41.278  22.247   6.464
 3213POPC   C2B42284  41.295  22.195   6.764
 3213POPC   C3B42285  41.300  22.237   7.064
 3213POPC   C4B42286  41.282  22.249   7.364
 3214POPC   NC342287  27.612   1.966   5.564
 3214POPC   PO442288  27.592   2.014   5.864
 3214POPC   GL142289  27.584   2.024   6.164
 3214POPC   GL242290  27.512   2.105   6.164
 3214POPC   C1A42291  27.556   2.037   6.464
 3214POPC   D2A42292  27.613   1.998   6.764
 3214POPC   C3A42293  27.635   1.953   7.064
 3214POPC   C4A42294  27.561   1.945   7.364
 3214POPC   C1B42295  27.454   2.155   6.464
 3214POPC   C2B42296  27.456   2.134   6.764
 3214POPC   C3B42297  27.434   2.158   7.064
 3214POPC   C4B42298  27.365   2.170   7.364
 3215POPC   NC342299  14.432  43.845   5.564
 3215POPC   PO442300  14.360  43.867   5.864
 3215POPC   GL142301  14.374  43.903   6.164
 3215POPC   GL242302  14.556  43.913   6.164
 3215POPC   C1A42303  14.425  43.864   6.464
 3215POPC   D2A42304  14.451  43.875   6.764
 3215POPC   C3A42305  14.374  43.927   7.064
 3215POPC   C4A42306  14.453  43.852   7.364
 3215POPC   C1B42307  14.681  43.930   6.464
 3215POPC   C2B42308  14.612  43.931   6.764
 3215POPC   C3B42309  14.646  43.948   7.064
 3215POPC   C4B42310  14.659  43.914   7.364
 3216POPC   NC342311  32.249  28.411   5.564
 3216POPC   PO442312  32.247  28.319   5.864
 3216POPC   GL142313  32.262  28.416   6.164
 3216POPC   GL242314  32.305  28.325   6.164
 3216POPC   C1A42315  32.253  28.329   6.464
 3216POPC   D2A42316  32.283  28.346   6.764
 3216POPC   C3A42317  32.222  28.403   7.064
 3216POPC   C4A42318  32.273  28.333   7.364
 3216POPC   C1B42319  32.396  28.204   6.464
 3216POPC   C2B42320  32.410  28.234   6.764
 3216POPC   C3B42321  32.484  28.161   7.064
 3216POPC   C4B42322  32.427  28.202   7.364
 3217POPC   NC342323  10.555  44.637   5.564
 3217POPC   PO442324  10.538  44.650   5.864
 3217POPC   GL142325  10.477  44.700   6.164
 3217POPC   GL242326  10.640  44.631   6.164
 3217POPC   C1A42327  10.564  44.633   6.464
 3217POPC   D2A42328  10.498  44.704   6.764
 3217POPC   C3A42329  10.537  44.642   7.064
 3217POPC   C4A42330  10.528  44.683   7.364
 3217POPC   C1B42331  10.718  44.566   6.464
 3217POPC   C2B42332  10.743  44.584   6.764
 3217POPC   C3B42333  10.721  44.617   7.064
 3217POPC   C4B42334  10.799  44.553   7.364
 3218POPC   NC342335  36.899  26.022   5.564
 3218POPC   PO442336  36.922  26.018   5.864
 3218POPC   GL142337  36.942  26.036   6.164
 3218POPC   GL242338  36.786  25.986   6.164
 3218POPC   C1A42339  36.937  25.994   6.464
 3218POPC   D2A42340  36.930  26.020   6.764
 3218POPC   C3A42341  36.938  26.059   7.064
 3218POPC   C4A42342  36.887  26.075   7.364
 3218POPC   C1B42343  36.682  25.931   6.464
 3218POPC   C2B42344  36.625  25.939   6.764
 3218POPC   C3B42345  36.688  25.976   7.064
 3218POPC   C4B42346  36.686  25.944   7.364
 3219POPC   NC342347  33.041  33.003   5.564
 3219POPC   PO442348  33.048  33.029   5.864
 3219POPC   GL142349  33.023  32.984   6.164
 3219POPC   GL242350  33.181  32.927   6.164
 3219POPC   C1A42351  33.017  33.011   6.464
 3219POPC   D2A42352  33.038  33.034   6.764
 3219POPC   C3A42353  33.029  32.975   7.064
 3219POPC   C4A42354  32.999  32.989   7.364
 3219POPC   C1B42355  33.245  32.947   6.464
 3219POPC   C2B42356  33.220  32.908   6.764
 3219POPC   C3B42357  33.258  32.927   7.064
 3219POPC   C4B42358  33.232  32.923   7.364
 3220POPC   NC342359  14.392  25.273   5.564
 3220POPC   PO442360  14.360  25.293   5.864
 3220POPC   GL142361  14.404  25.285   6.164
 3220POPC   GL242362  14.354  25.161   6.164
 3220POPC   C1A42363  14.436  25.251   6.464
 3220POPC   D2A42364  14.395  25.245   6.764
 3220POPC   C3A42365  14.389  25.228   7.064
 3220POPC   C4A42366  14.414  25.259   7.364
 3220POPC   C1B42367  14.167  25.108   6.464
 3220POPC   C2B42368  14.246  25.066   6.764
 3220POPC   C3B42369  14.259  25.067   7.064
 3220POPC   C4B42370  14.259  25.066   7.364
 3221POPC   NC342371  13.604  36.857   5.564
 3221POPC   PO442372  13.578  36.895   5.864
 3221POPC   GL142373  13.627  36.893   6.164
 3221POPC   GL242374  13.510  36.919   6.164
 3221POPC   C1A42375  13.590  36.901   6.464
 3221POPC   D2A42376  13.651  36.944   6.764
 3221POPC   C3A42377  13.647  36.865   7.064
 3221POPC   C4A42378  13.631  36.891   7.364
 3221POPC   C1B42379  13.416  37.056   6.464
 3221POPC   C2B42380  13.448  36.991   6.764
 3221POPC   C3B42381  13.426  36.999   7.064
 3221POPC   C4B42382  13.404  36.970   7.364
 3222POPC   NC342383  17.495  21.433   5.564
 3222POPC   PO442384  17.538  21.362   5.864
 3222POPC   GL142385  17.463  21.378   6.164
 3222POPC   GL242386  17.378  21.338   6.164
 3222POPC   C1A42387  17.527  21.427   6.464
 3222POPC   D2A42388  17.520  21.421   6.764
 3222POPC   C3A42389  17.506  21.364   7.064
 3222POPC   C4A42390  17.475  21.372   7.364
 3222POPC   C1B42391  17.300  21.352   6.464
 3222POPC   C2B42392  17.244  21.334   6.764
 3222POPC   C3B42393  17.250  21.280   7.064
 3222POPC   C4B42394  17.262  21.320   7.364
 3223POPC   NC342395  19.048  26.793   5.564
 3223POPC   PO442396  19.017  26.793   5.864
 3223POPC   GL142397  19.018  26.835   6.164
 3223POPC   GL242398  19.206  26.855   6.164
 3223POPC   C1A42399  19.028  26.848   6.464
 3223POPC   D2A42400  19.045  26.867   6.764
 3223POPC   C3A42401  19.072  26.824   7.064
 3223POPC   C4A42402  19.063  26.769   7.364
 3223POPC   C1B42403  19.280  26.905   6.464
 3223POPC   C2B42404  19.293  26.856   6.764
 3223POPC   C3B42405  19.352  26.830   7.064
 3223POPC   C4B42406  19.346  26.852   7.364
 3224POPC   NC342407  25.249  26.075   5.564
 3224POPC   PO442408  25.234  26.011   5.864
 3224POPC   GL142409  25.275  26.040   6.164
 3224POPC   GL242410  25.161  26.126   6.164
 3224POPC   C1A42411  25.237  26.041   6.464
 3224POPC   D2A42412  25.309  26.077   6.764
 3224POPC   C3A42413  25.222  25.999   7.064
 3224POPC   C4A42414  25.300  26.020   7.364
 3224POPC   C1B42415  25.116  26.262   6.464
 3224POPC   C2B42416  25.141  26.273   6.764
 3224POPC   C3B42417  25.088  26.222   7.064
 3224POPC   C4B42418  25.118  26.214   7.364
 3225POPC   NC342419  14.390   1.229   5.564
 3225POPC   PO442420  14.356   1.237   5.864
 3225POPC   GL142421  14.377   1.259   6.164
 3225POPC   GL242422  14.442   1.123   6.164
 3225POPC   C1A42423  14.355   1.181   6.464
 3225POPC   D2A42424  14.448   1.264   6.764
 3225POPC   C3A42425  14.366   1.240   7.064
 3225POPC   C4A42426  14.423   1.179   7.364
 3225POPC   C1B42427  14.486   0.988   6.464
 3225POPC   C2B42428  14.547   0.951   6.764
 3225POPC   C3B42429  14.457   0.954   7.064
 3225POPC   C4B42430  14.519   0.972   7.364
 3226POPC   NC342431  16.702  18.302   5.564
 3226POPC   PO442432  16.710  18.302   5.864
 3226POPC   GL142433  16.689  18.258   6.164
 3226POPC   GL242434  16.576  18.264   6.164
 3226POPC   C1A42435  16.778  18.247   6.464
 3226POPC   D2A42436  16.728  18.310   6.764
 3226POPC   C3A42437  16.697  18.302   7.064
 3226POPC   C4A42438  16.754  18.278   7.364
 3226POPC   C1B42439  16.435  18.238   6.464
 3226POPC   C2B42440  16.478  18.283   6.764
 3226POPC   C3B42441  16.478  18.247   7.064
 3226POPC   C4B42442  16.518  18.313   7.364
 3227POPC   NC342443  18.327  21.390   5.564
 3227POPC   PO442444  18.295  21.403   5.864
 3227POPC   GL142445  18.330  21.357   6.164
 3227POPC   GL242446  18.428  21.483   6.164
 3227POPC   C1A42447  18.283  21.360   6.464
 3227POPC   D2A42448  18.329  21.406   6.764
 3227POPC   C3A42449  18.255  21.365   7.064
 3227POPC   C4A42450  18.295  21.428   7.364
 3227POPC   C1B42451  18.535  21.509   6.464
 3227POPC   C2B42452  18.548  21.524   6.764
 3227POPC   C3B42453  18.509  21.518   7.064
 3227POPC   C4B42454  18.534  21.523   7.364
 3228POPC   NC342455  12.116  38.490   5.564
 3228POPC   PO442456  12.123  38.436   5.864
 3228POPC   GL142457  12.077  38.499   6.164
 3228POPC   GL242458  12.232  38.470   6.164
 3228POPC   C1A42459  12.030  38.497   6.464
 3228POPC   D2A42460  12.079  38.432   6.764
 3228POPC   C3A42461  12.063  38.459   7.064
 3228POPC   C4A42462  12.049  38.435   7.364
 3228POPC   C1B42463  12.331  38.582   6.464
 3228POPC   C2B42464  12.321  38.534   6.764
 3228POPC   C3B42465  12.270  38.585   7.064
 3228POPC   C4B42466  12.350  38.594   7.364
 3229POPC   NC342467  44.685   0.415   5.564
 3229POPC   PO442468  44.657   0.443   5.864
 3229POPC   GL142469  44.660   0.430   6.164
 3229POPC   GL242470  44.614   0.511   6.164
 3229POPC   C1A42471  44.623   0.477   6.464
 3229POPC   D2A42472  44.638   0.460   6.764
 3229POPC   C3A42473  44.654   0.453   7.064
 3229POPC   C4A42474  44.620   0.473   7.364
 3229POPC   C1B42475  44.639   0.728   6.464
 3229POPC   C2B42476  44.551   0.631   6.764
 3229POPC   C3B42477  44.624   0.652   7.064
 3229POPC   C4B42478  44.581   0.679   7.364
 3230POPC   NC342479  17.509  38.494   5.564
 3230POPC   PO442480  17.522  38.457   5.864
 3230POPC   GL142481  17.526  38.487   6.164
 3230POPC   GL242482  17.509  38.377   6.164
 3230POPC   C1A42483  17.468  38.499   6.464
 3230POPC   D2A42484  17.543  38.433   6.764
 3230POPC   C3A42485  17.509  38.411   7.064
 3230POPC   C4A42486  17.501  38.426   7.364
 3230POPC   C1B42487  17.609  38.198   6.464
 3230POPC   C2B42488  17.624  38.186   6.764
 3230POPC   C3B42489  17.570  38.166   7.064
 3230POPC   C4B42490  17.535  38.210   7.364
 3231POPC   NC342491  32.296   1.978   5.564
 3231POPC   PO442492  32.272   1.964   5.864
 3231POPC   GL142493  32.207   2.002   6.164
 3231POPC   GL242494  32.114   2.060   6.164
 3231POPC   C1A42495  32.258   2.016   6.464
 3231POPC   D2A42496  32.246   1.957   6.764
 3231POPC   C3A42497  32.255   1.986   7.064
 3231POPC   C4A42498  32.225   1.950   7.364
 3231POPC   C1B42499  32.078   2.131   6.464
 3231POPC   C2B42500  32.011   2.107   6.764
 3231POPC   C3B42501  32.031   2.124   7.064
 3231POPC   C4B42502  32.034   2.086   7.364
 3232POPC   NC342503  32.262  22.160   5.564
 3232POPC   PO442504  32.278  22.204   5.864
 3232POPC   GL142505  32.281  22.143   6.164
 3232POPC   GL242506  32.379  22.094   6.164
 3232POPC   C1A42507  32.238  22.206   6.464
 3232POPC   D2A42508  32.241  22.144   6.764
 3232POPC   C3A42509  32.225  22.175   7.064
 3232POPC   C4A42510  32.239  22.171   7.364
 3232POPC   C1B42511  32.519  22.087   6.464
 3232POPC   C2B42512  32.488  22.128   6.764
 3232POPC   C3B42513  32.491  22.149   7.064
 3232POPC   C4B42514  32.494  22.061   7.364
 3233POPC   NC342515  39.959  37.674   5.564
 3233POPC   PO442516  40.014  37.700   5.864
 3233POPC   GL142517  39.965  37.701   6.164
 3233POPC   GL242518  39.996  37.763   6.164
 3233POPC   C1A42519  39.999  37.697   6.464
 3233POPC   D2A42520  39.999  37.657   6.764
 3233POPC   C3A42521  40.025  37.693   7.064
 3233POPC   C4A42522  39.962  37.637   7.364
 3233POPC   C1B42523  39.958  37.912   6.464
 3233POPC   C2B42524  39.985  37.947   6.764
 3233POPC   C3B42525  39.962  37.877   7.064
 3233POPC   C4B42526  39.994  37.913   7.364
 3234POPC   NC342527   8.171   2.773   5.564
 3234POPC   PO442528   8.191   2.803   5.864
 3234POPC   GL142529   8.173   2.763   6.164
 3234POPC   GL242530   8.345   2.760   6.164
 3234POPC   C1A42531   8.198   2.788   6.464
 3234POPC   D2A42532   8.210   2.728   6.764
 3234POPC   C3A42533   8.240   2.725   7.064
 3234POPC   C4A42534   8.236   2.800   7.364
 3234POPC   C1B42535   8.396   2.774   6.464
 3234POPC   C2B42536   8.397   2.795   6.764
 3234POPC   C3B42537   8.407   2.762   7.064
 3234POPC   C4B42538   8.428   2.763   7.364
 3235POPC   NC342539  16.725  29.114   5.564
 3235POPC   PO442540  16.702  29.110   5.864
 3235POPC   GL142541  16.703  29.187   6.164
 3235POPC   GL242542  16.765  29.034   6.164
 3235POPC   C1A42543  16.767  29.189   6.464
 3235POPC   D2A42544  16.760  29.183   6.764
 3235POPC   C3A42545  16.776  29.147   7.064
 3235POPC   C4A42546  16.687  29.178   7.364
 3235POPC   C1B42547  16.821  28.875   6.464
 3235POPC   C2B42548  16.793  28.874   6.764
 3235POPC   C3B42549  16.784  28.912   7.064
 3235POPC   C4B42550  16.788  28.916   7.364
 3236POPC   NC342551  26.078  14.424   5.564
 3236POPC   PO442552  26.052  14.393   5.864
 3236POPC   GL142553  26.035  14.417   6.164
 3236POPC   GL242554  25.876  14.397   6.164
 3236POPC   C1A42555  26.080  14.375   6.464
 3236POPC   D2A42556  26.068  14.418   6.764
 3236POPC   C3A42557  26.057  14.382   7.064
 3236POPC   C4A42558  26.004  14.375   7.364
 3236POPC   C1B42559  25.792  14.404   6.464
 3236POPC   C2B42560  25.831  14.392   6.764
 3236POPC   C3B42561  25.772  14.429   7.064
 3236POPC   C4B42562  25.811  14.416   7.364
 3237POPC   NC342563  19.808  13.605   5.564
 3237POPC   PO442564  19.799  13.625   5.864
 3237POPC   GL142565  19.813  13.588   6.164
 3237POPC   GL242566  19.835  13.767   6.164
 3237POPC   C1A42567  19.839  13.670   6.464
 3237POPC   D2A42568  19.849  13.655   6.764
 3237POPC   C3A42569  19.830  13.666   7.064
 3237POPC   C4A42570  19.785  13.617   7.364
 3237POPC   C1B42571  19.765  13.824   6.464
 3237POPC   C2B42572  19.761  13.841   6.764
 3237POPC   C3B42573  19.712  13.875   7.064
 3237POPC   C4B42574  19.770  13.857   7.364
 3238POPC   NC342575   5.070  10.571   5.564
 3238POPC   PO442576   5.083  10.534   5.864
 3238POPC   GL142577   5.132  10.547   6.164
 3238POPC   GL242578   4.975  10.471   6.164
 3238POPC   C1A42579   5.075  10.543   6.464
 3238POPC   D2A42580   5.141  10.475   6.764
 3238POPC   C3A42581   5.061  10.484   7.064
 3238POPC   C4A42582   5.078  10.508   7.364
 3238POPC   C1B42583   4.893  10.425   6.464
 3238POPC   C2B42584   4.836  10.375   6.764
 3238POPC   C3B42585   4.911  10.383   7.064
 3238POPC   C4B42586   4.848  10.417   7.364
 3239POPC   NC342587  26.838  30.698   5.564
 3239POPC   PO442588  26.851  30.676   5.864
 3239POPC   GL142589  26.842  30.685   6.164
 3239POPC   GL242590  26.896  30.547   6.164
 3239POPC   C1A42591  26.867  30.731   6.464
 3239POPC   D2A42592  26.839  30.669   6.764
 3239POPC   C3A42593  26.828  30.664   7.064
 3239POPC   C4A42594  26.861  30.737   7.364
 3239POPC   C1B42595  26.887  30.470   6.464
 3239POPC   C2B42596  26.831  30.496   6.764
 3239POPC   C3B42597  26.849  30.408   7.064
 3239POPC   C4B42598  26.850  30.474   7.364
 3240POPC   NC342599  37.665  35.393   5.564
 3240POPC   PO442600  37.657  35.333   5.864
 3240POPC   GL142601  37.630  35.337   6.164
 3240POPC   GL242602  37.809  35.282   6.164
 3240POPC   C1A42603  37.685  35.334   6.464
 3240POPC   D2A42604  37.703  35.336   6.764
 3240POPC   C3A42605  37.715  35.363   7.064
 3240POPC   C4A42606  37.683  35.336   7.364
 3240POPC   C1B42607  37.813  35.181   6.464
 3240POPC   C2B42608  37.880  35.204   6.764
 3240POPC   C3B42609  37.797  35.114   7.064
 3240POPC   C4B42610  37.819  35.169   7.364
 3241POPC   NC342611  21.419  33.046   5.564
 3241POPC   PO442612  21.393  33.020   5.864
 3241POPC   GL142613  21.359  33.017   6.164
 3241POPC   GL242614  21.257  32.994   6.164
 3241POPC   C1A42615  21.378  33.029   6.464
 3241POPC   D2A42616  21.353  33.062   6.764
 3241POPC   C3A42617  21.337  33.037   7.064
 3241POPC   C4A42618  21.384  32.999   7.364
 3241POPC   C1B42619  21.181  32.923   6.464
 3241POPC   C2B42620  21.154  32.942   6.764
 3241POPC   C3B42621  21.207  32.849   7.064
 3241POPC   C4B42622  21.121  32.847   7.364
 3242POPC   NC342623  28.339  43.144   5.564
 3242POPC   PO442624  28.350  43.077   5.864
 3242POPC   GL142625  28.402  43.126   6.164
 3242POPC   GL242626  28.347  42.984   6.164
 3242POPC   C1A42627  28.382  43.116   6.464
 3242POPC   D2A42628  28.379  43.119   6.764
 3242POPC   C3A42629  28.418  43.143   7.064
 3242POPC   C4A42630  28.341  43.140   7.364
 3242POPC   C1B42631  28.366  42.870   6.464
 3242POPC   C2B42632  28.447  42.823   6.764
 3242POPC   C3B42633  28.385  42.886   7.064
 3242POPC   C4B42634  28.442  42.827   7.364
 3243POPC   NC342635   5.828  18.251   5.564
 3243POPC   PO442636   5.898  18.275   5.864
 3243POPC   GL142637   5.843  18.244   6.164
 3243POPC   GL242638   5.948  18.190   6.164
 3243POPC   C1A42639   5.887  18.240   6.464
 3243POPC   D2A42640   5.825  18.283   6.764
 3243POPC   C3A42641   5.868  18.278   7.064
 3243POPC   C4A42642   5.880  18.328   7.364
 3243POPC   C1B42643   6.039  18.025   6.464
 3243POPC   C2B42644   6.005  18.069   6.764
 3243POPC   C3B42645   5.990  18.068   7.064
 3243POPC   C4B42646   6.035  18.088   7.364
 3244POPC   NC342647  44.620   4.354   5.564
 3244POPC   PO442648  44.664   4.282   5.864
 3244POPC   GL142649  44.644   4.307   6.164
 3244POPC   GL242650  44.787   4.373   6.164
 3244POPC   C1A42651  44.657   4.289   6.464
 3244POPC   D2A42652  44.691   4.307   6.764
 3244POPC   C3A42653  44.630   4.346   7.064
 3244POPC   C4A42654  44.666   4.290   7.364
 3244POPC   C1B42655  44.814   4.470   6.464
 3244POPC   C2B42656  44.813   4.470   6.764
 3244POPC   C3B42657  44.863   4.493   7.064
 3244POPC   C4B42658  44.881   4.461   7.364
 3245POPC   NC342659   7.427  21.432   5.564
 3245POPC   PO442660   7.402  21.386   5.864
 3245POPC   GL142661   7.431  21.395   6.164
 3245POPC   GL242662   7.554  21.322   6.164
 3245POPC   C1A42663   7.435  21.396   6.464
 3245POPC   D2A42664   7.456  21.339   6.764
 3245POPC   C3A42665   7.379  21.426   7.064
 3245POPC   C4A42666   7.416  21.428   7.364
 3245POPC   C1B42667   7.672  21.334   6.464
 3245POPC   C2B42668   7.650  21.325   6.764
 3245POPC   C3B42669   7.637  21.315   7.064
 3245POPC   C4B42670   7.684  21.364   7.364
 3246POPC   NC342671  26.851  10.530   5.564
 3246POPC   PO442672  26.842  10.564   5.864
 3246POPC   GL142673  26.853  10.542   6.164
 3246POPC   GL242674  26.857  10.624   6.164
 3246POPC   C1A42675  26.818  10.491   6.464
 3246POPC   D2A42676  26.844  10.549   6.764
 3246POPC   C3A42677  26.801  10.514   7.064
 3246POPC   C4A42678  26.851  10.485   7.364
 3246POPC   C1B42679  26.927  10.771   6.464
 3246POPC   C2B42680  26.963  10.698   6.764
 3246POPC   C3B42681  26.945  10.730   7.064
 3246POPC   C4B42682  26.969  10.757   7.364
 3247POPC   NC342683  16.758   5.122   5.564
 3247POPC   PO442684  16.690   5.085   5.864
 3247POPC   GL142685  16.705   5.059   6.164
 3247POPC   GL242686  16.865   5.143   6.164
 3247POPC   C1A42687  16.728   5.129   6.464
 3247POPC   D2A42688  16.695   5.113   6.764
 3247POPC   C3A42689  16.712   5.141   7.064
 3247POPC   C4A42690  16.760   5.097   7.364
 3247POPC   C1B42691  16.957   5.224   6.464
 3247POPC   C2B42692  16.944   5.231   6.764
 3247POPC   C3B42693  16.970   5.195   7.064
 3247POPC   C4B42694  16.973   5.237   7.364
 3248POPC   NC342695   6.599   6.624   5.564
 3248POPC   PO442696   6.693   6.660   5.864
 3248POPC   GL142697   6.644   6.603   6.164
 3248POPC   GL242698   6.686   6.538   6.164
 3248POPC   C1A42699   6.632   6.606   6.464
 3248POPC   D2A42700   6.608   6.617   6.764
 3248POPC   C3A42701   6.690   6.614   7.064
 3248POPC   C4A42702   6.675   6.596   7.364
 3248POPC   C1B42703   6.673   6.421   6.464
 3248POPC   C2B42704   6.643   6.421   6.764
 3248POPC   C3B42705   6.619   6.424   7.064
 3248POPC   C4B42706   6.666   6.391   7.364
 3249POPC   NC342707   3.547   2.031   5.564
 3249POPC   PO442708   3.518   2.009   5.864
 3249POPC   GL142709   3.589   1.980   6.164
 3249POPC   GL242710   3.617   1.869   6.164
 3249POPC   C1A42711   3.498   1.950   6.464
 3249POPC   D2A42712   3.589   2.011   6.764
 3249POPC   C3A42713   3.566   2.021   7.064
 3249POPC   C4A42714   3.566   1.981   7.364
 3249POPC   C1B42715   3.659   1.710   6.464
 3249POPC   C2B42716   3.679   1.745   6.764
 3249POPC   C3B42717   3.625   1.801   7.064
 3249POPC   C4B42718   3.654   1.762   7.364
 3250POPC   NC342719  32.975  29.955   5.564
 3250POPC   PO442720  32.980  29.960   5.864
 3250POPC   GL142721  32.981  29.912   6.164
 3250POPC   GL242722  32.975  30.002   6.164
 3250POPC   C1A42723  33.016  29.956   6.464
 3250POPC   D2A42724  33.012  29.954   6.764
 3250POPC   C3A42725  33.006  29.935   7.064
 3250POPC   C4A42726  33.037  29.930   7.364
 3250POPC   C1B42727  32.849  30.049   6.464
 3250POPC   C2B42728  32.831  30.085   6.764
 3250POPC   C3B42729  32.816  30.056   7.064
 3250POPC   C4B42730  32.858  30.119   7.364
 3251POPC   NC342731  14.388   8.244   5.564
 3251POPC   PO442732  14.385   8.187   5.864
 3251POPC   GL142733  14.417   8.222   6.164
 3251POPC   GL242734  14.346   8.054   6.164
 3251POPC   C1A42735  14.406   8.205   6.464
 3251POPC   D2A42736  14.395   8.158   6.764
 3251POPC   C3A42737  14.383   8.229   7.064
 3251POPC   C4A42738  14.449   8.205   7.364
 3251POPC   C1B42739  14.387   7.968   6.464
 3251POPC   C2B42740  14.340   7.986   6.764
 3251POPC   C3B42741  14.375   7.979   7.064
 3251POPC   C4B42742  14.379   7.906   7.364
 3252POPC   NC342743  15.999  36.951   5.564
 3252POPC   PO442744  15.918  36.931   5.864
 3252POPC   GL142745  15.964  36.860   6.164
 3252POPC   GL242746  15.856  36.914   6.164
 3252POPC   C1A42747  15.963  36.942   6.464
 3252POPC   D2A42748  15.960  36.878   6.764
 3252POPC   C3A42749  15.990  36.928   7.064
 3252POPC   C4A42750  15.920  36.907   7.364
 3252POPC   C1B42751  15.669  36.918   6.464
 3252POPC   C2B42752  15.731  36.999   6.764
 3252POPC   C3B42753  15.741  36.933   7.064
 3252POPC   C4B42754  15.758  36.934   7.364
 3253POPC   NC342755  40.011  40.826   5.564
 3253POPC   PO442756  40.041  40.765   5.864
 3253POPC   GL142757  40.021  40.765   6.164
 3253POPC   GL242758  39.913  40.657   6.164
 3253POPC   C1A42759  39.986  40.779   6.464
 3253POPC   D2A42760  39.960  40.794   6.764
 3253POPC   C3A42761  39.986  40.771   7.064
 3253POPC   C4A42762  40.017  40.763   7.364
 3253POPC   C1B42763  39.841  40.548   6.464
 3253POPC   C2B42764  39.811  40.571   6.764
 3253POPC   C3B42765  39.836  40.617   7.064
 3253POPC   C4B42766  39.818  40.624   7.364
 3254POPC   NC342767  29.132   7.465   5.564
 3254POPC   PO442768  29.125   7.401   5.864
 3254POPC   GL142769  29.185   7.418   6.164
 3254POPC   GL242770  29.054   7.451   6.164
 3254POPC   C1A42771  29.103   7.386   6.464
 3254POPC   D2A42772  29.130   7.451   6.764
 3254POPC   C3A42773  29.138   7.404   7.064
 3254POPC   C4A42774  29.187   7.397   7.364
 3254POPC   C1B42775  28.853   7.455   6.464
 3254POPC   C2B42776  28.895   7.399   6.764
 3254POPC   C3B42777  28.847   7.379   7.064
 3254POPC   C4B42778  28.887   7.451   7.364
 3255POPC   NC342779  17.501  27.591   5.564
 3255POPC   PO442780  17.550  27.610   5.864
 3255POPC   GL142781  17.460  27.642   6.164
 3255POPC   GL242782  17.659  27.656   6.164
 3255POPC   C1A42783  17.493  27.618   6.464
 3255POPC   D2A42784  17.539  27.636   6.764
 3255POPC   C3A42785  17.540  27.593   7.064
 3255POPC   C4A42786  17.507  27.639   7.364
 3255POPC   C1B42787  17.783  27.723   6.464
 3255POPC   C2B42788  17.691  27.720   6.764
 3255POPC   C3B42789  17.731  27.670   7.064
 3255POPC   C4B42790  17.776  27.663   7.364
 3256POPC   NC342791  40.735  40.802   5.564
 3256POPC   PO442792  40.762  40.783   5.864
 3256POPC   GL142793  40.742  40.829   6.164
 3256POPC   GL242794  40.877  40.696   6.164
 3256POPC   C1A42795  40.789  40.830   6.464
 3256POPC   D2A42796  40.778  40.781   6.764
 3256POPC   C3A42797  40.795  40.827   7.064
 3256POPC   C4A42798  40.832  40.746   7.364
 3256POPC   C1B42799  40.981  40.733   6.464
 3256POPC   C2B42800  40.975  40.735   6.764
 3256POPC   C3B42801  41.026  40.709   7.064
 3256POPC   C4B42802  40.991  40.705   7.364
 3257POPC   NC342803   8.960  36.929   5.564
 3257POPC   PO442804   8.998  36.921   5.864
 3257POPC   GL142805   8.959  36.939   6.164
 3257POPC   GL242806   9.080  36.993   6.164
 3257POPC   C1A42807   8.967  36.941   6.464
 3257POPC   D2A42808   8.969  36.949   6.764
 3257POPC   C3A42809   9.009  36.891   7.064
 3257POPC   C4A42810   8.930  36.952   7.364
 3257POPC   C1B42811   9.207  37.056   6.464
 3257POPC   C2B42812   9.138  37.066   6.764
 3257POPC   C3B42813   9.203  37.058   7.064
 3257POPC   C4B42814   9.149  37.084   7.364
 3258POPC   NC342815  21.413  39.235   5.564
 3258POPC   PO442816  21.394  39.275   5.864
 3258POPC   GL142817  21.383  39.206   6.164
 3258POPC   GL242818  21.490  39.307   6.164
 3258POPC   C1A42819  21.341  39.237   6.464
 3258POPC   D2A42820  21.349  39.218   6.764
 3258POPC   C3A42821  21.421  39.252   7.064
 3258POPC   C4A42822  21.405  39.183   7.364
 3258POPC   C1B42823  21.579  39.383   6.464
 3258POPC   C2B42824  21.578  39.344   6.764
 3258POPC   C3B42825  21.617  39.340   7.064
 3258POPC   C4B42826  21.541  39.410   7.364
 3259POPC   NC342827  17.457  11.322   5.564
 3259POPC   PO442828  17.483  11.314   5.864
 3259POPC   GL142829  17.510  11.307   6.164
 3259POPC   GL242830  17.538  11.180   6.164
 3259POPC   C1A42831  17.550  11.334   6.464
 3259POPC   D2A42832  17.489  11.277   6.764
 3259POPC   C3A42833  17.501  11.256   7.064
 3259POPC   C4A42834  17.529  11.313   7.364
 3259POPC   C1B42835  17.539  11.035   6.464
 3259POPC   C2B42836  17.532  11.037   6.764
 3259POPC   C3B42837  17.514  11.058   7.064
 3259POPC   C4B42838  17.504  11.011   7.364
 3260POPC   NC342839   8.209  38.444   5.564
 3260POPC   PO442840   8.175  38.499   5.864
 3260POPC   GL142841   8.148  38.487   6.164
 3260POPC   GL242842   8.093  38.491   6.164
 3260POPC   C1A42843   8.202  38.488   6.464
 3260POPC   D2A42844   8.198  38.493   6.764
 3260POPC   C3A42845   8.183  38.435   7.064
 3260POPC   C4A42846   8.184  38.458   7.364
 3260POPC   C1B42847   7.992  38.612   6.464
 3260POPC   C2B42848   8.018  38.607   6.764
 3260POPC   C3B42849   7.947  38.580   7.064
 3260POPC   C4B42850   8.017  38.588   7.364
 3261POPC   NC342851  17.527  41.510   5.564
 3261POPC   PO442852  17.467  41.553   5.864
 3261POPC   GL142853  17.521  41.600   6.164
 3261POPC   GL242854  17.541  41.630   6.164
 3261POPC   C1A42855  17.548  41.570   6.464
 3261POPC   D2A42856  17.546  41.595   6.764
 3261POPC   C3A42857  17.502  41.542   7.064
 3261POPC   C4A42858  17.466  41.549   7.364
 3261POPC   C1B42859  17.644  41.727   6.464
 3261POPC   C2B42860  17.640  41.808   6.764
 3261POPC   C3B42861  17.689  41.780   7.064
 3261POPC   C4B42862  17.620  41.764   7.364
 3262POPC   NC342863   6.624  20.625   5.564
 3262POPC   PO442864   6.652  20.568   5.864
 3262POPC   GL142865   6.673  20.618   6.164
 3262POPC   GL242866   6.550  20.714   6.164
 3262POPC   C1A42867   6.647  20.573   6.464
 3262POPC   D2A42868   6.640  20.634   6.764
 3262POPC   C3A42869   6.608  20.613   7.064
 3262POPC   C4A42870   6.642  20.592   7.364
 3262POPC   C1B42871   6.504  20.864   6.464
 3262POPC   C2B42872   6.534  20.845   6.764
 3262POPC   C3B42873   6.526  20.807   7.064
 3262POPC   C4B42874   6.540  20.833   7.364
 3263POPC   NC342875   1.179   9.785   5.564
 3263POPC   PO442876   1.213   9.719   5.864
 3263POPC   GL142877   1.170   9.706   6.164
 3263POPC   GL242878   1.073   9.797   6.164
 3263POPC   C1A42879   1.183   9.722   6.464
 3263POPC   D2A42880   1.164   9.702   6.764
 3263POPC   C3A42881   1.216   9.701   7.064
 3263POPC   C4A42882   1.180   9.788   7.364
 3263POPC   C1B42883   1.024   9.806   6.464
 3263POPC   C2B42884   0.975   9.843   6.764
 3263POPC   C3B42885   0.968   9.842   7.064
 3263POPC   C4B42886   0.961   9.842   7.364
 3264POPC   NC342887  33.776  33.760   5.564
 3264POPC   PO442888  33.842  33.840   5.864
 3264POPC   GL142889  33.772  33.782   6.164
 3264POPC   GL242890  33.805  33.876   6.164
 3264POPC   C1A42891  33.774  33.798   6.464
 3264POPC   D2A42892  33.832  33.837   6.764
 3264POPC   C3A42893  33.836  33.824   7.064
 3264POPC   C4A42894  33.807  33.761   7.364
 3264POPC   C1B42895  33.871  34.050   6.464
 3264POPC   C2B42896  33.857  34.053   6.764
 3264POPC   C3B42897  33.928  34.082   7.064
 3264POPC   C4B42898  33.897  34.019   7.364
 3265POPC   NC342899   2.763  19.827   5.564
 3265POPC   PO442900   2.780  19.853   5.864
 3265POPC   GL142901   2.732  19.793   6.164
 3265POPC   GL242902   2.844  19.885   6.164
 3265POPC   C1A42903   2.771  19.842   6.464
 3265POPC   D2A42904   2.808  19.872   6.764
 3265POPC   C3A42905   2.790  19.819   7.064
 3265POPC   C4A42906   2.739  19.798   7.364
 3265POPC   C1B42907   2.948  20.086   6.464
 3265POPC   C2B42908   2.865  20.052   6.764
 3265POPC   C3B42909   2.932  20.012   7.064
 3265POPC   C4B42910   2.953  20.027   7.364
 3266POPC   NC342911   0.479  28.405   5.564
 3266POPC   PO442912   0.409  28.405   5.864
 3266POPC   GL142913   0.459  28.384   6.164
 3266POPC   GL242914   0.353  28.318   6.164
 3266POPC   C1A42915   0.455  28.347   6.464
 3266POPC   D2A42916   0.449  28.348   6.764
 3266POPC   C3A42917   0.465  28.327   7.064
 3266POPC   C4A42918   0.415  28.377   7.364
 3266POPC   C1B42919   0.238  28.194   6.464
 3266POPC   C2B42920   0.224  28.239   6.764
 3266POPC   C3B42921   0.265  28.199   7.064
 3266POPC   C4B42922   0.268  28.254   7.364
 3267POPC   NC342923  31.478  40.052   5.564
 3267POPC   PO442924  31.423  40.030   5.864
 3267POPC   GL142925  31.441  40.011   6.164
 3267POPC   GL242926  31.509  39.885   6.164
 3267POPC   C1A42927  31.483  39.977   6.464
 3267POPC   D2A42928  31.503  40.042   6.764
 3267POPC   C3A42929  31.500  39.992   7.064
 3267POPC   C4A42930  31.513  40.049   7.364
 3267POPC   C1B42931  31.515  39.803   6.464
 3267POPC   C2B42932  31.578  39.770   6.764
 3267POPC   C3B42933  31.602  39.800   7.064
 3267POPC   C4B42934  31.574  39.805   7.364
 3268POPC   NC342935   8.220  22.905   5.564
 3268POPC   PO442936   8.221  22.938   5.864
 3268POPC   GL142937   8.195  22.930   6.164
 3268POPC   GL242938   8.093  22.978   6.164
 3268POPC   C1A42939   8.159  22.901   6.464
 3268POPC   D2A42940   8.180  22.907   6.764
 3268POPC   C3A42941   8.233  22.956   7.064
 3268POPC   C4A42942   8.158  22.921   7.364
 3268POPC   C1B42943   8.026  23.095   6.464
 3268POPC   C2B42944   7.972  23.117   6.764
 3268POPC   C3B42945   7.998  23.114   7.064
 3268POPC   C4B42946   7.990  23.093   7.364
 3269POPC   NC342947   5.096   8.212   5.564
 3269POPC   PO442948   5.136   8.157   5.864
 3269POPC   GL142949   5.089   8.178   6.164
 3269POPC   GL242950   5.012   8.219   6.164
 3269POPC   C1A42951   5.047   8.201   6.464
 3269POPC   D2A42952   5.122   8.195   6.764
 3269POPC   C3A42953   5.096   8.220   7.064
 3269POPC   C4A42954   5.131   8.176   7.364
 3269POPC   C1B42955   4.819   8.249   6.464
 3269POPC   C2B42956   4.858   8.206   6.764
 3269POPC   C3B42957   4.808   8.179   7.064
 3269POPC   C4B42958   4.842   8.187   7.364
 3270POPC   NC342959   3.577  29.187   5.564
 3270POPC   PO442960   3.529  29.149   5.864
 3270POPC   GL142961   3.499  29.192   6.164
 3270POPC   GL242962   3.634  29.087   6.164
 3270POPC   C1A42963   3.508  29.117   6.464
 3270POPC   D2A42964   3.537  29.149   6.764
 3270POPC   C3A42965   3.562  29.123   7.064
 3270POPC   C4A42966   3.552  29.181   7.364
 3270POPC   C1B42967   3.757  29.144   6.464
 3270POPC   C2B42968   3.812  29.076   6.764
 3270POPC   C3B42969   3.809  29.085   7.064
 3270POPC   C4B42970   3.752  29.105   7.364
 3271POPC   NC342971   4.357  15.195   5.564
 3271POPC   PO442972   4.341  15.150   5.864
 3271POPC   GL142973   4.298  15.167   6.164
 3271POPC   GL242974   4.363  15.248   6.164
 3271POPC   C1A42975   4.316  15.225   6.464
 3271POPC   D2A42976   4.336  15.213   6.764
 3271POPC   C3A42977   4.270  15.197   7.064
 3271POPC   C4A42978   4.361  15.158   7.364
 3271POPC   C1B42979   4.409  15.433   6.464
 3271POPC   C2B42980   4.379  15.355   6.764
 3271POPC   C3B42981   4.379  15.409   7.064
 3271POPC   C4B42982   4.458  15.418   7.364
 3272POPC   NC342983  31.488  38.499   5.564
 3272POPC   PO442984  31.422  38.418   5.864
 3272POPC   GL142985  31.472  38.459   6.164
 3272POPC   GL242986  31.435  38.595   6.164
 3272POPC   C1A42987  31.426  38.433   6.464
 3272POPC   D2A42988  31.481  38.430   6.764
 3272POPC   C3A42989  31.515  38.449   7.064
 3272POPC   C4A42990  31.513  38.471   7.364
 3272POPC   C1B42991  31.335  38.645   6.464
 3272POPC   C2B42992  31.359  38.657   6.764
 3272POPC   C3B42993  31.359  38.701   7.064
 3272POPC   C4B42994  31.360  38.669   7.364
 3273POPC   NC342995   2.729   8.222   5.564
 3273POPC   PO442996   2.732   8.168   5.864
 3273POPC   GL142997   2.738   8.191   6.164
 3273POPC   GL242998   2.657   8.124   6.164
 3273POPC   C1A42999   2.807   8.238   6.464
 3273POPC   D2A43000   2.770   8.240   6.764
 3273POPC   C3A43001   2.722   8.216   7.064
 3273POPC   C4A43002   2.749   8.184   7.364
 3273POPC   C1B43003   2.587   7.984   6.464
 3273POPC   C2B43004   2.560   7.990   6.764
 3273POPC   C3B43005   2.545   7.977   7.064
 3273POPC   C4B43006   2.620   8.004   7.364
 3274POPC   NC343007  16.695  19.842   5.564
 3274POPC   PO443008  16.779  19.812   5.864
 3274POPC   GL143009  16.707  19.829   6.164
 3274POPC   GL243010  16.608  19.905   6.164
 3274POPC   C1A43011  16.747  19.848   6.464
 3274POPC   D2A43012  16.718  19.791   6.764
 3274POPC   C3A43013  16.765  19.874   7.064
 3274POPC   C4A43014  16.721  19.878   7.364
 3274POPC   C1B43015  16.515  19.968   6.464
 3274POPC   C2B43016  16.573  19.954   6.764
 3274POPC   C3B43017  16.520  20.007   7.064
 3274POPC   C4B43018  16.497  20.024   7.364
 3275POPC   NC343019  28.381  44.666   5.564
 3275POPC   PO443020  28.368  44.707   5.864
 3275POPC   GL143021  28.392  44.692   6.164
 3275POPC   GL243022  28.274  44.567   6.164
 3275POPC   C1A43023  28.343  44.674   6.464
 3275POPC   D2A43024  28.363  44.636   6.764
 3275POPC   C3A43025  28.324  44.700   7.064
 3275POPC   C4A43026  28.339  44.687   7.364
 3275POPC   C1B43027  28.217  44.477   6.464
 3275POPC   C2B43028  28.252  44.456   6.764
 3275POPC   C3B43029  28.245  44.435   7.064
 3275POPC   C4B43030  28.226  44.453   7.364
 3276POPC   NC343031  13.658   9.760   5.564
 3276POPC   PO443032  13.600   9.752   5.864
 3276POPC   GL143033  13.579   9.713   6.164
 3276POPC   GL243034  13.738   9.760   6.164
 3276POPC   C1A43035  13.593   9.775   6.464
 3276POPC   D2A43036  13.636   9.741   6.764
 3276POPC   C3A43037  13.677   9.753   7.064
 3276POPC   C4A43038  13.639   9.741   7.364
 3276POPC   C1B43039  13.852   9.831   6.464
 3276POPC   C2B43040  13.864   9.743   6.764
 3276POPC   C3B43041  13.897   9.830   7.064
 3276POPC   C4B43042  13.897   9.770   7.364
 3277POPC   NC343043   5.065  37.691   5.564
 3277POPC   PO443044   5.076  37.670   5.864
 3277POPC   GL143045   5.113  37.705   6.164
 3277POPC   GL243046   5.016  37.717   6.164
 3277POPC   C1A43047   5.093  37.642   6.464
 3277POPC   D2A43048   5.076  37.699   6.764
 3277POPC   C3A43049   5.079  37.696   7.064
 3277POPC   C4A43050   5.099  37.653   7.364
 3277POPC   C1B43051   4.876  37.741   6.464
 3277POPC   C2B43052   4.829  37.807   6.764
 3277POPC   C3B43053   4.895  37.826   7.064
 3277POPC   C4B43054   4.912  37.789   7.364
 3278POPC   NC343055  31.436  39.199   5.564
 3278POPC   PO443056  31.520  39.204   5.864
 3278POPC   GL143057  31.502  39.275   6.164
 3278POPC   GL243058  31.600  39.266   6.164
 3278POPC   C1A43059  31.471  39.231   6.464
 3278POPC   D2A43060  31.521  39.256   6.764
 3278POPC   C3A43061  31.447  39.236   7.064
 3278POPC   C4A43062  31.457  39.273   7.364
 3278POPC   C1B43063  31.679  39.293   6.464
 3278POPC   C2B43064  31.663  39.328   6.764
 3278POPC   C3B43065  31.733  39.351   7.064
 3278POPC   C4B43066  31.741  39.346   7.364
 3279POPC   NC343067  21.393  15.185   5.564
 3279POPC   PO443068  21.348  15.151   5.864
 3279POPC   GL143069  21.426  15.150   6.164
 3279POPC   GL243070  21.477  15.259   6.164
 3279POPC   C1A43071  21.361  15.214   6.464
 3279POPC   D2A43072  21.404  15.200   6.764
 3279POPC   C3A43073  21.431  15.192   7.064
 3279POPC   C4A43074  21.372  15.207   7.364
 3279POPC   C1B43075  21.580  15.336   6.464
 3279POPC   C2B43076  21.587  15.355   6.764
 3279POPC   C3B43077  21.597  15.309   7.064
 3279POPC   C4B43078  21.632  15.256   7.364
 3280POPC   NC343079  15.930  41.534   5.564
 3280POPC   PO443080  16.002  41.573   5.864
 3280POPC   GL143081  15.976  41.590   6.164
 3280POPC   GL243082  15.929  41.398   6.164
 3280POPC   C1A43083  15.914  41.561   6.464
 3280POPC   D2A43084  15.973  41.575   6.764
 3280POPC   C3A43085  15.971  41.606   7.064
 3280POPC   C4A43086  15.951  41.549   7.364
 3280POPC   C1B43087  15.937  41.321   6.464
 3280POPC   C2B43088  15.874  41.322   6.764
 3280POPC   C3B43089  15.915  41.282   7.064
 3280POPC   C4B43090  15.936  41.322   7.364
 3281POPC   NC343091   1.214  23.751   5.564
 3281POPC   PO443092   1.170  23.743   5.864
 3281POPC   GL143093   1.164  23.736   6.164
 3281POPC   GL243094   1.177  23.788   6.164
 3281POPC   C1A43095   1.182  23.712   6.464
 3281POPC   D2A43096   1.172  23.670   6.764
 3281POPC   C3A43097   1.228  23.749   7.064
 3281POPC   C4A43098   1.207  23.696   7.364
 3281POPC   C1B43099   1.108  23.972   6.464
 3281POPC   C2B43100   1.145  23.962   6.764
 3281POPC   C3B43101   1.146  23.978   7.064
 3281POPC   C4B43102   1.119  23.901   7.364
 3282POPC   NC343103  29.122  19.845   5.564
 3282POPC   PO443104  29.107  19.821   5.864
 3282POPC   GL143105  29.167  19.826   6.164
 3282POPC   GL243106  29.031  19.863   6.164
 3282POPC   C1A43107  29.191  19.837   6.464
 3282POPC   D2A43108  29.101  19.870   6.764
 3282POPC   C3A43109  29.161  19.806   7.064
 3282POPC   C4A43110  29.187  19.813   7.364
 3282POPC   C1B43111  28.868  19.897   6.464
 3282POPC   C2B43112  28.912  19.949   6.764
 3282POPC   C3B43113  28.916  19.917   7.064
 3282POPC   C4B43114  28.888  19.915   7.364
 3283POPC   NC343115   6.602   7.371   5.564
 3283POPC   PO443116   6.669   7.418   5.864
 3283POPC   GL143117   6.635   7.390   6.164
 3283POPC   GL243118   6.645   7.346   6.164
 3283POPC   C1A43119   6.679   7.394   6.464
 3283POPC   D2A43120   6.651   7.391   6.764
 3283POPC   C3A43121   6.692   7.388   7.064
 3283POPC   C4A43122   6.668   7.402   7.364
 3283POPC   C1B43123   6.626   7.158   6.464
 3283POPC   C2B43124   6.590   7.187   6.764
 3283POPC   C3B43125   6.620   7.189   7.064
 3283POPC   C4B43126   6.567   7.182   7.364
 3284POPC   NC343127  39.199  42.344   5.564
 3284POPC   PO443128  39.184  42.330   5.864
 3284POPC   GL143129  39.188  42.372   6.164
 3284POPC   GL243130  39.218  42.489   6.164
 3284POPC   C1A43131  39.234  42.383   6.464
 3284POPC   D2A43132  39.251  42.300   6.764
 3284POPC   C3A43133  39.275  42.307   7.064
 3284POPC   C4A43134  39.219  42.357   7.364
 3284POPC   C1B43135  39.316  42.630   6.464
 3284POPC   C2B43136  39.236  42.566   6.764
 3284POPC   C3B43137  39.314  42.582   7.064
 3284POPC   C4B43138  39.260  42.596   7.364
 3285POPC   NC343139  23.712  23.702   5.564
 3285POPC   PO443140  23.671  23.743   5.864
 3285POPC   GL143141  23.759  23.707   6.164
 3285POPC   GL243142  23.669  23.630   6.164
 3285POPC   C1A43143  23.710  23.762   6.464
 3285POPC   D2A43144  23.761  23.759   6.764
 3285POPC   C3A43145  23.728  23.675   7.064
 3285POPC   C4A43146  23.746  23.725   7.364
 3285POPC   C1B43147  23.572  23.560   6.464
 3285POPC   C2B43148  23.522  23.560   6.764
 3285POPC   C3B43149  23.557  23.537   7.064
 3285POPC   C4B43150  23.538  23.567   7.364
 3286POPC   NC343151   6.688  36.144   5.564
 3286POPC   PO443152   6.691  36.174   5.864
 3286POPC   GL143153   6.612  36.101   6.164
 3286POPC   GL243154   6.759  36.025   6.164
 3286POPC   C1A43155   6.610  36.174   6.464
 3286POPC   D2A43156   6.648  36.144   6.764
 3286POPC   C3A43157   6.664  36.079   7.064
 3286POPC   C4A43158   6.608  36.111   7.364
 3286POPC   C1B43159   6.896  36.004   6.464
 3286POPC   C2B43160   6.837  36.044   6.764
 3286POPC   C3B43161   6.895  36.025   7.064
 3286POPC   C4B43162   6.825  35.994   7.364
 3287POPC   NC343163  29.141  36.171   5.564
 3287POPC   PO443164  29.125  36.095   5.864
 3287POPC   GL143165  29.107  36.134   6.164
 3287POPC   GL243166  29.303  36.109   6.164
 3287POPC   C1A43167  29.127  36.155   6.464
 3287POPC   D2A43168  29.110  36.157   6.764
 3287POPC   C3A43169  29.113  36.120   7.064
 3287POPC   C4A43170  29.154  36.164   7.364
 3287POPC   C1B43171  29.348  36.043   6.464
 3287POPC   C2B43172  29.358  36.033   6.764
 3287POPC   C3B43173  29.374  36.093   7.064
 3287POPC   C4B43174  29.350  36.096   7.364
 3288POPC   NC343175  32.289  23.694   5.564
 3288POPC   PO443176  32.245  23.719   5.864
 3288POPC   GL143177  32.218  23.680   6.164
 3288POPC   GL243178  32.078  23.669   6.164
 3288POPC   C1A43179  32.250  23.709   6.464
 3288POPC   D2A43180  32.261  23.749   6.764
 3288POPC   C3A43181  32.219  23.671   7.064
 3288POPC   C4A43182  32.297  23.705   7.364
 3288POPC   C1B43183  31.980  23.684   6.464
 3288POPC   C2B43184  31.965  23.679   6.764
 3288POPC   C3B43185  32.041  23.695   7.064
 3288POPC   C4B43186  31.973  23.661   7.364
 3289POPC   NC343187  21.339   5.103   5.564
 3289POPC   PO443188  21.427   5.129   5.864
 3289POPC   GL143189  21.427   5.116   6.164
 3289POPC   GL243190  21.469   5.097   6.164
 3289POPC   C1A43191  21.371   5.112   6.464
 3289POPC   D2A43192  21.418   5.066   6.764
 3289POPC   C3A43193  21.358   5.140   7.064
 3289POPC   C4A43194  21.427   5.119   7.364
 3289POPC   C1B43195  21.619   5.045   6.464
 3289POPC   C2B43196  21.663   5.040   6.764
 3289POPC   C3B43197  21.680   5.000   7.064
 3289POPC   C4B43198  21.671   5.011   7.364
 3290POPC   NC343199  23.691   8.246   5.564
 3290POPC   PO443200  23.729   8.181   5.864
 3290POPC   GL143201  23.759   8.186   6.164
 3290POPC   GL243202  23.856   8.178   6.164
 3290POPC   C1A43203  23.726   8.154   6.464
 3290POPC   D2A43204  23.743   8.150   6.764
 3290POPC   C3A43205  23.724   8.237   7.064
 3290POPC   C4A43206  23.761   8.197   7.364
 3290POPC   C1B43207  23.928   8.018   6.464
 3290POPC   C2B43208  23.888   8.054   6.764
 3290POPC   C3B43209  23.949   8.024   7.064
 3290POPC   C4B43210  23.938   8.074   7.364
 3291POPC   NC343211  43.141  37.633   5.564
 3291POPC   PO443212  43.106  37.648   5.864
 3291POPC   GL143213  43.093  37.671   6.164
 3291POPC   GL243214  43.108  37.523   6.164
 3291POPC   C1A43215  43.113  37.651   6.464
 3291POPC   D2A43216  43.076  37.726   6.764
 3291POPC   C3A43217  43.086  37.631   7.064
 3291POPC   C4A43218  43.071  37.666   7.364
 3291POPC   C1B43219  43.084  37.457   6.464
 3291POPC   C2B43220  43.094  37.472   6.764
 3291POPC   C3B43221  43.126  37.458   7.064
 3291POPC   C4B43222  43.131  37.383   7.364
 3292POPC   NC343223  21.370  18.274   5.564
 3292POPC   PO443224  21.384  18.287   5.864
 3292POPC   GL143225  21.354  18.301   6.164
 3292POPC   GL243226  21.512  18.343   6.164
 3292POPC   C1A43227  21.362  18.237   6.464
 3292POPC   D2A43228  21.397  18.244   6.764
 3292POPC   C3A43229  21.367  18.331   7.064
 3292POPC   C4A43230  21.403  18.235   7.364
 3292POPC   C1B43231  21.603  18.283   6.464
 3292POPC   C2B43232  21.601  18.313   6.764
 3292POPC   C3B43233  21.626  18.321   7.064
 3292POPC   C4B43234  21.644  18.300   7.364
 3293POPC   NC343235  35.391  30.739   5.564
 3293POPC   PO443236  35.335  30.682   5.864
 3293POPC   GL143237  35.337  30.689   6.164
 3293POPC   GL243238  35.394  30.814   6.164
 3293POPC   C1A43239  35.369  30.676   6.464
 3293POPC   D2A43240  35.355  30.695   6.764
 3293POPC   C3A43241  35.355  30.701   7.064
 3293POPC   C4A43242  35.338  30.734   7.364
 3293POPC   C1B43243  35.380  30.954   6.464
 3293POPC   C2B43244  35.403  30.921   6.764
 3293POPC   C3B43245  35.373  30.915   7.064
 3293POPC   C4B43246  35.338  30.980   7.364
 3294POPC   NC343247   5.134   1.964   5.564
 3294POPC   PO443248   5.111   2.019   5.864
 3294POPC   GL143249   5.115   1.947   6.164
 3294POPC   GL243250   5.048   1.829   6.164
 3294POPC   C1A43251   5.135   1.997   6.464
 3294POPC   D2A43252   5.094   2.008   6.764
 3294POPC   C3A43253   5.106   1.974   7.064
 3294POPC   C4A43254   5.113   1.953   7.364
 3294POPC   C1B43255   5.129   1.715   6.464
 3294POPC   C2B43256   5.120   1.736   6.764
 3294POPC   C3B43257   5.051   1.699   7.064
 3294POPC   C4B43258   5.077   1.766   7.364
 3295POPC   NC343259  29.949  16.699   5.564
 3295POPC   PO443260  29.922  16.718   5.864
 3295POPC   GL143261  29.876  16.746   6.164
 3295POPC   GL243262  29.885  16.866   6.164
 3295POPC   C1A43263  29.920  16.774   6.464
 3295POPC   D2A43264  29.885  16.727   6.764
 3295POPC   C3A43265  29.942  16.770   7.064
 3295POPC   C4A43266  29.916  16.747   7.364
 3295POPC   C1B43267  29.849  17.003   6.464
 3295POPC   C2B43268  29.855  16.992   6.764
 3295POPC   C3B43269  29.845  16.926   7.064
 3295POPC   C4B43270  29.867  17.014   7.364
 3296POPC   NC343271  11.291  22.895   5.564
 3296POPC   PO443272  11.256  22.918   5.864
 3296POPC   GL143273  11.252  22.919   6.164
 3296POPC   GL243274  11.306  23.065   6.164
 3296POPC   C1A43275  11.291  22.924   6.464
 3296POPC   D2A43276  11.288  22.907   6.764
 3296POPC   C3A43277  11.257  22.937   7.064
 3296POPC   C4A43278  11.308  22.894   7.364
 3296POPC   C1B43279  11.389  23.142   6.464
 3296POPC   C2B43280  11.350  23.136   6.764
 3296POPC   C3B43281  11.363  23.216   7.064
 3296POPC   C4B43282  11.415  23.176   7.364
 3297POPC   NC343283   6.669   2.011   5.564
 3297POPC   PO443284   6.659   1.965   5.864
 3297POPC   GL143285   6.653   1.963   6.164
 3297POPC   GL243286   6.798   2.069   6.164
 3297POPC   C1A43287   6.693   2.007   6.464
 3297POPC   D2A43288   6.641   2.003   6.764
 3297POPC   C3A43289   6.685   2.021   7.064
 3297POPC   C4A43290   6.644   1.976   7.364
 3297POPC   C1B43291   6.845   2.050   6.464
 3297POPC   C2B43292   6.881   2.091   6.764
 3297POPC   C3B43293   6.893   2.039   7.064
 3297POPC   C4B43294   6.888   2.084   7.364
 3298POPC   NC343295   9.748   9.738   5.564
 3298POPC   PO443296   9.795   9.767   5.864
 3298POPC   GL143297   9.747   9.751   6.164
 3298POPC   GL243298   9.632   9.628   6.164
 3298POPC   C1A43299   9.765   9.707   6.464
 3298POPC   D2A43300   9.774   9.772   6.764
 3298POPC   C3A43301   9.704   9.786   7.064
 3298POPC   C4A43302   9.741   9.730   7.364
 3298POPC   C1B43303   9.584   9.586   6.464
 3298POPC   C2B43304   9.636   9.571   6.764
 3298POPC   C3B43305   9.570   9.513   7.064
 3298POPC   C4B43306   9.574   9.577   7.364
 3299POPC   NC343307   9.020   2.744   5.564
 3299POPC   PO443308   8.969   2.742   5.864
 3299POPC   GL143309   8.943   2.746   6.164
 3299POPC   GL243310   8.845   2.738   6.164
 3299POPC   C1A43311   8.995   2.795   6.464
 3299POPC   D2A43312   8.982   2.768   6.764
 3299POPC   C3A43313   8.943   2.765   7.064
 3299POPC   C4A43314   8.957   2.726   7.364
 3299POPC   C1B43315   8.768   2.792   6.464
 3299POPC   C2B43316   8.716   2.768   6.764
 3299POPC   C3B43317   8.685   2.782   7.064
 3299POPC   C4B43318   8.705   2.761   7.364
 3300POPC   NC343319   4.281  21.339   5.564
 3300POPC   PO443320   4.318  21.350   5.864
 3300POPC   GL143321   4.352  21.425   6.164
 3300POPC   GL243322   4.232  21.453   6.164
 3300POPC   C1A43323   4.288  21.357   6.464
 3300POPC   D2A43324   4.299  21.400   6.764
 3300POPC   C3A43325   4.307  21.429   7.064
 3300POPC   C4A43326   4.367  21.436   7.364
 3300POPC   C1B43327   4.163  21.593   6.464
 3300POPC   C2B43328   4.200  21.614   6.764
 3300POPC   C3B43329   4.174  21.605   7.064
 3300POPC   C4B43330   4.169  21.600   7.364
 3301POPC   NC343331  33.831   1.954   5.564
 3301POPC   PO443332  33.761   1.966   5.864
 3301POPC   GL143333  33.831   2.008   6.164
 3301POPC   GL243334  33.729   1.979   6.164
 3301POPC   C1A43335  33.762   2.027   6.464
 3301POPC   D2A43336  33.847   1.954   6.764
 3301POPC   C3A43337  33.782   1.969   7.064
 3301POPC   C4A43338  33.849   2.038   7.364
 3301POPC   C1B43339  33.519   2.024   6.464
 3301POPC   C2B43340  33.573   2.035   6.764
 3301POPC   C3B43341  33.572   2.046   7.064
 3301POPC   C4B43342  33.571   2.072   7.364
 3302POPC   NC343343  33.841  34.612   5.564
 3302POPC   PO443344  33.776  34.578   5.864
 3302POPC   GL143345  33.777  34.605   6.164
 3302POPC   GL243346  33.775  34.700   6.164
 3302POPC   C1A43347  33.788  34.556   6.464
 3302POPC   D2A43348  33.827  34.583   6.764
 3302POPC   C3A43349  33.803  34.575   7.064
 3302POPC   C4A43350  33.781  34.541   7.364
 3302POPC   C1B43351  33.741  34.824   6.464
 3302POPC   C2B43352  33.792  34.807   6.764
 3302POPC   C3B43353  33.711  34.861   7.064
 3302POPC   C4B43354  33.739  34.797   7.364
 3303POPC   NC343355  44.616   8.991   5.564
 3303POPC   PO443356  44.632   8.956   5.864
 3303POPC   GL143357  44.672   9.000   6.164
 3303POPC   GL243358  44.760   8.995   6.164
 3303POPC   C1A43359  44.632   8.959   6.464
 3303POPC   D2A43360  44.704   8.955   6.764
 3303POPC   C3A43361  44.710   8.995   7.064
 3303POPC   C4A43362  44.650   8.999   7.364
 3303POPC   C1B43363  44.838   9.084   6.464
 3303POPC   C2B43364  44.837   9.140   6.764
 3303POPC   C3B43365  44.904   9.068   7.064
 3303POPC   C4B43366  44.834   9.110   7.364
 3304POPC   NC343367   6.652  44.626   5.564
 3304POPC   PO443368   6.667  44.677   5.864
 3304POPC   GL143369   6.693  44.625   6.164
 3304POPC   GL243370   6.617  44.822   6.164
 3304POPC   C1A43371   6.608  44.651   6.464
 3304POPC   D2A43372   6.600  44.678   6.764
 3304POPC   C3A43373   6.646  44.620   7.064
 3304POPC   C4A43374   6.645  44.671   7.364
 3304POPC   C1B43375   6.568  44.905   6.464
 3304POPC   C2B43376   6.650  44.865   6.764
 3304POPC   C3B43377   6.607  44.930   7.064
 3304POPC   C4B43378   6.562  44.917   7.364
 3305POPC   NC343379  29.923  17.462   5.564
 3305POPC   PO443380  29.921  17.531   5.864
 3305POPC   GL143381  29.922  17.475   6.164
 3305POPC   GL243382  29.858  17.388   6.164
 3305POPC   C1A43383  29.885  17.496   6.464
 3305POPC   D2A43384  29.896  17.458   6.764
 3305POPC   C3A43385  29.958  17.501   7.064
 3305POPC   C4A43386  29.927  17.516   7.364
 3305POPC   C1B43387  29.763  17.330   6.464
 3305POPC   C2B43388  29.774  17.332   6.764
 3305POPC   C3B43389  29.770  17.262   7.064
 3305POPC   C4B43390  29.819  17.265   7.364
 3306POPC   NC343391   8.943  26.842   5.564
 3306POPC   PO443392   8.999  26.802   5.864
 3306POPC   GL143393   8.966  26.801   6.164
 3306POPC   GL243394   9.046  26.863   6.164
 3306POPC   C1A43395   9.003  26.862   6.464
 3306POPC   D2A43396   8.939  26.857   6.764
 3306POPC   C3A43397   9.003  26.808   7.064
 3306POPC   C4A43398   8.956  26.827   7.364
 3306POPC   C1B43399   9.128  26.945   6.464
 3306POPC   C2B43400   9.185  26.969   6.764
 3306POPC   C3B43401   9.136  26.948   7.064
 3306POPC   C4B43402   9.141  26.976   7.364
 3307POPC   NC343403   1.256  42.367   5.564
 3307POPC   PO443404   1.239  42.364   5.864
 3307POPC   GL143405   1.220  42.315   6.164
 3307POPC   GL243406   1.328  42.386   6.164
 3307POPC   C1A43407   1.225  42.303   6.464
 3307POPC   D2A43408   1.215  42.306   6.764
 3307POPC   C3A43409   1.231  42.367   7.064
 3307POPC   C4A43410   1.216  42.315   7.364
 3307POPC   C1B43411   1.392  42.548   6.464
 3307POPC   C2B43412   1.440  42.471   6.764
 3307POPC   C3B43413   1.403  42.496   7.064
 3307POPC   C4B43414   1.380  42.540   7.364
 3308POPC   NC343415   1.997  35.375   5.564
 3308POPC   PO443416   1.972  35.358   5.864
 3308POPC   GL143417   1.986  35.382   6.164
 3308POPC   GL243418   2.036  35.427   6.164
 3308POPC   C1A43419   2.013  35.382   6.464
 3308POPC   D2A43420   2.016  35.335   6.764
 3308POPC   C3A43421   2.030  35.375   7.064
 3308POPC   C4A43422   1.999  35.357   7.364
 3308POPC   C1B43423   1.965  35.634   6.464
 3308POPC   C2B43424   1.972  35.622   6.764
 3308POPC   C3B43425   2.029  35.593   7.064
 3308POPC   C4B43426   2.025  35.627   7.364
 3309POPC   NC343427  42.374   8.965   5.564
 3309POPC   PO443428  42.311   8.997   5.864
 3309POPC   GL143429  42.286   8.978   6.164
 3309POPC   GL243430  42.179   9.036   6.164
 3309POPC   C1A43431  42.380   8.944   6.464
 3309POPC   D2A43432  42.335   9.006   6.764
 3309POPC   C3A43433  42.325   8.932   7.064
 3309POPC   C4A43434  42.350   8.945   7.364
 3309POPC   C1B43435  42.047   9.051   6.464
 3309POPC   C2B43436  42.094   9.049   6.764
 3309POPC   C3B43437  42.132   9.002   7.064
 3309POPC   C4B43438  42.091   9.087   7.364
 3310POPC   NC343439   2.738   1.992   5.564
 3310POPC   PO443440   2.771   1.969   5.864
 3310POPC   GL143441   2.783   1.996   6.164
 3310POPC   GL243442   2.881   2.048   6.164
 3310POPC   C1A43443   2.784   1.994   6.464
 3310POPC   D2A43444   2.754   1.981   6.764
 3310POPC   C3A43445   2.738   1.970   7.064
 3310POPC   C4A43446   2.758   1.959   7.364
 3310POPC   C1B43447   2.969   2.000   6.464
 3310POPC   C2B43448   3.011   2.053   6.764
 3310POPC   C3B43449   3.042   2.044   7.064
 3310POPC   C4B43450   3.049   2.019   7.364
 3311POPC   NC343451   0.486  32.975   5.564
 3311POPC   PO443452   0.439  32.995   5.864
 3311POPC   GL143453   0.462  33.060   6.164
 3311POPC   GL243454   0.418  32.871   6.164
 3311POPC   C1A43455   0.420  33.035   6.464
 3311POPC   D2A43456   0.452  33.058   6.764
 3311POPC   C3A43457   0.475  33.068   7.064
 3311POPC   C4A43458   0.481  33.035   7.364
 3311POPC   C1B43459   0.406  32.747   6.464
 3311POPC   C2B43460   0.428  32.759   6.764
 3311POPC   C3B43461   0.404  32.772   7.064
 3311POPC   C4B43462   0.379  32.774   7.364
 3312POPC   NC343463  26.085  29.179   5.564
 3312POPC   PO443464  26.035  29.168   5.864
 3312POPC   GL143465  26.044  29.110   6.164
 3312POPC   GL243466  25.992  29.299   6.164
 3312POPC   C1A43467  26.022  29.126   6.464
 3312POPC   D2A43468  26.016  29.128   6.764
 3312POPC   C3A43469  26.067  29.116   7.064
 3312POPC   C4A43470  26.001  29.113   7.364
 3312POPC   C1B43471  25.963  29.401   6.464
 3312POPC   C2B43472  25.982  29.396   6.764
 3312POPC   C3B43473  25.937  29.382   7.064
 3312POPC   C4B43474  25.958  29.380   7.364
 3313POPC   NC343475   2.750  13.628   5.564
 3313POPC   PO443476   2.780  13.620   5.864
 3313POPC   GL143477   2.720  13.662   6.164
 3313POPC   GL243478   2.822  13.693   6.164
 3313POPC   C1A43479   2.751  13.676   6.464
 3313POPC   D2A43480   2.769  13.667   6.764
 3313POPC   C3A43481   2.754  13.654   7.064
 3313POPC   C4A43482   2.790  13.618   7.364
 3313POPC   C1B43483   2.959  13.805   6.464
 3313POPC   C2B43484   2.970  13.785   6.764
 3313POPC   C3B43485   2.987  13.788   7.064
 3313POPC   C4B43486   3.019  13.739   7.364
 3314POPC   NC343487   2.733  42.346   5.564
 3314POPC   PO443488   2.798  42.369   5.864
 3314POPC   GL143489   2.762  42.327   6.164
 3314POPC   GL243490   2.825  42.224   6.164
 3314POPC   C1A43491   2.730  42.374   6.464
 3314POPC   D2A43492   2.724  42.314   6.764
 3314POPC   C3A43493   2.806  42.366   7.064
 3314POPC   C4A43494   2.741  42.306   7.364
 3314POPC   C1B43495   2.800  42.123   6.464
 3314POPC   C2B43496   2.864  42.123   6.764
 3314POPC   C3B43497   2.857  42.073   7.064
 3314POPC   C4B43498   2.810  42.044   7.364
 3315POPC   NC343499  41.598  33.025   5.564
 3315POPC   PO443500  41.527  33.037   5.864
 3315POPC   GL143501  41.598  33.041   6.164
 3315POPC   GL243502  41.498  33.143   6.164
 3315POPC   C1A43503  41.515  32.987   6.464
 3315POPC   D2A43504  41.546  33.024   6.764
 3315POPC   C3A43505  41.576  33.057   7.064
 3315POPC   C4A43506  41.577  33.005   7.364
 3315POPC   C1B43507  41.328  33.149   6.464
 3315POPC   C2B43508  41.375  33.194   6.764
 3315POPC   C3B43509  41.341  33.165   7.064
 3315POPC   C4B43510  41.342  33.202   7.364
 3316POPC   NC343511   6.642  38.483   5.564
 3316POPC   PO443512   6.666  38.456   5.864
 3316POPC   GL143513   6.653  38.498   6.164
 3316POPC   GL243514   6.642  38.374   6.164
 3316POPC   C1A43515   6.643  38.461   6.464
 3316POPC   D2A43516   6.687  38.461   6.764
 3316POPC   C3A43517   6.653  38.410   7.064
 3316POPC   C4A43518   6.684  38.475   7.364
 3316POPC   C1B43519   6.708  38.199   6.464
 3316POPC   C2B43520   6.762  38.210   6.764
 3316POPC   C3B43521   6.756  38.175   7.064
 3316POPC   C4B43522   6.774  38.224   7.364
 3317POPC   NC343523  21.362  30.691   5.564
 3317POPC   PO443524  21.368  30.670   5.864
 3317POPC   GL143525  21.375  30.700   6.164
 3317POPC   GL243526  21.430  30.870   6.164
 3317POPC   C1A43527  21.358  30.699   6.464
 3317POPC   D2A43528  21.380  30.709   6.764
 3317POPC   C3A43529  21.336  30.724   7.064
 3317POPC   C4A43530  21.416  30.675   7.364
 3317POPC   C1B43531  21.387  30.921   6.464
 3317POPC   C2B43532  21.348  30.906   6.764
 3317POPC   C3B43533  21.341  30.969   7.064
 3317POPC   C4B43534  21.332  30.981   7.364
 3318POPC   NC343535  43.837  19.104   5.564
 3318POPC   PO443536  43.862  19.009   5.864
 3318POPC   GL143537  43.889  19.013   6.164
 3318POPC   GL243538  43.973  19.077   6.164
 3318POPC   C1A43539  43.902  19.017   6.464
 3318POPC   D2A43540  43.856  19.080   6.764
 3318POPC   C3A43541  43.843  19.067   7.064
 3318POPC   C4A43542  43.904  19.092   7.364
 3318POPC   C1B43543  44.136  19.136   6.464
 3318POPC   C2B43544  44.121  19.196   6.764
 3318POPC   C3B43545  44.146  19.177   7.064
 3318POPC   C4B43546  44.110  19.234   7.364
 3319POPC   NC343547  38.484   0.399   5.564
 3319POPC   PO443548  38.436   0.406   5.864
 3319POPC   GL143549  38.493   0.469   6.164
 3319POPC   GL243550  38.360   0.364   6.164
 3319POPC   C1A43551  38.406   0.459   6.464
 3319POPC   D2A43552  38.436   0.449   6.764
 3319POPC   C3A43553  38.420   0.477   7.064
 3319POPC   C4A43554  38.435   0.428   7.364
 3319POPC   C1B43555  38.274   0.372   6.464
 3319POPC   C2B43556  38.232   0.370   6.764
 3319POPC   C3B43557  38.254   0.368   7.064
 3319POPC   C4B43558  38.180   0.372   7.364
 3320POPC   NC343559  12.085  26.859   5.564
 3320POPC   PO443560  12.057  26.809   5.864
 3320POPC   GL143561  12.120  26.820   6.164
 3320POPC   GL243562  12.080  26.677   6.164
 3320POPC   C1A43563  12.083  26.809   6.464
 3320POPC   D2A43564  12.098  26.810   6.764
 3320POPC   C3A43565  12.045  26.794   7.064
 3320POPC   C4A43566  12.087  26.865   7.364
 3320POPC   C1B43567  12.040  26.525   6.464
 3320POPC   C2B43568  12.042  26.608   6.764
 3320POPC   C3B43569  12.091  26.579   7.064
 3320POPC   C4B43570  12.089  26.566   7.364
 3321POPC   NC343571  28.324   9.716   5.564
 3321POPC   PO443572  28.345   9.711   5.864
 3321POPC   GL143573  28.337   9.781   6.164
 3321POPC   GL243574  28.374   9.594   6.164
 3321POPC   C1A43575  28.352   9.728   6.464
 3321POPC   D2A43576  28.349   9.716   6.764
 3321POPC   C3A43577  28.352   9.761   7.064
 3321POPC   C4A43578  28.358   9.701   7.364
 3321POPC   C1B43579  28.349   9.529   6.464
 3321POPC   C2B43580  28.351   9.516   6.764
 3321POPC   C3B43581  28.410   9.545   7.064
 3321POPC   C4B43582  28.346   9.526   7.364
 3322POPC   NC343583  33.830  32.256   5.564
 3322POPC   PO443584  33.798  32.236   5.864
 3322POPC   GL143585  33.829  32.294   6.164
 3322POPC   GL243586  33.858  32.138   6.164
 3322POPC   C1A43587  33.768  32.227   6.464
 3322POPC   D2A43588  33.827  32.254   6.764
 3322POPC   C3A43589  33.828  32.254   7.064
 3322POPC   C4A43590  33.816  32.214   7.364
 3322POPC   C1B43591  34.004  32.057   6.464
 3322POPC   C2B43592  34.012  32.097   6.764
 3322POPC   C3B43593  33.941  32.127   7.064
 3322POPC   C4B43594  33.939  32.046   7.364
 3323POPC   NC343595  37.683  19.873   5.564
 3323POPC   PO443596  37.711  19.810   5.864
 3323POPC   GL143597  37.722  19.792   6.164
 3323POPC   GL243598  37.651  19.898   6.164
 3323POPC   C1A43599  37.683  19.812   6.464
 3323POPC   D2A43600  37.636  19.791   6.764
 3323POPC   C3A43601  37.639  19.794   7.064
 3323POPC   C4A43602  37.715  19.837   7.364
 3323POPC   C1B43603  37.476  20.052   6.464
 3323POPC   C2B43604  37.507  19.987   6.764
 3323POPC   C3B43605  37.559  20.033   7.064
 3323POPC   C4B43606  37.498  19.996   7.364
 3324POPC   NC343607  24.493  34.613   5.564
 3324POPC   PO443608  24.503  34.535   5.864
 3324POPC   GL143609  24.456  34.583   6.164
 3324POPC   GL243610  24.475  34.434   6.164
 3324POPC   C1A43611  24.514  34.551   6.464
 3324POPC   D2A43612  24.506  34.620   6.764
 3324POPC   C3A43613  24.454  34.544   7.064
 3324POPC   C4A43614  24.509  34.622   7.364
 3324POPC   C1B43615  24.361  34.303   6.464
 3324POPC   C2B43616  24.394  34.392   6.764
 3324POPC   C3B43617  24.420  34.387   7.064
 3324POPC   C4B43618  24.352  34.373   7.364
 3325POPC   NC343619   7.453  32.205   5.564
 3325POPC   PO443620   7.407  32.236   5.864
 3325POPC   GL143621   7.401  32.293   6.164
 3325POPC   GL243622   7.528  32.156   6.164
 3325POPC   C1A43623   7.413  32.208   6.464
 3325POPC   D2A43624   7.462  32.239   6.764
 3325POPC   C3A43625   7.469  32.280   7.064
 3325POPC   C4A43626   7.426  32.249   7.364
 3325POPC   C1B43627   7.604  32.103   6.464
 3325POPC   C2B43628   7.652  32.074   6.764
 3325POPC   C3B43629   7.641  32.146   7.064
 3325POPC   C4B43630   7.671  32.113   7.364
 3326POPC   NC343631  33.844   7.440   5.564
 3326POPC   PO443632  33.783   7.468   5.864
 3326POPC   GL143633  33.838   7.377   6.164
 3326POPC   GL243634  33.751   7.537   6.164
 3326POPC   C1A43635  33.817   7.422   6.464
 3326POPC   D2A43636  33.846   7.418   6.764
 3326POPC   C3A43637  33.842   7.373   7.064
 3326POPC   C4A43638  33.784   7.394   7.364
 3326POPC   C1B43639  33.807   7.680   6.464
 3326POPC   C2B43640  33.767   7.631   6.764
 3326POPC   C3B43641  33.731   7.645   7.064
 3326POPC   C4B43642  33.773   7.699   7.364
 3327POPC   NC343643   5.871  24.499   5.564
 3327POPC   PO443644   5.898  24.513   5.864
 3327POPC   GL143645   5.902  24.453   6.164
 3327POPC   GL243646   5.784  24.614   6.164
 3327POPC   C1A43647   5.898  24.475   6.464
 3327POPC   D2A43648   5.874  24.469   6.764
 3327POPC   C3A43649   5.907  24.486   7.064
 3327POPC   C4A43650   5.908  24.467   7.364
 3327POPC   C1B43651   5.731  24.731   6.464
 3327POPC   C2B43652   5.807  24.759   6.764
 3327POPC   C3B43653   5.735  24.754   7.064
 3327POPC   C4B43654   5.788  24.671   7.364
 3328POPC   NC343655  40.781  35.326   5.564
 3328POPC   PO443656  40.795  35.395   5.864
 3328POPC   GL143657  40.768  35.359   6.164
 3328POPC   GL243658  40.788  35.260   6.164
 3328POPC   C1A43659  40.796  35.334   6.464
 3328POPC   D2A43660  40.786  35.378   6.764
 3328POPC   C3A43661  40.800  35.349   7.064
 3328POPC   C4A43662  40.780  35.385   7.364
 3328POPC   C1B43663  40.780  35.081   6.464
 3328POPC   C2B43664  40.747  35.137   6.764
 3328POPC   C3B43665  40.760  35.072   7.064
 3328POPC   C4B43666  40.751  35.123   7.364
 3329POPC   NC343667  43.072  10.511   5.564
 3329POPC   PO443668  43.097  10.521   5.864
 3329POPC   GL143669  43.092  10.489   6.164
 3329POPC   GL243670  43.020  10.387   6.164
 3329POPC   C1A43671  43.076  10.559   6.464
 3329POPC   D2A43672  43.146  10.510   6.764
 3329POPC   C3A43673  43.159  10.493   7.064
 3329POPC   C4A43674  43.063  10.475   7.364
 3329POPC   C1B43675  42.995  10.262   6.464
 3329POPC   C2B43676  43.045  10.317   6.764
 3329POPC   C3B43677  43.035  10.250   7.064
 3329POPC   C4B43678  43.022  10.336   7.364
 3330POPC   NC343679  36.130  10.500   5.564
 3330POPC   PO443680  36.106  10.533   5.864
 3330POPC   GL143681  36.139  10.509   6.164
 3330POPC   GL243682  36.194  10.367   6.164
 3330POPC   C1A43683  36.137  10.491   6.464
 3330POPC   D2A43684  36.100  10.548   6.764
 3330POPC   C3A43685  36.128  10.512   7.064
 3330POPC   C4A43686  36.136  10.494   7.364
 3330POPC   C1B43687  36.152  10.237   6.464
 3330POPC   C2B43688  36.217  10.322   6.764
 3330POPC   C3B43689  36.219  10.329   7.064
 3330POPC   C4B43690  36.141  10.246   7.364
 3331POPC   NC343691  33.003  30.735   5.564
 3331POPC   PO443692  33.025  30.728   5.864
 3331POPC   GL143693  33.062  30.717   6.164
 3331POPC   GL243694  32.898  30.723   6.164
 3331POPC   C1A43695  33.055  30.670   6.464
 3331POPC   D2A43696  33.068  30.672   6.764
 3331POPC   C3A43697  33.015  30.680   7.064
 3331POPC   C4A43698  33.012  30.705   7.364
 3331POPC   C1B43699  32.796  30.790   6.464
 3331POPC   C2B43700  32.845  30.794   6.764
 3331POPC   C3B43701  32.769  30.810   7.064
 3331POPC   C4B43702  32.835  30.823   7.364
 3332POPC   NC343703  29.130  14.440   5.564
 3332POPC   PO443704  29.119  14.354   5.864
 3332POPC   GL143705  29.182  14.416   6.164
 3332POPC   GL243706  29.079  14.308   6.164
 3332POPC   C1A43707  29.158  14.365   6.464
 3332POPC   D2A43708  29.153  14.385   6.764
 3332POPC   C3A43709  29.153  14.438   7.064
 3332POPC   C4A43710  29.184  14.425   7.364
 3332POPC   C1B43711  29.058  14.142   6.464
 3332POPC   C2B43712  29.049  14.176   6.764
 3332POPC   C3B43713  29.101  14.132   7.064
 3332POPC   C4B43714  29.077  14.186   7.364
 3333POPC   NC343715  40.765   1.239   5.564
 3333POPC   PO443716  40.817   1.172   5.864
 3333POPC   GL143717  40.805   1.166   6.164
 3333POPC   GL243718  40.920   1.223   6.164
 3333POPC   C1A43719  40.767   1.240   6.464
 3333POPC   D2A43720  40.827   1.248   6.764
 3333POPC   C3A43721  40.769   1.171   7.064
 3333POPC   C4A43722  40.806   1.245   7.364
 3333POPC   C1B43723  40.965   1.298   6.464
 3333POPC   C2B43724  40.970   1.350   6.764
 3333POPC   C3B43725  41.055   1.341   7.064
 3333POPC   C4B43726  41.056   1.265   7.364
 3334POPC   NC343727  28.337  41.548   5.564
 3334POPC   PO443728  28.366  41.537   5.864
 3334POPC   GL143729  28.371  41.545   6.164
 3334POPC   GL243730  28.333  41.441   6.164
 3334POPC   C1A43731  28.406  41.532   6.464
 3334POPC   D2A43732  28.386  41.550   6.764
 3334POPC   C3A43733  28.325  41.578   7.064
 3334POPC   C4A43734  28.392  41.569   7.364
 3334POPC   C1B43735  28.358  41.283   6.464
 3334POPC   C2B43736  28.331  41.336   6.764
 3334POPC   C3B43737  28.363  41.305   7.064
 3334POPC   C4B43738  28.417  41.298   7.364
 3335POPC   NC343739  19.108   2.717   5.564
 3335POPC   PO443740  19.019   2.767   5.864
 3335POPC   GL143741  19.052   2.745   6.164
 3335POPC   GL243742  19.000   2.649   6.164
 3335POPC   C1A43743  19.090   2.762   6.464
 3335POPC   D2A43744  19.069   2.744   6.764
 3335POPC   C3A43745  19.073   2.796   7.064
 3335POPC   C4A43746  19.044   2.790   7.364
 3335POPC   C1B43747  18.844   2.545   6.464
 3335POPC   C2B43748  18.902   2.570   6.764
 3335POPC   C3B43749  18.861   2.588   7.064
 3335POPC   C4B43750  18.910   2.568   7.364
 3336POPC   NC343751  37.722  36.134   5.564
 3336POPC   PO443752  37.677  36.104   5.864
 3336POPC   GL143753  37.687  36.161   6.164
 3336POPC   GL243754  37.784  36.237   6.164
 3336POPC   C1A43755  37.680  36.155   6.464
 3336POPC   D2A43756  37.675  36.168   6.764
 3336POPC   C3A43757  37.670  36.097   7.064
 3336POPC   C4A43758  37.684  36.111   7.364
 3336POPC   C1B43759  37.795  36.298   6.464
 3336POPC   C2B43760  37.860  36.321   6.764
 3336POPC   C3B43761  37.812  36.355   7.064
 3336POPC   C4B43762  37.805  36.268   7.364
 3337POPC   NC343763   2.721  29.904   5.564
 3337POPC   PO443764   2.786  29.946   5.864
 3337POPC   GL143765   2.815  29.885   6.164
 3337POPC   GL243766   2.619  29.911   6.164
 3337POPC   C1A43767   2.766  29.955   6.464
 3337POPC   D2A43768   2.794  29.906   6.764
 3337POPC   C3A43769   2.808  29.905   7.064
 3337POPC   C4A43770   2.736  29.965   7.364
 3337POPC   C1B43771   2.504  29.908   6.464
 3337POPC   C2B43772   2.563  29.932   6.764
 3337POPC   C3B43773   2.504  29.894   7.064
 3337POPC   C4B43774   2.522  29.911   7.364
 3338POPC   NC343775  32.996   2.001   5.564
 3338POPC   PO443776  33.030   1.985   5.864
 3338POPC   GL143777  33.057   1.941   6.164
 3338POPC   GL243778  33.170   2.020   6.164
 3338POPC   C1A43779  33.015   2.038   6.464
 3338POPC   D2A43780  32.998   1.982   6.764
 3338POPC   C3A43781  33.042   1.974   7.064
 3338POPC   C4A43782  33.010   2.022   7.364
 3338POPC   C1B43783  33.302   2.002   6.464
 3338POPC   C2B43784  33.250   2.057   6.764
 3338POPC   C3B43785  33.245   2.088   7.064
 3338POPC   C4B43786  33.308   2.038   7.364
 3339POPC   NC343787   4.358   2.018   5.564
 3339POPC   PO443788   4.321   1.966   5.864
 3339POPC   GL143789   4.349   1.982   6.164
 3339POPC   GL243790   4.172   1.964   6.164
 3339POPC   C1A43791   4.274   2.020   6.464
 3339POPC   D2A43792   4.287   2.038   6.764
 3339POPC   C3A43793   4.272   2.031   7.064
 3339POPC   C4A43794   4.282   1.955   7.364
 3339POPC   C1B43795   4.080   1.876   6.464
 3339POPC   C2B43796   4.105   1.868   6.764
 3339POPC   C3B43797   4.143   1.811   7.064
 3339POPC   C4B43798   4.124   1.903   7.364
 3340POPC   NC343799  33.794  26.036   5.564
 3340POPC   PO443800  33.788  26.021   5.864
 3340POPC   GL143801  33.764  26.043   6.164
 3340POPC   GL243802  33.880  26.049   6.164
 3340POPC   C1A43803  33.805  26.018   6.464
 3340POPC   D2A43804  33.811  26.004   6.764
 3340POPC   C3A43805  33.759  26.076   7.064
 3340POPC   C4A43806  33.769  26.045   7.364
 3340POPC   C1B43807  34.023  26.089   6.464
 3340POPC   C2B43808  34.005  26.112   6.764
 3340POPC   C3B43809  34.061  26.047   7.064
 3340POPC   C4B43810  34.083  26.126   7.364
 3341POPC   NC343811  44.636  26.817   5.564
 3341POPC   PO443812  44.692  26.800   5.864
 3341POPC   GL143813  44.629  26.798   6.164
 3341POPC   GL243814  44.667  26.895   6.164
 3341POPC   C1A43815  44.691  26.834   6.464
 3341POPC   D2A43816  44.640  26.865   6.764
 3341POPC   C3A43817  44.692  26.778   7.064
 3341POPC   C4A43818  44.632  26.866   7.364
 3341POPC   C1B43819  44.701  27.075   6.464
 3341POPC   C2B43820  44.756  27.025   6.764
 3341POPC   C3B43821  44.710  27.051   7.064
 3341POPC   C4B43822  44.749  27.085   7.364
 3342POPC   NC343823   8.948  11.322   5.564
 3342POPC   PO443824   8.957  11.268   5.864
 3342POPC   GL143825   8.964  11.296   6.164
 3342POPC   GL243826   8.928  11.463   6.164
 3342POPC   C1A43827   8.984  11.304   6.464
 3342POPC   D2A43828   8.939  11.314   6.764
 3342POPC   C3A43829   8.953  11.307   7.064
 3342POPC   C4A43830   8.933  11.260   7.364
 3342POPC   C1B43831   8.830  11.482   6.464
 3342POPC   C2B43832   8.907  11.506   6.764
 3342POPC   C3B43833   8.907  11.514   7.064
 3342POPC   C4B43834   8.905  11.494   7.364
 3343POPC   NC343835  32.990  36.882   5.564
 3343POPC   PO443836  32.996  36.912   5.864
 3343POPC   GL143837  33.007  36.931   6.164
 3343POPC   GL243838  32.948  36.763   6.164
 3343POPC   C1A43839  33.001  36.949   6.464
 3343POPC   D2A43840  33.069  36.874   6.764
 3343POPC   C3A43841  33.020  36.928   7.064
 3343POPC   C4A43842  33.007  36.864   7.364
 3343POPC   C1B43843  32.855  36.688   6.464
 3343POPC   C2B43844  32.919  36.652   6.764
 3343POPC   C3B43845  32.857  36.726   7.064
 3343POPC   C4B43846  32.890  36.657   7.364
 3344POPC   NC343847  38.412  27.589   5.564
 3344POPC   PO443848  38.417  27.627   5.864
 3344POPC   GL143849  38.449  27.606   6.164
 3344POPC   GL243850  38.349  27.689   6.164
 3344POPC   C1A43851  38.503  27.565   6.464
 3344POPC   D2A43852  38.422  27.566   6.764
 3344POPC   C3A43853  38.483  27.559   7.064
 3344POPC   C4A43854  38.425  27.642   7.364
 3344POPC   C1B43855  38.332  27.778   6.464
 3344POPC   C2B43856  38.354  27.785   6.764
 3344POPC   C3B43857  38.354  27.827   7.064
 3344POPC   C4B43858  38.287  27.752   7.364
 3345POPC   NC343859  19.066  30.734   5.564
 3345POPC   PO443860  19.037  30.733   5.864
 3345POPC   GL143861  19.097  30.718   6.164
 3345POPC   GL243862  19.203  30.766   6.164
 3345POPC   C1A43863  19.026  30.680   6.464
 3345POPC   D2A43864  19.049  30.732   6.764
 3345POPC   C3A43865  19.046  30.668   7.064
 3345POPC   C4A43866  19.062  30.720   7.364
 3345POPC   C1B43867  19.343  30.692   6.464
 3345POPC   C2B43868  19.328  30.707   6.764
 3345POPC   C3B43869  19.299  30.791   7.064
 3345POPC   C4B43870  19.353  30.730   7.364
 3346POPC   NC343871   2.005   1.979   5.564
 3346POPC   PO443872   2.038   2.034   5.864
 3346POPC   GL143873   1.952   1.982   6.164
 3346POPC   GL243874   1.911   2.120   6.164
 3346POPC   C1A43875   1.948   2.022   6.464
 3346POPC   D2A43876   1.992   2.007   6.764
 3346POPC   C3A43877   1.994   1.942   7.064
 3346POPC   C4A43878   1.999   2.025   7.364
 3346POPC   C1B43879   1.779   2.157   6.464
 3346POPC   C2B43880   1.858   2.165   6.764
 3346POPC   C3B43881   1.859   2.131   7.064
 3346POPC   C4B43882   1.806   2.144   7.364
 3347POPC   NC343883   8.163  37.683   5.564
 3347POPC   PO443884   8.168  37.663   5.864
 3347POPC   GL143885   8.206  37.684   6.164
 3347POPC   GL243886   8.211  37.824   6.164
 3347POPC   C1A43887   8.195  37.694   6.464
 3347POPC   D2A43888   8.184  37.706   6.764
 3347POPC   C3A43889   8.151  37.694   7.064
 3347POPC   C4A43890   8.208  37.635   7.364
 3347POPC   C1B43891   8.217  37.909   6.464
 3347POPC   C2B43892   8.207  37.932   6.764
 3347POPC   C3B43893   8.171  37.961   7.064
 3347POPC   C4B43894   8.223  37.907   7.364
 3348POPC   NC343895  18.288  31.472   5.564
 3348POPC   PO443896  18.327  31.457   5.864
 3348POPC   GL143897  18.263  31.522   6.164
 3348POPC   GL243898  18.316  31.557   6.164
 3348POPC   C1A43899  18.243  31.427   6.464
 3348POPC   D2A43900  18.313  31.479   6.764
 3348POPC   C3A43901  18.266  31.486   7.064
 3348POPC   C4A43902  18.288  31.437   7.364
 3348POPC   C1B43903  18.387  31.659   6.464
 3348POPC   C2B43904  18.447  31.643   6.764
 3348POPC   C3B43905  18.439  31.644   7.064
 3348POPC   C4B43906  18.411  31.729   7.364
 3349POPC   NC343907   0.416   2.010   5.564
 3349POPC   PO443908   0.391   2.035   5.864
 3349POPC   GL143909   0.477   1.994   6.164
 3349POPC   GL243910   0.420   2.144   6.164
 3349POPC   C1A43911   0.389   1.969   6.464
 3349POPC   D2A43912   0.446   1.967   6.764
 3349POPC   C3A43913   0.484   1.986   7.064
 3349POPC   C4A43914   0.487   2.038   7.364
 3349POPC   C1B43915   0.276   2.256   6.464
 3349POPC   C2B43916   0.325   2.186   6.764
 3349POPC   C3B43917   0.268   2.190   7.064
 3349POPC   C4B43918   0.355   2.179   7.364
 3350POPC   NC343919  35.312  16.780   5.564
 3350POPC   PO443920  35.348  16.758   5.864
 3350POPC   GL143921  35.353  16.687   6.164
 3350POPC   GL243922  35.436  16.766   6.164
 3350POPC   C1A43923  35.368  16.755   6.464
 3350POPC   D2A43924  35.362  16.734   6.764
 3350POPC   C3A43925  35.324  16.689   7.064
 3350POPC   C4A43926  35.338  16.690   7.364
 3350POPC   C1B43927  35.552  16.823   6.464
 3350POPC   C2B43928  35.540  16.888   6.764
 3350POPC   C3B43929  35.548  16.862   7.064
 3350POPC   C4B43930  35.536  16.827   7.364
 3351POPC   NC343931  43.078  44.653   5.564
 3351POPC   PO443932  43.071  44.701   5.864
 3351POPC   GL143933  43.159  44.693   6.164
 3351POPC   GL243934  43.188  44.569   6.164
 3351POPC   C1A43935  43.090  44.644   6.464
 3351POPC   D2A43936  43.062  44.660   6.764
 3351POPC   C3A43937  43.140  44.627   7.064
 3351POPC   C4A43938  43.131  44.698   7.364
 3351POPC   C1B43939  43.299  44.562   6.464
 3351POPC   C2B43940  43.320  44.514   6.764
 3351POPC   C3B43941  43.330  44.496   7.064
 3351POPC   C4B43942  43.328  44.587   7.364
 3352POPC   NC343943  13.615  43.101   5.564
 3352POPC   PO443944  13.650  43.104   5.864
 3352POPC   GL143945  13.620  43.153   6.164
 3352POPC   GL243946  13.565  43.277   6.164
 3352POPC   C1A43947  13.609  43.144   6.464
 3352POPC   D2A43948  13.580  43.148   6.764
 3352POPC   C3A43949  13.638  43.068   7.064
 3352POPC   C4A43950  13.637  43.152   7.364
 3352POPC   C1B43951  13.541  43.352   6.464
 3352POPC   C2B43952  13.560  43.369   6.764
 3352POPC   C3B43953  13.522  43.333   7.064
 3352POPC   C4B43954  13.579  43.305   7.364
 3353POPC   NC343955  43.134   9.792   5.564
 3353POPC   PO443956  43.081   9.757   5.864
 3353POPC   GL143957  43.093   9.702   6.164
 3353POPC   GL243958  43.029   9.635   6.164
 3353POPC   C1A43959  43.064   9.752   6.464
 3353POPC   D2A43960  43.148   9.781   6.764
 3353POPC   C3A43961  43.116   9.790   7.064
 3353POPC   C4A43962  43.116   9.774   7.364
 3353POPC   C1B43963  43.001   9.540   6.464
 3353POPC   C2B43964  42.930   9.575   6.764
 3353POPC   C3B43965  42.926   9.595   7.064
 3353POPC   C4B43966  42.918   9.583   7.364
 3354POPC   NC343967   8.201   6.641   5.564
 3354POPC   PO443968   8.159   6.684   5.864
 3354POPC   GL143969   8.203   6.652   6.164
 3354POPC   GL243970   8.133   6.734   6.164
 3354POPC   C1A43971   8.152   6.659   6.464
 3354POPC   D2A43972   8.156   6.620   6.764
 3354POPC   C3A43973   8.229   6.674   7.064
 3354POPC   C4A43974   8.223   6.632   7.364
 3354POPC   C1B43975   7.961   6.774   6.464
 3354POPC   C2B43976   7.944   6.739   6.764
 3354POPC   C3B43977   7.987   6.777   7.064
 3354POPC   C4B43978   7.931   6.743   7.364
 3355POPC   NC343979  15.180  19.822   5.564
 3355POPC   PO443980  15.190  19.786   5.864
 3355POPC   GL143981  15.221  19.842   6.164
 3355POPC   GL243982  15.123  19.742   6.164
 3355POPC   C1A43983  15.163  19.833   6.464
 3355POPC   D2A43984  15.150  19.824   6.764
 3355POPC   C3A43985  15.216  19.805   7.064
 3355POPC   C4A43986  15.162  19.850   7.364
 3355POPC   C1B43987  15.108  19.614   6.464
 3355POPC   C2B43988  15.173  19.631   6.764
 3355POPC   C3B43989  15.150  19.624   7.064
 3355POPC   C4B43990  15.163  19.559   7.364
 3356POPC   NC343991  38.490  42.317   5.564
 3356POPC   PO443992  38.458  42.380   5.864
 3356POPC   GL143993  38.405  42.380   6.164
 3356POPC   GL243994  38.362  42.416   6.164
 3356POPC   C1A43995  38.495  42.368   6.464
 3356POPC   D2A43996  38.425  42.306   6.764
 3356POPC   C3A43997  38.502  42.350   7.064
 3356POPC   C4A43998  38.480  42.317   7.364
 3356POPC   C1B43999  38.288  42.512   6.464
 3356POPC   C2B44000  38.359  42.508   6.764
 3356POPC   C3B44001  38.314  42.598   7.064
 3356POPC   C4B44002  38.360  42.577   7.364
 3357POPC   NC344003  24.449  23.689   5.564
 3357POPC   PO444004  24.506  23.734   5.864
 3357POPC   GL144005  24.478  23.706   6.164
 3357POPC   GL244006  24.539  23.864   6.164
 3357POPC   C1A44007  24.519  23.735   6.464
 3357POPC   D2A44008  24.461  23.694   6.764
 3357POPC   C3A44009  24.477  23.734   7.064
 3357POPC   C4A44010  24.485  23.702   7.364
 3357POPC   C1B44011  24.624  23.977   6.464
 3357POPC   C2B44012  24.591  23.943   6.764
 3357POPC   C3B44013  24.592  23.982   7.064
 3357POPC   C4B44014  24.611  23.948   7.364
 3358POPC   NC344015  42.353  43.894   5.564
 3358POPC   PO444016  42.297  43.846   5.864
 3358POPC   GL144017  42.305  43.880   6.164
 3358POPC   GL244018  42.358  43.960   6.164
 3358POPC   C1A44019  42.318  43.874   6.464
 3358POPC   D2A44020  42.307  43.875   6.764
 3358POPC   C3A44021  42.363  43.859   7.064
 3358POPC   C4A44022  42.293  43.928   7.364
 3358POPC   C1B44023  42.453  44.109   6.464
 3358POPC   C2B44024  42.453  44.163   6.764
 3358POPC   C3B44025  42.435  44.153   7.064
 3358POPC   C4B44026  42.424  44.115   7.364
 3359POPC   NC344027  21.343  10.486   5.564
 3359POPC   PO444028  21.417  10.550   5.864
 3359POPC   GL144029  21.408  10.561   6.164
 3359POPC   GL244030  21.514  10.487   6.164
 3359POPC   C1A44031  21.391  10.555   6.464
 3359POPC   D2A44032  21.370  10.478   6.764
 3359POPC   C3A44033  21.349  10.540   7.064
 3359POPC   C4A44034  21.390  10.504   7.364
 3359POPC   C1B44035  21.611  10.345   6.464
 3359POPC   C2B44036  21.575  10.370   6.764
 3359POPC   C3B44037  21.557  10.391   7.064
 3359POPC   C4B44038  21.623  10.362   7.364
 3360POPC   NC344039  30.668  15.211   5.564
 3360POPC   PO444040  30.715  15.199   5.864
 3360POPC   GL144041  30.709  15.157   6.164
 3360POPC   GL244042  30.711  15.100   6.164
 3360POPC   C1A44043  30.730  15.171   6.464
 3360POPC   D2A44044  30.715  15.208   6.764
 3360POPC   C3A44045  30.677  15.171   7.064
 3360POPC   C4A44046  30.664  15.218   7.364
 3360POPC   C1B44047  30.689  14.898   6.464
 3360POPC   C2B44048  30.650  14.895   6.764
 3360POPC   C3B44049  30.680  14.905   7.064
 3360POPC   C4B44050  30.734  14.944   7.364
 3361POPC   NC344051   2.766  25.266   5.564
 3361POPC   PO444052   2.755  25.216   5.864
 3361POPC   GL144053   2.734  25.225   6.164
 3361POPC   GL244054   2.676  25.322   6.164
 3361POPC   C1A44055   2.775  25.247   6.464
 3361POPC   D2A44056   2.728  25.232   6.764
 3361POPC   C3A44057   2.741  25.252   7.064
 3361POPC   C4A44058   2.794  25.236   7.364
 3361POPC   C1B44059   2.492  25.246   6.464
 3361POPC   C2B44060   2.504  25.248   6.764
 3361POPC   C3B44061   2.485  25.253   7.064
 3361POPC   C4B44062   2.540  25.310   7.364
 3362POPC   NC344063  42.290  27.605   5.564
 3362POPC   PO444064  42.343  27.550   5.864
 3362POPC   GL144065  42.306  27.626   6.164
 3362POPC   GL244066  42.376  27.712   6.164
 3362POPC   C1A44067  42.295  27.639   6.464
 3362POPC   D2A44068  42.375  27.556   6.764
 3362POPC   C3A44069  42.304  27.623   7.064
 3362POPC   C4A44070  42.325  27.593   7.364
 3362POPC   C1B44071  42.360  27.861   6.464
 3362POPC   C2B44072  42.334  27.874   6.764
 3362POPC   C3B44073  42.367  27.817   7.064
 3362POPC   C4B44074  42.346  27.812   7.364
 3363POPC   NC344075  22.117   4.357   5.564
 3363POPC   PO444076  22.129   4.309   5.864
 3363POPC   GL144077  22.175   4.294   6.164
 3363POPC   GL244078  22.231   4.212   6.164
 3363POPC   C1A44079  22.135   4.315   6.464
 3363POPC   D2A44080  22.119   4.345   6.764
 3363POPC   C3A44081  22.182   4.342   7.064
 3363POPC   C4A44082  22.167   4.309   7.364
 3363POPC   C1B44083  22.271   4.071   6.464
 3363POPC   C2B44084  22.222   4.052   6.764
 3363POPC   C3B44085  22.289   4.134   7.064
 3363POPC   C4B44086  22.276   4.138   7.364
 3364POPC   NC344087  36.102  30.726   5.564
 3364POPC   PO444088  36.098  30.700   5.864
 3364POPC   GL144089  36.097  30.658   6.164
 3364POPC   GL244090  35.988  30.685   6.164
 3364POPC   C1A44091  36.162  30.669   6.464
 3364POPC   D2A44092  36.175  30.650   6.764
 3364POPC   C3A44093  36.080  30.730   7.064
 3364POPC   C4A44094  36.151  30.700   7.364
 3364POPC   C1B44095  35.899  30.659   6.464
 3364POPC   C2B44096  35.840  30.720   6.764
 3364POPC   C3B44097  35.864  30.753   7.064
 3364POPC   C4B44098  35.885  30.725   7.364
 3365POPC   NC344099   6.662  18.330   5.564
 3365POPC   PO444100   6.679  18.275   5.864
 3365POPC   GL144101   6.672  18.264   6.164
 3365POPC   GL244102   6.569  18.376   6.164
 3365POPC   C1A44103   6.619  18.288   6.464
 3365POPC   D2A44104   6.624  18.256   6.764
 3365POPC   C3A44105   6.632  18.319   7.064
 3365POPC   C4A44106   6.609  18.263   7.364
 3365POPC   C1B44107   6.445  18.339   6.464
 3365POPC   C2B44108   6.395  18.361   6.764
 3365POPC   C3B44109   6.403  18.407   7.064
 3365POPC   C4B44110   6.362  18.330   7.364
 3366POPC   NC344111   9.705  26.071   5.564
 3366POPC   PO444112   9.727  26.081   5.864
 3366POPC   GL144113   9.753  26.053   6.164
 3366POPC   GL244114   9.891  25.941   6.164
 3366POPC   C1A44115   9.771  26.076   6.464
 3366POPC   D2A44116   9.796  26.061   6.764
 3366POPC   C3A44117   9.739  26.048   7.064
 3366POPC   C4A44118   9.746  26.051   7.364
 3366POPC   C1B44119   9.972  25.937   6.464
 3366POPC   C2B44120   9.960  25.900   6.764
 3366POPC   C3B44121   9.995  25.922   7.064
 3366POPC   C4B44122   9.970  25.900   7.364
 3367POPC   NC344123  40.029  15.978   5.564
 3367POPC   PO444124  39.963  15.954   5.864
 3367POPC   GL144125  40.001  15.922   6.164
 3367POPC   GL244126  39.978  16.084   6.164
 3367POPC   C1A44127  40.031  15.906   6.464
 3367POPC   D2A44128  40.027  15.910   6.764
 3367POPC   C3A44129  40.028  15.983   7.064
 3367POPC   C4A44130  40.033  15.963   7.364
 3367POPC   C1B44131  39.860  16.169   6.464
 3367POPC   C2B44132  39.852  16.193   6.764
 3367POPC   C3B44133  39.880  16.214   7.064
 3367POPC   C4B44134  39.843  16.192   7.364
 3368POPC   NC344135  36.176  38.452   5.564
 3368POPC   PO444136  36.139  38.472   5.864
 3368POPC   GL144137  36.175  38.432   6.164
 3368POPC   GL244138  36.159  38.587   6.164
 3368POPC   C1A44139  36.153  38.460   6.464
 3368POPC   D2A44140  36.097  38.464   6.764
 3368POPC   C3A44141  36.087  38.474   7.064
 3368POPC   C4A44142  36.125  38.450   7.364
 3368POPC   C1B44143  36.250  38.690   6.464
 3368POPC   C2B44144  36.291  38.638   6.764
 3368POPC   C3B44145  36.228  38.712   7.064
 3368POPC   C4B44146  36.313  38.627   7.364
 3369POPC   NC344147  44.615   3.583   5.564
 3369POPC   PO444148  44.705   3.493   5.864
 3369POPC   GL144149  44.674   3.590   6.164
 3369POPC   GL244150  44.736   3.442   6.164
 3369POPC   C1A44151  44.687   3.561   6.464
 3369POPC   D2A44152  44.683   3.577   6.764
 3369POPC   C3A44153  44.654   3.574   7.064
 3369POPC   C4A44154  44.698   3.554   7.364
 3369POPC   C1B44155  44.783   3.273   6.464
 3369POPC   C2B44156  44.766   3.314   6.764
 3369POPC   C3B44157  44.794   3.359   7.064
 3369POPC   C4B44158  44.734   3.336   7.364
 3370POPC   NC344159  13.646  41.601   5.564
 3370POPC   PO444160  13.633  41.542   5.864
 3370POPC   GL144161  13.588  41.531   6.164
 3370POPC   GL244162  13.786  41.542   6.164
 3370POPC   C1A44163  13.639  41.532   6.464
 3370POPC   D2A44164  13.592  41.588   6.764
 3370POPC   C3A44165  13.612  41.525   7.064
 3370POPC   C4A44166  13.620  41.514   7.364
 3370POPC   C1B44167  13.848  41.596   6.464
 3370POPC   C2B44168  13.905  41.641   6.764
 3370POPC   C3B44169  13.902  41.604   7.064
 3370POPC   C4B44170  13.902  41.593   7.364
 3371POPC   NC344171  31.515  34.542   5.564
 3371POPC   PO444172  31.438  34.536   5.864
 3371POPC   GL144173  31.509  34.616   6.164
 3371POPC   GL244174  31.571  34.497   6.164
 3371POPC   C1A44175  31.513  34.587   6.464
 3371POPC   D2A44176  31.458  34.532   6.764
 3371POPC   C3A44177  31.474  34.591   7.064
 3371POPC   C4A44178  31.446  34.581   7.364
 3371POPC   C1B44179  31.730  34.488   6.464
 3371POPC   C2B44180  31.643  34.399   6.764
 3371POPC   C3B44181  31.660  34.410   7.064
 3371POPC   C4B44182  31.641  34.453   7.364
 3372POPC   NC344183  26.862   0.449   5.564
 3372POPC   PO444184  26.784   0.391   5.864
 3372POPC   GL144185  26.790   0.433   6.164
 3372POPC   GL244186  26.748   0.320   6.164
 3372POPC   C1A44187  26.796   0.479   6.464
 3372POPC   D2A44188  26.838   0.459   6.764
 3372POPC   C3A44189  26.773   0.470   7.064
 3372POPC   C4A44190  26.799   0.418   7.364
 3372POPC   C1B44191  26.749   0.194   6.464
 3372POPC   C2B44192  26.822   0.181   6.764
 3372POPC   C3B44193  26.791   0.153   7.064
 3372POPC   C4B44194  26.754   0.229   7.364
 3373POPC   NC344195   4.270  19.813   5.564
 3373POPC   PO444196   4.294  19.850   5.864
 3373POPC   GL144197   4.275  19.793   6.164
 3373POPC   GL244198   4.246  19.720   6.164
 3373POPC   C1A44199   4.307  19.790   6.464
 3373POPC   D2A44200   4.353  19.792   6.764
 3373POPC   C3A44201   4.323  19.833   7.064
 3373POPC   C4A44202   4.278  19.821   7.364
 3373POPC   C1B44203   4.128  19.708   6.464
 3373POPC   C2B44204   4.093  19.695   6.764
 3373POPC   C3B44205   4.134  19.671   7.064
 3373POPC   C4B44206   4.119  19.718   7.364
 3374POPC   NC344207  41.570  19.075   5.564
 3374POPC   PO444208  41.596  19.105   5.864
 3374POPC   GL144209  41.601  19.057   6.164
 3374POPC   GL244210  41.463  19.126   6.164
 3374POPC   C1A44211  41.531  19.058   6.464
 3374POPC   D2A44212  41.518  19.059   6.764
 3374POPC   C3A44213  41.586  19.017   7.064
 3374POPC   C4A44214  41.597  19.034   7.364
 3374POPC   C1B44215  41.432  19.247   6.464
 3374POPC   C2B44216  41.395  19.204   6.764
 3374POPC   C3B44217  41.349  19.224   7.064
 3374POPC   C4B44218  41.422  19.207   7.364
 3375POPC   NC344219  21.368  11.338   5.564
 3375POPC   PO444220  21.342  11.338   5.864
 3375POPC   GL144221  21.342  11.267   6.164
 3375POPC   GL244222  21.303  11.247   6.164
 3375POPC   C1A44223  21.427  11.299   6.464
 3375POPC   D2A44224  21.420  11.336   6.764
 3375POPC   C3A44225  21.435  11.265   7.064
 3375POPC   C4A44226  21.427  11.299   7.364
 3375POPC   C1B44227  21.204  11.145   6.464
 3375POPC   C2B44228  21.171  11.123   6.764
 3375POPC   C3B44229  21.142  11.152   7.064
 3375POPC   C4B44230  21.221  11.173   7.364
 3376POPC   NC344231   7.455  33.771   5.564
 3376POPC   PO444232   7.425  33.817   5.864
 3376POPC   GL144233   7.402  33.781   6.164
 3376POPC   GL244234   7.475  33.869   6.164
 3376POPC   C1A44235   7.428  33.776   6.464
 3376POPC   D2A44236   7.464  33.819   6.764
 3376POPC   C3A44237   7.448  33.826   7.064
 3376POPC   C4A44238   7.408  33.835   7.364
 3376POPC   C1B44239   7.564  34.055   6.464
 3376POPC   C2B44240   7.514  34.047   6.764
 3376POPC   C3B44241   7.558  34.025   7.064
 3376POPC   C4B44242   7.536  34.025   7.364
 3377POPC   NC344243  44.703  23.717   5.564
 3377POPC   PO444244  44.643  23.749   5.864
 3377POPC   GL144245  44.667  23.740   6.164
 3377POPC   GL244246  44.732  23.806   6.164
 3377POPC   C1A44247  44.673  23.722   6.464
 3377POPC   D2A44248  44.651  23.680   6.764
 3377POPC   C3A44249  44.700  23.693   7.064
 3377POPC   C4A44250  44.678  23.747   7.364
 3377POPC   C1B44251  44.720  23.970   6.464
 3377POPC   C2B44252  44.802  23.920   6.764
 3377POPC   C3B44253  44.743  23.921   7.064
 3377POPC   C4B44254  44.777  23.912   7.364
 3378POPC   NC344255  30.653  38.469   5.564
 3378POPC   PO444256  30.737  38.447   5.864
 3378POPC   GL144257  30.677  38.436   6.164
 3378POPC   GL244258  30.556  38.357   6.164
 3378POPC   C1A44259  30.692  38.470   6.464
 3378POPC   D2A44260  30.735  38.459   6.764
 3378POPC   C3A44261  30.694  38.447   7.064
 3378POPC   C4A44262  30.713  38.489   7.364
 3378POPC   C1B44263  30.515  38.340   6.464
 3378POPC   C2B44264  30.441  38.377   6.764
 3378POPC   C3B44265  30.502  38.333   7.064
 3378POPC   C4B44266  30.511  38.350   7.364
 3379POPC   NC344267  40.735  44.683   5.564
 3379POPC   PO444268  40.755  44.644   5.864
 3379POPC   GL144269  40.771  44.646   6.164
 3379POPC   GL244270  40.688  44.592   6.164
 3379POPC   C1A44271  40.826  44.687   6.464
 3379POPC   D2A44272  40.821  44.672   6.764
 3379POPC   C3A44273  40.794  44.662   7.064
 3379POPC   C4A44274  40.819  44.701   7.364
 3379POPC   C1B44275  40.646  44.508   6.464
 3379POPC   C2B44276  40.601  44.507   6.764
 3379POPC   C3B44277  40.624  44.484   7.064
 3379POPC   C4B44278  40.604  44.504   7.364
 3380POPC   NC344279  22.171  10.507   5.564
 3380POPC   PO444280  22.187  10.542   5.864
 3380POPC   GL144281  22.179  10.480   6.164
 3380POPC   GL244282  22.316  10.593   6.164
 3380POPC   C1A44283  22.207  10.523   6.464
 3380POPC   D2A44284  22.177  10.502   6.764
 3380POPC   C3A44285  22.208  10.480   7.064
 3380POPC   C4A44286  22.187  10.483   7.364
 3380POPC   C1B44287  22.332  10.683   6.464
 3380POPC   C2B44288  22.337  10.658   6.764
 3380POPC   C3B44289  22.397  10.604   7.064
 3380POPC   C4B44290  22.378  10.649   7.364
 3381POPC   NC344291  19.839   2.005   5.564
 3381POPC   PO444292  19.829   1.945   5.864
 3381POPC   GL144293  19.873   1.947   6.164
 3381POPC   GL244294  19.780   2.105   6.164
 3381POPC   C1A44295  19.859   1.962   6.464
 3381POPC   D2A44296  19.811   1.944   6.764
 3381POPC   C3A44297  19.851   2.010   7.064
 3381POPC   C4A44298  19.884   1.955   7.364
 3381POPC   C1B44299  19.656   2.147   6.464
 3381POPC   C2B44300  19.581   2.172   6.764
 3381POPC   C3B44301  19.628   2.169   7.064
 3381POPC   C4B44302  19.591   2.169   7.364
 3382POPC   NC344303   5.877  39.195   5.564
 3382POPC   PO444304   5.893  39.258   5.864
 3382POPC   GL144305   5.905  39.252   6.164
 3382POPC   GL244306   5.866  39.399   6.164
 3382POPC   C1A44307   5.873  39.222   6.464
 3382POPC   D2A44308   5.819  39.248   6.764
 3382POPC   C3A44309   5.866  39.270   7.064
 3382POPC   C4A44310   5.842  39.272   7.364
 3382POPC   C1B44311   5.892  39.481   6.464
 3382POPC   C2B44312   5.892  39.456   6.764
 3382POPC   C3B44313   5.915  39.481   7.064
 3382POPC   C4B44314   5.880  39.431   7.364
 3383POPC   NC344315   3.584  16.720   5.564
 3383POPC   PO444316   3.498  16.755   5.864
 3383POPC   GL144317   3.525  16.729   6.164
 3383POPC   GL244318   3.537  16.828   6.164
 3383POPC   C1A44319   3.492  16.685   6.464
 3383POPC   D2A44320   3.498  16.715   6.764
 3383POPC   C3A44321   3.567  16.765   7.064
 3383POPC   C4A44322   3.557  16.744   7.364
 3383POPC   C1B44323   3.518  16.988   6.464
 3383POPC   C2B44324   3.555  17.007   6.764
 3383POPC   C3B44325   3.530  16.971   7.064
 3383POPC   C4B44326   3.543  16.944   7.364
 3384POPC   NC344327   3.521  36.175   5.564
 3384POPC   PO444328   3.531  36.097   5.864
 3384POPC   GL144329   3.547  36.169   6.164
 3384POPC   GL244330   3.494  36.264   6.164
 3384POPC   C1A44331   3.575  36.173   6.464
 3384POPC   D2A44332   3.560  36.113   6.764
 3384POPC   C3A44333   3.499  36.135   7.064
 3384POPC   C4A44334   3.507  36.095   7.364
 3384POPC   C1B44335   3.480  36.347   6.464
 3384POPC   C2B44336   3.513  36.420   6.764
 3384POPC   C3B44337   3.533  36.400   7.064
 3384POPC   C4B44338   3.504  36.382   7.364
 3385POPC   NC344339  43.898  28.412   5.564
 3385POPC   PO444340  43.912  28.392   5.864
 3385POPC   GL144341  43.932  28.364   6.164
 3385POPC   GL244342  43.760  28.440   6.164
 3385POPC   C1A44343  43.918  28.393   6.464
 3385POPC   D2A44344  43.870  28.330   6.764
 3385POPC   C3A44345  43.891  28.381   7.064
 3385POPC   C4A44346  43.923  28.348   7.364
 3385POPC   C1B44347  43.662  28.374   6.464
 3385POPC   C2B44348  43.620  28.435   6.764
 3385POPC   C3B44349  43.598  28.369   7.064
 3385POPC   C4B44350  43.603  28.375   7.364
 3386POPC   NC344351  26.089  18.263   5.564
 3386POPC   PO444352  26.067  18.252   5.864
 3386POPC   GL144353  26.018  18.280   6.164
 3386POPC   GL244354  25.993  18.440   6.164
 3386POPC   C1A44355  26.058  18.292   6.464
 3386POPC   D2A44356  26.016  18.327   6.764
 3386POPC   C3A44357  26.020  18.242   7.064
 3386POPC   C4A44358  25.999  18.266   7.364
 3386POPC   C1B44359  25.982  18.523   6.464
 3386POPC   C2B44360  25.953  18.544   6.764
 3386POPC   C3B44361  25.907  18.543   7.064
 3386POPC   C4B44362  25.994  18.465   7.364
 3387POPC   NC344363  21.362   1.181   5.564
 3387POPC   PO444364  21.406   1.243   5.864
 3387POPC   GL144365  21.406   1.262   6.164
 3387POPC   GL244366  21.473   1.262   6.164
 3387POPC   C1A44367  21.434   1.259   6.464
 3387POPC   D2A44368  21.403   1.181   6.764
 3387POPC   C3A44369  21.392   1.195   7.064
 3387POPC   C4A44370  21.373   1.174   7.364
 3387POPC   C1B44371  21.674   1.264   6.464
 3387POPC   C2B44372  21.611   1.202   6.764
 3387POPC   C3B44373  21.607   1.260   7.064
 3387POPC   C4B44374  21.591   1.239   7.364
 3388POPC   NC344375  43.901  33.001   5.564
 3388POPC   PO444376  43.924  33.029   5.864
 3388POPC   GL144377  43.860  33.039   6.164
 3388POPC   GL244378  43.777  33.085   6.164
 3388POPC   C1A44379  43.841  33.065   6.464
 3388POPC   D2A44380  43.886  33.000   6.764
 3388POPC   C3A44381  43.934  33.024   7.064
 3388POPC   C4A44382  43.899  33.011   7.364
 3388POPC   C1B44383  43.716  33.225   6.464
 3388POPC   C2B44384  43.675  33.209   6.764
 3388POPC   C3B44385  43.751  33.227   7.064
 3388POPC   C4B44386  43.706  33.163   7.364
 3389POPC   NC344387  36.943  18.245   5.564
 3389POPC   PO444388  36.898  18.293   5.864
 3389POPC   GL144389  36.919  18.245   6.164
 3389POPC   GL244390  36.850  18.187   6.164
 3389POPC   C1A44391  36.942  18.242   6.464
 3389POPC   D2A44392  36.874  18.237   6.764
 3389POPC   C3A44393  36.915  18.271   7.064
 3389POPC   C4A44394  36.911  18.277   7.364
 3389POPC   C1B44395  36.756  18.008   6.464
 3389POPC   C2B44396  36.832  18.087   6.764
 3389POPC   C3B44397  36.804  18.026   7.064
 3389POPC   C4B44398  36.833  18.042   7.364
 3390POPC   NC344399  36.902  12.057   5.564
 3390POPC   PO444400  36.890  12.041   5.864
 3390POPC   GL144401  36.922  12.032   6.164
 3390POPC   GL244402  36.913  11.967   6.164
 3390POPC   C1A44403  36.865  12.048   6.464
 3390POPC   D2A44404  36.895  12.077   6.764
 3390POPC   C3A44405  36.933  12.037   7.064
 3390POPC   C4A44406  36.905  12.032   7.364
 3390POPC   C1B44407  36.882  11.809   6.464
 3390POPC   C2B44408  36.862  11.784   6.764
 3390POPC   C3B44409  36.862  11.833   7.064
 3390POPC   C4B44410  36.842  11.834   7.364
 3391POPC   NC344411  26.786  32.228   5.564
 3391POPC   PO444412  26.794  32.286   5.864
 3391POPC   GL144413  26.838  32.245   6.164
 3391POPC   GL244414  26.911  32.322   6.164
 3391POPC   C1A44415  26.823  32.219   6.464
 3391POPC   D2A44416  26.837  32.245   6.764
 3391POPC   C3A44417  26.827  32.285   7.064
 3391POPC   C4A44418  26.805  32.270   7.364
 3391POPC   C1B44419  27.091  32.354   6.464
 3391POPC   C2B44420  27.046  32.336   6.764
 3391POPC   C3B44421  27.045  32.381   7.064
 3391POPC   C4B44422  27.066  32.287   7.364
 3392POPC   NC344423  33.045  36.169   5.564
 3392POPC   PO444424  33.044  36.132   5.864
 3392POPC   GL144425  33.005  36.157   6.164
 3392POPC   GL244426  33.087  36.031   6.164
 3392POPC   C1A44427  33.012  36.112   6.464
 3392POPC   D2A44428  33.008  36.140   6.764
 3392POPC   C3A44429  33.073  36.086   7.064
 3392POPC   C4A44430  33.004  36.176   7.364
 3392POPC   C1B44431  33.050  35.869   6.464
 3392POPC   C2B44432  33.069  35.930   6.764
 3392POPC   C3B44433  33.104  35.844   7.064
 3392POPC   C4B44434  33.038  35.876   7.364
 3393POPC   NC344435  44.657  36.090   5.564
 3393POPC   PO444436  44.625  36.082   5.864
 3393POPC   GL144437  44.674  36.117   6.164
 3393POPC   GL244438  44.690  36.020   6.164
 3393POPC   C1A44439  44.677  36.170   6.464
 3393POPC   D2A44440  44.643  36.099   6.764
 3393POPC   C3A44441  44.688  36.161   7.064
 3393POPC   C4A44442  44.701  36.114   7.364
 3393POPC   C1B44443  44.755  35.910   6.464
 3393POPC   C2B44444  44.758  35.943   6.764
 3393POPC   C3B44445  44.730  35.850   7.064
 3393POPC   C4B44446  44.800  35.916   7.364
 3394POPC   NC344447  27.625  16.750   5.564
 3394POPC   PO444448  27.559  16.745   5.864
 3394POPC   GL144449  27.619  16.699   6.164
 3394POPC   GL244450  27.614  16.825   6.164
 3394POPC   C1A44451  27.606  16.752   6.464
 3394POPC   D2A44452  27.590  16.762   6.764
 3394POPC   C3A44453  27.589  16.706   7.064
 3394POPC   C4A44454  27.550  16.691   7.364
 3394POPC   C1B44455  27.724  16.925   6.464
 3394POPC   C2B44456  27.774  16.933   6.764
 3394POPC   C3B44457  27.701  16.979   7.064
 3394POPC   C4B44458  27.739  16.915   7.364
 3395POPC   NC344459   3.498   0.478   5.564
 3395POPC   PO444460   3.561   0.451   5.864
 3395POPC   GL144461   3.569   0.447   6.164
 3395POPC   GL244462   3.702   0.471   6.164
 3395POPC   C1A44463   3.528   0.469   6.464
 3395POPC   D2A44464   3.557   0.454   6.764
 3395POPC   C3A44465   3.550   0.410   7.064
 3395POPC   C4A44466   3.498   0.444   7.364
 3395POPC   C1B44467   3.811   0.555   6.464
 3395POPC   C2B44468   3.735   0.486   6.764
 3395POPC   C3B44469   3.758   0.485   7.064
 3395POPC   C4B44470   3.820   0.501   7.364
 3396POPC   NC344471  39.274  19.031   5.564
 3396POPC   PO444472  39.279  19.059   5.864
 3396POPC   GL144473  39.203  19.035   6.164
 3396POPC   GL244474  39.341  19.137   6.164
 3396POPC   C1A44475  39.224  19.056   6.464
 3396POPC   D2A44476  39.279  19.107   6.764
 3396POPC   C3A44477  39.235  19.024   7.064
 3396POPC   C4A44478  39.227  19.044   7.364
 3396POPC   C1B44479  39.413  19.303   6.464
 3396POPC   C2B44480  39.412  19.215   6.764
 3396POPC   C3B44481  39.433  19.251   7.064
 3396POPC   C4B44482  39.409  19.284   7.364
 3397POPC   NC344483   2.725  34.600   5.564
 3397POPC   PO444484   2.771  34.611   5.864
 3397POPC   GL144485   2.754  34.574   6.164
 3397POPC   GL244486   2.747  34.667   6.164
 3397POPC   C1A44487   2.803  34.588   6.464
 3397POPC   D2A44488   2.759  34.534   6.764
 3397POPC   C3A44489   2.771  34.588   7.064
 3397POPC   C4A44490   2.764  34.539   7.364
 3397POPC   C1B44491   2.775  34.832   6.464
 3397POPC   C2B44492   2.795  34.873   6.764
 3397POPC   C3B44493   2.726  34.802   7.064
 3397POPC   C4B44494   2.746  34.780   7.364
 3398POPC   NC344495  44.694  43.891   5.564
 3398POPC   PO444496  44.710  43.934   5.864
 3398POPC   GL144497  44.706  43.880   6.164
 3398POPC   GL244498  44.813  43.891   6.164
 3398POPC   C1A44499  44.688  43.916   6.464
 3398POPC   D2A44500  44.693  43.839   6.764
 3398POPC   C3A44501  44.638  43.930   7.064
 3398POPC   C4A44502  44.659  43.905   7.364
 3398POPC   C1B44503  44.865  43.846   6.464
 3398POPC   C2B44504  44.886  43.850   6.764
 3398POPC   C3B44505  44.876  43.783   7.064
 3398POPC   C4B44506  44.941  43.802   7.364
 3399POPC   NC344507  26.054   0.392   5.564
 3399POPC   PO444508  26.042   0.416   5.864
 3399POPC   GL144509  26.053   0.468   6.164
 3399POPC   GL244510  25.935   0.412   6.164
 3399POPC   C1A44511  26.035   0.459   6.464
 3399POPC   D2A44512  26.035   0.406   6.764
 3399POPC   C3A44513  26.029   0.414   7.064
 3399POPC   C4A44514  26.038   0.402   7.364
 3399POPC   C1B44515  25.809   0.345   6.464
 3399POPC   C2B44516  25.836   0.305   6.764
 3399POPC   C3B44517  25.823   0.352   7.064
 3399POPC   C4B44518  25.852   0.355   7.364
 3400POPC   NC344519  12.807  31.458   5.564
 3400POPC   PO444520  12.834  31.457   5.864
 3400POPC   GL144521  12.830  31.446   6.164
 3400POPC   GL244522  12.728  31.487   6.164
 3400POPC   C1A44523  12.819  31.492   6.464
 3400POPC   D2A44524  12.873  31.494   6.764
 3400POPC   C3A44525  12.812  31.481   7.064
 3400POPC   C4A44526  12.891  31.473   7.364
 3400POPC   C1B44527  12.602  31.426   6.464
 3400POPC   C2B44528  12.647  31.493   6.764
 3400POPC   C3B44529  12.566  31.463   7.064
 3400POPC   C4B44530  12.631  31.506   7.364
 3401POPC   NC344531  41.587  19.855   5.564
 3401POPC   PO444532  41.543  19.809   5.864
 3401POPC   GL144533  41.542  19.847   6.164
 3401POPC   GL244534  41.489  19.957   6.164
 3401POPC   C1A44535  41.531  19.794   6.464
 3401POPC   D2A44536  41.589  19.821   6.764
 3401POPC   C3A44537  41.551  19.792   7.064
 3401POPC   C4A44538  41.522  19.874   7.364
 3401POPC   C1B44539  41.381  20.019   6.464
 3401POPC   C2B44540  41.314  20.034   6.764
 3401POPC   C3B44541  41.368  20.031   7.064
 3401POPC   C4B44542  41.375  20.001   7.364
 3402POPC   NC344543   4.269  12.034   5.564
 3402POPC   PO444544   4.327  12.083   5.864
 3402POPC   GL144545   4.315  12.049   6.164
 3402POPC   GL244546   4.308  12.190   6.164
 3402POPC   C1A44547   4.318  12.061   6.464
 3402POPC   D2A44548   4.366  12.117   6.764
 3402POPC   C3A44549   4.338  12.065   7.064
 3402POPC   C4A44550   4.349  12.069   7.364
 3402POPC   C1B44551   4.290  12.356   6.464
 3402POPC   C2B44552   4.337  12.350   6.764
 3402POPC   C3B44553   4.327  12.296   7.064
 3402POPC   C4B44554   4.261  12.324   7.364
 3403POPC   NC344555  23.702   2.728   5.564
 3403POPC   PO444556  23.761   2.808   5.864
 3403POPC   GL144557  23.701   2.755   6.164
 3403POPC   GL244558  23.830   2.692   6.164
 3403POPC   C1A44559  23.686   2.774   6.464
 3403POPC   D2A44560  23.716   2.779   6.764
 3403POPC   C3A44561  23.753   2.761   7.064
 3403POPC   C4A44562  23.745   2.747   7.364
 3403POPC   C1B44563  23.914   2.661   6.464
 3403POPC   C2B44564  23.900   2.687   6.764
 3403POPC   C3B44565  23.912   2.654   7.064
 3403POPC   C4B44566  23.966   2.706   7.364
 3404POPC   NC344567  27.638   6.619   5.564
 3404POPC   PO444568  27.605   6.644   5.864
 3404POPC   GL144569  27.637   6.649   6.164
 3404POPC   GL244570  27.532   6.723   6.164
 3404POPC   C1A44571  27.579   6.618   6.464
 3404POPC   D2A44572  27.642   6.630   6.764
 3404POPC   C3A44573  27.608   6.637   7.064
 3404POPC   C4A44574  27.641   6.692   7.364
 3404POPC   C1B44575  27.394   6.758   6.464
 3404POPC   C2B44576  27.410   6.843   6.764
 3404POPC   C3B44577  27.433   6.778   7.064
 3404POPC   C4B44578  27.402   6.842   7.364
 3405POPC   NC344579   9.780  29.159   5.564
 3405POPC   PO444580   9.752  29.117   5.864
 3405POPC   GL144581   9.700  29.117   6.164
 3405POPC   GL244582   9.897  29.190   6.164
 3405POPC   C1A44583   9.706  29.175   6.464
 3405POPC   D2A44584   9.788  29.099   6.764
 3405POPC   C3A44585   9.716  29.139   7.064
 3405POPC   C4A44586   9.705  29.163   7.364
 3405POPC   C1B44587   9.970  29.294   6.464
 3405POPC   C2B44588   9.989  29.295   6.764
 3405POPC   C3B44589   9.903  29.298   7.064
 3405POPC   C4B44590   9.971  29.299   7.364
 3406POPC   NC344591  27.581   2.741   5.564
 3406POPC   PO444592  27.630   2.809   5.864
 3406POPC   GL144593  27.564   2.748   6.164
 3406POPC   GL244594  27.716   2.819   6.164
 3406POPC   C1A44595  27.607   2.765   6.464
 3406POPC   D2A44596  27.576   2.751   6.764
 3406POPC   C3A44597  27.606   2.779   7.064
 3406POPC   C4A44598  27.564   2.763   7.364
 3406POPC   C1B44599  27.796   2.935   6.464
 3406POPC   C2B44600  27.814   2.884   6.764
 3406POPC   C3B44601  27.794   2.907   7.064
 3406POPC   C4B44602  27.816   2.916   7.364
 3407POPC   NC344603  33.802   8.204   5.564
 3407POPC   PO444604  33.845   8.224   5.864
 3407POPC   GL144605  33.815   8.226   6.164
 3407POPC   GL244606  33.769   8.078   6.164
 3407POPC   C1A44607  33.794   8.197   6.464
 3407POPC   D2A44608  33.784   8.223   6.764
 3407POPC   C3A44609  33.810   8.234   7.064
 3407POPC   C4A44610  33.829   8.148   7.364
 3407POPC   C1B44611  33.733   7.938   6.464
 3407POPC   C2B44612  33.783   7.976   6.764
 3407POPC   C3B44613  33.793   7.907   7.064
 3407POPC   C4B44614  33.790   7.912   7.364
 3408POPC   NC344615  13.628  24.520   5.564
 3408POPC   PO444616  13.611  24.477   5.864
 3408POPC   GL144617  13.603  24.523   6.164
 3408POPC   GL244618  13.751  24.542   6.164
 3408POPC   C1A44619  13.585  24.526   6.464
 3408POPC   D2A44620  13.607  24.531   6.764
 3408POPC   C3A44621  13.645  24.490   7.064
 3408POPC   C4A44622  13.583  24.489   7.364
 3408POPC   C1B44623  13.890  24.579   6.464
 3408POPC   C2B44624  13.896  24.614   6.764
 3408POPC   C3B44625  13.818  24.639   7.064
 3408POPC   C4B44626  13.819  24.562   7.364
 3409POPC   NC344627  42.341  16.776   5.564
 3409POPC   PO444628  42.338  16.734   5.864
 3409POPC   GL144629  42.378  16.775   6.164
 3409POPC   GL244630  42.269  16.667   6.164
 3409POPC   C1A44631  42.303  16.779   6.464
 3409POPC   D2A44632  42.286  16.705   6.764
 3409POPC   C3A44633  42.327  16.700   7.064
 3409POPC   C4A44634  42.338  16.693   7.364
 3409POPC   C1B44635  42.161  16.540   6.464
 3409POPC   C2B44636  42.207  16.542   6.764
 3409POPC   C3B44637  42.183  16.506   7.064
 3409POPC   C4B44638  42.195  16.507   7.364
 3410POPC   NC344639  22.906  13.626   5.564
 3410POPC   PO444640  22.985  13.661   5.864
 3410POPC   GL144641  22.959  13.614   6.164
 3410POPC   GL244642  22.994  13.716   6.164
 3410POPC   C1A44643  22.915  13.672   6.464
 3410POPC   D2A44644  22.958  13.582   6.764
 3410POPC   C3A44645  22.899  13.626   7.064
 3410POPC   C4A44646  22.919  13.671   7.364
 3410POPC   C1B44647  23.019  13.883   6.464
 3410POPC   C2B44648  23.064  13.806   6.764
 3410POPC   C3B44649  23.094  13.814   7.064
 3410POPC   C4B44650  23.068  13.819   7.364
 3411POPC   NC344651  36.874  17.491   5.564
 3411POPC   PO444652  36.920  17.533   5.864
 3411POPC   GL144653  36.895  17.494   6.164
 3411POPC   GL244654  36.922  17.347   6.164
 3411POPC   C1A44655  36.881  17.556   6.464
 3411POPC   D2A44656  36.945  17.459   6.764
 3411POPC   C3A44657  36.880  17.524   7.064
 3411POPC   C4A44658  36.879  17.493   7.364
 3411POPC   C1B44659  36.996  17.268   6.464
 3411POPC   C2B44660  36.944  17.304   6.764
 3411POPC   C3B44661  36.954  17.285   7.064
 3411POPC   C4B44662  36.966  17.232   7.364
 3412POPC   NC344663   7.391  41.518   5.564
 3412POPC   PO444664   7.388  41.577   5.864
 3412POPC   GL144665   7.375  41.539   6.164
 3412POPC   GL244666   7.546  41.622   6.164
 3412POPC   C1A44667   7.416  41.598   6.464
 3412POPC   D2A44668   7.439  41.532   6.764
 3412POPC   C3A44669   7.420  41.580   7.064
 3412POPC   C4A44670   7.468  41.533   7.364
 3412POPC   C1B44671   7.708  41.621   6.464
 3412POPC   C2B44672   7.708  41.587   6.764
 3412POPC   C3B44673   7.683  41.612   7.064
 3412POPC   C4B44674   7.660  41.632   7.364
 3413POPC   NC344675  44.701   5.878   5.564
 3413POPC   PO444676  44.653   5.832   5.864
 3413POPC   GL144677  44.671   5.842   6.164
 3413POPC   GL244678  44.687   6.001   6.164
 3413POPC   C1A44679  44.658   5.823   6.464
 3413POPC   D2A44680  44.629   5.890   6.764
 3413POPC   C3A44681  44.695   5.894   7.064
 3413POPC   C4A44682  44.655   5.843   7.364
 3413POPC   C1B44683  44.666   6.158   6.464
 3413POPC   C2B44684  44.568   6.117   6.764
 3413POPC   C3B44685  44.612   6.074   7.064
 3413POPC   C4B44686  44.628   6.080   7.364
 3414POPC   NC344687  42.332  24.446   5.564
 3414POPC   PO444688  42.338  24.531   5.864
 3414POPC   GL144689  42.383  24.510   6.164
 3414POPC   GL244690  42.404  24.565   6.164
 3414POPC   C1A44691  42.329  24.489   6.464
 3414POPC   D2A44692  42.347  24.511   6.764
 3414POPC   C3A44693  42.370  24.506   7.064
 3414POPC   C4A44694  42.371  24.510   7.364
 3414POPC   C1B44695  42.563  24.610   6.464
 3414POPC   C2B44696  42.551  24.589   6.764
 3414POPC   C3B44697  42.589  24.538   7.064
 3414POPC   C4B44698  42.538  24.558   7.364
 3415POPC   NC344699  31.486  44.708   5.564
 3415POPC   PO444700  31.427  44.710   5.864
 3415POPC   GL144701  31.437  44.647   6.164
 3415POPC   GL244702  31.410  44.512   6.164
 3415POPC   C1A44703  31.467  44.698   6.464
 3415POPC   D2A44704  31.452  44.658   6.764
 3415POPC   C3A44705  31.520  44.639   7.064
 3415POPC   C4A44706  31.470  44.687   7.364
 3415POPC   C1B44707  31.343  44.489   6.464
 3415POPC   C2B44708  31.365  44.417   6.764
 3415POPC   C3B44709  31.304  44.484   7.064
 3415POPC   C4B44710  31.368  44.427   7.364
 3416POPC   NC344711  44.663  28.321   5.564
 3416POPC   PO444712  44.626  28.396   5.864
 3416POPC   GL144713  44.670  28.377   6.164
 3416POPC   GL244714  44.681  28.491   6.164
 3416POPC   C1A44715  44.702  28.351   6.464
 3416POPC   D2A44716  44.665  28.401   6.764
 3416POPC   C3A44717  44.668  28.397   7.064
 3416POPC   C4A44718  44.629  28.325   7.364
 3416POPC   C1B44719  44.674  28.574   6.464
 3416POPC   C2B44720  44.764  28.638   6.764
 3416POPC   C3B44721  44.694  28.596   7.064
 3416POPC   C4B44722  44.722  28.628   7.364
 3417POPC   NC344723   9.709   5.065   5.564
 3417POPC   PO444724   9.796   5.118   5.864
 3417POPC   GL144725   9.727   5.087   6.164
 3417POPC   GL244726   9.908   5.078   6.164
 3417POPC   C1A44727   9.796   5.084   6.464
 3417POPC   D2A44728   9.713   5.131   6.764
 3417POPC   C3A44729   9.784   5.122   7.064
 3417POPC   C4A44730   9.772   5.085   7.364
 3417POPC   C1B44731   9.944   4.993   6.464
 3417POPC   C2B44732   9.982   5.055   6.764
 3417POPC   C3B44733  10.003   5.004   7.064
 3417POPC   C4B44734   9.994   4.970   7.364
 3418POPC   NC344735  22.985  22.926   5.564
 3418POPC   PO444736  22.895  22.891   5.864
 3418POPC   GL144737  22.988  22.893   6.164
 3418POPC   GL244738  22.923  22.814   6.164
 3418POPC   C1A44739  22.938  22.939   6.464
 3418POPC   D2A44740  22.926  22.927   6.764
 3418POPC   C3A44741  22.944  22.952   7.064
 3418POPC   C4A44742  22.944  22.920   7.364
 3418POPC   C1B44743  22.976  22.656   6.464
 3418POPC   C2B44744  22.940  22.725   6.764
 3418POPC   C3B44745  22.960  22.693   7.064
 3418POPC   C4B44746  22.986  22.675   7.364
 3419POPC   NC344747  41.604  11.313   5.564
 3419POPC   PO444748  41.565  11.280   5.864
 3419POPC   GL144749  41.571  11.343   6.164
 3419POPC   GL244750  41.613  11.355   6.164
 3419POPC   C1A44751  41.589  11.264   6.464
 3419POPC   D2A44752  41.546  11.331   6.764
 3419POPC   C3A44753  41.532  11.315   7.064
 3419POPC   C4A44754  41.573  11.301   7.364
 3419POPC   C1B44755  41.757  11.460   6.464
 3419POPC   C2B44756  41.750  11.458   6.764
 3419POPC   C3B44757  41.746  11.514   7.064
 3419POPC   C4B44758  41.714  11.521   7.364
 3420POPC   NC344759  38.500  25.278   5.564
 3420POPC   PO444760  38.447  25.287   5.864
 3420POPC   GL144761  38.457  25.285   6.164
 3420POPC   GL244762  38.480  25.187   6.164
 3420POPC   C1A44763  38.416  25.261   6.464
 3420POPC   D2A44764  38.417  25.240   6.764
 3420POPC   C3A44765  38.435  25.263   7.064
 3420POPC   C4A44766  38.464  25.221   7.364
 3420POPC   C1B44767  38.593  25.010   6.464
 3420POPC   C2B44768  38.588  25.066   6.764
 3420POPC   C3B44769  38.534  25.038   7.064
 3420POPC   C4B44770  38.590  25.038   7.364
 3421POPC   NC344771   6.598  19.857   5.564
 3421POPC   PO444772   6.596  19.851   5.864
 3421POPC   GL144773   6.656  19.795   6.164
 3421POPC   GL244774   6.767  19.825   6.164
 3421POPC   C1A44775   6.652  19.830   6.464
 3421POPC   D2A44776   6.612  19.801   6.764
 3421POPC   C3A44777   6.608  19.872   7.064
 3421POPC   C4A44778   6.628  19.803   7.364
 3421POPC   C1B44779   6.906  19.740   6.464
 3421POPC   C2B44780   6.837  19.672   6.764
 3421POPC   C3B44781   6.872  19.748   7.064
 3421POPC   C4B44782   6.914  19.727   7.364
 3422POPC   NC344783  40.786   7.384   5.564
 3422POPC   PO444784  40.803   7.394   5.864
 3422POPC   GL144785  40.829   7.405   6.164
 3422POPC   GL244786  40.873   7.472   6.164
 3422POPC   C1A44787  40.784   7.392   6.464
 3422POPC   D2A44788  40.798   7.427   6.764
 3422POPC   C3A44789  40.735   7.464   7.064
 3422POPC   C4A44790  40.793   7.401   7.364
 3422POPC   C1B44791  41.012   7.546   6.464
 3422POPC   C2B44792  40.994   7.484   6.764
 3422POPC   C3B44793  41.009   7.482   7.064
 3422POPC   C4B44794  41.015   7.545   7.364
 3423POPC   NC344795  12.814  40.820   5.564
 3423POPC   PO444796  12.891  40.779   5.864
 3423POPC   GL144797  12.847  40.787   6.164
 3423POPC   GL244798  12.871  40.863   6.164
 3423POPC   C1A44799  12.888  40.789   6.464
 3423POPC   D2A44800  12.867  40.764   6.764
 3423POPC   C3A44801  12.818  40.737   7.064
 3423POPC   C4A44802  12.870  40.754   7.364
 3423POPC   C1B44803  12.840  41.028   6.464
 3423POPC   C2B44804  12.804  41.028   6.764
 3423POPC   C3B44805  12.814  41.006   7.064
 3423POPC   C4B44806  12.805  41.006   7.364
 3424POPC   NC344807  12.090  36.095   5.564
 3424POPC   PO444808  12.124  36.109   5.864
 3424POPC   GL144809  12.061  36.171   6.164
 3424POPC   GL244810  12.151  36.064   6.164
 3424POPC   C1A44811  12.079  36.103   6.464
 3424POPC   D2A44812  12.028  36.157   6.764
 3424POPC   C3A44813  12.106  36.160   7.064
 3424POPC   C4A44814  12.110  36.114   7.364
 3424POPC   C1B44815  12.198  35.939   6.464
 3424POPC   C2B44816  12.175  35.946   6.764
 3424POPC   C3B44817  12.225  35.890   7.064
 3424POPC   C4B44818  12.215  35.937   7.364
 3425POPC   NC344819  32.231  12.895   5.564
 3425POPC   PO444820  32.257  12.822   5.864
 3425POPC   GL144821  32.241  12.895   6.164
 3425POPC   GL244822  32.414  12.887   6.164
 3425POPC   C1A44823  32.220  12.859   6.464
 3425POPC   D2A44824  32.217  12.857   6.764
 3425POPC   C3A44825  32.286  12.880   7.064
 3425POPC   C4A44826  32.227  12.898   7.364
 3425POPC   C1B44827  32.537  12.925   6.464
 3425POPC   C2B44828  32.442  12.874   6.764
 3425POPC   C3B44829  32.478  12.883   7.064
 3425POPC   C4B44830  32.442  12.887   7.364
 3426POPC   NC344831  15.927  23.725   5.564
 3426POPC   PO444832  15.947  23.681   5.864
 3426POPC   GL144833  15.945  23.694   6.164
 3426POPC   GL244834  15.878  23.763   6.164
 3426POPC   C1A44835  15.971  23.700   6.464
 3426POPC   D2A44836  15.914  23.701   6.764
 3426POPC   C3A44837  15.964  23.680   7.064
 3426POPC   C4A44838  15.996  23.749   7.364
 3426POPC   C1B44839  15.729  23.698   6.464
 3426POPC   C2B44840  15.683  23.746   6.764
 3426POPC   C3B44841  15.741  23.767   7.064
 3426POPC   C4B44842  15.696  23.707   7.364
 3427POPC   NC344843   6.692  33.834   5.564
 3427POPC   PO444844   6.604  33.836   5.864
 3427POPC   GL144845   6.605  33.757   6.164
 3427POPC   GL244846   6.582  33.645   6.164
 3427POPC   C1A44847   6.603  33.767   6.464
 3427POPC   D2A44848   6.689  33.833   6.764
 3427POPC   C3A44849   6.619  33.786   7.064
 3427POPC   C4A44850   6.643  33.800   7.364
 3427POPC   C1B44851   6.489  33.625   6.464
 3427POPC   C2B44852   6.571  33.553   6.764
 3427POPC   C3B44853   6.500  33.607   7.064
 3427POPC   C4B44854   6.562  33.529   7.364
 3428POPC   NC344855   8.933   8.217   5.564
 3428POPC   PO444856   8.960   8.173   5.864
 3428POPC   GL144857   8.976   8.204   6.164
 3428POPC   GL244858   8.892   8.125   6.164
 3428POPC   C1A44859   8.938   8.229   6.464
 3428POPC   D2A44860   8.976   8.163   6.764
 3428POPC   C3A44861   8.944   8.184   7.064
 3428POPC   C4A44862   8.953   8.214   7.364
 3428POPC   C1B44863   8.831   7.917   6.464
 3428POPC   C2B44864   8.846   7.959   6.764
 3428POPC   C3B44865   8.922   7.987   7.064
 3428POPC   C4B44866   8.856   7.954   7.364
 3429POPC   NC344867  15.164  34.564   5.564
 3429POPC   PO444868  15.135  34.547   5.864
 3429POPC   GL144869  15.210  34.536   6.164
 3429POPC   GL244870  15.243  34.699   6.164
 3429POPC   C1A44871  15.149  34.557   6.464
 3429POPC   D2A44872  15.158  34.561   6.764
 3429POPC   C3A44873  15.218  34.576   7.064
 3429POPC   C4A44874  15.191  34.566   7.364
 3429POPC   C1B44875  15.419  34.723   6.464
 3429POPC   C2B44876  15.391  34.767   6.764
 3429POPC   C3B44877  15.386  34.770   7.064
 3429POPC   C4B44878  15.355  34.767   7.364
 3430POPC   NC344879  11.332  38.445   5.564
 3430POPC   PO444880  11.293  38.425   5.864
 3430POPC   GL144881  11.331  38.421   6.164
 3430POPC   GL244882  11.195  38.525   6.164
 3430POPC   C1A44883  11.269  38.422   6.464
 3430POPC   D2A44884  11.343  38.461   6.764
 3430POPC   C3A44885  11.288  38.440   7.064
 3430POPC   C4A44886  11.288  38.484   7.364
 3430POPC   C1B44887  11.051  38.555   6.464
 3430POPC   C2B44888  11.107  38.495   6.764
 3430POPC   C3B44889  11.086  38.547   7.064
 3430POPC   C4B44890  11.049  38.505   7.364
 3431POPC   NC344891   0.456  34.584   5.564
 3431POPC   PO444892   0.404  34.534   5.864
 3431POPC   GL144893   0.478  34.532   6.164
 3431POPC   GL244894   0.413  34.654   6.164
 3431POPC   C1A44895   0.467  34.597   6.464
 3431POPC   D2A44896   0.455  34.526   6.764
 3431POPC   C3A44897   0.447  34.595   7.064
 3431POPC   C4A44898   0.463  34.554   7.364
 3431POPC   C1B44899   0.465  34.845   6.464
 3431POPC   C2B44900   0.428  34.803   6.764
 3431POPC   C3B44901   0.489  34.802   7.064
 3431POPC   C4B44902   0.468  34.858   7.364
 3432POPC   NC344903  39.964  22.907   5.564
 3432POPC   PO444904  39.966  22.944   5.864
 3432POPC   GL144905  40.017  22.944   6.164
 3432POPC   GL244906  40.134  22.996   6.164
 3432POPC   C1A44907  39.959  22.903   6.464
 3432POPC   D2A44908  40.020  22.937   6.764
 3432POPC   C3A44909  40.049  22.951   7.064
 3432POPC   C4A44910  40.009  22.912   7.364
 3432POPC   C1B44911  40.241  23.056   6.464
 3432POPC   C2B44912  40.240  23.085   6.764
 3432POPC   C3B44913  40.262  23.093   7.064
 3432POPC   C4B44914  40.191  23.024   7.364
 3433POPC   NC344915  29.941  20.636   5.564
 3433POPC   PO444916  29.913  20.562   5.864
 3433POPC   GL144917  29.938  20.646   6.164
 3433POPC   GL244918  29.954  20.497   6.164
 3433POPC   C1A44919  29.919  20.573   6.464
 3433POPC   D2A44920  29.918  20.640   6.764
 3433POPC   C3A44921  29.895  20.615   7.064
 3433POPC   C4A44922  29.964  20.570   7.364
 3433POPC   C1B44923  29.951  20.387   6.464
 3433POPC   C2B44924  29.942  20.317   6.764
 3433POPC   C3B44925  29.960  20.325   7.064
 3433POPC   C4B44926  29.967  20.365   7.364
 3434POPC   NC344927  22.912  17.527   5.564
 3434POPC   PO444928  22.908  17.541   5.864
 3434POPC   GL144929  22.909  17.515   6.164
 3434POPC   GL244930  22.774  17.538   6.164
 3434POPC   C1A44931  22.944  17.529   6.464
 3434POPC   D2A44932  22.936  17.534   6.764
 3434POPC   C3A44933  22.938  17.476   7.064
 3434POPC   C4A44934  22.932  17.549   7.364
 3434POPC   C1B44935  22.671  17.590   6.464
 3434POPC   C2B44936  22.692  17.577   6.764
 3434POPC   C3B44937  22.669  17.615   7.064
 3434POPC   C4B44938  22.660  17.527   7.364
 3435POPC   NC344939   1.955  44.669   5.564
 3435POPC   PO444940   1.995  44.677   5.864
 3435POPC   GL144941   2.021  44.669   6.164
 3435POPC   GL244942   1.921  44.750   6.164
 3435POPC   C1A44943   1.946  44.653   6.464
 3435POPC   D2A44944   2.015  44.615   6.764
 3435POPC   C3A44945   1.989  44.681   7.064
 3435POPC   C4A44946   1.953  44.619   7.364
 3435POPC   C1B44947   1.741  44.841   6.464
 3435POPC   C2B44948   1.738  44.759   6.764
 3435POPC   C3B44949   1.775  44.792   7.064
 3435POPC   C4B44950   1.789  44.763   7.364
 3436POPC   NC344951  10.497  16.690   5.564
 3436POPC   PO444952  10.573  16.702   5.864
 3436POPC   GL144953  10.556  16.719   6.164
 3436POPC   GL244954  10.475  16.655   6.164
 3436POPC   C1A44955  10.530  16.744   6.464
 3436POPC   D2A44956  10.542  16.748   6.764
 3436POPC   C3A44957  10.503  16.718   7.064
 3436POPC   C4A44958  10.563  16.712   7.364
 3436POPC   C1B44959  10.435  16.465   6.464
 3436POPC   C2B44960  10.415  16.549   6.764
 3436POPC   C3B44961  10.427  16.461   7.064
 3436POPC   C4B44962  10.399  16.541   7.364
 3437POPC   NC344963  14.384  10.520   5.564
 3437POPC   PO444964  14.421  10.544   5.864
 3437POPC   GL144965  14.453  10.551   6.164
 3437POPC   GL244966  14.297  10.540   6.164
 3437POPC   C1A44967  14.422  10.526   6.464
 3437POPC   D2A44968  14.385  10.477   6.764
 3437POPC   C3A44969  14.399  10.557   7.064
 3437POPC   C4A44970  14.411  10.525   7.364
 3437POPC   C1B44971  14.167  10.547   6.464
 3437POPC   C2B44972  14.137  10.537   6.764
 3437POPC   C3B44973  14.134  10.529   7.064
 3437POPC   C4B44974  14.201  10.602   7.364
 3438POPC   NC344975  34.605  23.701   5.564
 3438POPC   PO444976  34.558  23.717   5.864
 3438POPC   GL144977  34.548  23.760   6.164
 3438POPC   GL244978  34.708  23.706   6.164
 3438POPC   C1A44979  34.607  23.680   6.464
 3438POPC   D2A44980  34.606  23.759   6.764
 3438POPC   C3A44981  34.547  23.742   7.064
 3438POPC   C4A44982  34.624  23.734   7.364
 3438POPC   C1B44983  34.842  23.715   6.464
 3438POPC   C2B44984  34.806  23.763   6.764
 3438POPC   C3B44985  34.801  23.717   7.064
 3438POPC   C4B44986  34.863  23.686   7.364
 3439POPC   NC344987   4.289  17.529   5.564
 3439POPC   PO444988   4.340  17.487   5.864
 3439POPC   GL144989   4.317  17.554   6.164
 3439POPC   GL244990   4.186  17.507   6.164
 3439POPC   C1A44991   4.367  17.503   6.464
 3439POPC   D2A44992   4.315  17.508   6.764
 3439POPC   C3A44993   4.312  17.519   7.064
 3439POPC   C4A44994   4.330  17.499   7.364
 3439POPC   C1B44995   4.058  17.596   6.464
 3439POPC   C2B44996   4.087  17.530   6.764
 3439POPC   C3B44997   4.115  17.574   7.064
 3439POPC   C4B44998   4.109  17.606   7.364
 3440POPC   NC344999  31.436  22.891   5.564
 3440POPC   PO445000  31.495  22.893   5.864
 3440POPC   GL145001  31.433  22.956   6.164
 3440POPC   GL245002  31.563  22.963   6.164
 3440POPC   C1A45003  31.488  22.900   6.464
 3440POPC   D2A45004  31.499  22.925   6.764
 3440POPC   C3A45005  31.449  22.940   7.064
 3440POPC   C4A45006  31.500  22.918   7.364
 3440POPC   C1B45007  31.718  22.953   6.464
 3440POPC   C2B45008  31.750  22.952   6.764
 3440POPC   C3B45009  31.722  23.029   7.064
 3440POPC   C4B45010  31.677  22.971   7.364
 3441POPC   NC345011  15.943  10.501   5.564
 3441POPC   PO445012  15.907  10.571   5.864
 3441POPC   GL145013  15.975  10.534   6.164
 3441POPC   GL245014  16.001  10.439   6.164
 3441POPC   C1A45015  15.987  10.476   6.464
 3441POPC   D2A45016  15.940  10.498   6.764
 3441POPC   C3A45017  15.943  10.507   7.064
 3441POPC   C4A45018  15.984  10.554   7.364
 3441POPC   C1B45019  16.085  10.309   6.464
 3441POPC   C2B45020  16.123  10.335   6.764
 3441POPC   C3B45021  16.153  10.341   7.064
 3441POPC   C4B45022  16.114  10.347   7.364
 3442POPC   NC345023  30.729  17.551   5.564
 3442POPC   PO445024  30.687  17.537   5.864
 3442POPC   GL145025  30.746  17.468   6.164
 3442POPC   GL245026  30.826  17.462   6.164
 3442POPC   C1A45027  30.685  17.505   6.464
 3442POPC   D2A45028  30.728  17.546   6.764
 3442POPC   C3A45029  30.715  17.485   7.064
 3442POPC   C4A45030  30.686  17.474   7.364
 3442POPC   C1B45031  30.953  17.414   6.464
 3442POPC   C2B45032  30.889  17.385   6.764
 3442POPC   C3B45033  30.974  17.456   7.064
 3442POPC   C4B45034  30.950  17.425   7.364
 3443POPC   NC345035  36.132  26.831   5.564
 3443POPC   PO445036  36.117  26.767   5.864
 3443POPC   GL145037  36.172  26.829   6.164
 3443POPC   GL245038  36.020  26.747   6.164
 3443POPC   C1A45039  36.090  26.858   6.464
 3443POPC   D2A45040  36.080  26.849   6.764
 3443POPC   C3A45041  36.116  26.837   7.064
 3443POPC   C4A45042  36.079  26.850   7.364
 3443POPC   C1B45043  35.928  26.689   6.464
 3443POPC   C2B45044  35.900  26.657   6.764
 3443POPC   C3B45045  35.969  26.696   7.064
 3443POPC   C4B45046  35.955  26.628   7.364
 3444POPC   NC345047  26.853  14.383   5.564
 3444POPC   PO445048  26.824  14.385   5.864
 3444POPC   GL145049  26.816  14.363   6.164
 3444POPC   GL245050  26.716  14.429   6.164
 3444POPC   C1A45051  26.798  14.354   6.464
 3444POPC   D2A45052  26.828  14.389   6.764
 3444POPC   C3A45053  26.816  14.434   7.064
 3444POPC   C4A45054  26.855  14.447   7.364
 3444POPC   C1B45055  26.586  14.477   6.464
 3444POPC   C2B45056  26.619  14.509   6.764
 3444POPC   C3B45057  26.618  14.552   7.064
 3444POPC   C4B45058  26.607  14.482   7.364
 3445POPC   NC345059  40.758   1.997   5.564
 3445POPC   PO445060  40.755   1.980   5.864
 3445POPC   GL145061  40.733   1.960   6.164
 3445POPC   GL245062  40.702   2.091   6.164
 3445POPC   C1A45063  40.767   1.958   6.464
 3445POPC   D2A45064  40.777   2.020   6.764
 3445POPC   C3A45065  40.814   2.037   7.064
 3445POPC   C4A45066  40.757   1.962   7.364
 3445POPC   C1B45067  40.614   2.163   6.464
 3445POPC   C2B45068  40.600   2.154   6.764
 3445POPC   C3B45069  40.609   2.226   7.064
 3445POPC   C4B45070  40.674   2.221   7.364
 3446POPC   NC345071  29.172  43.124   5.564
 3446POPC   PO445072  29.190  43.107   5.864
 3446POPC   GL145073  29.124  43.109   6.164
 3446POPC   GL245074  29.019  43.110   6.164
 3446POPC   C1A45075  29.140  43.065   6.464
 3446POPC   D2A45076  29.185  43.112   6.764
 3446POPC   C3A45077  29.172  43.120   7.064
 3446POPC   C4A45078  29.163  43.078   7.364
 3446POPC   C1B45079  28.885  43.095   6.464
 3446POPC   C2B45080  28.934  43.131   6.764
 3446POPC   C3B45081  28.857  43.145   7.064
 3446POPC   C4B45082  28.876  43.136   7.364
 3447POPC   NC345083  10.558   7.422   5.564
 3447POPC   PO445084  10.518   7.430   5.864
 3447POPC   GL145085  10.552   7.423   6.164
 3447POPC   GL245086  10.510   7.527   6.164
 3447POPC   C1A45087  10.541   7.458   6.464
 3447POPC   D2A45088  10.557   7.426   6.764
 3447POPC   C3A45089  10.494   7.397   7.064
 3447POPC   C4A45090  10.497   7.420   7.364
 3447POPC   C1B45091  10.539   7.691   6.464
 3447POPC   C2B45092  10.584   7.695   6.764
 3447POPC   C3B45093  10.540   7.659   7.064
 3447POPC   C4B45094  10.635   7.642   7.364
 3448POPC   NC345095  42.300  33.782   5.564
 3448POPC   PO445096  42.299  33.831   5.864
 3448POPC   GL145097  42.337  33.781   6.164
 3448POPC   GL245098  42.439  33.825   6.164
 3448POPC   C1A45099  42.352  33.850   6.464
 3448POPC   D2A45100  42.365  33.825   6.764
 3448POPC   C3A45101  42.384  33.786   7.064
 3448POPC   C4A45102  42.303  33.824   7.364
 3448POPC   C1B45103  42.616  33.790   6.464
 3448POPC   C2B45104  42.597  33.747   6.764
 3448POPC   C3B45105  42.541  33.763   7.064
 3448POPC   C4B45106  42.624  33.782   7.364
 3449POPC   NC345107   5.050  22.940   5.564
 3449POPC   PO445108   5.116  22.944   5.864
 3449POPC   GL145109   5.084  22.939   6.164
 3449POPC   GL245110   5.211  23.070   6.164
 3449POPC   C1A45111   5.103  22.974   6.464
 3449POPC   D2A45112   5.075  22.914   6.764
 3449POPC   C3A45113   5.087  22.895   7.064
 3449POPC   C4A45114   5.116  22.932   7.364
 3449POPC   C1B45115   5.201  23.101   6.464
 3449POPC   C2B45116   5.209  23.153   6.764
 3449POPC   C3B45117   5.265  23.091   7.064
 3449POPC   C4B45118   5.296  23.120   7.364
 3450POPC   NC345119  40.022   6.653   5.564
 3450POPC   PO445120  39.999   6.685   5.864
 3450POPC   GL145121  39.989   6.692   6.164
 3450POPC   GL245122  40.036   6.563   6.164
 3450POPC   C1A45123  39.983   6.669   6.464
 3450POPC   D2A45124  39.970   6.624   6.764
 3450POPC   C3A45125  39.997   6.606   7.064
 3450POPC   C4A45126  40.007   6.649   7.364
 3450POPC   C1B45127  40.107   6.386   6.464
 3450POPC   C2B45128  40.028   6.419   6.764
 3450POPC   C3B45129  40.034   6.388   7.064
 3450POPC   C4B45130  40.021   6.352   7.364
 3451POPC   NC345131   6.613  32.221   5.564
 3451POPC   PO445132   6.652  32.230   5.864
 3451POPC   GL145133   6.680  32.266   6.164
 3451POPC   GL245134   6.638  32.320   6.164
 3451POPC   C1A45135   6.618  32.257   6.464
 3451POPC   D2A45136   6.642  32.272   6.764
 3451POPC   C3A45137   6.694  32.242   7.064
 3451POPC   C4A45138   6.654  32.220   7.364
 3451POPC   C1B45139   6.608  32.534   6.464
 3451POPC   C2B45140   6.567  32.441   6.764
 3451POPC   C3B45141   6.575  32.480   7.064
 3451POPC   C4B45142   6.590  32.453   7.364
 3452POPC   NC345143  43.066  12.870   5.564
 3452POPC   PO445144  43.137  12.889   5.864
 3452POPC   GL145145  43.141  12.827   6.164
 3452POPC   GL245146  43.003  12.808   6.164
 3452POPC   C1A45147  43.108  12.833   6.464
 3452POPC   D2A45148  43.094  12.820   6.764
 3452POPC   C3A45149  43.145  12.817   7.064
 3452POPC   C4A45150  43.066  12.863   7.364
 3452POPC   C1B45151  42.887  12.781   6.464
 3452POPC   C2B45152  42.848  12.839   6.764
 3452POPC   C3B45153  42.902  12.853   7.064
 3452POPC   C4B45154  42.885  12.822   7.364
 3453POPC   NC345155  40.766  27.557   5.564
 3453POPC   PO445156  40.779  27.563   5.864
 3453POPC   GL145157  40.786  27.587   6.164
 3453POPC   GL245158  40.895  27.649   6.164
 3453POPC   C1A45159  40.771  27.545   6.464
 3453POPC   D2A45160  40.785  27.630   6.764
 3453POPC   C3A45161  40.765  27.553   7.064
 3453POPC   C4A45162  40.785  27.570   7.364
 3453POPC   C1B45163  40.999  27.799   6.464
 3453POPC   C2B45164  40.919  27.785   6.764
 3453POPC   C3B45165  40.971  27.758   7.064
 3453POPC   C4B45166  40.971  27.800   7.364
 3454POPC   NC345167  13.607  13.608   5.564
 3454POPC   PO445168  13.636  13.590   5.864
 3454POPC   GL145169  13.616  13.629   6.164
 3454POPC   GL245170  13.574  13.542   6.164
 3454POPC   C1A45171  13.658  13.633   6.464
 3454POPC   D2A45172  13.602  13.592   6.764
 3454POPC   C3A45173  13.595  13.622   7.064
 3454POPC   C4A45174  13.596  13.647   7.364
 3454POPC   C1B45175  13.492  13.470   6.464
 3454POPC   C2B45176  13.520  13.402   6.764
 3454POPC   C3B45177  13.509  13.399   7.064
 3454POPC   C4B45178  13.487  13.384   7.364
 3455POPC   NC345179  15.146  33.061   5.564
 3455POPC   PO445180  15.168  33.072   5.864
 3455POPC   GL145181  15.154  32.994   6.164
 3455POPC   GL245182  15.258  32.882   6.164
 3455POPC   C1A45183  15.223  33.033   6.464
 3455POPC   D2A45184  15.214  33.003   6.764
 3455POPC   C3A45185  15.214  33.026   7.064
 3455POPC   C4A45186  15.191  32.976   7.364
 3455POPC   C1B45187  15.227  32.742   6.464
 3455POPC   C2B45188  15.251  32.788   6.764
 3455POPC   C3B45189  15.234  32.829   7.064
 3455POPC   C4B45190  15.266  32.752   7.364
 3456POPC   NC345191  18.301  11.320   5.564
 3456POPC   PO445192  18.234  11.261   5.864
 3456POPC   GL145193  18.317  11.333   6.164
 3456POPC   GL245194  18.317  11.381   6.164
 3456POPC   C1A45195  18.274  11.257   6.464
 3456POPC   D2A45196  18.239  11.347   6.764
 3456POPC   C3A45197  18.276  11.291   7.064
 3456POPC   C4A45198  18.273  11.278   7.364
 3456POPC   C1B45199  18.311  11.502   6.464
 3456POPC   C2B45200  18.251  11.524   6.764
 3456POPC   C3B45201  18.333  11.573   7.064
 3456POPC   C4B45202  18.338  11.578   7.364
 3457POPC   NC345203  34.558  26.080   5.564
 3457POPC   PO445204  34.567  26.011   5.864
 3457POPC   GL145205  34.603  26.003   6.164
 3457POPC   GL245206  34.701  25.986   6.164
 3457POPC   C1A45207  34.591  25.993   6.464
 3457POPC   D2A45208  34.613  26.045   6.764
 3457POPC   C3A45209  34.530  26.056   7.064
 3457POPC   C4A45210  34.569  25.998   7.364
 3457POPC   C1B45211  34.710  25.811   6.464
 3457POPC   C2B45212  34.790  25.893   6.764
 3457POPC   C3B45213  34.696  25.888   7.064
 3457POPC   C4B45214  34.699  25.866   7.364
 3458POPC   NC345215  40.813  12.030   5.564
 3458POPC   PO445216  40.760  12.118   5.864
 3458POPC   GL145217  40.792  12.096   6.164
 3458POPC   GL245218  40.894  12.185   6.164
 3458POPC   C1A45219  40.742  12.060   6.464
 3458POPC   D2A45220  40.820  12.073   6.764
 3458POPC   C3A45221  40.736  12.060   7.064
 3458POPC   C4A45222  40.770  12.080   7.364
 3458POPC   C1B45223  40.902  12.292   6.464
 3458POPC   C2B45224  40.957  12.223   6.764
 3458POPC   C3B45225  40.936  12.246   7.064
 3458POPC   C4B45226  40.920  12.282   7.364
 3459POPC   NC345227  36.081  37.721   5.564
 3459POPC   PO445228  36.080  37.660   5.864
 3459POPC   GL145229  36.152  37.666   6.164
 3459POPC   GL245230  35.972  37.692   6.164
 3459POPC   C1A45231  36.164  37.633   6.464
 3459POPC   D2A45232  36.082  37.682   6.764
 3459POPC   C3A45233  36.109  37.632   7.064
 3459POPC   C4A45234  36.128  37.661   7.364
 3459POPC   C1B45235  35.901  37.686   6.464
 3459POPC   C2B45236  35.895  37.629   6.764
 3459POPC   C3B45237  35.926  37.703   7.064
 3459POPC   C4B45238  35.907  37.644   7.364
 3460POPC   NC345239  23.689  12.065   5.564
 3460POPC   PO445240  23.682  12.099   5.864
 3460POPC   GL145241  23.712  12.093   6.164
 3460POPC   GL245242  23.702  12.213   6.164
 3460POPC   C1A45243  23.690  12.066   6.464
 3460POPC   D2A45244  23.730  12.125   6.764
 3460POPC   C3A45245  23.718  12.114   7.064
 3460POPC   C4A45246  23.682  12.122   7.364
 3460POPC   C1B45247  23.663  12.259   6.464
 3460POPC   C2B45248  23.637  12.279   6.764
 3460POPC   C3B45249  23.637  12.331   7.064
 3460POPC   C4B45250  23.651  12.348   7.364
 3461POPC   NC345251   2.755  30.652   5.564
 3461POPC   PO445252   2.744  30.723   5.864
 3461POPC   GL145253   2.735  30.670   6.164
 3461POPC   GL245254   2.821  30.795   6.164
 3461POPC   C1A45255   2.768  30.682   6.464
 3461POPC   D2A45256   2.813  30.682   6.764
 3461POPC   C3A45257   2.815  30.647   7.064
 3461POPC   C4A45258   2.755  30.725   7.364
 3461POPC   C1B45259   2.844  30.969   6.464
 3461POPC   C2B45260   2.819  30.965   6.764
 3461POPC   C3B45261   2.877  30.892   7.064
 3461POPC   C4B45262   2.805  30.942   7.364
 3462POPC   NC345263  39.996  36.139   5.564
 3462POPC   PO445264  39.992  36.100   5.864
 3462POPC   GL145265  40.008  36.095   6.164
 3462POPC   GL245266  39.954  35.976   6.164
 3462POPC   C1A45267  40.050  36.170   6.464
 3462POPC   D2A45268  39.971  36.136   6.764
 3462POPC   C3A45269  40.024  36.094   7.064
 3462POPC   C4A45270  39.982  36.092   7.364
 3462POPC   C1B45271  39.948  35.895   6.464
 3462POPC   C2B45272  39.958  35.835   6.764
 3462POPC   C3B45273  40.006  35.871   7.064
 3462POPC   C4B45274  39.931  35.834   7.364
 3463POPC   NC345275   1.964  23.703   5.564
 3463POPC   PO445276   2.028  23.675   5.864
 3463POPC   GL145277   1.954  23.696   6.164
 3463POPC   GL245278   2.127  23.720   6.164
 3463POPC   C1A45279   1.948  23.678   6.464
 3463POPC   D2A45280   2.001  23.707   6.764
 3463POPC   C3A45281   2.017  23.668   7.064
 3463POPC   C4A45282   2.034  23.725   7.364
 3463POPC   C1B45283   2.249  23.760   6.464
 3463POPC   C2B45284   2.234  23.710   6.764
 3463POPC   C3B45285   2.191  23.717   7.064
 3463POPC   C4B45286   2.282  23.717   7.364
 3464POPC   NC345287  17.528  28.349   5.564
 3464POPC   PO445288  17.542  28.319   5.864
 3464POPC   GL145289  17.542  28.366   6.164
 3464POPC   GL245290  17.623  28.323   6.164
 3464POPC   C1A45291  17.499  28.347   6.464
 3464POPC   D2A45292  17.473  28.332   6.764
 3464POPC   C3A45293  17.487  28.381   7.064
 3464POPC   C4A45294  17.505  28.391   7.364
 3464POPC   C1B45295  17.737  28.180   6.464
 3464POPC   C2B45296  17.750  28.166   6.764
 3464POPC   C3B45297  17.737  28.223   7.064
 3464POPC   C4B45298  17.746  28.174   7.364
 3465POPC   NC345299  15.137  33.757   5.564
 3465POPC   PO445300  15.184  33.794   5.864
 3465POPC   GL145301  15.222  33.780   6.164
 3465POPC   GL245302  15.051  33.898   6.164
 3465POPC   C1A45303  15.154  33.773   6.464
 3465POPC   D2A45304  15.222  33.846   6.764
 3465POPC   C3A45305  15.224  33.798   7.064
 3465POPC   C4A45306  15.153  33.777   7.364
 3465POPC   C1B45307  14.921  33.905   6.464
 3465POPC   C2B45308  14.918  33.864   6.764
 3465POPC   C3B45309  14.931  33.888   7.064
 3465POPC   C4B45310  14.977  33.931   7.364
 3466POPC   NC345311  23.751  43.924   5.564
 3466POPC   PO445312  23.748  43.863   5.864
 3466POPC   GL145313  23.734  43.849   6.164
 3466POPC   GL245314  23.735  43.788   6.164
 3466POPC   C1A45315  23.708  43.904   6.464
 3466POPC   D2A45316  23.736  43.910   6.764
 3466POPC   C3A45317  23.720  43.858   7.064
 3466POPC   C4A45318  23.702  43.844   7.364
 3466POPC   C1B45319  23.803  43.625   6.464
 3466POPC   C2B45320  23.888  43.709   6.764
 3466POPC   C3B45321  23.852  43.647   7.064
 3466POPC   C4B45322  23.797  43.681   7.364
 3467POPC   NC345323   5.843  11.272   5.564
 3467POPC   PO445324   5.858  11.258   5.864
 3467POPC   GL145325   5.916  11.334   6.164
 3467POPC   GL245326   5.741  11.340   6.164
 3467POPC   C1A45327   5.861  11.349   6.464
 3467POPC   D2A45328   5.894  11.299   6.764
 3467POPC   C3A45329   5.856  11.347   7.064
 3467POPC   C4A45330   5.902  11.292   7.364
 3467POPC   C1B45331   5.685  11.478   6.464
 3467POPC   C2B45332   5.725  11.487   6.764
 3467POPC   C3B45333   5.697  11.488   7.064
 3467POPC   C4B45334   5.660  11.488   7.364
 3468POPC   NC345335  29.110  28.400   5.564
 3468POPC   PO445336  29.182  28.347   5.864
 3468POPC   GL145337  29.116  28.352   6.164
 3468POPC   GL245338  29.026  28.341   6.164
 3468POPC   C1A45339  29.108  28.332   6.464
 3468POPC   D2A45340  29.182  28.336   6.764
 3468POPC   C3A45341  29.140  28.401   7.064
 3468POPC   C4A45342  29.134  28.322   7.364
 3468POPC   C1B45343  28.890  28.403   6.464
 3468POPC   C2B45344  28.919  28.441   6.764
 3468POPC   C3B45345  28.886  28.440   7.064
 3468POPC   C4B45346  28.932  28.365   7.364
 3469POPC   NC345347  44.615  40.734   5.564
 3469POPC   PO445348  44.618  40.792   5.864
 3469POPC   GL145349  44.651  40.822   6.164
 3469POPC   GL245350  44.629  40.906   6.164
 3469POPC   C1A45351  44.708  40.828   6.464
 3469POPC   D2A45352  44.646  40.779   6.764
 3469POPC   C3A45353  44.614  40.833   7.064
 3469POPC   C4A45354  44.668  40.739   7.364
 3469POPC   C1B45355  44.548  41.038   6.464
 3469POPC   C2B45356  44.583  41.003   6.764
 3469POPC   C3B45357  44.530  41.036   7.064
 3469POPC   C4B45358  44.530  41.049   7.364
 3470POPC   NC345359  32.234   2.746   5.564
 3470POPC   PO445360  32.219   2.783   5.864
 3470POPC   GL145361  32.209   2.780   6.164
 3470POPC   GL245362  32.244   2.688   6.164
 3470POPC   C1A45363  32.282   2.746   6.464
 3470POPC   D2A45364  32.280   2.748   6.764
 3470POPC   C3A45365  32.273   2.773   7.064
 3470POPC   C4A45366  32.281   2.768   7.364
 3470POPC   C1B45367  32.238   2.487   6.464
 3470POPC   C2B45368  32.215   2.532   6.764
 3470POPC   C3B45369  32.242   2.538   7.064
 3470POPC   C4B45370  32.288   2.512   7.364
 3471POPC   NC345371   2.794  21.408   5.564
 3471POPC   PO445372   2.811  21.407   5.864
 3471POPC   GL145373   2.749  21.379   6.164
 3471POPC   GL245374   2.613  21.420   6.164
 3471POPC   C1A45375   2.783  21.418   6.464
 3471POPC   D2A45376   2.814  21.402   6.764
 3471POPC   C3A45377   2.753  21.411   7.064
 3471POPC   C4A45378   2.746  21.392   7.364
 3471POPC   C1B45379   2.555  21.468   6.464
 3471POPC   C2B45380   2.478  21.466   6.764
 3471POPC   C3B45381   2.545  21.437   7.064
 3471POPC   C4B45382   2.551  21.505   7.364
 3472POPC   NC345383  26.044  23.760   5.564
 3472POPC   PO445384  26.008  23.738   5.864
 3472POPC   GL145385  26.033  23.710   6.164
 3472POPC   GL245386  26.143  23.735   6.164
 3472POPC   C1A45387  26.005  23.741   6.464
 3472POPC   D2A45388  25.999  23.762   6.764
 3472POPC   C3A45389  26.011  23.749   7.064
 3472POPC   C4A45390  26.082  23.746   7.364
 3472POPC   C1B45391  26.262  23.736   6.464
 3472POPC   C2B45392  26.336  23.725   6.764
 3472POPC   C3B45393  26.259  23.704   7.064
 3472POPC   C4B45394  26.258  23.666   7.364
 3473POPC   NC345395  33.033  16.720   5.564
 3473POPC   PO445396  32.995  16.716   5.864
 3473POPC   GL145397  33.024  16.688   6.164
 3473POPC   GL245398  32.901  16.756   6.164
 3473POPC   C1A45399  33.042  16.756   6.464
 3473POPC   D2A45400  33.061  16.777   6.764
 3473POPC   C3A45401  33.059  16.695   7.064
 3473POPC   C4A45402  32.992  16.777   7.364
 3473POPC   C1B45403  32.822  16.709   6.464
 3473POPC   C2B45404  32.779  16.704   6.764
 3473POPC   C3B45405  32.732  16.731   7.064
 3473POPC   C4B45406  32.733  16.729   7.364
 3474POPC   NC345407  23.734  22.888   5.564
 3474POPC   PO445408  23.746  22.930   5.864
 3474POPC   GL145409  23.739  22.961   6.164
 3474POPC   GL245410  23.629  22.934   6.164
 3474POPC   C1A45411  23.704  22.919   6.464
 3474POPC   D2A45412  23.694  22.983   6.764
 3474POPC   C3A45413  23.699  22.897   7.064
 3474POPC   C4A45414  23.679  22.888   7.364
 3474POPC   C1B45415  23.446  22.938   6.464
 3474POPC   C2B45416  23.421  23.006   6.764
 3474POPC   C3B45417  23.471  22.954   7.064
 3474POPC   C4B45418  23.459  23.008   7.364
 3475POPC   NC345419  12.849  42.299   5.564
 3475POPC   PO445420  12.806  42.295   5.864
 3475POPC   GL145421  12.827  42.369   6.164
 3475POPC   GL245422  12.757  42.389   6.164
 3475POPC   C1A45423  12.820  42.300   6.464
 3475POPC   D2A45424  12.884  42.351   6.764
 3475POPC   C3A45425  12.865  42.360   7.064
 3475POPC   C4A45426  12.879  42.334   7.364
 3475POPC   C1B45427  12.612  42.445   6.464
 3475POPC   C2B45428  12.627  42.488   6.764
 3475POPC   C3B45429  12.601  42.491   7.064
 3475POPC   C4B45430  12.656  42.491   7.364
 3476POPC   NC345431  21.404  14.378   5.564
 3476POPC   PO445432  21.376  14.390   5.864
 3476POPC   GL145433  21.424  14.430   6.164
 3476POPC   GL245434  21.215  14.461   6.164
 3476POPC   C1A45435  21.399  14.363   6.464
 3476POPC   D2A45436  21.424  14.443   6.764
 3476POPC   C3A45437  21.402  14.427   7.064
 3476POPC   C4A45438  21.383  14.394   7.364
 3476POPC   C1B45439  21.149  14.439   6.464
 3476POPC   C2B45440  21.183  14.427   6.764
 3476POPC   C3B45441  21.105  14.455   7.064
 3476POPC   C4B45442  21.167  14.489   7.364
 3477POPC   NC345443  16.722  41.536   5.564
 3477POPC   PO445444  16.695  41.519   5.864
 3477POPC   GL145445  16.757  41.540   6.164
 3477POPC   GL245446  16.643  41.452   6.164
 3477POPC   C1A45447  16.704  41.605   6.464
 3477POPC   D2A45448  16.730  41.514   6.764
 3477POPC   C3A45449  16.734  41.558   7.064
 3477POPC   C4A45450  16.723  41.553   7.364
 3477POPC   C1B45451  16.477  41.443   6.464
 3477POPC   C2B45452  16.504  41.377   6.764
 3477POPC   C3B45453  16.506  41.460   7.064
 3477POPC   C4B45454  16.518  41.383   7.364
 3478POPC   NC345455  29.146   6.632   5.564
 3478POPC   PO445456  29.151   6.645   5.864
 3478POPC   GL145457  29.161   6.639   6.164
 3478POPC   GL245458  29.170   6.795   6.164
 3478POPC   C1A45459  29.182   6.602   6.464
 3478POPC   D2A45460  29.162   6.662   6.764
 3478POPC   C3A45461  29.149   6.617   7.064
 3478POPC   C4A45462  29.162   6.687   7.364
 3478POPC   C1B45463  29.166   6.862   6.464
 3478POPC   C2B45464  29.164   6.889   6.764
 3478POPC   C3B45465  29.128   6.907   7.064
 3478POPC   C4B45466  29.167   6.875   7.364
 3479POPC   NC345467  12.843  27.567   5.564
 3479POPC   PO445468  12.815  27.560   5.864
 3479POPC   GL145469  12.815  27.607   6.164
 3479POPC   GL245470  12.892  27.664   6.164
 3479POPC   C1A45471  12.884  27.638   6.464
 3479POPC   D2A45472  12.870  27.548   6.764
 3479POPC   C3A45473  12.860  27.619   7.064
 3479POPC   C4A45474  12.821  27.634   7.364
 3479POPC   C1B45475  12.917  27.770   6.464
 3479POPC   C2B45476  12.992  27.839   6.764
 3479POPC   C3B45477  12.930  27.793   7.064
 3479POPC   C4B45478  12.990  27.777   7.364
 3480POPC   NC345479   5.862  14.379   5.564
 3480POPC   PO445480   5.913  14.372   5.864
 3480POPC   GL145481   5.918  14.429   6.164
 3480POPC   GL245482   5.867  14.520   6.164
 3480POPC   C1A45483   5.903  14.358   6.464
 3480POPC   D2A45484   5.821  14.447   6.764
 3480POPC   C3A45485   5.889  14.432   7.064
 3480POPC   C4A45486   5.854  14.440   7.364
 3480POPC   C1B45487   5.783  14.649   6.464
 3480POPC   C2B45488   5.831  14.659   6.764
 3480POPC   C3B45489   5.806  14.607   7.064
 3480POPC   C4B45490   5.809  14.649   7.364
 3481POPC   NC345491   3.588   3.540   5.564
 3481POPC   PO445492   3.580   3.565   5.864
 3481POPC   GL145493   3.575   3.554   6.164
 3481POPC   GL245494   3.607   3.372   6.164
 3481POPC   C1A45495   3.560   3.509   6.464
 3481POPC   D2A45496   3.574   3.504   6.764
 3481POPC   C3A45497   3.525   3.531   7.064
 3481POPC   C4A45498   3.558   3.588   7.364
 3481POPC   C1B45499   3.579   3.343   6.464
 3481POPC   C2B45500   3.603   3.277   6.764
 3481POPC   C3B45501   3.644   3.341   7.064
 3481POPC   C4B45502   3.558   3.319   7.364
 3482POPC   NC345503  19.053  43.933   5.564
 3482POPC   PO445504  19.102  43.899   5.864
 3482POPC   GL145505  19.031  43.839   6.164
 3482POPC   GL245506  19.144  43.963   6.164
 3482POPC   C1A45507  19.030  43.925   6.464
 3482POPC   D2A45508  19.073  43.859   6.764
 3482POPC   C3A45509  19.042  43.881   7.064
 3482POPC   C4A45510  19.101  43.902   7.364
 3482POPC   C1B45511  19.186  44.064   6.464
 3482POPC   C2B45512  19.194  44.056   6.764
 3482POPC   C3B45513  19.213  44.068   7.064
 3482POPC   C4B45514  19.231  44.051   7.364
 3483POPC   NC345515   5.081   3.515   5.564
 3483POPC   PO445516   5.126   3.554   5.864
 3483POPC   GL145517   5.114   3.497   6.164
 3483POPC   GL245518   5.190   3.649   6.164
 3483POPC   C1A45519   5.098   3.590   6.464
 3483POPC   D2A45520   5.118   3.540   6.764
 3483POPC   C3A45521   5.131   3.553   7.064
 3483POPC   C4A45522   5.079   3.584   7.364
 3483POPC   C1B45523   5.355   3.634   6.464
 3483POPC   C2B45524   5.289   3.694   6.764
 3483POPC   C3B45525   5.331   3.646   7.064
 3483POPC   C4B45526   5.326   3.647   7.364
 3484POPC   NC345527  12.823   5.096   5.564
 3484POPC   PO445528  12.814   5.081   5.864
 3484POPC   GL145529  12.832   5.075   6.164
 3484POPC   GL245530  12.961   5.216   6.164
 3484POPC   C1A45531  12.858   5.081   6.464
 3484POPC   D2A45532  12.811   5.064   6.764
 3484POPC   C3A45533  12.832   5.119   7.064
 3484POPC   C4A45534  12.818   5.130   7.364
 3484POPC   C1B45535  13.007   5.321   6.464
 3484POPC   C2B45536  13.006   5.294   6.764
 3484POPC   C3B45537  12.949   5.286   7.064
 3484POPC   C4B45538  12.986   5.266   7.364
 3485POPC   NC345539  42.306  37.631   5.564
 3485POPC   PO445540  42.350  37.699   5.864
 3485POPC   GL145541  42.322  37.657   6.164
 3485POPC   GL245542  42.397  37.823   6.164
 3485POPC   C1A45543  42.317  37.720   6.464
 3485POPC   D2A45544  42.321  37.704   6.764
 3485POPC   C3A45545  42.293  37.631   7.064
 3485POPC   C4A45546  42.377  37.682   7.364
 3485POPC   C1B45547  42.365  37.938   6.464
 3485POPC   C2B45548  42.418  37.918   6.764
 3485POPC   C3B45549  42.386  37.946   7.064
 3485POPC   C4B45550  42.359  37.938   7.364
 3486POPC   NC345551  41.606  15.943   5.564
 3486POPC   PO445552  41.607  16.004   5.864
 3486POPC   GL145553  41.597  15.947   6.164
 3486POPC   GL245554  41.536  15.826   6.164
 3486POPC   C1A45555  41.545  15.972   6.464
 3486POPC   D2A45556  41.589  15.931   6.764
 3486POPC   C3A45557  41.567  15.959   7.064
 3486POPC   C4A45558  41.601  15.939   7.364
 3486POPC   C1B45559  41.481  15.752   6.464
 3486POPC   C2B45560  41.508  15.726   6.764
 3486POPC   C3B45561  41.459  15.758   7.064
 3486POPC   C4B45562  41.429  15.705   7.364
 3487POPC   NC345563   3.500   5.879   5.564
 3487POPC   PO445564   3.553   5.887   5.864
 3487POPC   GL145565   3.514   5.869   6.164
 3487POPC   GL245566   3.420   5.840   6.164
 3487POPC   C1A45567   3.516   5.907   6.464
 3487POPC   D2A45568   3.557   5.840   6.764
 3487POPC   C3A45569   3.529   5.876   7.064
 3487POPC   C4A45570   3.583   5.892   7.364
 3487POPC   C1B45571   3.334   5.882   6.464
 3487POPC   C2B45572   3.290   5.855   6.764
 3487POPC   C3B45573   3.290   5.885   7.064
 3487POPC   C4B45574   3.292   5.888   7.364
 3488POPC   NC345575  34.625  40.780   5.564
 3488POPC   PO445576  34.607  40.805   5.864
 3488POPC   GL145577  34.625  40.754   6.164
 3488POPC   GL245578  34.721  40.715   6.164
 3488POPC   C1A45579  34.550  40.749   6.464
 3488POPC   D2A45580  34.578  40.772   6.764
 3488POPC   C3A45581  34.576  40.771   7.064
 3488POPC   C4A45582  34.570  40.825   7.364
 3488POPC   C1B45583  34.801  40.589   6.464
 3488POPC   C2B45584  34.784  40.622   6.764
 3488POPC   C3B45585  34.776  40.655   7.064
 3488POPC   C4B45586  34.762  40.602   7.364
 3489POPC   NC345587   5.140   1.200   5.564
 3489POPC   PO445588   5.083   1.191   5.864
 3489POPC   GL145589   5.115   1.235   6.164
 3489POPC   GL245590   5.238   1.210   6.164
 3489POPC   C1A45591   5.140   1.261   6.464
 3489POPC   D2A45592   5.119   1.250   6.764
 3489POPC   C3A45593   5.107   1.221   7.064
 3489POPC   C4A45594   5.096   1.256   7.364
 3489POPC   C1B45595   5.333   1.186   6.464
 3489POPC   C2B45596   5.304   1.234   6.764
 3489POPC   C3B45597   5.390   1.222   7.064
 3489POPC   C4B45598   5.307   1.261   7.364
 3490POPC   NC345599   8.991  15.214   5.564
 3490POPC   PO445600   8.960  15.157   5.864
 3490POPC   GL145601   8.957  15.130   6.164
 3490POPC   GL245602   9.087  15.119   6.164
 3490POPC   C1A45603   8.969  15.185   6.464
 3490POPC   D2A45604   8.998  15.168   6.764
 3490POPC   C3A45605   8.929  15.165   7.064
 3490POPC   C4A45606   8.965  15.148   7.364
 3490POPC   C1B45607   9.154  15.057   6.464
 3490POPC   C2B45608   9.212  15.026   6.764
 3490POPC   C3B45609   9.194  15.021   7.064
 3490POPC   C4B45610   9.208  14.998   7.364
 3491POPC   NC345611   7.384  20.626   5.564
 3491POPC   PO445612   7.448  20.630   5.864
 3491POPC   GL145613   7.464  20.609   6.164
 3491POPC   GL245614   7.426  20.522   6.164
 3491POPC   C1A45615   7.402  20.612   6.464
 3491POPC   D2A45616   7.443  20.598   6.764
 3491POPC   C3A45617   7.429  20.654   7.064
 3491POPC   C4A45618   7.438  20.657   7.364
 3491POPC   C1B45619   7.390  20.376   6.464
 3491POPC   C2B45620   7.361  20.358   6.764
 3491POPC   C3B45621   7.387  20.343   7.064
 3491POPC   C4B45622   7.391  20.347   7.364
 3492POPC   NC345623  18.296   4.357   5.564
 3492POPC   PO445624  18.298   4.286   5.864
 3492POPC   GL145625  18.235   4.290   6.164
 3492POPC   GL245626  18.328   4.148   6.164
 3492POPC   C1A45627  18.244   4.308   6.464
 3492POPC   D2A45628  18.281   4.318   6.764
 3492POPC   C3A45629  18.253   4.316   7.064
 3492POPC   C4A45630  18.323   4.324   7.364
 3492POPC   C1B45631  18.242   4.077   6.464
 3492POPC   C2B45632  18.253   4.048   6.764
 3492POPC   C3B45633  18.268   4.108   7.064
 3492POPC   C4B45634  18.281   4.090   7.364
 3493POPC   NC345635  43.848  32.217   5.564
 3493POPC   PO445636  43.880  32.266   5.864
 3493POPC   GL145637  43.838  32.234   6.164
 3493POPC   GL245638  43.901  32.367   6.164
 3493POPC   C1A45639  43.920  32.233   6.464
 3493POPC   D2A45640  43.900  32.231   6.764
 3493POPC   C3A45641  43.858  32.225   7.064
 3493POPC   C4A45642  43.844  32.212   7.364
 3493POPC   C1B45643  43.868  32.496   6.464
 3493POPC   C2B45644  43.835  32.477   6.764
 3493POPC   C3B45645  43.833  32.497   7.064
 3493POPC   C4B45646  43.832  32.516   7.364
 3494POPC   NC345647  33.034  28.336   5.564
 3494POPC   PO445648  33.073  28.347   5.864
 3494POPC   GL145649  32.990  28.369   6.164
 3494POPC   GL245650  33.004  28.473   6.164
 3494POPC   C1A45651  33.021  28.390   6.464
 3494POPC   D2A45652  33.038  28.344   6.764
 3494POPC   C3A45653  33.065  28.357   7.064
 3494POPC   C4A45654  32.981  28.398   7.364
 3494POPC   C1B45655  32.943  28.610   6.464
 3494POPC   C2B45656  33.040  28.644   6.764
 3494POPC   C3B45657  32.998  28.571   7.064
 3494POPC   C4B45658  32.959  28.601   7.364
 3495POPC   NC345659  32.227  43.130   5.564
 3495POPC   PO445660  32.251  43.143   5.864
 3495POPC   GL145661  32.246  43.146   6.164
 3495POPC   GL245662  32.238  43.225   6.164
 3495POPC   C1A45663  32.211  43.080   6.464
 3495POPC   D2A45664  32.260  43.074   6.764
 3495POPC   C3A45665  32.213  43.116   7.064
 3495POPC   C4A45666  32.275  43.097   7.364
 3495POPC   C1B45667  32.139  43.395   6.464
 3495POPC   C2B45668  32.136  43.362   6.764
 3495POPC   C3B45669  32.168  43.370   7.064
 3495POPC   C4B45670  32.214  43.353   7.364
 3496POPC   NC345671  28.356  35.372   5.564
 3496POPC   PO445672  28.367  35.348   5.864
 3496POPC   GL145673  28.418  35.335   6.164
 3496POPC   GL245674  28.234  35.286   6.164
 3496POPC   C1A45675  28.364  35.350   6.464
 3496POPC   D2A45676  28.350  35.400   6.764
 3496POPC   C3A45677  28.381  35.328   7.064
 3496POPC   C4A45678  28.355  35.321   7.364
 3496POPC   C1B45679  28.129  35.270   6.464
 3496POPC   C2B45680  28.094  35.254   6.764
 3496POPC   C3B45681  28.167  35.233   7.064
 3496POPC   C4B45682  28.122  35.294   7.364
 3497POPC   NC345683  40.034  14.429   5.564
 3497POPC   PO445684  40.005  14.393   5.864
 3497POPC   GL145685  40.005  14.392   6.164
 3497POPC   GL245686  39.910  14.469   6.164
 3497POPC   C1A45687  39.964  14.389   6.464
 3497POPC   D2A45688  39.966  14.386   6.764
 3497POPC   C3A45689  40.032  14.438   7.064
 3497POPC   C4A45690  39.965  14.410   7.364
 3497POPC   C1B45691  39.756  14.524   6.464
 3497POPC   C2B45692  39.773  14.540   6.764
 3497POPC   C3B45693  39.775  14.515   7.064
 3497POPC   C4B45694  39.759  14.478   7.364
 3498POPC   NC345695  36.099  28.380   5.564
 3498POPC   PO445696  36.109  28.328   5.864
 3498POPC   GL145697  36.078  28.394   6.164
 3498POPC   GL245698  36.004  28.320   6.164
 3498POPC   C1A45699  36.081  28.340   6.464
 3498POPC   D2A45700  36.089  28.371   6.764
 3498POPC   C3A45701  36.114  28.359   7.064
 3498POPC   C4A45702  36.079  28.388   7.364
 3498POPC   C1B45703  35.853  28.318   6.464
 3498POPC   C2B45704  35.891  28.296   6.764
 3498POPC   C3B45705  35.925  28.358   7.064
 3498POPC   C4B45706  35.921  28.317   7.364
 3499POPC   NC345707  11.260  39.183   5.564
 3499POPC   PO445708  11.266  39.251   5.864
 3499POPC   GL145709  11.316  39.216   6.164
 3499POPC   GL245710  11.161  39.246   6.164
 3499POPC   C1A45711  11.322  39.251   6.464
 3499POPC   D2A45712  11.328  39.220   6.764
 3499POPC   C3A45713  11.335  39.184   7.064
 3499POPC   C4A45714  11.299  39.186   7.364
 3499POPC   C1B45715  11.092  39.182   6.464
 3499POPC   C2B45716  11.004  39.183   6.764
 3499POPC   C3B45717  11.100  39.211   7.064
 3499POPC   C4B45718  11.088  39.202   7.364
 3500POPC   NC345719  18.295  22.913   5.564
 3500POPC   PO445720  18.305  22.931   5.864
 3500POPC   GL145721  18.329  22.953   6.164
 3500POPC   GL245722  18.172  22.803   6.164
 3500POPC   C1A45723  18.235  22.915   6.464
 3500POPC   D2A45724  18.304  22.891   6.764
 3500POPC   C3A45725  18.283  22.909   7.064
 3500POPC   C4A45726  18.328  22.904   7.364
 3500POPC   C1B45727  18.113  22.756   6.464
 3500POPC   C2B45728  18.181  22.701   6.764
 3500POPC   C3B45729  18.183  22.718   7.064
 3500POPC   C4B45730  18.172  22.684   7.364
 3501POPC   NC345731   0.471  25.285   5.564
 3501POPC   PO445732   0.409  25.315   5.864
 3501POPC   GL145733   0.472  25.287   6.164
 3501POPC   GL245734   0.458  25.426   6.164
 3501POPC   C1A45735   0.393  25.220   6.464
 3501POPC   D2A45736   0.406  25.232   6.764
 3501POPC   C3A45737   0.454  25.227   7.064
 3501POPC   C4A45738   0.466  25.234   7.364
 3501POPC   C1B45739   0.534  25.542   6.464
 3501POPC   C2B45740   0.478  25.511   6.764
 3501POPC   C3B45741   0.536  25.544   7.064
 3501POPC   C4B45742   0.571  25.532   7.364
 3502POPC   NC345743   5.833  32.272   5.564
 3502POPC   PO445744   5.899  32.243   5.864
 3502POPC   GL145745   5.837  32.247   6.164
 3502POPC   GL245746   5.954  32.355   6.164
 3502POPC   C1A45747   5.895  32.227   6.464
 3502POPC   D2A45748   5.918  32.256   6.764
 3502POPC   C3A45749   5.876  32.280   7.064
 3502POPC   C4A45750   5.848  32.271   7.364
 3502POPC   C1B45751   6.010  32.440   6.464
 3502POPC   C2B45752   6.039  32.401   6.764
 3502POPC   C3B45753   6.028  32.487   7.064
 3502POPC   C4B45754   6.034  32.404   7.364
 3503POPC   NC345755  10.556  34.592   5.564
 3503POPC   PO445756  10.553  34.582   5.864
 3503POPC   GL145757  10.526  34.596   6.164
 3503POPC   GL245758  10.455  34.600   6.164
 3503POPC   C1A45759  10.552  34.567   6.464
 3503POPC   D2A45760  10.537  34.571   6.764
 3503POPC   C3A45761  10.564  34.582   7.064
 3503POPC   C4A45762  10.533  34.555   7.364
 3503POPC   C1B45763  10.349  34.716   6.464
 3503POPC   C2B45764  10.289  34.657   6.764
 3503POPC   C3B45765  10.341  34.755   7.064
 3503POPC   C4B45766  10.293  34.751   7.364
 3504POPC   NC345767  34.579  37.722   5.564
 3504POPC   PO445768  34.596  37.709   5.864
 3504POPC   GL145769  34.585  37.705   6.164
 3504POPC   GL245770  34.457  37.735   6.164
 3504POPC   C1A45771  34.591  37.729   6.464
 3504POPC   D2A45772  34.607  37.706   6.764
 3504POPC   C3A45773  34.560  37.670   7.064
 3504POPC   C4A45774  34.587  37.691   7.364
 3504POPC   C1B45775  34.313  37.799   6.464
 3504POPC   C2B45776  34.358  37.790   6.764
 3504POPC   C3B45777  34.356  37.758   7.064
 3504POPC   C4B45778  34.352  37.831   7.364
 3505POPC   NC345779  29.950  34.606   5.564
 3505POPC   PO445780  29.955  34.543   5.864
 3505POPC   GL145781  29.891  34.598   6.164
 3505POPC   GL245782  30.007  34.702   6.164
 3505POPC   C1A45783  29.933  34.585   6.464
 3505POPC   D2A45784  29.895  34.569   6.764
 3505POPC   C3A45785  29.879  34.615   7.064
 3505POPC   C4A45786  29.897  34.571   7.364
 3505POPC   C1B45787  30.028  34.768   6.464
 3505POPC   C2B45788  30.096  34.762   6.764
 3505POPC   C3B45789  30.078  34.821   7.064
 3505POPC   C4B45790  30.067  34.786   7.364
 3506POPC   NC345791   4.314  24.487   5.564
 3506POPC   PO445792   4.295  24.488   5.864
 3506POPC   GL145793   4.284  24.512   6.164
 3506POPC   GL245794   4.215  24.561   6.164
 3506POPC   C1A45795   4.285  24.484   6.464
 3506POPC   D2A45796   4.302  24.463   6.764
 3506POPC   C3A45797   4.274  24.455   7.064
 3506POPC   C4A45798   4.306  24.480   7.364
 3506POPC   C1B45799   4.141  24.635   6.464
 3506POPC   C2B45800   4.165  24.637   6.764
 3506POPC   C3B45801   4.177  24.676   7.064
 3506POPC   C4B45802   4.093  24.638   7.364
 3507POPC   NC345803   1.234  21.362   5.564
 3507POPC   PO445804   1.181  21.359   5.864
 3507POPC   GL145805   1.223  21.407   6.164
 3507POPC   GL245806   1.206  21.511   6.164
 3507POPC   C1A45807   1.194  21.424   6.464
 3507POPC   D2A45808   1.224  21.348   6.764
 3507POPC   C3A45809   1.168  21.346   7.064
 3507POPC   C4A45810   1.172  21.345   7.364
 3507POPC   C1B45811   1.227  21.599   6.464
 3507POPC   C2B45812   1.174  21.638   6.764
 3507POPC   C3B45813   1.132  21.646   7.064
 3507POPC   C4B45814   1.152  21.612   7.364
 3508POPC   NC345815  23.716  14.421   5.564
 3508POPC   PO445816  23.675  14.433   5.864
 3508POPC   GL145817  23.752  14.430   6.164
 3508POPC   GL245818  23.634  14.357   6.164
 3508POPC   C1A45819  23.748  14.438   6.464
 3508POPC   D2A45820  23.717  14.436   6.764
 3508POPC   C3A45821  23.731  14.361   7.064
 3508POPC   C4A45822  23.737  14.420   7.364
 3508POPC   C1B45823  23.552  14.272   6.464
 3508POPC   C2B45824  23.475  14.198   6.764
 3508POPC   C3B45825  23.483  14.229   7.064
 3508POPC   C4B45826  23.488  14.282   7.364
 3509POPC   NC345827  11.268  42.293   5.564
 3509POPC   PO445828  11.305  42.307   5.864
 3509POPC   GL145829  11.271  42.285   6.164
 3509POPC   GL245830  11.243  42.217   6.164
 3509POPC   C1A45831  11.326  42.364   6.464
 3509POPC   D2A45832  11.273  42.348   6.764
 3509POPC   C3A45833  11.252  42.341   7.064
 3509POPC   C4A45834  11.272  42.320   7.364
 3509POPC   C1B45835  11.126  42.226   6.464
 3509POPC   C2B45836  11.112  42.193   6.764
 3509POPC   C3B45837  11.089  42.157   7.064
 3509POPC   C4B45838  11.099  42.207   7.364
 3510POPC   NC345839  39.195  12.852   5.564
 3510POPC   PO445840  39.225  12.834   5.864
 3510POPC   GL145841  39.271  12.853   6.164
 3510POPC   GL245842  39.368  12.889   6.164
 3510POPC   C1A45843  39.222  12.879   6.464
 3510POPC   D2A45844  39.217  12.843   6.764
 3510POPC   C3A45845  39.212  12.811   7.064
 3510POPC   C4A45846  39.226  12.841   7.364
 3510POPC   C1B45847  39.519  12.908   6.464
 3510POPC   C2B45848  39.453  12.895   6.764
 3510POPC   C3B45849  39.443  12.859   7.064
 3510POPC   C4B45850  39.474  12.829   7.364
 3511POPC   NC345851  36.941  15.201   5.564
 3511POPC   PO445852  36.912  15.183   5.864
 3511POPC   GL145853  36.891  15.182   6.164
 3511POPC   GL245854  36.766  15.237   6.164
 3511POPC   C1A45855  36.881  15.210   6.464
 3511POPC   D2A45856  36.905  15.224   6.764
 3511POPC   C3A45857  36.892  15.149   7.064
 3511POPC   C4A45858  36.856  15.229   7.364
 3511POPC   C1B45859  36.743  15.276   6.464
 3511POPC   C2B45860  36.735  15.358   6.764
 3511POPC   C3B45861  36.698  15.291   7.064
 3511POPC   C4B45862  36.745  15.345   7.364
 3512POPC   NC345863  36.943  39.984   5.564
 3512POPC   PO445864  36.953  40.034   5.864
 3512POPC   GL145865  36.870  40.049   6.164
 3512POPC   GL245866  36.915  39.878   6.164
 3512POPC   C1A45867  36.876  40.034   6.464
 3512POPC   D2A45868  36.917  39.980   6.764
 3512POPC   C3A45869  36.860  39.965   7.064
 3512POPC   C4A45870  36.910  40.054   7.364
 3512POPC   C1B45871  36.917  39.749   6.464
 3512POPC   C2B45872  36.881  39.750   6.764
 3512POPC   C3B45873  36.951  39.733   7.064
 3512POPC   C4B45874  36.927  39.731   7.364
 3513POPC   NC345875  43.084  32.288   5.564
 3513POPC   PO445876  43.062  32.268   5.864
 3513POPC   GL145877  43.126  32.290   6.164
 3513POPC   GL245878  43.085  32.367   6.164
 3513POPC   C1A45879  43.130  32.272   6.464
 3513POPC   D2A45880  43.145  32.247   6.764
 3513POPC   C3A45881  43.074  32.293   7.064
 3513POPC   C4A45882  43.133  32.268   7.364
 3513POPC   C1B45883  43.089  32.536   6.464
 3513POPC   C2B45884  43.070  32.502   6.764
 3513POPC   C3B45885  42.990  32.444   7.064
 3513POPC   C4B45886  43.039  32.496   7.364
 3514POPC   NC345887   1.963  15.966   5.564
 3514POPC   PO445888   1.989  15.980   5.864
 3514POPC   GL145889   1.982  15.927   6.164
 3514POPC   GL245890   2.042  16.068   6.164
 3514POPC   C1A45891   2.009  15.915   6.464
 3514POPC   D2A45892   1.988  15.990   6.764
 3514POPC   C3A45893   1.987  15.913   7.064
 3514POPC   C4A45894   1.961  15.998   7.364
 3514POPC   C1B45895   2.028  16.220   6.464
 3514POPC   C2B45896   2.016  16.195   6.764
 3514POPC   C3B45897   2.026  16.171   7.064
 3514POPC   C4B45898   1.974  16.187   7.364
 3515POPC   NC345899  29.159  23.701   5.564
 3515POPC   PO445900  29.095  23.687   5.864
 3515POPC   GL145901  29.117  23.751   6.164
 3515POPC   GL245902  29.037  23.634   6.164
 3515POPC   C1A45903  29.149  23.717   6.464
 3515POPC   D2A45904  29.117  23.672   6.764
 3515POPC   C3A45905  29.194  23.745   7.064
 3515POPC   C4A45906  29.161  23.718   7.364
 3515POPC   C1B45907  29.031  23.527   6.464
 3515POPC   C2B45908  28.983  23.523   6.764
 3515POPC   C3B45909  29.008  23.490   7.064
 3515POPC   C4B45910  28.979  23.525   7.364
 3516POPC   NC345911  32.270   3.590   5.564
 3516POPC   PO445912  32.283   3.584   5.864
 3516POPC   GL145913  32.235   3.546   6.164
 3516POPC   GL245914  32.198   3.674   6.164
 3516POPC   C1A45915  32.224   3.499   6.464
 3516POPC   D2A45916  32.273   3.544   6.764
 3516POPC   C3A45917  32.213   3.509   7.064
 3516POPC   C4A45918  32.277   3.567   7.364
 3516POPC   C1B45919  32.202   3.825   6.464
 3516POPC   C2B45920  32.221   3.750   6.764
 3516POPC   C3B45921  32.159   3.814   7.064
 3516POPC   C4B45922  32.238   3.805   7.364
 3517POPC   NC345923  30.647  43.147   5.564
 3517POPC   PO445924  30.672  43.079   5.864
 3517POPC   GL145925  30.743  43.147   6.164
 3517POPC   GL245926  30.658  43.197   6.164
 3517POPC   C1A45927  30.657  43.073   6.464
 3517POPC   D2A45928  30.709  43.148   6.764
 3517POPC   C3A45929  30.661  43.118   7.064
 3517POPC   C4A45930  30.648  43.117   7.364
 3517POPC   C1B45931  30.610  43.332   6.464
 3517POPC   C2B45932  30.584  43.297   6.764
 3517POPC   C3B45933  30.574  43.326   7.064
 3517POPC   C4B45934  30.592  43.303   7.364
 3518POPC   NC345935  15.191  30.702   5.564
 3518POPC   PO445936  15.193  30.679   5.864
 3518POPC   GL145937  15.172  30.681   6.164
 3518POPC   GL245938  15.153  30.832   6.164
 3518POPC   C1A45939  15.215  30.665   6.464
 3518POPC   D2A45940  15.225  30.661   6.764
 3518POPC   C3A45941  15.161  30.741   7.064
 3518POPC   C4A45942  15.189  30.670   7.364
 3518POPC   C1B45943  15.073  30.923   6.464
 3518POPC   C2B45944  15.080  30.944   6.764
 3518POPC   C3B45945  15.106  30.948   7.064
 3518POPC   C4B45946  15.118  30.975   7.364
 3519POPC   NC345947  42.350   9.738   5.564
 3519POPC   PO445948  42.334   9.768   5.864
 3519POPC   GL145949  42.303   9.713   6.164
 3519POPC   GL245950  42.267   9.658   6.164
 3519POPC   C1A45951  42.305   9.721   6.464
 3519POPC   D2A45952  42.344   9.717   6.764
 3519POPC   C3A45953  42.289   9.744   7.064
 3519POPC   C4A45954  42.306   9.768   7.364
 3519POPC   C1B45955  42.190   9.553   6.464
 3519POPC   C2B45956  42.187   9.555   6.764
 3519POPC   C3B45957  42.133   9.594   7.064
 3519POPC   C4B45958  42.140   9.591   7.364
 3520POPC   NC345959  36.909  28.351   5.564
 3520POPC   PO445960  36.895  28.330   5.864
 3520POPC   GL145961  36.895  28.323   6.164
 3520POPC   GL245962  36.841  28.486   6.164
 3520POPC   C1A45963  36.878  28.344   6.464
 3520POPC   D2A45964  36.917  28.349   6.764
 3520POPC   C3A45965  36.933  28.380   7.064
 3520POPC   C4A45966  36.930  28.347   7.364
 3520POPC   C1B45967  36.881  28.620   6.464
 3520POPC   C2B45968  36.892  28.649   6.764
 3520POPC   C3B45969  36.852  28.638   7.064
 3520POPC   C4B45970  36.886  28.572   7.364
 3521POPC   NC345971  33.020  38.445   5.564
 3521POPC   PO445972  33.040  38.468   5.864
 3521POPC   GL145973  33.060  38.504   6.164
 3521POPC   GL245974  33.089  38.379   6.164
 3521POPC   C1A45975  33.065  38.409   6.464
 3521POPC   D2A45976  33.000  38.432   6.764
 3521POPC   C3A45977  32.997  38.417   7.064
 3521POPC   C4A45978  33.034  38.504   7.364
 3521POPC   C1B45979  33.217  38.262   6.464
 3521POPC   C2B45980  33.144  38.215   6.764
 3521POPC   C3B45981  33.149  38.238   7.064
 3521POPC   C4B45982  33.188  38.277   7.364
 3522POPC   NC345983  12.841  18.327   5.564
 3522POPC   PO445984  12.827  18.309   5.864
 3522POPC   GL145985  12.817  18.260   6.164
 3522POPC   GL245986  12.903  18.192   6.164
 3522POPC   C1A45987  12.879  18.278   6.464
 3522POPC   D2A45988  12.827  18.281   6.764
 3522POPC   C3A45989  12.877  18.307   7.064
 3522POPC   C4A45990  12.826  18.285   7.364
 3522POPC   C1B45991  13.017  18.162   6.464
 3522POPC   C2B45992  13.019  18.085   6.764
 3522POPC   C3B45993  12.999  18.130   7.064
 3522POPC   C4B45994  12.992  18.106   7.364
 3523POPC   NC345995  19.833  27.616   5.564
 3523POPC   PO445996  19.815  27.604   5.864
 3523POPC   GL145997  19.831  27.577   6.164
 3523POPC   GL245998  19.768  27.482   6.164
 3523POPC   C1A45999  19.847  27.584   6.464
 3523POPC   D2A46000  19.804  27.629   6.764
 3523POPC   C3A46001  19.828  27.600   7.064
 3523POPC   C4A46002  19.863  27.569   7.364
 3523POPC   C1B46003  19.623  27.358   6.464
 3523POPC   C2B46004  19.717  27.395   6.764
 3523POPC   C3B46005  19.708  27.453   7.064
 3523POPC   C4B46006  19.695  27.376   7.364
 3524POPC   NC346007  10.508  29.929   5.564
 3524POPC   PO446008  10.526  29.918   5.864
 3524POPC   GL146009  10.572  29.906   6.164
 3524POPC   GL246010  10.653  29.873   6.164
 3524POPC   C1A46011  10.479  29.875   6.464
 3524POPC   D2A46012  10.521  29.966   6.764
 3524POPC   C3A46013  10.521  29.940   7.064
 3524POPC   C4A46014  10.563  29.956   7.364
 3524POPC   C1B46015  10.759  29.829   6.464
 3524POPC   C2B46016  10.794  29.858   6.764
 3524POPC   C3B46017  10.726  29.783   7.064
 3524POPC   C4B46018  10.719  29.848   7.364
 3525POPC   NC346019  32.266  22.934   5.564
 3525POPC   PO446020  32.207  22.896   5.864
 3525POPC   GL146021  32.223  22.968   6.164
 3525POPC   GL246022  32.237  23.072   6.164
 3525POPC   C1A46023  32.226  22.919   6.464
 3525POPC   D2A46024  32.208  22.946   6.764
 3525POPC   C3A46025  32.199  22.973   7.064
 3525POPC   C4A46026  32.286  22.930   7.364
 3525POPC   C1B46027  32.268  23.216   6.464
 3525POPC   C2B46028  32.289  23.232   6.764
 3525POPC   C3B46029  32.287  23.188   7.064
 3525POPC   C4B46030  32.310  23.224   7.364
 3526POPC   NC346031  29.928  12.094   5.564
 3526POPC   PO446032  29.931  12.117   5.864
 3526POPC   GL146033  29.966  12.043   6.164
 3526POPC   GL246034  29.885  11.937   6.164
 3526POPC   C1A46035  29.954  12.091   6.464
 3526POPC   D2A46036  29.876  12.111   6.764
 3526POPC   C3A46037  29.954  12.039   7.064
 3526POPC   C4A46038  29.876  12.042   7.364
 3526POPC   C1B46039  29.731  11.915   6.464
 3526POPC   C2B46040  29.726  11.883   6.764
 3526POPC   C3B46041  29.756  11.831   7.064
 3526POPC   C4B46042  29.724  11.894   7.364
 3527POPC   NC346043   7.380  33.058   5.564
 3527POPC   PO446044   7.407  32.978   5.864
 3527POPC   GL146045   7.445  33.005   6.164
 3527POPC   GL246046   7.333  33.106   6.164
 3527POPC   C1A46047   7.396  33.071   6.464
 3527POPC   D2A46048   7.444  33.042   6.764
 3527POPC   C3A46049   7.420  33.053   7.064
 3527POPC   C4A46050   7.413  33.042   7.364
 3527POPC   C1B46051   7.230  33.081   6.464
 3527POPC   C2B46052   7.141  33.151   6.764
 3527POPC   C3B46053   7.136  33.104   7.064
 3527POPC   C4B46054   7.188  33.092   7.364
 3528POPC   NC346055  36.081   1.248   5.564
 3528POPC   PO446056  36.100   1.205   5.864
 3528POPC   GL146057  36.094   1.228   6.164
 3528POPC   GL246058  36.100   1.118   6.164
 3528POPC   C1A46059  36.171   1.240   6.464
 3528POPC   D2A46060  36.156   1.247   6.764
 3528POPC   C3A46061  36.108   1.205   7.064
 3528POPC   C4A46062  36.108   1.223   7.364
 3528POPC   C1B46063  36.078   0.983   6.464
 3528POPC   C2B46064  36.108   0.947   6.764
 3528POPC   C3B46065  36.054   1.007   7.064
 3528POPC   C4B46066  36.135   0.958   7.364
 3529POPC   NC346067  28.340  14.371   5.564
 3529POPC   PO446068  28.378  14.447   5.864
 3529POPC   GL146069  28.360  14.373   6.164
 3529POPC   GL246070  28.355  14.281   6.164
 3529POPC   C1A46071  28.416  14.419   6.464
 3529POPC   D2A46072  28.384  14.361   6.764
 3529POPC   C3A46073  28.356  14.355   7.064
 3529POPC   C4A46074  28.408  14.406   7.364
 3529POPC   C1B46075  28.432  14.193   6.464
 3529POPC   C2B46076  28.397  14.195   6.764
 3529POPC   C3B46077  28.428  14.182   7.064
 3529POPC   C4B46078  28.441  14.170   7.364
 3530POPC   NC346079   9.781  19.848   5.564
 3530POPC   PO446080   9.763  19.847   5.864
 3530POPC   GL146081   9.723  19.789   6.164
 3530POPC   GL246082   9.667  19.870   6.164
 3530POPC   C1A46083   9.794  19.842   6.464
 3530POPC   D2A46084   9.750  19.849   6.764
 3530POPC   C3A46085   9.715  19.807   7.064
 3530POPC   C4A46086   9.784  19.870   7.364
 3530POPC   C1B46087   9.527  20.003   6.464
 3530POPC   C2B46088   9.556  19.992   6.764
 3530POPC   C3B46089   9.584  19.935   7.064
 3530POPC   C4B46090   9.510  19.954   7.364
 3531POPC   NC346091   4.332   3.516   5.564
 3531POPC   PO446092   4.350   3.574   5.864
 3531POPC   GL146093   4.287   3.550   6.164
 3531POPC   GL246094   4.211   3.667   6.164
 3531POPC   C1A46095   4.317   3.575   6.464
 3531POPC   D2A46096   4.331   3.499   6.764
 3531POPC   C3A46097   4.356   3.493   7.064
 3531POPC   C4A46098   4.311   3.521   7.364
 3531POPC   C1B46099   4.201   3.686   6.464
 3531POPC   C2B46100   4.183   3.707   6.764
 3531POPC   C3B46101   4.160   3.740   7.064
 3531POPC   C4B46102   4.182   3.757   7.364
 3532POPC   NC346103   4.281   5.044   5.564
 3532POPC   PO446104   4.291   5.112   5.864
 3532POPC   GL146105   4.357   5.060   6.164
 3532POPC   GL246106   4.184   5.215   6.164
 3532POPC   C1A46107   4.283   5.088   6.464
 3532POPC   D2A46108   4.357   5.076   6.764
 3532POPC   C3A46109   4.301   5.096   7.064
 3532POPC   C4A46110   4.335   5.102   7.364
 3532POPC   C1B46111   4.096   5.287   6.464
 3532POPC   C2B46112   4.093   5.289   6.764
 3532POPC   C3B46113   4.165   5.225   7.064
 3532POPC   C4B46114   4.155   5.294   7.364
 3533POPC   NC346115  13.590   3.591   5.564
 3533POPC   PO446116  13.587   3.545   5.864
 3533POPC   GL146117  13.658   3.496   6.164
 3533POPC   GL246118  13.590   3.627   6.164
 3533POPC   C1A46119  13.675   3.559   6.464
 3533POPC   D2A46120  13.626   3.563   6.764
 3533POPC   C3A46121  13.641   3.494   7.064
 3533POPC   C4A46122  13.632   3.498   7.364
 3533POPC   C1B46123  13.589   3.777   6.464
 3533POPC   C2B46124  13.604   3.764   6.764
 3533POPC   C3B46125  13.535   3.770   7.064
 3533POPC   C4B46126  13.574   3.782   7.364
 3534POPC   NC346127  26.013  34.568   5.564
 3534POPC   PO446128  26.042  34.623   5.864
 3534POPC   GL146129  26.060  34.579   6.164
 3534POPC   GL246130  26.127  34.515   6.164
 3534POPC   C1A46131  26.050  34.615   6.464
 3534POPC   D2A46132  26.028  34.538   6.764
 3534POPC   C3A46133  26.002  34.559   7.064
 3534POPC   C4A46134  26.091  34.589   7.364
 3534POPC   C1B46135  26.314  34.569   6.464
 3534POPC   C2B46136  26.310  34.498   6.764
 3534POPC   C3B46137  26.328  34.547   7.064
 3534POPC   C4B46138  26.240  34.562   7.364
 3535POPC   NC346139  24.500  10.475   5.564
 3535POPC   PO446140  24.516  10.509   5.864
 3535POPC   GL146141  24.490  10.483   6.164
 3535POPC   GL246142  24.440  10.356   6.164
 3535POPC   C1A46143  24.448  10.510   6.464
 3535POPC   D2A46144  24.510  10.553   6.764
 3535POPC   C3A46145  24.496  10.568   7.064
 3535POPC   C4A46146  24.466  10.567   7.364
 3535POPC   C1B46147  24.449  10.241   6.464
 3535POPC   C2B46148  24.403  10.256   6.764
 3535POPC   C3B46149  24.379  10.333   7.064
 3535POPC   C4B46150  24.424  10.270   7.364
 3536POPC   NC346151  25.283  24.515   5.564
 3536POPC   PO446152  25.312  24.536   5.864
 3536POPC   GL146153  25.290  24.493   6.164
 3536POPC   GL246154  25.237  24.556   6.164
 3536POPC   C1A46155  25.243  24.497   6.464
 3536POPC   D2A46156  25.241  24.448   6.764
 3536POPC   C3A46157  25.234  24.485   7.064
 3536POPC   C4A46158  25.258  24.502   7.364
 3536POPC   C1B46159  25.142  24.725   6.464
 3536POPC   C2B46160  25.136  24.661   6.764
 3536POPC   C3B46161  25.123  24.744   7.064
 3536POPC   C4B46162  25.113  24.750   7.364
 3537POPC   NC346163   2.716   5.072   5.564
 3537POPC   PO446164   2.782   5.067   5.864
 3537POPC   GL146165   2.790   5.076   6.164
 3537POPC   GL246166   2.877   5.119   6.164
 3537POPC   C1A46167   2.805   5.142   6.464
 3537POPC   D2A46168   2.805   5.067   6.764
 3537POPC   C3A46169   2.734   5.059   7.064
 3537POPC   C4A46170   2.814   5.106   7.364
 3537POPC   C1B46171   3.056   5.118   6.464
 3537POPC   C2B46172   3.034   5.141   6.764
 3537POPC   C3B46173   3.011   5.105   7.064
 3537POPC   C4B46174   3.008   5.056   7.364
 3538POPC   NC346175  27.553  42.311   5.564
 3538POPC   PO446176  27.602  42.372   5.864
 3538POPC   GL146177  27.607  42.343   6.164
 3538POPC   GL246178  27.729  42.360   6.164
 3538POPC   C1A46179  27.627  42.327   6.464
 3538POPC   D2A46180  27.543  42.352   6.764
 3538POPC   C3A46181  27.639  42.359   7.064
 3538POPC   C4A46182  27.559  42.348   7.364
 3538POPC   C1B46183  27.861  42.344   6.464
 3538POPC   C2B46184  27.883  42.340   6.764
 3538POPC   C3B46185  27.808  42.320   7.064
 3538POPC   C4B46186  27.823  42.332   7.364
 3539POPC   NC346187  37.636   0.444   5.564
 3539POPC   PO446188  37.677   0.487   5.864
 3539POPC   GL146189  37.696   0.446   6.164
 3539POPC   GL246190  37.590   0.505   6.164
 3539POPC   C1A46191  37.645   0.423   6.464
 3539POPC   D2A46192  37.681   0.421   6.764
 3539POPC   C3A46193  37.698   0.423   7.064
 3539POPC   C4A46194  37.692   0.414   7.364
 3539POPC   C1B46195  37.479   0.563   6.464
 3539POPC   C2B46196  37.473   0.619   6.764
 3539POPC   C3B46197  37.517   0.620   7.064
 3539POPC   C4B46198  37.473   0.586   7.364
 3540POPC   NC346199   4.328  15.934   5.564
 3540POPC   PO446200   4.283  15.998   5.864
 3540POPC   GL146201   4.345  15.943   6.164
 3540POPC   GL246202   4.412  15.902   6.164
 3540POPC   C1A46203   4.313  15.914   6.464
 3540POPC   D2A46204   4.350  15.995   6.764
 3540POPC   C3A46205   4.303  15.949   7.064
 3540POPC   C4A46206   4.321  15.933   7.364
 3540POPC   C1B46207   4.535  15.820   6.464
 3540POPC   C2B46208   4.497  15.797   6.764
 3540POPC   C3B46209   4.536  15.795   7.064
 3540POPC   C4B46210   4.490  15.775   7.364
 3541POPC   NC346211  38.500  37.667   5.564
 3541POPC   PO446212  38.499  37.648   5.864
 3541POPC   GL146213  38.429  37.726   6.164
 3541POPC   GL246214  38.471  37.814   6.164
 3541POPC   C1A46215  38.458  37.724   6.464
 3541POPC   D2A46216  38.442  37.729   6.764
 3541POPC   C3A46217  38.453  37.636   7.064
 3541POPC   C4A46218  38.451  37.725   7.364
 3541POPC   C1B46219  38.531  37.930   6.464
 3541POPC   C2B46220  38.571  37.918   6.764
 3541POPC   C3B46221  38.531  37.868   7.064
 3541POPC   C4B46222  38.543  37.870   7.364
 3542POPC   NC346223  30.735  27.553   5.564
 3542POPC   PO446224  30.672  27.584   5.864
 3542POPC   GL146225  30.711  27.595   6.164
 3542POPC   GL246226  30.661  27.731   6.164
 3542POPC   C1A46227  30.663  27.559   6.464
 3542POPC   D2A46228  30.660  27.549   6.764
 3542POPC   C3A46229  30.745  27.589   7.064
 3542POPC   C4A46230  30.659  27.580   7.364
 3542POPC   C1B46231  30.582  27.809   6.464
 3542POPC   C2B46232  30.627  27.820   6.764
 3542POPC   C3B46233  30.639  27.825   7.064
 3542POPC   C4B46234  30.570  27.835   7.364
 3543POPC   NC346235  19.072  39.209   5.564
 3543POPC   PO446236  19.031  39.269   5.864
 3543POPC   GL146237  19.107  39.276   6.164
 3543POPC   GL246238  18.995  39.138   6.164
 3543POPC   C1A46239  19.099  39.270   6.464
 3543POPC   D2A46240  19.037  39.224   6.764
 3543POPC   C3A46241  19.051  39.201   7.064
 3543POPC   C4A46242  19.106  39.200   7.364
 3543POPC   C1B46243  18.879  39.071   6.464
 3543POPC   C2B46244  18.807  39.163   6.764
 3543POPC   C3B46245  18.795  39.159   7.064
 3543POPC   C4B46246  18.815  39.128   7.364
 3544POPC   NC346247  35.401  33.007   5.564
 3544POPC   PO446248  35.389  33.023   5.864
 3544POPC   GL146249  35.386  32.989   6.164
 3544POPC   GL246250  35.317  33.101   6.164
 3544POPC   C1A46251  35.312  33.018   6.464
 3544POPC   D2A46252  35.319  33.048   6.764
 3544POPC   C3A46253  35.335  32.983   7.064
 3544POPC   C4A46254  35.377  33.036   7.364
 3544POPC   C1B46255  35.323  33.287   6.464
 3544POPC   C2B46256  35.325  33.302   6.764
 3544POPC   C3B46257  35.312  33.303   7.064
 3544POPC   C4B46258  35.362  33.290   7.364
 3545POPC   NC346259  32.266   5.105   5.564
 3545POPC   PO446260  32.288   5.101   5.864
 3545POPC   GL146261  32.232   5.127   6.164
 3545POPC   GL246262  32.125   5.036   6.164
 3545POPC   C1A46263  32.246   5.043   6.464
 3545POPC   D2A46264  32.217   5.071   6.764
 3545POPC   C3A46265  32.201   5.141   7.064
 3545POPC   C4A46266  32.266   5.082   7.364
 3545POPC   C1B46267  32.000   5.041   6.464
 3545POPC   C2B46268  32.024   5.084   6.764
 3545POPC   C3B46269  31.990   5.053   7.064
 3545POPC   C4B46270  31.954   5.056   7.364
 3546POPC   NC346271  14.444  38.485   5.564
 3546POPC   PO446272  14.444  38.469   5.864
 3546POPC   GL146273  14.411  38.457   6.164
 3546POPC   GL246274  14.476  38.553   6.164
 3546POPC   C1A46275  14.448  38.419   6.464
 3546POPC   D2A46276  14.361  38.495   6.764
 3546POPC   C3A46277  14.368  38.427   7.064
 3546POPC   C4A46278  14.376  38.423   7.364
 3546POPC   C1B46279  14.519  38.685   6.464
 3546POPC   C2B46280  14.465  38.681   6.764
 3546POPC   C3B46281  14.519  38.714   7.064
 3546POPC   C4B46282  14.526  38.647   7.364
 3547POPC   NC346283  21.419  24.480   5.564
 3547POPC   PO446284  21.378  24.454   5.864
 3547POPC   GL146285  21.368  24.458   6.164
 3547POPC   GL246286  21.516  24.439   6.164
 3547POPC   C1A46287  21.436  24.527   6.464
 3547POPC   D2A46288  21.392  24.497   6.764
 3547POPC   C3A46289  21.396  24.513   7.064
 3547POPC   C4A46290  21.405  24.442   7.364
 3547POPC   C1B46291  21.610  24.311   6.464
 3547POPC   C2B46292  21.578  24.352   6.764
 3547POPC   C3B46293  21.538  24.333   7.064
 3547POPC   C4B46294  21.568  24.351   7.364
 3548POPC   NC346295  20.658  28.399   5.564
 3548POPC   PO446296  20.660  28.397   5.864
 3548POPC   GL146297  20.631  28.324   6.164
 3548POPC   GL246298  20.616  28.258   6.164
 3548POPC   C1A46299  20.659  28.403   6.464
 3548POPC   D2A46300  20.658  28.340   6.764
 3548POPC   C3A46301  20.568  28.333   7.064
 3548POPC   C4A46302  20.615  28.378   7.364
 3548POPC   C1B46303  20.611  28.079   6.464
 3548POPC   C2B46304  20.615  28.131   6.764
 3548POPC   C3B46305  20.668  28.161   7.064
 3548POPC   C4B46306  20.666  28.156   7.364
 3549POPC   NC346307   3.511  19.846   5.564
 3549POPC   PO446308   3.524  19.847   5.864
 3549POPC   GL146309   3.543  19.806   6.164
 3549POPC   GL246310   3.610  19.909   6.164
 3549POPC   C1A46311   3.558  19.835   6.464
 3549POPC   D2A46312   3.505  19.819   6.764
 3549POPC   C3A46313   3.587  19.865   7.064
 3549POPC   C4A46314   3.525  19.798   7.364
 3549POPC   C1B46315   3.775  19.953   6.464
 3549POPC   C2B46316   3.793  20.016   6.764
 3549POPC   C3B46317   3.770  20.016   7.064
 3549POPC   C4B46318   3.749  19.967   7.364
 3550POPC   NC346319  17.536  24.457   5.564
 3550POPC   PO446320  17.484  24.507   5.864
 3550POPC   GL146321  17.545  24.477   6.164
 3550POPC   GL246322  17.444  24.625   6.164
 3550POPC   C1A46323  17.479  24.494   6.464
 3550POPC   D2A46324  17.494  24.464   6.764
 3550POPC   C3A46325  17.505  24.452   7.064
 3550POPC   C4A46326  17.489  24.538   7.364
 3550POPC   C1B46327  17.425  24.691   6.464
 3550POPC   C2B46328  17.378  24.672   6.764
 3550POPC   C3B46329  17.377  24.705   7.064
 3550POPC   C4B46330  17.409  24.732   7.364
 3551POPC   NC346331  29.924  22.150   5.564
 3551POPC   PO446332  29.931  22.177   5.864
 3551POPC   GL146333  29.919  22.178   6.164
 3551POPC   GL246334  29.860  22.080   6.164
 3551POPC   C1A46335  29.927  22.133   6.464
 3551POPC   D2A46336  29.962  22.188   6.764
 3551POPC   C3A46337  29.937  22.160   7.064
 3551POPC   C4A46338  29.962  22.172   7.364
 3551POPC   C1B46339  29.817  21.899   6.464
 3551POPC   C2B46340  29.877  21.960   6.764
 3551POPC   C3B46341  29.888  21.889   7.064
 3551POPC   C4B46342  29.851  21.891   7.364
 3552POPC   NC346343  43.120   5.124   5.564
 3552POPC   PO446344  43.152   5.070   5.864
 3552POPC   GL146345  43.108   5.140   6.164
 3552POPC   GL246346  43.077   4.923   6.164
 3552POPC   C1A46347  43.101   5.101   6.464
 3552POPC   D2A46348  43.126   5.081   6.764
 3552POPC   C3A46349  43.157   5.093   7.064
 3552POPC   C4A46350  43.094   5.046   7.364
 3552POPC   C1B46351  43.038   4.796   6.464
 3552POPC   C2B46352  43.071   4.831   6.764
 3552POPC   C3B46353  43.043   4.887   7.064
 3552POPC   C4B46354  43.104   4.797   7.364
 3553POPC   NC346355  22.923  42.367   5.564
 3553POPC   PO446356  22.959  42.327   5.864
 3553POPC   GL146357  22.924  42.313   6.164
 3553POPC   GL246358  22.847  42.296   6.164
 3553POPC   C1A46359  22.982  42.384   6.464
 3553POPC   D2A46360  22.906  42.298   6.764
 3553POPC   C3A46361  22.901  42.383   7.064
 3553POPC   C4A46362  22.961  42.370   7.364
 3553POPC   C1B46363  22.660  42.244   6.464
 3553POPC   C2B46364  22.727  42.240   6.764
 3553POPC   C3B46365  22.745  42.233   7.064
 3553POPC   C4B46366  22.722  42.220   7.364
 3554POPC   NC346367  38.486  36.085   5.564
 3554POPC   PO446368  38.478  36.133   5.864
 3554POPC   GL146369  38.452  36.149   6.164
 3554POPC   GL246370  38.413  36.250   6.164
 3554POPC   C1A46371  38.472  36.116   6.464
 3554POPC   D2A46372  38.468  36.175   6.764
 3554POPC   C3A46373  38.501  36.166   7.064
 3554POPC   C4A46374  38.437  36.096   7.364
 3554POPC   C1B46375  38.321  36.371   6.464
 3554POPC   C2B46376  38.274  36.334   6.764
 3554POPC   C3B46377  38.347  36.307   7.064
 3554POPC   C4B46378  38.345  36.368   7.364
 3555POPC   NC346379  25.315   5.095   5.564
 3555POPC   PO446380  25.247   5.129   5.864
 3555POPC   GL146381  25.269   5.050   6.164
 3555POPC   GL246382  25.092   5.092   6.164
 3555POPC   C1A46383  25.239   5.079   6.464
 3555POPC   D2A46384  25.256   5.139   6.764
 3555POPC   C3A46385  25.229   5.121   7.064
 3555POPC   C4A46386  25.288   5.090   7.364
 3555POPC   C1B46387  25.002   5.049   6.464
 3555POPC   C2B46388  24.988   5.054   6.764
 3555POPC   C3B46389  25.028   5.073   7.064
 3555POPC   C4B46390  25.044   5.078   7.364
 3556POPC   NC346391   3.509  22.928   5.564
 3556POPC   PO446392   3.553  22.931   5.864
 3556POPC   GL146393   3.589  22.984   6.164
 3556POPC   GL246394   3.430  22.939   6.164
 3556POPC   C1A46395   3.580  22.926   6.464
 3556POPC   D2A46396   3.574  22.972   6.764
 3556POPC   C3A46397   3.573  22.975   7.064
 3556POPC   C4A46398   3.500  22.945   7.364
 3556POPC   C1B46399   3.314  22.916   6.464
 3556POPC   C2B46400   3.289  22.888   6.764
 3556POPC   C3B46401   3.338  22.890   7.064
 3556POPC   C4B46402   3.297  22.956   7.364
 3557POPC   NC346403  42.286  15.155   5.564
 3557POPC   PO446404  42.372  15.140   5.864
 3557POPC   GL146405  42.370  15.216   6.164
 3557POPC   GL246406  42.437  15.126   6.164
 3557POPC   C1A46407  42.378  15.151   6.464
 3557POPC   D2A46408  42.378  15.149   6.764
 3557POPC   C3A46409  42.294  15.185   7.064
 3557POPC   C4A46410  42.304  15.131   7.364
 3557POPC   C1B46411  42.528  15.013   6.464
 3557POPC   C2B46412  42.517  15.027   6.764
 3557POPC   C3B46413  42.538  15.083   7.064
 3557POPC   C4B46414  42.545  15.086   7.364
 3558POPC   NC346415  34.624  31.430   5.564
 3558POPC   PO446416  34.592  31.450   5.864
 3558POPC   GL146417  34.576  31.458   6.164
 3558POPC   GL246418  34.453  31.472   6.164
 3558POPC   C1A46419  34.550  31.487   6.464
 3558POPC   D2A46420  34.606  31.489   6.764
 3558POPC   C3A46421  34.582  31.495   7.064
 3558POPC   C4A46422  34.590  31.450   7.364
 3558POPC   C1B46423  34.366  31.486   6.464
 3558POPC   C2B46424  34.328  31.489   6.764
 3558POPC   C3B46425  34.298  31.494   7.064
 3558POPC   C4B46426  34.374  31.514   7.364
 3559POPC   NC346427  22.936  10.559   5.564
 3559POPC   PO446428  22.956  10.546   5.864
 3559POPC   GL146429  22.891  10.487   6.164
 3559POPC   GL246430  22.835  10.583   6.164
 3559POPC   C1A46431  22.947  10.553   6.464
 3559POPC   D2A46432  22.925  10.517   6.764
 3559POPC   C3A46433  22.973  10.501   7.064
 3559POPC   C4A46434  22.933  10.544   7.364
 3559POPC   C1B46435  22.724  10.517   6.464
 3559POPC   C2B46436  22.708  10.559   6.764
 3559POPC   C3B46437  22.652  10.542   7.064
 3559POPC   C4B46438  22.699  10.582   7.364
 3560POPC   NC346439   5.876  44.629   5.564
 3560POPC   PO446440   5.856  44.627   5.864
 3560POPC   GL146441   5.857  44.621   6.164
 3560POPC   GL246442   6.014  44.578   6.164
 3560POPC   C1A46443   5.834  44.633   6.464
 3560POPC   D2A46444   5.907  44.654   6.764
 3560POPC   C3A46445   5.832  44.704   7.064
 3560POPC   C4A46446   5.862  44.675   7.364
 3560POPC   C1B46447   6.056  44.499   6.464
 3560POPC   C2B46448   6.105  44.519   6.764
 3560POPC   C3B46449   6.026  44.526   7.064
 3560POPC   C4B46450   6.045  44.549   7.364
 3561POPC   NC346451  43.839  43.917   5.564
 3561POPC   PO446452  43.850  43.864   5.864
 3561POPC   GL146453  43.862  43.877   6.164
 3561POPC   GL246454  44.046  43.924   6.164
 3561POPC   C1A46455  43.865  43.874   6.464
 3561POPC   D2A46456  43.868  43.908   6.764
 3561POPC   C3A46457  43.843  43.933   7.064
 3561POPC   C4A46458  43.922  43.861   7.364
 3561POPC   C1B46459  44.115  43.839   6.464
 3561POPC   C2B46460  44.143  43.847   6.764
 3561POPC   C3B46461  44.134  43.836   7.064
 3561POPC   C4B46462  44.170  43.855   7.364
 3562POPC   NC346463   8.243  14.365   5.564
 3562POPC   PO446464   8.226  14.411   5.864
 3562POPC   GL146465   8.176  14.431   6.164
 3562POPC   GL246466   8.123  14.555   6.164
 3562POPC   C1A46467   8.209  14.390   6.464
 3562POPC   D2A46468   8.163  14.359   6.764
 3562POPC   C3A46469   8.208  14.440   7.064
 3562POPC   C4A46470   8.170  14.438   7.364
 3562POPC   C1B46471   8.167  14.650   6.464
 3562POPC   C2B46472   8.111  14.631   6.764
 3562POPC   C3B46473   8.163  14.619   7.064
 3562POPC   C4B46474   8.148  14.650   7.364
 3563POPC   NC346475  17.521   3.585   5.564
 3563POPC   PO446476  17.480   3.521   5.864
 3563POPC   GL146477  17.464   3.492   6.164
 3563POPC   GL246478  17.596   3.519   6.164
 3563POPC   C1A46479  17.556   3.539   6.464
 3563POPC   D2A46480  17.468   3.519   6.764
 3563POPC   C3A46481  17.494   3.586   7.064
 3563POPC   C4A46482  17.503   3.519   7.364
 3563POPC   C1B46483  17.716   3.556   6.464
 3563POPC   C2B46484  17.794   3.560   6.764
 3563POPC   C3B46485  17.772   3.597   7.064
 3563POPC   C4B46486  17.802   3.544   7.364
 3564POPC   NC346487   8.924  17.547   5.564
 3564POPC   PO446488   9.016  17.550   5.864
 3564POPC   GL146489   9.003  17.501   6.164
 3564POPC   GL246490   8.983  17.621   6.164
 3564POPC   C1A46491   8.969  17.520   6.464
 3564POPC   D2A46492   8.951  17.472   6.764
 3564POPC   C3A46493   8.976  17.516   7.064
 3564POPC   C4A46494   8.936  17.468   7.364
 3564POPC   C1B46495   8.852  17.727   6.464
 3564POPC   C2B46496   8.865  17.749   6.764
 3564POPC   C3B46497   8.873  17.754   7.064
 3564POPC   C4B46498   8.912  17.783   7.364
 3565POPC   NC346499  22.142   1.209   5.564
 3565POPC   PO446500  22.125   1.203   5.864
 3565POPC   GL146501  22.164   1.166   6.164
 3565POPC   GL246502  22.124   1.080   6.164
 3565POPC   C1A46503  22.172   1.184   6.464
 3565POPC   D2A46504  22.149   1.169   6.764
 3565POPC   C3A46505  22.168   1.248   7.064
 3565POPC   C4A46506  22.118   1.197   7.364
 3565POPC   C1B46507  22.136   1.004   6.464
 3565POPC   C2B46508  22.185   1.009   6.764
 3565POPC   C3B46509  22.213   0.967   7.064
 3565POPC   C4B46510  22.158   0.917   7.364
 3566POPC   NC346511   2.784   6.627   5.564
 3566POPC   PO446512   2.794   6.662   5.864
 3566POPC   GL146513   2.806   6.614   6.164
 3566POPC   GL246514   2.849   6.708   6.164
 3566POPC   C1A46515   2.786   6.670   6.464
 3566POPC   D2A46516   2.790   6.625   6.764
 3566POPC   C3A46517   2.765   6.671   7.064
 3566POPC   C4A46518   2.749   6.603   7.364
 3566POPC   C1B46519   2.930   6.744   6.464
 3566POPC   C2B46520   2.940   6.814   6.764
 3566POPC   C3B46521   3.021   6.804   7.064
 3566POPC   C4B46522   2.965   6.816   7.364
 3567POPC   NC346523  14.406  24.490   5.564
 3567POPC   PO446524  14.363  24.513   5.864
 3567POPC   GL146525  14.362  24.448   6.164
 3567POPC   GL246526  14.289  24.425   6.164
 3567POPC   C1A46527  14.442  24.524   6.464
 3567POPC   D2A46528  14.394  24.462   6.764
 3567POPC   C3A46529  14.409  24.502   7.064
 3567POPC   C4A46530  14.413  24.531   7.364
 3567POPC   C1B46531  14.135  24.415   6.464
 3567POPC   C2B46532  14.149  24.399   6.764
 3567POPC   C3B46533  14.133  24.433   7.064
 3567POPC   C4B46534  14.140  24.392   7.364
 3568POPC   NC346535  36.130  11.322   5.564
 3568POPC   PO446536  36.100  11.252   5.864
 3568POPC   GL146537  36.085  11.316   6.164
 3568POPC   GL246538  36.098  11.406   6.164
 3568POPC   C1A46539  36.097  11.300   6.464
 3568POPC   D2A46540  36.113  11.291   6.764
 3568POPC   C3A46541  36.177  11.304   7.064
 3568POPC   C4A46542  36.084  11.309   7.364
 3568POPC   C1B46543  35.984  11.551   6.464
 3568POPC   C2B46544  35.992  11.568   6.764
 3568POPC   C3B46545  36.033  11.533   7.064
 3568POPC   C4B46546  36.019  11.477   7.364
 3569POPC   NC346547  36.092  35.347   5.564
 3569POPC   PO446548  36.092  35.377   5.864
 3569POPC   GL146549  36.162  35.358   6.164
 3569POPC   GL246550  36.075  35.217   6.164
 3569POPC   C1A46551  36.126  35.371   6.464
 3569POPC   D2A46552  36.134  35.330   6.764
 3569POPC   C3A46553  36.170  35.396   7.064
 3569POPC   C4A46554  36.111  35.324   7.364
 3569POPC   C1B46555  35.990  35.195   6.464
 3569POPC   C2B46556  35.964  35.172   6.764
 3569POPC   C3B46557  35.912  35.166   7.064
 3569POPC   C4B46558  35.918  35.204   7.364
 3570POPC   NC346559  13.600  43.921   5.564
 3570POPC   PO446560  13.607  43.843   5.864
 3570POPC   GL146561  13.614  43.846   6.164
 3570POPC   GL246562  13.702  43.738   6.164
 3570POPC   C1A46563  13.651  43.910   6.464
 3570POPC   D2A46564  13.610  43.901   6.764
 3570POPC   C3A46565  13.584  43.849   7.064
 3570POPC   C4A46566  13.596  43.842   7.364
 3570POPC   C1B46567  13.738  43.615   6.464
 3570POPC   C2B46568  13.742  43.642   6.764
 3570POPC   C3B46569  13.697  43.606   7.064
 3570POPC   C4B46570  13.686  43.640   7.364
 3571POPC   NC346571  26.054  19.068   5.564
 3571POPC   PO446572  25.998  19.045   5.864
 3571POPC   GL146573  26.021  19.046   6.164
 3571POPC   GL246574  26.092  19.130   6.164
 3571POPC   C1A46575  26.027  19.047   6.464
 3571POPC   D2A46576  26.039  19.091   6.764
 3571POPC   C3A46577  26.049  19.063   7.064
 3571POPC   C4A46578  26.071  19.090   7.364
 3571POPC   C1B46579  26.192  19.282   6.464
 3571POPC   C2B46580  26.206  19.314   6.764
 3571POPC   C3B46581  26.177  19.311   7.064
 3571POPC   C4B46582  26.127  19.224   7.364
 3572POPC   NC346583   1.238  28.387   5.564
 3572POPC   PO446584   1.232  28.344   5.864
 3572POPC   GL146585   1.192  28.380   6.164
 3572POPC   GL246586   1.123  28.307   6.164
 3572POPC   C1A46587   1.250  28.415   6.464
 3572POPC   D2A46588   1.211  28.357   6.764
 3572POPC   C3A46589   1.263  28.322   7.064
 3572POPC   C4A46590   1.247  28.405   7.364
 3572POPC   C1B46591   1.052  28.163   6.464
 3572POPC   C2B46592   1.093  28.184   6.764
 3572POPC   C3B46593   1.083  28.168   7.064
 3572POPC   C4B46594   1.021  28.180   7.364
 3573POPC   NC346595  15.165  32.207   5.564
 3573POPC   PO446596  15.149  32.273   5.864
 3573POPC   GL146597  15.167  32.274   6.164
 3573POPC   GL246598  15.118  32.167   6.164
 3573POPC   C1A46599  15.218  32.226   6.464
 3573POPC   D2A46600  15.199  32.207   6.764
 3573POPC   C3A46601  15.149  32.243   7.064
 3573POPC   C4A46602  15.198  32.257   7.364
 3573POPC   C1B46603  15.056  32.044   6.464
 3573POPC   C2B46604  15.042  32.030   6.764
 3573POPC   C3B46605  14.975  32.022   7.064
 3573POPC   C4B46606  15.061  32.099   7.364
 3574POPC   NC346607  21.401  36.123   5.564
 3574POPC   PO446608  21.356  36.097   5.864
 3574POPC   GL146609  21.340  36.085   6.164
 3574POPC   GL246610  21.221  36.120   6.164
 3574POPC   C1A46611  21.364  36.111   6.464
 3574POPC   D2A46612  21.420  36.092   6.764
 3574POPC   C3A46613  21.413  36.080   7.064
 3574POPC   C4A46614  21.392  36.159   7.364
 3574POPC   C1B46615  21.165  36.061   6.464
 3574POPC   C2B46616  21.170  36.076   6.764
 3574POPC   C3B46617  21.123  36.048   7.064
 3574POPC   C4B46618  21.117  36.086   7.364
 3575POPC   NC346619   5.141  40.787   5.564
 3575POPC   PO446620   5.047  40.820   5.864
 3575POPC   GL146621   5.136  40.754   6.164
 3575POPC   GL246622   5.203  40.866   6.164
 3575POPC   C1A46623   5.047  40.781   6.464
 3575POPC   D2A46624   5.066  40.824   6.764
 3575POPC   C3A46625   5.113  40.788   7.064
 3575POPC   C4A46626   5.053  40.772   7.364
 3575POPC   C1B46627   5.187  41.020   6.464
 3575POPC   C2B46628   5.238  40.960   6.764
 3575POPC   C3B46629   5.245  40.974   7.064
 3575POPC   C4B46630   5.258  40.966   7.364
 3576POPC   NC346631   8.183  23.757   5.564
 3576POPC   PO446632   8.173  23.704   5.864
 3576POPC   GL146633   8.205  23.747   6.164
 3576POPC   GL246634   8.226  23.868   6.164
 3576POPC   C1A46635   8.154  23.675   6.464
 3576POPC   D2A46636   8.188  23.678   6.764
 3576POPC   C3A46637   8.209  23.747   7.064
 3576POPC   C4A46638   8.191  23.748   7.364
 3576POPC   C1B46639   8.362  23.894   6.464
 3576POPC   C2B46640   8.339  23.957   6.764
 3576POPC   C3B46641   8.355  23.957   7.064
 3576POPC   C4B46642   8.327  23.918   7.364
 3577POPC   NC346643  31.514  23.667   5.564
 3577POPC   PO446644  31.462  23.740   5.864
 3577POPC   GL146645  31.481  23.727   6.164
 3577POPC   GL246646  31.442  23.575   6.164
 3577POPC   C1A46647  31.455  23.686   6.464
 3577POPC   D2A46648  31.482  23.729   6.764
 3577POPC   C3A46649  31.464  23.763   7.064
 3577POPC   C4A46650  31.435  23.729   7.364
 3577POPC   C1B46651  31.396  23.527   6.464
 3577POPC   C2B46652  31.357  23.432   6.764
 3577POPC   C3B46653  31.343  23.447   7.064
 3577POPC   C4B46654  31.372  23.529   7.364
 3578POPC   NC346655   0.481  36.140   5.564
 3578POPC   PO446656   0.433  36.124   5.864
 3578POPC   GL146657   0.437  36.151   6.164
 3578POPC   GL246658   0.331  36.191   6.164
 3578POPC   C1A46659   0.394  36.139   6.464
 3578POPC   D2A46660   0.471  36.089   6.764
 3578POPC   C3A46661   0.390  36.162   7.064
 3578POPC   C4A46662   0.449  36.107   7.364
 3578POPC   C1B46663   0.303  36.341   6.464
 3578POPC   C2B46664   0.233  36.287   6.764
 3578POPC   C3B46665   0.238  36.316   7.064
 3578POPC   C4B46666   0.278  36.318   7.364
 3579POPC   NC346667  15.207   8.194   5.564
 3579POPC   PO446668  15.198   8.240   5.864
 3579POPC   GL146669  15.229   8.229   6.164
 3579POPC   GL246670  15.309   8.192   6.164
 3579POPC   C1A46671  15.157   8.244   6.464
 3579POPC   D2A46672  15.194   8.191   6.764
 3579POPC   C3A46673  15.228   8.166   7.064
 3579POPC   C4A46674  15.164   8.175   7.364
 3579POPC   C1B46675  15.460   8.141   6.464
 3579POPC   C2B46676  15.419   8.108   6.764
 3579POPC   C3B46677  15.392   8.130   7.064
 3579POPC   C4B46678  15.423   8.135   7.364
 3580POPC   NC346679  26.080  16.693   5.564
 3580POPC   PO446680  26.063  16.771   5.864
 3580POPC   GL146681  26.004  16.740   6.164
 3580POPC   GL246682  25.993  16.570   6.164
 3580POPC   C1A46683  26.049  16.698   6.464
 3580POPC   D2A46684  25.999  16.755   6.764
 3580POPC   C3A46685  26.018  16.712   7.064
 3580POPC   C4A46686  26.042  16.700   7.364
 3580POPC   C1B46687  26.077  16.527   6.464
 3580POPC   C2B46688  26.053  16.455   6.764
 3580POPC   C3B46689  26.039  16.467   7.064
 3580POPC   C4B46690  26.039  16.443   7.364
 3581POPC   NC346691  41.548  21.380   5.564
 3581POPC   PO446692  41.535  21.383   5.864
 3581POPC   GL146693  41.533  21.361   6.164
 3581POPC   GL246694  41.499  21.495   6.164
 3581POPC   C1A46695  41.589  21.414   6.464
 3581POPC   D2A46696  41.585  21.345   6.764
 3581POPC   C3A46697  41.579  21.396   7.064
 3581POPC   C4A46698  41.591  21.412   7.364
 3581POPC   C1B46699  41.402  21.619   6.464
 3581POPC   C2B46700  41.404  21.568   6.764
 3581POPC   C3B46701  41.380  21.560   7.064
 3581POPC   C4B46702  41.452  21.563   7.364
 3582POPC   NC346703  26.022   9.010   5.564
 3582POPC   PO446704  26.040   8.961   5.864
 3582POPC   GL146705  26.042   8.989   6.164
 3582POPC   GL246706  26.043   9.087   6.164
 3582POPC   C1A46707  26.041   9.016   6.464
 3582POPC   D2A46708  26.043   8.967   6.764
 3582POPC   C3A46709  26.001   9.010   7.064
 3582POPC   C4A46710  26.088   8.926   7.364
 3582POPC   C1B46711  26.022   9.216   6.464
 3582POPC   C2B46712  26.058   9.219   6.764
 3582POPC   C3B46713  26.052   9.267   7.064
 3582POPC   C4B46714  26.006   9.244   7.364
 3583POPC   NC346715  35.359  36.952   5.564
 3583POPC   PO446716  35.338  36.924   5.864
 3583POPC   GL146717  35.399  36.922   6.164
 3583POPC   GL246718  35.449  36.832   6.164
 3583POPC   C1A46719  35.350  36.885   6.464
 3583POPC   D2A46720  35.355  36.903   6.764
 3583POPC   C3A46721  35.353  36.936   7.064
 3583POPC   C4A46722  35.389  36.931   7.364
 3583POPC   C1B46723  35.635  36.834   6.464
 3583POPC   C2B46724  35.583  36.796   6.764
 3583POPC   C3B46725  35.542  36.827   7.064
 3583POPC   C4B46726  35.544  36.811   7.364
 3584POPC   NC346727  43.876  11.328   5.564
 3584POPC   PO446728  43.878  11.331   5.864
 3584POPC   GL146729  43.873  11.299   6.164
 3584POPC   GL246730  43.809  11.175   6.164
 3584POPC   C1A46731  43.869  11.331   6.464
 3584POPC   D2A46732  43.897  11.278   6.764
 3584POPC   C3A46733  43.868  11.279   7.064
 3584POPC   C4A46734  43.881  11.285   7.364
 3584POPC   C1B46735  43.747  11.068   6.464
 3584POPC   C2B46736  43.738  11.137   6.764
 3584POPC   C3B46737  43.719  11.069   7.064
 3584POPC   C4B46738  43.752  11.079   7.364
 3585POPC   NC346739  41.523   9.733   5.564
 3585POPC   PO446740  41.570   9.714   5.864
 3585POPC   GL146741  41.592   9.787   6.164
 3585POPC   GL246742  41.417   9.712   6.164
 3585POPC   C1A46743  41.517   9.772   6.464
 3585POPC   D2A46744  41.586   9.794   6.764
 3585POPC   C3A46745  41.518   9.779   7.064
 3585POPC   C4A46746  41.589   9.783   7.364
 3585POPC   C1B46747  41.322   9.694   6.464
 3585POPC   C2B46748  41.343   9.730   6.764
 3585POPC   C3B46749  41.337   9.732   7.064
 3585POPC   C4B46750  41.341   9.678   7.364
 3586POPC   NC346751  29.942  39.993   5.564
 3586POPC   PO446752  29.875  40.044   5.864
 3586POPC   GL146753  29.944  40.050   6.164
 3586POPC   GL246754  30.010  39.984   6.164
 3586POPC   C1A46755  29.932  39.978   6.464
 3586POPC   D2A46756  29.879  40.032   6.764
 3586POPC   C3A46757  29.926  40.056   7.064
 3586POPC   C4A46758  29.950  39.994   7.364
 3586POPC   C1B46759  30.130  40.033   6.464
 3586POPC   C2B46760  30.135  39.992   6.764
 3586POPC   C3B46761  30.178  40.024   7.064
 3586POPC   C4B46762  30.124  40.025   7.364
 3587POPC   NC346763  32.267  31.506   5.564
 3587POPC   PO446764  32.206  31.489   5.864
 3587POPC   GL146765  32.209  31.483   6.164
 3587POPC   GL246766  32.327  31.446   6.164
 3587POPC   C1A46767  32.259  31.460   6.464
 3587POPC   D2A46768  32.277  31.469   6.764
 3587POPC   C3A46769  32.244  31.467   7.064
 3587POPC   C4A46770  32.245  31.521   7.364
 3587POPC   C1B46771  32.476  31.385   6.464
 3587POPC   C2B46772  32.523  31.368   6.764
 3587POPC   C3B46773  32.532  31.344   7.064
 3587POPC   C4B46774  32.498  31.399   7.364
 3588POPC   NC346775  15.961   6.670   5.564
 3588POPC   PO446776  15.926   6.678   5.864
 3588POPC   GL146777  15.974   6.623   6.164
 3588POPC   GL246778  15.872   6.689   6.164
 3588POPC   C1A46779  15.988   6.618   6.464
 3588POPC   D2A46780  15.994   6.635   6.764
 3588POPC   C3A46781  15.954   6.627   7.064
 3588POPC   C4A46782  15.948   6.606   7.364
 3588POPC   C1B46783  15.717   6.729   6.464
 3588POPC   C2B46784  15.750   6.747   6.764
 3588POPC   C3B46785  15.708   6.788   7.064
 3588POPC   C4B46786  15.743   6.775   7.364
 3589POPC   NC346787  33.805   2.745   5.564
 3589POPC   PO446788  33.778   2.767   5.864
 3589POPC   GL146789  33.814   2.796   6.164
 3589POPC   GL246790  33.852   2.734   6.164
 3589POPC   C1A46791  33.843   2.751   6.464
 3589POPC   D2A46792  33.823   2.765   6.764
 3589POPC   C3A46793  33.839   2.779   7.064
 3589POPC   C4A46794  33.842   2.734   7.364
 3589POPC   C1B46795  33.948   2.650   6.464
 3589POPC   C2B46796  33.997   2.659   6.764
 3589POPC   C3B46797  33.960   2.600   7.064
 3589POPC   C4B46798  34.017   2.589   7.364
 3590POPC   NC346799  16.748  33.055   5.564
 3590POPC   PO446800  16.726  33.038   5.864
 3590POPC   GL146801  16.780  33.055   6.164
 3590POPC   GL246802  16.709  33.141   6.164
 3590POPC   C1A46803  16.750  33.044   6.464
 3590POPC   D2A46804  16.705  33.046   6.764
 3590POPC   C3A46805  16.773  33.024   7.064
 3590POPC   C4A46806  16.700  32.998   7.364
 3590POPC   C1B46807  16.725  33.277   6.464
 3590POPC   C2B46808  16.758  33.312   6.764
 3590POPC   C3B46809  16.746  33.307   7.064
 3590POPC   C4B46810  16.771  33.284   7.364
 3591POPC   NC346811  12.063  26.012   5.564
 3591POPC   PO446812  12.086  26.044   5.864
 3591POPC   GL146813  12.065  26.089   6.164
 3591POPC   GL246814  12.160  25.993   6.164
 3591POPC   C1A46815  12.051  26.025   6.464
 3591POPC   D2A46816  12.064  26.016   6.764
 3591POPC   C3A46817  12.088  26.015   7.064
 3591POPC   C4A46818  12.060  26.033   7.364
 3591POPC   C1B46819  12.282  25.905   6.464
 3591POPC   C2B46820  12.271  25.868   6.764
 3591POPC   C3B46821  12.292  25.829   7.064
 3591POPC   C4B46822  12.305  25.895   7.364
 3592POPC   NC346823   0.422  14.382   5.564
 3592POPC   PO446824   0.461  14.420   5.864
 3592POPC   GL146825   0.470  14.431   6.164
 3592POPC   GL246826   0.501  14.339   6.164
 3592POPC   C1A46827   0.447  14.381   6.464
 3592POPC   D2A46828   0.416  14.423   6.764
 3592POPC   C3A46829   0.443  14.357   7.064
 3592POPC   C4A46830   0.389  14.438   7.364
 3592POPC   C1B46831   0.652  14.279   6.464
 3592POPC   C2B46832   0.679  14.252   6.764
 3592POPC   C3B46833   0.683  14.255   7.064
 3592POPC   C4B46834   0.640  14.312   7.364
 3593POPC   NC346835  28.368   1.940   5.564
 3593POPC   PO446836  28.347   1.958   5.864
 3593POPC   GL146837  28.358   1.954   6.164
 3593POPC   GL246838  28.310   2.130   6.164
 3593POPC   C1A46839  28.412   1.988   6.464
 3593POPC   D2A46840  28.414   1.995   6.764
 3593POPC   C3A46841  28.380   1.947   7.064
 3593POPC   C4A46842  28.412   2.014   7.364
 3593POPC   C1B46843  28.195   2.233   6.464
 3593POPC   C2B46844  28.169   2.192   6.764
 3593POPC   C3B46845  28.229   2.171   7.064
 3593POPC   C4B46846  28.206   2.143   7.364
 3594POPC   NC346847  39.271  15.134   5.564
 3594POPC   PO446848  39.219  15.167   5.864
 3594POPC   GL146849  39.207  15.207   6.164
 3594POPC   GL246850  39.079  15.193   6.164
 3594POPC   C1A46851  39.191  15.140   6.464
 3594POPC   D2A46852  39.269  15.149   6.764
 3594POPC   C3A46853  39.256  15.137   7.064
 3594POPC   C4A46854  39.259  15.137   7.364
 3594POPC   C1B46855  39.016  15.117   6.464
 3594POPC   C2B46856  38.986  15.150   6.764
 3594POPC   C3B46857  38.959  15.153   7.064
 3594POPC   C4B46858  38.958  15.155   7.364
 3595POPC   NC346859  44.632  25.300   5.564
 3595POPC   PO446860  44.710  25.306   5.864
 3595POPC   GL146861  44.705  25.288   6.164
 3595POPC   GL246862  44.519  25.226   6.164
 3595POPC   C1A46863  44.642  25.230   6.464
 3595POPC   D2A46864  44.651  25.275   6.764
 3595POPC   C3A46865  44.659  25.280   7.064
 3595POPC   C4A46866  44.624  25.277   7.364
 3595POPC   C1B46867  44.390  25.269   6.464
 3595POPC   C2B46868  44.433  25.231   6.764
 3595POPC   C3B46869  44.451  25.220   7.064
 3595POPC   C4B46870  44.436  25.278   7.364
 3596POPC   NC346871  15.934  24.512   5.564
 3596POPC   PO446872  15.981  24.452   5.864
 3596POPC   GL146873  15.955  24.499   6.164
 3596POPC   GL246874  16.045  24.574   6.164
 3596POPC   C1A46875  15.939  24.461   6.464
 3596POPC   D2A46876  15.984  24.501   6.764
 3596POPC   C3A46877  15.929  24.528   7.064
 3596POPC   C4A46878  15.914  24.488   7.364
 3596POPC   C1B46879  16.193  24.666   6.464
 3596POPC   C2B46880  16.145  24.637   6.764
 3596POPC   C3B46881  16.177  24.643   7.064
 3596POPC   C4B46882  16.135  24.665   7.364
 3597POPC   NC346883  14.371  18.247   5.564
 3597POPC   PO446884  14.386  18.234   5.864
 3597POPC   GL146885  14.450  18.299   6.164
 3597POPC   GL246886  14.444  18.153   6.164
 3597POPC   C1A46887  14.411  18.248   6.464
 3597POPC   D2A46888  14.406  18.243   6.764
 3597POPC   C3A46889  14.427  18.299   7.064
 3597POPC   C4A46890  14.453  18.291   7.364
 3597POPC   C1B46891  14.498  18.050   6.464
 3597POPC   C2B46892  14.448  18.085   6.764
 3597POPC   C3B46893  14.502  18.012   7.064
 3597POPC   C4B46894  14.544  18.022   7.364
 3598POPC   NC346895  27.640  39.228   5.564
 3598POPC   PO446896  27.550  39.195   5.864
 3598POPC   GL146897  27.560  39.203   6.164
 3598POPC   GL246898  27.501  39.350   6.164
 3598POPC   C1A46899  27.635  39.189   6.464
 3598POPC   D2A46900  27.557  39.281   6.764
 3598POPC   C3A46901  27.605  39.206   7.064
 3598POPC   C4A46902  27.632  39.199   7.364
 3598POPC   C1B46903  27.403  39.363   6.464
 3598POPC   C2B46904  27.457  39.364   6.764
 3598POPC   C3B46905  27.364  39.408   7.064
 3598POPC   C4B46906  27.377  39.452   7.364
 3599POPC   NC346907  14.406  31.506   5.564
 3599POPC   PO446908  14.387  31.508   5.864
 3599POPC   GL146909  14.361  31.481   6.164
 3599POPC   GL246910  14.323  31.619   6.164
 3599POPC   C1A46911  14.439  31.425   6.464
 3599POPC   D2A46912  14.400  31.431   6.764
 3599POPC   C3A46913  14.395  31.472   7.064
 3599POPC   C4A46914  14.449  31.465   7.364
 3599POPC   C1B46915  14.215  31.623   6.464
 3599POPC   C2B46916  14.266  31.643   6.764
 3599POPC   C3B46917  14.268  31.686   7.064
 3599POPC   C4B46918  14.206  31.640   7.364
 3600POPC   NC346919  23.669  11.320   5.564
 3600POPC   PO446920  23.753  11.307   5.864
 3600POPC   GL146921  23.690  11.319   6.164
 3600POPC   GL246922  23.807  11.449   6.164
 3600POPC   C1A46923  23.753  11.293   6.464
 3600POPC   D2A46924  23.739  11.299   6.764
 3600POPC   C3A46925  23.748  11.285   7.064
 3600POPC   C4A46926  23.700  11.317   7.364
 3600POPC   C1B46927  23.805  11.582   6.464
 3600POPC   C2B46928  23.840  11.538   6.764
 3600POPC   C3B46929  23.781  11.487   7.064
 3600POPC   C4B46930  23.833  11.540   7.364
 3601POPC   NC346931  18.280  13.627   5.564
 3601POPC   PO446932  18.288  13.646   5.864
 3601POPC   GL146933  18.269  13.667   6.164
 3601POPC   GL246934  18.419  13.542   6.164
 3601POPC   C1A46935  18.234  13.588   6.464
 3601POPC   D2A46936  18.332  13.595   6.764
 3601POPC   C3A46937  18.255  13.616   7.064
 3601POPC   C4A46938  18.273  13.613   7.364
 3601POPC   C1B46939  18.483  13.487   6.464
 3601POPC   C2B46940  18.501  13.420   6.764
 3601POPC   C3B46941  18.436  13.432   7.064
 3601POPC   C4B46942  18.429  13.442   7.364
 3602POPC   NC346943  18.282   0.462   5.564
 3602POPC   PO446944  18.292   0.423   5.864
 3602POPC   GL146945  18.310   0.393   6.164
 3602POPC   GL246946  18.260   0.335   6.164
 3602POPC   C1A46947  18.322   0.470   6.464
 3602POPC   D2A46948  18.311   0.436   6.764
 3602POPC   C3A46949  18.324   0.409   7.064
 3602POPC   C4A46950  18.304   0.388   7.364
 3602POPC   C1B46951  18.280   0.228   6.464
 3602POPC   C2B46952  18.222   0.232   6.764
 3602POPC   C3B46953  18.254   0.173   7.064
 3602POPC   C4B46954  18.283   0.143   7.364
 3603POPC   NC346955  17.489  17.520   5.564
 3603POPC   PO446956  17.546  17.493   5.864
 3603POPC   GL146957  17.541  17.556   6.164
 3603POPC   GL246958  17.554  17.562   6.164
 3603POPC   C1A46959  17.549  17.497   6.464
 3603POPC   D2A46960  17.474  17.555   6.764
 3603POPC   C3A46961  17.498  17.466   7.064
 3603POPC   C4A46962  17.534  17.518   7.364
 3603POPC   C1B46963  17.698  17.715   6.464
 3603POPC   C2B46964  17.654  17.637   6.764
 3603POPC   C3B46965  17.704  17.698   7.064
 3603POPC   C4B46966  17.740  17.668   7.364
 3604POPC   NC346967  32.200  17.535   5.564
 3604POPC   PO446968  32.255  17.542   5.864
 3604POPC   GL146969  32.269  17.468   6.164
 3604POPC   GL246970  32.334  17.604   6.164
 3604POPC   C1A46971  32.284  17.482   6.464
 3604POPC   D2A46972  32.284  17.489   6.764
 3604POPC   C3A46973  32.279  17.552   7.064
 3604POPC   C4A46974  32.212  17.475   7.364
 3604POPC   C1B46975  32.440  17.735   6.464
 3604POPC   C2B46976  32.429  17.724   6.764
 3604POPC   C3B46977  32.363  17.683   7.064
 3604POPC   C4B46978  32.398  17.706   7.364
 3605POPC   NC346979  36.906  11.327   5.564
 3605POPC   PO446980  36.904  11.282   5.864
 3605POPC   GL146981  36.889  11.251   6.164
 3605POPC   GL246982  36.820  11.243   6.164
 3605POPC   C1A46983  36.930  11.283   6.464
 3605POPC   D2A46984  36.876  11.349   6.764
 3605POPC   C3A46985  36.916  11.337   7.064
 3605POPC   C4A46986  36.893  11.341   7.364
 3605POPC   C1B46987  36.662  11.197   6.464
 3605POPC   C2B46988  36.651  11.186   6.764
 3605POPC   C3B46989  36.634  11.210   7.064
 3605POPC   C4B46990  36.709  11.225   7.364
 3606POPC   NC346991   4.344  10.572   5.564
 3606POPC   PO446992   4.343  10.515   5.864
 3606POPC   GL146993   4.364  10.560   6.164
 3606POPC   GL246994   4.286  10.381   6.164
 3606POPC   C1A46995   4.300  10.570   6.464
 3606POPC   D2A46996   4.288  10.483   6.764
 3606POPC   C3A46997   4.281  10.476   7.064
 3606POPC   C4A46998   4.335  10.490   7.364
 3606POPC   C1B46999   4.254  10.264   6.464
 3606POPC   C2B47000   4.264  10.230   6.764
 3606POPC   C3B47001   4.288  10.235   7.064
 3606POPC   C4B47002   4.287  10.318   7.364
 3607POPC   NC347003  35.392  37.707   5.564
 3607POPC   PO447004  35.329  37.665   5.864
 3607POPC   GL147005  35.306  37.703   6.164
 3607POPC   GL247006  35.397  37.784   6.164
 3607POPC   C1A47007  35.329  37.634   6.464
 3607POPC   D2A47008  35.389  37.696   6.764
 3607POPC   C3A47009  35.373  37.647   7.064
 3607POPC   C4A47010  35.346  37.673   7.364
 3607POPC   C1B47011  35.461  37.939   6.464
 3607POPC   C2B47012  35.466  37.886   6.764
 3607POPC   C3B47013  35.474  37.907   7.064
 3607POPC   C4B47014  35.444  37.953   7.364
 3608POPC   NC347015   4.336   8.985   5.564
 3608POPC   PO447016   4.357   9.007   5.864
 3608POPC   GL147017   4.360   8.936   6.164
 3608POPC   GL247018   4.233   8.918   6.164
 3608POPC   C1A47019   4.318   8.952   6.464
 3608POPC   D2A47020   4.284   9.002   6.764
 3608POPC   C3A47021   4.319   9.021   7.064
 3608POPC   C4A47022   4.290   9.008   7.364
 3608POPC   C1B47023   4.133   8.794   6.464
 3608POPC   C2B47024   4.094   8.819   6.764
 3608POPC   C3B47025   4.142   8.868   7.064
 3608POPC   C4B47026   4.085   8.831   7.364
 3609POPC   NC347027  26.076  29.918   5.564
 3609POPC   PO447028  26.015  29.935   5.864
 3609POPC   GL147029  26.005  29.896   6.164
 3609POPC   GL247030  26.109  30.008   6.164
 3609POPC   C1A47031  25.992  29.891   6.464
 3609POPC   D2A47032  26.014  29.957   6.764
 3609POPC   C3A47033  26.025  29.968   7.064
 3609POPC   C4A47034  26.080  29.957   7.364
 3609POPC   C1B47035  26.090  30.188   6.464
 3609POPC   C2B47036  26.094  30.203   6.764
 3609POPC   C3B47037  26.081  30.169   7.064
 3609POPC   C4B47038  26.048  30.214   7.364
 3610POPC   NC347039  43.094  23.695   5.564
 3610POPC   PO447040  43.133  23.687   5.864
 3610POPC   GL147041  43.108  23.720   6.164
 3610POPC   GL247042  43.046  23.551   6.164
 3610POPC   C1A47043  43.121  23.669   6.464
 3610POPC   D2A47044  43.135  23.705   6.764
 3610POPC   C3A47045  43.134  23.706   7.064
 3610POPC   C4A47046  43.151  23.697   7.364
 3610POPC   C1B47047  43.123  23.463   6.464
 3610POPC   C2B47048  43.058  23.477   6.764
 3610POPC   C3B47049  43.074  23.442   7.064
 3610POPC   C4B47050  43.031  23.483   7.364
 3611POPC   NC347051  30.660  34.608   5.564
 3611POPC   PO447052  30.647  34.530   5.864
 3611POPC   GL147053  30.732  34.559   6.164
 3611POPC   GL247054  30.620  34.706   6.164
 3611POPC   C1A47055  30.693  34.591   6.464
 3611POPC   D2A47056  30.684  34.555   6.764
 3611POPC   C3A47057  30.712  34.546   7.064
 3611POPC   C4A47058  30.730  34.543   7.364
 3611POPC   C1B47059  30.505  34.725   6.464
 3611POPC   C2B47060  30.541  34.789   6.764
 3611POPC   C3B47061  30.537  34.715   7.064
 3611POPC   C4B47062  30.481  34.756   7.364
 3612POPC   NC347063   1.966  33.787   5.564
 3612POPC   PO447064   2.029  33.796   5.864
 3612POPC   GL147065   2.001  33.762   6.164
 3612POPC   GL247066   2.027  33.884   6.164
 3612POPC   C1A47067   2.024  33.814   6.464
 3612POPC   D2A47068   1.972  33.766   6.764
 3612POPC   C3A47069   2.015  33.793   7.064
 3612POPC   C4A47070   2.031  33.802   7.364
 3612POPC   C1B47071   2.051  34.038   6.464
 3612POPC   C2B47072   2.119  34.071   6.764
 3612POPC   C3B47073   2.065  34.038   7.064
 3612POPC   C4B47074   2.053  34.013   7.364
 3613POPC   NC347075  38.473  26.003   5.564
 3613POPC   PO447076  38.430  26.004   5.864
 3613POPC   GL147077  38.480  26.033   6.164
 3613POPC   GL247078  38.507  26.098   6.164
 3613POPC   C1A47079  38.502  26.035   6.464
 3613POPC   D2A47080  38.445  25.992   6.764
 3613POPC   C3A47081  38.469  26.088   7.064
 3613POPC   C4A47082  38.425  26.066   7.364
 3613POPC   C1B47083  38.590  26.180   6.464
 3613POPC   C2B47084  38.616  26.257   6.764
 3613POPC   C3B47085  38.636  26.179   7.064
 3613POPC   C4B47086  38.605  26.262   7.364
 3614POPC   NC347087  37.708  43.090   5.564
 3614POPC   PO447088  37.702  43.125   5.864
 3614POPC   GL147089  37.682  43.145   6.164
 3614POPC   GL247090  37.599  43.109   6.164
 3614POPC   C1A47091  37.681  43.117   6.464
 3614POPC   D2A47092  37.669  43.100   6.764
 3614POPC   C3A47093  37.725  43.067   7.064
 3614POPC   C4A47094  37.712  43.107   7.364
 3614POPC   C1B47095  37.487  43.058   6.464
 3614POPC   C2B47096  37.424  43.072   6.764
 3614POPC   C3B47097  37.414  43.043   7.064
 3614POPC   C4B47098  37.457  43.043   7.364
 3615POPC   NC347099  14.434   0.473   5.564
 3615POPC   PO447100  14.401   0.481   5.864
 3615POPC   GL147101  14.382   0.445   6.164
 3615POPC   GL247102  14.398   0.348   6.164
 3615POPC   C1A47103  14.396   0.466   6.464
 3615POPC   D2A47104  14.444   0.401   6.764
 3615POPC   C3A47105  14.367   0.478   7.064
 3615POPC   C4A47106  14.367   0.449   7.364
 3615POPC   C1B47107  14.395   0.146   6.464
 3615POPC   C2B47108  14.409   0.215   6.764
 3615POPC   C3B47109  14.397   0.206   7.064
 3615POPC   C4B47110  14.348   0.146   7.364
 3616POPC   NC347111  40.736   4.304   5.564
 3616POPC   PO447112  40.745   4.301   5.864
 3616POPC   GL147113  40.771   4.353   6.164
 3616POPC   GL247114  40.889   4.381   6.164
 3616POPC   C1A47115  40.763   4.314   6.464
 3616POPC   D2A47116  40.761   4.365   6.764
 3616POPC   C3A47117  40.756   4.272   7.064
 3616POPC   C4A47118  40.814   4.331   7.364
 3616POPC   C1B47119  41.016   4.373   6.464
 3616POPC   C2B47120  40.981   4.375   6.764
 3616POPC   C3B47121  41.049   4.352   7.064
 3616POPC   C4B47122  41.046   4.381   7.364
 3617POPC   NC347123  15.916  27.590   5.564
 3617POPC   PO447124  15.961  27.550   5.864
 3617POPC   GL147125  15.935  27.598   6.164
 3617POPC   GL247126  16.061  27.477   6.164
 3617POPC   C1A47127  15.951  27.606   6.464
 3617POPC   D2A47128  15.947  27.642   6.764
 3617POPC   C3A47129  15.989  27.547   7.064
 3617POPC   C4A47130  15.920  27.562   7.364
 3617POPC   C1B47131  16.174  27.405   6.464
 3617POPC   C2B47132  16.098  27.413   6.764
 3617POPC   C3B47133  16.133  27.398   7.064
 3617POPC   C4B47134  16.172  27.396   7.364
 3618POPC   NC347135  24.475   1.178   5.564
 3618POPC   PO447136  24.483   1.168   5.864
 3618POPC   GL147137  24.479   1.261   6.164
 3618POPC   GL247138  24.374   1.153   6.164
 3618POPC   C1A47139  24.461   1.264   6.464
 3618POPC   D2A47140  24.459   1.188   6.764
 3618POPC   C3A47141  24.488   1.216   7.064
 3618POPC   C4A47142  24.524   1.167   7.364
 3618POPC   C1B47143  24.240   1.099   6.464
 3618POPC   C2B47144  24.243   1.064   6.764
 3618POPC   C3B47145  24.231   1.057   7.064
 3618POPC   C4B47146  24.261   1.100   7.364
 3619POPC   NC347147  33.840  35.363   5.564
 3619POPC   PO447148  33.779  35.346   5.864
 3619POPC   GL147149  33.791  35.312   6.164
 3619POPC   GL247150  33.857  35.239   6.164
 3619POPC   C1A47151  33.787  35.314   6.464
 3619POPC   D2A47152  33.768  35.393   6.764
 3619POPC   C3A47153  33.807  35.358   7.064
 3619POPC   C4A47154  33.830  35.360   7.364
 3619POPC   C1B47155  33.932  35.223   6.464
 3619POPC   C2B47156  34.007  35.189   6.764
 3619POPC   C3B47157  33.931  35.207   7.064
 3619POPC   C4B47158  34.010  35.143   7.364
 3620POPC   NC347159  39.265  14.420   5.564
 3620POPC   PO447160  39.191  14.404   5.864
 3620POPC   GL147161  39.190  14.397   6.164
 3620POPC   GL247162  39.336  14.365   6.164
 3620POPC   C1A47163  39.242  14.428   6.464
 3620POPC   D2A47164  39.211  14.411   6.764
 3620POPC   C3A47165  39.185  14.377   7.064
 3620POPC   C4A47166  39.212  14.445   7.364
 3620POPC   C1B47167  39.428  14.258   6.464
 3620POPC   C2B47168  39.428  14.279   6.764
 3620POPC   C3B47169  39.423  14.250   7.064
 3620POPC   C4B47170  39.383  14.272   7.364
 3621POPC   NC347171  40.764  29.147   5.564
 3621POPC   PO447172  40.767  29.114   5.864
 3621POPC   GL147173  40.802  29.169   6.164
 3621POPC   GL247174  40.865  29.077   6.164
 3621POPC   C1A47175  40.806  29.163   6.464
 3621POPC   D2A47176  40.754  29.112   6.764
 3621POPC   C3A47177  40.768  29.166   7.064
 3621POPC   C4A47178  40.797  29.096   7.364
 3621POPC   C1B47179  40.981  29.151   6.464
 3621POPC   C2B47180  41.028  29.118   6.764
 3621POPC   C3B47181  41.031  29.145   7.064
 3621POPC   C4B47182  40.988  29.078   7.364
 3622POPC   NC347183   6.675  43.069   5.564
 3622POPC   PO447184   6.616  43.092   5.864
 3622POPC   GL147185   6.596  43.098   6.164
 3622POPC   GL247186   6.738  43.200   6.164
 3622POPC   C1A47187   6.647  43.065   6.464
 3622POPC   D2A47188   6.648  43.072   6.764
 3622POPC   C3A47189   6.683  43.074   7.064
 3622POPC   C4A47190   6.646  43.094   7.364
 3622POPC   C1B47191   6.844  43.173   6.464
 3622POPC   C2B47192   6.924  43.150   6.764
 3622POPC   C3B47193   6.910  43.154   7.064
 3622POPC   C4B47194   6.912  43.225   7.364
 3623POPC   NC347195  28.419  20.587   5.564
 3623POPC   PO447196  28.336  20.596   5.864
 3623POPC   GL147197  28.407  20.609   6.164
 3623POPC   GL247198  28.320  20.546   6.164
 3623POPC   C1A47199  28.417  20.587   6.464
 3623POPC   D2A47200  28.348  20.565   6.764
 3623POPC   C3A47201  28.411  20.567   7.064
 3623POPC   C4A47202  28.331  20.570   7.364
 3623POPC   C1B47203  28.201  20.396   6.464
 3623POPC   C2B47204  28.199  20.447   6.764
 3623POPC   C3B47205  28.169  20.433   7.064
 3623POPC   C4B47206  28.145  20.452   7.364
 3624POPC   NC347207   5.915   6.623   5.564
 3624POPC   PO447208   5.858   6.680   5.864
 3624POPC   GL147209   5.887   6.629   6.164
 3624POPC   GL247210   5.775   6.665   6.164
 3624POPC   C1A47211   5.918   6.675   6.464
 3624POPC   D2A47212   5.919   6.674   6.764
 3624POPC   C3A47213   5.864   6.675   7.064
 3624POPC   C4A47214   5.832   6.606   7.364
 3624POPC   C1B47215   5.637   6.784   6.464
 3624POPC   C2B47216   5.663   6.799   6.764
 3624POPC   C3B47217   5.643   6.803   7.064
 3624POPC   C4B47218   5.634   6.750   7.364
 3625POPC   NC347219   1.194   3.553   5.564
 3625POPC   PO447220   1.228   3.557   5.864
 3625POPC   GL147221   1.209   3.540   6.164
 3625POPC   GL247222   1.351   3.592   6.164
 3625POPC   C1A47223   1.187   3.513   6.464
 3625POPC   D2A47224   1.242   3.509   6.764
 3625POPC   C3A47225   1.178   3.563   7.064
 3625POPC   C4A47226   1.239   3.564   7.364
 3625POPC   C1B47227   1.485   3.600   6.464
 3625POPC   C2B47228   1.464   3.599   6.764
 3625POPC   C3B47229   1.419   3.589   7.064
 3625POPC   C4B47230   1.451   3.586   7.364
 3626POPC   NC347231  30.656   2.758   5.564
 3626POPC   PO447232  30.741   2.741   5.864
 3626POPC   GL147233  30.733   2.743   6.164
 3626POPC   GL247234  30.778   2.729   6.164
 3626POPC   C1A47235  30.730   2.787   6.464
 3626POPC   D2A47236  30.655   2.803   6.764
 3626POPC   C3A47237  30.701   2.781   7.064
 3626POPC   C4A47238  30.698   2.774   7.364
 3626POPC   C1B47239  30.980   2.788   6.464
 3626POPC   C2B47240  30.930   2.824   6.764
 3626POPC   C3B47241  30.936   2.748   7.064
 3626POPC   C4B47242  30.947   2.765   7.364
 3627POPC   NC347243  42.322   6.617   5.564
 3627POPC   PO447244  42.345   6.684   5.864
 3627POPC   GL147245  42.346   6.617   6.164
 3627POPC   GL247246  42.198   6.679   6.164
 3627POPC   C1A47247  42.337   6.635   6.464
 3627POPC   D2A47248  42.311   6.603   6.764
 3627POPC   C3A47249  42.319   6.625   7.064
 3627POPC   C4A47250  42.292   6.610   7.364
 3627POPC   C1B47251  42.073   6.688   6.464
 3627POPC   C2B47252  42.055   6.695   6.764
 3627POPC   C3B47253  42.099   6.739   7.064
 3627POPC   C4B47254  42.055   6.747   7.364
 3628POPC   NC347255   5.846  19.010   5.564
 3628POPC   PO447256   5.826  19.091   5.864
 3628POPC   GL147257   5.876  19.070   6.164
 3628POPC   GL247258   5.963  19.097   6.164
 3628POPC   C1A47259   5.848  19.096   6.464
 3628POPC   D2A47260   5.901  19.057   6.764
 3628POPC   C3A47261   5.859  19.084   7.064
 3628POPC   C4A47262   5.886  19.049   7.364
 3628POPC   C1B47263   6.149  19.079   6.464
 3628POPC   C2B47264   6.164  19.023   6.764
 3628POPC   C3B47265   6.093  19.070   7.064
 3628POPC   C4B47266   6.161  19.007   7.364
 3629POPC   NC347267  28.374  34.574   5.564
 3629POPC   PO447268  28.375  34.613   5.864
 3629POPC   GL147269  28.408  34.565   6.164
 3629POPC   GL247270  28.277  34.719   6.164
 3629POPC   C1A47271  28.340  34.620   6.464
 3629POPC   D2A47272  28.360  34.545   6.764
 3629POPC   C3A47273  28.417  34.529   7.064
 3629POPC   C4A47274  28.413  34.547   7.364
 3629POPC   C1B47275  28.221  34.835   6.464
 3629POPC   C2B47276  28.308  34.791   6.764
 3629POPC   C3B47277  28.307  34.805   7.064
 3629POPC   C4B47278  28.239  34.790   7.364
 3630POPC   NC347279  29.924  33.014   5.564
 3630POPC   PO447280  29.886  33.008   5.864
 3630POPC   GL147281  29.898  32.997   6.164
 3630POPC   GL247282  29.913  33.155   6.164
 3630POPC   C1A47283  29.896  33.025   6.464
 3630POPC   D2A47284  29.913  32.989   6.764
 3630POPC   C3A47285  29.943  33.011   7.064
 3630POPC   C4A47286  29.877  32.990   7.364
 3630POPC   C1B47287  29.887  33.323   6.464
 3630POPC   C2B47288  29.861  33.283   6.764
 3630POPC   C3B47289  29.906  33.279   7.064
 3630POPC   C4B47290  29.951  33.235   7.364
 3631POPC   NC347291  36.888   3.568   5.564
 3631POPC   PO447292  36.911   3.492   5.864
 3631POPC   GL147293  36.906   3.508   6.164
 3631POPC   GL247294  36.892   3.375   6.164
 3631POPC   C1A47295  36.945   3.501   6.464
 3631POPC   D2A47296  36.875   3.574   6.764
 3631POPC   C3A47297  36.917   3.589   7.064
 3631POPC   C4A47298  36.867   3.581   7.364
 3631POPC   C1B47299  36.955   3.265   6.464
 3631POPC   C2B47300  36.948   3.297   6.764
 3631POPC   C3B47301  36.966   3.323   7.064
 3631POPC   C4B47302  36.967   3.284   7.364
 3632POPC   NC347303   6.651  35.310   5.564
 3632POPC   PO447304   6.627  35.304   5.864
 3632POPC   GL147305   6.610  35.371   6.164
 3632POPC   GL247306   6.756  35.322   6.164
 3632POPC   C1A47307   6.684  35.335   6.464
 3632POPC   D2A47308   6.689  35.317   6.764
 3632POPC   C3A47309   6.620  35.387   7.064
 3632POPC   C4A47310   6.637  35.387   7.364
 3632POPC   C1B47311   6.811  35.202   6.464
 3632POPC   C2B47312   6.858  35.178   6.764
 3632POPC   C3B47313   6.849  35.216   7.064
 3632POPC   C4B47314   6.802  35.233   7.364
 3633POPC   NC347315  39.991  31.477   5.564
 3633POPC   PO447316  40.041  31.457   5.864
 3633POPC   GL147317  39.981  31.428   6.164
 3633POPC   GL247318  39.948  31.367   6.164
 3633POPC   C1A47319  39.992  31.465   6.464
 3633POPC   D2A47320  40.008  31.494   6.764
 3633POPC   C3A47321  40.022  31.514   7.064
 3633POPC   C4A47322  40.037  31.478   7.364
 3633POPC   C1B47323  39.885  31.268   6.464
 3633POPC   C2B47324  39.882  31.297   6.764
 3633POPC   C3B47325  39.836  31.269   7.064
 3633POPC   C4B47326  39.885  31.289   7.364
 3634POPC   NC347327  42.359   8.223   5.564
 3634POPC   PO447328  42.353   8.228   5.864
 3634POPC   GL147329  42.360   8.209   6.164
 3634POPC   GL247330  42.293   8.113   6.164
 3634POPC   C1A47331  42.333   8.210   6.464
 3634POPC   D2A47332  42.355   8.222   6.764
 3634POPC   C3A47333  42.306   8.152   7.064
 3634POPC   C4A47334  42.359   8.201   7.364
 3634POPC   C1B47335  42.265   7.921   6.464
 3634POPC   C2B47336  42.295   7.936   6.764
 3634POPC   C3B47337  42.298   7.907   7.064
 3634POPC   C4B47338  42.311   7.937   7.364
 3635POPC   NC347339  43.103  34.621   5.564
 3635POPC   PO447340  43.117  34.551   5.864
 3635POPC   GL147341  43.119  34.544   6.164
 3635POPC   GL247342  43.175  34.422   6.164
 3635POPC   C1A47343  43.087  34.529   6.464
 3635POPC   D2A47344  43.067  34.557   6.764
 3635POPC   C3A47345  43.071  34.538   7.064
 3635POPC   C4A47346  43.066  34.585   7.364
 3635POPC   C1B47347  43.168  34.346   6.464
 3635POPC   C2B47348  43.243  34.394   6.764
 3635POPC   C3B47349  43.243  34.369   7.064
 3635POPC   C4B47350  43.160  34.310   7.364
 3636POPC   NC347351  40.757  38.437   5.564
 3636POPC   PO447352  40.777  38.406   5.864
 3636POPC   GL147353  40.807  38.462   6.164
 3636POPC   GL247354  40.856  38.433   6.164
 3636POPC   C1A47355  40.802  38.478   6.464
 3636POPC   D2A47356  40.786  38.442   6.764
 3636POPC   C3A47357  40.828  38.414   7.064
 3636POPC   C4A47358  40.804  38.427   7.364
 3636POPC   C1B47359  41.028  38.318   6.464
 3636POPC   C2B47360  41.011  38.301   6.764
 3636POPC   C3B47361  41.039  38.315   7.064
 3636POPC   C4B47362  41.040  38.268   7.364
 3637POPC   NC347363  41.569  14.356   5.564
 3637POPC   PO447364  41.606  14.395   5.864
 3637POPC   GL147365  41.569  14.433   6.164
 3637POPC   GL247366  41.452  14.465   6.164
 3637POPC   C1A47367  41.510  14.365   6.464
 3637POPC   D2A47368  41.589  14.426   6.764
 3637POPC   C3A47369  41.591  14.412   7.064
 3637POPC   C4A47370  41.604  14.415   7.364
 3637POPC   C1B47371  41.375  14.531   6.464
 3637POPC   C2B47372  41.327  14.511   6.764
 3637POPC   C3B47373  41.327  14.504   7.064
 3637POPC   C4B47374  41.343  14.512   7.364
 3638POPC   NC347375  27.610  17.518   5.564
 3638POPC   PO447376  27.591  17.465   5.864
 3638POPC   GL147377  27.590  17.463   6.164
 3638POPC   GL247378  27.526  17.574   6.164
 3638POPC   C1A47379  27.584  17.543   6.464
 3638POPC   D2A47380  27.596  17.466   6.764
 3638POPC   C3A47381  27.549  17.515   7.064
 3638POPC   C4A47382  27.603  17.488   7.364
 3638POPC   C1B47383  27.379  17.642   6.464
 3638POPC   C2B47384  27.385  17.589   6.764
 3638POPC   C3B47385  27.388  17.623   7.064
 3638POPC   C4B47386  27.417  17.590   7.364
 3639POPC   NC347387  17.555   1.209   5.564
 3639POPC   PO447388  17.532   1.183   5.864
 3639POPC   GL147389  17.518   1.202   6.164
 3639POPC   GL247390  17.411   1.316   6.164
 3639POPC   C1A47391  17.489   1.219   6.464
 3639POPC   D2A47392  17.504   1.249   6.764
 3639POPC   C3A47393  17.546   1.249   7.064
 3639POPC   C4A47394  17.466   1.165   7.364
 3639POPC   C1B47395  17.308   1.373   6.464
 3639POPC   C2B47396  17.271   1.288   6.764
 3639POPC   C3B47397  17.330   1.300   7.064
 3639POPC   C4B47398  17.319   1.366   7.364
 3640POPC   NC347399  29.110  39.251   5.564
 3640POPC   PO447400  29.119  39.257   5.864
 3640POPC   GL147401  29.122  39.195   6.164
 3640POPC   GL247402  29.184  39.294   6.164
 3640POPC   C1A47403  29.180  39.249   6.464
 3640POPC   D2A47404  29.167  39.245   6.764
 3640POPC   C3A47405  29.165  39.280   7.064
 3640POPC   C4A47406  29.101  39.232   7.364
 3640POPC   C1B47407  29.350  39.380   6.464
 3640POPC   C2B47408  29.348  39.422   6.764
 3640POPC   C3B47409  29.351  39.412   7.064
 3640POPC   C4B47410  29.347  39.437   7.364
 3641POPC   NC347411  19.076  32.251   5.564
 3641POPC   PO447412  19.044  32.216   5.864
 3641POPC   GL147413  19.070  32.291   6.164
 3641POPC   GL247414  18.957  32.139   6.164
 3641POPC   C1A47415  19.048  32.214   6.464
 3641POPC   D2A47416  19.065  32.240   6.764
 3641POPC   C3A47417  19.057  32.231   7.064
 3641POPC   C4A47418  19.075  32.255   7.364
 3641POPC   C1B47419  18.863  32.105   6.464
 3641POPC   C2B47420  18.881  32.023   6.764
 3641POPC   C3B47421  18.855  32.037   7.064
 3641POPC   C4B47422  18.927  32.102   7.364
 3642POPC   NC347423   7.433  24.506   5.564
 3642POPC   PO447424   7.460  24.476   5.864
 3642POPC   GL147425   7.443  24.446   6.164
 3642POPC   GL247426   7.475  24.600   6.164
 3642POPC   C1A47427   7.437  24.504   6.464
 3642POPC   D2A47428   7.469  24.440   6.764
 3642POPC   C3A47429   7.394  24.455   7.064
 3642POPC   C4A47430   7.464  24.540   7.364
 3642POPC   C1B47431   7.601  24.634   6.464
 3642POPC   C2B47432   7.661  24.655   6.764
 3642POPC   C3B47433   7.599  24.677   7.064
 3642POPC   C4B47434   7.601  24.674   7.364
 3643POPC   NC347435  15.994   1.962   5.564
 3643POPC   PO447436  15.989   2.019   5.864
 3643POPC   GL147437  15.986   2.012   6.164
 3643POPC   GL247438  16.030   1.972   6.164
 3643POPC   C1A47439  15.948   1.968   6.464
 3643POPC   D2A47440  15.998   1.961   6.764
 3643POPC   C3A47441  15.915   1.951   7.064
 3643POPC   C4A47442  15.968   1.969   7.364
 3643POPC   C1B47443  16.198   1.907   6.464
 3643POPC   C2B47444  16.235   1.866   6.764
 3643POPC   C3B47445  16.141   1.909   7.064
 3643POPC   C4B47446  16.210   1.925   7.364
 3644POPC   NC347447  43.874  31.434   5.564
 3644POPC   PO447448  43.862  31.487   5.864
 3644POPC   GL147449  43.836  31.482   6.164
 3644POPC   GL247450  43.741  31.431   6.164
 3644POPC   C1A47451  43.905  31.513   6.464
 3644POPC   D2A47452  43.845  31.460   6.764
 3644POPC   C3A47453  43.853  31.515   7.064
 3644POPC   C4A47454  43.859  31.508   7.364
 3644POPC   C1B47455  43.643  31.508   6.464
 3644POPC   C2B47456  43.629  31.467   6.764
 3644POPC   C3B47457  43.683  31.505   7.064
 3644POPC   C4B47458  43.625  31.475   7.364
 3645POPC   NC347459  35.331  14.443   5.564
 3645POPC   PO447460  35.322  14.367   5.864
 3645POPC   GL147461  35.390  14.368   6.164
 3645POPC   GL247462  35.419  14.324   6.164
 3645POPC   C1A47463  35.345  14.382   6.464
 3645POPC   D2A47464  35.354  14.396   6.764
 3645POPC   C3A47465  35.374  14.391   7.064
 3645POPC   C4A47466  35.307  14.405   7.364
 3645POPC   C1B47467  35.499  14.179   6.464
 3645POPC   C2B47468  35.495  14.183   6.764
 3645POPC   C3B47469  35.514  14.178   7.064
 3645POPC   C4B47470  35.519  14.233   7.364
 3646POPC   NC347471  25.231  36.176   5.564
 3646POPC   PO447472  25.272  36.120   5.864
 3646POPC   GL147473  25.307  36.113   6.164
 3646POPC   GL247474  25.188  36.246   6.164
 3646POPC   C1A47475  25.216  36.122   6.464
 3646POPC   D2A47476  25.269  36.103   6.764
 3646POPC   C3A47477  25.296  36.161   7.064
 3646POPC   C4A47478  25.298  36.134   7.364
 3646POPC   C1B47479  25.164  36.355   6.464
 3646POPC   C2B47480  25.152  36.305   6.764
 3646POPC   C3B47481  25.191  36.340   7.064
 3646POPC   C4B47482  25.186  36.389   7.364
 3647POPC   NC347483  12.859  10.562   5.564
 3647POPC   PO447484  12.892  10.539   5.864
 3647POPC   GL147485  12.870  10.512   6.164
 3647POPC   GL247486  12.704  10.510   6.164
 3647POPC   C1A47487  12.894  10.503   6.464
 3647POPC   D2A47488  12.836  10.547   6.764
 3647POPC   C3A47489  12.840  10.484   7.064
 3647POPC   C4A47490  12.871  10.496   7.364
 3647POPC   C1B47491  12.587  10.489   6.464
 3647POPC   C2B47492  12.565  10.412   6.764
 3647POPC   C3B47493  12.576  10.406   7.064
 3647POPC   C4B47494  12.601  10.412   7.364
 3648POPC   NC347495  31.461  26.807   5.564
 3648POPC   PO447496  31.425  26.795   5.864
 3648POPC   GL147497  31.499  26.838   6.164
 3648POPC   GL247498  31.612  26.836   6.164
 3648POPC   C1A47499  31.484  26.788   6.464
 3648POPC   D2A47500  31.424  26.772   6.764
 3648POPC   C3A47501  31.431  26.769   7.064
 3648POPC   C4A47502  31.426  26.811   7.364
 3648POPC   C1B47503  31.650  26.889   6.464
 3648POPC   C2B47504  31.731  26.938   6.764
 3648POPC   C3B47505  31.664  26.972   7.064
 3648POPC   C4B47506  31.650  26.918   7.364
 3649POPC   NC347507  28.341   8.223   5.564
 3649POPC   PO447508  28.340   8.148   5.864
 3649POPC   GL147509  28.327   8.180   6.164
 3649POPC   GL247510  28.358   8.116   6.164
 3649POPC   C1A47511  28.394   8.228   6.464
 3649POPC   D2A47512  28.347   8.185   6.764
 3649POPC   C3A47513  28.326   8.205   7.064
 3649POPC   C4A47514  28.350   8.236   7.364
 3649POPC   C1B47515  28.298   7.921   6.464
 3649POPC   C2B47516  28.301   7.939   6.764
 3649POPC   C3B47517  28.328   7.982   7.064
 3649POPC   C4B47518  28.295   7.964   7.364
 3650POPC   NC347519   2.762   5.862   5.564
 3650POPC   PO447520   2.733   5.832   5.864
 3650POPC   GL147521   2.814   5.912   6.164
 3650POPC   GL247522   2.842   5.951   6.164
 3650POPC   C1A47523   2.755   5.823   6.464
 3650POPC   D2A47524   2.811   5.893   6.764
 3650POPC   C3A47525   2.768   5.871   7.064
 3650POPC   C4A47526   2.716   5.868   7.364
 3650POPC   C1B47527   2.865   6.113   6.464
 3650POPC   C2B47528   2.911   6.117   6.764
 3650POPC   C3B47529   2.864   6.092   7.064
 3650POPC   C4B47530   2.866   6.093   7.364
 3651POPC   NC347531   0.486  12.902   5.564
 3651POPC   PO447532   0.478  12.853   5.864
 3651POPC   GL147533   0.488  12.873   6.164
 3651POPC   GL247534   0.399  12.718   6.164
 3651POPC   C1A47535   0.458  12.818   6.464
 3651POPC   D2A47536   0.471  12.848   6.764
 3651POPC   C3A47537   0.407  12.809   7.064
 3651POPC   C4A47538   0.442  12.834   7.364
 3651POPC   C1B47539   0.466  12.616   6.464
 3651POPC   C2B47540   0.454  12.645   6.764
 3651POPC   C3B47541   0.468  12.623   7.064
 3651POPC   C4B47542   0.487  12.566   7.364
 3652POPC   NC347543  10.532  11.341   5.564
 3652POPC   PO447544  10.525  11.294   5.864
 3652POPC   GL147545  10.492  11.312   6.164
 3652POPC   GL247546  10.467  11.455   6.164
 3652POPC   C1A47547  10.480  11.334   6.464
 3652POPC   D2A47548  10.492  11.294   6.764
 3652POPC   C3A47549  10.488  11.335   7.064
 3652POPC   C4A47550  10.541  11.313   7.364
 3652POPC   C1B47551  10.509  11.531   6.464
 3652POPC   C2B47552  10.504  11.538   6.764
 3652POPC   C3B47553  10.459  11.536   7.064
 3652POPC   C4B47554  10.507  11.502   7.364
 3653POPC   NC347555   2.761  38.453   5.564
 3653POPC   PO447556   2.806  38.419   5.864
 3653POPC   GL147557   2.722  38.500   6.164
 3653POPC   GL247558   2.696  38.297   6.164
 3653POPC   C1A47559   2.762  38.503   6.464
 3653POPC   D2A47560   2.757  38.482   6.764
 3653POPC   C3A47561   2.804  38.442   7.064
 3653POPC   C4A47562   2.788  38.485   7.364
 3653POPC   C1B47563   2.673  38.175   6.464
 3653POPC   C2B47564   2.690  38.181   6.764
 3653POPC   C3B47565   2.707  38.220   7.064
 3653POPC   C4B47566   2.711  38.251   7.364
 3654POPC   NC347567  12.888   3.569   5.564
 3654POPC   PO447568  12.897   3.565   5.864
 3654POPC   GL147569  12.802   3.546   6.164
 3654POPC   GL247570  12.757   3.662   6.164
 3654POPC   C1A47571  12.895   3.493   6.464
 3654POPC   D2A47572  12.833   3.544   6.764
 3654POPC   C3A47573  12.860   3.576   7.064
 3654POPC   C4A47574  12.880   3.535   7.364
 3654POPC   C1B47575  12.737   3.765   6.464
 3654POPC   C2B47576  12.707   3.722   6.764
 3654POPC   C3B47577  12.740   3.810   7.064
 3654POPC   C4B47578  12.741   3.732   7.364
 3655POPC   NC347579  20.658   9.774   5.564
 3655POPC   PO447580  20.605   9.732   5.864
 3655POPC   GL147581  20.622   9.747   6.164
 3655POPC   GL247582  20.531   9.771   6.164
 3655POPC   C1A47583  20.600   9.717   6.464
 3655POPC   D2A47584  20.601   9.753   6.764
 3655POPC   C3A47585  20.616   9.760   7.064
 3655POPC   C4A47586  20.591   9.709   7.364
 3655POPC   C1B47587  20.409   9.894   6.464
 3655POPC   C2B47588  20.350   9.894   6.764
 3655POPC   C3B47589  20.346   9.832   7.064
 3655POPC   C4B47590  20.337   9.832   7.364
 3656POPC   NC347591   0.420  29.898   5.564
 3656POPC   PO447592   0.396  29.921   5.864
 3656POPC   GL147593   0.480  29.892   6.164
 3656POPC   GL247594   0.339  29.813   6.164
 3656POPC   C1A47595   0.466  29.886   6.464
 3656POPC   D2A47596   0.473  29.917   6.764
 3656POPC   C3A47597   0.468  29.880   7.064
 3656POPC   C4A47598   0.477  29.935   7.364
 3656POPC   C1B47599   0.214  29.737   6.464
 3656POPC   C2B47600   0.228  29.768   6.764
 3656POPC   C3B47601   0.235  29.798   7.064
 3656POPC   C4B47602   0.243  29.809   7.364
 3657POPC   NC347603   6.667  43.892   5.564
 3657POPC   PO447604   6.608  43.929   5.864
 3657POPC   GL147605   6.617  43.841   6.164
 3657POPC   GL247606   6.499  43.955   6.164
 3657POPC   C1A47607   6.628  43.890   6.464
 3657POPC   D2A47608   6.656  43.866   6.764
 3657POPC   C3A47609   6.615  43.921   7.064
 3657POPC   C4A47610   6.659  43.871   7.364
 3657POPC   C1B47611   6.416  43.952   6.464
 3657POPC   C2B47612   6.361  43.983   6.764
 3657POPC   C3B47613   6.368  44.015   7.064
 3657POPC   C4B47614   6.455  44.010   7.364
 3658POPC   NC347615  28.327  33.794   5.564
 3658POPC   PO447616  28.385  33.834   5.864
 3658POPC   GL147617  28.330  33.813   6.164
 3658POPC   GL247618  28.244  33.841   6.164
 3658POPC   C1A47619  28.358  33.800   6.464
 3658POPC   D2A47620  28.383  33.841   6.764
 3658POPC   C3A47621  28.361  33.762   7.064
 3658POPC   C4A47622  28.360  33.766   7.364
 3658POPC   C1B47623  28.096  33.888   6.464
 3658POPC   C2B47624  28.075  33.831   6.764
 3658POPC   C3B47625  28.076  33.851   7.064
 3658POPC   C4B47626  28.098  33.809   7.364
 3659POPC   NC347627  11.337  24.489   5.564
 3659POPC   PO447628  11.266  24.453   5.864
 3659POPC   GL147629  11.335  24.477   6.164
 3659POPC   GL247630  11.209  24.512   6.164
 3659POPC   C1A47631  11.272  24.476   6.464
 3659POPC   D2A47632  11.296  24.495   6.764
 3659POPC   C3A47633  11.269  24.451   7.064
 3659POPC   C4A47634  11.328  24.448   7.364
 3659POPC   C1B47635  11.073  24.551   6.464
 3659POPC   C2B47636  11.035  24.570   6.764
 3659POPC   C3B47637  11.021  24.572   7.064
 3659POPC   C4B47638  11.041  24.573   7.364
 3660POPC   NC347639  20.650  43.089   5.564
 3660POPC   PO447640  20.589  43.085   5.864
 3660POPC   GL147641  20.622  43.104   6.164
 3660POPC   GL247642  20.704  42.989   6.164
 3660POPC   C1A47643  20.644  43.156   6.464
 3660POPC   D2A47644  20.636  43.064   6.764
 3660POPC   C3A47645  20.570  43.077   7.064
 3660POPC   C4A47646  20.578  43.078   7.364
 3660POPC   C1B47647  20.747  42.950   6.464
 3660POPC   C2B47648  20.761  42.938   6.764
 3660POPC   C3B47649  20.709  42.892   7.064
 3660POPC   C4B47650  20.790  42.902   7.364
 3661POPC   NC347651  43.929   7.426   5.564
 3661POPC   PO447652  43.891   7.417   5.864
 3661POPC   GL147653  43.935   7.407   6.164
 3661POPC   GL247654  43.981   7.333   6.164
 3661POPC   C1A47655  43.896   7.453   6.464
 3661POPC   D2A47656  43.858   7.441   6.764
 3661POPC   C3A47657  43.914   7.397   7.064
 3661POPC   C4A47658  43.932   7.372   7.364
 3661POPC   C1B47659  44.142   7.384   6.464
 3661POPC   C2B47660  44.097   7.384   6.764
 3661POPC   C3B47661  44.159   7.330   7.064
 3661POPC   C4B47662  44.092   7.341   7.364
 3662POPC   NC347663   3.540  32.246   5.564
 3662POPC   PO447664   3.540  32.237   5.864
 3662POPC   GL147665   3.578  32.261   6.164
 3662POPC   GL247666   3.456  32.200   6.164
 3662POPC   C1A47667   3.575  32.256   6.464
 3662POPC   D2A47668   3.571  32.242   6.764
 3662POPC   C3A47669   3.508  32.260   7.064
 3662POPC   C4A47670   3.536  32.217   7.364
 3662POPC   C1B47671   3.297  32.137   6.464
 3662POPC   C2B47672   3.322  32.189   6.764
 3662POPC   C3B47673   3.345  32.113   7.064
 3662POPC   C4B47674   3.290  32.152   7.364
 3663POPC   NC347675  36.138  16.720   5.564
 3663POPC   PO447676  36.104  16.752   5.864
 3663POPC   GL147677  36.173  16.721   6.164
 3663POPC   GL247678  36.203  16.745   6.164
 3663POPC   C1A47679  36.111  16.697   6.464
 3663POPC   D2A47680  36.161  16.728   6.764
 3663POPC   C3A47681  36.087  16.748   7.064
 3663POPC   C4A47682  36.166  16.735   7.364
 3663POPC   C1B47683  36.355  16.673   6.464
 3663POPC   C2B47684  36.415  16.677   6.764
 3663POPC   C3B47685  36.332  16.668   7.064
 3663POPC   C4B47686  36.334  16.626   7.364
 3664POPC   NC347687  26.006  25.292   5.564
 3664POPC   PO447688  26.006  25.230   5.864
 3664POPC   GL147689  26.010  25.218   6.164
 3664POPC   GL247690  26.107  25.368   6.164
 3664POPC   C1A47691  26.061  25.240   6.464
 3664POPC   D2A47692  26.001  25.302   6.764
 3664POPC   C3A47693  26.033  25.262   7.064
 3664POPC   C4A47694  26.052  25.250   7.364
 3664POPC   C1B47695  26.228  25.450   6.464
 3664POPC   C2B47696  26.216  25.410   6.764
 3664POPC   C3B47697  26.207  25.424   7.064
 3664POPC   C4B47698  26.237  25.492   7.364
 3665POPC   NC347699  13.578  32.256   5.564
 3665POPC   PO447700  13.670  32.280   5.864
 3665POPC   GL147701  13.623  32.272   6.164
 3665POPC   GL247702  13.491  32.275   6.164
 3665POPC   C1A47703  13.598  32.251   6.464
 3665POPC   D2A47704  13.653  32.279   6.764
 3665POPC   C3A47705  13.599  32.263   7.064
 3665POPC   C4A47706  13.637  32.237   7.364
 3665POPC   C1B47707  13.426  32.205   6.464
 3665POPC   C2B47708  13.402  32.226   6.764
 3665POPC   C3B47709  13.427  32.212   7.064
 3665POPC   C4B47710  13.412  32.188   7.364
 3666POPC   NC347711  15.941  20.651   5.564
 3666POPC   PO447712  15.964  20.645   5.864
 3666POPC   GL147713  15.997  20.624   6.164
 3666POPC   GL247714  15.980  20.705   6.164
 3666POPC   C1A47715  15.956  20.616   6.464
 3666POPC   D2A47716  15.948  20.562   6.764
 3666POPC   C3A47717  15.974  20.590   7.064
 3666POPC   C4A47718  15.978  20.657   7.364
 3666POPC   C1B47719  15.966  20.889   6.464
 3666POPC   C2B47720  15.988  20.859   6.764
 3666POPC   C3B47721  15.945  20.898   7.064
 3666POPC   C4B47722  15.932  20.817   7.364
 3667POPC   NC347723  39.281  40.806   5.564
 3667POPC   PO447724  39.250  40.749   5.864
 3667POPC   GL147725  39.242  40.806   6.164
 3667POPC   GL247726  39.094  40.689   6.164
 3667POPC   C1A47727  39.245  40.796   6.464
 3667POPC   D2A47728  39.258  40.789   6.764
 3667POPC   C3A47729  39.229  40.753   7.064
 3667POPC   C4A47730  39.258  40.748   7.364
 3667POPC   C1B47731  38.963  40.680   6.464
 3667POPC   C2B47732  39.000  40.714   6.764
 3667POPC   C3B47733  38.991  40.644   7.064
 3667POPC   C4B47734  39.005  40.635   7.364
 3668POPC   NC347735  11.267  40.766   5.564
 3668POPC   PO447736  11.268  40.828   5.864
 3668POPC   GL147737  11.278  40.830   6.164
 3668POPC   GL247738  11.266  40.910   6.164
 3668POPC   C1A47739  11.303  40.816   6.464
 3668POPC   D2A47740  11.268  40.812   6.764
 3668POPC   C3A47741  11.345  40.746   7.064
 3668POPC   C4A47742  11.260  40.787   7.364
 3668POPC   C1B47743  11.258  41.041   6.464
 3668POPC   C2B47744  11.328  41.045   6.764
 3668POPC   C3B47745  11.257  41.042   7.064
 3668POPC   C4B47746  11.292  41.021   7.364
 3669POPC   NC347747  31.487  36.869   5.564
 3669POPC   PO447748  31.440  36.877   5.864
 3669POPC   GL147749  31.440  36.858   6.164
 3669POPC   GL247750  31.498  36.737   6.164
 3669POPC   C1A47751  31.491  36.886   6.464
 3669POPC   D2A47752  31.438  36.921   6.764
 3669POPC   C3A47753  31.474  36.915   7.064
 3669POPC   C4A47754  31.517  36.862   7.364
 3669POPC   C1B47755  31.473  36.663   6.464
 3669POPC   C2B47756  31.416  36.694   6.764
 3669POPC   C3B47757  31.504  36.686   7.064
 3669POPC   C4B47758  31.471  36.644   7.364
 3670POPC   NC347759  43.159  25.300   5.564
 3670POPC   PO447760  43.136  25.221   5.864
 3670POPC   GL147761  43.097  25.239   6.164
 3670POPC   GL247762  43.106  25.170   6.164
 3670POPC   C1A47763  43.152  25.235   6.464
 3670POPC   D2A47764  43.158  25.301   6.764
 3670POPC   C3A47765  43.070  25.281   7.064
 3670POPC   C4A47766  43.155  25.225   7.364
 3670POPC   C1B47767  43.030  24.975   6.464
 3670POPC   C2B47768  43.050  25.074   6.764
 3670POPC   C3B47769  43.026  25.009   7.064
 3670POPC   C4B47770  43.060  25.018   7.364
 3671POPC   NC347771  29.927  38.493   5.564
 3671POPC   PO447772  29.891  38.489   5.864
 3671POPC   GL147773  29.877  38.464   6.164
 3671POPC   GL247774  29.852  38.411   6.164
 3671POPC   C1A47775  29.949  38.410   6.464
 3671POPC   D2A47776  29.890  38.457   6.764
 3671POPC   C3A47777  29.919  38.443   7.064
 3671POPC   C4A47778  29.934  38.451   7.364
 3671POPC   C1B47779  29.750  38.368   6.464
 3671POPC   C2B47780  29.684  38.302   6.764
 3671POPC   C3B47781  29.678  38.289   7.064
 3671POPC   C4B47782  29.697  38.278   7.364
 3672POPC   NC347783   8.951   1.177   5.564
 3672POPC   PO447784   8.958   1.181   5.864
 3672POPC   GL147785   8.998   1.244   6.164
 3672POPC   GL247786   8.913   1.320   6.164
 3672POPC   C1A47787   8.933   1.204   6.464
 3672POPC   D2A47788   9.013   1.248   6.764
 3672POPC   C3A47789   9.002   1.215   7.064
 3672POPC   C4A47790   9.021   1.221   7.364
 3672POPC   C1B47791   8.838   1.387   6.464
 3672POPC   C2B47792   8.883   1.447   6.764
 3672POPC   C3B47793   8.850   1.386   7.064
 3672POPC   C4B47794   8.815   1.383   7.364
 3673POPC   NC347795  16.747   3.586   5.564
 3673POPC   PO447796  16.746   3.504   5.864
 3673POPC   GL147797  16.753   3.581   6.164
 3673POPC   GL247798  16.790   3.626   6.164
 3673POPC   C1A47799  16.769   3.547   6.464
 3673POPC   D2A47800  16.755   3.568   6.764
 3673POPC   C3A47801  16.684   3.515   7.064
 3673POPC   C4A47802  16.781   3.493   7.364
 3673POPC   C1B47803  16.906   3.660   6.464
 3673POPC   C2B47804  16.959   3.719   6.764
 3673POPC   C3B47805  16.881   3.674   7.064
 3673POPC   C4B47806  16.904   3.735   7.364
 3674POPC   NC347807   5.880  13.623   5.564
 3674POPC   PO447808   5.897  13.591   5.864
 3674POPC   GL147809   5.838  13.589   6.164
 3674POPC   GL247810   5.941  13.549   6.164
 3674POPC   C1A47811   5.851  13.600   6.464
 3674POPC   D2A47812   5.865  13.601   6.764
 3674POPC   C3A47813   5.902  13.594   7.064
 3674POPC   C4A47814   5.827  13.646   7.364
 3674POPC   C1B47815   6.033  13.467   6.464
 3674POPC   C2B47816   6.043  13.476   6.764
 3674POPC   C3B47817   6.104  13.472   7.064
 3674POPC   C4B47818   6.030  13.465   7.364
 3675POPC   NC347819   2.777  39.262   5.564
 3675POPC   PO447820   2.731  39.226   5.864
 3675POPC   GL147821   2.718  39.277   6.164
 3675POPC   GL247822   2.833  39.085   6.164
 3675POPC   C1A47823   2.740  39.236   6.464
 3675POPC   D2A47824   2.810  39.210   6.764
 3675POPC   C3A47825   2.803  39.215   7.064
 3675POPC   C4A47826   2.794  39.223   7.364
 3675POPC   C1B47827   2.868  38.954   6.464
 3675POPC   C2B47828   2.882  39.000   6.764
 3675POPC   C3B47829   2.877  39.038   7.064
 3675POPC   C4B47830   2.810  39.043   7.364
 3676POPC   NC347831  18.322  24.537   5.564
 3676POPC   PO447832  18.257  24.445   5.864
 3676POPC   GL147833  18.323  24.499   6.164
 3676POPC   GL247834  18.190  24.579   6.164
 3676POPC   C1A47835  18.240  24.445   6.464
 3676POPC   D2A47836  18.282  24.480   6.764
 3676POPC   C3A47837  18.311  24.534   7.064
 3676POPC   C4A47838  18.274  24.488   7.364
 3676POPC   C1B47839  18.162  24.693   6.464
 3676POPC   C2B47840  18.189  24.769   6.764
 3676POPC   C3B47841  18.222  24.710   7.064
 3676POPC   C4B47842  18.159  24.682   7.364
 3677POPC   NC347843  12.886  33.819   5.564
 3677POPC   PO447844  12.884  33.810   5.864
 3677POPC   GL147845  12.805  33.765   6.164
 3677POPC   GL247846  12.861  33.884   6.164
 3677POPC   C1A47847  12.873  33.787   6.464
 3677POPC   D2A47848  12.899  33.759   6.764
 3677POPC   C3A47849  12.847  33.795   7.064
 3677POPC   C4A47850  12.894  33.804   7.364
 3677POPC   C1B47851  12.927  34.028   6.464
 3677POPC   C2B47852  12.938  34.031   6.764
 3677POPC   C3B47853  12.928  34.012   7.064
 3677POPC   C4B47854  12.977  34.063   7.364
 3678POPC   NC347855  22.145  23.700   5.564
 3678POPC   PO447856  22.123  23.700   5.864
 3678POPC   GL147857  22.122  23.694   6.164
 3678POPC   GL247858  22.079  23.729   6.164
 3678POPC   C1A47859  22.210  23.734   6.464
 3678POPC   D2A47860  22.159  23.762   6.764
 3678POPC   C3A47861  22.207  23.739   7.064
 3678POPC   C4A47862  22.205  23.687   7.364
 3678POPC   C1B47863  21.954  23.694   6.464
 3678POPC   C2B47864  21.937  23.633   6.764
 3678POPC   C3B47865  21.964  23.684   7.064
 3678POPC   C4B47866  21.948  23.696   7.364
 3679POPC   NC347867  37.700  15.182   5.564
 3679POPC   PO447868  37.671  15.148   5.864
 3679POPC   GL147869  37.728  15.132   6.164
 3679POPC   GL247870  37.523  15.118   6.164
 3679POPC   C1A47871  37.690  15.142   6.464
 3679POPC   D2A47872  37.663  15.220   6.764
 3679POPC   C3A47873  37.675  15.176   7.064
 3679POPC   C4A47874  37.656  15.151   7.364
 3679POPC   C1B47875  37.417  15.050   6.464
 3679POPC   C2B47876  37.480  15.052   6.764
 3679POPC   C3B47877  37.416  15.088   7.064
 3679POPC   C4B47878  37.460  15.035   7.364
 3680POPC   NC347879  23.733  39.257   5.564
 3680POPC   PO447880  23.723  39.190   5.864
 3680POPC   GL147881  23.743  39.268   6.164
 3680POPC   GL247882  23.648  39.300   6.164
 3680POPC   C1A47883  23.729  39.235   6.464
 3680POPC   D2A47884  23.720  39.247   6.764
 3680POPC   C3A47885  23.760  39.260   7.064
 3680POPC   C4A47886  23.750  39.251   7.364
 3680POPC   C1B47887  23.577  39.466   6.464
 3680POPC   C2B47888  23.630  39.473   6.764
 3680POPC   C3B47889  23.611  39.457   7.064
 3680POPC   C4B47890  23.666  39.435   7.364
 3681POPC   NC347891  33.759  15.206   5.564
 3681POPC   PO447892  33.804  15.211   5.864
 3681POPC   GL147893  33.802  15.228   6.164
 3681POPC   GL247894  33.655  15.201   6.164
 3681POPC   C1A47895  33.795  15.181   6.464
 3681POPC   D2A47896  33.842  15.150   6.764
 3681POPC   C3A47897  33.834  15.207   7.064
 3681POPC   C4A47898  33.849  15.207   7.364
 3681POPC   C1B47899  33.575  15.205   6.464
 3681POPC   C2B47900  33.519  15.262   6.764
 3681POPC   C3B47901  33.537  15.275   7.064
 3681POPC   C4B47902  33.581  15.243   7.364
 3682POPC   NC347903  14.365  36.146   5.564
 3682POPC   PO447904  14.437  36.162   5.864
 3682POPC   GL147905  14.425  36.122   6.164
 3682POPC   GL247906  14.376  36.045   6.164
 3682POPC   C1A47907  14.396  36.171   6.464
 3682POPC   D2A47908  14.394  36.139   6.764
 3682POPC   C3A47909  14.367  36.167   7.064
 3682POPC   C4A47910  14.369  36.080   7.364
 3682POPC   C1B47911  14.315  35.869   6.464
 3682POPC   C2B47912  14.280  35.859   6.764
 3682POPC   C3B47913  14.330  35.909   7.064
 3682POPC   C4B47914  14.302  35.926   7.364
 3683POPC   NC347915  26.063  32.989   5.564
 3683POPC   PO447916  26.072  33.059   5.864
 3683POPC   GL147917  26.091  33.069   6.164
 3683POPC   GL247918  25.945  33.037   6.164
 3683POPC   C1A47919  26.010  33.042   6.464
 3683POPC   D2A47920  26.008  33.061   6.764
 3683POPC   C3A47921  26.038  33.067   7.064
 3683POPC   C4A47922  25.999  33.047   7.364
 3683POPC   C1B47923  25.824  33.153   6.464
 3683POPC   C2B47924  25.782  33.132   6.764
 3683POPC   C3B47925  25.778  33.140   7.064
 3683POPC   C4B47926  25.858  33.167   7.364
 3684POPC   NC347927  32.216  37.648   5.564
 3684POPC   PO447928  32.275  37.673   5.864
 3684POPC   GL147929  32.271  37.717   6.164
 3684POPC   GL247930  32.165  37.766   6.164
 3684POPC   C1A47931  32.285  37.694   6.464
 3684POPC   D2A47932  32.244  37.694   6.764
 3684POPC   C3A47933  32.217  37.649   7.064
 3684POPC   C4A47934  32.244  37.666   7.364
 3684POPC   C1B47935  32.055  37.790   6.464
 3684POPC   C2B47936  32.025  37.823   6.764
 3684POPC   C3B47937  32.017  37.821   7.064
 3684POPC   C4B47938  32.088  37.853   7.364
 3685POPC   NC347939  35.390  41.567   5.564
 3685POPC   PO447940  35.310  41.539   5.864
 3685POPC   GL147941  35.359  41.573   6.164
 3685POPC   GL247942  35.282  41.554   6.164
 3685POPC   C1A47943  35.316  41.537   6.464
 3685POPC   D2A47944  35.384  41.556   6.764
 3685POPC   C3A47945  35.364  41.536   7.064
 3685POPC   C4A47946  35.335  41.513   7.364
 3685POPC   C1B47947  35.151  41.508   6.464
 3685POPC   C2B47948  35.128  41.431   6.764
 3685POPC   C3B47949  35.155  41.444   7.064
 3685POPC   C4B47950  35.130  41.438   7.364
 3686POPC   NC347951  16.710  42.346   5.564
 3686POPC   PO447952  16.727  42.353   5.864
 3686POPC   GL147953  16.754  42.317   6.164
 3686POPC   GL247954  16.649  42.419   6.164
 3686POPC   C1A47955  16.767  42.380   6.464
 3686POPC   D2A47956  16.766  42.321   6.764
 3686POPC   C3A47957  16.738  42.345   7.064
 3686POPC   C4A47958  16.733  42.286   7.364
 3686POPC   C1B47959  16.523  42.467   6.464
 3686POPC   C2B47960  16.478  42.426   6.764
 3686POPC   C3B47961  16.549  42.470   7.064
 3686POPC   C4B47962  16.558  42.520   7.364
 3687POPC   NC347963  38.408  26.841   5.564
 3687POPC   PO447964  38.455  26.849   5.864
 3687POPC   GL147965  38.427  26.791   6.164
 3687POPC   GL247966  38.422  26.682   6.164
 3687POPC   C1A47967  38.460  26.823   6.464
 3687POPC   D2A47968  38.408  26.776   6.764
 3687POPC   C3A47969  38.487  26.829   7.064
 3687POPC   C4A47970  38.446  26.866   7.364
 3687POPC   C1B47971  38.378  26.527   6.464
 3687POPC   C2B47972  38.390  26.567   6.764
 3687POPC   C3B47973  38.460  26.599   7.064
 3687POPC   C4B47974  38.429  26.578   7.364
 3688POPC   NC347975  12.838   9.761   5.564
 3688POPC   PO447976  12.859   9.766   5.864
 3688POPC   GL147977  12.879   9.766   6.164
 3688POPC   GL247978  12.906   9.829   6.164
 3688POPC   C1A47979  12.833   9.794   6.464
 3688POPC   D2A47980  12.808   9.765   6.764
 3688POPC   C3A47981  12.860   9.729   7.064
 3688POPC   C4A47982  12.880   9.737   7.364
 3688POPC   C1B47983  12.949   9.948   6.464
 3688POPC   C2B47984  13.018   9.992   6.764
 3688POPC   C3B47985  12.930   9.938   7.064
 3688POPC   C4B47986  12.923   9.921   7.364
 3689POPC   NC347987  43.111  11.328   5.564
 3689POPC   PO447988  43.095  11.329   5.864
 3689POPC   GL147989  43.107  11.287   6.164
 3689POPC   GL247990  42.945  11.339   6.164
 3689POPC   C1A47991  43.145  11.301   6.464
 3689POPC   D2A47992  43.111  11.303   6.764
 3689POPC   C3A47993  43.127  11.255   7.064
 3689POPC   C4A47994  43.093  11.265   7.364
 3689POPC   C1B47995  42.832  11.350   6.464
 3689POPC   C2B47996  42.885  11.357   6.764
 3689POPC   C3B47997  42.906  11.381   7.064
 3689POPC   C4B47998  42.820  11.347   7.364
 3690POPC   NC347999  41.539  15.200   5.564
 3690POPC   PO448000  41.560  15.208   5.864
 3690POPC   GL148001  41.567  15.217   6.164
 3690POPC   GL248002  41.515  15.100   6.164
 3690POPC   C1A48003  41.534  15.138   6.464
 3690POPC   D2A48004  41.514  15.212   6.764
 3690POPC   C3A48005  41.561  15.221   7.064
 3690POPC   C4A48006  41.509  15.133   7.364
 3690POPC   C1B48007  41.531  14.923   6.464
 3690POPC   C2B48008  41.526  14.970   6.764
 3690POPC   C3B48009  41.576  14.972   7.064
 3690POPC   C4B48010  41.576  14.950   7.364
 3691POPC   NC348011  21.435   8.235   5.564
 3691POPC   PO448012  21.406   8.201   5.864
 3691POPC   GL148013  21.370   8.180   6.164
 3691POPC   GL248014  21.445   8.040   6.164
 3691POPC   C1A48015  21.407   8.165   6.464
 3691POPC   D2A48016  21.385   8.239   6.764
 3691POPC   C3A48017  21.430   8.238   7.064
 3691POPC   C4A48018  21.369   8.198   7.364
 3691POPC   C1B48019  21.505   8.002   6.464
 3691POPC   C2B48020  21.439   7.947   6.764
 3691POPC   C3B48021  21.538   7.966   7.064
 3691POPC   C4B48022  21.443   7.942   7.364
 3692POPC   NC348023  22.951  40.819   5.564
 3692POPC   PO448024  22.965  40.789   5.864
 3692POPC   GL148025  22.957  40.753   6.164
 3692POPC   GL248026  23.040  40.698   6.164
 3692POPC   C1A48027  22.947  40.772   6.464
 3692POPC   D2A48028  22.955  40.740   6.764
 3692POPC   C3A48029  22.907  40.741   7.064
 3692POPC   C4A48030  22.927  40.760   7.364
 3692POPC   C1B48031  23.102  40.644   6.464
 3692POPC   C2B48032  23.134  40.605   6.764
 3692POPC   C3B48033  23.156  40.664   7.064
 3692POPC   C4B48034  23.155  40.617   7.364
 3693POPC   NC348035   6.630  33.043   5.564
 3693POPC   PO448036   6.604  33.018   5.864
 3693POPC   GL148037   6.673  33.028   6.164
 3693POPC   GL248038   6.539  33.063   6.164
 3693POPC   C1A48039   6.671  33.050   6.464
 3693POPC   D2A48040   6.620  33.039   6.764
 3693POPC   C3A48041   6.682  33.001   7.064
 3693POPC   C4A48042   6.624  33.034   7.364
 3693POPC   C1B48043   6.458  33.228   6.464
 3693POPC   C2B48044   6.428  33.209   6.764
 3693POPC   C3B48045   6.462  33.146   7.064
 3693POPC   C4B48046   6.462  33.188   7.364
 3694POPC   NC348047  20.660  29.145   5.564
 3694POPC   PO448048  20.572  29.185   5.864
 3694POPC   GL148049  20.561  29.192   6.164
 3694POPC   GL248050  20.699  29.141   6.164
 3694POPC   C1A48051  20.582  29.187   6.464
 3694POPC   D2A48052  20.618  29.169   6.764
 3694POPC   C3A48053  20.566  29.140   7.064
 3694POPC   C4A48054  20.563  29.111   7.364
 3694POPC   C1B48055  20.865  29.036   6.464
 3694POPC   C2B48056  20.847  29.021   6.764
 3694POPC   C3B48057  20.885  29.090   7.064
 3694POPC   C4B48058  20.821  29.092   7.364
 3695POPC   NC348059   1.993  43.153   5.564
 3695POPC   PO448060   1.992  43.068   5.864
 3695POPC   GL148061   1.943  43.142   6.164
 3695POPC   GL248062   2.117  43.055   6.164
 3695POPC   C1A48063   1.965  43.099   6.464
 3695POPC   D2A48064   1.947  43.073   6.764
 3695POPC   C3A48065   1.956  43.109   7.064
 3695POPC   C4A48066   1.993  43.119   7.364
 3695POPC   C1B48067   2.189  42.922   6.464
 3695POPC   C2B48068   2.152  42.959   6.764
 3695POPC   C3B48069   2.155  42.925   7.064
 3695POPC   C4B48070   2.145  42.947   7.364
 3696POPC   NC348071  36.153  32.215   5.564
 3696POPC   PO448072  36.149  32.265   5.864
 3696POPC   GL148073  36.082  32.284   6.164
 3696POPC   GL248074  36.131  32.334   6.164
 3696POPC   C1A48075  36.135  32.242   6.464
 3696POPC   D2A48076  36.165  32.246   6.764
 3696POPC   C3A48077  36.131  32.243   7.064
 3696POPC   C4A48078  36.115  32.211   7.364
 3696POPC   C1B48079  36.030  32.481   6.464
 3696POPC   C2B48080  36.019  32.517   6.764
 3696POPC   C3B48081  36.063  32.457   7.064
 3696POPC   C4B48082  36.105  32.534   7.364
 3697POPC   NC348083  28.403  22.897   5.564
 3697POPC   PO448084  28.323  22.930   5.864
 3697POPC   GL148085  28.365  22.948   6.164
 3697POPC   GL248086  28.220  22.938   6.164
 3697POPC   C1A48087  28.398  22.933   6.464
 3697POPC   D2A48088  28.362  22.974   6.764
 3697POPC   C3A48089  28.409  22.970   7.064
 3697POPC   C4A48090  28.331  22.931   7.364
 3697POPC   C1B48091  28.079  22.881   6.464
 3697POPC   C2B48092  28.111  22.888   6.764
 3697POPC   C3B48093  28.121  22.953   7.064
 3697POPC   C4B48094  28.082  22.888   7.364
 3698POPC   NC348095   5.118  11.272   5.564
 3698POPC   PO448096   5.045  11.282   5.864
 3698POPC   GL148097   5.070  11.289   6.164
 3698POPC   GL248098   5.008  11.291   6.164
 3698POPC   C1A48099   5.103  11.259   6.464
 3698POPC   D2A48100   5.062  11.284   6.764
 3698POPC   C3A48101   5.085  11.341   7.064
 3698POPC   C4A48102   5.046  11.327   7.364
 3698POPC   C1B48103   4.855  11.394   6.464
 3698POPC   C2B48104   4.806  11.333   6.764
 3698POPC   C3B48105   4.860  11.369   7.064
 3698POPC   C4B48106   4.855  11.365   7.364
 3699POPC   NC348107  26.782  18.264   5.564
 3699POPC   PO448108  26.775  18.319   5.864
 3699POPC   GL148109  26.824  18.244   6.164
 3699POPC   GL248110  26.817  18.133   6.164
 3699POPC   C1A48111  26.782  18.283   6.464
 3699POPC   D2A48112  26.786  18.259   6.764
 3699POPC   C3A48113  26.839  18.273   7.064
 3699POPC   C4A48114  26.815  18.322   7.364
 3699POPC   C1B48115  26.772  18.026   6.464
 3699POPC   C2B48116  26.720  18.035   6.764
 3699POPC   C3B48117  26.742  18.058   7.064
 3699POPC   C4B48118  26.757  18.064   7.364
 3700POPC   NC348119  34.596  27.625   5.564
 3700POPC   PO448120  34.605  27.632   5.864
 3700POPC   GL148121  34.606  27.552   6.164
 3700POPC   GL248122  34.685  27.650   6.164
 3700POPC   C1A48123  34.615  27.570   6.464
 3700POPC   D2A48124  34.547  27.639   6.764
 3700POPC   C3A48125  34.572  27.545   7.064
 3700POPC   C4A48126  34.602  27.610   7.364
 3700POPC   C1B48127  34.765  27.740   6.464
 3700POPC   C2B48128  34.759  27.696   6.764
 3700POPC   C3B48129  34.827  27.687   7.064
 3700POPC   C4B48130  34.840  27.683   7.364
 3701POPC   NC348131   5.068  38.483   5.564
 3701POPC   PO448132   5.044  38.439   5.864
 3701POPC   GL148133   5.140  38.427   6.164
 3701POPC   GL248134   5.032  38.580   6.164
 3701POPC   C1A48135   5.137  38.445   6.464
 3701POPC   D2A48136   5.063  38.494   6.764
 3701POPC   C3A48137   5.140  38.438   7.064
 3701POPC   C4A48138   5.125  38.407   7.364
 3701POPC   C1B48139   5.000  38.723   6.464
 3701POPC   C2B48140   5.008  38.679   6.764
 3701POPC   C3B48141   5.056  38.735   7.064
 3701POPC   C4B48142   5.027  38.718   7.364
 3702POPC   NC348143  24.512   2.760   5.564
 3702POPC   PO448144  24.531   2.749   5.864
 3702POPC   GL148145  24.443   2.739   6.164
 3702POPC   GL248146  24.585   2.695   6.164
 3702POPC   C1A48147  24.536   2.755   6.464
 3702POPC   D2A48148  24.499   2.808   6.764
 3702POPC   C3A48149  24.457   2.717   7.064
 3702POPC   C4A48150  24.517   2.815   7.364
 3702POPC   C1B48151  24.703   2.670   6.464
 3702POPC   C2B48152  24.690   2.729   6.764
 3702POPC   C3B48153  24.764   2.672   7.064
 3702POPC   C4B48154  24.780   2.696   7.364
 3703POPC   NC348155  18.316  38.411   5.564
 3703POPC   PO448156  18.323  38.464   5.864
 3703POPC   GL148157  18.324  38.461   6.164
 3703POPC   GL248158  18.140  38.390   6.164
 3703POPC   C1A48159  18.243  38.469   6.464
 3703POPC   D2A48160  18.299  38.438   6.764
 3703POPC   C3A48161  18.234  38.488   7.064
 3703POPC   C4A48162  18.276  38.415   7.364
 3703POPC   C1B48163  18.095  38.337   6.464
 3703POPC   C2B48164  18.138  38.337   6.764
 3703POPC   C3B48165  18.115  38.277   7.064
 3703POPC   C4B48166  18.081  38.249   7.364
 3704POPC   NC348167  38.435  39.186   5.564
 3704POPC   PO448168  38.417  39.214   5.864
 3704POPC   GL148169  38.435  39.260   6.164
 3704POPC   GL248170  38.472  39.381   6.164
 3704POPC   C1A48171  38.445  39.250   6.464
 3704POPC   D2A48172  38.420  39.265   6.764
 3704POPC   C3A48173  38.416  39.264   7.064
 3704POPC   C4A48174  38.418  39.274   7.364
 3704POPC   C1B48175  38.514  39.499   6.464
 3704POPC   C2B48176  38.489  39.444   6.764
 3704POPC   C3B48177  38.487  39.482   7.064
 3704POPC   C4B48178  38.498  39.481   7.364
 3705POPC   NC348179   3.571  14.447   5.564
 3705POPC   PO448180   3.579  14.399   5.864
 3705POPC   GL148181   3.556  14.405   6.164
 3705POPC   GL248182   3.578  14.314   6.164
 3705POPC   C1A48183   3.536  14.395   6.464
 3705POPC   D2A48184   3.528  14.433   6.764
 3705POPC   C3A48185   3.565  14.384   7.064
 3705POPC   C4A48186   3.497  14.413   7.364
 3705POPC   C1B48187   3.661  14.195   6.464
 3705POPC   C2B48188   3.650  14.232   6.764
 3705POPC   C3B48189   3.676  14.139   7.064
 3705POPC   C4B48190   3.638  14.175   7.364
 3706POPC   NC348191  43.107  36.889   5.564
 3706POPC   PO448192  43.130  36.906   5.864
 3706POPC   GL148193  43.118  36.892   6.164
 3706POPC   GL248194  43.257  36.872   6.164
 3706POPC   C1A48195  43.073  36.929   6.464
 3706POPC   D2A48196  43.090  36.903   6.764
 3706POPC   C3A48197  43.112  36.880   7.064
 3706POPC   C4A48198  43.096  36.935   7.364
 3706POPC   C1B48199  43.361  36.829   6.464
 3706POPC   C2B48200  43.299  36.747   6.764
 3706POPC   C3B48201  43.299  36.816   7.064
 3706POPC   C4B48202  43.369  36.784   7.364
 3707POPC   NC348203  11.304   1.246   5.564
 3707POPC   PO448204  11.309   1.226   5.864
 3707POPC   GL148205  11.254   1.227   6.164
 3707POPC   GL248206  11.390   1.214   6.164
 3707POPC   C1A48207  11.331   1.218   6.464
 3707POPC   D2A48208  11.329   1.216   6.764
 3707POPC   C3A48209  11.283   1.174   7.064
 3707POPC   C4A48210  11.280   1.247   7.364
 3707POPC   C1B48211  11.551   1.277   6.464
 3707POPC   C2B48212  11.516   1.271   6.764
 3707POPC   C3B48213  11.521   1.285   7.064
 3707POPC   C4B48214  11.489   1.341   7.364
 3708POPC   NC348215  34.597  41.597   5.564
 3708POPC   PO448216  34.546  41.579   5.864
 3708POPC   GL148217  34.558  41.600   6.164
 3708POPC   GL248218  34.734  41.613   6.164
 3708POPC   C1A48219  34.595  41.535   6.464
 3708POPC   D2A48220  34.571  41.570   6.764
 3708POPC   C3A48221  34.583  41.566   7.064
 3708POPC   C4A48222  34.542  41.525   7.364
 3708POPC   C1B48223  34.850  41.544   6.464
 3708POPC   C2B48224  34.866  41.533   6.764
 3708POPC   C3B48225  34.854  41.595   7.064
 3708POPC   C4B48226  34.814  41.596   7.364
 3709POPC   NC348227   4.323  41.537   5.564
 3709POPC   PO448228   4.289  41.605   5.864
 3709POPC   GL148229   4.302  41.586   6.164
 3709POPC   GL248230   4.235  41.559   6.164
 3709POPC   C1A48231   4.271  41.556   6.464
 3709POPC   D2A48232   4.296  41.542   6.764
 3709POPC   C3A48233   4.359  41.548   7.064
 3709POPC   C4A48234   4.308  41.551   7.364
 3709POPC   C1B48235   4.038  41.668   6.464
 3709POPC   C2B48236   4.078  41.677   6.764
 3709POPC   C3B48237   4.063  41.674   7.064
 3709POPC   C4B48238   4.056  41.675   7.364
 3710POPC   NC348239   4.305  14.380   5.564
 3710POPC   PO448240   4.303  14.366   5.864
 3710POPC   GL148241   4.302  14.401   6.164
 3710POPC   GL248242   4.219  14.384   6.164
 3710POPC   C1A48243   4.286  14.356   6.464
 3710POPC   D2A48244   4.326  14.395   6.764
 3710POPC   C3A48245   4.280  14.395   7.064
 3710POPC   C4A48246   4.280  14.366   7.364
 3710POPC   C1B48247   4.105  14.259   6.464
 3710POPC   C2B48248   4.046  14.259   6.764
 3710POPC   C3B48249   4.128  14.306   7.064
 3710POPC   C4B48250   4.045  14.284   7.364
 3711POPC   NC348251  10.509  33.798   5.564
 3711POPC   PO448252  10.480  33.768   5.864
 3711POPC   GL148253  10.488  33.791   6.164
 3711POPC   GL248254  10.643  33.861   6.164
 3711POPC   C1A48255  10.475  33.767   6.464
 3711POPC   D2A48256  10.512  33.756   6.764
 3711POPC   C3A48257  10.483  33.800   7.064
 3711POPC   C4A48258  10.555  33.827   7.364
 3711POPC   C1B48259  10.804  33.809   6.464
 3711POPC   C2B48260  10.720  33.846   6.764
 3711POPC   C3B48261  10.806  33.883   7.064
 3711POPC   C4B48262  10.817  33.822   7.364
 3712POPC   NC348263  19.059  23.755   5.564
 3712POPC   PO448264  19.108  23.715   5.864
 3712POPC   GL148265  19.032  23.763   6.164
 3712POPC   GL248266  18.978  23.696   6.164
 3712POPC   C1A48267  19.021  23.757   6.464
 3712POPC   D2A48268  19.049  23.667   6.764
 3712POPC   C3A48269  19.081  23.676   7.064
 3712POPC   C4A48270  19.043  23.720   7.364
 3712POPC   C1B48271  18.878  23.585   6.464
 3712POPC   C2B48272  18.883  23.609   6.764
 3712POPC   C3B48273  18.864  23.592   7.064
 3712POPC   C4B48274  18.807  23.601   7.364
 3713POPC   NC348275   9.751  42.298   5.564
 3713POPC   PO448276   9.792  42.384   5.864
 3713POPC   GL148277   9.719  42.379   6.164
 3713POPC   GL248278   9.604  42.270   6.164
 3713POPC   C1A48279   9.726  42.319   6.464
 3713POPC   D2A48280   9.720  42.288   6.764
 3713POPC   C3A48281   9.780  42.307   7.064
 3713POPC   C4A48282   9.710  42.371   7.364
 3713POPC   C1B48283   9.533  42.295   6.464
 3713POPC   C2B48284   9.548  42.222   6.764
 3713POPC   C3B48285   9.505  42.237   7.064
 3713POPC   C4B48286   9.518  42.278   7.364
 3714POPC   NC348287  41.564  41.528   5.564
 3714POPC   PO448288  41.544  41.607   5.864
 3714POPC   GL148289  41.555  41.565   6.164
 3714POPC   GL248290  41.694  41.640   6.164
 3714POPC   C1A48291  41.605  41.569   6.464
 3714POPC   D2A48292  41.584  41.590   6.764
 3714POPC   C3A48293  41.600  41.592   7.064
 3714POPC   C4A48294  41.583  41.567   7.364
 3714POPC   C1B48295  41.809  41.697   6.464
 3714POPC   C2B48296  41.784  41.725   6.764
 3714POPC   C3B48297  41.763  41.642   7.064
 3714POPC   C4B48298  41.789  41.736   7.364
 3715POPC   NC348299  35.344   9.727   5.564
 3715POPC   PO448300  35.342   9.728   5.864
 3715POPC   GL148301  35.326   9.726   6.164
 3715POPC   GL248302  35.253   9.813   6.164
 3715POPC   C1A48303  35.381   9.714   6.464
 3715POPC   D2A48304  35.340   9.771   6.764
 3715POPC   C3A48305  35.312   9.756   7.064
 3715POPC   C4A48306  35.351   9.728   7.364
 3715POPC   C1B48307  35.157   9.929   6.464
 3715POPC   C2B48308  35.160   9.968   6.764
 3715POPC   C3B48309  35.152   9.917   7.064
 3715POPC   C4B48310  35.175   9.914   7.364
 3716POPC   NC348311  16.711  20.644   5.564
 3716POPC   PO448312  16.766  20.593   5.864
 3716POPC   GL148313  16.728  20.574   6.164
 3716POPC   GL248314  16.832  20.727   6.164
 3716POPC   C1A48315  16.709  20.635   6.464
 3716POPC   D2A48316  16.705  20.612   6.764
 3716POPC   C3A48317  16.775  20.596   7.064
 3716POPC   C4A48318  16.772  20.582   7.364
 3716POPC   C1B48319  16.908  20.794   6.464
 3716POPC   C2B48320  16.909  20.809   6.764
 3716POPC   C3B48321  16.880  20.848   7.064
 3716POPC   C4B48322  16.911  20.782   7.364
 3717POPC   NC348323  11.306  21.344   5.564
 3717POPC   PO448324  11.300  21.382   5.864
 3717POPC   GL148325  11.299  21.359   6.164
 3717POPC   GL248326  11.247  21.524   6.164
 3717POPC   C1A48327  11.284  21.380   6.464
 3717POPC   D2A48328  11.348  21.387   6.764
 3717POPC   C3A48329  11.343  21.356   7.064
 3717POPC   C4A48330  11.334  21.391   7.364
 3717POPC   C1B48331  11.219  21.592   6.464
 3717POPC   C2B48332  11.207  21.660   6.764
 3717POPC   C3B48333  11.252  21.599   7.064
 3717POPC   C4B48334  11.261  21.664   7.364
 3718POPC   NC348335  43.912  36.145   5.564
 3718POPC   PO448336  43.870  36.139   5.864
 3718POPC   GL148337  43.859  36.107   6.164
 3718POPC   GL248338  43.796  36.068   6.164
 3718POPC   C1A48339  43.925  36.088   6.464
 3718POPC   D2A48340  43.928  36.106   6.764
 3718POPC   C3A48341  43.931  36.098   7.064
 3718POPC   C4A48342  43.846  36.156   7.364
 3718POPC   C1B48343  43.762  35.941   6.464
 3718POPC   C2B48344  43.676  35.905   6.764
 3718POPC   C3B48345  43.760  35.933   7.064
 3718POPC   C4B48346  43.702  35.916   7.364
 3719POPC   NC348347  18.300  29.185   5.564
 3719POPC   PO448348  18.276  29.160   5.864
 3719POPC   GL148349  18.246  29.178   6.164
 3719POPC   GL248350  18.231  29.005   6.164
 3719POPC   C1A48351  18.237  29.179   6.464
 3719POPC   D2A48352  18.259  29.140   6.764
 3719POPC   C3A48353  18.281  29.103   7.064
 3719POPC   C4A48354  18.295  29.117   7.364
 3719POPC   C1B48355  18.123  28.903   6.464
 3719POPC   C2B48356  18.162  28.935   6.764
 3719POPC   C3B48357  18.183  28.921   7.064
 3719POPC   C4B48358  18.199  28.881   7.364
 3720POPC   NC348359  12.105   7.383   5.564
 3720POPC   PO448360  12.098   7.416   5.864
 3720POPC   GL148361  12.100   7.406   6.164
 3720POPC   GL248362  11.982   7.507   6.164
 3720POPC   C1A48363  12.088   7.411   6.464
 3720POPC   D2A48364  12.036   7.456   6.764
 3720POPC   C3A48365  12.044   7.458   7.064
 3720POPC   C4A48366  12.046   7.460   7.364
 3720POPC   C1B48367  11.850   7.494   6.464
 3720POPC   C2B48368  11.882   7.483   6.764
 3720POPC   C3B48369  11.886   7.523   7.064
 3720POPC   C4B48370  11.890   7.514   7.364
 3721POPC   NC348371  13.660  40.001   5.564
 3721POPC   PO448372  13.666  40.030   5.864
 3721POPC   GL148373  13.620  39.964   6.164
 3721POPC   GL248374  13.513  40.124   6.164
 3721POPC   C1A48375  13.657  39.997   6.464
 3721POPC   D2A48376  13.651  39.964   6.764
 3721POPC   C3A48377  13.594  40.036   7.064
 3721POPC   C4A48378  13.672  40.055   7.364
 3721POPC   C1B48379  13.448  40.146   6.464
 3721POPC   C2B48380  13.453  40.154   6.764
 3721POPC   C3B48381  13.408  40.185   7.064
 3721POPC   C4B48382  13.473  40.201   7.364
 3722POPC   NC348383  43.857  17.535   5.564
 3722POPC   PO448384  43.918  17.525   5.864
 3722POPC   GL148385  43.842  17.541   6.164
 3722POPC   GL248386  44.013  17.562   6.164
 3722POPC   C1A48387  43.850  17.533   6.464
 3722POPC   D2A48388  43.862  17.467   6.764
 3722POPC   C3A48389  43.875  17.501   7.064
 3722POPC   C4A48390  43.907  17.496   7.364
 3722POPC   C1B48391  44.014  17.706   6.464
 3722POPC   C2B48392  44.027  17.661   6.764
 3722POPC   C3B48393  44.068  17.679   7.064
 3722POPC   C4B48394  44.098  17.665   7.364
 3723POPC   NC348395  17.490  26.049   5.564
 3723POPC   PO448396  17.515  26.087   5.864
 3723POPC   GL148397  17.486  26.034   6.164
 3723POPC   GL248398  17.651  26.051   6.164
 3723POPC   C1A48399  17.534  25.997   6.464
 3723POPC   D2A48400  17.551  26.001   6.764
 3723POPC   C3A48401  17.482  26.039   7.064
 3723POPC   C4A48402  17.545  26.042   7.364
 3723POPC   C1B48403  17.741  25.961   6.464
 3723POPC   C2B48404  17.764  25.970   6.764
 3723POPC   C3B48405  17.789  26.005   7.064
 3723POPC   C4B48406  17.779  26.006   7.364
 3724POPC   NC348407  29.151  42.316   5.564
 3724POPC   PO448408  29.181  42.312   5.864
 3724POPC   GL148409  29.153  42.373   6.164
 3724POPC   GL248410  29.056  42.229   6.164
 3724POPC   C1A48411  29.121  42.350   6.464
 3724POPC   D2A48412  29.186  42.348   6.764
 3724POPC   C3A48413  29.185  42.329   7.064
 3724POPC   C4A48414  29.131  42.346   7.364
 3724POPC   C1B48415  28.966  42.125   6.464
 3724POPC   C2B48416  29.025  42.125   6.764
 3724POPC   C3B48417  28.958  42.097   7.064
 3724POPC   C4B48418  29.015  42.150   7.364
 3725POPC   NC348419  11.258   0.459   5.564
 3725POPC   PO448420  11.335   0.419   5.864
 3725POPC   GL148421  11.347   0.470   6.164
 3725POPC   GL248422  11.332   0.283   6.164
 3725POPC   C1A48423  11.331   0.408   6.464
 3725POPC   D2A48424  11.324   0.404   6.764
 3725POPC   C3A48425  11.349   0.442   7.064
 3725POPC   C4A48426  11.327   0.437   7.364
 3725POPC   C1B48427  11.294   0.177   6.464
 3725POPC   C2B48428  11.255   0.232   6.764
 3725POPC   C3B48429  11.337   0.227   7.064
 3725POPC   C4B48430  11.293   0.209   7.364
 3726POPC   NC348431  18.330   9.765   5.564
 3726POPC   PO448432  18.266   9.737   5.864
 3726POPC   GL148433  18.288   9.753   6.164
 3726POPC   GL248434  18.362   9.764   6.164
 3726POPC   C1A48435  18.298   9.760   6.464
 3726POPC   D2A48436  18.314   9.701   6.764
 3726POPC   C3A48437  18.277   9.779   7.064
 3726POPC   C4A48438  18.268   9.788   7.364
 3726POPC   C1B48439  18.581   9.777   6.464
 3726POPC   C2B48440  18.505   9.746   6.764
 3726POPC   C3B48441  18.501   9.784   7.064
 3726POPC   C4B48442  18.513   9.744   7.364
 3727POPC   NC348443   5.106   7.460   5.564
 3727POPC   PO448444   5.127   7.459   5.864
 3727POPC   GL148445   5.140   7.401   6.164
 3727POPC   GL248446   5.012   7.301   6.164
 3727POPC   C1A48447   5.058   7.389   6.464
 3727POPC   D2A48448   5.084   7.372   6.764
 3727POPC   C3A48449   5.122   7.410   7.064
 3727POPC   C4A48450   5.110   7.416   7.364
 3727POPC   C1B48451   4.945   7.244   6.464
 3727POPC   C2B48452   4.919   7.209   6.764
 3727POPC   C3B48453   4.917   7.228   7.064
 3727POPC   C4B48454   4.913   7.279   7.364
 3728POPC   NC348455  25.216  13.660   5.564
 3728POPC   PO448456  25.231  13.605   5.864
 3728POPC   GL148457  25.233  13.621   6.164
 3728POPC   GL248458  25.337  13.543   6.164
 3728POPC   C1A48459  25.225  13.663   6.464
 3728POPC   D2A48460  25.291  13.666   6.764
 3728POPC   C3A48461  25.314  13.609   7.064
 3728POPC   C4A48462  25.278  13.582   7.364
 3728POPC   C1B48463  25.410  13.409   6.464
 3728POPC   C2B48464  25.439  13.479   6.764
 3728POPC   C3B48465  25.439  13.471   7.064
 3728POPC   C4B48466  25.473  13.402   7.364
 3729POPC   NC348467  41.579  37.645   5.564
 3729POPC   PO448468  41.579  37.716   5.864
 3729POPC   GL148469  41.518  37.638   6.164
 3729POPC   GL248470  41.482  37.536   6.164
 3729POPC   C1A48471  41.578  37.692   6.464
 3729POPC   D2A48472  41.556  37.654   6.764
 3729POPC   C3A48473  41.555  37.643   7.064
 3729POPC   C4A48474  41.559  37.649   7.364
 3729POPC   C1B48475  41.444  37.538   6.464
 3729POPC   C2B48476  41.362  37.496   6.764
 3729POPC   C3B48477  41.405  37.466   7.064
 3729POPC   C4B48478  41.389  37.533   7.364
 3730POPC   NC348479  33.817  32.998   5.564
 3730POPC   PO448480  33.752  32.991   5.864
 3730POPC   GL148481  33.837  33.029   6.164
 3730POPC   GL248482  33.848  33.141   6.164
 3730POPC   C1A48483  33.840  33.031   6.464
 3730POPC   D2A48484  33.781  32.982   6.764
 3730POPC   C3A48485  33.801  33.053   7.064
 3730POPC   C4A48486  33.763  32.974   7.364
 3730POPC   C1B48487  33.962  33.212   6.464
 3730POPC   C2B48488  33.921  33.244   6.764
 3730POPC   C3B48489  33.867  33.224   7.064
 3730POPC   C4B48490  33.931  33.274   7.364
 3731POPC   NC348491  11.309  33.811   5.564
 3731POPC   PO448492  11.306  33.828   5.864
 3731POPC   GL148493  11.287  33.812   6.164
 3731POPC   GL248494  11.139  33.790   6.164
 3731POPC   C1A48495  11.328  33.843   6.464
 3731POPC   D2A48496  11.328  33.823   6.764
 3731POPC   C3A48497  11.269  33.769   7.064
 3731POPC   C4A48498  11.288  33.775   7.364
 3731POPC   C1B48499  11.041  33.723   6.464
 3731POPC   C2B48500  11.090  33.673   6.764
 3731POPC   C3B48501  11.047  33.715   7.064
 3731POPC   C4B48502  11.025  33.672   7.364
 3732POPC   NC348503   8.946  20.579   5.564
 3732POPC   PO448504   9.017  20.657   5.864
 3732POPC   GL148505   8.949  20.651   6.164
 3732POPC   GL248506   8.849  20.644   6.164
 3732POPC   C1A48507   8.977  20.622   6.464
 3732POPC   D2A48508   8.955  20.565   6.764
 3732POPC   C3A48509   8.994  20.590   7.064
 3732POPC   C4A48510   9.013  20.613   7.364
 3732POPC   C1B48511   8.753  20.627   6.464
 3732POPC   C2B48512   8.716  20.684   6.764
 3732POPC   C3B48513   8.749  20.616   7.064
 3732POPC   C4B48514   8.756  20.711   7.364
 3733POPC   NC348515  42.314   1.169   5.564
 3733POPC   PO448516  42.337   1.183   5.864
 3733POPC   GL148517  42.312   1.243   6.164
 3733POPC   GL248518  42.309   1.359   6.164
 3733POPC   C1A48519  42.327   1.166   6.464
 3733POPC   D2A48520  42.335   1.259   6.764
 3733POPC   C3A48521  42.325   1.224   7.064
 3733POPC   C4A48522  42.288   1.217   7.364
 3733POPC   C1B48523  42.175   1.423   6.464
 3733POPC   C2B48524  42.251   1.409   6.764
 3733POPC   C3B48525  42.216   1.399   7.064
 3733POPC   C4B48526  42.179   1.392   7.364
 3734POPC   NC348527  30.703  20.621   5.564
 3734POPC   PO448528  30.711  20.627   5.864
 3734POPC   GL148529  30.661  20.578   6.164
 3734POPC   GL248530  30.612  20.667   6.164
 3734POPC   C1A48531  30.674  20.593   6.464
 3734POPC   D2A48532  30.699  20.647   6.764
 3734POPC   C3A48533  30.708  20.587   7.064
 3734POPC   C4A48534  30.656  20.605   7.364
 3734POPC   C1B48535  30.504  20.728   6.464
 3734POPC   C2B48536  30.419  20.719   6.764
 3734POPC   C3B48537  30.502  20.688   7.064
 3734POPC   C4B48538  30.478  20.636   7.364
 3735POPC   NC348539  34.537  12.094   5.564
 3735POPC   PO448540  34.618  12.092   5.864
 3735POPC   GL148541  34.556  12.123   6.164
 3735POPC   GL248542  34.566  11.940   6.164
 3735POPC   C1A48543  34.557  12.121   6.464
 3735POPC   D2A48544  34.587  12.063   6.764
 3735POPC   C3A48545  34.601  12.077   7.064
 3735POPC   C4A48546  34.591  12.117   7.364
 3735POPC   C1B48547  34.642  11.826   6.464
 3735POPC   C2B48548  34.623  11.869   6.764
 3735POPC   C3B48549  34.654  11.857   7.064
 3735POPC   C4B48550  34.663  11.884   7.364
 3736POPC   NC348551  15.994   5.886   5.564
 3736POPC   PO448552  15.961   5.831   5.864
 3736POPC   GL148553  15.934   5.824   6.164
 3736POPC   GL248554  15.831   5.869   6.164
 3736POPC   C1A48555  15.935   5.888   6.464
 3736POPC   D2A48556  15.963   5.912   6.764
 3736POPC   C3A48557  15.954   5.827   7.064
 3736POPC   C4A48558  15.996   5.874   7.364
 3736POPC   C1B48559  15.675   5.861   6.464
 3736POPC   C2B48560  15.751   5.829   6.764
 3736POPC   C3B48561  15.731   5.811   7.064
 3736POPC   C4B48562  15.708   5.796   7.364
 3737POPC   NC348563   2.739   0.476   5.564
 3737POPC   PO448564   2.801   0.401   5.864
 3737POPC   GL148565   2.743   0.414   6.164
 3737POPC   GL248566   2.857   0.505   6.164
 3737POPC   C1A48567   2.745   0.481   6.464
 3737POPC   D2A48568   2.757   0.467   6.764
 3737POPC   C3A48569   2.776   0.424   7.064
 3737POPC   C4A48570   2.808   0.388   7.364
 3737POPC   C1B48571   2.812   0.684   6.464
 3737POPC   C2B48572   2.829   0.642   6.764
 3737POPC   C3B48573   2.808   0.667   7.064
 3737POPC   C4B48574   2.890   0.712   7.364
 3738POPC   NC348575  37.684  36.862   5.564
 3738POPC   PO448576  37.697  36.871   5.864
 3738POPC   GL148577  37.689  36.945   6.164
 3738POPC   GL248578  37.662  36.734   6.164
 3738POPC   C1A48579  37.685  36.926   6.464
 3738POPC   D2A48580  37.720  36.857   6.764
 3738POPC   C3A48581  37.652  36.927   7.064
 3738POPC   C4A48582  37.640  36.890   7.364
 3738POPC   C1B48583  37.708  36.682   6.464
 3738POPC   C2B48584  37.751  36.631   6.764
 3738POPC   C3B48585  37.680  36.697   7.064
 3738POPC   C4B48586  37.757  36.690   7.364
 3739POPC   NC348587   4.343   1.173   5.564
 3739POPC   PO448588   4.321   1.229   5.864
 3739POPC   GL148589   4.288   1.246   6.164
 3739POPC   GL248590   4.235   1.320   6.164
 3739POPC   C1A48591   4.363   1.238   6.464
 3739POPC   D2A48592   4.269   1.172   6.764
 3739POPC   C3A48593   4.275   1.223   7.064
 3739POPC   C4A48594   4.329   1.209   7.364
 3739POPC   C1B48595   4.148   1.407   6.464
 3739POPC   C2B48596   4.158   1.418   6.764
 3739POPC   C3B48597   4.136   1.417   7.064
 3739POPC   C4B48598   4.122   1.398   7.364
 3740POPC   NC348599  12.066  43.111   5.564
 3740POPC   PO448600  12.046  43.081   5.864
 3740POPC   GL148601  12.072  43.070   6.164
 3740POPC   GL248602  12.015  43.153   6.164
 3740POPC   C1A48603  12.046  43.121   6.464
 3740POPC   D2A48604  12.078  43.106   6.764
 3740POPC   C3A48605  12.055  43.086   7.064
 3740POPC   C4A48606  12.121  43.091   7.364
 3740POPC   C1B48607  11.863  43.340   6.464
 3740POPC   C2B48608  11.877  43.312   6.764
 3740POPC   C3B48609  11.929  43.294   7.064
 3740POPC   C4B48610  11.872  43.335   7.364
 3741POPC   NC348611  23.758   0.436   5.564
 3741POPC   PO448612  23.690   0.480   5.864
 3741POPC   GL148613  23.686   0.481   6.164
 3741POPC   GL248614  23.723   0.306   6.164
 3741POPC   C1A48615  23.759   0.437   6.464
 3741POPC   D2A48616  23.699   0.457   6.764
 3741POPC   C3A48617  23.745   0.458   7.064
 3741POPC   C4A48618  23.696   0.456   7.364
 3741POPC   C1B48619  23.750   0.153   6.464
 3741POPC   C2B48620  23.712   0.202   6.764
 3741POPC   C3B48621  23.757   0.208   7.064
 3741POPC   C4B48622  23.733   0.187   7.364
 3742POPC   NC348623  34.587  30.728   5.564
 3742POPC   PO448624  34.546  30.668   5.864
 3742POPC   GL148625  34.609  30.649   6.164
 3742POPC   GL248626  34.668  30.618   6.164
 3742POPC   C1A48627  34.573  30.661   6.464
 3742POPC   D2A48628  34.617  30.738   6.764
 3742POPC   C3A48629  34.534  30.732   7.064
 3742POPC   C4A48630  34.537  30.682   7.364
 3742POPC   C1B48631  34.790  30.570   6.464
 3742POPC   C2B48632  34.830  30.542   6.764
 3742POPC   C3B48633  34.824  30.607   7.064
 3742POPC   C4B48634  34.840  30.520   7.364
 3743POPC   NC348635  10.564   6.683   5.564
 3743POPC   PO448636  10.572   6.691   5.864
 3743POPC   GL148637  10.552   6.662   6.164
 3743POPC   GL248638  10.479   6.562   6.164
 3743POPC   C1A48639  10.572   6.693   6.464
 3743POPC   D2A48640  10.490   6.657   6.764
 3743POPC   C3A48641  10.543   6.612   7.064
 3743POPC   C4A48642  10.510   6.673   7.364
 3743POPC   C1B48643  10.477   6.439   6.464
 3743POPC   C2B48644  10.446   6.408   6.764
 3743POPC   C3B48645  10.471   6.398   7.064
 3743POPC   C4B48646  10.503   6.379   7.364
 3744POPC   NC348647  17.537  43.063   5.564
 3744POPC   PO448648  17.517  43.115   5.864
 3744POPC   GL148649  17.479  43.067   6.164
 3744POPC   GL248650  17.499  43.031   6.164
 3744POPC   C1A48651  17.474  43.113   6.464
 3744POPC   D2A48652  17.553  43.131   6.764
 3744POPC   C3A48653  17.525  43.104   7.064
 3744POPC   C4A48654  17.463  43.100   7.364
 3744POPC   C1B48655  17.535  42.827   6.464
 3744POPC   C2B48656  17.525  42.886   6.764
 3744POPC   C3B48657  17.527  42.889   7.064
 3744POPC   C4B48658  17.553  42.858   7.364
 3745POPC   NC348659  29.133  21.394   5.564
 3745POPC   PO448660  29.148  21.352   5.864
 3745POPC   GL148661  29.124  21.360   6.164
 3745POPC   GL248662  29.138  21.523   6.164
 3745POPC   C1A48663  29.158  21.397   6.464
 3745POPC   D2A48664  29.171  21.391   6.764
 3745POPC   C3A48665  29.096  21.421   7.064
 3745POPC   C4A48666  29.131  21.431   7.364
 3745POPC   C1B48667  29.026  21.630   6.464
 3745POPC   C2B48668  29.044  21.618   6.764
 3745POPC   C3B48669  29.028  21.599   7.064
 3745POPC   C4B48670  29.020  21.584   7.364
 3746POPC   NC348671   8.190  44.664   5.564
 3746POPC   PO448672   8.171  44.621   5.864
 3746POPC   GL148673   8.200  44.624   6.164
 3746POPC   GL248674   8.268  44.591   6.164
 3746POPC   C1A48675   8.230  44.708   6.464
 3746POPC   D2A48676   8.178  44.633   6.764
 3746POPC   C3A48677   8.224  44.665   7.064
 3746POPC   C4A48678   8.154  44.624   7.364
 3746POPC   C1B48679   8.236  44.438   6.464
 3746POPC   C2B48680   8.272  44.472   6.764
 3746POPC   C3B48681   8.244  44.423   7.064
 3746POPC   C4B48682   8.254  44.408   7.364
 3747POPC   NC348683  14.412  12.899   5.564
 3747POPC   PO448684  14.420  12.836   5.864
 3747POPC   GL148685  14.404  12.858   6.164
 3747POPC   GL248686  14.464  12.969   6.164
 3747POPC   C1A48687  14.438  12.844   6.464
 3747POPC   D2A48688  14.439  12.814   6.764
 3747POPC   C3A48689  14.395  12.878   7.064
 3747POPC   C4A48690  14.384  12.843   7.364
 3747POPC   C1B48691  14.558  13.075   6.464
 3747POPC   C2B48692  14.488  13.049   6.764
 3747POPC   C3B48693  14.530  13.043   7.064
 3747POPC   C4B48694  14.555  13.075   7.364
 3748POPC   NC348695   6.603  21.379   5.564
 3748POPC   PO448696   6.636  21.415   5.864
 3748POPC   GL148697   6.617  21.337   6.164
 3748POPC   GL248698   6.683  21.285   6.164
 3748POPC   C1A48699   6.630  21.409   6.464
 3748POPC   D2A48700   6.640  21.409   6.764
 3748POPC   C3A48701   6.624  21.387   7.064
 3748POPC   C4A48702   6.622  21.390   7.364
 3748POPC   C1B48703   6.658  21.169   6.464
 3748POPC   C2B48704   6.620  21.122   6.764
 3748POPC   C3B48705   6.640  21.110   7.064
 3748POPC   C4B48706   6.711  21.117   7.364
 3749POPC   NC348707  27.567  37.679   5.564
 3749POPC   PO448708  27.638  37.638   5.864
 3749POPC   GL148709  27.566  37.711   6.164
 3749POPC   GL248710  27.667  37.534   6.164
 3749POPC   C1A48711  27.607  37.655   6.464
 3749POPC   D2A48712  27.642  37.680   6.764
 3749POPC   C3A48713  27.606  37.650   7.064
 3749POPC   C4A48714  27.604  37.664   7.364
 3749POPC   C1B48715  27.628  37.461   6.464
 3749POPC   C2B48716  27.672  37.435   6.764
 3749POPC   C3B48717  27.647  37.455   7.064
 3749POPC   C4B48718  27.629  37.404   7.364
 3750POPC   NC348719  31.425   9.013   5.564
 3750POPC   PO448720  31.468   8.937   5.864
 3750POPC   GL148721  31.447   8.956   6.164
 3750POPC   GL248722  31.420   9.075   6.164
 3750POPC   C1A48723  31.433   9.005   6.464
 3750POPC   D2A48724  31.499   8.976   6.764
 3750POPC   C3A48725  31.481   8.993   7.064
 3750POPC   C4A48726  31.507   8.998   7.364
 3750POPC   C1B48727  31.454   9.195   6.464
 3750POPC   C2B48728  31.431   9.203   6.764
 3750POPC   C3B48729  31.494   9.258   7.064
 3750POPC   C4B48730  31.492   9.257   7.364
 3751POPC   NC348731  15.164  39.992   5.564
 3751POPC   PO448732  15.213  40.004   5.864
 3751POPC   GL148733  15.133  39.989   6.164
 3751POPC   GL248734  15.104  39.977   6.164
 3751POPC   C1A48735  15.193  40.002   6.464
 3751POPC   D2A48736  15.192  40.037   6.764
 3751POPC   C3A48737  15.155  40.033   7.064
 3751POPC   C4A48738  15.229  40.037   7.364
 3751POPC   C1B48739  14.977  39.903   6.464
 3751POPC   C2B48740  14.971  39.914   6.764
 3751POPC   C3B48741  14.973  39.841   7.064
 3751POPC   C4B48742  14.974  39.875   7.364
 3752POPC   NC348743  32.272  29.130   5.564
 3752POPC   PO448744  32.287  29.109   5.864
 3752POPC   GL148745  32.285  29.128   6.164
 3752POPC   GL248746  32.237  29.051   6.164
 3752POPC   C1A48747  32.279  29.108   6.464
 3752POPC   D2A48748  32.252  29.115   6.764
 3752POPC   C3A48749  32.231  29.113   7.064
 3752POPC   C4A48750  32.216  29.173   7.364
 3752POPC   C1B48751  32.158  28.926   6.464
 3752POPC   C2B48752  32.086  28.906   6.764
 3752POPC   C3B48753  32.096  28.928   7.064
 3752POPC   C4B48754  32.176  28.905   7.364
 3753POPC   NC348755   4.295  37.675   5.564
 3753POPC   PO448756   4.301  37.720   5.864
 3753POPC   GL148757   4.303  37.630   6.164
 3753POPC   GL248758   4.218  37.728   6.164
 3753POPC   C1A48759   4.352  37.693   6.464
 3753POPC   D2A48760   4.323  37.642   6.764
 3753POPC   C3A48761   4.322  37.666   7.064
 3753POPC   C4A48762   4.284  37.658   7.364
 3753POPC   C1B48763   4.099  37.697   6.464
 3753POPC   C2B48764   4.045  37.775   6.764
 3753POPC   C3B48765   4.100  37.694   7.064
 3753POPC   C4B48766   4.099  37.691   7.364
 3754POPC   NC348767  28.340  38.498   5.564
 3754POPC   PO448768  28.363  38.421   5.864
 3754POPC   GL148769  28.407  38.458   6.164
 3754POPC   GL248770  28.377  38.348   6.164
 3754POPC   C1A48771  28.368  38.447   6.464
 3754POPC   D2A48772  28.403  38.483   6.764
 3754POPC   C3A48773  28.337  38.431   7.064
 3754POPC   C4A48774  28.415  38.408   7.364
 3754POPC   C1B48775  28.367  38.253   6.464
 3754POPC   C2B48776  28.359  38.237   6.764
 3754POPC   C3B48777  28.299  38.168   7.064
 3754POPC   C4B48778  28.342  38.159   7.364
 3755POPC   NC348779  15.936  34.547   5.564
 3755POPC   PO448780  16.005  34.559   5.864
 3755POPC   GL148781  15.979  34.611   6.164
 3755POPC   GL248782  15.869  34.494   6.164
 3755POPC   C1A48783  15.972  34.569   6.464
 3755POPC   D2A48784  15.922  34.592   6.764
 3755POPC   C3A48785  15.999  34.600   7.064
 3755POPC   C4A48786  15.916  34.568   7.364
 3755POPC   C1B48787  15.836  34.368   6.464
 3755POPC   C2B48788  15.767  34.390   6.764
 3755POPC   C3B48789  15.768  34.399   7.064
 3755POPC   C4B48790  15.763  34.350   7.364
 3756POPC   NC348791   9.018   6.647   5.564
 3756POPC   PO448792   8.982   6.667   5.864
 3756POPC   GL148793   8.941   6.619   6.164
 3756POPC   GL248794   8.975   6.717   6.164
 3756POPC   C1A48795   9.005   6.650   6.464
 3756POPC   D2A48796   8.926   6.626   6.764
 3756POPC   C3A48797   8.925   6.633   7.064
 3756POPC   C4A48798   8.953   6.655   7.364
 3756POPC   C1B48799   8.888   6.925   6.464
 3756POPC   C2B48800   8.957   6.894   6.764
 3756POPC   C3B48801   8.882   6.920   7.064
 3756POPC   C4B48802   8.959   6.902   7.364
 3757POPC   NC348803   8.953  12.045   5.564
 3757POPC   PO448804   8.929  12.026   5.864
 3757POPC   GL148805   8.968  12.069   6.164
 3757POPC   GL248806   9.045  12.201   6.164
 3757POPC   C1A48807   8.964  12.087   6.464
 3757POPC   D2A48808   8.964  12.032   6.764
 3757POPC   C3A48809   8.954  12.092   7.064
 3757POPC   C4A48810   8.983  12.090   7.364
 3757POPC   C1B48811   9.105  12.206   6.464
 3757POPC   C2B48812   9.138  12.260   6.764
 3757POPC   C3B48813   9.183  12.293   7.064
 3757POPC   C4B48814   9.187  12.270   7.364
 3758POPC   NC348815  20.610  29.898   5.564
 3758POPC   PO448816  20.607  29.898   5.864
 3758POPC   GL148817  20.568  29.923   6.164
 3758POPC   GL248818  20.648  29.815   6.164
 3758POPC   C1A48819  20.562  29.914   6.464
 3758POPC   D2A48820  20.592  29.897   6.764
 3758POPC   C3A48821  20.593  29.917   7.064
 3758POPC   C4A48822  20.597  29.933   7.364
 3758POPC   C1B48823  20.692  29.720   6.464
 3758POPC   C2B48824  20.639  29.628   6.764
 3758POPC   C3B48825  20.655  29.703   7.064
 3758POPC   C4B48826  20.653  29.720   7.364
 3759POPC   NC348827  33.033  20.574   5.564
 3759POPC   PO448828  33.029  20.585   5.864
 3759POPC   GL148829  33.033  20.602   6.164
 3759POPC   GL248830  32.891  20.673   6.164
 3759POPC   C1A48831  33.021  20.631   6.464
 3759POPC   D2A48832  32.985  20.636   6.764
 3759POPC   C3A48833  33.068  20.603   7.064
 3759POPC   C4A48834  33.032  20.637   7.364
 3759POPC   C1B48835  32.812  20.637   6.464
 3759POPC   C2B48836  32.776  20.636   6.764
 3759POPC   C3B48837  32.745  20.616   7.064
 3759POPC   C4B48838  32.821  20.686   7.364
 3760POPC   NC348839  44.707   1.239   5.564
 3760POPC   PO448840  44.684   1.198   5.864
 3760POPC   GL148841  44.639   1.185   6.164
 3760POPC   GL248842  44.589   1.316   6.164
 3760POPC   C1A48843  44.670   1.178   6.464
 3760POPC   D2A48844  44.644   1.206   6.764
 3760POPC   C3A48845  44.684   1.193   7.064
 3760POPC   C4A48846  44.655   1.240   7.364
 3760POPC   C1B48847  44.520   1.343   6.464
 3760POPC   C2B48848  44.497   1.374   6.764
 3760POPC   C3B48849  44.519   1.329   7.064
 3760POPC   C4B48850  44.455   1.392   7.364
 3761POPC   NC348851  16.730  13.645   5.564
 3761POPC   PO448852  16.731  13.616   5.864
 3761POPC   GL148853  16.771  13.579   6.164
 3761POPC   GL248854  16.884  13.625   6.164
 3761POPC   C1A48855  16.719  13.606   6.464
 3761POPC   D2A48856  16.722  13.628   6.764
 3761POPC   C3A48857  16.717  13.672   7.064
 3761POPC   C4A48858  16.780  13.660   7.364
 3761POPC   C1B48859  16.918  13.680   6.464
 3761POPC   C2B48860  16.987  13.711   6.764
 3761POPC   C3B48861  16.924  13.694   7.064
 3761POPC   C4B48862  16.977  13.721   7.364
 3762POPC   NC348863  35.378  26.049   5.564
 3762POPC   PO448864  35.311  26.065   5.864
 3762POPC   GL148865  35.392  26.052   6.164
 3762POPC   GL248866  35.485  25.907   6.164
 3762POPC   C1A48867  35.355  26.062   6.464
 3762POPC   D2A48868  35.386  26.039   6.764
 3762POPC   C3A48869  35.336  26.025   7.064
 3762POPC   C4A48870  35.370  26.036   7.364
 3762POPC   C1B48871  35.536  25.856   6.464
 3762POPC   C2B48872  35.525  25.898   6.764
 3762POPC   C3B48873  35.494  25.878   7.064
 3762POPC   C4B48874  35.524  25.852   7.364
 3763POPC   NC348875  37.714  41.579   5.564
 3763POPC   PO448876  37.669  41.533   5.864
 3763POPC   GL148877  37.719  41.598   6.164
 3763POPC   GL248878  37.671  41.671   6.164
 3763POPC   C1A48879  37.660  41.536   6.464
 3763POPC   D2A48880  37.643  41.538   6.764
 3763POPC   C3A48881  37.658  41.554   7.064
 3763POPC   C4A48882  37.679  41.560   7.364
 3763POPC   C1B48883  37.642  41.813   6.464
 3763POPC   C2B48884  37.622  41.803   6.764
 3763POPC   C3B48885  37.694  41.854   7.064
 3763POPC   C4B48886  37.680  41.784   7.364
 3764POPC   NC348887  27.566   3.573   5.564
 3764POPC   PO448888  27.546   3.582   5.864
 3764POPC   GL148889  27.550   3.570   6.164
 3764POPC   GL248890  27.429   3.525   6.164
 3764POPC   C1A48891  27.587   3.570   6.464
 3764POPC   D2A48892  27.605   3.548   6.764
 3764POPC   C3A48893  27.639   3.507   7.064
 3764POPC   C4A48894  27.545   3.529   7.364
 3764POPC   C1B48895  27.359   3.526   6.464
 3764POPC   C2B48896  27.354   3.601   6.764
 3764POPC   C3B48897  27.310   3.603   7.064
 3764POPC   C4B48898  27.372   3.539   7.364
 3765POPC   NC348899  36.092  29.969   5.564
 3765POPC   PO448900  36.142  29.912   5.864
 3765POPC   GL148901  36.174  29.939   6.164
 3765POPC   GL248902  36.205  29.834   6.164
 3765POPC   C1A48903  36.089  29.899   6.464
 3765POPC   D2A48904  36.122  29.879   6.764
 3765POPC   C3A48905  36.136  29.912   7.064
 3765POPC   C4A48906  36.149  29.903   7.364
 3765POPC   C1B48907  36.271  29.708   6.464
 3765POPC   C2B48908  36.268  29.717   6.764
 3765POPC   C3B48909  36.317  29.667   7.064
 3765POPC   C4B48910  36.229  29.727   7.364
 3766POPC   NC348911  37.631  25.227   5.564
 3766POPC   PO448912  37.689  25.243   5.864
 3766POPC   GL148913  37.673  25.221   6.164
 3766POPC   GL248914  37.636  25.111   6.164
 3766POPC   C1A48915  37.654  25.221   6.464
 3766POPC   D2A48916  37.708  25.272   6.764
 3766POPC   C3A48917  37.674  25.271   7.064
 3766POPC   C4A48918  37.682  25.281   7.364
 3766POPC   C1B48919  37.501  25.042   6.464
 3766POPC   C2B48920  37.583  25.052   6.764
 3766POPC   C3B48921  37.572  25.075   7.064
 3766POPC   C4B48922  37.555  25.084   7.364
 3767POPC   NC348923  15.926  40.033   5.564
 3767POPC   PO448924  15.977  40.013   5.864
 3767POPC   GL148925  15.958  39.962   6.164
 3767POPC   GL248926  16.015  39.918   6.164
 3767POPC   C1A48927  15.965  39.999   6.464
 3767POPC   D2A48928  15.965  40.009   6.764
 3767POPC   C3A48929  15.937  40.042   7.064
 3767POPC   C4A48930  15.979  40.034   7.364
 3767POPC   C1B48931  16.123  39.750   6.464
 3767POPC   C2B48932  16.061  39.845   6.764
 3767POPC   C3B48933  16.140  39.791   7.064
 3767POPC   C4B48934  16.086  39.791   7.364
 3768POPC   NC348935  23.668  44.696   5.564
 3768POPC   PO448936  23.725  44.707   5.864
 3768POPC   GL148937  23.683  44.629   6.164
 3768POPC   GL248938  23.697  44.530   6.164
 3768POPC   C1A48939  23.694  44.649   6.464
 3768POPC   D2A48940  23.757  44.622   6.764
 3768POPC   C3A48941  23.664  44.697   7.064
 3768POPC   C4A48942  23.750  44.628   7.364
 3768POPC   C1B48943  23.637  44.413   6.464
 3768POPC   C2B48944  23.600  44.414   6.764
 3768POPC   C3B48945  23.579  44.433   7.064
 3768POPC   C4B48946  23.625  44.398   7.364
 3769POPC   NC348947  33.825  41.533   5.564
 3769POPC   PO448948  33.768  41.528   5.864
 3769POPC   GL148949  33.840  41.521   6.164
 3769POPC   GL248950  33.892  41.538   6.164
 3769POPC   C1A48951  33.836  41.609   6.464
 3769POPC   D2A48952  33.835  41.572   6.764
 3769POPC   C3A48953  33.771  41.588   7.064
 3769POPC   C4A48954  33.803  41.582   7.364
 3769POPC   C1B48955  34.010  41.554   6.464
 3769POPC   C2B48956  34.018  41.581   6.764
 3769POPC   C3B48957  34.059  41.612   7.064
 3769POPC   C4B48958  34.054  41.587   7.364
 3770POPC   NC348959  27.583  35.374   5.564
 3770POPC   PO448960  27.557  35.395   5.864
 3770POPC   GL148961  27.602  35.366   6.164
 3770POPC   GL248962  27.608  35.477   6.164
 3770POPC   C1A48963  27.610  35.309   6.464
 3770POPC   D2A48964  27.545  35.369   6.764
 3770POPC   C3A48965  27.577  35.400   7.064
 3770POPC   C4A48966  27.550  35.331   7.364
 3770POPC   C1B48967  27.631  35.617   6.464
 3770POPC   C2B48968  27.653  35.562   6.764
 3770POPC   C3B48969  27.625  35.563   7.064
 3770POPC   C4B48970  27.676  35.597   7.364
 3771POPC   NC348971  44.628  33.804   5.564
 3771POPC   PO448972  44.657  33.751   5.864
 3771POPC   GL148973  44.631  33.766   6.164
 3771POPC   GL248974  44.509  33.711   6.164
 3771POPC   C1A48975  44.647  33.827   6.464
 3771POPC   D2A48976  44.698  33.786   6.764
 3771POPC   C3A48977  44.663  33.801   7.064
 3771POPC   C4A48978  44.662  33.770   7.364
 3771POPC   C1B48979  44.467  33.656   6.464
 3771POPC   C2B48980  44.471  33.681   6.764
 3771POPC   C3B48981  44.485  33.648   7.064
 3771POPC   C4B48982  44.429  33.658   7.364
 3772POPC   NC348983  42.348  40.743   5.564
 3772POPC   PO448984  42.327  40.769   5.864
 3772POPC   GL148985  42.335  40.785   6.164
 3772POPC   GL248986  42.354  40.861   6.164
 3772POPC   C1A48987  42.318  40.779   6.464
 3772POPC   D2A48988  42.368  40.754   6.764
 3772POPC   C3A48989  42.352  40.796   7.064
 3772POPC   C4A48990  42.307  40.793   7.364
 3772POPC   C1B48991  42.414  41.052   6.464
 3772POPC   C2B48992  42.495  41.012   6.764
 3772POPC   C3B48993  42.404  40.975   7.064
 3772POPC   C4B48994  42.457  41.013   7.364
 3773POPC   NC348995  18.311  20.562   5.564
 3773POPC   PO448996  18.247  20.583   5.864
 3773POPC   GL148997  18.306  20.563   6.164
 3773POPC   GL248998  18.234  20.676   6.164
 3773POPC   C1A48999  18.323  20.625   6.464
 3773POPC   D2A49000  18.282  20.642   6.764
 3773POPC   C3A49001  18.329  20.651   7.064
 3773POPC   C4A49002  18.280  20.585   7.364
 3773POPC   C1B49003  18.153  20.798   6.464
 3773POPC   C2B49004  18.211  20.798   6.764
 3773POPC   C3B49005  18.201  20.878   7.064
 3773POPC   C4B49006  18.149  20.877   7.364
 3774POPC   NC349007  22.200   5.071   5.564
 3774POPC   PO449008  22.167   5.112   5.864
 3774POPC   GL149009  22.151   5.111   6.164
 3774POPC   GL249010  22.033   5.008   6.164
 3774POPC   C1A49011  22.184   5.117   6.464
 3774POPC   D2A49012  22.188   5.134   6.764
 3774POPC   C3A49013  22.118   5.134   7.064
 3774POPC   C4A49014  22.123   5.136   7.364
 3774POPC   C1B49015  21.959   5.044   6.464
 3774POPC   C2B49016  21.909   5.006   6.764
 3774POPC   C3B49017  21.921   5.043   7.064
 3774POPC   C4B49018  21.896   4.986   7.364
 3775POPC   NC349019  22.895   9.749   5.564
 3775POPC   PO449020  22.977   9.779   5.864
 3775POPC   GL149021  22.890   9.741   6.164
 3775POPC   GL249022  22.951   9.869   6.164
 3775POPC   C1A49023  22.947   9.724   6.464
 3775POPC   D2A49024  22.975   9.778   6.764
 3775POPC   C3A49025  22.959   9.765   7.064
 3775POPC   C4A49026  22.946   9.724   7.364
 3775POPC   C1B49027  23.038   9.992   6.464
 3775POPC   C2B49028  23.061   9.942   6.764
 3775POPC   C3B49029  23.000   9.982   7.064
 3775POPC   C4B49030  23.035   9.935   7.364
 3776POPC   NC349031   8.933  16.773   5.564
 3776POPC   PO449032   8.928  16.748   5.864
 3776POPC   GL149033   9.002  16.714   6.164
 3776POPC   GL249034   8.968  16.844   6.164
 3776POPC   C1A49035   8.940  16.691   6.464
 3776POPC   D2A49036   8.928  16.756   6.764
 3776POPC   C3A49037   8.929  16.695   7.064
 3776POPC   C4A49038   8.929  16.684   7.364
 3776POPC   C1B49039   8.878  16.927   6.464
 3776POPC   C2B49040   8.854  16.938   6.764
 3776POPC   C3B49041   8.880  16.913   7.064
 3776POPC   C4B49042   8.893  16.999   7.364
 3777POPC   NC349043  10.559  15.207   5.564
 3777POPC   PO449044  10.488  15.151   5.864
 3777POPC   GL149045  10.508  15.176   6.164
 3777POPC   GL249046  10.421  15.115   6.164
 3777POPC   C1A49047  10.514  15.201   6.464
 3777POPC   D2A49048  10.522  15.182   6.764
 3777POPC   C3A49049  10.496  15.221   7.064
 3777POPC   C4A49050  10.475  15.226   7.364
 3777POPC   C1B49051  10.279  15.062   6.464
 3777POPC   C2B49052  10.312  15.112   6.764
 3777POPC   C3B49053  10.269  15.133   7.064
 3777POPC   C4B49054  10.313  15.116   7.364
 3778POPC   NC349055  41.607  25.229   5.564
 3778POPC   PO449056  41.585  25.249   5.864
 3778POPC   GL149057  41.594  25.252   6.164
 3778POPC   GL249058  41.471  25.145   6.164
 3778POPC   C1A49059  41.552  25.254   6.464
 3778POPC   D2A49060  41.601  25.301   6.764
 3778POPC   C3A49061  41.545  25.241   7.064
 3778POPC   C4A49062  41.538  25.232   7.364
 3778POPC   C1B49063  41.404  25.124   6.464
 3778POPC   C2B49064  41.340  25.150   6.764
 3778POPC   C3B49065  41.352  25.101   7.064
 3778POPC   C4B49066  41.374  25.152   7.364
 3779POPC   NC349067  12.867  17.471   5.564
 3779POPC   PO449068  12.804  17.491   5.864
 3779POPC   GL149069  12.900  17.482   6.164
 3779POPC   GL249070  12.796  17.413   6.164
 3779POPC   C1A49071  12.901  17.538   6.464
 3779POPC   D2A49072  12.833  17.483   6.764
 3779POPC   C3A49073  12.870  17.542   7.064
 3779POPC   C4A49074  12.863  17.487   7.364
 3779POPC   C1B49075  12.679  17.376   6.464
 3779POPC   C2B49076  12.651  17.381   6.764
 3779POPC   C3B49077  12.603  17.319   7.064
 3779POPC   C4B49078  12.696  17.321   7.364
 3780POPC   NC349079  43.152  22.194   5.564
 3780POPC   PO449080  43.135  22.140   5.864
 3780POPC   GL149081  43.083  22.192   6.164
 3780POPC   GL249082  43.278  22.157   6.164
 3780POPC   C1A49083  43.134  22.131   6.464
 3780POPC   D2A49084  43.130  22.203   6.764
 3780POPC   C3A49085  43.137  22.209   7.064
 3780POPC   C4A49086  43.086  22.189   7.364
 3780POPC   C1B49087  43.316  22.133   6.464
 3780POPC   C2B49088  43.361  22.129   6.764
 3780POPC   C3B49089  43.356  22.146   7.064
 3780POPC   C4B49090  43.352  22.181   7.364
 3781POPC   NC349091  34.605  43.093   5.564
 3781POPC   PO449092  34.552  43.112   5.864
 3781POPC   GL149093  34.554  43.153   6.164
 3781POPC   GL249094  34.604  42.953   6.164
 3781POPC   C1A49095  34.622  43.067   6.464
 3781POPC   D2A49096  34.596  43.090   6.764
 3781POPC   C3A49097  34.589  43.127   7.064
 3781POPC   C4A49098  34.541  43.134   7.364
 3781POPC   C1B49099  34.600  42.874   6.464
 3781POPC   C2B49100  34.593  42.867   6.764
 3781POPC   C3B49101  34.573  42.894   7.064
 3781POPC   C4B49102  34.571  42.856   7.364
 3782POPC   NC349103  12.109  36.855   5.564
 3782POPC   PO449104  12.036  36.953   5.864
 3782POPC   GL149105  12.033  36.951   6.164
 3782POPC   GL249106  11.973  37.049   6.164
 3782POPC   C1A49107  12.087  36.924   6.464
 3782POPC   D2A49108  12.063  36.946   6.764
 3782POPC   C3A49109  12.122  36.934   7.064
 3782POPC   C4A49110  12.092  36.951   7.364
 3782POPC   C1B49111  11.891  37.060   6.464
 3782POPC   C2B49112  11.939  37.114   6.764
 3782POPC   C3B49113  11.904  37.084   7.064
 3782POPC   C4B49114  11.892  37.086   7.364
 3783POPC   NC349115   5.917  19.846   5.564
 3783POPC   PO449116   5.873  19.871   5.864
 3783POPC   GL149117   5.914  19.842   6.164
 3783POPC   GL249118   5.984  19.949   6.164
 3783POPC   C1A49119   5.833  19.836   6.464
 3783POPC   D2A49120   5.876  19.805   6.764
 3783POPC   C3A49121   5.903  19.830   7.064
 3783POPC   C4A49122   5.875  19.795   7.364
 3783POPC   C1B49123   6.066  19.949   6.464
 3783POPC   C2B49124   6.063  19.970   6.764
 3783POPC   C3B49125   6.031  20.019   7.064
 3783POPC   C4B49126   6.077  19.963   7.364
 3784POPC   NC349127  10.522  22.905   5.564
 3784POPC   PO449128  10.569  22.897   5.864
 3784POPC   GL149129  10.570  22.988   6.164
 3784POPC   GL249130  10.677  23.041   6.164
 3784POPC   C1A49131  10.565  22.913   6.464
 3784POPC   D2A49132  10.561  22.918   6.764
 3784POPC   C3A49133  10.568  22.980   7.064
 3784POPC   C4A49134  10.521  22.897   7.364
 3784POPC   C1B49135  10.778  23.091   6.464
 3784POPC   C2B49136  10.777  23.117   6.764
 3784POPC   C3B49137  10.739  23.104   7.064
 3784POPC   C4B49138  10.780  23.087   7.364
 3785POPC   NC349139   5.821  43.152   5.564
 3785POPC   PO449140   5.901  43.060   5.864
 3785POPC   GL149141   5.858  43.143   6.164
 3785POPC   GL249142   5.728  43.104   6.164
 3785POPC   C1A49143   5.880  43.088   6.464
 3785POPC   D2A49144   5.833  43.099   6.764
 3785POPC   C3A49145   5.886  43.113   7.064
 3785POPC   C4A49146   5.872  43.076   7.364
 3785POPC   C1B49147   5.641  43.075   6.464
 3785POPC   C2B49148   5.646  43.016   6.764
 3785POPC   C3B49149   5.603  43.025   7.064
 3785POPC   C4B49150   5.620  43.016   7.364
 3786POPC   NC349151   4.367  22.139   5.564
 3786POPC   PO449152   4.302  22.118   5.864
 3786POPC   GL149153   4.320  22.155   6.164
 3786POPC   GL249154   4.377  22.213   6.164
 3786POPC   C1A49155   4.297  22.204   6.464
 3786POPC   D2A49156   4.271  22.125   6.764
 3786POPC   C3A49157   4.347  22.174   7.064
 3786POPC   C4A49158   4.277  22.154   7.364
 3786POPC   C1B49159   4.512  22.310   6.464
 3786POPC   C2B49160   4.430  22.393   6.764
 3786POPC   C3B49161   4.450  22.378   7.064
 3786POPC   C4B49162   4.502  22.351   7.364
 3787POPC   NC349163  29.144  10.566   5.564
 3787POPC   PO449164  29.128  10.547   5.864
 3787POPC   GL149165  29.180  10.536   6.164
 3787POPC   GL249166  29.192  10.613   6.164
 3787POPC   C1A49167  29.127  10.537   6.464
 3787POPC   D2A49168  29.122  10.479   6.764
 3787POPC   C3A49169  29.123  10.536   7.064
 3787POPC   C4A49170  29.176  10.526   7.364
 3787POPC   C1B49171  29.251  10.699   6.464
 3787POPC   C2B49172  29.223  10.784   6.764
 3787POPC   C3B49173  29.316  10.715   7.064
 3787POPC   C4B49174  29.313  10.694   7.364
 3788POPC   NC349175   3.540  22.113   5.564
 3788POPC   PO449176   3.511  22.154   5.864
 3788POPC   GL149177   3.587  22.132   6.164
 3788POPC   GL249178   3.404  22.136   6.164
 3788POPC   C1A49179   3.514  22.167   6.464
 3788POPC   D2A49180   3.580  22.158   6.764
 3788POPC   C3A49181   3.549  22.144   7.064
 3788POPC   C4A49182   3.494  22.116   7.364
 3788POPC   C1B49183   3.314  22.144   6.464
 3788POPC   C2B49184   3.265  22.073   6.764
 3788POPC   C3B49185   3.253  22.098   7.064
 3788POPC   C4B49186   3.294  22.120   7.364
 3789POPC   NC349187  40.757  28.367   5.564
 3789POPC   PO449188  40.754  28.337   5.864
 3789POPC   GL149189  40.791  28.349   6.164
 3789POPC   GL249190  40.728  28.522   6.164
 3789POPC   C1A49191  40.828  28.370   6.464
 3789POPC   D2A49192  40.743  28.401   6.764
 3789POPC   C3A49193  40.754  28.390   7.064
 3789POPC   C4A49194  40.801  28.399   7.364
 3789POPC   C1B49195  40.717  28.597   6.464
 3789POPC   C2B49196  40.719  28.646   6.764
 3789POPC   C3B49197  40.700  28.563   7.064
 3789POPC   C4B49198  40.708  28.637   7.364
 3790POPC   NC349199  13.611  44.670   5.564
 3790POPC   PO449200  13.673  44.655   5.864
 3790POPC   GL149201  13.631  44.703   6.164
 3790POPC   GL249202  13.680  44.531   6.164
 3790POPC   C1A49203  13.648  44.705   6.464
 3790POPC   D2A49204  13.677  44.694   6.764
 3790POPC   C3A49205  13.621  44.635   7.064
 3790POPC   C4A49206  13.675  44.683   7.364
 3790POPC   C1B49207  13.789  44.416   6.464
 3790POPC   C2B49208  13.754  44.478   6.764
 3790POPC   C3B49209  13.744  44.421   7.064
 3790POPC   C4B49210  13.779  44.478   7.364
 3791POPC   NC349211  28.352  23.710   5.564
 3791POPC   PO449212  28.396  23.727   5.864
 3791POPC   GL149213  28.361  23.673   6.164
 3791POPC   GL249214  28.250  23.697   6.164
 3791POPC   C1A49215  28.417  23.742   6.464
 3791POPC   D2A49216  28.321  23.759   6.764
 3791POPC   C3A49217  28.379  23.726   7.064
 3791POPC   C4A49218  28.322  23.739   7.364
 3791POPC   C1B49219  28.108  23.691   6.464
 3791POPC   C2B49220  28.091  23.726   6.764
 3791POPC   C3B49221  28.168  23.698   7.064
 3791POPC   C4B49222  28.096  23.744   7.364
 3792POPC   NC349223  19.053  28.407   5.564
 3792POPC   PO449224  19.065  28.414   5.864
 3792POPC   GL149225  19.083  28.321   6.164
 3792POPC   GL249226  18.984  28.362   6.164
 3792POPC   C1A49227  19.039  28.363   6.464
 3792POPC   D2A49228  19.031  28.377   6.764
 3792POPC   C3A49229  19.085  28.357   7.064
 3792POPC   C4A49230  19.029  28.395   7.364
 3792POPC   C1B49231  18.839  28.473   6.464
 3792POPC   C2B49232  18.833  28.393   6.764
 3792POPC   C3B49233  18.802  28.458   7.064
 3792POPC   C4B49234  18.772  28.468   7.364
 3793POPC   NC349235  36.870  43.910   5.564
 3793POPC   PO449236  36.950  43.929   5.864
 3793POPC   GL149237  36.894  43.842   6.164
 3793POPC   GL249238  37.020  43.908   6.164
 3793POPC   C1A49239  36.892  43.846   6.464
 3793POPC   D2A49240  36.904  43.924   6.764
 3793POPC   C3A49241  36.874  43.893   7.064
 3793POPC   C4A49242  36.878  43.897   7.364
 3793POPC   C1B49243  37.200  43.907   6.464
 3793POPC   C2B49244  37.103  43.869   6.764
 3793POPC   C3B49245  37.173  43.891   7.064
 3793POPC   C4B49246  37.195  43.934   7.364
 3794POPC   NC349247  23.759   5.858   5.564
 3794POPC   PO449248  23.695   5.899   5.864
 3794POPC   GL149249  23.735   5.918   6.164
 3794POPC   GL249250  23.844   6.005   6.164
 3794POPC   C1A49251  23.686   5.877   6.464
 3794POPC   D2A49252  23.712   5.875   6.764
 3794POPC   C3A49253  23.681   5.851   7.064
 3794POPC   C4A49254  23.734   5.895   7.364
 3794POPC   C1B49255  23.883   6.078   6.464
 3794POPC   C2B49256  23.876   6.063   6.764
 3794POPC   C3B49257  23.845   6.086   7.064
 3794POPC   C4B49258  23.922   6.000   7.364
 3795POPC   NC349259   1.238  29.907   5.564
 3795POPC   PO449260   1.224  29.947   5.864
 3795POPC   GL149261   1.237  29.953   6.164
 3795POPC   GL249262   1.247  29.803   6.164
 3795POPC   C1A49263   1.197  29.874   6.464
 3795POPC   D2A49264   1.219  29.926   6.764
 3795POPC   C3A49265   1.189  29.912   7.064
 3795POPC   C4A49266   1.236  29.896   7.364
 3795POPC   C1B49267   1.356  29.739   6.464
 3795POPC   C2B49268   1.371  29.667   6.764
 3795POPC   C3B49269   1.349  29.665   7.064
 3795POPC   C4B49270   1.381  29.659   7.364
 3796POPC   NC349271   0.401  42.350   5.564
 3796POPC   PO449272   0.463  42.288   5.864
 3796POPC   GL149273   0.434  42.292   6.164
 3796POPC   GL249274   0.503  42.286   6.164
 3796POPC   C1A49275   0.436  42.319   6.464
 3796POPC   D2A49276   0.390  42.370   6.764
 3796POPC   C3A49277   0.486  42.303   7.064
 3796POPC   C4A49278   0.390  42.318   7.364
 3796POPC   C1B49279   0.680  42.236   6.464
 3796POPC   C2B49280   0.636  42.234   6.764
 3796POPC   C3B49281   0.625  42.231   7.064
 3796POPC   C4B49282   0.669  42.253   7.364
 3797POPC   NC349283  15.941   5.082   5.564
 3797POPC   PO449284  15.982   5.051   5.864
 3797POPC   GL149285  15.905   5.068   6.164
 3797POPC   GL249286  15.896   5.182   6.164
 3797POPC   C1A49287  15.930   5.082   6.464
 3797POPC   D2A49288  15.914   5.130   6.764
 3797POPC   C3A49289  15.949   5.110   7.064
 3797POPC   C4A49290  15.952   5.094   7.364
 3797POPC   C1B49291  15.778   5.308   6.464
 3797POPC   C2B49292  15.803   5.316   6.764
 3797POPC   C3B49293  15.802   5.330   7.064
 3797POPC   C4B49294  15.789   5.268   7.364
 3798POPC   NC349295  33.067  29.136   5.564
 3798POPC   PO449296  33.005  29.186   5.864
 3798POPC   GL149297  33.013  29.159   6.164
 3798POPC   GL249298  32.886  29.158   6.164
 3798POPC   C1A49299  32.989  29.110   6.464
 3798POPC   D2A49300  33.014  29.105   6.764
 3798POPC   C3A49301  33.025  29.121   7.064
 3798POPC   C4A49302  32.995  29.153   7.364
 3798POPC   C1B49303  32.820  29.092   6.464
 3798POPC   C2B49304  32.792  29.150   6.764
 3798POPC   C3B49305  32.740  29.078   7.064
 3798POPC   C4B49306  32.733  29.121   7.364
 3799POPC   NC349307  15.953  19.094   5.564
 3799POPC   PO449308  15.935  19.043   5.864
 3799POPC   GL149309  15.984  19.064   6.164
 3799POPC   GL249310  15.814  19.130   6.164
 3799POPC   C1A49311  15.911  19.085   6.464
 3799POPC   D2A49312  15.955  19.088   6.764
 3799POPC   C3A49313  15.943  19.100   7.064
 3799POPC   C4A49314  15.951  19.059   7.364
 3799POPC   C1B49315  15.760  19.116   6.464
 3799POPC   C2B49316  15.746  19.143   6.764
 3799POPC   C3B49317  15.760  19.125   7.064
 3799POPC   C4B49318  15.754  19.137   7.364
 3800POPC   NC349319  35.312  28.365   5.564
 3800POPC   PO449320  35.375  28.412   5.864
 3800POPC   GL149321  35.336  28.328   6.164
 3800POPC   GL249322  35.289  28.430   6.164
 3800POPC   C1A49323  35.340  28.386   6.464
 3800POPC   D2A49324  35.308  28.385   6.764
 3800POPC   C3A49325  35.334  28.354   7.064
 3800POPC   C4A49326  35.390  28.378   7.364
 3800POPC   C1B49327  35.190  28.580   6.464
 3800POPC   C2B49328  35.167  28.560   6.764
 3800POPC   C3B49329  35.175  28.544   7.064
 3800POPC   C4B49330  35.134  28.500   7.364
 3801POPC   NC349331  31.460   6.641   5.564
 3801POPC   PO449332  31.461   6.604   5.864
 3801POPC   GL149333  31.508   6.609   6.164
 3801POPC   GL249334  31.452   6.754   6.164
 3801POPC   C1A49335  31.503   6.598   6.464
 3801POPC   D2A49336  31.467   6.609   6.764
 3801POPC   C3A49337  31.485   6.690   7.064
 3801POPC   C4A49338  31.518   6.683   7.364
 3801POPC   C1B49339  31.501   6.922   6.464
 3801POPC   C2B49340  31.495   6.927   6.764
 3801POPC   C3B49341  31.422   6.897   7.064
 3801POPC   C4B49342  31.488   6.914   7.364
 3802POPC   NC349343  32.212  18.308   5.564
 3802POPC   PO449344  32.286  18.286   5.864
 3802POPC   GL149345  32.200  18.248   6.164
 3802POPC   GL249346  32.132  18.342   6.164
 3802POPC   C1A49347  32.270  18.310   6.464
 3802POPC   D2A49348  32.210  18.269   6.764
 3802POPC   C3A49349  32.232  18.276   7.064
 3802POPC   C4A49350  32.211  18.283   7.364
 3802POPC   C1B49351  32.033  18.434   6.464
 3802POPC   C2B49352  32.079  18.395   6.764
 3802POPC   C3B49353  32.044  18.448   7.064
 3802POPC   C4B49354  32.093  18.434   7.364
 3803POPC   NC349355  44.688  13.588   5.564
 3803POPC   PO449356  44.652  13.613   5.864
 3803POPC   GL149357  44.660  13.640   6.164
 3803POPC   GL249358  44.748  13.731   6.164
 3803POPC   C1A49359  44.688  13.580   6.464
 3803POPC   D2A49360  44.664  13.584   6.764
 3803POPC   C3A49361  44.692  13.667   7.064
 3803POPC   C4A49362  44.695  13.591   7.364
 3803POPC   C1B49363  44.886  13.754   6.464
 3803POPC   C2B49364  44.854  13.761   6.764
 3803POPC   C3B49365  44.936  13.750   7.064
 3803POPC   C4B49366  44.881  13.774   7.364
 3804POPC   NC349367  43.871   8.937   5.564
 3804POPC   PO449368  43.908   8.949   5.864
 3804POPC   GL149369  43.838   9.009   6.164
 3804POPC   GL249370  43.937   8.837   6.164
 3804POPC   C1A49371  43.882   9.019   6.464
 3804POPC   D2A49372  43.858   8.924   6.764
 3804POPC   C3A49373  43.856   8.973   7.064
 3804POPC   C4A49374  43.880   8.939   7.364
 3804POPC   C1B49375  44.116   8.766   6.464
 3804POPC   C2B49376  44.065   8.789   6.764
 3804POPC   C3B49377  44.040   8.803   7.064
 3804POPC   C4B49378  44.081   8.800   7.364
 3805POPC   NC349379  31.517  13.667   5.564
 3805POPC   PO449380  31.465  13.663   5.864
 3805POPC   GL149381  31.447  13.649   6.164
 3805POPC   GL249382  31.460  13.497   6.164
 3805POPC   C1A49383  31.473  13.652   6.464
 3805POPC   D2A49384  31.465  13.582   6.764
 3805POPC   C3A49385  31.518  13.580   7.064
 3805POPC   C4A49386  31.462  13.658   7.364
 3805POPC   C1B49387  31.581  13.412   6.464
 3805POPC   C2B49388  31.580  13.367   6.764
 3805POPC   C3B49389  31.533  13.375   7.064
 3805POPC   C4B49390  31.570  13.405   7.364
 3806POPC   NC349391  19.843   1.242   5.564
 3806POPC   PO449392  19.881   1.203   5.864
 3806POPC   GL149393  19.840   1.241   6.164
 3806POPC   GL249394  19.972   1.296   6.164
 3806POPC   C1A49395  19.785   1.194   6.464
 3806POPC   D2A49396  19.864   1.206   6.764
 3806POPC   C3A49397  19.816   1.251   7.064
 3806POPC   C4A49398  19.875   1.216   7.364
 3806POPC   C1B49399  20.019   1.411   6.464
 3806POPC   C2B49400  20.049   1.404   6.764
 3806POPC   C3B49401  19.971   1.345   7.064
 3806POPC   C4B49402  20.013   1.409   7.364
 3807POPC   NC349403  39.278  25.994   5.564
 3807POPC   PO449404  39.195  26.009   5.864
 3807POPC   GL149405  39.276  26.005   6.164
 3807POPC   GL249406  39.159  25.974   6.164
 3807POPC   C1A49407  39.233  26.072   6.464
 3807POPC   D2A49408  39.190  26.066   6.764
 3807POPC   C3A49409  39.212  25.995   7.064
 3807POPC   C4A49410  39.247  26.057   7.364
 3807POPC   C1B49411  39.099  25.867   6.464
 3807POPC   C2B49412  39.136  25.809   6.764
 3807POPC   C3B49413  39.075  25.867   7.064
 3807POPC   C4B49414  39.121  25.794   7.364
 3808POPC   NC349415   1.217   6.660   5.564
 3808POPC   PO449416   1.196   6.662   5.864
 3808POPC   GL149417   1.248   6.679   6.164
 3808POPC   GL249418   1.147   6.619   6.164
 3808POPC   C1A49419   1.234   6.645   6.464
 3808POPC   D2A49420   1.222   6.667   6.764
 3808POPC   C3A49421   1.165   6.659   7.064
 3808POPC   C4A49422   1.196   6.597   7.364
 3808POPC   C1B49423   1.031   6.527   6.464
 3808POPC   C2B49424   0.960   6.532   6.764
 3808POPC   C3B49425   0.986   6.542   7.064
 3808POPC   C4B49426   0.981   6.562   7.364
 3809POPC   NC349427  39.986  41.577   5.564
 3809POPC   PO449428  39.991  41.542   5.864
 3809POPC   GL149429  40.050  41.562   6.164
 3809POPC   GL249430  39.874  41.578   6.164
 3809POPC   C1A49431  40.030  41.590   6.464
 3809POPC   D2A49432  39.988  41.552   6.764
 3809POPC   C3A49433  40.011  41.520   7.064
 3809POPC   C4A49434  40.017  41.511   7.364
 3809POPC   C1B49435  39.757  41.622   6.464
 3809POPC   C2B49436  39.736  41.633   6.764
 3809POPC   C3B49437  39.768  41.639   7.064
 3809POPC   C4B49438  39.805  41.675   7.364
 3810POPC   NC349439  24.482  37.726   5.564
 3810POPC   PO449440  24.469  37.679   5.864
 3810POPC   GL149441  24.492  37.677   6.164
 3810POPC   GL249442  24.615  37.684   6.164
 3810POPC   C1A49443  24.473  37.687   6.464
 3810POPC   D2A49444  24.442  37.705   6.764
 3810POPC   C3A49445  24.518  37.719   7.064
 3810POPC   C4A49446  24.504  37.696   7.364
 3810POPC   C1B49447  24.759  37.783   6.464
 3810POPC   C2B49448  24.708  37.764   6.764
 3810POPC   C3B49449  24.706  37.787   7.064
 3810POPC   C4B49450  24.701  37.770   7.364
 3811POPC   NC349451  10.560  32.231   5.564
 3811POPC   PO449452  10.478  32.231   5.864
 3811POPC   GL149453  10.521  32.232   6.164
 3811POPC   GL249454  10.446  32.335   6.164
 3811POPC   C1A49455  10.545  32.221   6.464
 3811POPC   D2A49456  10.521  32.272   6.764
 3811POPC   C3A49457  10.482  32.268   7.064
 3811POPC   C4A49458  10.490  32.260   7.364
 3811POPC   C1B49459  10.347  32.463   6.464
 3811POPC   C2B49460  10.326  32.389   6.764
 3811POPC   C3B49461  10.347  32.398   7.064
 3811POPC   C4B49462  10.311  32.387   7.364
 3812POPC   NC349463  39.273  43.853   5.564
 3812POPC   PO449464  39.252  43.865   5.864
 3812POPC   GL149465  39.219  43.883   6.164
 3812POPC   GL249466  39.288  43.924   6.164
 3812POPC   C1A49467  39.207  43.913   6.464
 3812POPC   D2A49468  39.218  43.880   6.764
 3812POPC   C3A49469  39.254  43.905   7.064
 3812POPC   C4A49470  39.218  43.881   7.364
 3812POPC   C1B49471  39.426  44.009   6.464
 3812POPC   C2B49472  39.452  44.071   6.764
 3812POPC   C3B49473  39.444  44.052   7.064
 3812POPC   C4B49474  39.416  44.011   7.364
 3813POPC   NC349475  43.067  31.490   5.564
 3813POPC   PO449476  43.074  31.451   5.864
 3813POPC   GL149477  43.078  31.486   6.164
 3813POPC   GL249478  43.013  31.530   6.164
 3813POPC   C1A49479  43.064  31.503   6.464
 3813POPC   D2A49480  43.077  31.490   6.764
 3813POPC   C3A49481  43.142  31.481   7.064
 3813POPC   C4A49482  43.075  31.484   7.364
 3813POPC   C1B49483  42.916  31.569   6.464
 3813POPC   C2B49484  42.840  31.549   6.764
 3813POPC   C3B49485  42.831  31.557   7.064
 3813POPC   C4B49486  42.889  31.478   7.364
 3814POPC   NC349487  17.479   2.802   5.564
 3814POPC   PO449488  17.514   2.788   5.864
 3814POPC   GL149489  17.539   2.781   6.164
 3814POPC   GL249490  17.596   2.890   6.164
 3814POPC   C1A49491  17.498   2.754   6.464
 3814POPC   D2A49492  17.524   2.721   6.764
 3814POPC   C3A49493  17.486   2.773   7.064
 3814POPC   C4A49494  17.465   2.734   7.364
 3814POPC   C1B49495  17.692   2.933   6.464
 3814POPC   C2B49496  17.689   2.956   6.764
 3814POPC   C3B49497  17.658   2.925   7.064
 3814POPC   C4B49498  17.743   2.959   7.364
 3815POPC   NC349499  33.782  37.660   5.564
 3815POPC   PO449500  33.785  37.695   5.864
 3815POPC   GL149501  33.754  37.650   6.164
 3815POPC   GL249502  33.716  37.730   6.164
 3815POPC   C1A49503  33.779  37.645   6.464
 3815POPC   D2A49504  33.818  37.691   6.764
 3815POPC   C3A49505  33.831  37.654   7.064
 3815POPC   C4A49506  33.790  37.724   7.364
 3815POPC   C1B49507  33.546  37.734   6.464
 3815POPC   C2B49508  33.559  37.670   6.764
 3815POPC   C3B49509  33.550  37.693   7.064
 3815POPC   C4B49510  33.580  37.738   7.364
 3816POPC   NC349511  29.884  14.354   5.564
 3816POPC   PO449512  29.876  14.382   5.864
 3816POPC   GL149513  29.960  14.424   6.164
 3816POPC   GL249514  30.066  14.404   6.164
 3816POPC   C1A49515  29.898  14.384   6.464
 3816POPC   D2A49516  29.948  14.444   6.764
 3816POPC   C3A49517  29.898  14.378   7.064
 3816POPC   C4A49518  29.930  14.383   7.364
 3816POPC   C1B49519  30.194  14.483   6.464
 3816POPC   C2B49520  30.181  14.495   6.764
 3816POPC   C3B49521  30.149  14.440   7.064
 3816POPC   C4B49522  30.166  14.468   7.364
 3817POPC   NC349523   1.979  37.674   5.564
 3817POPC   PO449524   1.995  37.658   5.864
 3817POPC   GL149525   1.986  37.693   6.164
 3817POPC   GL249526   2.070  37.533   6.164
 3817POPC   C1A49527   2.012  37.721   6.464
 3817POPC   D2A49528   2.014  37.686   6.764
 3817POPC   C3A49529   1.971  37.726   7.064
 3817POPC   C4A49530   1.999  37.722   7.364
 3817POPC   C1B49531   2.161  37.418   6.464
 3817POPC   C2B49532   2.075  37.512   6.764
 3817POPC   C3B49533   2.120  37.483   7.064
 3817POPC   C4B49534   2.123  37.434   7.364
 3818POPC   NC349535  22.966  11.296   5.564
 3818POPC   PO449536  22.894  11.279   5.864
 3818POPC   GL149537  22.949  11.313   6.164
 3818POPC   GL249538  23.034  11.227   6.164
 3818POPC   C1A49539  22.981  11.344   6.464
 3818POPC   D2A49540  22.898  11.278   6.764
 3818POPC   C3A49541  22.980  11.293   7.064
 3818POPC   C4A49542  22.953  11.278   7.364
 3818POPC   C1B49543  23.120  11.133   6.464
 3818POPC   C2B49544  23.128  11.116   6.764
 3818POPC   C3B49545  23.110  11.129   7.064
 3818POPC   C4B49546  23.077  11.083   7.364
 3819POPC   NC349547   3.530  36.889   5.564
 3819POPC   PO449548   3.500  36.894   5.864
 3819POPC   GL149549   3.534  36.881   6.164
 3819POPC   GL249550   3.582  37.047   6.164
 3819POPC   C1A49551   3.557  36.915   6.464
 3819POPC   D2A49552   3.546  36.891   6.764
 3819POPC   C3A49553   3.513  36.863   7.064
 3819POPC   C4A49554   3.541  36.878   7.364
 3819POPC   C1B49555   3.704  37.063   6.464
 3819POPC   C2B49556   3.649  37.076   6.764
 3819POPC   C3B49557   3.686  37.104   7.064
 3819POPC   C4B49558   3.643  37.144   7.364
 3820POPC   NC349559  41.567  44.621   5.564
 3820POPC   PO449560  41.531  44.672   5.864
 3820POPC   GL149561  41.548  44.689   6.164
 3820POPC   GL249562  41.683  44.522   6.164
 3820POPC   C1A49563  41.542  44.649   6.464
 3820POPC   D2A49564  41.575  44.648   6.764
 3820POPC   C3A49565  41.540  44.640   7.064
 3820POPC   C4A49566  41.587  44.701   7.364
 3820POPC   C1B49567  41.705  44.454   6.464
 3820POPC   C2B49568  41.679  44.474   6.764
 3820POPC   C3B49569  41.694  44.451   7.064
 3820POPC   C4B49570  41.714  44.416   7.364
 3821POPC   NC349571  11.258  26.018   5.564
 3821POPC   PO449572  11.281  26.023   5.864
 3821POPC   GL149573  11.348  26.035   6.164
 3821POPC   GL249574  11.202  25.935   6.164
 3821POPC   C1A49575  11.254  26.080   6.464
 3821POPC   D2A49576  11.280  26.029   6.764
 3821POPC   C3A49577  11.265  26.028   7.064
 3821POPC   C4A49578  11.308  26.035   7.364
 3821POPC   C1B49579  11.068  25.866   6.464
 3821POPC   C2B49580  11.054  25.942   6.764
 3821POPC   C3B49581  11.090  25.925   7.064
 3821POPC   C4B49582  11.135  25.928   7.364
 3822POPC   NC349583  12.839   2.735   5.564
 3822POPC   PO449584  12.884   2.775   5.864
 3822POPC   GL149585  12.892   2.801   6.164
 3822POPC   GL249586  12.823   2.836   6.164
 3822POPC   C1A49587  12.832   2.796   6.464
 3822POPC   D2A49588  12.819   2.738   6.764
 3822POPC   C3A49589  12.862   2.730   7.064
 3822POPC   C4A49590  12.898   2.747   7.364
 3822POPC   C1B49591  12.754   3.027   6.464
 3822POPC   C2B49592  12.802   2.954   6.764
 3822POPC   C3B49593  12.776   3.014   7.064
 3822POPC   C4B49594  12.817   2.967   7.364
 3823POPC   NC349595  12.037  15.917   5.564
 3823POPC   PO449596  12.074  15.939   5.864
 3823POPC   GL149597  12.125  15.914   6.164
 3823POPC   GL249598  12.101  16.099   6.164
 3823POPC   C1A49599  12.114  15.984   6.464
 3823POPC   D2A49600  12.042  15.927   6.764
 3823POPC   C3A49601  12.125  15.994   7.064
 3823POPC   C4A49602  12.079  15.952   7.364
 3823POPC   C1B49603  12.071  16.224   6.464
 3823POPC   C2B49604  12.069  16.222   6.764
 3823POPC   C3B49605  12.001  16.156   7.064
 3823POPC   C4B49606  12.010  16.159   7.364
 3824POPC   NC349607  24.441   7.403   5.564
 3824POPC   PO449608  24.530   7.449   5.864
 3824POPC   GL149609  24.499   7.435   6.164
 3824POPC   GL249610  24.492   7.346   6.164
 3824POPC   C1A49611  24.449   7.457   6.464
 3824POPC   D2A49612  24.458   7.424   6.764
 3824POPC   C3A49613  24.508   7.401   7.064
 3824POPC   C4A49614  24.444   7.461   7.364
 3824POPC   C1B49615  24.481   7.135   6.464
 3824POPC   C2B49616  24.453   7.125   6.764
 3824POPC   C3B49617  24.489   7.150   7.064
 3824POPC   C4B49618  24.415   7.193   7.364
 3825POPC   NC349619  23.682  12.864   5.564
 3825POPC   PO449620  23.727  12.852   5.864
 3825POPC   GL149621  23.747  12.891   6.164
 3825POPC   GL249622  23.697  12.766   6.164
 3825POPC   C1A49623  23.750  12.875   6.464
 3825POPC   D2A49624  23.679  12.847   6.764
 3825POPC   C3A49625  23.679  12.897   7.064
 3825POPC   C4A49626  23.726  12.842   7.364
 3825POPC   C1B49627  23.751  12.599   6.464
 3825POPC   C2B49628  23.774  12.635   6.764
 3825POPC   C3B49629  23.767  12.573   7.064
 3825POPC   C4B49630  23.780  12.584   7.364
 3826POPC   NC349631   0.418  44.685   5.564
 3826POPC   PO449632   0.471  44.674   5.864
 3826POPC   GL149633   0.434  44.702   6.164
 3826POPC   GL249634   0.459  44.754   6.164
 3826POPC   C1A49635   0.473  44.682   6.464
 3826POPC   D2A49636   0.476  44.639   6.764
 3826POPC   C3A49637   0.463  44.694   7.064
 3826POPC   C4A49638   0.425  44.623   7.364
 3826POPC   C1B49639   0.459  44.895   6.464
 3826POPC   C2B49640   0.423  44.931   6.764
 3826POPC   C3B49641   0.409  44.952   7.064
 3826POPC   C4B49642   0.405  44.873   7.364
 3827POPC   NC349643  28.409   2.808   5.564
 3827POPC   PO449644  28.326   2.781   5.864
 3827POPC   GL149645  28.322   2.775   6.164
 3827POPC   GL249646  28.270   2.794   6.164
 3827POPC   C1A49647  28.368   2.758   6.464
 3827POPC   D2A49648  28.407   2.796   6.764
 3827POPC   C3A49649  28.394   2.725   7.064
 3827POPC   C4A49650  28.399   2.771   7.364
 3827POPC   C1B49651  28.188   2.950   6.464
 3827POPC   C2B49652  28.208   2.920   6.764
 3827POPC   C3B49653  28.157   2.856   7.064
 3827POPC   C4B49654  28.198   2.900   7.364
 3828POPC   NC349655  34.614  13.658   5.564
 3828POPC   PO449656  34.599  13.592   5.864
 3828POPC   GL149657  34.626  13.584   6.164
 3828POPC   GL249658  34.718  13.635   6.164
 3828POPC   C1A49659  34.622  13.584   6.464
 3828POPC   D2A49660  34.546  13.585   6.764
 3828POPC   C3A49661  34.572  13.607   7.064
 3828POPC   C4A49662  34.617  13.613   7.364
 3828POPC   C1B49663  34.823  13.556   6.464
 3828POPC   C2B49664  34.775  13.611   6.764
 3828POPC   C3B49665  34.818  13.586   7.064
 3828POPC   C4B49666  34.821  13.565   7.364
 3829POPC   NC349667  14.430  39.226   5.564
 3829POPC   PO449668  14.440  39.268   5.864
 3829POPC   GL149669  14.362  39.187   6.164
 3829POPC   GL249670  14.354  39.063   6.164
 3829POPC   C1A49671  14.406  39.255   6.464
 3829POPC   D2A49672  14.372  39.216   6.764
 3829POPC   C3A49673  14.434  39.219   7.064
 3829POPC   C4A49674  14.382  39.228   7.364
 3829POPC   C1B49675  14.309  38.977   6.464
 3829POPC   C2B49676  14.368  38.961   6.764
 3829POPC   C3B49677  14.357  38.994   7.064
 3829POPC   C4B49678  14.375  39.033   7.364
 3830POPC   NC349679   8.929  43.855   5.564
 3830POPC   PO449680   8.975  43.884   5.864
 3830POPC   GL149681   8.981  43.854   6.164
 3830POPC   GL249682   9.048  43.860   6.164
 3830POPC   C1A49683   8.965  43.930   6.464
 3830POPC   D2A49684   9.005  43.890   6.764
 3830POPC   C3A49685   8.982  43.896   7.064
 3830POPC   C4A49686   8.958  43.902   7.364
 3830POPC   C1B49687   9.181  43.874   6.464
 3830POPC   C2B49688   9.185  43.948   6.764
 3830POPC   C3B49689   9.235  43.941   7.064
 3830POPC   C4B49690   9.203  43.903   7.364
 3831POPC   NC349691   5.110  34.578   5.564
 3831POPC   PO449692   5.081  34.587   5.864
 3831POPC   GL149693   5.086  34.569   6.164
 3831POPC   GL249694   5.078  34.496   6.164
 3831POPC   C1A49695   5.060  34.617   6.464
 3831POPC   D2A49696   5.113  34.618   6.764
 3831POPC   C3A49697   5.076  34.600   7.064
 3831POPC   C4A49698   5.051  34.563   7.364
 3831POPC   C1B49699   5.175  34.355   6.464
 3831POPC   C2B49700   5.180  34.354   6.764
 3831POPC   C3B49701   5.159  34.340   7.064
 3831POPC   C4B49702   5.127  34.373   7.364
 3832POPC   NC349703  25.248  37.691   5.564
 3832POPC   PO449704  25.227  37.680   5.864
 3832POPC   GL149705  25.275  37.634   6.164
 3832POPC   GL249706  25.424  37.692   6.164
 3832POPC   C1A49707  25.269  37.725   6.464
 3832POPC   D2A49708  25.239  37.669   6.764
 3832POPC   C3A49709  25.308  37.648   7.064
 3832POPC   C4A49710  25.308  37.653   7.364
 3832POPC   C1B49711  25.497  37.709   6.464
 3832POPC   C2B49712  25.468  37.674   6.764
 3832POPC   C3B49713  25.516  37.705   7.064
 3832POPC   C4B49714  25.476  37.669   7.364
 3833POPC   NC349715   4.279  29.938   5.564
 3833POPC   PO449716   4.346  29.907   5.864
 3833POPC   GL149717   4.326  29.889   6.164
 3833POPC   GL249718   4.207  29.909   6.164
 3833POPC   C1A49719   4.302  29.967   6.464
 3833POPC   D2A49720   4.323  29.925   6.764
 3833POPC   C3A49721   4.318  29.927   7.064
 3833POPC   C4A49722   4.328  29.951   7.364
 3833POPC   C1B49723   4.058  29.847   6.464
 3833POPC   C2B49724   4.122  29.802   6.764
 3833POPC   C3B49725   4.092  29.876   7.064
 3833POPC   C4B49726   4.065  29.871   7.364
 3834POPC   NC349727  38.489   2.804   5.564
 3834POPC   PO449728  38.408   2.763   5.864
 3834POPC   GL149729  38.426   2.743   6.164
 3834POPC   GL249730  38.547   2.707   6.164
 3834POPC   C1A49731  38.454   2.772   6.464
 3834POPC   D2A49732  38.458   2.792   6.764
 3834POPC   C3A49733  38.426   2.729   7.064
 3834POPC   C4A49734  38.478   2.738   7.364
 3834POPC   C1B49735  38.655   2.614   6.464
 3834POPC   C2B49736  38.623   2.666   6.764
 3834POPC   C3B49737  38.636   2.597   7.064
 3834POPC   C4B49738  38.635   2.659   7.364
 3835POPC   NC349739  22.948   5.105   5.564
 3835POPC   PO449740  22.943   5.115   5.864
 3835POPC   GL149741  22.932   5.070   6.164
 3835POPC   GL249742  22.823   5.030   6.164
 3835POPC   C1A49743  22.923   5.067   6.464
 3835POPC   D2A49744  22.946   5.101   6.764
 3835POPC   C3A49745  22.911   5.080   7.064
 3835POPC   C4A49746  22.935   5.092   7.364
 3835POPC   C1B49747  22.787   4.904   6.464
 3835POPC   C2B49748  22.770   4.899   6.764
 3835POPC   C3B49749  22.772   4.917   7.064
 3835POPC   C4B49750  22.716   4.898   7.364
 3836POPC   NC349751  44.706  19.071   5.564
 3836POPC   PO449752  44.658  19.093   5.864
 3836POPC   GL149753  44.625  19.021   6.164
 3836POPC   GL249754  44.807  19.065   6.164
 3836POPC   C1A49755  44.694  19.061   6.464
 3836POPC   D2A49756  44.617  19.079   6.764
 3836POPC   C3A49757  44.692  19.034   7.064
 3836POPC   C4A49758  44.670  19.076   7.364
 3836POPC   C1B49759  44.915  19.038   6.464
 3836POPC   C2B49760  44.898  18.990   6.764
 3836POPC   C3B49761  44.958  19.050   7.064
 3836POPC   C4B49762  44.920  19.062   7.364
 3837POPC   NC349763  40.779  31.434   5.564
 3837POPC   PO449764  40.738  31.443   5.864
 3837POPC   GL149765  40.748  31.425   6.164
 3837POPC   GL249766  40.831  31.615   6.164
 3837POPC   C1A49767  40.734  31.484   6.464
 3837POPC   D2A49768  40.762  31.506   6.764
 3837POPC   C3A49769  40.819  31.511   7.064
 3837POPC   C4A49770  40.769  31.502   7.364
 3837POPC   C1B49771  40.916  31.708   6.464
 3837POPC   C2B49772  40.892  31.736   6.764
 3837POPC   C3B49773  40.927  31.666   7.064
 3837POPC   C4B49774  40.902  31.693   7.364
 3838POPC   NC349775  25.263  22.136   5.564
 3838POPC   PO449776  25.312  22.122   5.864
 3838POPC   GL149777  25.280  22.175   6.164
 3838POPC   GL249778  25.244  22.085   6.164
 3838POPC   C1A49779  25.226  22.169   6.464
 3838POPC   D2A49780  25.280  22.158   6.764
 3838POPC   C3A49781  25.231  22.195   7.064
 3838POPC   C4A49782  25.217  22.193   7.364
 3838POPC   C1B49783  25.235  21.897   6.464
 3838POPC   C2B49784  25.248  21.944   6.764
 3838POPC   C3B49785  25.173  21.949   7.064
 3838POPC   C4B49786  25.221  21.901   7.364
 3839POPC   NC349787  18.264  15.909   5.564
 3839POPC   PO449788  18.235  15.970   5.864
 3839POPC   GL149789  18.259  15.969   6.164
 3839POPC   GL249790  18.360  15.982   6.164
 3839POPC   C1A49791  18.256  15.963   6.464
 3839POPC   D2A49792  18.317  15.913   6.764
 3839POPC   C3A49793  18.254  15.969   7.064
 3839POPC   C4A49794  18.261  15.952   7.364
 3839POPC   C1B49795  18.531  16.075   6.464
 3839POPC   C2B49796  18.497  16.050   6.764
 3839POPC   C3B49797  18.491  16.057   7.064
 3839POPC   C4B49798  18.501  16.033   7.364
 3840POPC   NC349799  19.878  43.883   5.564
 3840POPC   PO449800  19.877  43.900   5.864
 3840POPC   GL149801  19.802  43.842   6.164
 3840POPC   GL249802  19.827  43.806   6.164
 3840POPC   C1A49803  19.853  43.927   6.464
 3840POPC   D2A49804  19.853  43.865   6.764
 3840POPC   C3A49805  19.789  43.900   7.064
 3840POPC   C4A49806  19.833  43.930   7.364
 3840POPC   C1B49807  19.768  43.644   6.464
 3840POPC   C2B49808  19.733  43.615   6.764
 3840POPC   C3B49809  19.717  43.605   7.064
 3840POPC   C4B49810  19.715  43.625   7.364
 3841POPC   NC349811  38.462  12.817   5.564
 3841POPC   PO449812  38.492  12.871   5.864
 3841POPC   GL149813  38.502  12.839   6.164
 3841POPC   GL249814  38.554  12.974   6.164
 3841POPC   C1A49815  38.503  12.802   6.464
 3841POPC   D2A49816  38.472  12.878   6.764
 3841POPC   C3A49817  38.451  12.823   7.064
 3841POPC   C4A49818  38.485  12.852   7.364
 3841POPC   C1B49819  38.661  13.019   6.464
 3841POPC   C2B49820  38.694  13.015   6.764
 3841POPC   C3B49821  38.689  12.964   7.064
 3841POPC   C4B49822  38.653  13.018   7.364
 3842POPC   NC349823  33.789   5.117   5.564
 3842POPC   PO449824  33.804   5.101   5.864
 3842POPC   GL149825  33.775   5.088   6.164
 3842POPC   GL249826  33.888   4.960   6.164
 3842POPC   C1A49827  33.843   5.055   6.464
 3842POPC   D2A49828  33.765   5.132   6.764
 3842POPC   C3A49829  33.810   5.126   7.064
 3842POPC   C4A49830  33.800   5.128   7.364
 3842POPC   C1B49831  33.881   4.903   6.464
 3842POPC   C2B49832  33.869   4.846   6.764
 3842POPC   C3B49833  33.903   4.834   7.064
 3842POPC   C4B49834  33.864   4.837   7.364
 3843POPC   NC349835  10.557  43.070   5.564
 3843POPC   PO449836  10.530  43.137   5.864
 3843POPC   GL149837  10.492  43.127   6.164
 3843POPC   GL249838  10.406  42.976   6.164
 3843POPC   C1A49839  10.539  43.156   6.464
 3843POPC   D2A49840  10.507  43.158   6.764
 3843POPC   C3A49841  10.524  43.158   7.064
 3843POPC   C4A49842  10.562  43.105   7.364
 3843POPC   C1B49843  10.336  42.929   6.464
 3843POPC   C2B49844  10.373  42.921   6.764
 3843POPC   C3B49845  10.361  42.890   7.064
 3843POPC   C4B49846  10.332  42.939   7.364
 3844POPC   NC349847  19.876  33.796   5.564
 3844POPC   PO449848  19.859  33.846   5.864
 3844POPC   GL149849  19.801  33.781   6.164
 3844POPC   GL249850  19.931  33.740   6.164
 3844POPC   C1A49851  19.836  33.770   6.464
 3844POPC   D2A49852  19.864  33.776   6.764
 3844POPC   C3A49853  19.802  33.775   7.064
 3844POPC   C4A49854  19.854  33.772   7.364
 3844POPC   C1B49855  19.921  33.545   6.464
 3844POPC   C2B49856  19.980  33.631   6.764
 3844POPC   C3B49857  19.992  33.550   7.064
 3844POPC   C4B49858  19.964  33.558   7.364
 3845POPC   NC349859  35.399   5.050   5.564
 3845POPC   PO449860  35.378   5.141   5.864
 3845POPC   GL149861  35.376   5.119   6.164
 3845POPC   GL249862  35.430   5.230   6.164
 3845POPC   C1A49863  35.370   5.117   6.464
 3845POPC   D2A49864  35.313   5.120   6.764
 3845POPC   C3A49865  35.338   5.075   7.064
 3845POPC   C4A49866  35.305   5.108   7.364
 3845POPC   C1B49867  35.501   5.314   6.464
 3845POPC   C2B49868  35.437   5.352   6.764
 3845POPC   C3B49869  35.483   5.307   7.064
 3845POPC   C4B49870  35.491   5.329   7.364
 3846POPC   NC349871   5.128  19.011   5.564
 3846POPC   PO449872   5.103  19.063   5.864
 3846POPC   GL149873   5.126  19.059   6.164
 3846POPC   GL249874   5.179  19.027   6.164
 3846POPC   C1A49875   5.126  19.100   6.464
 3846POPC   D2A49876   5.126  19.097   6.764
 3846POPC   C3A49877   5.087  19.010   7.064
 3846POPC   C4A49878   5.068  19.064   7.364
 3846POPC   C1B49879   5.324  18.916   6.464
 3846POPC   C2B49880   5.293  18.931   6.764
 3846POPC   C3B49881   5.343  18.990   7.064
 3846POPC   C4B49882   5.320  18.995   7.364
 3847POPC   NC349883  33.001  43.855   5.564
 3847POPC   PO449884  32.991  43.886   5.864
 3847POPC   GL149885  32.990  43.867   6.164
 3847POPC   GL249886  33.119  43.907   6.164
 3847POPC   C1A49887  33.070  43.934   6.464
 3847POPC   D2A49888  32.981  43.899   6.764
 3847POPC   C3A49889  33.068  43.885   7.064
 3847POPC   C4A49890  33.020  43.898   7.364
 3847POPC   C1B49891  33.229  43.849   6.464
 3847POPC   C2B49892  33.292  43.894   6.764
 3847POPC   C3B49893  33.262  43.888   7.064
 3847POPC   C4B49894  33.306  43.813   7.364
 3848POPC   NC349895  18.245  33.074   5.564
 3848POPC   PO449896  18.263  33.069   5.864
 3848POPC   GL149897  18.307  33.016   6.164
 3848POPC   GL249898  18.242  33.193   6.164
 3848POPC   C1A49899  18.275  33.073   6.464
 3848POPC   D2A49900  18.270  33.046   6.764
 3848POPC   C3A49901  18.264  32.989   7.064
 3848POPC   C4A49902  18.270  33.039   7.364
 3848POPC   C1B49903  18.279  33.286   6.464
 3848POPC   C2B49904  18.282  33.269   6.764
 3848POPC   C3B49905  18.259  33.312   7.064
 3848POPC   C4B49906  18.265  33.318   7.364
 3849POPC   NC349907  24.486   6.672   5.564
 3849POPC   PO449908  24.537   6.672   5.864
 3849POPC   GL149909  24.461   6.632   6.164
 3849POPC   GL249910  24.616   6.575   6.164
 3849POPC   C1A49911  24.502   6.656   6.464
 3849POPC   D2A49912  24.450   6.634   6.764
 3849POPC   C3A49913  24.505   6.682   7.064
 3849POPC   C4A49914  24.496   6.671   7.364
 3849POPC   C1B49915  24.757   6.522   6.464
 3849POPC   C2B49916  24.711   6.589   6.764
 3849POPC   C3B49917  24.690   6.561   7.064
 3849POPC   C4B49918  24.678   6.601   7.364
 3850POPC   NC349919   9.793  25.300   5.564
 3850POPC   PO449920   9.781  25.237   5.864
 3850POPC   GL149921   9.756  25.219   6.164
 3850POPC   GL249922   9.749  25.124   6.164
 3850POPC   C1A49923   9.774  25.255   6.464
 3850POPC   D2A49924   9.714  25.315   6.764
 3850POPC   C3A49925   9.741  25.287   7.064
 3850POPC   C4A49926   9.783  25.248   7.364
 3850POPC   C1B49927   9.722  25.008   6.464
 3850POPC   C2B49928   9.760  25.001   6.764
 3850POPC   C3B49929   9.730  25.056   7.064
 3850POPC   C4B49930   9.760  25.056   7.364
 3851POPC   NC349931  40.050  11.272   5.564
 3851POPC   PO449932  40.029  11.316   5.864
 3851POPC   GL149933  40.034  11.267   6.164
 3851POPC   GL249934  40.110  11.400   6.164
 3851POPC   C1A49935  40.044  11.285   6.464
 3851POPC   D2A49936  39.986  11.265   6.764
 3851POPC   C3A49937  39.965  11.313   7.064
 3851POPC   C4A49938  40.031  11.272   7.364
 3851POPC   C1B49939  40.228  11.408   6.464
 3851POPC   C2B49940  40.211  11.426   6.764
 3851POPC   C3B49941  40.201  11.419   7.064
 3851POPC   C4B49942  40.227  11.411   7.364
 3852POPC   NC349943  43.067   7.443   5.564
 3852POPC   PO449944  43.139   7.421   5.864
 3852POPC   GL149945  43.098   7.440   6.164
 3852POPC   GL249946  42.993   7.482   6.164
 3852POPC   C1A49947  43.126   7.414   6.464
 3852POPC   D2A49948  43.133   7.422   6.764
 3852POPC   C3A49949  43.066   7.440   7.064
 3852POPC   C4A49950  43.155   7.384   7.364
 3852POPC   C1B49951  42.955   7.619   6.464
 3852POPC   C2B49952  42.944   7.588   6.764
 3852POPC   C3B49953  42.898   7.593   7.064
 3852POPC   C4B49954  42.929   7.541   7.364
 3853POPC   NC349955   2.773  26.845   5.564
 3853POPC   PO449956   2.762  26.784   5.864
 3853POPC   GL149957   2.760  26.830   6.164
 3853POPC   GL249958   2.779  26.669   6.164
 3853POPC   C1A49959   2.803  26.772   6.464
 3853POPC   D2A49960   2.805  26.850   6.764
 3853POPC   C3A49961   2.751  26.804   7.064
 3853POPC   C4A49962   2.764  26.805   7.364
 3853POPC   C1B49963   2.797  26.612   6.464
 3853POPC   C2B49964   2.823  26.608   6.764
 3853POPC   C3B49965   2.857  26.590   7.064
 3853POPC   C4B49966   2.810  26.591   7.364
 3854POPC   NC349967  22.930  41.526   5.564
 3854POPC   PO449968  22.910  41.577   5.864
 3854POPC   GL149969  22.980  41.608   6.164
 3854POPC   GL249970  22.850  41.667   6.164
 3854POPC   C1A49971  22.911  41.586   6.464
 3854POPC   D2A49972  22.916  41.596   6.764
 3854POPC   C3A49973  22.952  41.568   7.064
 3854POPC   C4A49974  22.895  41.607   7.364
 3854POPC   C1B49975  22.737  41.758   6.464
 3854POPC   C2B49976  22.794  41.672   6.764
 3854POPC   C3B49977  22.728  41.736   7.064
 3854POPC   C4B49978  22.699  41.718   7.364
 3855POPC   NC349979   8.223   8.199   5.564
 3855POPC   PO449980   8.191   8.150   5.864
 3855POPC   GL149981   8.192   8.204   6.164
 3855POPC   GL249982   8.197   8.336   6.164
 3855POPC   C1A49983   8.241   8.222   6.464
 3855POPC   D2A49984   8.234   8.176   6.764
 3855POPC   C3A49985   8.241   8.215   7.064
 3855POPC   C4A49986   8.236   8.246   7.364
 3855POPC   C1B49987   8.249   8.462   6.464
 3855POPC   C2B49988   8.307   8.399   6.764
 3855POPC   C3B49989   8.342   8.450   7.064
 3855POPC   C4B49990   8.271   8.400   7.364
 3856POPC   NC349991  21.391   5.897   5.564
 3856POPC   PO449992  21.339   5.917   5.864
 3856POPC   GL149993  21.368   5.911   6.164
 3856POPC   GL249994  21.290   5.839   6.164
 3856POPC   C1A49995  21.369   5.896   6.464
 3856POPC   D2A49996  21.415   5.857   6.764
 3856POPC   C3A49997  21.345   5.872   7.064
 3856POPC   C4A49998  21.361   5.827   7.364
 3856POPC   C1B49999  21.167   5.824   6.464
 3856POPC   C2B50000  21.109   5.760   6.764
 3856POPC   C3B50001  21.171   5.759   7.064
 3856POPC   C4B50002  21.106   5.771   7.364
 3857POPC   NC350003  22.176  24.484   5.564
 3857POPC   PO450004  22.124  24.469   5.864
 3857POPC   GL150005  22.170  24.538   6.164
 3857POPC   GL250006  22.200  24.627   6.164
 3857POPC   C1A50007  22.146  24.465   6.464
 3857POPC   D2A50008  22.134  24.520   6.764
 3857POPC   C3A50009  22.209  24.488   7.064
 3857POPC   C4A50010  22.188  24.497   7.364
 3857POPC   C1B50011  22.336  24.656   6.464
 3857POPC   C2B50012  22.256  24.731   6.764
 3857POPC   C3B50013  22.305  24.727   7.064
 3857POPC   C4B50014  22.281  24.686   7.364
 3858POPC   NC350015   2.009  41.526   5.564
 3858POPC   PO450016   1.956  41.542   5.864
 3858POPC   GL150017   1.975  41.545   6.164
 3858POPC   GL250018   2.155  41.579   6.164
 3858POPC   C1A50019   1.956  41.537   6.464
 3858POPC   D2A50020   1.981  41.529   6.764
 3858POPC   C3A50021   2.012  41.511   7.064
 3858POPC   C4A50022   1.987  41.577   7.364
 3858POPC   C1B50023   2.279  41.638   6.464
 3858POPC   C2B50024   2.191  41.565   6.764
 3858POPC   C3B50025   2.205  41.620   7.064
 3858POPC   C4B50026   2.264  41.622   7.364
 3859POPC   NC350027  29.166  44.688   5.564
 3859POPC   PO450028  29.173  44.680   5.864
 3859POPC   GL150029  29.116  44.646   6.164
 3859POPC   GL250030  29.209  44.757   6.164
 3859POPC   C1A50031  29.123  44.708   6.464
 3859POPC   D2A50032  29.183  44.646   6.764
 3859POPC   C3A50033  29.190  44.651   7.064
 3859POPC   C4A50034  29.098  44.653   7.364
 3859POPC   C1B50035  29.285  44.832   6.464
 3859POPC   C2B50036  29.317  44.857   6.764
 3859POPC   C3B50037  29.264  44.901   7.064
 3859POPC   C4B50038  29.260  44.864   7.364
 3860POPC   NC350039  40.767  39.990   5.564
 3860POPC   PO450040  40.763  39.978   5.864
 3860POPC   GL150041  40.749  39.962   6.164
 3860POPC   GL250042  40.827  39.876   6.164
 3860POPC   C1A50043  40.811  40.009   6.464
 3860POPC   D2A50044  40.795  40.004   6.764
 3860POPC   C3A50045  40.799  39.984   7.064
 3860POPC   C4A50046  40.809  40.046   7.364
 3860POPC   C1B50047  40.857  39.776   6.464
 3860POPC   C2B50048  40.903  39.757   6.764
 3860POPC   C3B50049  40.871  39.733   7.064
 3860POPC   C4B50050  40.902  39.781   7.364
 3861POPC   NC350051  33.064  15.935   5.564
 3861POPC   PO450052  33.021  15.966   5.864
 3861POPC   GL150053  32.979  15.951   6.164
 3861POPC   GL250054  33.042  15.820   6.164
 3861POPC   C1A50055  33.042  15.966   6.464
 3861POPC   D2A50056  33.016  15.970   6.764
 3861POPC   C3A50057  33.049  15.934   7.064
 3861POPC   C4A50058  33.047  15.927   7.364
 3861POPC   C1B50059  33.073  15.690   6.464
 3861POPC   C2B50060  33.082  15.688   6.764
 3861POPC   C3B50061  33.075  15.697   7.064
 3861POPC   C4B50062  33.101  15.736   7.364
 3862POPC   NC350063  12.087   8.212   5.564
 3862POPC   PO450064  12.099   8.228   5.864
 3862POPC   GL150065  12.094   8.237   6.164
 3862POPC   GL250066  12.072   8.330   6.164
 3862POPC   C1A50067  12.053   8.159   6.464
 3862POPC   D2A50068  12.094   8.157   6.764
 3862POPC   C3A50069  12.056   8.162   7.064
 3862POPC   C4A50070  12.106   8.153   7.364
 3862POPC   C1B50071  12.159   8.432   6.464
 3862POPC   C2B50072  12.112   8.418   6.764
 3862POPC   C3B50073  12.179   8.467   7.064
 3862POPC   C4B50074  12.173   8.470   7.364
 3863POPC   NC350075  43.932  18.311   5.564
 3863POPC   PO450076  43.894  18.332   5.864
 3863POPC   GL150077  43.882  18.283   6.164
 3863POPC   GL250078  43.945  18.365   6.164
 3863POPC   C1A50079  43.887  18.277   6.464
 3863POPC   D2A50080  43.866  18.244   6.764
 3863POPC   C3A50081  43.904  18.316   7.064
 3863POPC   C4A50082  43.886  18.266   7.364
 3863POPC   C1B50083  43.920  18.575   6.464
 3863POPC   C2B50084  43.943  18.558   6.764
 3863POPC   C3B50085  43.886  18.573   7.064
 3863POPC   C4B50086  43.886  18.552   7.364
 3864POPC   NC350087  40.791  36.944   5.564
 3864POPC   PO450088  40.815  36.854   5.864
 3864POPC   GL150089  40.779  36.933   6.164
 3864POPC   GL250090  40.696  36.819   6.164
 3864POPC   C1A50091  40.827  36.919   6.464
 3864POPC   D2A50092  40.783  36.872   6.764
 3864POPC   C3A50093  40.783  36.863   7.064
 3864POPC   C4A50094  40.814  36.911   7.364
 3864POPC   C1B50095  40.633  36.672   6.464
 3864POPC   C2B50096  40.589  36.759   6.764
 3864POPC   C3B50097  40.592  36.661   7.064
 3864POPC   C4B50098  40.668  36.759   7.364
 3865POPC   NC350099  22.892  39.183   5.564
 3865POPC   PO450100  22.915  39.243   5.864
 3865POPC   GL150101  22.936  39.192   6.164
 3865POPC   GL250102  22.814  39.112   6.164
 3865POPC   C1A50103  22.925  39.227   6.464
 3865POPC   D2A50104  22.921  39.213   6.764
 3865POPC   C3A50105  22.897  39.265   7.064
 3865POPC   C4A50106  22.894  39.234   7.364
 3865POPC   C1B50107  22.823  39.008   6.464
 3865POPC   C2B50108  22.807  39.029   6.764
 3865POPC   C3B50109  22.733  39.048   7.064
 3865POPC   C4B50110  22.753  39.028   7.364
 3866POPC   NC350111  35.377  31.457   5.564
 3866POPC   PO450112  35.332  31.449   5.864
 3866POPC   GL150113  35.307  31.502   6.164
 3866POPC   GL250114  35.432  31.615   6.164
 3866POPC   C1A50115  35.352  31.484   6.464
 3866POPC   D2A50116  35.353  31.510   6.764
 3866POPC   C3A50117  35.383  31.496   7.064
 3866POPC   C4A50118  35.375  31.446   7.364
 3866POPC   C1B50119  35.443  31.637   6.464
 3866POPC   C2B50120  35.519  31.707   6.764
 3866POPC   C3B50121  35.485  31.646   7.064
 3866POPC   C4B50122  35.518  31.671   7.364
 3867POPC   NC350123  36.131  43.145   5.564
 3867POPC   PO450124  36.121  43.084   5.864
 3867POPC   GL150125  36.082  43.138   6.164
 3867POPC   GL250126  35.985  43.075   6.164
 3867POPC   C1A50127  36.112  43.082   6.464
 3867POPC   D2A50128  36.167  43.100   6.764
 3867POPC   C3A50129  36.122  43.120   7.064
 3867POPC   C4A50130  36.080  43.141   7.364
 3867POPC   C1B50131  35.905  42.910   6.464
 3867POPC   C2B50132  35.893  42.929   6.764
 3867POPC   C3B50133  35.979  42.969   7.064
 3867POPC   C4B50134  35.975  42.898   7.364
 3868POPC   NC350135  24.510  35.388   5.564
 3868POPC   PO450136  24.442  35.393   5.864
 3868POPC   GL150137  24.518  35.344   6.164
 3868POPC   GL250138  24.361  35.314   6.164
 3868POPC   C1A50139  24.510  35.312   6.464
 3868POPC   D2A50140  24.465  35.372   6.764
 3868POPC   C3A50141  24.468  35.340   7.064
 3868POPC   C4A50142  24.506  35.354   7.364
 3868POPC   C1B50143  24.300  35.171   6.464
 3868POPC   C2B50144  24.255  35.247   6.764
 3868POPC   C3B50145  24.326  35.210   7.064
 3868POPC   C4B50146  24.236  35.233   7.364
 3869POPC   NC350147  31.499  29.173   5.564
 3869POPC   PO450148  31.476  29.151   5.864
 3869POPC   GL150149  31.496  29.135   6.164
 3869POPC   GL250150  31.643  29.164   6.164
 3869POPC   C1A50151  31.454  29.145   6.464
 3869POPC   D2A50152  31.438  29.131   6.764
 3869POPC   C3A50153  31.462  29.142   7.064
 3869POPC   C4A50154  31.518  29.130   7.364
 3869POPC   C1B50155  31.670  29.199   6.464
 3869POPC   C2B50156  31.749  29.217   6.764
 3869POPC   C3B50157  31.669  29.163   7.064
 3869POPC   C4B50158  31.733  29.256   7.364
 3870POPC   NC350159  18.248  14.444   5.564
 3870POPC   PO450160  18.315  14.416   5.864
 3870POPC   GL150161  18.262  14.357   6.164
 3870POPC   GL250162  18.211  14.488   6.164
 3870POPC   C1A50163  18.261  14.416   6.464
 3870POPC   D2A50164  18.288  14.421   6.764
 3870POPC   C3A50165  18.289  14.407   7.064
 3870POPC   C4A50166  18.284  14.384   7.364
 3870POPC   C1B50167  18.115  14.660   6.464
 3870POPC   C2B50168  18.203  14.574   6.764
 3870POPC   C3B50169  18.106  14.598   7.064
 3870POPC   C4B50170  18.123  14.593   7.364
 3871POPC   NC350171  19.069  15.970   5.564
 3871POPC   PO450172  19.102  15.924   5.864
 3871POPC   GL150173  19.045  15.941   6.164
 3871POPC   GL250174  18.988  15.801   6.164
 3871POPC   C1A50175  19.036  15.920   6.464
 3871POPC   D2A50176  19.103  15.989   6.764
 3871POPC   C3A50177  19.075  15.992   7.064
 3871POPC   C4A50178  19.077  15.986   7.364
 3871POPC   C1B50179  18.927  15.762   6.464
 3871POPC   C2B50180  18.996  15.716   6.764
 3871POPC   C3B50181  18.937  15.672   7.064
 3871POPC   C4B50182  19.003  15.705   7.364
 3872POPC   NC350183  33.061  39.267   5.564
 3872POPC   PO450184  32.990  39.244   5.864
 3872POPC   GL150185  33.070  39.219   6.164
 3872POPC   GL250186  32.973  39.303   6.164
 3872POPC   C1A50187  32.984  39.256   6.464
 3872POPC   D2A50188  32.975  39.221   6.764
 3872POPC   C3A50189  32.974  39.271   7.064
 3872POPC   C4A50190  33.061  39.231   7.364
 3872POPC   C1B50191  32.818  39.467   6.464
 3872POPC   C2B50192  32.905  39.443   6.764
 3872POPC   C3B50193  32.873  39.452   7.064
 3872POPC   C4B50194  32.875  39.436   7.364
 3873POPC   NC350195  16.720  12.804   5.564
 3873POPC   PO450196  16.775  12.841   5.864
 3873POPC   GL150197  16.709  12.819   6.164
 3873POPC   GL250198  16.850  12.789   6.164
 3873POPC   C1A50199  16.732  12.808   6.464
 3873POPC   D2A50200  16.763  12.856   6.764
 3873POPC   C3A50201  16.751  12.897   7.064
 3873POPC   C4A50202  16.696  12.884   7.364
 3873POPC   C1B50203  16.894  12.752   6.464
 3873POPC   C2B50204  16.950  12.696   6.764
 3873POPC   C3B50205  16.930  12.701   7.064
 3873POPC   C4B50206  16.980  12.669   7.364
 3874POPC   NC350207  25.250  28.383   5.564
 3874POPC   PO450208  25.256  28.330   5.864
 3874POPC   GL150209  25.278  28.357   6.164
 3874POPC   GL250210  25.436  28.326   6.164
 3874POPC   C1A50211  25.233  28.357   6.464
 3874POPC   D2A50212  25.307  28.365   6.764
 3874POPC   C3A50213  25.273  28.399   7.064
 3874POPC   C4A50214  25.271  28.337   7.364
 3874POPC   C1B50215  25.551  28.295   6.464
 3874POPC   C2B50216  25.558  28.333   6.764
 3874POPC   C3B50217  25.549  28.284   7.064
 3874POPC   C4B50218  25.478  28.274   7.364
 3875POPC   NC350219  27.549  19.086   5.564
 3875POPC   PO450220  27.570  19.089   5.864
 3875POPC   GL150221  27.613  19.074   6.164
 3875POPC   GL250222  27.702  19.002   6.164
 3875POPC   C1A50223  27.617  19.072   6.464
 3875POPC   D2A50224  27.617  19.056   6.764
 3875POPC   C3A50225  27.610  19.078   7.064
 3875POPC   C4A50226  27.556  19.061   7.364
 3875POPC   C1B50227  27.853  19.040   6.464
 3875POPC   C2B50228  27.815  19.065   6.764
 3875POPC   C3B50229  27.804  18.977   7.064
 3875POPC   C4B50230  27.877  18.978   7.364
 3876POPC   NC350231   8.207   5.837   5.564
 3876POPC   PO450232   8.194   5.882   5.864
 3876POPC   GL150233   8.190   5.845   6.164
 3876POPC   GL250234   8.170   5.797   6.164
 3876POPC   C1A50235   8.190   5.832   6.464
 3876POPC   D2A50236   8.246   5.839   6.764
 3876POPC   C3A50237   8.189   5.841   7.064
 3876POPC   C4A50238   8.225   5.872   7.364
 3876POPC   C1B50239   8.072   5.607   6.464
 3876POPC   C2B50240   8.093   5.604   6.764
 3876POPC   C3B50241   8.073   5.647   7.064
 3876POPC   C4B50242   8.131   5.584   7.364
 3877POPC   NC350243  10.530  26.828   5.564
 3877POPC   PO450244  10.507  26.849   5.864
 3877POPC   GL150245  10.526  26.787   6.164
 3877POPC   GL250246  10.619  26.939   6.164
 3877POPC   C1A50247  10.498  26.810   6.464
 3877POPC   D2A50248  10.500  26.838   6.764
 3877POPC   C3A50249  10.541  26.810   7.064
 3877POPC   C4A50250  10.541  26.838   7.364
 3877POPC   C1B50251  10.635  26.978   6.464
 3877POPC   C2B50252  10.707  27.013   6.764
 3877POPC   C3B50253  10.681  27.033   7.064
 3877POPC   C4B50254  10.648  26.989   7.364
 3878POPC   NC350255  19.838  11.323   5.564
 3878POPC   PO450256  19.823  11.298   5.864
 3878POPC   GL150257  19.853  11.261   6.164
 3878POPC   GL250258  19.841  11.163   6.164
 3878POPC   C1A50259  19.850  11.344   6.464
 3878POPC   D2A50260  19.806  11.287   6.764
 3878POPC   C3A50261  19.784  11.282   7.064
 3878POPC   C4A50262  19.789  11.287   7.364
 3878POPC   C1B50263  19.883  11.073   6.464
 3878POPC   C2B50264  19.827  11.095   6.764
 3878POPC   C3B50265  19.861  11.088   7.064
 3878POPC   C4B50266  19.850  11.003   7.364
 3879POPC   NC350267  42.356  15.947   5.564
 3879POPC   PO450268  42.288  15.967   5.864
 3879POPC   GL150269  42.352  15.906   6.164
 3879POPC   GL250270  42.270  16.125   6.164
 3879POPC   C1A50271  42.371  15.909   6.464
 3879POPC   D2A50272  42.313  15.950   6.764
 3879POPC   C3A50273  42.354  15.914   7.064
 3879POPC   C4A50274  42.346  15.982   7.364
 3879POPC   C1B50275  42.308  16.231   6.464
 3879POPC   C2B50276  42.296  16.207   6.764
 3879POPC   C3B50277  42.313  16.229   7.064
 3879POPC   C4B50278  42.341  16.230   7.364
 3880POPC   NC350279  13.623   1.209   5.564
 3880POPC   PO450280  13.658   1.176   5.864
 3880POPC   GL150281  13.585   1.187   6.164
 3880POPC   GL250282  13.553   1.106   6.164
 3880POPC   C1A50283  13.590   1.252   6.464
 3880POPC   D2A50284  13.594   1.228   6.764
 3880POPC   C3A50285  13.589   1.194   7.064
 3880POPC   C4A50286  13.626   1.252   7.364
 3880POPC   C1B50287  13.441   1.105   6.464
 3880POPC   C2B50288  13.436   1.076   6.764
 3880POPC   C3B50289  13.405   1.028   7.064
 3880POPC   C4B50290  13.404   1.049   7.364
 3881POPC   NC350291   5.095   2.775   5.564
 3881POPC   PO450292   5.121   2.788   5.864
 3881POPC   GL150293   5.100   2.744   6.164
 3881POPC   GL250294   5.171   2.771   6.164
 3881POPC   C1A50295   5.052   2.756   6.464
 3881POPC   D2A50296   5.100   2.759   6.764
 3881POPC   C3A50297   5.067   2.719   7.064
 3881POPC   C4A50298   5.114   2.746   7.364
 3881POPC   C1B50299   5.310   2.836   6.464
 3881POPC   C2B50300   5.321   2.868   6.764
 3881POPC   C3B50301   5.362   2.816   7.064
 3881POPC   C4B50302   5.364   2.843   7.364
 3882POPC   NC350303  16.746  38.445   5.564
 3882POPC   PO450304  16.724  38.503   5.864
 3882POPC   GL150305  16.727  38.436   6.164
 3882POPC   GL250306  16.854  38.507   6.164
 3882POPC   C1A50307  16.711  38.425   6.464
 3882POPC   D2A50308  16.700  38.447   6.764
 3882POPC   C3A50309  16.690  38.502   7.064
 3882POPC   C4A50310  16.753  38.479   7.364
 3882POPC   C1B50311  16.947  38.483   6.464
 3882POPC   C2B50312  16.934  38.501   6.764
 3882POPC   C3B50313  16.979  38.483   7.064
 3882POPC   C4B50314  17.024  38.444   7.364
 3883POPC   NC350315   9.798  29.892   5.564
 3883POPC   PO450316   9.730  29.942   5.864
 3883POPC   GL150317   9.744  29.962   6.164
 3883POPC   GL250318   9.847  29.930   6.164
 3883POPC   C1A50319   9.718  29.915   6.464
 3883POPC   D2A50320   9.773  29.944   6.764
 3883POPC   C3A50321   9.774  29.939   7.064
 3883POPC   C4A50322   9.738  29.944   7.364
 3883POPC   C1B50323  10.014  29.915   6.464
 3883POPC   C2B50324   9.976  29.903   6.764
 3883POPC   C3B50325   9.995  29.966   7.064
 3883POPC   C4B50326  10.032  29.915   7.364
 3884POPC   NC350327  23.753  15.943   5.564
 3884POPC   PO450328  23.749  15.925   5.864
 3884POPC   GL150329  23.750  15.972   6.164
 3884POPC   GL250330  23.767  16.093   6.164
 3884POPC   C1A50331  23.758  15.971   6.464
 3884POPC   D2A50332  23.667  15.913   6.764
 3884POPC   C3A50333  23.721  15.955   7.064
 3884POPC   C4A50334  23.759  15.937   7.364
 3884POPC   C1B50335  23.821  16.147   6.464
 3884POPC   C2B50336  23.822  16.147   6.764
 3884POPC   C3B50337  23.823  16.180   7.064
 3884POPC   C4B50338  23.766  16.219   7.364
 3885POPC   NC350339  38.431  39.990   5.564
 3885POPC   PO450340  38.472  40.006   5.864
 3885POPC   GL150341  38.444  39.995   6.164
 3885POPC   GL250342  38.597  40.104   6.164
 3885POPC   C1A50343  38.435  40.008   6.464
 3885POPC   D2A50344  38.461  40.018   6.764
 3885POPC   C3A50345  38.440  40.016   7.064
 3885POPC   C4A50346  38.444  40.057   7.364
 3885POPC   C1B50347  38.681  40.137   6.464
 3885POPC   C2B50348  38.649  40.207   6.764
 3885POPC   C3B50349  38.660  40.133   7.064
 3885POPC   C4B50350  38.640  40.178   7.364
 3886POPC   NC350351   6.668  17.512   5.564
 3886POPC   PO450352   6.663  17.537   5.864
 3886POPC   GL150353   6.694  17.491   6.164
 3886POPC   GL250354   6.609  17.406   6.164
 3886POPC   C1A50355   6.636  17.551   6.464
 3886POPC   D2A50356   6.610  17.531   6.764
 3886POPC   C3A50357   6.694  17.470   7.064
 3886POPC   C4A50358   6.633  17.526   7.364
 3886POPC   C1B50359   6.602  17.262   6.464
 3886POPC   C2B50360   6.642  17.290   6.764
 3886POPC   C3B50361   6.615  17.220   7.064
 3886POPC   C4B50362   6.586  17.250   7.364
 3887POPC   NC350363  23.739  24.518   5.564
 3887POPC   PO450364  23.719  24.461   5.864
 3887POPC   GL150365  23.725  24.479   6.164
 3887POPC   GL250366  23.753  24.611   6.164
 3887POPC   C1A50367  23.675  24.525   6.464
 3887POPC   D2A50368  23.752  24.503   6.764
 3887POPC   C3A50369  23.751  24.536   7.064
 3887POPC   C4A50370  23.693  24.506   7.364
 3887POPC   C1B50371  23.670  24.747   6.464
 3887POPC   C2B50372  23.644  24.748   6.764
 3887POPC   C3B50373  23.688  24.735   7.064
 3887POPC   C4B50374  23.651  24.783   7.364
 3888POPC   NC350375  26.003  30.726   5.564
 3888POPC   PO450376  26.059  30.652   5.864
 3888POPC   GL150377  26.080  30.670   6.164
 3888POPC   GL250378  26.139  30.778   6.164
 3888POPC   C1A50379  26.075  30.666   6.464
 3888POPC   D2A50380  26.004  30.727   6.764
 3888POPC   C3A50381  26.045  30.689   7.064
 3888POPC   C4A50382  26.050  30.666   7.364
 3888POPC   C1B50383  26.120  30.912   6.464
 3888POPC   C2B50384  26.141  30.875   6.764
 3888POPC   C3B50385  26.162  30.913   7.064
 3888POPC   C4B50386  26.102  30.949   7.364
 3889POPC   NC350387  23.724  15.146   5.564
 3889POPC   PO450388  23.719  15.206   5.864
 3889POPC   GL150389  23.687  15.154   6.164
 3889POPC   GL250390  23.821  15.110   6.164
 3889POPC   C1A50391  23.678  15.198   6.464
 3889POPC   D2A50392  23.699  15.165   6.764
 3889POPC   C3A50393  23.689  15.178   7.064
 3889POPC   C4A50394  23.760  15.212   7.364
 3889POPC   C1B50395  23.888  15.076   6.464
 3889POPC   C2B50396  23.896  15.010   6.764
 3889POPC   C3B50397  23.975  15.043   7.064
 3889POPC   C4B50398  23.916  15.061   7.364
 3890POPC   NC350399  12.126  12.095   5.564
 3890POPC   PO450400  12.055  12.093   5.864
 3890POPC   GL150401  12.058  12.099   6.164
 3890POPC   GL250402  12.001  12.183   6.164
 3890POPC   C1A50403  12.059  12.057   6.464
 3890POPC   D2A50404  12.035  12.049   6.764
 3890POPC   C3A50405  12.099  12.036   7.064
 3890POPC   C4A50406  12.040  12.073   7.364
 3890POPC   C1B50407  11.868  12.238   6.464
 3890POPC   C2B50408  11.900  12.256   6.764
 3890POPC   C3B50409  11.940  12.243   7.064
 3890POPC   C4B50410  11.847  12.286   7.364
 3891POPC   NC350411  26.840  36.105   5.564
 3891POPC   PO450412  26.798  36.091   5.864
 3891POPC   GL150413  26.771  36.175   6.164
 3891POPC   GL250414  26.869  36.168   6.164
 3891POPC   C1A50415  26.816  36.149   6.464
 3891POPC   D2A50416  26.784  36.116   6.764
 3891POPC   C3A50417  26.846  36.141   7.064
 3891POPC   C4A50418  26.836  36.177   7.364
 3891POPC   C1B50419  27.029  36.267   6.464
 3891POPC   C2B50420  26.991  36.254   6.764
 3891POPC   C3B50421  27.064  36.249   7.064
 3891POPC   C4B50422  26.972  36.320   7.364
 3892POPC   NC350423  14.424   5.078   5.564
 3892POPC   PO450424  14.452   5.105   5.864
 3892POPC   GL150425  14.388   5.069   6.164
 3892POPC   GL250426  14.374   4.979   6.164
 3892POPC   C1A50427  14.423   5.104   6.464
 3892POPC   D2A50428  14.411   5.126   6.764
 3892POPC   C3A50429  14.386   5.106   7.064
 3892POPC   C4A50430  14.409   5.054   7.364
 3892POPC   C1B50431  14.288   4.835   6.464
 3892POPC   C2B50432  14.299   4.817   6.764
 3892POPC   C3B50433  14.358   4.893   7.064
 3892POPC   C4B50434  14.301   4.874   7.364
 3893POPC   NC350435  40.742  33.755   5.564
 3893POPC   PO450436  40.776  33.799   5.864
 3893POPC   GL150437  40.772  33.810   6.164
 3893POPC   GL250438  40.791  33.693   6.164
 3893POPC   C1A50439  40.820  33.767   6.464
 3893POPC   D2A50440  40.796  33.781   6.764
 3893POPC   C3A50441  40.744  33.785   7.064
 3893POPC   C4A50442  40.762  33.779   7.364
 3893POPC   C1B50443  40.859  33.562   6.464
 3893POPC   C2B50444  40.844  33.558   6.764
 3893POPC   C3B50445  40.879  33.592   7.064
 3893POPC   C4B50446  40.789  33.554   7.364
 3894POPC   NC350447  28.398  15.181   5.564
 3894POPC   PO450448  28.341  15.137   5.864
 3894POPC   GL150449  28.359  15.144   6.164
 3894POPC   GL250450  28.521  15.144   6.164
 3894POPC   C1A50451  28.388  15.215   6.464
 3894POPC   D2A50452  28.329  15.132   6.764
 3894POPC   C3A50453  28.378  15.205   7.064
 3894POPC   C4A50454  28.407  15.200   7.364
 3894POPC   C1B50455  28.579  15.102   6.464
 3894POPC   C2B50456  28.633  15.091   6.764
 3894POPC   C3B50457  28.638  15.155   7.064
 3894POPC   C4B50458  28.619  15.077   7.364
 3895POPC   NC350459  14.368  40.045   5.564
 3895POPC   PO450460  14.360  39.969   5.864
 3895POPC   GL150461  14.443  39.987   6.164
 3895POPC   GL250462  14.540  39.923   6.164
 3895POPC   C1A50463  14.386  40.015   6.464
 3895POPC   D2A50464  14.436  40.019   6.764
 3895POPC   C3A50465  14.439  39.965   7.064
 3895POPC   C4A50466  14.429  40.052   7.364
 3895POPC   C1B50467  14.574  39.863   6.464
 3895POPC   C2B50468  14.556  39.791   6.764
 3895POPC   C3B50469  14.603  39.779   7.064
 3895POPC   C4B50470  14.612  39.778   7.364
 3896POPC   NC350471  36.174  14.370   5.564
 3896POPC   PO450472  36.148  14.449   5.864
 3896POPC   GL150473  36.139  14.398   6.164
 3896POPC   GL250474  36.047  14.381   6.164
 3896POPC   C1A50475  36.111  14.414   6.464
 3896POPC   D2A50476  36.087  14.412   6.764
 3896POPC   C3A50477  36.105  14.368   7.064
 3896POPC   C4A50478  36.150  14.419   7.364
 3896POPC   C1B50479  35.898  14.399   6.464
 3896POPC   C2B50480  35.928  14.409   6.764
 3896POPC   C3B50481  35.924  14.451   7.064
 3896POPC   C4B50482  35.889  14.380   7.364
 3897POPC   NC350483  29.957  18.284   5.564
 3897POPC   PO450484  29.884  18.320   5.864
 3897POPC   GL150485  29.919  18.263   6.164
 3897POPC   GL250486  29.835  18.385   6.164
 3897POPC   C1A50487  29.890  18.301   6.464
 3897POPC   D2A50488  29.900  18.279   6.764
 3897POPC   C3A50489  29.924  18.271   7.064
 3897POPC   C4A50490  29.872  18.283   7.364
 3897POPC   C1B50491  29.775  18.537   6.464
 3897POPC   C2B50492  29.813  18.512   6.764
 3897POPC   C3B50493  29.769  18.499   7.064
 3897POPC   C4B50494  29.852  18.473   7.364
 3898POPC   NC350495   3.549  21.367   5.564
 3898POPC   PO450496   3.555  21.375   5.864
 3898POPC   GL150497   3.539  21.370   6.164
 3898POPC   GL250498   3.614  21.486   6.164
 3898POPC   C1A50499   3.540  21.365   6.464
 3898POPC   D2A50500   3.531  21.391   6.764
 3898POPC   C3A50501   3.572  21.412   7.064
 3898POPC   C4A50502   3.585  21.396   7.364
 3898POPC   C1B50503   3.754  21.495   6.464
 3898POPC   C2B50504   3.741  21.461   6.764
 3898POPC   C3B50505   3.790  21.521   7.064
 3898POPC   C4B50506   3.742  21.475   7.364
 3899POPC   NC350507  33.031   0.414   5.564
 3899POPC   PO450508  33.024   0.461   5.864
 3899POPC   GL150509  33.014   0.396   6.164
 3899POPC   GL250510  32.875   0.431   6.164
 3899POPC   C1A50511  33.056   0.471   6.464
 3899POPC   D2A50512  33.009   0.426   6.764
 3899POPC   C3A50513  32.975   0.441   7.064
 3899POPC   C4A50514  32.987   0.484   7.364
 3899POPC   C1B50515  32.810   0.559   6.464
 3899POPC   C2B50516  32.780   0.520   6.764
 3899POPC   C3B50517  32.820   0.544   7.064
 3899POPC   C4B50518  32.798   0.561   7.364
 3900POPC   NC350519  23.691  33.791   5.564
 3900POPC   PO450520  23.751  33.767   5.864
 3900POPC   GL150521  23.758  33.752   6.164
 3900POPC   GL250522  23.783  33.897   6.164
 3900POPC   C1A50523  23.746  33.834   6.464
 3900POPC   D2A50524  23.703  33.795   6.764
 3900POPC   C3A50525  23.724  33.813   7.064
 3900POPC   C4A50526  23.677  33.820   7.364
 3900POPC   C1B50527  23.783  34.042   6.464
 3900POPC   C2B50528  23.809  34.071   6.764
 3900POPC   C3B50529  23.829  34.061   7.064
 3900POPC   C4B50530  23.771  34.059   7.364
 3901POPC   NC350531  31.494   2.752   5.564
 3901POPC   PO450532  31.426   2.752   5.864
 3901POPC   GL150533  31.499   2.717   6.164
 3901POPC   GL250534  31.442   2.683   6.164
 3901POPC   C1A50535  31.445   2.784   6.464
 3901POPC   D2A50536  31.485   2.790   6.764
 3901POPC   C3A50537  31.511   2.810   7.064
 3901POPC   C4A50538  31.513   2.769   7.364
 3901POPC   C1B50539  31.399   2.513   6.464
 3901POPC   C2B50540  31.333   2.487   6.764
 3901POPC   C3B50541  31.409   2.568   7.064
 3901POPC   C4B50542  31.404   2.528   7.364
 3902POPC   NC350543  23.667   4.284   5.564
 3902POPC   PO450544  23.720   4.286   5.864
 3902POPC   GL150545  23.726   4.291   6.164
 3902POPC   GL250546  23.719   4.423   6.164
 3902POPC   C1A50547  23.702   4.325   6.464
 3902POPC   D2A50548  23.696   4.322   6.764
 3902POPC   C3A50549  23.748   4.271   7.064
 3902POPC   C4A50550  23.755   4.302   7.364
 3902POPC   C1B50551  23.762   4.567   6.464
 3902POPC   C2B50552  23.802   4.514   6.764
 3902POPC   C3B50553  23.761   4.595   7.064
 3902POPC   C4B50554  23.810   4.524   7.364
 3903POPC   NC350555  12.029  32.200   5.564
 3903POPC   PO450556  12.098  32.282   5.864
 3903POPC   GL150557  12.091  32.220   6.164
 3903POPC   GL250558  12.016  32.407   6.164
 3903POPC   C1A50559  12.033  32.297   6.464
 3903POPC   D2A50560  12.111  32.202   6.764
 3903POPC   C3A50561  12.079  32.271   7.064
 3903POPC   C4A50562  12.057  32.296   7.364
 3903POPC   C1B50563  11.995  32.538   6.464
 3903POPC   C2B50564  12.023  32.502   6.764
 3903POPC   C3B50565  12.025  32.531   7.064
 3903POPC   C4B50566  12.038  32.506   7.364
 3904POPC   NC350567  26.006  12.120   5.564
 3904POPC   PO450568  26.085  12.047   5.864
 3904POPC   GL150569  26.058  12.122   6.164
 3904POPC   GL250570  26.112  11.984   6.164
 3904POPC   C1A50571  25.993  12.051   6.464
 3904POPC   D2A50572  26.019  12.056   6.764
 3904POPC   C3A50573  26.024  12.123   7.064
 3904POPC   C4A50574  25.993  12.027   7.364
 3904POPC   C1B50575  26.209  11.880   6.464
 3904POPC   C2B50576  26.271  11.931   6.764
 3904POPC   C3B50577  26.179  11.936   7.064
 3904POPC   C4B50578  26.213  11.955   7.364
 3905POPC   NC350579   8.975   5.122   5.564
 3905POPC   PO450580   8.958   5.107   5.864
 3905POPC   GL150581   8.939   5.113   6.164
 3905POPC   GL250582   9.061   5.035   6.164
 3905POPC   C1A50583   8.937   5.084   6.464
 3905POPC   D2A50584   8.969   5.086   6.764
 3905POPC   C3A50585   9.019   5.119   7.064
 3905POPC   C4A50586   8.975   5.089   7.364
 3905POPC   C1B50587   9.104   4.923   6.464
 3905POPC   C2B50588   9.135   4.928   6.764
 3905POPC   C3B50589   9.139   4.889   7.064
 3905POPC   C4B50590   9.091   4.844   7.364
 3906POPC   NC350591  43.928  22.934   5.564
 3906POPC   PO450592  43.897  22.925   5.864
 3906POPC   GL150593  43.866  22.915   6.164
 3906POPC   GL250594  43.976  22.892   6.164
 3906POPC   C1A50595  43.894  22.914   6.464
 3906POPC   D2A50596  43.856  22.902   6.764
 3906POPC   C3A50597  43.883  22.968   7.064
 3906POPC   C4A50598  43.912  22.919   7.364
 3906POPC   C1B50599  44.033  22.778   6.464
 3906POPC   C2B50600  44.053  22.741   6.764
 3906POPC   C3B50601  44.079  22.800   7.064
 3906POPC   C4B50602  44.094  22.776   7.364
 3907POPC   NC350603  26.778  34.567   5.564
 3907POPC   PO450604  26.793  34.546   5.864
 3907POPC   GL150605  26.769  34.600   6.164
 3907POPC   GL250606  26.711  34.440   6.164
 3907POPC   C1A50607  26.867  34.533   6.464
 3907POPC   D2A50608  26.779  34.547   6.764
 3907POPC   C3A50609  26.792  34.541   7.064
 3907POPC   C4A50610  26.804  34.536   7.364
 3907POPC   C1B50611  26.748  34.334   6.464
 3907POPC   C2B50612  26.716  34.333   6.764
 3907POPC   C3B50613  26.653  34.330   7.064
 3907POPC   C4B50614  26.685  34.339   7.364
 3908POPC   NC350615  43.093  36.175   5.564
 3908POPC   PO450616  43.124  36.109   5.864
 3908POPC   GL150617  43.077  36.110   6.164
 3908POPC   GL250618  43.241  36.104   6.164
 3908POPC   C1A50619  43.111  36.168   6.464
 3908POPC   D2A50620  43.124  36.165   6.764
 3908POPC   C3A50621  43.121  36.097   7.064
 3908POPC   C4A50622  43.099  36.139   7.364
 3908POPC   C1B50623  43.393  36.088   6.464
 3908POPC   C2B50624  43.398  36.141   6.764
 3908POPC   C3B50625  43.361  36.106   7.064
 3908POPC   C4B50626  43.378  36.179   7.364
 3909POPC   NC350627  25.232  26.833   5.564
 3909POPC   PO450628  25.251  26.771   5.864
 3909POPC   GL150629  25.279  26.812   6.164
 3909POPC   GL250630  25.357  26.697   6.164
 3909POPC   C1A50631  25.230  26.849   6.464
 3909POPC   D2A50632  25.309  26.817   6.764
 3909POPC   C3A50633  25.225  26.826   7.064
 3909POPC   C4A50634  25.220  26.846   7.364
 3909POPC   C1B50635  25.492  26.663   6.464
 3909POPC   C2B50636  25.506  26.721   6.764
 3909POPC   C3B50637  25.470  26.674   7.064
 3909POPC   C4B50638  25.475  26.635   7.364
 3910POPC   NC350639  10.508  10.553   5.564
 3910POPC   PO450640  10.518  10.532   5.864
 3910POPC   GL150641  10.510  10.519   6.164
 3910POPC   GL250642  10.414  10.617   6.164
 3910POPC   C1A50643  10.526  10.482   6.464
 3910POPC   D2A50644  10.514  10.515   6.764
 3910POPC   C3A50645  10.532  10.494   7.064
 3910POPC   C4A50646  10.570  10.542   7.364
 3910POPC   C1B50647  10.419  10.705   6.464
 3910POPC   C2B50648  10.359  10.773   6.764
 3910POPC   C3B50649  10.388  10.709   7.064
 3910POPC   C4B50650  10.385  10.718   7.364
 3911POPC   NC350651  30.654  32.977   5.564
 3911POPC   PO450652  30.678  33.010   5.864
 3911POPC   GL150653  30.698  32.984   6.164
 3911POPC   GL250654  30.603  32.936   6.164
 3911POPC   C1A50655  30.703  33.062   6.464
 3911POPC   D2A50656  30.719  32.986   6.764
 3911POPC   C3A50657  30.649  32.987   7.064
 3911POPC   C4A50658  30.666  33.067   7.364
 3911POPC   C1B50659  30.508  32.833   6.464
 3911POPC   C2B50660  30.473  32.895   6.764
 3911POPC   C3B50661  30.478  32.884   7.064
 3911POPC   C4B50662  30.527  32.846   7.364
 3912POPC   NC350663  35.363  23.719   5.564
 3912POPC   PO450664  35.378  23.715   5.864
 3912POPC   GL150665  35.380  23.714   6.164
 3912POPC   GL250666  35.352  23.793   6.164
 3912POPC   C1A50667  35.317  23.751   6.464
 3912POPC   D2A50668  35.369  23.673   6.764
 3912POPC   C3A50669  35.314  23.669   7.064
 3912POPC   C4A50670  35.359  23.744   7.364
 3912POPC   C1B50671  35.441  23.924   6.464
 3912POPC   C2B50672  35.423  23.959   6.764
 3912POPC   C3B50673  35.426  23.916   7.064
 3912POPC   C4B50674  35.394  23.944   7.364
 3913POPC   NC350675  31.435  16.780   5.564
 3913POPC   PO450676  31.461  16.738   5.864
 3913POPC   GL150677  31.466  16.739   6.164
 3913POPC   GL250678  31.561  16.674   6.164
 3913POPC   C1A50679  31.433  16.727   6.464
 3913POPC   D2A50680  31.491  16.684   6.764
 3913POPC   C3A50681  31.454  16.720   7.064
 3913POPC   C4A50682  31.446  16.708   7.364
 3913POPC   C1B50683  31.722  16.606   6.464
 3913POPC   C2B50684  31.749  16.611   6.764
 3913POPC   C3B50685  31.729  16.679   7.064
 3913POPC   C4B50686  31.757  16.656   7.364
 3914POPC   NC350687  26.813  43.879   5.564
 3914POPC   PO450688  26.789  43.926   5.864
 3914POPC   GL150689  26.793  43.915   6.164
 3914POPC   GL250690  26.684  43.793   6.164
 3914POPC   C1A50691  26.860  43.912   6.464
 3914POPC   D2A50692  26.849  43.897   6.764
 3914POPC   C3A50693  26.815  43.910   7.064
 3914POPC   C4A50694  26.864  43.894   7.364
 3914POPC   C1B50695  26.601  43.689   6.464
 3914POPC   C2B50696  26.614  43.693   6.764
 3914POPC   C3B50697  26.642  43.748   7.064
 3914POPC   C4B50698  26.663  43.730   7.364
 3915POPC   NC350699  40.796   6.617   5.564
 3915POPC   PO450700  40.771   6.664   5.864
 3915POPC   GL150701  40.796   6.678   6.164
 3915POPC   GL250702  40.772   6.752   6.164
 3915POPC   C1A50703  40.771   6.657   6.464
 3915POPC   D2A50704  40.780   6.648   6.764
 3915POPC   C3A50705  40.784   6.620   7.064
 3915POPC   C4A50706  40.820   6.639   7.364
 3915POPC   C1B50707  40.824   6.895   6.464
 3915POPC   C2B50708  40.829   6.873   6.764
 3915POPC   C3B50709  40.808   6.882   7.064
 3915POPC   C4B50710  40.807   6.843   7.364
 3916POPC   NC350711  17.523  29.151   5.564
 3916POPC   PO450712  17.507  29.098   5.864
 3916POPC   GL150713  17.537  29.150   6.164
 3916POPC   GL250714  17.546  29.008   6.164
 3916POPC   C1A50715  17.509  29.098   6.464
 3916POPC   D2A50716  17.518  29.190   6.764
 3916POPC   C3A50717  17.522  29.168   7.064
 3916POPC   C4A50718  17.464  29.187   7.364
 3916POPC   C1B50719  17.453  28.921   6.464
 3916POPC   C2B50720  17.542  28.855   6.764
 3916POPC   C3B50721  17.464  28.873   7.064
 3916POPC   C4B50722  17.521  28.869   7.364
 3917POPC   NC350723  23.749  25.265   5.564
 3917POPC   PO450724  23.745  25.274   5.864
 3917POPC   GL150725  23.696  25.245   6.164
 3917POPC   GL250726  23.784  25.242   6.164
 3917POPC   C1A50727  23.695  25.291   6.464
 3917POPC   D2A50728  23.703  25.306   6.764
 3917POPC   C3A50729  23.706  25.263   7.064
 3917POPC   C4A50730  23.759  25.236   7.364
 3917POPC   C1B50731  23.951  25.131   6.464
 3917POPC   C2B50732  23.962  25.161   6.764
 3917POPC   C3B50733  23.925  25.148   7.064
 3917POPC   C4B50734  23.960  25.180   7.364
 3918POPC   NC350735   8.227   9.003   5.564
 3918POPC   PO450736   8.168   8.973   5.864
 3918POPC   GL150737   8.236   9.005   6.164
 3918POPC   GL250738   8.066   9.077   6.164
 3918POPC   C1A50739   8.231   8.933   6.464
 3918POPC   D2A50740   8.199   8.941   6.764
 3918POPC   C3A50741   8.178   9.009   7.064
 3918POPC   C4A50742   8.222   8.936   7.364
 3918POPC   C1B50743   7.994   9.075   6.464
 3918POPC   C2B50744   8.003   9.079   6.764
 3918POPC   C3B50745   7.981   9.143   7.064
 3918POPC   C4B50746   7.992   9.114   7.364
 3919POPC   NC350747   5.081  31.479   5.564
 3919POPC   PO450748   5.092  31.514   5.864
 3919POPC   GL150749   5.130  31.476   6.164
 3919POPC   GL250750   5.240  31.534   6.164
 3919POPC   C1A50751   5.101  31.485   6.464
 3919POPC   D2A50752   5.051  31.461   6.764
 3919POPC   C3A50753   5.099  31.497   7.064
 3919POPC   C4A50754   5.089  31.494   7.364
 3919POPC   C1B50755   5.300  31.533   6.464
 3919POPC   C2B50756   5.322  31.538   6.764
 3919POPC   C3B50757   5.383  31.486   7.064
 3919POPC   C4B50758   5.376  31.455   7.364
 3920POPC   NC350759  21.345  43.066   5.564
 3920POPC   PO450760  21.372  43.067   5.864
 3920POPC   GL150761  21.403  43.151   6.164
 3920POPC   GL250762  21.281  43.086   6.164
 3920POPC   C1A50763  21.406  43.083   6.464
 3920POPC   D2A50764  21.381  43.128   6.764
 3920POPC   C3A50765  21.343  43.140   7.064
 3920POPC   C4A50766  21.432  43.090   7.364
 3920POPC   C1B50767  21.133  43.017   6.464
 3920POPC   C2B50768  21.203  43.051   6.764
 3920POPC   C3B50769  21.111  43.054   7.064
 3920POPC   C4B50770  21.184  43.056   7.364
 3921POPC   NC350771  33.782   1.261   5.564
 3921POPC   PO450772  33.797   1.262   5.864
 3921POPC   GL150773  33.774   1.216   6.164
 3921POPC   GL250774  33.788   1.126   6.164
 3921POPC   C1A50775  33.772   1.240   6.464
 3921POPC   D2A50776  33.791   1.172   6.764
 3921POPC   C3A50777  33.779   1.213   7.064
 3921POPC   C4A50778  33.845   1.179   7.364
 3921POPC   C1B50779  33.699   0.980   6.464
 3921POPC   C2B50780  33.668   0.970   6.764
 3921POPC   C3B50781  33.717   0.965   7.064
 3921POPC   C4B50782  33.742   0.992   7.364
 3922POPC   NC350783   9.712   4.278   5.564
 3922POPC   PO450784   9.793   4.342   5.864
 3922POPC   GL150785   9.703   4.307   6.164
 3922POPC   GL250786   9.880   4.258   6.164
 3922POPC   C1A50787   9.761   4.349   6.464
 3922POPC   D2A50788   9.728   4.358   6.764
 3922POPC   C3A50789   9.755   4.304   7.064
 3922POPC   C4A50790   9.726   4.325   7.364
 3922POPC   C1B50791   9.970   4.190   6.464
 3922POPC   C2B50792   9.935   4.234   6.764
 3922POPC   C3B50793   9.972   4.228   7.064
 3922POPC   C4B50794  10.022   4.214   7.364
 3923POPC   NC350795  35.369   5.822   5.564
 3923POPC   PO450796  35.336   5.902   5.864
 3923POPC   GL150797  35.383   5.879   6.164
 3923POPC   GL250798  35.444   5.851   6.164
 3923POPC   C1A50799  35.367   5.905   6.464
 3923POPC   D2A50800  35.387   5.837   6.764
 3923POPC   C3A50801  35.343   5.908   7.064
 3923POPC   C4A50802  35.354   5.862   7.364
 3923POPC   C1B50803  35.620   5.933   6.464
 3923POPC   C2B50804  35.556   5.900   6.764
 3923POPC   C3B50805  35.638   5.920   7.064
 3923POPC   C4B50806  35.644   5.865   7.364
 3924POPC   NC350807  15.229   2.019   5.564
 3924POPC   PO450808  15.158   1.990   5.864
 3924POPC   GL150809  15.211   2.015   6.164
 3924POPC   GL250810  15.086   2.059   6.164
 3924POPC   C1A50811  15.189   2.033   6.464
 3924POPC   D2A50812  15.137   1.965   6.764
 3924POPC   C3A50813  15.144   1.962   7.064
 3924POPC   C4A50814  15.147   1.981   7.364
 3924POPC   C1B50815  15.071   2.180   6.464
 3924POPC   C2B50816  15.081   2.187   6.764
 3924POPC   C3B50817  15.097   2.249   7.064
 3924POPC   C4B50818  15.099   2.229   7.364
 3925POPC   NC350819  37.657  29.881   5.564
 3925POPC   PO450820  37.685  29.896   5.864
 3925POPC   GL150821  37.727  29.899   6.164
 3925POPC   GL250822  37.590  29.819   6.164
 3925POPC   C1A50823  37.702  29.940   6.464
 3925POPC   D2A50824  37.721  29.945   6.764
 3925POPC   C3A50825  37.711  29.889   7.064
 3925POPC   C4A50826  37.724  29.942   7.364
 3925POPC   C1B50827  37.508  29.771   6.464
 3925POPC   C2B50828  37.454  29.759   6.764
 3925POPC   C3B50829  37.452  29.779   7.064
 3925POPC   C4B50830  37.436  29.743   7.364
 3926POPC   NC350831   9.737  12.091   5.564
 3926POPC   PO450832   9.723  12.053   5.864
 3926POPC   GL150833   9.714  12.031   6.164
 3926POPC   GL250834   9.814  12.134   6.164
 3926POPC   C1A50835   9.704  12.115   6.464
 3926POPC   D2A50836   9.746  12.034   6.764
 3926POPC   C3A50837   9.764  12.044   7.064
 3926POPC   C4A50838   9.752  12.099   7.364
 3926POPC   C1B50839   9.965  12.241   6.464
 3926POPC   C2B50840   9.901  12.235   6.764
 3926POPC   C3B50841   9.904  12.254   7.064
 3926POPC   C4B50842   9.981  12.201   7.364
 3927POPC   NC350843   1.962  39.200   5.564
 3927POPC   PO450844   2.036  39.196   5.864
 3927POPC   GL150845   1.976  39.232   6.164
 3927POPC   GL250846   1.885  39.327   6.164
 3927POPC   C1A50847   2.029  39.266   6.464
 3927POPC   D2A50848   2.001  39.256   6.764
 3927POPC   C3A50849   1.996  39.255   7.064
 3927POPC   C4A50850   1.961  39.238   7.364
 3927POPC   C1B50851   1.778  39.384   6.464
 3927POPC   C2B50852   1.800  39.361   6.764
 3927POPC   C3B50853   1.780  39.370   7.064
 3927POPC   C4B50854   1.752  39.337   7.364
 3928POPC   NC350855  34.577  26.862   5.564
 3928POPC   PO450856  34.541  26.771   5.864
 3928POPC   GL150857  34.548  26.817   6.164
 3928POPC   GL250858  34.445  26.935   6.164
 3928POPC   C1A50859  34.573  26.830   6.464
 3928POPC   D2A50860  34.612  26.799   6.764
 3928POPC   C3A50861  34.568  26.803   7.064
 3928POPC   C4A50862  34.527  26.820   7.364
 3928POPC   C1B50863  34.424  27.013   6.464
 3928POPC   C2B50864  34.454  27.054   6.764
 3928POPC   C3B50865  34.430  26.976   7.064
 3928POPC   C4B50866  34.365  27.023   7.364
 3929POPC   NC350867  12.875  11.272   5.564
 3929POPC   PO450868  12.880  11.348   5.864
 3929POPC   GL150869  12.818  11.306   6.164
 3929POPC   GL250870  12.711  11.348   6.164
 3929POPC   C1A50871  12.885  11.298   6.464
 3929POPC   D2A50872  12.831  11.285   6.764
 3929POPC   C3A50873  12.861  11.293   7.064
 3929POPC   C4A50874  12.828  11.326   7.364
 3929POPC   C1B50875  12.636  11.307   6.464
 3929POPC   C2B50876  12.558  11.308   6.764
 3929POPC   C3B50877  12.618  11.375   7.064
 3929POPC   C4B50878  12.563  11.295   7.364
 3930POPC   NC350879  42.371  26.054   5.564
 3930POPC   PO450880  42.343  26.015   5.864
 3930POPC   GL150881  42.323  26.005   6.164
 3930POPC   GL250882  42.217  26.012   6.164
 3930POPC   C1A50883  42.287  26.053   6.464
 3930POPC   D2A50884  42.319  26.014   6.764
 3930POPC   C3A50885  42.366  26.045   7.064
 3930POPC   C4A50886  42.328  25.998   7.364
 3930POPC   C1B50887  42.123  26.038   6.464
 3930POPC   C2B50888  42.049  26.041   6.764
 3930POPC   C3B50889  42.058  26.036   7.064
 3930POPC   C4B50890  42.116  26.099   7.364
 3931POPC   NC350891  13.601  21.369   5.564
 3931POPC   PO450892  13.590  21.409   5.864
 3931POPC   GL150893  13.580  21.379   6.164
 3931POPC   GL250894  13.614  21.273   6.164
 3931POPC   C1A50895  13.665  21.410   6.464
 3931POPC   D2A50896  13.584  21.365   6.764
 3931POPC   C3A50897  13.598  21.432   7.064
 3931POPC   C4A50898  13.617  21.360   7.364
 3931POPC   C1B50899  13.708  21.172   6.464
 3931POPC   C2B50900  13.692  21.182   6.764
 3931POPC   C3B50901  13.713  21.138   7.064
 3931POPC   C4B50902  13.670  21.136   7.364
 3932POPC   NC350903  10.547  36.881   5.564
 3932POPC   PO450904  10.507  36.856   5.864
 3932POPC   GL150905  10.563  36.877   6.164
 3932POPC   GL250906  10.601  36.784   6.164
 3932POPC   C1A50907  10.566  36.889   6.464
 3932POPC   D2A50908  10.531  36.855   6.764
 3932POPC   C3A50909  10.531  36.883   7.064
 3932POPC   C4A50910  10.522  36.868   7.364
 3932POPC   C1B50911  10.620  36.651   6.464
 3932POPC   C2B50912  10.718  36.748   6.764
 3932POPC   C3B50913  10.648  36.700   7.064
 3932POPC   C4B50914  10.696  36.689   7.364
 3933POPC   NC350915   8.982   4.331   5.564
 3933POPC   PO450916   8.954   4.321   5.864
 3933POPC   GL150917   9.009   4.300   6.164
 3933POPC   GL250918   9.062   4.325   6.164
 3933POPC   C1A50919   8.960   4.343   6.464
 3933POPC   D2A50920   8.940   4.308   6.764
 3933POPC   C3A50921   8.937   4.352   7.064
 3933POPC   C4A50922   8.986   4.299   7.364
 3933POPC   C1B50923   9.227   4.374   6.464
 3933POPC   C2B50924   9.152   4.448   6.764
 3933POPC   C3B50925   9.247   4.464   7.064
 3933POPC   C4B50926   9.157   4.413   7.364
 3934POPC   NC350927  28.361   0.435   5.564
 3934POPC   PO450928  28.326   0.413   5.864
 3934POPC   GL150929  28.396   0.450   6.164
 3934POPC   GL250930  28.209   0.388   6.164
 3934POPC   C1A50931  28.416   0.389   6.464
 3934POPC   D2A50932  28.353   0.426   6.764
 3934POPC   C3A50933  28.391   0.444   7.064
 3934POPC   C4A50934  28.415   0.431   7.364
 3934POPC   C1B50935  28.080   0.376   6.464
 3934POPC   C2B50936  28.117   0.439   6.764
 3934POPC   C3B50937  28.126   0.420   7.064
 3934POPC   C4B50938  28.106   0.449   7.364
 3935POPC   NC350939  38.484  13.584   5.564
 3935POPC   PO450940  38.473  13.616   5.864
 3935POPC   GL150941  38.414  13.646   6.164
 3935POPC   GL250942  38.532  13.485   6.164
 3935POPC   C1A50943  38.452  13.659   6.464
 3935POPC   D2A50944  38.486  13.611   6.764
 3935POPC   C3A50945  38.414  13.592   7.064
 3935POPC   C4A50946  38.462  13.584   7.364
 3935POPC   C1B50947  38.605  13.409   6.464
 3935POPC   C2B50948  38.538  13.416   6.764
 3935POPC   C3B50949  38.606  13.395   7.064
 3935POPC   C4B50950  38.553  13.447   7.364
 3936POPC   NC350951  40.025   5.049   5.564
 3936POPC   PO450952  40.049   5.115   5.864
 3936POPC   GL150953  40.034   5.110   6.164
 3936POPC   GL250954  40.140   5.067   6.164
 3936POPC   C1A50955  39.987   5.101   6.464
 3936POPC   D2A50956  40.047   5.125   6.764
 3936POPC   C3A50957  39.985   5.079   7.064
 3936POPC   C4A50958  39.984   5.138   7.364
 3936POPC   C1B50959  40.211   5.029   6.464
 3936POPC   C2B50960  40.216   5.032   6.764
 3936POPC   C3B50961  40.234   5.029   7.064
 3936POPC   C4B50962  40.254   5.036   7.364
 3937POPC   NC350963  21.430  23.733   5.564
 3937POPC   PO450964  21.357  23.746   5.864
 3937POPC   GL150965  21.395  23.679   6.164
 3937POPC   GL250966  21.518  23.703   6.164
 3937POPC   C1A50967  21.354  23.712   6.464
 3937POPC   D2A50968  21.351  23.697   6.764
 3937POPC   C3A50969  21.401  23.756   7.064
 3937POPC   C4A50970  21.346  23.699   7.364
 3937POPC   C1B50971  21.669  23.642   6.464
 3937POPC   C2B50972  21.664  23.621   6.764
 3937POPC   C3B50973  21.663  23.704   7.064
 3937POPC   C4B50974  21.601  23.683   7.364
 3938POPC   NC350975  12.096  39.275   5.564
 3938POPC   PO450976  12.081  39.225   5.864
 3938POPC   GL150977  12.078  39.272   6.164
 3938POPC   GL250978  12.214  39.197   6.164
 3938POPC   C1A50979  12.046  39.182   6.464
 3938POPC   D2A50980  12.108  39.200   6.764
 3938POPC   C3A50981  12.044  39.269   7.064
 3938POPC   C4A50982  12.125  39.274   7.364
 3938POPC   C1B50983  12.287  39.058   6.464
 3938POPC   C2B50984  12.328  39.102   6.764
 3938POPC   C3B50985  12.280  39.117   7.064
 3938POPC   C4B50986  12.267  39.106   7.364
 3939POPC   NC350987  38.440  11.333   5.564
 3939POPC   PO450988  38.485  11.283   5.864
 3939POPC   GL150989  38.492  11.305   6.164
 3939POPC   GL250990  38.449  11.456   6.164
 3939POPC   C1A50991  38.442  11.340   6.464
 3939POPC   D2A50992  38.451  11.341   6.764
 3939POPC   C3A50993  38.502  11.308   7.064
 3939POPC   C4A50994  38.460  11.327   7.364
 3939POPC   C1B50995  38.418  11.524   6.464
 3939POPC   C2B50996  38.398  11.524   6.764
 3939POPC   C3B50997  38.430  11.568   7.064
 3939POPC   C4B50998  38.434  11.597   7.364
 3940POPC   NC350999  43.091  40.048   5.564
 3940POPC   PO451000  43.082  40.009   5.864
 3940POPC   GL151001  43.149  39.974   6.164
 3940POPC   GL251002  43.121  39.863   6.164
 3940POPC   C1A51003  43.157  39.997   6.464
 3940POPC   D2A51004  43.132  40.038   6.764
 3940POPC   C3A51005  43.113  40.004   7.064
 3940POPC   C4A51006  43.151  40.008   7.364
 3940POPC   C1B51007  43.103  39.712   6.464
 3940POPC   C2B51008  43.083  39.754   6.764
 3940POPC   C3B51009  43.104  39.794   7.064
 3940POPC   C4B51010  43.101  39.754   7.364
 3941POPC   NC351011  16.741   8.193   5.564
 3941POPC   PO451012  16.695   8.244   5.864
 3941POPC   GL151013  16.755   8.163   6.164
 3941POPC   GL251014  16.764   8.284   6.164
 3941POPC   C1A51015  16.689   8.152   6.464
 3941POPC   D2A51016  16.687   8.178   6.764
 3941POPC   C3A51017  16.744   8.211   7.064
 3941POPC   C4A51018  16.773   8.236   7.364
 3941POPC   C1B51019  16.810   8.422   6.464
 3941POPC   C2B51020  16.784   8.446   6.764
 3941POPC   C3B51021  16.839   8.449   7.064
 3941POPC   C4B51022  16.837   8.417   7.364
 3942POPC   NC351023   5.842  36.163   5.564
 3942POPC   PO451024   5.904  36.086   5.864
 3942POPC   GL151025   5.833  36.140   6.164
 3942POPC   GL251026   5.840  36.267   6.164
 3942POPC   C1A51027   5.900  36.154   6.464
 3942POPC   D2A51028   5.904  36.131   6.764
 3942POPC   C3A51029   5.843  36.100   7.064
 3942POPC   C4A51030   5.867  36.165   7.364
 3942POPC   C1B51031   5.855  36.367   6.464
 3942POPC   C2B51032   5.899  36.365   6.764
 3942POPC   C3B51033   5.887  36.340   7.064
 3942POPC   C4B51034   5.875  36.327   7.364
 3943POPC   NC351035  28.337  33.034   5.564
 3943POPC   PO451036  28.330  33.063   5.864
 3943POPC   GL151037  28.378  32.993   6.164
 3943POPC   GL251038  28.287  32.968   6.164
 3943POPC   C1A51039  28.340  33.015   6.464
 3943POPC   D2A51040  28.339  33.029   6.764
 3943POPC   C3A51041  28.343  33.023   7.064
 3943POPC   C4A51042  28.365  32.983   7.364
 3943POPC   C1B51043  28.138  32.912   6.464
 3943POPC   C2B51044  28.156  32.884   6.764
 3943POPC   C3B51045  28.207  32.900   7.064
 3943POPC   C4B51046  28.164  32.935   7.364
 3944POPC   NC351047  25.236  36.943   5.564
 3944POPC   PO451048  25.221  36.859   5.864
 3944POPC   GL151049  25.249  36.915   6.164
 3944POPC   GL251050  25.424  36.903   6.164
 3944POPC   C1A51051  25.303  36.951   6.464
 3944POPC   D2A51052  25.315  36.889   6.764
 3944POPC   C3A51053  25.273  36.878   7.064
 3944POPC   C4A51054  25.315  36.938   7.364
 3944POPC   C1B51055  25.514  36.905   6.464
 3944POPC   C2B51056  25.479  36.876   6.764
 3944POPC   C3B51057  25.559  36.896   7.064
 3944POPC   C4B51058  25.472  36.884   7.364
 3945POPC   NC351059   2.038   8.154   5.564
 3945POPC   PO451060   1.974   8.177   5.864
 3945POPC   GL151061   1.945   8.239   6.164
 3945POPC   GL251062   1.898   8.064   6.164
 3945POPC   C1A51063   2.010   8.191   6.464
 3945POPC   D2A51064   1.968   8.183   6.764
 3945POPC   C3A51065   1.955   8.170   7.064
 3945POPC   C4A51066   1.998   8.190   7.364
 3945POPC   C1B51067   1.873   7.988   6.464
 3945POPC   C2B51068   1.857   7.951   6.764
 3945POPC   C3B51069   1.901   7.981   7.064
 3945POPC   C4B51070   1.864   7.945   7.364
 3946POPC   NC351071   4.289  32.264   5.564
 3946POPC   PO451072   4.341  32.283   5.864
 3946POPC   GL151073   4.359  32.238   6.164
 3946POPC   GL251074   4.272  32.140   6.164
 3946POPC   C1A51075   4.344  32.266   6.464
 3946POPC   D2A51076   4.312  32.224   6.764
 3946POPC   C3A51077   4.271  32.258   7.064
 3946POPC   C4A51078   4.301  32.222   7.364
 3946POPC   C1B51079   4.265  31.982   6.464
 3946POPC   C2B51080   4.261  32.041   6.764
 3946POPC   C3B51081   4.219  32.051   7.064
 3946POPC   C4B51082   4.249  32.030   7.364
 3947POPC   NC351083  39.257  37.642   5.564
 3947POPC   PO451084  39.222  37.655   5.864
 3947POPC   GL151085  39.224  37.671   6.164
 3947POPC   GL251086  39.178  37.843   6.164
 3947POPC   C1A51087  39.240  37.634   6.464
 3947POPC   D2A51088  39.276  37.671   6.764
 3947POPC   C3A51089  39.232  37.668   7.064
 3947POPC   C4A51090  39.222  37.651   7.364
 3947POPC   C1B51091  39.252  37.885   6.464
 3947POPC   C2B51092  39.216  37.926   6.764
 3947POPC   C3B51093  39.270  37.934   7.064
 3947POPC   C4B51094  39.245  37.905   7.364
 3948POPC   NC351095   2.038  40.762   5.564
 3948POPC   PO451096   1.949  40.804   5.864
 3948POPC   GL151097   1.981  40.752   6.164
 3948POPC   GL251098   1.875  40.679   6.164
 3948POPC   C1A51099   1.964  40.749   6.464
 3948POPC   D2A51100   1.991  40.788   6.764
 3948POPC   C3A51101   1.968  40.824   7.064
 3948POPC   C4A51102   2.010  40.801   7.364
 3948POPC   C1B51103   1.836  40.574   6.464
 3948POPC   C2B51104   1.861  40.631   6.764
 3948POPC   C3B51105   1.870  40.580   7.064
 3948POPC   C4B51106   1.838  40.553   7.364
 3949POPC   NC351107   0.413  19.790   5.564
 3949POPC   PO451108   0.470  19.815   5.864
 3949POPC   GL151109   0.404  19.789   6.164
 3949POPC   GL251110   0.354  19.713   6.164
 3949POPC   C1A51111   0.395  19.863   6.464
 3949POPC   D2A51112   0.441  19.810   6.764
 3949POPC   C3A51113   0.422  19.811   7.064
 3949POPC   C4A51114   0.482  19.795   7.364
 3949POPC   C1B51115   0.263  19.673   6.464
 3949POPC   C2B51116   0.259  19.647   6.764
 3949POPC   C3B51117   0.269  19.677   7.064
 3949POPC   C4B51118   0.279  19.674   7.364
 3950POPC   NC351119  35.328   4.327   5.564
 3950POPC   PO451120  35.327   4.335   5.864
 3950POPC   GL151121  35.333   4.289   6.164
 3950POPC   GL251122  35.262   4.385   6.164
 3950POPC   C1A51123  35.368   4.304   6.464
 3950POPC   D2A51124  35.399   4.323   6.764
 3950POPC   C3A51125  35.317   4.269   7.064
 3950POPC   C4A51126  35.386   4.286   7.364
 3950POPC   C1B51127  35.185   4.538   6.464
 3950POPC   C2B51128  35.153   4.543   6.764
 3950POPC   C3B51129  35.235   4.465   7.064
 3950POPC   C4B51130  35.230   4.467   7.364
 3951POPC   NC351131  12.810  44.621   5.564
 3951POPC   PO451132  12.844  44.698   5.864
 3951POPC   GL151133  12.804  44.664   6.164
 3951POPC   GL251134  12.789  44.556   6.164
 3951POPC   C1A51135  12.880  44.668   6.464
 3951POPC   D2A51136  12.898  44.617   6.764
 3951POPC   C3A51137  12.822  44.708   7.064
 3951POPC   C4A51138  12.816  44.671   7.364
 3951POPC   C1B51139  12.779  44.435   6.464
 3951POPC   C2B51140  12.787  44.407   6.764
 3951POPC   C3B51141  12.772  44.397   7.064
 3951POPC   C4B51142  12.713  44.416   7.364
 3952POPC   NC351143   1.209  37.631   5.564
 3952POPC   PO451144   1.192  37.645   5.864
 3952POPC   GL151145   1.210  37.652   6.164
 3952POPC   GL251146   1.047  37.662   6.164
 3952POPC   C1A51147   1.262  37.677   6.464
 3952POPC   D2A51148   1.193  37.673   6.764
 3952POPC   C3A51149   1.225  37.690   7.064
 3952POPC   C4A51150   1.169  37.682   7.364
 3952POPC   C1B51151   0.946  37.589   6.464
 3952POPC   C2B51152   0.986  37.574   6.764
 3952POPC   C3B51153   1.006  37.602   7.064
 3952POPC   C4B51154   0.948  37.571   7.364
 3953POPC   NC351155   0.388  19.090   5.564
 3953POPC   PO451156   0.408  19.020   5.864
 3953POPC   GL151157   0.395  19.098   6.164
 3953POPC   GL251158   0.521  18.973   6.164
 3953POPC   C1A51159   0.403  19.068   6.464
 3953POPC   D2A51160   0.449  19.022   6.764
 3953POPC   C3A51161   0.402  19.063   7.064
 3953POPC   C4A51162   0.391  19.105   7.364
 3953POPC   C1B51163   0.493  18.787   6.464
 3953POPC   C2B51164   0.544  18.813   6.764
 3953POPC   C3B51165   0.487  18.829   7.064
 3953POPC   C4B51166   0.481  18.785   7.364
 3954POPC   NC351167  23.711   9.698   5.564
 3954POPC   PO451168  23.689   9.743   5.864
 3954POPC   GL151169  23.669   9.725   6.164
 3954POPC   GL251170  23.737   9.579   6.164
 3954POPC   C1A51171  23.714   9.739   6.464
 3954POPC   D2A51172  23.744   9.762   6.764
 3954POPC   C3A51173  23.697   9.731   7.064
 3954POPC   C4A51174  23.727   9.728   7.364
 3954POPC   C1B51175  23.688   9.536   6.464
 3954POPC   C2B51176  23.702   9.485   6.764
 3954POPC   C3B51177  23.626   9.505   7.064
 3954POPC   C4B51178  23.692   9.454   7.364
 3955POPC   NC351179  16.001  33.783   5.564
 3955POPC   PO451180  15.962  33.814   5.864
 3955POPC   GL151181  15.940  33.811   6.164
 3955POPC   GL251182  16.088  33.865   6.164
 3955POPC   C1A51183  15.912  33.845   6.464
 3955POPC   D2A51184  15.949  33.831   6.764
 3955POPC   C3A51185  15.920  33.766   7.064
 3955POPC   C4A51186  15.972  33.793   7.364
 3955POPC   C1B51187  16.201  33.805   6.464
 3955POPC   C2B51188  16.230  33.803   6.764
 3955POPC   C3B51189  16.193  33.820   7.064
 3955POPC   C4B51190  16.200  33.869   7.364
 3956POPC   NC351191  33.009  22.903   5.564
 3956POPC   PO451192  33.010  22.899   5.864
 3956POPC   GL151193  33.039  22.924   6.164
 3956POPC   GL251194  32.895  22.806   6.164
 3956POPC   C1A51195  33.000  22.893   6.464
 3956POPC   D2A51196  32.986  22.976   6.764
 3956POPC   C3A51197  33.063  22.897   7.064
 3956POPC   C4A51198  33.069  22.961   7.364
 3956POPC   C1B51199  32.844  22.737   6.464
 3956POPC   C2B51200  32.867  22.795   6.764
 3956POPC   C3B51201  32.800  22.749   7.064
 3956POPC   C4B51202  32.887  22.819   7.364
 3957POPC   NC351203  25.244  19.018   5.564
 3957POPC   PO451204  25.259  19.084   5.864
 3957POPC   GL151205  25.264  19.086   6.164
 3957POPC   GL251206  25.267  18.968   6.164
 3957POPC   C1A51207  25.315  19.095   6.464
 3957POPC   D2A51208  25.314  19.016   6.764
 3957POPC   C3A51209  25.285  19.096   7.064
 3957POPC   C4A51210  25.251  19.050   7.364
 3957POPC   C1B51211  25.316  18.822   6.464
 3957POPC   C2B51212  25.267  18.803   6.764
 3957POPC   C3B51213  25.279  18.846   7.064
 3957POPC   C4B51214  25.271  18.813   7.364
 3958POPC   NC351215  20.613   3.563   5.564
 3958POPC   PO451216  20.568   3.493   5.864
 3958POPC   GL151217  20.605   3.537   6.164
 3958POPC   GL251218  20.639   3.634   6.164
 3958POPC   C1A51219  20.629   3.505   6.464
 3958POPC   D2A51220  20.617   3.552   6.764
 3958POPC   C3A51221  20.644   3.515   7.064
 3958POPC   C4A51222  20.592   3.571   7.364
 3958POPC   C1B51223  20.689   3.738   6.464
 3958POPC   C2B51224  20.712   3.751   6.764
 3958POPC   C3B51225  20.709   3.795   7.064
 3958POPC   C4B51226  20.758   3.729   7.364
 3959POPC   NC351227   1.184  26.075   5.564
 3959POPC   PO451228   1.226  26.038   5.864
 3959POPC   GL151229   1.169  26.027   6.164
 3959POPC   GL251230   1.180  25.904   6.164
 3959POPC   C1A51231   1.191  26.049   6.464
 3959POPC   D2A51232   1.212  26.001   6.764
 3959POPC   C3A51233   1.193  26.084   7.064
 3959POPC   C4A51234   1.174  26.085   7.364
 3959POPC   C1B51235   1.033  25.821   6.464
 3959POPC   C2B51236   1.097  25.811   6.764
 3959POPC   C3B51237   1.045  25.862   7.064
 3959POPC   C4B51238   1.027  25.874   7.364
 3960POPC   NC351239  39.190  13.653   5.564
 3960POPC   PO451240  39.203  13.676   5.864
 3960POPC   GL151241  39.190  13.596   6.164
 3960POPC   GL251242  39.102  13.493   6.164
 3960POPC   C1A51243  39.199  13.658   6.464
 3960POPC   D2A51244  39.201  13.634   6.764
 3960POPC   C3A51245  39.279  13.667   7.064
 3960POPC   C4A51246  39.192  13.671   7.364
 3960POPC   C1B51247  39.062  13.480   6.464
 3960POPC   C2B51248  39.036  13.428   6.764
 3960POPC   C3B51249  39.066  13.432   7.064
 3960POPC   C4B51250  39.069  13.431   7.364
 3961POPC   NC351251  26.819  13.641   5.564
 3961POPC   PO451252  26.841  13.597   5.864
 3961POPC   GL151253  26.859  13.593   6.164
 3961POPC   GL251254  26.925  13.662   6.164
 3961POPC   C1A51255  26.806  13.636   6.464
 3961POPC   D2A51256  26.817  13.655   6.764
 3961POPC   C3A51257  26.806  13.634   7.064
 3961POPC   C4A51258  26.824  13.661   7.364
 3961POPC   C1B51259  27.017  13.726   6.464
 3961POPC   C2B51260  27.067  13.694   6.764
 3961POPC   C3B51261  27.009  13.697   7.064
 3961POPC   C4B51262  27.027  13.743   7.364
 3962POPC   NC351263   9.710  43.853   5.564
 3962POPC   PO451264   9.750  43.858   5.864
 3962POPC   GL151265   9.792  43.919   6.164
 3962POPC   GL251266   9.881  43.911   6.164
 3962POPC   C1A51267   9.744  43.860   6.464
 3962POPC   D2A51268   9.762  43.928   6.764
 3962POPC   C3A51269   9.776  43.846   7.064
 3962POPC   C4A51270   9.778  43.883   7.364
 3962POPC   C1B51271   9.949  43.907   6.464
 3962POPC   C2B51272   9.990  43.907   6.764
 3962POPC   C3B51273  10.027  43.908   7.064
 3962POPC   C4B51274  10.027  43.927   7.364
 3963POPC   NC351275   1.962   5.830   5.564
 3963POPC   PO451276   1.980   5.841   5.864
 3963POPC   GL151277   2.038   5.906   6.164
 3963POPC   GL251278   2.039   5.745   6.164
 3963POPC   C1A51279   1.969   5.918   6.464
 3963POPC   D2A51280   1.983   5.866   6.764
 3963POPC   C3A51281   1.974   5.891   7.064
 3963POPC   C4A51282   2.009   5.833   7.364
 3963POPC   C1B51283   2.146   5.652   6.464
 3963POPC   C2B51284   2.082   5.600   6.764
 3963POPC   C3B51285   2.150   5.624   7.064
 3963POPC   C4B51286   2.126   5.609   7.364
 3964POPC   NC351287   4.280  39.231   5.564
 3964POPC   PO451288   4.302  39.230   5.864
 3964POPC   GL151289   4.344  39.210   6.164
 3964POPC   GL251290   4.164  39.292   6.164
 3964POPC   C1A51291   4.339  39.267   6.464
 3964POPC   D2A51292   4.313  39.256   6.764
 3964POPC   C3A51293   4.329  39.217   7.064
 3964POPC   C4A51294   4.342  39.227   7.364
 3964POPC   C1B51295   4.137  39.322   6.464
 3964POPC   C2B51296   4.084  39.335   6.764
 3964POPC   C3B51297   4.118  39.298   7.064
 3964POPC   C4B51298   4.071  39.371   7.364
 3965POPC   NC351299  26.012   1.225   5.564
 3965POPC   PO451300  26.015   1.177   5.864
 3965POPC   GL151301  26.004   1.241   6.164
 3965POPC   GL251302  26.111   1.343   6.164
 3965POPC   C1A51303  26.066   1.264   6.464
 3965POPC   D2A51304  26.004   1.175   6.764
 3965POPC   C3A51305  26.072   1.176   7.064
 3965POPC   C4A51306  26.071   1.230   7.364
 3965POPC   C1B51307  26.201   1.424   6.464
 3965POPC   C2B51308  26.154   1.419   6.764
 3965POPC   C3B51309  26.197   1.372   7.064
 3965POPC   C4B51310  26.164   1.368   7.364
 3966POPC   NC351311  40.799   5.902   5.564
 3966POPC   PO451312  40.792   5.903   5.864
 3966POPC   GL151313  40.744   5.905   6.164
 3966POPC   GL251314  40.878   5.945   6.164
 3966POPC   C1A51315  40.774   5.913   6.464
 3966POPC   D2A51316  40.817   5.852   6.764
 3966POPC   C3A51317  40.775   5.876   7.064
 3966POPC   C4A51318  40.800   5.904   7.364
 3966POPC   C1B51319  40.991   5.903   6.464
 3966POPC   C2B51320  41.051   5.939   6.764
 3966POPC   C3B51321  40.993   5.922   7.064
 3966POPC   C4B51322  41.060   5.948   7.364
 3967POPC   NC351323   3.559   1.171   5.564
 3967POPC   PO451324   3.510   1.233   5.864
 3967POPC   GL151325   3.550   1.232   6.164
 3967POPC   GL251326   3.623   1.091   6.164
 3967POPC   C1A51327   3.572   1.192   6.464
 3967POPC   D2A51328   3.569   1.184   6.764
 3967POPC   C3A51329   3.552   1.168   7.064
 3967POPC   C4A51330   3.558   1.208   7.364
 3967POPC   C1B51331   3.711   1.027   6.464
 3967POPC   C2B51332   3.733   0.998   6.764
 3967POPC   C3B51333   3.702   0.986   7.064
 3967POPC   C4B51334   3.739   1.013   7.364
 3968POPC   NC351335   5.880  36.929   5.564
 3968POPC   PO451336   5.894  36.894   5.864
 3968POPC   GL151337   5.863  36.903   6.164
 3968POPC   GL251338   5.838  37.026   6.164
 3968POPC   C1A51339   5.883  36.907   6.464
 3968POPC   D2A51340   5.842  36.941   6.764
 3968POPC   C3A51341   5.849  36.879   7.064
 3968POPC   C4A51342   5.862  36.941   7.364
 3968POPC   C1B51343   5.889  37.142   6.464
 3968POPC   C2B51344   5.858  37.157   6.764
 3968POPC   C3B51345   5.855  37.130   7.064
 3968POPC   C4B51346   5.901  37.134   7.364
 3969POPC   NC351347  10.504  18.296   5.564
 3969POPC   PO451348  10.522  18.238   5.864
 3969POPC   GL151349  10.517  18.332   6.164
 3969POPC   GL251350  10.435  18.237   6.164
 3969POPC   C1A51351  10.500  18.323   6.464
 3969POPC   D2A51352  10.565  18.293   6.764
 3969POPC   C3A51353  10.564  18.294   7.064
 3969POPC   C4A51354  10.484  18.245   7.364
 3969POPC   C1B51355  10.334  18.138   6.464
 3969POPC   C2B51356  10.295  18.221   6.764
 3969POPC   C3B51357  10.309  18.151   7.064
 3969POPC   C4B51358  10.334  18.131   7.364
 3970POPC   NC351359   9.742  22.144   5.564
 3970POPC   PO451360   9.786  22.125   5.864
 3970POPC   GL151361   9.779  22.128   6.164
 3970POPC   GL251362   9.663  22.070   6.164
 3970POPC   C1A51363   9.703  22.180   6.464
 3970POPC   D2A51364   9.732  22.162   6.764
 3970POPC   C3A51365   9.745  22.173   7.064
 3970POPC   C4A51366   9.797  22.198   7.364
 3970POPC   C1B51367   9.577  21.929   6.464
 3970POPC   C2B51368   9.572  21.936   6.764
 3970POPC   C3B51369   9.599  22.007   7.064
 3970POPC   C4B51370   9.572  21.938   7.364
 3971POPC   NC351371  31.450  28.359   5.564
 3971POPC   PO451372  31.442  28.324   5.864
 3971POPC   GL151373  31.434  28.365   6.164
 3971POPC   GL251374  31.578  28.244   6.164
 3971POPC   C1A51375  31.445  28.372   6.464
 3971POPC   D2A51376  31.467  28.402   6.764
 3971POPC   C3A51377  31.467  28.374   7.064
 3971POPC   C4A51378  31.501  28.405   7.364
 3971POPC   C1B51379  31.562  28.157   6.464
 3971POPC   C2B51380  31.557  28.115   6.764
 3971POPC   C3B51381  31.625  28.104   7.064
 3971POPC   C4B51382  31.627  28.127   7.364
 3972POPC   NC351383  19.042   3.542   5.564
 3972POPC   PO451384  19.052   3.517   5.864
 3972POPC   GL151385  19.083   3.527   6.164
 3972POPC   GL251386  19.027   3.462   6.164
 3972POPC   C1A51387  19.037   3.542   6.464
 3972POPC   D2A51388  19.033   3.507   6.764
 3972POPC   C3A51389  19.108   3.507   7.064
 3972POPC   C4A51390  19.017   3.502   7.364
 3972POPC   C1B51391  18.954   3.338   6.464
 3972POPC   C2B51392  18.920   3.304   6.764
 3972POPC   C3B51393  18.969   3.317   7.064
 3972POPC   C4B51394  18.923   3.365   7.364
 3973POPC   NC351395   8.246   7.408   5.564
 3973POPC   PO451396   8.164   7.372   5.864
 3973POPC   GL151397   8.194   7.393   6.164
 3973POPC   GL251398   8.326   7.415   6.164
 3973POPC   C1A51399   8.163   7.391   6.464
 3973POPC   D2A51400   8.214   7.391   6.764
 3973POPC   C3A51401   8.203   7.400   7.064
 3973POPC   C4A51402   8.224   7.463   7.364
 3973POPC   C1B51403   8.465   7.422   6.464
 3973POPC   C2B51404   8.396   7.414   6.764
 3973POPC   C3B51405   8.457   7.439   7.064
 3973POPC   C4B51406   8.455   7.431   7.364
 3974POPC   NC351407   8.187  16.747   5.564
 3974POPC   PO451408   8.179  16.730   5.864
 3974POPC   GL151409   8.152  16.704   6.164
 3974POPC   GL251410   8.335  16.753   6.164
 3974POPC   C1A51411   8.168  16.730   6.464
 3974POPC   D2A51412   8.184  16.754   6.764
 3974POPC   C3A51413   8.163  16.745   7.064
 3974POPC   C4A51414   8.158  16.704   7.364
 3974POPC   C1B51415   8.408  16.824   6.464
 3974POPC   C2B51416   8.460  16.808   6.764
 3974POPC   C3B51417   8.384  16.812   7.064
 3974POPC   C4B51418   8.444  16.835   7.364
 3975POPC   NC351419  36.160  40.767   5.564
 3975POPC   PO451420  36.125  40.757   5.864
 3975POPC   GL151421  36.127  40.735   6.164
 3975POPC   GL251422  36.028  40.714   6.164
 3975POPC   C1A51423  36.156  40.771   6.464
 3975POPC   D2A51424  36.100  40.742   6.764
 3975POPC   C3A51425  36.177  40.746   7.064
 3975POPC   C4A51426  36.162  40.735   7.364
 3975POPC   C1B51427  35.910  40.635   6.464
 3975POPC   C2B51428  35.877  40.641   6.764
 3975POPC   C3B51429  35.913  40.697   7.064
 3975POPC   C4B51430  35.882  40.666   7.364
 3976POPC   NC351431  27.636  26.851   5.564
 3976POPC   PO451432  27.641  26.769   5.864
 3976POPC   GL151433  27.635  26.823   6.164
 3976POPC   GL251434  27.694  26.663   6.164
 3976POPC   C1A51435  27.595  26.800   6.464
 3976POPC   D2A51436  27.544  26.770   6.764
 3976POPC   C3A51437  27.551  26.854   7.064
 3976POPC   C4A51438  27.615  26.830   7.364
 3976POPC   C1B51439  27.681  26.606   6.464
 3976POPC   C2B51440  27.693  26.625   6.764
 3976POPC   C3B51441  27.756  26.634   7.064
 3976POPC   C4B51442  27.777  26.572   7.364
 3977POPC   NC351443  34.571  33.070   5.564
 3977POPC   PO451444  34.576  33.062   5.864
 3977POPC   GL151445  34.605  33.013   6.164
 3977POPC   GL251446  34.575  32.875   6.164
 3977POPC   C1A51447  34.555  33.018   6.464
 3977POPC   D2A51448  34.615  33.017   6.764
 3977POPC   C3A51449  34.566  33.059   7.064
 3977POPC   C4A51450  34.531  33.006   7.364
 3977POPC   C1B51451  34.554  32.745   6.464
 3977POPC   C2B51452  34.595  32.815   6.764
 3977POPC   C3B51453  34.529  32.775   7.064
 3977POPC   C4B51454  34.591  32.797   7.364
 3978POPC   NC351455  42.289  39.210   5.564
 3978POPC   PO451456  42.322  39.209   5.864
 3978POPC   GL151457  42.372  39.214   6.164
 3978POPC   GL251458  42.371  39.094   6.164
 3978POPC   C1A51459  42.300  39.275   6.464
 3978POPC   D2A51460  42.365  39.274   6.764
 3978POPC   C3A51461  42.326  39.279   7.064
 3978POPC   C4A51462  42.295  39.187   7.364
 3978POPC   C1B51463  42.408  39.015   6.464
 3978POPC   C2B51464  42.367  39.022   6.764
 3978POPC   C3B51465  42.385  39.026   7.064
 3978POPC   C4B51466  42.401  38.980   7.364
 3979POPC   NC351467   7.415  23.666   5.564
 3979POPC   PO451468   7.438  23.676   5.864
 3979POPC   GL151469   7.467  23.745   6.164
 3979POPC   GL251470   7.534  23.642   6.164
 3979POPC   C1A51471   7.380  23.685   6.464
 3979POPC   D2A51472   7.428  23.667   6.764
 3979POPC   C3A51473   7.424  23.762   7.064
 3979POPC   C4A51474   7.411  23.724   7.364
 3979POPC   C1B51475   7.710  23.690   6.464
 3979POPC   C2B51476   7.676  23.685   6.764
 3979POPC   C3B51477   7.691  23.618   7.064
 3979POPC   C4B51478   7.680  23.621   7.364
 3980POPC   NC351479  29.191  12.057   5.564
 3980POPC   PO451480  29.170  12.036   5.864
 3980POPC   GL151481  29.132  12.097   6.164
 3980POPC   GL251482  28.989  12.005   6.164
 3980POPC   C1A51483  29.151  12.056   6.464
 3980POPC   D2A51484  29.191  12.066   6.764
 3980POPC   C3A51485  29.184  12.055   7.064
 3980POPC   C4A51486  29.155  12.093   7.364
 3980POPC   C1B51487  28.917  11.952   6.464
 3980POPC   C2B51488  28.900  11.974   6.764
 3980POPC   C3B51489  28.890  11.972   7.064
 3980POPC   C4B51490  28.940  12.012   7.364
 3981POPC   NC351491  20.601  42.296   5.564
 3981POPC   PO451492  20.645  42.293   5.864
 3981POPC   GL151493  20.585  42.319   6.164
 3981POPC   GL251494  20.573  42.183   6.164
 3981POPC   C1A51495  20.613  42.339   6.464
 3981POPC   D2A51496  20.586  42.322   6.764
 3981POPC   C3A51497  20.593  42.384   7.064
 3981POPC   C4A51498  20.596  42.382   7.364
 3981POPC   C1B51499  20.516  42.062   6.464
 3981POPC   C2B51500  20.509  42.103   6.764
 3981POPC   C3B51501  20.490  42.122   7.064
 3981POPC   C4B51502  20.490  42.070   7.364
 3982POPC   NC351503  19.884  34.531   5.564
 3982POPC   PO451504  19.860  34.548   5.864
 3982POPC   GL151505  19.863  34.532   6.164
 3982POPC   GL251506  19.959  34.645   6.164
 3982POPC   C1A51507  19.810  34.595   6.464
 3982POPC   D2A51508  19.846  34.620   6.764
 3982POPC   C3A51509  19.872  34.530   7.064
 3982POPC   C4A51510  19.796  34.562   7.364
 3982POPC   C1B51511  20.124  34.669   6.464
 3982POPC   C2B51512  20.086  34.633   6.764
 3982POPC   C3B51513  20.057  34.649   7.064
 3982POPC   C4B51514  20.111  34.627   7.364
 3983POPC   NC351515  39.219   1.959   5.564
 3983POPC   PO451516  39.221   1.986   5.864
 3983POPC   GL151517  39.276   2.007   6.164
 3983POPC   GL251518  39.067   2.026   6.164
 3983POPC   C1A51519  39.246   1.961   6.464
 3983POPC   D2A51520  39.208   1.992   6.764
 3983POPC   C3A51521  39.261   1.974   7.064
 3983POPC   C4A51522  39.225   1.986   7.364
 3983POPC   C1B51523  39.001   2.099   6.464
 3983POPC   C2B51524  39.016   2.101   6.764
 3983POPC   C3B51525  39.015   2.104   7.064
 3983POPC   C4B51526  38.982   2.042   7.364
 3984POPC   NC351527  24.513  38.465   5.564
 3984POPC   PO451528  24.451  38.419   5.864
 3984POPC   GL151529  24.444  38.443   6.164
 3984POPC   GL251530  24.416  38.308   6.164
 3984POPC   C1A51531  24.512  38.450   6.464
 3984POPC   D2A51532  24.494  38.496   6.764
 3984POPC   C3A51533  24.488  38.472   7.064
 3984POPC   C4A51534  24.461  38.419   7.364
 3984POPC   C1B51535  24.358  38.281   6.464
 3984POPC   C2B51536  24.340  38.203   6.764
 3984POPC   C3B51537  24.391  38.270   7.064
 3984POPC   C4B51538  24.335  38.264   7.364
 3985POPC   NC351539  22.122  12.848   5.564
 3985POPC   PO451540  22.191  12.881   5.864
 3985POPC   GL151541  22.188  12.810   6.164
 3985POPC   GL251542  22.179  12.723   6.164
 3985POPC   C1A51543  22.123  12.881   6.464
 3985POPC   D2A51544  22.205  12.830   6.764
 3985POPC   C3A51545  22.183  12.880   7.064
 3985POPC   C4A51546  22.128  12.832   7.364
 3985POPC   C1B51547  22.250  12.640   6.464
 3985POPC   C2B51548  22.277  12.669   6.764
 3985POPC   C3B51549  22.262  12.624   7.064
 3985POPC   C4B51550  22.254  12.575   7.364
 3986POPC   NC351551  25.226  35.381   5.564
 3986POPC   PO451552  25.274  35.397   5.864
 3986POPC   GL151553  25.282  35.391   6.164
 3986POPC   GL251554  25.238  35.422   6.164
 3986POPC   C1A51555  25.303  35.353   6.464
 3986POPC   D2A51556  25.273  35.304   6.764
 3986POPC   C3A51557  25.270  35.389   7.064
 3986POPC   C4A51558  25.244  35.333   7.364
 3986POPC   C1B51559  25.143  35.559   6.464
 3986POPC   C2B51560  25.150  35.594   6.764
 3986POPC   C3B51561  25.163  35.626   7.064
 3986POPC   C4B51562  25.185  35.576   7.364
 3987POPC   NC351563  32.210   4.312   5.564
 3987POPC   PO451564  32.244   4.357   5.864
 3987POPC   GL151565  32.264   4.331   6.164
 3987POPC   GL251566  32.171   4.180   6.164
 3987POPC   C1A51567  32.266   4.358   6.464
 3987POPC   D2A51568  32.274   4.301   6.764
 3987POPC   C3A51569  32.271   4.333   7.064
 3987POPC   C4A51570  32.289   4.364   7.364
 3987POPC   C1B51571  32.146   4.133   6.464
 3987POPC   C2B51572  32.151   4.100   6.764
 3987POPC   C3B51573  32.136   4.117   7.064
 3987POPC   C4B51574  32.116   4.091   7.364
 3988POPC   NC351575   0.464  23.709   5.564
 3988POPC   PO451576   0.458  23.742   5.864
 3988POPC   GL151577   0.487  23.749   6.164
 3988POPC   GL251578   0.453  23.572   6.164
 3988POPC   C1A51579   0.432  23.724   6.464
 3988POPC   D2A51580   0.413  23.719   6.764
 3988POPC   C3A51581   0.423  23.721   7.064
 3988POPC   C4A51582   0.416  23.684   7.364
 3988POPC   C1B51583   0.523  23.506   6.464
 3988POPC   C2B51584   0.550  23.513   6.764
 3988POPC   C3B51585   0.519  23.450   7.064
 3988POPC   C4B51586   0.529  23.522   7.364
 3989POPC   NC351587   9.015  33.796   5.564
 3989POPC   PO451588   9.020  33.833   5.864
 3989POPC   GL151589   8.979  33.837   6.164
 3989POPC   GL251590   9.119  33.789   6.164
 3989POPC   C1A51591   9.022  33.786   6.464
 3989POPC   D2A51592   9.000  33.757   6.764
 3989POPC   C3A51593   9.000  33.840   7.064
 3989POPC   C4A51594   9.021  33.760   7.364
 3989POPC   C1B51595   9.242  33.811   6.464
 3989POPC   C2B51596   9.210  33.820   6.764
 3989POPC   C3B51597   9.233  33.790   7.064
 3989POPC   C4B51598   9.174  33.855   7.364
 3990POPC   NC351599  26.855   7.451   5.564
 3990POPC   PO451600  26.776   7.460   5.864
 3990POPC   GL151601  26.784   7.381   6.164
 3990POPC   GL251602  26.765   7.318   6.164
 3990POPC   C1A51603  26.823   7.377   6.464
 3990POPC   D2A51604  26.774   7.433   6.764
 3990POPC   C3A51605  26.775   7.392   7.064
 3990POPC   C4A51606  26.808   7.453   7.364
 3990POPC   C1B51607  26.729   7.132   6.464
 3990POPC   C2B51608  26.764   7.202   6.764
 3990POPC   C3B51609  26.812   7.216   7.064
 3990POPC   C4B51610  26.799   7.126   7.364
 3991POPC   NC351611  18.245   1.169   5.564
 3991POPC   PO451612  18.323   1.209   5.864
 3991POPC   GL151613  18.236   1.233   6.164
 3991POPC   GL251614  18.212   1.167   6.164
 3991POPC   C1A51615  18.279   1.208   6.464
 3991POPC   D2A51616  18.329   1.212   6.764
 3991POPC   C3A51617  18.283   1.257   7.064
 3991POPC   C4A51618  18.327   1.173   7.364
 3991POPC   C1B51619  18.044   1.079   6.464
 3991POPC   C2B51620  18.103   1.064   6.764
 3991POPC   C3B51621  18.084   1.055   7.064
 3991POPC   C4B51622  18.050   1.068   7.364
 3992POPC   NC351623   3.562  43.888   5.564
 3992POPC   PO451624   3.590  43.887   5.864
 3992POPC   GL151625   3.506  43.916   6.164
 3992POPC   GL251626   3.703  43.963   6.164
 3992POPC   C1A51627   3.534  43.911   6.464
 3992POPC   D2A51628   3.512  43.920   6.764
 3992POPC   C3A51629   3.545  43.869   7.064
 3992POPC   C4A51630   3.548  43.901   7.364
 3992POPC   C1B51631   3.792  43.971   6.464
 3992POPC   C2B51632   3.792  43.989   6.764
 3992POPC   C3B51633   3.735  43.975   7.064
 3992POPC   C4B51634   3.823  43.964   7.364
 3993POPC   NC351635  33.065  40.815   5.564
 3993POPC   PO451636  32.986  40.803   5.864
 3993POPC   GL151637  33.052  40.793   6.164
 3993POPC   GL251638  32.880  40.806   6.164
 3993POPC   C1A51639  33.018  40.746   6.464
 3993POPC   D2A51640  32.991  40.752   6.764
 3993POPC   C3A51641  33.028  40.802   7.064
 3993POPC   C4A51642  33.033  40.750   7.364
 3993POPC   C1B51643  32.778  40.792   6.464
 3993POPC   C2B51644  32.826  40.835   6.764
 3993POPC   C3B51645  32.757  40.822   7.064
 3993POPC   C4B51646  32.779  40.820   7.364
 3994POPC   NC351647  23.670  29.166   5.564
 3994POPC   PO451648  23.685  29.110   5.864
 3994POPC   GL151649  23.686  29.139   6.164
 3994POPC   GL251650  23.786  29.059   6.164
 3994POPC   C1A51651  23.695  29.175   6.464
 3994POPC   D2A51652  23.726  29.096   6.764
 3994POPC   C3A51653  23.740  29.177   7.064
 3994POPC   C4A51654  23.736  29.130   7.364
 3994POPC   C1B51655  23.876  28.967   6.464
 3994POPC   C2B51656  23.961  28.965   6.764
 3994POPC   C3B51657  23.893  28.971   7.064
 3994POPC   C4B51658  23.916  29.006   7.364
 3995POPC   NC351659  42.292  19.015   5.564
 3995POPC   PO451660  42.352  19.032   5.864
 3995POPC   GL151661  42.359  19.064   6.164
 3995POPC   GL251662  42.439  19.138   6.164
 3995POPC   C1A51663  42.304  19.012   6.464
 3995POPC   D2A51664  42.313  19.023   6.764
 3995POPC   C3A51665  42.289  19.066   7.064
 3995POPC   C4A51666  42.285  19.019   7.364
 3995POPC   C1B51667  42.558  19.107   6.464
 3995POPC   C2B51668  42.532  19.183   6.764
 3995POPC   C3B51669  42.563  19.176   7.064
 3995POPC   C4B51670  42.593  19.164   7.364
 3996POPC   NC351671  15.984   7.431   5.564
 3996POPC   PO451672  15.963   7.385   5.864
 3996POPC   GL151673  15.998   7.450   6.164
 3996POPC   GL251674  15.900   7.306   6.164
 3996POPC   C1A51675  15.979   7.420   6.464
 3996POPC   D2A51676  15.991   7.423   6.764
 3996POPC   C3A51677  15.959   7.399   7.064
 3996POPC   C4A51678  15.966   7.451   7.364
 3996POPC   C1B51679  15.740   7.253   6.464
 3996POPC   C2B51680  15.807   7.295   6.764
 3996POPC   C3B51681  15.806   7.278   7.064
 3996POPC   C4B51682  15.816   7.219   7.364
 3997POPC   NC351683  39.974  20.650   5.564
 3997POPC   PO451684  40.024  20.638   5.864
 3997POPC   GL151685  40.002  20.570   6.164
 3997POPC   GL251686  40.013  20.451   6.164
 3997POPC   C1A51687  39.980  20.648   6.464
 3997POPC   D2A51688  40.022  20.600   6.764
 3997POPC   C3A51689  40.026  20.630   7.064
 3997POPC   C4A51690  40.011  20.651   7.364
 3997POPC   C1B51691  39.964  20.321   6.464
 3997POPC   C2B51692  39.983  20.394   6.764
 3997POPC   C3B51693  40.006  20.401   7.064
 3997POPC   C4B51694  40.003  20.325   7.364
 3998POPC   NC351695  36.174   0.485   5.564
 3998POPC   PO451696  36.122   0.471   5.864
 3998POPC   GL151697  36.098   0.415   6.164
 3998POPC   GL251698  36.267   0.533   6.164
 3998POPC   C1A51699  36.145   0.410   6.464
 3998POPC   D2A51700  36.156   0.388   6.764
 3998POPC   C3A51701  36.141   0.483   7.064
 3998POPC   C4A51702  36.148   0.427   7.364
 3998POPC   C1B51703  36.348   0.509   6.464
 3998POPC   C2B51704  36.364   0.512   6.764
 3998POPC   C3B51705  36.401   0.577   7.064
 3998POPC   C4B51706  36.362   0.502   7.364
 3999POPC   NC351707  40.002   8.172   5.564
 3999POPC   PO451708  40.037   8.148   5.864
 3999POPC   GL151709  39.980   8.187   6.164
 3999POPC   GL251710  39.906   8.243   6.164
 3999POPC   C1A51711  40.001   8.180   6.464
 3999POPC   D2A51712  40.041   8.244   6.764
 3999POPC   C3A51713  40.032   8.237   7.064
 3999POPC   C4A51714  39.990   8.177   7.364
 3999POPC   C1B51715  39.756   8.313   6.464
 3999POPC   C2B51716  39.749   8.281   6.764
 3999POPC   C3B51717  39.722   8.249   7.064
 3999POPC   C4B51718  39.731   8.255   7.364
 4000POPC   NC351719  35.358  39.251   5.564
 4000POPC   PO451720  35.390  39.229   5.864
 4000POPC   GL151721  35.312  39.200   6.164
 4000POPC   GL251722  35.493  39.202   6.164
 4000POPC   C1A51723  35.315  39.246   6.464
 4000POPC   D2A51724  35.351  39.198   6.764
 4000POPC   C3A51725  35.320  39.239   7.064
 4000POPC   C4A51726  35.319  39.253   7.364
 4000POPC   C1B51727  35.572  39.231   6.464
 4000POPC   C2B51728  35.586  39.268   6.764
 4000POPC   C3B51729  35.606  39.187   7.064
 4000POPC   C4B51730  35.570  39.209   7.364
 4001POPC   NC351731  22.159  43.923   5.564
 4001POPC   PO451732  22.149  43.892   5.864
 4001POPC   GL151733  22.130  43.844   6.164
 4001POPC   GL251734  22.329  43.932   6.164
 4001POPC   C1A51735  22.131  43.889   6.464
 4001POPC   D2A51736  22.167  43.858   6.764
 4001POPC   C3A51737  22.118  43.879   7.064
 4001POPC   C4A51738  22.153  43.848   7.364
 4001POPC   C1B51739  22.406  43.937   6.464
 4001POPC   C2B51740  22.385  43.890   6.764
 4001POPC   C3B51741  22.391  43.932   7.064
 4001POPC   C4B51742  22.362  43.856   7.364
 4002POPC   NC351743  44.663  24.496   5.564
 4002POPC   PO451744  44.701  24.457   5.864
 4002POPC   GL151745  44.697  24.519   6.164
 4002POPC   GL251746  44.768  24.597   6.164
 4002POPC   C1A51747  44.697  24.536   6.464
 4002POPC   D2A51748  44.625  24.500   6.764
 4002POPC   C3A51749  44.711  24.440   7.064
 4002POPC   C4A51750  44.615  24.521   7.364
 4002POPC   C1B51751  44.866  24.625   6.464
 4002POPC   C2B51752  44.806  24.622   6.764
 4002POPC   C3B51753  44.844  24.707   7.064
 4002POPC   C4B51754  44.824  24.699   7.364
 4003POPC   NC351755  13.641  19.088   5.564
 4003POPC   PO451756  13.582  19.075   5.864
 4003POPC   GL151757  13.600  19.034   6.164
 4003POPC   GL251758  13.548  19.005   6.164
 4003POPC   C1A51759  13.672  19.039   6.464
 4003POPC   D2A51760  13.649  19.101   6.764
 4003POPC   C3A51761  13.668  19.070   7.064
 4003POPC   C4A51762  13.594  19.043   7.364
 4003POPC   C1B51763  13.502  18.855   6.464
 4003POPC   C2B51764  13.466  18.839   6.764
 4003POPC   C3B51765  13.478  18.888   7.064
 4003POPC   C4B51766  13.457  18.918   7.364
 4004POPC   NC351767   2.725  23.719   5.564
 4004POPC   PO451768   2.729  23.698   5.864
 4004POPC   GL151769   2.721  23.728   6.164
 4004POPC   GL251770   2.750  23.611   6.164
 4004POPC   C1A51771   2.804  23.751   6.464
 4004POPC   D2A51772   2.741  23.729   6.764
 4004POPC   C3A51773   2.759  23.676   7.064
 4004POPC   C4A51774   2.786  23.710   7.364
 4004POPC   C1B51775   2.821  23.451   6.464
 4004POPC   C2B51776   2.801  23.518   6.764
 4004POPC   C3B51777   2.854  23.436   7.064
 4004POPC   C4B51778   2.853  23.476   7.364
 4005POPC   NC351779   5.905  38.491   5.564
 4005POPC   PO451780   5.908  38.443   5.864
 4005POPC   GL151781   5.822  38.468   6.164
 4005POPC   GL251782   5.747  38.416   6.164
 4005POPC   C1A51783   5.837  38.409   6.464
 4005POPC   D2A51784   5.906  38.449   6.764
 4005POPC   C3A51785   5.909  38.483   7.064
 4005POPC   C4A51786   5.843  38.471   7.364
 4005POPC   C1B51787   5.603  38.332   6.464
 4005POPC   C2B51788   5.678  38.325   6.764
 4005POPC   C3B51789   5.609  38.314   7.064
 4005POPC   C4B51790   5.643  38.326   7.364
 4006POPC   NC351791  26.792   4.321   5.564
 4006POPC   PO451792  26.775   4.295   5.864
 4006POPC   GL151793  26.792   4.294   6.164
 4006POPC   GL251794  26.749   4.270   6.164
 4006POPC   C1A51795  26.864   4.308   6.464
 4006POPC   D2A51796  26.803   4.340   6.764
 4006POPC   C3A51797  26.781   4.343   7.064
 4006POPC   C4A51798  26.815   4.274   7.364
 4006POPC   C1B51799  26.610   4.137   6.464
 4006POPC   C2B51800  26.682   4.162   6.764
 4006POPC   C3B51801  26.645   4.086   7.064
 4006POPC   C4B51802  26.693   4.176   7.364
 4007POPC   NC351803  26.042  33.752   5.564
 4007POPC   PO451804  26.072  33.796   5.864
 4007POPC   GL151805  26.021  33.840   6.164
 4007POPC   GL251806  26.084  33.940   6.164
 4007POPC   C1A51807  26.068  33.803   6.464
 4007POPC   D2A51808  26.082  33.790   6.764
 4007POPC   C3A51809  25.995  33.825   7.064
 4007POPC   C4A51810  26.036  33.793   7.364
 4007POPC   C1B51811  26.112  34.033   6.464
 4007POPC   C2B51812  26.183  34.030   6.764
 4007POPC   C3B51813  26.132  33.996   7.064
 4007POPC   C4B51814  26.129  34.051   7.364
 4008POPC   NC351815  29.167  17.459   5.564
 4008POPC   PO451816  29.126  17.465   5.864
 4008POPC   GL151817  29.160  17.536   6.164
 4008POPC   GL251818  29.269  17.561   6.164
 4008POPC   C1A51819  29.097  17.531   6.464
 4008POPC   D2A51820  29.131  17.514   6.764
 4008POPC   C3A51821  29.175  17.497   7.064
 4008POPC   C4A51822  29.124  17.462   7.364
 4008POPC   C1B51823  29.327  17.589   6.464
 4008POPC   C2B51824  29.372  17.605   6.764
 4008POPC   C3B51825  29.355  17.637   7.064
 4008POPC   C4B51826  29.356  17.651   7.364
 4009POPC   NC351827   5.869  17.533   5.564
 4009POPC   PO451828   5.863  17.471   5.864
 4009POPC   GL151829   5.827  17.511   6.164
 4009POPC   GL251830   5.931  17.361   6.164
 4009POPC   C1A51831   5.897  17.516   6.464
 4009POPC   D2A51832   5.887  17.479   6.764
 4009POPC   C3A51833   5.838  17.474   7.064
 4009POPC   C4A51834   5.896  17.489   7.364
 4009POPC   C1B51835   5.946  17.290   6.464
 4009POPC   C2B51836   5.964  17.252   6.764
 4009POPC   C3B51837   5.979  17.282   7.064
 4009POPC   C4B51838   5.965  17.275   7.364
 4010POPC   NC351839   3.583   9.762   5.564
 4010POPC   PO451840   3.495   9.785   5.864
 4010POPC   GL151841   3.544   9.735   6.164
 4010POPC   GL251842   3.637   9.635   6.164
 4010POPC   C1A51843   3.509   9.724   6.464
 4010POPC   D2A51844   3.509   9.707   6.764
 4010POPC   C3A51845   3.546   9.786   7.064
 4010POPC   C4A51846   3.549   9.750   7.364
 4010POPC   C1B51847   3.785   9.581   6.464
 4010POPC   C2B51848   3.744   9.586   6.764
 4010POPC   C3B51849   3.755   9.590   7.064
 4010POPC   C4B51850   3.760   9.647   7.364
 4011POPC   NC351851  36.916  25.244   5.564
 4011POPC   PO451852  36.858  25.226   5.864
 4011POPC   GL151853  36.917  25.305   6.164
 4011POPC   GL251854  36.855  25.395   6.164
 4011POPC   C1A51855  36.898  25.253   6.464
 4011POPC   D2A51856  36.919  25.217   6.764
 4011POPC   C3A51857  36.880  25.303   7.064
 4011POPC   C4A51858  36.866  25.231   7.364
 4011POPC   C1B51859  36.762  25.517   6.464
 4011POPC   C2B51860  36.825  25.522   6.764
 4011POPC   C3B51861  36.808  25.496   7.064
 4011POPC   C4B51862  36.797  25.517   7.364
 4012POPC   NC351863  31.500  24.449   5.564
 4012POPC   PO451864  31.485  24.469   5.864
 4012POPC   GL151865  31.468  24.447   6.164
 4012POPC   GL251866  31.360  24.551   6.164
 4012POPC   C1A51867  31.440  24.455   6.464
 4012POPC   D2A51868  31.496  24.465   6.764
 4012POPC   C3A51869  31.522  24.478   7.064
 4012POPC   C4A51870  31.513  24.501   7.364
 4012POPC   C1B51871  31.185  24.587   6.464
 4012POPC   C2B51872  31.258  24.540   6.764
 4012POPC   C3B51873  31.211  24.562   7.064
 4012POPC   C4B51874  31.232  24.571   7.364
 4013POPC   NC351875   4.312  43.113   5.564
 4013POPC   PO451876   4.288  43.091   5.864
 4013POPC   GL151877   4.271  43.070   6.164
 4013POPC   GL251878   4.248  43.160   6.164
 4013POPC   C1A51879   4.348  43.121   6.464
 4013POPC   D2A51880   4.366  43.144   6.764
 4013POPC   C3A51881   4.300  43.081   7.064
 4013POPC   C4A51882   4.290  43.103   7.364
 4013POPC   C1B51883   4.123  43.169   6.464
 4013POPC   C2B51884   4.038  43.211   6.764
 4013POPC   C3B51885   4.108  43.190   7.064
 4013POPC   C4B51886   4.058  43.188   7.364
 4014POPC   NC351887  29.883  26.810   5.564
 4014POPC   PO451888  29.912  26.833   5.864
 4014POPC   GL151889  29.908  26.836   6.164
 4014POPC   GL251890  29.988  26.685   6.164
 4014POPC   C1A51891  29.905  26.846   6.464
 4014POPC   D2A51892  29.906  26.860   6.764
 4014POPC   C3A51893  29.887  26.776   7.064
 4014POPC   C4A51894  29.899  26.790   7.364
 4014POPC   C1B51895  30.031  26.603   6.464
 4014POPC   C2B51896  30.034  26.609   6.764
 4014POPC   C3B51897  30.038  26.544   7.064
 4014POPC   C4B51898  29.969  26.570   7.364
 4015POPC   NC351899  11.255  37.661   5.564
 4015POPC   PO451900  11.342  37.634   5.864
 4015POPC   GL151901  11.259  37.671   6.164
 4015POPC   GL251902  11.263  37.594   6.164
 4015POPC   C1A51903  11.332  37.634   6.464
 4015POPC   D2A51904  11.296  37.674   6.764
 4015POPC   C3A51905  11.290  37.718   7.064
 4015POPC   C4A51906  11.295  37.680   7.364
 4015POPC   C1B51907  11.098  37.511   6.464
 4015POPC   C2B51908  11.156  37.467   6.764
 4015POPC   C3B51909  11.177  37.530   7.064
 4015POPC   C4B51910  11.146  37.535   7.364
 4016POPC   NC351911  22.118  15.918   5.564
 4016POPC   PO451912  22.176  15.968   5.864
 4016POPC   GL151913  22.133  16.001   6.164
 4016POPC   GL251914  22.137  15.854   6.164
 4016POPC   C1A51915  22.206  15.970   6.464
 4016POPC   D2A51916  22.121  15.921   6.764
 4016POPC   C3A51917  22.148  15.999   7.064
 4016POPC   C4A51918  22.186  15.946   7.364
 4016POPC   C1B51919  22.070  15.719   6.464
 4016POPC   C2B51920  22.030  15.789   6.764
 4016POPC   C3B51921  22.073  15.755   7.064
 4016POPC   C4B51922  22.072  15.788   7.364
 4017POPC   NC351923  35.358  12.890   5.564
 4017POPC   PO451924  35.392  12.836   5.864
 4017POPC   GL151925  35.310  12.859   6.164
 4017POPC   GL251926  35.523  12.872   6.164
 4017POPC   C1A51927  35.333  12.897   6.464
 4017POPC   D2A51928  35.373  12.814   6.764
 4017POPC   C3A51929  35.384  12.870   7.064
 4017POPC   C4A51930  35.317  12.883   7.364
 4017POPC   C1B51931  35.584  12.866   6.464
 4017POPC   C2B51932  35.623  12.889   6.764
 4017POPC   C3B51933  35.577  12.889   7.064
 4017POPC   C4B51934  35.554  12.871   7.364
 4018POPC   NC351935  20.564  10.497   5.564
 4018POPC   PO451936  20.612  10.562   5.864
 4018POPC   GL151937  20.600  10.495   6.164
 4018POPC   GL251938  20.739  10.570   6.164
 4018POPC   C1A51939  20.629  10.539   6.464
 4018POPC   D2A51940  20.579  10.478   6.764
 4018POPC   C3A51941  20.606  10.568   7.064
 4018POPC   C4A51942  20.652  10.489   7.364
 4018POPC   C1B51943  20.781  10.690   6.464
 4018POPC   C2B51944  20.861  10.626   6.764
 4018POPC   C3B51945  20.826  10.607   7.064
 4018POPC   C4B51946  20.794  10.636   7.364
 4019POPC   NC351947   5.089  21.432   5.564
 4019POPC   PO451948   5.065  21.366   5.864
 4019POPC   GL151949   5.142  21.363   6.164
 4019POPC   GL251950   5.071  21.465   6.164
 4019POPC   C1A51951   5.055  21.410   6.464
 4019POPC   D2A51952   5.089  21.400   6.764
 4019POPC   C3A51953   5.097  21.365   7.064
 4019POPC   C4A51954   5.094  21.391   7.364
 4019POPC   C1B51955   4.995  21.623   6.464
 4019POPC   C2B51956   5.011  21.583   6.764
 4019POPC   C3B51957   4.963  21.585   7.064
 4019POPC   C4B51958   4.959  21.631   7.364
 4020POPC   NC351959  26.091   3.512   5.564
 4020POPC   PO451960  26.038   3.560   5.864
 4020POPC   GL151961  26.055   3.590   6.164
 4020POPC   GL251962  25.974   3.631   6.164
 4020POPC   C1A51963  26.053   3.502   6.464
 4020POPC   D2A51964  26.082   3.578   6.764
 4020POPC   C3A51965  26.010   3.562   7.064
 4020POPC   C4A51966  26.075   3.521   7.364
 4020POPC   C1B51967  25.978   3.824   6.464
 4020POPC   C2B51968  26.017   3.752   6.764
 4020POPC   C3B51969  25.986   3.792   7.064
 4020POPC   C4B51970  25.980   3.752   7.364
 4021POPC   NC351971   8.224  43.076   5.564
 4021POPC   PO451972   8.206  43.090   5.864
 4021POPC   GL151973   8.199  43.065   6.164
 4021POPC   GL251974   8.118  43.232   6.164
 4021POPC   C1A51975   8.148  43.133   6.464
 4021POPC   D2A51976   8.192  43.093   6.764
 4021POPC   C3A51977   8.235  43.113   7.064
 4021POPC   C4A51978   8.215  43.076   7.364
 4021POPC   C1B51979   8.056  43.263   6.464
 4021POPC   C2B51980   8.054  43.242   6.764
 4021POPC   C3B51981   8.017  43.284   7.064
 4021POPC   C4B51982   8.009  43.250   7.364
 4022POPC   NC351983  15.960  42.376   5.564
 4022POPC   PO451984  15.937  42.379   5.864
 4022POPC   GL151985  15.971  42.291   6.164
 4022POPC   GL251986  15.862  42.342   6.164
 4022POPC   C1A51987  15.937  42.294   6.464
 4022POPC   D2A51988  15.914  42.365   6.764
 4022POPC   C3A51989  15.969  42.363   7.064
 4022POPC   C4A51990  15.928  42.315   7.364
 4022POPC   C1B51991  15.709  42.416   6.464
 4022POPC   C2B51992  15.739  42.436   6.764
 4022POPC   C3B51993  15.735  42.381   7.064
 4022POPC   C4B51994  15.674  42.368   7.364
 4023POPC   NC351995   8.929  32.999   5.564
 4023POPC   PO451996   8.972  33.073   5.864
 4023POPC   GL151997   8.927  33.047   6.164
 4023POPC   GL251998   8.882  33.043   6.164
 4023POPC   C1A51999   8.997  33.038   6.464
 4023POPC   D2A52000   9.001  33.022   6.764
 4023POPC   C3A52001   8.981  33.068   7.064
 4023POPC   C4A52002   8.949  32.990   7.364
 4023POPC   C1B52003   8.677  33.018   6.464
 4023POPC   C2B52004   8.755  33.089   6.764
 4023POPC   C3B52005   8.679  33.048   7.064
 4023POPC   C4B52006   8.681  33.036   7.364
 4024POPC   NC352007  25.249  15.207   5.564
 4024POPC   PO452008  25.223  15.171   5.864
 4024POPC   GL152009  25.241  15.210   6.164
 4024POPC   GL252010  25.190  15.089   6.164
 4024POPC   C1A52011  25.268  15.180   6.464
 4024POPC   D2A52012  25.230  15.132   6.764
 4024POPC   C3A52013  25.223  15.158   7.064
 4024POPC   C4A52014  25.230  15.170   7.364
 4024POPC   C1B52015  25.070  15.053   6.464
 4024POPC   C2B52016  25.048  15.080   6.764
 4024POPC   C3B52017  25.055  15.036   7.064
 4024POPC   C4B52018  25.099  15.057   7.364
 4025POPC   NC352019  22.957  35.312   5.564
 4025POPC   PO452020  22.945  35.328   5.864
 4025POPC   GL152021  22.982  35.384   6.164
 4025POPC   GL252022  22.849  35.267   6.164
 4025POPC   C1A52023  22.927  35.318   6.464
 4025POPC   D2A52024  22.894  35.320   6.764
 4025POPC   C3A52025  22.897  35.400   7.064
 4025POPC   C4A52026  22.950  35.386   7.364
 4025POPC   C1B52027  22.751  35.148   6.464
 4025POPC   C2B52028  22.817  35.118   6.764
 4025POPC   C3B52029  22.775  35.182   7.064
 4025POPC   C4B52030  22.755  35.175   7.364
 4026POPC   NC352031  13.589   7.448   5.564
 4026POPC   PO452032  13.656   7.413   5.864
 4026POPC   GL152033  13.658   7.418   6.164
 4026POPC   GL252034  13.684   7.478   6.164
 4026POPC   C1A52035  13.663   7.441   6.464
 4026POPC   D2A52036  13.636   7.425   6.764
 4026POPC   C3A52037  13.655   7.387   7.064
 4026POPC   C4A52038  13.609   7.435   7.364
 4026POPC   C1B52039  13.828   7.617   6.464
 4026POPC   C2B52040  13.750   7.579   6.764
 4026POPC   C3B52041  13.813   7.637   7.064
 4026POPC   C4B52042  13.784   7.596   7.364
 4027POPC   NC352043   1.942  29.152   5.564
 4027POPC   PO452044   2.008  29.173   5.864
 4027POPC   GL152045   1.974  29.182   6.164
 4027POPC   GL252046   1.881  29.117   6.164
 4027POPC   C1A52047   2.008  29.134   6.464
 4027POPC   D2A52048   2.033  29.137   6.764
 4027POPC   C3A52049   1.980  29.105   7.064
 4027POPC   C4A52050   1.977  29.168   7.364
 4027POPC   C1B52051   1.747  28.957   6.464
 4027POPC   C2B52052   1.779  28.963   6.764
 4027POPC   C3B52053   1.756  29.027   7.064
 4027POPC   C4B52054   1.801  28.969   7.364
 4028POPC   NC352055  30.673  26.034   5.564
 4028POPC   PO452056  30.703  26.036   5.864
 4028POPC   GL152057  30.674  25.999   6.164
 4028POPC   GL252058  30.605  26.029   6.164
 4028POPC   C1A52059  30.740  26.080   6.464
 4028POPC   D2A52060  30.734  26.058   6.764
 4028POPC   C3A52061  30.701  26.037   7.064
 4028POPC   C4A52062  30.664  26.035   7.364
 4028POPC   C1B52063  30.494  25.927   6.464
 4028POPC   C2B52064  30.458  25.963   6.764
 4028POPC   C3B52065  30.442  25.927   7.064
 4028POPC   C4B52066  30.468  25.991   7.364
 4029POPC   NC352067  39.993  10.566   5.564
 4029POPC   PO452068  40.054  10.516   5.864
 4029POPC   GL152069  39.994  10.548   6.164
 4029POPC   GL252070  39.941  10.563   6.164
 4029POPC   C1A52071  40.000  10.534   6.464
 4029POPC   D2A52072  39.972  10.563   6.764
 4029POPC   C3A52073  40.042  10.495   7.064
 4029POPC   C4A52074  40.021  10.541   7.364
 4029POPC   C1B52075  39.795  10.639   6.464
 4029POPC   C2B52076  39.832  10.679   6.764
 4029POPC   C3B52077  39.774  10.612   7.064
 4029POPC   C4B52078  39.788  10.647   7.364
 4030POPC   NC352079   8.978   5.897   5.564
 4030POPC   PO452080   8.999   5.838   5.864
 4030POPC   GL152081   8.925   5.909   6.164
 4030POPC   GL252082   9.010   5.778   6.164
 4030POPC   C1A52083   8.981   5.894   6.464
 4030POPC   D2A52084   8.983   5.874   6.764
 4030POPC   C3A52085   8.935   5.833   7.064
 4030POPC   C4A52086   8.934   5.897   7.364
 4030POPC   C1B52087   9.104   5.701   6.464
 4030POPC   C2B52088   9.155   5.698   6.764
 4030POPC   C3B52089   9.108   5.713   7.064
 4030POPC   C4B52090   9.173   5.712   7.364
 4031POPC   NC352091  33.764  11.260   5.564
 4031POPC   PO452092  33.809  11.330   5.864
 4031POPC   GL152093  33.840  11.326   6.164
 4031POPC   GL252094  33.760  11.434   6.164
 4031POPC   C1A52095  33.821  11.316   6.464
 4031POPC   D2A52096  33.836  11.268   6.764
 4031POPC   C3A52097  33.827  11.276   7.064
 4031POPC   C4A52098  33.844  11.316   7.364
 4031POPC   C1B52099  33.583  11.441   6.464
 4031POPC   C2B52100  33.590  11.478   6.764
 4031POPC   C3B52101  33.616  11.477   7.064
 4031POPC   C4B52102  33.636  11.496   7.364
 4032POPC   NC352103   8.182  22.144   5.564
 4032POPC   PO452104   8.208  22.191   5.864
 4032POPC   GL152105   8.202  22.191   6.164
 4032POPC   GL252106   8.255  22.047   6.164
 4032POPC   C1A52107   8.195  22.153   6.464
 4032POPC   D2A52108   8.238  22.207   6.764
 4032POPC   C3A52109   8.194  22.128   7.064
 4032POPC   C4A52110   8.187  22.117   7.364
 4032POPC   C1B52111   8.359  21.929   6.464
 4032POPC   C2B52112   8.340  21.982   6.764
 4032POPC   C3B52113   8.323  21.965   7.064
 4032POPC   C4B52114   8.363  21.936   7.364
 4033POPC   NC352115  16.757  40.833   5.564
 4033POPC   PO452116  16.750  40.765   5.864
 4033POPC   GL152117  16.696  40.752   6.164
 4033POPC   GL252118  16.596  40.739   6.164
 4033POPC   C1A52119  16.758  40.801   6.464
 4033POPC   D2A52120  16.701  40.789   6.764
 4033POPC   C3A52121  16.737  40.803   7.064
 4033POPC   C4A52122  16.688  40.832   7.364
 4033POPC   C1B52123  16.558  40.567   6.464
 4033POPC   C2B52124  16.586  40.585   6.764
 4033POPC   C3B52125  16.561  40.586   7.064
 4033POPC   C4B52126  16.559  40.579   7.364
 4034POPC   NC352127  17.489  23.747   5.564
 4034POPC   PO452128  17.462  23.693   5.864
 4034POPC   GL152129  17.521  23.758   6.164
 4034POPC   GL252130  17.491  23.623   6.164
 4034POPC   C1A52131  17.512  23.725   6.464
 4034POPC   D2A52132  17.465  23.762   6.764
 4034POPC   C3A52133  17.471  23.698   7.064
 4034POPC   C4A52134  17.516  23.731   7.364
 4034POPC   C1B52135  17.463  23.474   6.464
 4034POPC   C2B52136  17.537  23.458   6.764
 4034POPC   C3B52137  17.528  23.495   7.064
 4034POPC   C4B52138  17.519  23.422   7.364
 4035POPC   NC352139  24.458  13.677   5.564
 4035POPC   PO452140  24.528  13.588   5.864
 4035POPC   GL152141  24.501  13.590   6.164
 4035POPC   GL252142  24.446  13.565   6.164
 4035POPC   C1A52143  24.465  13.630   6.464
 4035POPC   D2A52144  24.443  13.646   6.764
 4035POPC   C3A52145  24.521  13.601   7.064
 4035POPC   C4A52146  24.530  13.646   7.364
 4035POPC   C1B52147  24.330  13.419   6.464
 4035POPC   C2B52148  24.418  13.377   6.764
 4035POPC   C3B52149  24.402  13.437   7.064
 4035POPC   C4B52150  24.419  13.437   7.364
 4036POPC   NC352151  24.469   9.701   5.564
 4036POPC   PO452152  24.446   9.707   5.864
 4036POPC   GL152153  24.470   9.759   6.164
 4036POPC   GL252154  24.574   9.677   6.164
 4036POPC   C1A52155  24.536   9.707   6.464
 4036POPC   D2A52156  24.513   9.762   6.764
 4036POPC   C3A52157  24.503   9.734   7.064
 4036POPC   C4A52158  24.449   9.759   7.364
 4036POPC   C1B52159  24.573   9.550   6.464
 4036POPC   C2B52160  24.575   9.469   6.764
 4036POPC   C3B52161  24.612   9.532   7.064
 4036POPC   C4B52162  24.603   9.488   7.364
 4037POPC   NC352163  29.964  13.578   5.564
 4037POPC   PO452164  29.887  13.599   5.864
 4037POPC   GL152165  29.950  13.655   6.164
 4037POPC   GL252166  29.992  13.734   6.164
 4037POPC   C1A52167  29.881  13.613   6.464
 4037POPC   D2A52168  29.966  13.662   6.764
 4037POPC   C3A52169  29.911  13.652   7.064
 4037POPC   C4A52170  29.912  13.634   7.364
 4037POPC   C1B52171  30.118  13.743   6.464
 4037POPC   C2B52172  30.092  13.797   6.764
 4037POPC   C3B52173  30.151  13.804   7.064
 4037POPC   C4B52174  30.118  13.760   7.364
 4038POPC   NC352175  16.736   0.420   5.564
 4038POPC   PO452176  16.743   0.452   5.864
 4038POPC   GL152177  16.753   0.447   6.164
 4038POPC   GL252178  16.655   0.607   6.164
 4038POPC   C1A52179  16.742   0.476   6.464
 4038POPC   D2A52180  16.732   0.428   6.764
 4038POPC   C3A52181  16.718   0.446   7.064
 4038POPC   C4A52182  16.714   0.464   7.364
 4038POPC   C1B52183  16.653   0.653   6.464
 4038POPC   C2B52184  16.629   0.648   6.764
 4038POPC   C3B52185  16.685   0.692   7.064
 4038POPC   C4B52186  16.617   0.715   7.364
 4039POPC   NC352187  22.166  40.776   5.564
 4039POPC   PO452188  22.114  40.778   5.864
 4039POPC   GL152189  22.138  40.770   6.164
 4039POPC   GL252190  22.188  40.671   6.164
 4039POPC   C1A52191  22.138  40.824   6.464
 4039POPC   D2A52192  22.198  40.764   6.764
 4039POPC   C3A52193  22.145  40.766   7.064
 4039POPC   C4A52194  22.130  40.773   7.364
 4039POPC   C1B52195  22.210  40.538   6.464
 4039POPC   C2B52196  22.254  40.567   6.764
 4039POPC   C3B52197  22.199  40.543   7.064
 4039POPC   C4B52198  22.237  40.549   7.364
 4040POPC   NC352199  20.608  16.714   5.564
 4040POPC   PO452200  20.638  16.761   5.864
 4040POPC   GL152201  20.620  16.696   6.164
 4040POPC   GL252202  20.518  16.598   6.164
 4040POPC   C1A52203  20.658  16.743   6.464
 4040POPC   D2A52204  20.651  16.689   6.764
 4040POPC   C3A52205  20.608  16.736   7.064
 4040POPC   C4A52206  20.603  16.743   7.364
 4040POPC   C1B52207  20.505  16.521   6.464
 4040POPC   C2B52208  20.500  16.517   6.764
 4040POPC   C3B52209  20.563  16.523   7.064
 4040POPC   C4B52210  20.533  16.533   7.364
 4041POPC   NC352211  36.167  12.888   5.564
 4041POPC   PO452212  36.108  12.896   5.864
 4041POPC   GL152213  36.162  12.881   6.164
 4041POPC   GL252214  36.213  12.813   6.164
 4041POPC   C1A52215  36.106  12.816   6.464
 4041POPC   D2A52216  36.144  12.873   6.764
 4041POPC   C3A52217  36.100  12.891   7.064
 4041POPC   C4A52218  36.087  12.808   7.364
 4041POPC   C1B52219  36.387  12.790   6.464
 4041POPC   C2B52220  36.371  12.735   6.764
 4041POPC   C3B52221  36.342  12.725   7.064
 4041POPC   C4B52222  36.365  12.767   7.364
 4042POPC   NC352223  30.715  13.591   5.564
 4042POPC   PO452224  30.729  13.631   5.864
 4042POPC   GL152225  30.738  13.619   6.164
 4042POPC   GL252226  30.703  13.750   6.164
 4042POPC   C1A52227  30.740  13.611   6.464
 4042POPC   D2A52228  30.663  13.665   6.764
 4042POPC   C3A52229  30.693  13.581   7.064
 4042POPC   C4A52230  30.692  13.609   7.364
 4042POPC   C1B52231  30.690  13.873   6.464
 4042POPC   C2B52232  30.651  13.866   6.764
 4042POPC   C3B52233  30.654  13.848   7.064
 4042POPC   C4B52234  30.670  13.865   7.364
 4043POPC   NC352235  30.723  36.153   5.564
 4043POPC   PO452236  30.650  36.118   5.864
 4043POPC   GL152237  30.742  36.081   6.164
 4043POPC   GL252238  30.822  36.106   6.164
 4043POPC   C1A52239  30.675  36.100   6.464
 4043POPC   D2A52240  30.704  36.168   6.764
 4043POPC   C3A52241  30.682  36.158   7.064
 4043POPC   C4A52242  30.696  36.169   7.364
 4043POPC   C1B52243  30.960  36.048   6.464
 4043POPC   C2B52244  30.959  36.012   6.764
 4043POPC   C3B52245  30.944  36.061   7.064
 4043POPC   C4B52246  30.964  36.045   7.364
 4044POPC   NC352247   8.228  21.420   5.564
 4044POPC   PO452248   8.153  21.402   5.864
 4044POPC   GL152249   8.155  21.424   6.164
 4044POPC   GL252250   8.115  21.425   6.164
 4044POPC   C1A52251   8.225  21.414   6.464
 4044POPC   D2A52252   8.164  21.355   6.764
 4044POPC   C3A52253   8.183  21.370   7.064
 4044POPC   C4A52254   8.213  21.428   7.364
 4044POPC   C1B52255   7.993  21.559   6.464
 4044POPC   C2B52256   7.984  21.513   6.764
 4044POPC   C3B52257   8.035  21.570   7.064
 4044POPC   C4B52258   8.016  21.594   7.364
 4045POPC   NC352259  37.679  26.066   5.564
 4045POPC   PO452260  37.711  26.049   5.864
 4045POPC   GL152261  37.728  26.050   6.164
 4045POPC   GL252262  37.530  26.075   6.164
 4045POPC   C1A52263  37.673  26.084   6.464
 4045POPC   D2A52264  37.699  26.012   6.764
 4045POPC   C3A52265  37.656  26.037   7.064
 4045POPC   C4A52266  37.724  26.062   7.364
 4045POPC   C1B52267  37.455  26.036   6.464
 4045POPC   C2B52268  37.425  26.100   6.764
 4045POPC   C3B52269  37.404  26.056   7.064
 4045POPC   C4B52270  37.391  26.110   7.364
 4046POPC   NC352271  41.527  12.866   5.564
 4046POPC   PO452272  41.579  12.878   5.864
 4046POPC   GL152273  41.551  12.878   6.164
 4046POPC   GL252274  41.658  12.755   6.164
 4046POPC   C1A52275  41.590  12.804   6.464
 4046POPC   D2A52276  41.553  12.852   6.764
 4046POPC   C3A52277  41.541  12.892   7.064
 4046POPC   C4A52278  41.522  12.859   7.364
 4046POPC   C1B52279  41.734  12.632   6.464
 4046POPC   C2B52280  41.647  12.639   6.764
 4046POPC   C3B52281  41.691  12.687   7.064
 4046POPC   C4B52282  41.721  12.603   7.364
 4047POPC   NC352283  13.610   8.993   5.564
 4047POPC   PO452284  13.617   9.021   5.864
 4047POPC   GL152285  13.621   9.015   6.164
 4047POPC   GL252286  13.525   9.098   6.164
 4047POPC   C1A52287  13.627   8.972   6.464
 4047POPC   D2A52288  13.606   8.936   6.764
 4047POPC   C3A52289  13.638   8.938   7.064
 4047POPC   C4A52290  13.628   8.932   7.364
 4047POPC   C1B52291  13.519   9.190   6.464
 4047POPC   C2B52292  13.516   9.239   6.764
 4047POPC   C3B52293  13.550   9.173   7.064
 4047POPC   C4B52294  13.497   9.201   7.364
 4048POPC   NC352295  12.103  23.670   5.564
 4048POPC   PO452296  12.073  23.672   5.864
 4048POPC   GL152297  12.092  23.730   6.164
 4048POPC   GL252298  11.929  23.707   6.164
 4048POPC   C1A52299  12.110  23.732   6.464
 4048POPC   D2A52300  12.030  23.691   6.764
 4048POPC   C3A52301  12.105  23.751   7.064
 4048POPC   C4A52302  12.113  23.683   7.364
 4048POPC   C1B52303  11.816  23.746   6.464
 4048POPC   C2B52304  11.860  23.782   6.764
 4048POPC   C3B52305  11.815  23.761   7.064
 4048POPC   C4B52306  11.880  23.747   7.364
 4049POPC   NC352307   4.281   6.613   5.564
 4049POPC   PO452308   4.352   6.686   5.864
 4049POPC   GL152309   4.330   6.681   6.164
 4049POPC   GL252310   4.356   6.766   6.164
 4049POPC   C1A52311   4.314   6.689   6.464
 4049POPC   D2A52312   4.290   6.684   6.764
 4049POPC   C3A52313   4.292   6.665   7.064
 4049POPC   C4A52314   4.323   6.619   7.364
 4049POPC   C1B52315   4.411   6.877   6.464
 4049POPC   C2B52316   4.434   6.834   6.764
 4049POPC   C3B52317   4.373   6.919   7.064
 4049POPC   C4B52318   4.358   6.865   7.364
 4050POPC   NC352319  28.395  26.772   5.564
 4050POPC   PO452320  28.348  26.793   5.864
 4050POPC   GL152321  28.341  26.863   6.164
 4050POPC   GL252322  28.537  26.867   6.164
 4050POPC   C1A52323  28.389  26.785   6.464
 4050POPC   D2A52324  28.393  26.858   6.764
 4050POPC   C3A52325  28.388  26.852   7.064
 4050POPC   C4A52326  28.386  26.777   7.364
 4050POPC   C1B52327  28.587  26.864   6.464
 4050POPC   C2B52328  28.626  26.868   6.764
 4050POPC   C3B52329  28.636  26.831   7.064
 4050POPC   C4B52330  28.614  26.833   7.364
 4051POPC   NC352331  27.637  23.669   5.564
 4051POPC   PO452332  27.625  23.688   5.864
 4051POPC   GL152333  27.564  23.684   6.164
 4051POPC   GL252334  27.534  23.852   6.164
 4051POPC   C1A52335  27.590  23.738   6.464
 4051POPC   D2A52336  27.582  23.702   6.764
 4051POPC   C3A52337  27.614  23.712   7.064
 4051POPC   C4A52338  27.565  23.761   7.364
 4051POPC   C1B52339  27.597  23.917   6.464
 4051POPC   C2B52340  27.592  24.004   6.764
 4051POPC   C3B52341  27.514  23.930   7.064
 4051POPC   C4B52342  27.525  23.934   7.364
 4052POPC   NC352343  33.766  14.355   5.564
 4052POPC   PO452344  33.836  14.403   5.864
 4052POPC   GL152345  33.806  14.416   6.164
 4052POPC   GL252346  33.841  14.237   6.164
 4052POPC   C1A52347  33.805  14.409   6.464
 4052POPC   D2A52348  33.778  14.424   6.764
 4052POPC   C3A52349  33.841  14.435   7.064
 4052POPC   C4A52350  33.778  14.368   7.364
 4052POPC   C1B52351  33.880  14.148   6.464
 4052POPC   C2B52352  33.869  14.163   6.764
 4052POPC   C3B52353  33.851  14.147   7.064
 4052POPC   C4B52354  33.888  14.169   7.364
 4053POPC   NC352355  37.693  44.651   5.564
 4053POPC   PO452356  37.661  44.712   5.864
 4053POPC   GL152357  37.707  44.654   6.164
 4053POPC   GL252358  37.571  44.677   6.164
 4053POPC   C1A52359  37.633  44.690   6.464
 4053POPC   D2A52360  37.699  44.677   6.764
 4053POPC   C3A52361  37.666  44.698   7.064
 4053POPC   C4A52362  37.654  44.641   7.364
 4053POPC   C1B52363  37.432  44.747   6.464
 4053POPC   C2B52364  37.416  44.737   6.764
 4053POPC   C3B52365  37.458  44.708   7.064
 4053POPC   C4B52366  37.384  44.682   7.364
 4054POPC   NC352367  15.914  39.272   5.564
 4054POPC   PO452368  15.919  39.183   5.864
 4054POPC   GL152369  15.960  39.269   6.164
 4054POPC   GL252370  15.996  39.122   6.164
 4054POPC   C1A52371  15.984  39.199   6.464
 4054POPC   D2A52372  15.987  39.252   6.764
 4054POPC   C3A52373  15.916  39.240   7.064
 4054POPC   C4A52374  15.953  39.197   7.364
 4054POPC   C1B52375  16.022  38.996   6.464
 4054POPC   C2B52376  16.004  39.000   6.764
 4054POPC   C3B52377  16.071  39.006   7.064
 4054POPC   C4B52378  16.040  38.963   7.364
 4055POPC   NC352379   7.432   1.252   5.564
 4055POPC   PO452380   7.405   1.248   5.864
 4055POPC   GL152381   7.393   1.243   6.164
 4055POPC   GL252382   7.491   1.291   6.164
 4055POPC   C1A52383   7.387   1.241   6.464
 4055POPC   D2A52384   7.469   1.186   6.764
 4055POPC   C3A52385   7.448   1.238   7.064
 4055POPC   C4A52386   7.411   1.229   7.364
 4055POPC   C1B52387   7.443   1.410   6.464
 4055POPC   C2B52388   7.493   1.411   6.764
 4055POPC   C3B52389   7.457   1.467   7.064
 4055POPC   C4B52390   7.473   1.449   7.364
 4056POPC   NC352391  44.626  22.909   5.564
 4056POPC   PO452392  44.637  22.914   5.864
 4056POPC   GL152393  44.694  22.963   6.164
 4056POPC   GL252394  44.727  22.877   6.164
 4056POPC   C1A52395  44.644  22.931   6.464
 4056POPC   D2A52396  44.693  22.904   6.764
 4056POPC   C3A52397  44.704  22.952   7.064
 4056POPC   C4A52398  44.696  22.889   7.364
 4056POPC   C1B52399  44.903  22.810   6.464
 4056POPC   C2B52400  44.917  22.783   6.764
 4056POPC   C3B52401  44.830  22.815   7.064
 4056POPC   C4B52402  44.870  22.840   7.364
 4057POPC   NC352403  38.412  19.010   5.564
 4057POPC   PO452404  38.448  19.016   5.864
 4057POPC   GL152405  38.454  19.083   6.164
 4057POPC   GL252406  38.552  19.166   6.164
 4057POPC   C1A52407  38.413  19.074   6.464
 4057POPC   D2A52408  38.477  19.084   6.764
 4057POPC   C3A52409  38.498  19.076   7.064
 4057POPC   C4A52410  38.455  19.046   7.364
 4057POPC   C1B52411  38.690  19.200   6.464
 4057POPC   C2B52412  38.645  19.242   6.764
 4057POPC   C3B52413  38.623  19.200   7.064
 4057POPC   C4B52414  38.613  19.155   7.364
 4058POPC   NC352415  16.720   2.772   5.564
 4058POPC   PO452416  16.770   2.809   5.864
 4058POPC   GL152417  16.725   2.753   6.164
 4058POPC   GL252418  16.701   2.661   6.164
 4058POPC   C1A52419  16.753   2.764   6.464
 4058POPC   D2A52420  16.718   2.741   6.764
 4058POPC   C3A52421  16.693   2.770   7.064
 4058POPC   C4A52422  16.772   2.777   7.364
 4058POPC   C1B52423  16.749   2.470   6.464
 4058POPC   C2B52424  16.758   2.489   6.764
 4058POPC   C3B52425  16.754   2.552   7.064
 4058POPC   C4B52426  16.760   2.495   7.364
 4059POPC   NC352427  12.102   3.511   5.564
 4059POPC   PO452428  12.052   3.510   5.864
 4059POPC   GL152429  12.097   3.535   6.164
 4059POPC   GL252430  12.183   3.448   6.164
 4059POPC   C1A52431  12.055   3.590   6.464
 4059POPC   D2A52432  12.089   3.591   6.764
 4059POPC   C3A52433  12.114   3.492   7.064
 4059POPC   C4A52434  12.067   3.576   7.364
 4059POPC   C1B52435  12.313   3.442   6.464
 4059POPC   C2B52436  12.239   3.414   6.764
 4059POPC   C3B52437  12.296   3.394   7.064
 4059POPC   C4B52438  12.280   3.358   7.364
 4060POPC   NC352439  26.796  31.519   5.564
 4060POPC   PO452440  26.817  31.424   5.864
 4060POPC   GL152441  26.854  31.461   6.164
 4060POPC   GL252442  26.752  31.361   6.164
 4060POPC   C1A52443  26.799  31.456   6.464
 4060POPC   D2A52444  26.780  31.426   6.764
 4060POPC   C3A52445  26.789  31.495   7.064
 4060POPC   C4A52446  26.817  31.472   7.364
 4060POPC   C1B52447  26.669  31.229   6.464
 4060POPC   C2B52448  26.697  31.217   6.764
 4060POPC   C3B52449  26.716  31.254   7.064
 4060POPC   C4B52450  26.699  31.220   7.364
 4061POPC   NC352451  33.006  34.576   5.564
 4061POPC   PO452452  33.046  34.540   5.864
 4061POPC   GL152453  33.036  34.621   6.164
 4061POPC   GL252454  33.176  34.580   6.164
 4061POPC   C1A52455  33.004  34.570   6.464
 4061POPC   D2A52456  33.019  34.566   6.764
 4061POPC   C3A52457  33.067  34.615   7.064
 4061POPC   C4A52458  32.975  34.599   7.364
 4061POPC   C1B52459  33.250  34.466   6.464
 4061POPC   C2B52460  33.226  34.529   6.764
 4061POPC   C3B52461  33.290  34.543   7.064
 4061POPC   C4B52462  33.213  34.545   7.364
 4062POPC   NC352463  12.039  35.346   5.564
 4062POPC   PO452464  12.062  35.341   5.864
 4062POPC   GL152465  12.071  35.330   6.164
 4062POPC   GL252466  11.966  35.424   6.164
 4062POPC   C1A52467  12.104  35.361   6.464
 4062POPC   D2A52468  12.080  35.361   6.764
 4062POPC   C3A52469  12.085  35.307   7.064
 4062POPC   C4A52470  12.097  35.396   7.364
 4062POPC   C1B52471  11.922  35.513   6.464
 4062POPC   C2B52472  11.856  35.511   6.764
 4062POPC   C3B52473  11.844  35.514   7.064
 4062POPC   C4B52474  11.842  35.520   7.364
 4063POPC   NC352475  43.900  15.909   5.564
 4063POPC   PO452476  43.928  15.960   5.864
 4063POPC   GL152477  43.879  15.949   6.164
 4063POPC   GL252478  44.018  15.894   6.164
 4063POPC   C1A52479  43.919  15.943   6.464
 4063POPC   D2A52480  43.916  16.005   6.764
 4063POPC   C3A52481  43.839  15.928   7.064
 4063POPC   C4A52482  43.909  15.995   7.364
 4063POPC   C1B52483  44.110  15.871   6.464
 4063POPC   C2B52484  44.127  15.835   6.764
 4063POPC   C3B52485  44.120  15.828   7.064
 4063POPC   C4B52486  44.141  15.830   7.364
 4064POPC   NC352487   8.932  38.456   5.564
 4064POPC   PO452488   8.953  38.409   5.864
 4064POPC   GL152489   9.018  38.420   6.164
 4064POPC   GL252490   8.839  38.373   6.164
 4064POPC   C1A52491   8.985  38.418   6.464
 4064POPC   D2A52492   8.924  38.413   6.764
 4064POPC   C3A52493   8.984  38.456   7.064
 4064POPC   C4A52494   8.983  38.421   7.364
 4064POPC   C1B52495   8.775  38.305   6.464
 4064POPC   C2B52496   8.782  38.327   6.764
 4064POPC   C3B52497   8.773  38.284   7.064
 4064POPC   C4B52498   8.800  38.260   7.364
 4065POPC   NC352499  10.486  22.124   5.564
 4065POPC   PO452500  10.500  22.122   5.864
 4065POPC   GL152501  10.542  22.151   6.164
 4065POPC   GL252502  10.606  22.135   6.164
 4065POPC   C1A52503  10.557  22.194   6.464
 4065POPC   D2A52504  10.504  22.114   6.764
 4065POPC   C3A52505  10.558  22.183   7.064
 4065POPC   C4A52506  10.556  22.201   7.364
 4065POPC   C1B52507  10.745  22.210   6.464
 4065POPC   C2B52508  10.735  22.222   6.764
 4065POPC   C3B52509  10.749  22.161   7.064
 4065POPC   C4B52510  10.759  22.229   7.364
 4066POPC   NC352511  39.203  23.722   5.564
 4066POPC   PO452512  39.212  23.701   5.864
 4066POPC   GL152513  39.185  23.673   6.164
 4066POPC   GL252514  39.310  23.818   6.164
 4066POPC   C1A52515  39.229  23.670   6.464
 4066POPC   D2A52516  39.188  23.710   6.764
 4066POPC   C3A52517  39.207  23.705   7.064
 4066POPC   C4A52518  39.221  23.751   7.364
 4066POPC   C1B52519  39.493  23.804   6.464
 4066POPC   C2B52520  39.414  23.826   6.764
 4066POPC   C3B52521  39.492  23.861   7.064
 4066POPC   C4B52522  39.426  23.867   7.364
 4067POPC   NC352523  16.740  22.984   5.564
 4067POPC   PO452524  16.696  22.899   5.864
 4067POPC   GL152525  16.731  22.969   6.164
 4067POPC   GL252526  16.623  22.925   6.164
 4067POPC   C1A52527  16.780  22.939   6.464
 4067POPC   D2A52528  16.723  22.935   6.764
 4067POPC   C3A52529  16.722  22.969   7.064
 4067POPC   C4A52530  16.744  22.961   7.364
 4067POPC   C1B52531  16.544  22.798   6.464
 4067POPC   C2B52532  16.487  22.869   6.764
 4067POPC   C3B52533  16.488  22.841   7.064
 4067POPC   C4B52534  16.532  22.867   7.364
 4068POPC   NC352535  32.984  25.255   5.564
 4068POPC   PO452536  33.035  25.288   5.864
 4068POPC   GL152537  33.048  25.302   6.164
 4068POPC   GL252538  32.980  25.130   6.164
 4068POPC   C1A52539  33.016  25.254   6.464
 4068POPC   D2A52540  33.008  25.250   6.764
 4068POPC   C3A52541  33.006  25.314   7.064
 4068POPC   C4A52542  33.068  25.292   7.364
 4068POPC   C1B52543  33.032  25.041   6.464
 4068POPC   C2B52544  32.937  25.028   6.764
 4068POPC   C3B52545  32.976  25.003   7.064
 4068POPC   C4B52546  32.988  24.985   7.364
 4069POPC   NC352547   9.013  29.159   5.564
 4069POPC   PO452548   8.980  29.158   5.864
 4069POPC   GL152549   9.020  29.127   6.164
 4069POPC   GL252550   9.040  28.994   6.164
 4069POPC   C1A52551   8.941  29.096   6.464
 4069POPC   D2A52552   8.982  29.126   6.764
 4069POPC   C3A52553   8.987  29.132   7.064
 4069POPC   C4A52554   8.985  29.169   7.364
 4069POPC   C1B52555   9.064  28.925   6.464
 4069POPC   C2B52556   9.074  28.946   6.764
 4069POPC   C3B52557   9.034  28.903   7.064
 4069POPC   C4B52558   9.037  28.937   7.364
 4070POPC   NC352559  19.020  19.027   5.564
 4070POPC   PO452560  19.093  19.052   5.864
 4070POPC   GL152561  19.061  19.011   6.164
 4070POPC   GL252562  18.988  19.139   6.164
 4070POPC   C1A52563  19.062  19.026   6.464
 4070POPC   D2A52564  19.097  19.083   6.764
 4070POPC   C3A52565  19.068  19.049   7.064
 4070POPC   C4A52566  19.020  19.089   7.364
 4070POPC   C1B52567  18.861  19.276   6.464
 4070POPC   C2B52568  18.930  19.218   6.764
 4070POPC   C3B52569  18.878  19.213   7.064
 4070POPC   C4B52570  18.924  19.280   7.364
 4071POPC   NC352571   7.400  29.117   5.564
 4071POPC   PO452572   7.404  29.189   5.864
 4071POPC   GL152573   7.439  29.146   6.164
 4071POPC   GL252574   7.350  28.980   6.164
 4071POPC   C1A52575   7.393  29.131   6.464
 4071POPC   D2A52576   7.419  29.119   6.764
 4071POPC   C3A52577   7.398  29.143   7.064
 4071POPC   C4A52578   7.422  29.127   7.364
 4071POPC   C1B52579   7.334  28.907   6.464
 4071POPC   C2B52580   7.383  28.907   6.764
 4071POPC   C3B52581   7.312  28.922   7.064
 4071POPC   C4B52582   7.359  28.929   7.364
 4072POPC   NC352583   9.761  14.409   5.564
 4072POPC   PO452584   9.702  14.371   5.864
 4072POPC   GL152585   9.787  14.427   6.164
 4072POPC   GL252586   9.718  14.314   6.164
 4072POPC   C1A52587   9.790  14.447   6.464
 4072POPC   D2A52588   9.789  14.355   6.764
 4072POPC   C3A52589   9.796  14.424   7.064
 4072POPC   C4A52590   9.779  14.377   7.364
 4072POPC   C1B52591   9.826  14.149   6.464
 4072POPC   C2B52592   9.762  14.111   6.764
 4072POPC   C3B52593   9.821  14.131   7.064
 4072POPC   C4B52594   9.836  14.110   7.364
 4073POPC   NC352595   5.833   8.987   5.564
 4073POPC   PO452596   5.916   8.941   5.864
 4073POPC   GL152597   5.844   8.936   6.164
 4073POPC   GL252598   5.903   8.817   6.164
 4073POPC   C1A52599   5.878   8.925   6.464
 4073POPC   D2A52600   5.872   9.014   6.764
 4073POPC   C3A52601   5.834   9.001   7.064
 4073POPC   C4A52602   5.869   8.959   7.364
 4073POPC   C1B52603   5.888   8.716   6.464
 4073POPC   C2B52604   5.882   8.727   6.764
 4073POPC   C3B52605   5.892   8.754   7.064
 4073POPC   C4B52606   5.885   8.742   7.364
 4074POPC   NC352607  28.350  19.095   5.564
 4074POPC   PO452608  28.375  19.060   5.864
 4074POPC   GL152609  28.376  19.089   6.164
 4074POPC   GL252610  28.281  19.106   6.164
 4074POPC   C1A52611  28.364  19.046   6.464
 4074POPC   D2A52612  28.330  19.018   6.764
 4074POPC   C3A52613  28.332  19.041   7.064
 4074POPC   C4A52614  28.325  19.043   7.364
 4074POPC   C1B52615  28.200  19.212   6.464
 4074POPC   C2B52616  28.151  19.256   6.764
 4074POPC   C3B52617  28.168  19.204   7.064
 4074POPC   C4B52618  28.220  19.193   7.364
 4075POPC   NC352619  19.854  32.247   5.564
 4075POPC   PO452620  19.884  32.240   5.864
 4075POPC   GL152621  19.824  32.248   6.164
 4075POPC   GL252622  19.863  32.150   6.164
 4075POPC   C1A52623  19.801  32.211   6.464
 4075POPC   D2A52624  19.801  32.253   6.764
 4075POPC   C3A52625  19.787  32.245   7.064
 4075POPC   C4A52626  19.802  32.199   7.364
 4075POPC   C1B52627  19.990  32.032   6.464
 4075POPC   C2B52628  20.037  32.046   6.764
 4075POPC   C3B52629  20.007  32.023   7.064
 4075POPC   C4B52630  19.976  32.097   7.364
 4076POPC   NC352631  19.815   3.532   5.564
 4076POPC   PO452632  19.864   3.576   5.864
 4076POPC   GL152633  19.786   3.545   6.164
 4076POPC   GL252634  19.942   3.486   6.164
 4076POPC   C1A52635  19.807   3.512   6.464
 4076POPC   D2A52636  19.810   3.514   6.764
 4076POPC   C3A52637  19.876   3.500   7.064
 4076POPC   C4A52638  19.847   3.574   7.364
 4076POPC   C1B52639  20.071   3.453   6.464
 4076POPC   C2B52640  20.061   3.510   6.764
 4076POPC   C3B52641  20.100   3.546   7.064
 4076POPC   C4B52642  20.130   3.500   7.364
 4077POPC   NC352643  33.043   6.689   5.564
 4077POPC   PO452644  33.018   6.642   5.864
 4077POPC   GL152645  33.054   6.683   6.164
 4077POPC   GL252646  32.981   6.557   6.164
 4077POPC   C1A52647  33.064   6.650   6.464
 4077POPC   D2A52648  33.051   6.628   6.764
 4077POPC   C3A52649  33.024   6.632   7.064
 4077POPC   C4A52650  33.047   6.656   7.364
 4077POPC   C1B52651  32.911   6.361   6.464
 4077POPC   C2B52652  32.976   6.368   6.764
 4077POPC   C3B52653  32.961   6.386   7.064
 4077POPC   C4B52654  32.958   6.439   7.364
 4078POPC   NC352655  30.655  29.123   5.564
 4078POPC   PO452656  30.719  29.139   5.864
 4078POPC   GL152657  30.687  29.135   6.164
 4078POPC   GL252658  30.714  29.008   6.164
 4078POPC   C1A52659  30.663  29.158   6.464
 4078POPC   D2A52660  30.678  29.161   6.764
 4078POPC   C3A52661  30.713  29.160   7.064
 4078POPC   C4A52662  30.734  29.141   7.364
 4078POPC   C1B52663  30.728  28.864   6.464
 4078POPC   C2B52664  30.794  28.891   6.764
 4078POPC   C3B52665  30.785  28.875   7.064
 4078POPC   C4B52666  30.738  28.918   7.364
 4079POPC   NC352667  13.611  12.100   5.564
 4079POPC   PO452668  13.594  12.090   5.864
 4079POPC   GL152669  13.578  12.037   6.164
 4079POPC   GL252670  13.673  12.159   6.164
 4079POPC   C1A52671  13.635  12.059   6.464
 4079POPC   D2A52672  13.596  12.076   6.764
 4079POPC   C3A52673  13.626  12.084   7.064
 4079POPC   C4A52674  13.651  12.033   7.364
 4079POPC   C1B52675  13.765  12.304   6.464
 4079POPC   C2B52676  13.777  12.304   6.764
 4079POPC   C3B52677  13.719  12.333   7.064
 4079POPC   C4B52678  13.739  12.332   7.364
 4080POPC   NC352679  32.987  26.863   5.564
 4080POPC   PO452680  32.988  26.851   5.864
 4080POPC   GL152681  33.073  26.813   6.164
 4080POPC   GL252682  32.983  26.914   6.164
 4080POPC   C1A52683  32.994  26.839   6.464
 4080POPC   D2A52684  32.995  26.795   6.764
 4080POPC   C3A52685  33.029  26.842   7.064
 4080POPC   C4A52686  33.073  26.779   7.364
 4080POPC   C1B52687  33.021  27.049   6.464
 4080POPC   C2B52688  32.975  27.105   6.764
 4080POPC   C3B52689  32.996  27.111   7.064
 4080POPC   C4B52690  33.018  27.100   7.364
 4081POPC   NC352691  32.294  26.006   5.564
 4081POPC   PO452692  32.284  26.045   5.864
 4081POPC   GL152693  32.298  26.051   6.164
 4081POPC   GL252694  32.300  26.122   6.164
 4081POPC   C1A52695  32.285  26.068   6.464
 4081POPC   D2A52696  32.216  26.086   6.764
 4081POPC   C3A52697  32.228  26.048   7.064
 4081POPC   C4A52698  32.298  26.081   7.364
 4081POPC   C1B52699  32.260  26.282   6.464
 4081POPC   C2B52700  32.321  26.259   6.764
 4081POPC   C3B52701  32.320  26.326   7.064
 4081POPC   C4B52702  32.269  26.242   7.364
 4082POPC   NC352703   2.795  14.407   5.564
 4082POPC   PO452704   2.716  14.438   5.864
 4082POPC   GL152705   2.717  14.386   6.164
 4082POPC   GL252706   2.741  14.484   6.164
 4082POPC   C1A52707   2.733  14.399   6.464
 4082POPC   D2A52708   2.750  14.392   6.764
 4082POPC   C3A52709   2.723  14.368   7.064
 4082POPC   C4A52710   2.808  14.388   7.364
 4082POPC   C1B52711   2.666  14.648   6.464
 4082POPC   C2B52712   2.750  14.693   6.764
 4082POPC   C3B52713   2.651  14.631   7.064
 4082POPC   C4B52714   2.708  14.619   7.364
 4083POPC   NC352715  17.463  36.151   5.564
 4083POPC   PO452716  17.478  36.160   5.864
 4083POPC   GL152717  17.513  36.086   6.164
 4083POPC   GL252718  17.356  36.153   6.164
 4083POPC   C1A52719  17.488  36.086   6.464
 4083POPC   D2A52720  17.525  36.153   6.764
 4083POPC   C3A52721  17.482  36.097   7.064
 4083POPC   C4A52722  17.505  36.150   7.364
 4083POPC   C1B52723  17.288  36.181   6.464
 4083POPC   C2B52724  17.294  36.159   6.764
 4083POPC   C3B52725  17.307  36.160   7.064
 4083POPC   C4B52726  17.306  36.232   7.364
 4084POPC   NC352727   3.556   6.655   5.564
 4084POPC   PO452728   3.498   6.615   5.864
 4084POPC   GL152729   3.582   6.620   6.164
 4084POPC   GL252730   3.712   6.627   6.164
 4084POPC   C1A52731   3.566   6.607   6.464
 4084POPC   D2A52732   3.512   6.654   6.764
 4084POPC   C3A52733   3.504   6.596   7.064
 4084POPC   C4A52734   3.582   6.596   7.364
 4084POPC   C1B52735   3.759   6.619   6.464
 4084POPC   C2B52736   3.742   6.704   6.764
 4084POPC   C3B52737   3.818   6.676   7.064
 4084POPC   C4B52738   3.760   6.705   7.364
 4085POPC   NC352739  15.983  43.108   5.564
 4085POPC   PO452740  15.979  43.133   5.864
 4085POPC   GL152741  15.975  43.141   6.164
 4085POPC   GL252742  15.892  43.237   6.164
 4085POPC   C1A52743  15.912  43.066   6.464
 4085POPC   D2A52744  16.004  43.157   6.764
 4085POPC   C3A52745  15.962  43.125   7.064
 4085POPC   C4A52746  15.991  43.087   7.364
 4085POPC   C1B52747  15.772  43.348   6.464
 4085POPC   C2B52748  15.810  43.348   6.764
 4085POPC   C3B52749  15.768  43.321   7.064
 4085POPC   C4B52750  15.780  43.301   7.364
 4086POPC   NC352751  33.824   0.482   5.564
 4086POPC   PO452752  33.754   0.485   5.864
 4086POPC   GL152753  33.792   0.405   6.164
 4086POPC   GL252754  33.650   0.412   6.164
 4086POPC   C1A52755  33.826   0.447   6.464
 4086POPC   D2A52756  33.817   0.460   6.764
 4086POPC   C3A52757  33.829   0.480   7.064
 4086POPC   C4A52758  33.755   0.469   7.364
 4086POPC   C1B52759  33.625   0.344   6.464
 4086POPC   C2B52760  33.596   0.278   6.764
 4086POPC   C3B52761  33.576   0.287   7.064
 4086POPC   C4B52762  33.568   0.285   7.364
 4087POPC   NC352763  13.635  35.389   5.564
 4087POPC   PO452764  13.607  35.312   5.864
 4087POPC   GL152765  13.671  35.387   6.164
 4087POPC   GL252766  13.789  35.349   6.164
 4087POPC   C1A52767  13.597  35.383   6.464
 4087POPC   D2A52768  13.593  35.337   6.764
 4087POPC   C3A52769  13.625  35.396   7.064
 4087POPC   C4A52770  13.664  35.319   7.364
 4087POPC   C1B52771  13.840  35.424   6.464
 4087POPC   C2B52772  13.875  35.385   6.764
 4087POPC   C3B52773  13.833  35.368   7.064
 4087POPC   C4B52774  13.894  35.383   7.364
 4088POPC   NC352775  42.333  43.133   5.564
 4088POPC   PO452776  42.299  43.110   5.864
 4088POPC   GL152777  42.365  43.065   6.164
 4088POPC   GL252778  42.241  43.023   6.164
 4088POPC   C1A52779  42.340  43.119   6.464
 4088POPC   D2A52780  42.370  43.096   6.764
 4088POPC   C3A52781  42.352  43.099   7.064
 4088POPC   C4A52782  42.299  43.152   7.364
 4088POPC   C1B52783  42.114  42.982   6.464
 4088POPC   C2B52784  42.176  42.967   6.764
 4088POPC   C3B52785  42.111  42.939   7.064
 4088POPC   C4B52786  42.160  42.947   7.364
 4089POPC   NC352787  22.180  43.118   5.564
 4089POPC   PO452788  22.206  43.153   5.864
 4089POPC   GL152789  22.158  43.115   6.164
 4089POPC   GL252790  22.319  43.206   6.164
 4089POPC   C1A52791  22.138  43.108   6.464
 4089POPC   D2A52792  22.124  43.066   6.764
 4089POPC   C3A52793  22.173  43.142   7.064
 4089POPC   C4A52794  22.118  43.096   7.364
 4089POPC   C1B52795  22.405  43.193   6.464
 4089POPC   C2B52796  22.441  43.214   6.764
 4089POPC   C3B52797  22.379  43.255   7.064
 4089POPC   C4B52798  22.394  43.243   7.364
 4090POPC   NC352799  13.586  32.981   5.564
 4090POPC   PO452800  13.614  32.985   5.864
 4090POPC   GL152801  13.604  33.016   6.164
 4090POPC   GL252802  13.514  32.927   6.164
 4090POPC   C1A52803  13.642  33.010   6.464
 4090POPC   D2A52804  13.649  33.043   6.764
 4090POPC   C3A52805  13.658  33.018   7.064
 4090POPC   C4A52806  13.604  33.048   7.364
 4090POPC   C1B52807  13.450  32.874   6.464
 4090POPC   C2B52808  13.486  32.836   6.764
 4090POPC   C3B52809  13.485  32.827   7.064
 4090POPC   C4B52810  13.497  32.875   7.364
 4091POPC   NC352811   8.148  18.246   5.564
 4091POPC   PO452812   8.160  18.315   5.864
 4091POPC   GL152813   8.225  18.249   6.164
 4091POPC   GL252814   8.225  18.193   6.164
 4091POPC   C1A52815   8.220  18.307   6.464
 4091POPC   D2A52816   8.226  18.326   6.764
 4091POPC   C3A52817   8.230  18.275   7.064
 4091POPC   C4A52818   8.184  18.292   7.364
 4091POPC   C1B52819   8.334  18.100   6.464
 4091POPC   C2B52820   8.368  18.047   6.764
 4091POPC   C3B52821   8.332  18.055   7.064
 4091POPC   C4B52822   8.363  18.103   7.364
 4092POPC   NC352823  23.760  43.080   5.564
 4092POPC   PO452824  23.725  43.069   5.864
 4092POPC   GL152825  23.704  43.106   6.164
 4092POPC   GL252826  23.631  43.188   6.164
 4092POPC   C1A52827  23.702  43.092   6.464
 4092POPC   D2A52828  23.716  43.142   6.764
 4092POPC   C3A52829  23.713  43.153   7.064
 4092POPC   C4A52830  23.669  43.106   7.364
 4092POPC   C1B52831  23.453  43.178   6.464
 4092POPC   C2B52832  23.437  43.235   6.764
 4092POPC   C3B52833  23.438  43.156   7.064
 4092POPC   C4B52834  23.504  43.221   7.364
 4093POPC   NC352835   8.213  36.110   5.564
 4093POPC   PO452836   8.214  36.113   5.864
 4093POPC   GL152837   8.202  36.081   6.164
 4093POPC   GL252838   8.283  36.002   6.164
 4093POPC   C1A52839   8.203  36.090   6.464
 4093POPC   D2A52840   8.188  36.109   6.764
 4093POPC   C3A52841   8.183  36.080   7.064
 4093POPC   C4A52842   8.187  36.133   7.364
 4093POPC   C1B52843   8.315  35.869   6.464
 4093POPC   C2B52844   8.307  35.887   6.764
 4093POPC   C3B52845   8.361  35.906   7.064
 4093POPC   C4B52846   8.334  35.942   7.364
 4094POPC   NC352847  27.576  43.081   5.564
 4094POPC   PO452848  27.611  43.129   5.864
 4094POPC   GL152849  27.594  43.081   6.164
 4094POPC   GL252850  27.493  43.175   6.164
 4094POPC   C1A52851  27.544  43.087   6.464
 4094POPC   D2A52852  27.601  43.122   6.764
 4094POPC   C3A52853  27.569  43.157   7.064
 4094POPC   C4A52854  27.554  43.069   7.364
 4094POPC   C1B52855  27.340  43.219   6.464
 4094POPC   C2B52856  27.341  43.235   6.764
 4094POPC   C3B52857  27.387  43.280   7.064
 4094POPC   C4B52858  27.401  43.243   7.364
 4095POPC   NC352859  26.841   8.164   5.564
 4095POPC   PO452860  26.846   8.194   5.864
 4095POPC   GL152861  26.815   8.242   6.164
 4095POPC   GL252862  26.751   8.212   6.164
 4095POPC   C1A52863  26.794   8.196   6.464
 4095POPC   D2A52864  26.859   8.182   6.764
 4095POPC   C3A52865  26.814   8.205   7.064
 4095POPC   C4A52866  26.855   8.232   7.364
 4095POPC   C1B52867  26.611   8.293   6.464
 4095POPC   C2B52868  26.636   8.268   6.764
 4095POPC   C3B52869  26.585   8.271   7.064
 4095POPC   C4B52870  26.623   8.322   7.364
 4096POPC   NC352871  29.900  11.293   5.564
 4096POPC   PO452872  29.918  11.278   5.864
 4096POPC   GL152873  29.913  11.328   6.164
 4096POPC   GL252874  29.933  11.183   6.164
 4096POPC   C1A52875  29.918  11.283   6.464
 4096POPC   D2A52876  29.922  11.325   6.764
 4096POPC   C3A52877  29.882  11.349   7.064
 4096POPC   C4A52878  29.921  11.325   7.364
 4096POPC   C1B52879  29.983  11.093   6.464
 4096POPC   C2B52880  30.021  11.098   6.764
 4096POPC   C3B52881  30.008  11.063   7.064
 4096POPC   C4B52882  30.003  11.090   7.364
 4097POPC   NC352883  14.411  36.898   5.564
 4097POPC   PO452884  14.415  36.865   5.864
 4097POPC   GL152885  14.395  36.864   6.164
 4097POPC   GL252886  14.502  36.836   6.164
 4097POPC   C1A52887  14.426  36.917   6.464
 4097POPC   D2A52888  14.389  36.907   6.764
 4097POPC   C3A52889  14.368  36.913   7.064
 4097POPC   C4A52890  14.376  36.919   7.364
 4097POPC   C1B52891  14.514  36.730   6.464
 4097POPC   C2B52892  14.557  36.735   6.764
 4097POPC   C3B52893  14.525  36.700   7.064
 4097POPC   C4B52894  14.554  36.715   7.364
 4098POPC   NC352895  38.422  44.627   5.564
 4098POPC   PO452896  38.434  44.671   5.864
 4098POPC   GL152897  38.430  44.651   6.164
 4098POPC   GL252898  38.596  44.608   6.164
 4098POPC   C1A52899  38.448  44.707   6.464
 4098POPC   D2A52900  38.488  44.624   6.764
 4098POPC   C3A52901  38.458  44.621   7.064
 4098POPC   C4A52902  38.469  44.708   7.364
 4098POPC   C1B52903  38.672  44.612   6.464
 4098POPC   C2B52904  38.730  44.581   6.764
 4098POPC   C3B52905  38.726  44.637   7.064
 4098POPC   C4B52906  38.697  44.576   7.364
 4099POPC   NC352907  29.192   8.207   5.564
 4099POPC   PO452908  29.115   8.147   5.864
 4099POPC   GL152909  29.106   8.177   6.164
 4099POPC   GL252910  29.103   8.301   6.164
 4099POPC   C1A52911  29.173   8.206   6.464
 4099POPC   D2A52912  29.151   8.215   6.764
 4099POPC   C3A52913  29.152   8.203   7.064
 4099POPC   C4A52914  29.104   8.176   7.364
 4099POPC   C1B52915  29.130   8.486   6.464
 4099POPC   C2B52916  29.108   8.443   6.764
 4099POPC   C3B52917  29.160   8.479   7.064
 4099POPC   C4B52918  29.144   8.416   7.364
 4100POPC   NC352919  31.451  10.516   5.564
 4100POPC   PO452920  31.504  10.502   5.864
 4100POPC   GL152921  31.463  10.477   6.164
 4100POPC   GL252922  31.443  10.435   6.164
 4100POPC   C1A52923  31.476  10.502   6.464
 4100POPC   D2A52924  31.479  10.478   6.764
 4100POPC   C3A52925  31.502  10.486   7.064
 4100POPC   C4A52926  31.450  10.564   7.364
 4100POPC   C1B52927  31.380  10.284   6.464
 4100POPC   C2B52928  31.373  10.353   6.764
 4100POPC   C3B52929  31.378  10.299   7.064
 4100POPC   C4B52930  31.304  10.304   7.364
 4101POPC   NC352931  40.795  18.283   5.564
 4101POPC   PO452932  40.770  18.306   5.864
 4101POPC   GL152933  40.734  18.309   6.164
 4101POPC   GL252934  40.898  18.226   6.164
 4101POPC   C1A52935  40.746  18.289   6.464
 4101POPC   D2A52936  40.778  18.269   6.764
 4101POPC   C3A52937  40.793  18.262   7.064
 4101POPC   C4A52938  40.780  18.321   7.364
 4101POPC   C1B52939  41.052  18.283   6.464
 4101POPC   C2B52940  41.003  18.282   6.764
 4101POPC   C3B52941  41.032  18.316   7.064
 4101POPC   C4B52942  41.008  18.276   7.364
 4102POPC   NC352943  27.632  25.242   5.564
 4102POPC   PO452944  27.588  25.253   5.864
 4102POPC   GL152945  27.588  25.237   6.164
 4102POPC   GL252946  27.431  25.189   6.164
 4102POPC   C1A52947  27.586  25.231   6.464
 4102POPC   D2A52948  27.553  25.220   6.764
 4102POPC   C3A52949  27.591  25.269   7.064
 4102POPC   C4A52950  27.557  25.282   7.364
 4102POPC   C1B52951  27.362  25.151   6.464
 4102POPC   C2B52952  27.405  25.116   6.764
 4102POPC   C3B52953  27.355  25.197   7.064
 4102POPC   C4B52954  27.344  25.162   7.364
 4103POPC   NC352955  28.400   3.536   5.564
 4103POPC   PO452956  28.390   3.509   5.864
 4103POPC   GL152957  28.417   3.575   6.164
 4103POPC   GL252958  28.278   3.568   6.164
 4103POPC   C1A52959  28.365   3.514   6.464
 4103POPC   D2A52960  28.388   3.569   6.764
 4103POPC   C3A52961  28.373   3.578   7.064
 4103POPC   C4A52962  28.366   3.514   7.364
 4103POPC   C1B52963  28.184   3.682   6.464
 4103POPC   C2B52964  28.194   3.694   6.764
 4103POPC   C3B52965  28.141   3.722   7.064
 4103POPC   C4B52966  28.154   3.661   7.364
 4104POPC   NC352967  37.669  34.615   5.564
 4104POPC   PO452968  37.643  34.610   5.864
 4104POPC   GL152969  37.635  34.597   6.164
 4104POPC   GL252970  37.756  34.640   6.164
 4104POPC   C1A52971  37.650  34.583   6.464
 4104POPC   D2A52972  37.709  34.566   6.764
 4104POPC   C3A52973  37.639  34.619   7.064
 4104POPC   C4A52974  37.716  34.547   7.364
 4104POPC   C1B52975  37.818  34.840   6.464
 4104POPC   C2B52976  37.782  34.755   6.764
 4104POPC   C3B52977  37.765  34.835   7.064
 4104POPC   C4B52978  37.766  34.813   7.364
 4105POPC   NC352979   2.001  22.942   5.564
 4105POPC   PO452980   2.011  22.914   5.864
 4105POPC   GL152981   1.998  22.941   6.164
 4105POPC   GL252982   1.903  23.058   6.164
 4105POPC   C1A52983   1.961  22.956   6.464
 4105POPC   D2A52984   2.031  22.969   6.764
 4105POPC   C3A52985   2.023  22.962   7.064
 4105POPC   C4A52986   1.961  22.948   7.364
 4105POPC   C1B52987   1.845  23.153   6.464
 4105POPC   C2B52988   1.839  23.126   6.764
 4105POPC   C3B52989   1.808  23.115   7.064
 4105POPC   C4B52990   1.830  23.137   7.364
 4106POPC   NC352991   7.442  10.522   5.564
 4106POPC   PO452992   7.399  10.483   5.864
 4106POPC   GL152993   7.393  10.566   6.164
 4106POPC   GL252994   7.460  10.627   6.164
 4106POPC   C1A52995   7.426  10.521   6.464
 4106POPC   D2A52996   7.417  10.558   6.764
 4106POPC   C3A52997   7.451  10.515   7.064
 4106POPC   C4A52998   7.450  10.564   7.364
 4106POPC   C1B52999   7.580  10.737   6.464
 4106POPC   C2B53000   7.533  10.750   6.764
 4106POPC   C3B53001   7.564  10.737   7.064
 4106POPC   C4B53002   7.593  10.749   7.364
 4107POPC   NC353003  40.753   3.497   5.564
 4107POPC   PO453004  40.781   3.562   5.864
 4107POPC   GL153005  40.744   3.547   6.164
 4107POPC   GL253006  40.824   3.653   6.164
 4107POPC   C1A53007  40.734   3.556   6.464
 4107POPC   D2A53008  40.809   3.522   6.764
 4107POPC   C3A53009  40.806   3.517   7.064
 4107POPC   C4A53010  40.811   3.567   7.364
 4107POPC   C1B53011  40.761   3.815   6.464
 4107POPC   C2B53012  40.763   3.763   6.764
 4107POPC   C3B53013  40.788   3.826   7.064
 4107POPC   C4B53014  40.785   3.814   7.364
 4108POPC   NC353015   3.558  20.578   5.564
 4108POPC   PO453016   3.552  20.651   5.864
 4108POPC   GL153017   3.528  20.598   6.164
 4108POPC   GL253018   3.675  20.559   6.164
 4108POPC   C1A53019   3.548  20.578   6.464
 4108POPC   D2A53020   3.590  20.638   6.764
 4108POPC   C3A53021   3.541  20.562   7.064
 4108POPC   C4A53022   3.539  20.599   7.364
 4108POPC   C1B53023   3.762  20.483   6.464
 4108POPC   C2B53024   3.766  20.491   6.764
 4108POPC   C3B53025   3.761  20.479   7.064
 4108POPC   C4B53026   3.795  20.530   7.364
 4109POPC   NC353027  27.608  28.367   5.564
 4109POPC   PO453028  27.579  28.412   5.864
 4109POPC   GL153029  27.603  28.378   6.164
 4109POPC   GL253030  27.512  28.230   6.164
 4109POPC   C1A53031  27.622  28.418   6.464
 4109POPC   D2A53032  27.560  28.383   6.764
 4109POPC   C3A53033  27.556  28.338   7.064
 4109POPC   C4A53034  27.638  28.402   7.364
 4109POPC   C1B53035  27.519  28.172   6.464
 4109POPC   C2B53036  27.496  28.158   6.764
 4109POPC   C3B53037  27.540  28.093   7.064
 4109POPC   C4B53038  27.558  28.117   7.364
 4110POPC   NC353039  30.678   2.006   5.564
 4110POPC   PO453040  30.714   2.026   5.864
 4110POPC   GL153041  30.681   1.986   6.164
 4110POPC   GL253042  30.596   2.084   6.164
 4110POPC   C1A53043  30.676   1.951   6.464
 4110POPC   D2A53044  30.657   1.980   6.764
 4110POPC   C3A53045  30.740   2.032   7.064
 4110POPC   C4A53046  30.737   2.024   7.364
 4110POPC   C1B53047  30.461   2.069   6.464
 4110POPC   C2B53048  30.492   2.092   6.764
 4110POPC   C3B53049  30.439   2.099   7.064
 4110POPC   C4B53050  30.496   2.095   7.364
 4111POPC   NC353051   6.612  11.291   5.564
 4111POPC   PO453052   6.645  11.312   5.864
 4111POPC   GL153053   6.637  11.300   6.164
 4111POPC   GL253054   6.512  11.246   6.164
 4111POPC   C1A53055   6.654  11.349   6.464
 4111POPC   D2A53056   6.621  11.294   6.764
 4111POPC   C3A53057   6.611  11.303   7.064
 4111POPC   C4A53058   6.663  11.332   7.364
 4111POPC   C1B53059   6.445  11.255   6.464
 4111POPC   C2B53060   6.391  11.236   6.764
 4111POPC   C3B53061   6.357  11.290   7.064
 4111POPC   C4B53062   6.433  11.227   7.364
 4112POPC   NC353063  14.376  26.840   5.564
 4112POPC   PO453064  14.354  26.816   5.864
 4112POPC   GL153065  14.403  26.844   6.164
 4112POPC   GL253066  14.317  26.958   6.164
 4112POPC   C1A53067  14.368  26.831   6.464
 4112POPC   D2A53068  14.377  26.805   6.764
 4112POPC   C3A53069  14.406  26.838   7.064
 4112POPC   C4A53070  14.394  26.816   7.364
 4112POPC   C1B53071  14.300  27.071   6.464
 4112POPC   C2B53072  14.317  27.095   6.764
 4112POPC   C3B53073  14.357  27.045   7.064
 4112POPC   C4B53074  14.285  27.090   7.364
 4113POPC   NC353075   8.179  17.541   5.564
 4113POPC   PO453076   8.198  17.555   5.864
 4113POPC   GL153077   8.162  17.487   6.164
 4113POPC   GL253078   8.336  17.495   6.164
 4113POPC   C1A53079   8.237  17.476   6.464
 4113POPC   D2A53080   8.202  17.512   6.764
 4113POPC   C3A53081   8.165  17.529   7.064
 4113POPC   C4A53082   8.231  17.542   7.364
 4113POPC   C1B53083   8.459  17.557   6.464
 4113POPC   C2B53084   8.466  17.564   6.764
 4113POPC   C3B53085   8.444  17.548   7.064
 4113POPC   C4B53086   8.408  17.475   7.364
 4114POPC   NC353087  33.814  22.956   5.564
 4114POPC   PO453088  33.850  22.891   5.864
 4114POPC   GL153089  33.796  22.983   6.164
 4114POPC   GL253090  33.802  23.074   6.164
 4114POPC   C1A53091  33.751  22.899   6.464
 4114POPC   D2A53092  33.847  22.936   6.764
 4114POPC   C3A53093  33.832  22.980   7.064
 4114POPC   C4A53094  33.808  22.935   7.364
 4114POPC   C1B53095  33.761  23.158   6.464
 4114POPC   C2B53096  33.722  23.220   6.764
 4114POPC   C3B53097  33.720  23.156   7.064
 4114POPC   C4B53098  33.701  23.182   7.364
 4115POPC   NC353099  42.348  32.240   5.564
 4115POPC   PO453100  42.350  32.204   5.864
 4115POPC   GL153101  42.324  32.212   6.164
 4115POPC   GL253102  42.220  32.311   6.164
 4115POPC   C1A53103  42.334  32.293   6.464
 4115POPC   D2A53104  42.345  32.284   6.764
 4115POPC   C3A53105  42.371  32.235   7.064
 4115POPC   C4A53106  42.324  32.280   7.364
 4115POPC   C1B53107  42.190  32.452   6.464
 4115POPC   C2B53108  42.175  32.372   6.764
 4115POPC   C3B53109  42.154  32.393   7.064
 4115POPC   C4B53110  42.127  32.370   7.364
 4116POPC   NC353111  22.962  33.036   5.564
 4116POPC   PO453112  22.910  33.056   5.864
 4116POPC   GL153113  22.971  33.022   6.164
 4116POPC   GL253114  23.061  33.060   6.164
 4116POPC   C1A53115  22.973  33.005   6.464
 4116POPC   D2A53116  22.980  32.995   6.764
 4116POPC   C3A53117  22.934  33.017   7.064
 4116POPC   C4A53118  22.928  33.031   7.364
 4116POPC   C1B53119  23.157  33.089   6.464
 4116POPC   C2B53120  23.197  33.079   6.764
 4116POPC   C3B53121  23.154  33.134   7.064
 4116POPC   C4B53122  23.139  33.046   7.364
 4117POPC   NC353123  23.697  16.763   5.564
 4117POPC   PO453124  23.735  16.703   5.864
 4117POPC   GL153125  23.714  16.745   6.164
 4117POPC   GL253126  23.698  16.667   6.164
 4117POPC   C1A53127  23.713  16.753   6.464
 4117POPC   D2A53128  23.703  16.730   6.764
 4117POPC   C3A53129  23.692  16.747   7.064
 4117POPC   C4A53130  23.680  16.763   7.364
 4117POPC   C1B53131  23.638  16.486   6.464
 4117POPC   C2B53132  23.596  16.477   6.764
 4117POPC   C3B53133  23.581  16.561   7.064
 4117POPC   C4B53134  23.602  16.510   7.364
 4118POPC   NC353135  12.114  43.873   5.564
 4118POPC   PO453136  12.034  43.923   5.864
 4118POPC   GL153137  12.125  43.919   6.164
 4118POPC   GL253138  11.927  43.936   6.164
 4118POPC   C1A53139  12.068  43.887   6.464
 4118POPC   D2A53140  12.070  43.845   6.764
 4118POPC   C3A53141  12.085  43.863   7.064
 4118POPC   C4A53142  12.038  43.899   7.364
 4118POPC   C1B53143  11.862  43.878   6.464
 4118POPC   C2B53144  11.852  43.942   6.764
 4118POPC   C3B53145  11.842  43.919   7.064
 4118POPC   C4B53146  11.857  43.919   7.364
 4119POPC   NC353147   2.025   8.993   5.564
 4119POPC   PO453148   2.033   9.012   5.864
 4119POPC   GL153149   2.022   8.929   6.164
 4119POPC   GL253150   1.884   8.856   6.164
 4119POPC   C1A53151   2.026   8.951   6.464
 4119POPC   D2A53152   2.011   8.979   6.764
 4119POPC   C3A53153   2.036   8.960   7.064
 4119POPC   C4A53154   2.031   9.005   7.364
 4119POPC   C1B53155   1.820   8.782   6.464
 4119POPC   C2B53156   1.882   8.751   6.764
 4119POPC   C3B53157   1.823   8.779   7.064
 4119POPC   C4B53158   1.908   8.790   7.364
 4120POPC   NC353159  26.832  43.146   5.564
 4120POPC   PO453160  26.774  43.131   5.864
 4120POPC   GL153161  26.864  43.091   6.164
 4120POPC   GL253162  26.721  43.020   6.164
 4120POPC   C1A53163  26.808  43.107   6.464
 4120POPC   D2A53164  26.865  43.112   6.764
 4120POPC   C3A53165  26.804  43.114   7.064
 4120POPC   C4A53166  26.792  43.095   7.364
 4120POPC   C1B53167  26.583  43.015   6.464
 4120POPC   C2B53168  26.604  42.980   6.764
 4120POPC   C3B53169  26.620  43.000   7.064
 4120POPC   C4B53170  26.632  42.953   7.364
 4121POPC   NC353171   6.622  39.996   5.564
 4121POPC   PO453172   6.654  40.043   5.864
 4121POPC   GL153173   6.604  39.999   6.164
 4121POPC   GL253174   6.559  40.056   6.164
 4121POPC   C1A53175   6.599  40.055   6.464
 4121POPC   D2A53176   6.665  40.023   6.764
 4121POPC   C3A53177   6.685  40.022   7.064
 4121POPC   C4A53178   6.638  39.963   7.364
 4121POPC   C1B53179   6.458  40.162   6.464
 4121POPC   C2B53180   6.415  40.155   6.764
 4121POPC   C3B53181   6.427  40.172   7.064
 4121POPC   C4B53182   6.414  40.110   7.364
 4122POPC   NC353183  19.101  44.699   5.564
 4122POPC   PO453184  19.063  44.652   5.864
 4122POPC   GL153185  19.068  44.613   6.164
 4122POPC   GL253186  19.175  44.561   6.164
 4122POPC   C1A53187  19.032  44.651   6.464
 4122POPC   D2A53188  19.031  44.650   6.764
 4122POPC   C3A53189  19.094  44.659   7.064
 4122POPC   C4A53190  19.029  44.687   7.364
 4122POPC   C1B53191  19.281  44.512   6.464
 4122POPC   C2B53192  19.239  44.491   6.764
 4122POPC   C3B53193  19.297  44.571   7.064
 4122POPC   C4B53194  19.288  44.507   7.364
 4123POPC   NC353195   8.167  34.592   5.564
 4123POPC   PO453196   8.221  34.565   5.864
 4123POPC   GL153197   8.203  34.580   6.164
 4123POPC   GL253198   8.262  34.492   6.164
 4123POPC   C1A53199   8.205  34.610   6.464
 4123POPC   D2A53200   8.227  34.580   6.764
 4123POPC   C3A53201   8.198  34.575   7.064
 4123POPC   C4A53202   8.195  34.604   7.364
 4123POPC   C1B53203   8.330  34.357   6.464
 4123POPC   C2B53204   8.388  34.344   6.764
 4123POPC   C3B53205   8.295  34.334   7.064
 4123POPC   C4B53206   8.324  34.344   7.364
 4124POPC   NC353207  40.752  19.009   5.564
 4124POPC   PO453208  40.743  19.066   5.864
 4124POPC   GL153209  40.776  19.021   6.164
 4124POPC   GL253210  40.639  18.952   6.164
 4124POPC   C1A53211  40.797  19.041   6.464
 4124POPC   D2A53212  40.788  19.017   6.764
 4124POPC   C3A53213  40.777  19.024   7.064
 4124POPC   C4A53214  40.754  19.098   7.364
 4124POPC   C1B53215  40.619  18.864   6.464
 4124POPC   C2B53216  40.609  18.873   6.764
 4124POPC   C3B53217  40.551  18.878   7.064
 4124POPC   C4B53218  40.588  18.898   7.364
 4125POPC   NC353219  21.369  33.805   5.564
 4125POPC   PO453220  21.426  33.758   5.864
 4125POPC   GL153221  21.367  33.808   6.164
 4125POPC   GL253222  21.403  33.967   6.164
 4125POPC   C1A53223  21.349  33.848   6.464
 4125POPC   D2A53224  21.386  33.810   6.764
 4125POPC   C3A53225  21.409  33.767   7.064
 4125POPC   C4A53226  21.382  33.768   7.364
 4125POPC   C1B53227  21.310  34.042   6.464
 4125POPC   C2B53228  21.398  34.053   6.764
 4125POPC   C3B53229  21.375  34.053   7.064
 4125POPC   C4B53230  21.393  34.014   7.364
 4126POPC   NC353231  33.053   2.723   5.564
 4126POPC   PO453232  33.024   2.742   5.864
 4126POPC   GL153233  33.054   2.752   6.164
 4126POPC   GL253234  33.019   2.889   6.164
 4126POPC   C1A53235  32.981   2.729   6.464
 4126POPC   D2A53236  33.048   2.754   6.764
 4126POPC   C3A53237  33.022   2.762   7.064
 4126POPC   C4A53238  33.041   2.776   7.364
 4126POPC   C1B53239  32.953   3.054   6.464
 4126POPC   C2B53240  32.946   3.036   6.764
 4126POPC   C3B53241  32.981   3.045   7.064
 4126POPC   C4B53242  32.966   3.033   7.364
 4127POPC   NC353243  40.807   8.958   5.564
 4127POPC   PO453244  40.785   8.954   5.864
 4127POPC   GL153245  40.743   8.937   6.164
 4127POPC   GL253246  40.874   8.973   6.164
 4127POPC   C1A53247  40.786   8.977   6.464
 4127POPC   D2A53248  40.824   8.957   6.764
 4127POPC   C3A53249  40.832   8.931   7.064
 4127POPC   C4A53250  40.788   8.998   7.364
 4127POPC   C1B53251  41.070   8.964   6.464
 4127POPC   C2B53252  41.054   8.927   6.764
 4127POPC   C3B53253  41.064   9.016   7.064
 4127POPC   C4B53254  41.070   9.013   7.364
 4128POPC   NC353255  39.188  27.547   5.564
 4128POPC   PO453256  39.203  27.630   5.864
 4128POPC   GL153257  39.187  27.632   6.164
 4128POPC   GL253258  39.178  27.719   6.164
 4128POPC   C1A53259  39.263  27.634   6.464
 4128POPC   D2A53260  39.216  27.625   6.764
 4128POPC   C3A53261  39.239  27.552   7.064
 4128POPC   C4A53262  39.236  27.605   7.364
 4128POPC   C1B53263  39.248  27.825   6.464
 4128POPC   C2B53264  39.221  27.831   6.764
 4128POPC   C3B53265  39.235  27.805   7.064
 4128POPC   C4B53266  39.178  27.843   7.364
 4129POPC   NC353267  26.815  15.920   5.564
 4129POPC   PO453268  26.849  15.947   5.864
 4129POPC   GL153269  26.847  15.909   6.164
 4129POPC   GL253270  26.685  15.932   6.164
 4129POPC   C1A53271  26.770  15.980   6.464
 4129POPC   D2A53272  26.859  15.943   6.764
 4129POPC   C3A53273  26.847  15.974   7.064
 4129POPC   C4A53274  26.786  15.976   7.364
 4129POPC   C1B53275  26.551  15.874   6.464
 4129POPC   C2B53276  26.580  15.889   6.764
 4129POPC   C3B53277  26.568  15.902   7.064
 4129POPC   C4B53278  26.602  15.876   7.364
 4130POPC   NC353279  37.666  12.105   5.564
 4130POPC   PO453280  37.663  12.088   5.864
 4130POPC   GL153281  37.678  12.113   6.164
 4130POPC   GL253282  37.644  12.140   6.164
 4130POPC   C1A53283  37.702  12.122   6.464
 4130POPC   D2A53284  37.689  12.072   6.764
 4130POPC   C3A53285  37.662  12.112   7.064
 4130POPC   C4A53286  37.659  12.116   7.364
 4130POPC   C1B53287  37.490  12.235   6.464
 4130POPC   C2B53288  37.531  12.305   6.764
 4130POPC   C3B53289  37.520  12.291   7.064
 4130POPC   C4B53290  37.491  12.304   7.364
 4131POPC   NC353291  39.242  41.529   5.564
 4131POPC   PO453292  39.213  41.589   5.864
 4131POPC   GL153293  39.210  41.537   6.164
 4131POPC   GL253294  39.163  41.440   6.164
 4131POPC   C1A53295  39.278  41.574   6.464
 4131POPC   D2A53296  39.265  41.585   6.764
 4131POPC   C3A53297  39.257  41.596   7.064
 4131POPC   C4A53298  39.232  41.569   7.364
 4131POPC   C1B53299  39.183  41.275   6.464
 4131POPC   C2B53300  39.200  41.311   6.764
 4131POPC   C3B53301  39.162  41.310   7.064
 4131POPC   C4B53302  39.147  41.268   7.364
 4132POPC   NC353303   9.017  22.895   5.564
 4132POPC   PO453304   8.926  22.892   5.864
 4132POPC   GL153305   8.940  22.932   6.164
 4132POPC   GL253306   8.848  22.989   6.164
 4132POPC   C1A53307   8.992  22.919   6.464
 4132POPC   D2A53308   8.955  22.953   6.764
 4132POPC   C3A53309   8.958  22.919   7.064
 4132POPC   C4A53310   8.966  22.899   7.364
 4132POPC   C1B53311   8.772  23.094   6.464
 4132POPC   C2B53312   8.754  23.104   6.764
 4132POPC   C3B53313   8.729  23.059   7.064
 4132POPC   C4B53314   8.737  23.096   7.364
 4133POPC   NC353315  40.747  25.304   5.564
 4133POPC   PO453316  40.747  25.259   5.864
 4133POPC   GL153317  40.819  25.279   6.164
 4133POPC   GL253318  40.634  25.296   6.164
 4133POPC   C1A53319  40.830  25.289   6.464
 4133POPC   D2A53320  40.763  25.298   6.764
 4133POPC   C3A53321  40.735  25.305   7.064
 4133POPC   C4A53322  40.767  25.284   7.364
 4133POPC   C1B53323  40.537  25.434   6.464
 4133POPC   C2B53324  40.557  25.405   6.764
 4133POPC   C3B53325  40.544  25.379   7.064
 4133POPC   C4B53326  40.566  25.429   7.364
 4134POPC   NC353327  29.144  41.599   5.564
 4134POPC   PO453328  29.193  41.552   5.864
 4134POPC   GL153329  29.166  41.589   6.164
 4134POPC   GL253330  29.043  41.434   6.164
 4134POPC   C1A53331  29.121  41.594   6.464
 4134POPC   D2A53332  29.149  41.608   6.764
 4134POPC   C3A53333  29.177  41.595   7.064
 4134POPC   C4A53334  29.112  41.553   7.364
 4134POPC   C1B53335  28.977  41.379   6.464
 4134POPC   C2B53336  28.982  41.331   6.764
 4134POPC   C3B53337  28.967  41.300   7.064
 4134POPC   C4B53338  29.003  41.333   7.364
 4135POPC   NC353339  19.062  22.142   5.564
 4135POPC   PO453340  19.060  22.181   5.864
 4135POPC   GL153341  19.078  22.137   6.164
 4135POPC   GL253342  19.030  22.294   6.164
 4135POPC   C1A53343  19.021  22.166   6.464
 4135POPC   D2A53344  19.104  22.209   6.764
 4135POPC   C3A53345  19.015  22.172   7.064
 4135POPC   C4A53346  19.054  22.163   7.364
 4135POPC   C1B53347  18.941  22.385   6.464
 4135POPC   C2B53348  18.892  22.330   6.764
 4135POPC   C3B53349  18.903  22.381   7.064
 4135POPC   C4B53350  18.892  22.404   7.364
 4136POPC   NC353351  39.988  29.149   5.564
 4136POPC   PO453352  39.980  29.099   5.864
 4136POPC   GL153353  39.966  29.126   6.164
 4136POPC   GL253354  40.088  29.199   6.164
 4136POPC   C1A53355  40.051  29.170   6.464
 4136POPC   D2A53356  40.000  29.175   6.764
 4136POPC   C3A53357  40.050  29.171   7.064
 4136POPC   C4A53358  39.977  29.128   7.364
 4136POPC   C1B53359  40.236  29.161   6.464
 4136POPC   C2B53360  40.216  29.238   6.764
 4136POPC   C3B53361  40.203  29.171   7.064
 4136POPC   C4B53362  40.247  29.256   7.364
 4137POPC   NC353363  39.183  26.815   5.564
 4137POPC   PO453364  39.250  26.790   5.864
 4137POPC   GL153365  39.199  26.830   6.164
 4137POPC   GL253366  39.097  26.945   6.164
 4137POPC   C1A53367  39.235  26.794   6.464
 4137POPC   D2A53368  39.201  26.770   6.764
 4137POPC   C3A53369  39.190  26.792   7.064
 4137POPC   C4A53370  39.208  26.793   7.364
 4137POPC   C1B53371  38.997  26.953   6.464
 4137POPC   C2B53372  39.034  26.999   6.764
 4137POPC   C3B53373  39.057  26.973   7.064
 4137POPC   C4B53374  39.050  27.026   7.364
 4138POPC   NC353375  43.131   1.202   5.564
 4138POPC   PO453376  43.157   1.207   5.864
 4138POPC   GL153377  43.075   1.209   6.164
 4138POPC   GL253378  43.239   1.129   6.164
 4138POPC   C1A53379  43.093   1.201   6.464
 4138POPC   D2A53380  43.061   1.202   6.764
 4138POPC   C3A53381  43.158   1.229   7.064
 4138POPC   C4A53382  43.143   1.195   7.364
 4138POPC   C1B53383  43.308   1.119   6.464
 4138POPC   C2B53384  43.324   1.149   6.764
 4138POPC   C3B53385  43.303   1.121   7.064
 4138POPC   C4B53386  43.304   1.112   7.364
 4139POPC   NC353387  43.093  40.789   5.564
 4139POPC   PO453388  43.081  40.740   5.864
 4139POPC   GL153389  43.113  40.799   6.164
 4139POPC   GL253390  42.998  40.717   6.164
 4139POPC   C1A53391  43.159  40.800   6.464
 4139POPC   D2A53392  43.084  40.738   6.764
 4139POPC   C3A53393  43.124  40.790   7.064
 4139POPC   C4A53394  43.132  40.826   7.364
 4139POPC   C1B53395  42.954  40.531   6.464
 4139POPC   C2B53396  42.989  40.575   6.764
 4139POPC   C3B53397  42.924  40.563   7.064
 4139POPC   C4B53398  42.936  40.548   7.364
 4140POPC   NC353399   5.829  15.217   5.564
 4140POPC   PO453400   5.824  15.152   5.864
 4140POPC   GL153401   5.872  15.183   6.164
 4140POPC   GL253402   5.807  15.264   6.164
 4140POPC   C1A53403   5.836  15.131   6.464
 4140POPC   D2A53404   5.879  15.229   6.764
 4140POPC   C3A53405   5.877  15.149   7.064
 4140POPC   C4A53406   5.865  15.148   7.364
 4140POPC   C1B53407   5.684  15.385   6.464
 4140POPC   C2B53408   5.721  15.427   6.764
 4140POPC   C3B53409   5.716  15.400   7.064
 4140POPC   C4B53410   5.750  15.417   7.364
 4141POPC   NC353411   7.415  22.956   5.564
 4141POPC   PO453412   7.419  22.970   5.864
 4141POPC   GL153413   7.376  22.953   6.164
 4141POPC   GL253414   7.326  22.919   6.164
 4141POPC   C1A53415   7.408  22.981   6.464
 4141POPC   D2A53416   7.419  22.900   6.764
 4141POPC   C3A53417   7.422  22.924   7.064
 4141POPC   C4A53418   7.381  22.927   7.364
 4141POPC   C1B53419   7.172  22.861   6.464
 4141POPC   C2B53420   7.211  22.867   6.764
 4141POPC   C3B53421   7.189  22.837   7.064
 4141POPC   C4B53422   7.228  22.822   7.364
 4142POPC   NC353423  33.838  24.532   5.564
 4142POPC   PO453424  33.832  24.466   5.864
 4142POPC   GL153425  33.844  24.481   6.164
 4142POPC   GL253426  33.896  24.461   6.164
 4142POPC   C1A53427  33.761  24.447   6.464
 4142POPC   D2A53428  33.823  24.464   6.764
 4142POPC   C3A53429  33.788  24.451   7.064
 4142POPC   C4A53430  33.795  24.482   7.364
 4142POPC   C1B53431  34.082  24.369   6.464
 4142POPC   C2B53432  34.022  24.391   6.764
 4142POPC   C3B53433  33.994  24.363   7.064
 4142POPC   C4B53434  33.995  24.448   7.364
 4143POPC   NC353435  43.877  21.387   5.564
 4143POPC   PO453436  43.935  21.427   5.864
 4143POPC   GL153437  43.888  21.428   6.164
 4143POPC   GL253438  43.781  21.385   6.164
 4143POPC   C1A53439  43.927  21.366   6.464
 4143POPC   D2A53440  43.909  21.411   6.764
 4143POPC   C3A53441  43.839  21.373   7.064
 4143POPC   C4A53442  43.857  21.375   7.364
 4143POPC   C1B53443  43.680  21.321   6.464
 4143POPC   C2B53444  43.652  21.322   6.764
 4143POPC   C3B53445  43.661  21.266   7.064
 4143POPC   C4B53446  43.647  21.347   7.364
 4144POPC   NC353447  44.684   8.147   5.564
 4144POPC   PO453448  44.667   8.148   5.864
 4144POPC   GL153449  44.660   8.223   6.164
 4144POPC   GL253450  44.608   8.301   6.164
 4144POPC   C1A53451  44.706   8.233   6.464
 4144POPC   D2A53452  44.655   8.225   6.764
 4144POPC   C3A53453  44.624   8.171   7.064
 4144POPC   C4A53454  44.681   8.237   7.364
 4144POPC   C1B53455  44.427   8.397   6.464
 4144POPC   C2B53456  44.450   8.324   6.764
 4144POPC   C3B53457  44.453   8.332   7.064
 4144POPC   C4B53458  44.503   8.345   7.364
 4145POPC   NC353459   0.447  13.635   5.564
 4145POPC   PO453460   0.484  13.616   5.864
 4145POPC   GL153461   0.411  13.636   6.164
 4145POPC   GL253462   0.582  13.677   6.164
 4145POPC   C1A53463   0.390  13.606   6.464
 4145POPC   D2A53464   0.438  13.642   6.764
 4145POPC   C3A53465   0.437  13.659   7.064
 4145POPC   C4A53466   0.420  13.583   7.364
 4145POPC   C1B53467   0.661  13.715   6.464
 4145POPC   C2B53468   0.680  13.702   6.764
 4145POPC   C3B53469   0.731  13.675   7.064
 4145POPC   C4B53470   0.719  13.661   7.364
 4146POPC   NC353471  23.747  19.884   5.564
 4146POPC   PO453472  23.712  19.881   5.864
 4146POPC   GL153473  23.673  19.846   6.164
 4146POPC   GL253474  23.669  19.971   6.164
 4146POPC   C1A53475  23.674  19.845   6.464
 4146POPC   D2A53476  23.724  19.798   6.764
 4146POPC   C3A53477  23.682  19.826   7.064
 4146POPC   C4A53478  23.705  19.806   7.364
 4146POPC   C1B53479  23.727  20.062   6.464
 4146POPC   C2B53480  23.740  20.082   6.764
 4146POPC   C3B53481  23.730  20.127   7.064
 4146POPC   C4B53482  23.737  20.084   7.364
 4147POPC   NC353483  31.492  15.171   5.564
 4147POPC   PO453484  31.481  15.143   5.864
 4147POPC   GL153485  31.494  15.215   6.164
 4147POPC   GL253486  31.392  15.178   6.164
 4147POPC   C1A53487  31.439  15.177   6.464
 4147POPC   D2A53488  31.487  15.192   6.764
 4147POPC   C3A53489  31.450  15.137   7.064
 4147POPC   C4A53490  31.485  15.218   7.364
 4147POPC   C1B53491  31.273  15.109   6.464
 4147POPC   C2B53492  31.219  15.163   6.764
 4147POPC   C3B53493  31.219  15.143   7.064
 4147POPC   C4B53494  31.191  15.097   7.364
 4148POPC   NC353495   5.088  30.746   5.564
 4148POPC   PO453496   5.098  30.665   5.864
 4148POPC   GL153497   5.063  30.710   6.164
 4148POPC   GL253498   4.944  30.683   6.164
 4148POPC   C1A53499   5.047  30.706   6.464
 4148POPC   D2A53500   5.064  30.656   6.764
 4148POPC   C3A53501   5.049  30.687   7.064
 4148POPC   C4A53502   5.108  30.719   7.364
 4148POPC   C1B53503   4.809  30.576   6.464
 4148POPC   C2B53504   4.808  30.626   6.764
 4148POPC   C3B53505   4.833  30.627   7.064
 4148POPC   C4B53506   4.809  30.584   7.364
 4149POPC   NC353507  36.910  15.968   5.564
 4149POPC   PO453508  36.930  15.954   5.864
 4149POPC   GL153509  36.907  15.983   6.164
 4149POPC   GL253510  36.967  15.887   6.164
 4149POPC   C1A53511  36.889  15.998   6.464
 4149POPC   D2A53512  36.915  15.969   6.764
 4149POPC   C3A53513  36.908  15.951   7.064
 4149POPC   C4A53514  36.865  15.955   7.364
 4149POPC   C1B53515  37.057  15.696   6.464
 4149POPC   C2B53516  37.075  15.728   6.764
 4149POPC   C3B53517  37.033  15.791   7.064
 4149POPC   C4B53518  37.028  15.711   7.364
 4150POPC   NC353519  22.971  43.066   5.564
 4150POPC   PO453520  22.953  43.098   5.864
 4150POPC   GL153521  22.965  43.132   6.164
 4150POPC   GL253522  22.984  43.033   6.164
 4150POPC   C1A53523  22.930  43.146   6.464
 4150POPC   D2A53524  22.924  43.085   6.764
 4150POPC   C3A53525  22.950  43.145   7.064
 4150POPC   C4A53526  22.957  43.084   7.364
 4150POPC   C1B53527  22.996  42.831   6.464
 4150POPC   C2B53528  22.939  42.829   6.764
 4150POPC   C3B53529  22.933  42.861   7.064
 4150POPC   C4B53530  22.914  42.869   7.364
 4151POPC   NC353531  19.815  24.450   5.564
 4151POPC   PO453532  19.813  24.481   5.864
 4151POPC   GL153533  19.842  24.470   6.164
 4151POPC   GL253534  19.951  24.516   6.164
 4151POPC   C1A53535  19.812  24.483   6.464
 4151POPC   D2A53536  19.802  24.442   6.764
 4151POPC   C3A53537  19.867  24.481   7.064
 4151POPC   C4A53538  19.856  24.507   7.364
 4151POPC   C1B53539  20.108  24.570   6.464
 4151POPC   C2B53540  20.062  24.578   6.764
 4151POPC   C3B53541  20.102  24.558   7.064
 4151POPC   C4B53542  20.062  24.577   7.364
 4152POPC   NC353543  43.069  24.475   5.564
 4152POPC   PO453544  43.123  24.530   5.864
 4152POPC   GL153545  43.143  24.442   6.164
 4152POPC   GL253546  43.016  24.552   6.164
 4152POPC   C1A53547  43.096  24.491   6.464
 4152POPC   D2A53548  43.150  24.461   6.764
 4152POPC   C3A53549  43.115  24.450   7.064
 4152POPC   C4A53550  43.149  24.539   7.364
 4152POPC   C1B53551  43.009  24.704   6.464
 4152POPC   C2B53552  43.019  24.689   6.764
 4152POPC   C3B53553  42.979  24.750   7.064
 4152POPC   C4B53554  43.000  24.667   7.364
 4153POPC   NC353555  18.255  43.902   5.564
 4153POPC   PO453556  18.253  43.917   5.864
 4153POPC   GL153557  18.265  43.869   6.164
 4153POPC   GL253558  18.283  43.728   6.164
 4153POPC   C1A53559  18.326  43.922   6.464
 4153POPC   D2A53560  18.271  43.905   6.764
 4153POPC   C3A53561  18.329  43.932   7.064
 4153POPC   C4A53562  18.246  43.867   7.364
 4153POPC   C1B53563  18.256  43.600   6.464
 4153POPC   C2B53564  18.251  43.617   6.764
 4153POPC   C3B53565  18.283  43.622   7.064
 4153POPC   C4B53566  18.256  43.660   7.364
 4154POPC   NC353567   2.747  31.453   5.564
 4154POPC   PO453568   2.763  31.517   5.864
 4154POPC   GL153569   2.725  31.453   6.164
 4154POPC   GL253570   2.862  31.630   6.164
 4154POPC   C1A53571   2.765  31.442   6.464
 4154POPC   D2A53572   2.772  31.470   6.764
 4154POPC   C3A53573   2.759  31.501   7.064
 4154POPC   C4A53574   2.763  31.454   7.364
 4154POPC   C1B53575   2.860  31.734   6.464
 4154POPC   C2B53576   2.875  31.700   6.764
 4154POPC   C3B53577   2.873  31.679   7.064
 4154POPC   C4B53578   2.909  31.701   7.364
 4155POPC   NC353579  37.635  28.366   5.564
 4155POPC   PO453580  37.706  28.401   5.864
 4155POPC   GL153581  37.725  28.347   6.164
 4155POPC   GL253582  37.563  28.229   6.164
 4155POPC   C1A53583  37.636  28.335   6.464
 4155POPC   D2A53584  37.648  28.356   6.764
 4155POPC   C3A53585  37.645  28.363   7.064
 4155POPC   C4A53586  37.668  28.395   7.364
 4155POPC   C1B53587  37.472  28.200   6.464
 4155POPC   C2B53588  37.494  28.182   6.764
 4155POPC   C3B53589  37.467  28.162   7.064
 4155POPC   C4B53590  37.541  28.171   7.364
 4156POPC   NC353591  43.901  29.149   5.564
 4156POPC   PO453592  43.895  29.136   5.864
 4156POPC   GL153593  43.923  29.105   6.164
 4156POPC   GL253594  43.977  29.177   6.164
 4156POPC   C1A53595  43.884  29.110   6.464
 4156POPC   D2A53596  43.866  29.159   6.764
 4156POPC   C3A53597  43.883  29.184   7.064
 4156POPC   C4A53598  43.886  29.193   7.364
 4156POPC   C1B53599  44.146  29.254   6.464
 4156POPC   C2B53600  44.144  29.188   6.764
 4156POPC   C3B53601  44.120  29.192   7.064
 4156POPC   C4B53602  44.074  29.253   7.364
 4157POPC   NC353603  11.301  10.478   5.564
 4157POPC   PO453604  11.263  10.500   5.864
 4157POPC   GL153605  11.323  10.541   6.164
 4157POPC   GL253606  11.372  10.629   6.164
 4157POPC   C1A53607  11.260  10.572   6.464
 4157POPC   D2A53608  11.321  10.564   6.764
 4157POPC   C3A53609  11.260  10.560   7.064
 4157POPC   C4A53610  11.309  10.488   7.364
 4157POPC   C1B53611  11.366  10.727   6.464
 4157POPC   C2B53612  11.405  10.756   6.764
 4157POPC   C3B53613  11.396  10.796   7.064
 4157POPC   C4B53614  11.411  10.722   7.364
 4158POPC   NC353615   0.450  22.962   5.564
 4158POPC   PO453616   0.478  22.949   5.864
 4158POPC   GL153617   0.465  22.958   6.164
 4158POPC   GL253618   0.414  22.863   6.164
 4158POPC   C1A53619   0.435  22.913   6.464
 4158POPC   D2A53620   0.465  22.959   6.764
 4158POPC   C3A53621   0.405  22.942   7.064
 4158POPC   C4A53622   0.435  22.973   7.364
 4158POPC   C1B53623   0.254  22.742   6.464
 4158POPC   C2B53624   0.261  22.702   6.764
 4158POPC   C3B53625   0.322  22.754   7.064
 4158POPC   C4B53626   0.322  22.698   7.364
 4159POPC   NC353627  18.304  36.089   5.564
 4159POPC   PO453628  18.270  36.173   5.864
 4159POPC   GL153629  18.298  36.109   6.164
 4159POPC   GL253630  18.427  36.137   6.164
 4159POPC   C1A53631  18.255  36.140   6.464
 4159POPC   D2A53632  18.256  36.177   6.764
 4159POPC   C3A53633  18.313  36.136   7.064
 4159POPC   C4A53634  18.265  36.177   7.364
 4159POPC   C1B53635  18.556  36.250   6.464
 4159POPC   C2B53636  18.470  36.251   6.764
 4159POPC   C3B53637  18.515  36.171   7.064
 4159POPC   C4B53638  18.469  36.169   7.364
 4160POPC   NC353639   7.418  22.120   5.564
 4160POPC   PO453640   7.417  22.193   5.864
 4160POPC   GL153641   7.466  22.167   6.164
 4160POPC   GL253642   7.396  22.252   6.164
 4160POPC   C1A53643   7.445  22.208   6.464
 4160POPC   D2A53644   7.397  22.172   6.764
 4160POPC   C3A53645   7.405  22.209   7.064
 4160POPC   C4A53646   7.402  22.196   7.364
 4160POPC   C1B53647   7.267  22.397   6.464
 4160POPC   C2B53648   7.341  22.374   6.764
 4160POPC   C3B53649   7.252  22.341   7.064
 4160POPC   C4B53650   7.348  22.389   7.364
 4161POPC   NC353651  11.322   6.664   5.564
 4161POPC   PO453652  11.294   6.609   5.864
 4161POPC   GL153653  11.286   6.641   6.164
 4161POPC   GL253654  11.276   6.819   6.164
 4161POPC   C1A53655  11.333   6.663   6.464
 4161POPC   D2A53656  11.326   6.616   6.764
 4161POPC   C3A53657  11.329   6.611   7.064
 4161POPC   C4A53658  11.303   6.655   7.364
 4161POPC   C1B53659  11.337   6.933   6.464
 4161POPC   C2B53660  11.315   6.910   6.764
 4161POPC   C3B53661  11.342   6.847   7.064
 4161POPC   C4B53662  11.350   6.944   7.364
 4162POPC   NC353663   9.756   8.216   5.564
 4162POPC   PO453664   9.721   8.211   5.864
 4162POPC   GL153665   9.724   8.162   6.164
 4162POPC   GL253666   9.755   8.033   6.164
 4162POPC   C1A53667   9.757   8.190   6.464
 4162POPC   D2A53668   9.723   8.178   6.764
 4162POPC   C3A53669   9.745   8.218   7.064
 4162POPC   C4A53670   9.746   8.160   7.364
 4162POPC   C1B53671   9.710   7.910   6.464
 4162POPC   C2B53672   9.676   7.970   6.764
 4162POPC   C3B53673   9.740   7.984   7.064
 4162POPC   C4B53674   9.692   7.949   7.364
 4163POPC   NC353675  18.321  12.066   5.564
 4163POPC   PO453676  18.313  12.065   5.864
 4163POPC   GL153677  18.255  12.105   6.164
 4163POPC   GL253678  18.191  11.986   6.164
 4163POPC   C1A53679  18.311  12.061   6.464
 4163POPC   D2A53680  18.250  12.070   6.764
 4163POPC   C3A53681  18.305  12.119   7.064
 4163POPC   C4A53682  18.296  12.027   7.364
 4163POPC   C1B53683  18.168  11.865   6.464
 4163POPC   C2B53684  18.167  11.891   6.764
 4163POPC   C3B53685  18.150  11.894   7.064
 4163POPC   C4B53686  18.202  11.810   7.364
 4164POPC   NC353687  10.564  41.565   5.564
 4164POPC   PO453688  10.488  41.598   5.864
 4164POPC   GL153689  10.567  41.540   6.164
 4164POPC   GL253690  10.399  41.647   6.164
 4164POPC   C1A53691  10.530  41.547   6.464
 4164POPC   D2A53692  10.509  41.601   6.764
 4164POPC   C3A53693  10.476  41.578   7.064
 4164POPC   C4A53694  10.489  41.525   7.364
 4164POPC   C1B53695  10.330  41.708   6.464
 4164POPC   C2B53696  10.307  41.737   6.764
 4164POPC   C3B53697  10.345  41.728   7.064
 4164POPC   C4B53698  10.297  41.737   7.364
 4165POPC   NC353699  10.569  17.466   5.564
 4165POPC   PO453700  10.514  17.550   5.864
 4165POPC   GL153701  10.525  17.490   6.164
 4165POPC   GL253702  10.569  17.583   6.164
 4165POPC   C1A53703  10.499  17.552   6.464
 4165POPC   D2A53704  10.560  17.499   6.764
 4165POPC   C3A53705  10.493  17.526   7.064
 4165POPC   C4A53706  10.545  17.550   7.364
 4165POPC   C1B53707  10.669  17.691   6.464
 4165POPC   C2B53708  10.608  17.733   6.764
 4165POPC   C3B53709  10.614  17.763   7.064
 4165POPC   C4B53710  10.622  17.695   7.364
 4166POPC   NC353711  31.426   4.277   5.564
 4166POPC   PO453712  31.431   4.282   5.864
 4166POPC   GL153713  31.423   4.340   6.164
 4166POPC   GL253714  31.359   4.286   6.164
 4166POPC   C1A53715  31.429   4.279   6.464
 4166POPC   D2A53716  31.490   4.289   6.764
 4166POPC   C3A53717  31.442   4.269   7.064
 4166POPC   C4A53718  31.512   4.333   7.364
 4166POPC   C1B53719  31.262   4.265   6.464
 4166POPC   C2B53720  31.207   4.241   6.764
 4166POPC   C3B53721  31.253   4.236   7.064
 4166POPC   C4B53722  31.191   4.228   7.364
 4167POPC   NC353723   5.877   5.909   5.564
 4167POPC   PO453724   5.864   5.871   5.864
 4167POPC   GL153725   5.830   5.885   6.164
 4167POPC   GL253726   5.808   5.759   6.164
 4167POPC   C1A53727   5.909   5.829   6.464
 4167POPC   D2A53728   5.857   5.878   6.764
 4167POPC   C3A53729   5.913   5.885   7.064
 4167POPC   C4A53730   5.885   5.856   7.364
 4167POPC   C1B53731   5.682   5.699   6.464
 4167POPC   C2B53732   5.704   5.692   6.764
 4167POPC   C3B53733   5.643   5.724   7.064
 4167POPC   C4B53734   5.647   5.694   7.364
 4168POPC   NC353735  36.084  29.125   5.564
 4168POPC   PO453736  36.106  29.184   5.864
 4168POPC   GL153737  36.120  29.168   6.164
 4168POPC   GL253738  36.079  29.052   6.164
 4168POPC   C1A53739  36.099  29.192   6.464
 4168POPC   D2A53740  36.134  29.095   6.764
 4168POPC   C3A53741  36.123  29.182   7.064
 4168POPC   C4A53742  36.106  29.170   7.364
 4168POPC   C1B53743  36.118  28.889   6.464
 4168POPC   C2B53744  36.055  28.870   6.764
 4168POPC   C3B53745  36.083  28.862   7.064
 4168POPC   C4B53746  36.108  28.899   7.364
 4169POPC   NC353747  26.066  26.858   5.564
 4169POPC   PO453748  26.054  26.842   5.864
 4169POPC   GL153749  26.028  26.806   6.164
 4169POPC   GL253750  26.168  26.815   6.164
 4169POPC   C1A53751  26.046  26.844   6.464
 4169POPC   D2A53752  26.017  26.788   6.764
 4169POPC   C3A53753  26.070  26.819   7.064
 4169POPC   C4A53754  26.022  26.825   7.364
 4169POPC   C1B53755  26.254  26.789   6.464
 4169POPC   C2B53756  26.275  26.798   6.764
 4169POPC   C3B53757  26.285  26.760   7.064
 4169POPC   C4B53758  26.262  26.723   7.364
 4170POPC   NC353759  18.241   5.096   5.564
 4170POPC   PO453760  18.264   5.087   5.864
 4170POPC   GL153761  18.272   5.078   6.164
 4170POPC   GL253762  18.296   4.928   6.164
 4170POPC   C1A53763  18.263   5.048   6.464
 4170POPC   D2A53764  18.242   5.143   6.764
 4170POPC   C3A53765  18.278   5.085   7.064
 4170POPC   C4A53766  18.260   5.050   7.364
 4170POPC   C1B53767  18.214   4.846   6.464
 4170POPC   C2B53768  18.254   4.801   6.764
 4170POPC   C3B53769  18.241   4.870   7.064
 4170POPC   C4B53770  18.235   4.864   7.364
 4171POPC   NC353771  36.152   1.981   5.564
 4171POPC   PO453772  36.129   1.996   5.864
 4171POPC   GL153773  36.129   2.034   6.164
 4171POPC   GL253774  36.039   1.959   6.164
 4171POPC   C1A53775  36.167   1.944   6.464
 4171POPC   D2A53776  36.147   1.967   6.764
 4171POPC   C3A53777  36.103   1.980   7.064
 4171POPC   C4A53778  36.115   1.942   7.364
 4171POPC   C1B53779  35.866   1.976   6.464
 4171POPC   C2B53780  35.897   1.935   6.764
 4171POPC   C3B53781  35.885   1.993   7.064
 4171POPC   C4B53782  35.893   1.944   7.364
 4172POPC   NC353783  32.223  32.240   5.564
 4172POPC   PO453784  32.199  32.207   5.864
 4172POPC   GL153785  32.274  32.204   6.164
 4172POPC   GL253786  32.125  32.293   6.164
 4172POPC   C1A53787  32.283  32.262   6.464
 4172POPC   D2A53788  32.199  32.232   6.764
 4172POPC   C3A53789  32.266  32.247   7.064
 4172POPC   C4A53790  32.276  32.252   7.364
 4172POPC   C1B53791  31.993  32.344   6.464
 4172POPC   C2B53792  32.006  32.325   6.764
 4172POPC   C3B53793  31.991  32.263   7.064
 4172POPC   C4B53794  32.015  32.255   7.364
 4173POPC   NC353795  14.444  33.826   5.564
 4173POPC   PO453796  14.449  33.821   5.864
 4173POPC   GL153797  14.400  33.775   6.164
 4173POPC   GL253798  14.472  33.883   6.164
 4173POPC   C1A53799  14.433  33.827   6.464
 4173POPC   D2A53800  14.381  33.757   6.764
 4173POPC   C3A53801  14.452  33.840   7.064
 4173POPC   C4A53802  14.433  33.821   7.364
 4173POPC   C1B53803  14.496  34.039   6.464
 4173POPC   C2B53804  14.536  34.033   6.764
 4173POPC   C3B53805  14.512  33.998   7.064
 4173POPC   C4B53806  14.533  34.044   7.364
 4174POPC   NC353807   9.730   6.650   5.564
 4174POPC   PO453808   9.761   6.599   5.864
 4174POPC   GL153809   9.709   6.607   6.164
 4174POPC   GL253810   9.771   6.478   6.164
 4174POPC   C1A53811   9.701   6.645   6.464
 4174POPC   D2A53812   9.705   6.603   6.764
 4174POPC   C3A53813   9.788   6.630   7.064
 4174POPC   C4A53814   9.793   6.608   7.364
 4174POPC   C1B53815   9.812   6.379   6.464
 4174POPC   C2B53816   9.790   6.440   6.764
 4174POPC   C3B53817   9.738   6.438   7.064
 4174POPC   C4B53818   9.754   6.436   7.364
 4175POPC   NC353819  19.833  36.888   5.564
 4175POPC   PO453820  19.842  36.919   5.864
 4175POPC   GL153821  19.868  36.863   6.164
 4175POPC   GL253822  19.911  36.762   6.164
 4175POPC   C1A53823  19.857  36.859   6.464
 4175POPC   D2A53824  19.810  36.901   6.764
 4175POPC   C3A53825  19.861  36.935   7.064
 4175POPC   C4A53826  19.835  36.945   7.364
 4175POPC   C1B53827  19.928  36.728   6.464
 4175POPC   C2B53828  19.936  36.699   6.764
 4175POPC   C3B53829  19.973  36.724   7.064
 4175POPC   C4B53830  19.972  36.693   7.364
 4176POPC   NC353831  15.223   8.972   5.564
 4176POPC   PO453832  15.209   8.928   5.864
 4176POPC   GL153833  15.174   8.950   6.164
 4176POPC   GL253834  15.202   8.861   6.164
 4176POPC   C1A53835  15.135   8.936   6.464
 4176POPC   D2A53836  15.198   9.019   6.764
 4176POPC   C3A53837  15.195   8.963   7.064
 4176POPC   C4A53838  15.191   9.013   7.364
 4176POPC   C1B53839  15.318   8.740   6.464
 4176POPC   C2B53840  15.267   8.728   6.764
 4176POPC   C3B53841  15.322   8.729   7.064
 4176POPC   C4B53842  15.246   8.739   7.364
 4177POPC   NC353843  42.371  26.802   5.564
 4177POPC   PO453844  42.332  26.840   5.864
 4177POPC   GL153845  42.296  26.808   6.164
 4177POPC   GL253846  42.306  26.678   6.164
 4177POPC   C1A53847  42.380  26.769   6.464
 4177POPC   D2A53848  42.343  26.831   6.764
 4177POPC   C3A53849  42.369  26.771   7.064
 4177POPC   C4A53850  42.327  26.857   7.364
 4177POPC   C1B53851  42.255  26.524   6.464
 4177POPC   C2B53852  42.273  26.548   6.764
 4177POPC   C3B53853  42.323  26.565   7.064
 4177POPC   C4B53854  42.235  26.608   7.364
 4178POPC   NC353855  30.711  12.072   5.564
 4178POPC   PO453856  30.713  12.110   5.864
 4178POPC   GL153857  30.746  12.042   6.164
 4178POPC   GL253858  30.779  12.091   6.164
 4178POPC   C1A53859  30.746  12.084   6.464
 4178POPC   D2A53860  30.728  12.066   6.764
 4178POPC   C3A53861  30.708  12.122   7.064
 4178POPC   C4A53862  30.652  12.074   7.364
 4178POPC   C1B53863  30.881  12.211   6.464
 4178POPC   C2B53864  30.902  12.160   6.764
 4178POPC   C3B53865  30.969  12.196   7.064
 4178POPC   C4B53866  30.955  12.207   7.364
 4179POPC   NC353867  22.192   3.503   5.564
 4179POPC   PO453868  22.165   3.522   5.864
 4179POPC   GL153869  22.198   3.539   6.164
 4179POPC   GL253870  22.304   3.633   6.164
 4179POPC   C1A53871  22.196   3.584   6.464
 4179POPC   D2A53872  22.185   3.519   6.764
 4179POPC   C3A53873  22.169   3.584   7.064
 4179POPC   C4A53874  22.153   3.567   7.364
 4179POPC   C1B53875  22.409   3.634   6.464
 4179POPC   C2B53876  22.409   3.589   6.764
 4179POPC   C3B53877  22.387   3.673   7.064
 4179POPC   C4B53878  22.436   3.582   7.364
 4180POPC   NC353879   3.571  39.988   5.564
 4180POPC   PO453880   3.528  40.005   5.864
 4180POPC   GL153881   3.573  39.981   6.164
 4180POPC   GL253882   3.688  40.038   6.164
 4180POPC   C1A53883   3.568  40.015   6.464
 4180POPC   D2A53884   3.495  39.991   6.764
 4180POPC   C3A53885   3.532  40.015   7.064
 4180POPC   C4A53886   3.516  39.985   7.364
 4180POPC   C1B53887   3.829  40.021   6.464
 4180POPC   C2B53888   3.748  39.968   6.764
 4180POPC   C3B53889   3.744  40.000   7.064
 4180POPC   C4B53890   3.758  39.934   7.364
 4181POPC   NC353891   7.382  29.940   5.564
 4181POPC   PO453892   7.437  29.934   5.864
 4181POPC   GL153893   7.404  29.954   6.164
 4181POPC   GL253894   7.443  30.094   6.164
 4181POPC   C1A53895   7.394  29.875   6.464
 4181POPC   D2A53896   7.405  29.906   6.764
 4181POPC   C3A53897   7.437  29.944   7.064
 4181POPC   C4A53898   7.452  29.938   7.364
 4181POPC   C1B53899   7.499  30.178   6.464
 4181POPC   C2B53900   7.465  30.154   6.764
 4181POPC   C3B53901   7.478  30.126   7.064
 4181POPC   C4B53902   7.503  30.154   7.364
 4182POPC   NC353903   3.556  18.269   5.564
 4182POPC   PO453904   3.587  18.276   5.864
 4182POPC   GL153905   3.503  18.288   6.164
 4182POPC   GL253906   3.533  18.149   6.164
 4182POPC   C1A53907   3.506  18.250   6.464
 4182POPC   D2A53908   3.560  18.248   6.764
 4182POPC   C3A53909   3.576  18.255   7.064
 4182POPC   C4A53910   3.549  18.269   7.364
 4182POPC   C1B53911   3.506  18.010   6.464
 4182POPC   C2B53912   3.551  18.061   6.764
 4182POPC   C3B53913   3.547  18.049   7.064
 4182POPC   C4B53914   3.518  18.071   7.364
 4183POPC   NC353915  30.741  35.383   5.564
 4183POPC   PO453916  30.681  35.305   5.864
 4183POPC   GL153917  30.694  35.320   6.164
 4183POPC   GL253918  30.778  35.372   6.164
 4183POPC   C1A53919  30.700  35.319   6.464
 4183POPC   D2A53920  30.704  35.364   6.764
 4183POPC   C3A53921  30.666  35.354   7.064
 4183POPC   C4A53922  30.712  35.315   7.364
 4183POPC   C1B53923  30.902  35.443   6.464
 4183POPC   C2B53924  30.898  35.470   6.764
 4183POPC   C3B53925  30.885  35.478   7.064
 4183POPC   C4B53926  30.964  35.454   7.364
 4184POPC   NC353927  36.935  24.505   5.564
 4184POPC   PO453928  36.886  24.487   5.864
 4184POPC   GL153929  36.932  24.457   6.164
 4184POPC   GL253930  36.961  24.582   6.164
 4184POPC   C1A53931  36.911  24.455   6.464
 4184POPC   D2A53932  36.925  24.490   6.764
 4184POPC   C3A53933  36.891  24.516   7.064
 4184POPC   C4A53934  36.890  24.536   7.364
 4184POPC   C1B53935  37.020  24.665   6.464
 4184POPC   C2B53936  37.040  24.693   6.764
 4184POPC   C3B53937  37.070  24.702   7.064
 4184POPC   C4B53938  37.033  24.647   7.364
 4185POPC   NC353939   0.424   5.090   5.564
 4185POPC   PO453940   0.440   5.134   5.864
 4185POPC   GL153941   0.432   5.107   6.164
 4185POPC   GL253942   0.356   5.164   6.164
 4185POPC   C1A53943   0.411   5.055   6.464
 4185POPC   D2A53944   0.448   5.137   6.764
 4185POPC   C3A53945   0.486   5.063   7.064
 4185POPC   C4A53946   0.448   5.133   7.364
 4185POPC   C1B53947   0.307   5.353   6.464
 4185POPC   C2B53948   0.271   5.349   6.764
 4185POPC   C3B53949   0.269   5.274   7.064
 4185POPC   C4B53950   0.303   5.313   7.364
 4186POPC   NC353951   7.443  39.195   5.564
 4186POPC   PO453952   7.394  39.262   5.864
 4186POPC   GL153953   7.402  39.229   6.164
 4186POPC   GL253954   7.390  39.072   6.164
 4186POPC   C1A53955   7.440  39.214   6.464
 4186POPC   D2A53956   7.399  39.260   6.764
 4186POPC   C3A53957   7.428  39.205   7.064
 4186POPC   C4A53958   7.469  39.216   7.364
 4186POPC   C1B53959   7.366  38.996   6.464
 4186POPC   C2B53960   7.412  39.022   6.764
 4186POPC   C3B53961   7.358  38.957   7.064
 4186POPC   C4B53962   7.416  38.939   7.364
 4187POPC   NC353963  12.855  35.357   5.564
 4187POPC   PO453964  12.890  35.338   5.864
 4187POPC   GL153965  12.845  35.307   6.164
 4187POPC   GL253966  12.766  35.419   6.164
 4187POPC   C1A53967  12.804  35.390   6.464
 4187POPC   D2A53968  12.825  35.304   6.764
 4187POPC   C3A53969  12.886  35.305   7.064
 4187POPC   C4A53970  12.862  35.356   7.364
 4187POPC   C1B53971  12.617  35.435   6.464
 4187POPC   C2B53972  12.587  35.389   6.764
 4187POPC   C3B53973  12.575  35.466   7.064
 4187POPC   C4B53974  12.625  35.411   7.364
 4188POPC   NC353975  43.068   0.482   5.564
 4188POPC   PO453976  43.146   0.409   5.864
 4188POPC   GL153977  43.159   0.470   6.164
 4188POPC   GL253978  43.074   0.512   6.164
 4188POPC   C1A53979  43.146   0.431   6.464
 4188POPC   D2A53980  43.117   0.403   6.764
 4188POPC   C3A53981  43.066   0.472   7.064
 4188POPC   C4A53982  43.147   0.446   7.364
 4188POPC   C1B53983  42.930   0.641   6.464
 4188POPC   C2B53984  42.958   0.585   6.764
 4188POPC   C3B53985  42.976   0.662   7.064
 4188POPC   C4B53986  42.955   0.634   7.364
 4189POPC   NC353987   1.223  20.588   5.564
 4189POPC   PO453988   1.261  20.657   5.864
 4189POPC   GL153989   1.164  20.648   6.164
 4189POPC   GL253990   1.299  20.566   6.164
 4189POPC   C1A53991   1.215  20.652   6.464
 4189POPC   D2A53992   1.220  20.573   6.764
 4189POPC   C3A53993   1.185  20.618   7.064
 4189POPC   C4A53994   1.181  20.598   7.364
 4189POPC   C1B53995   1.499  20.507   6.464
 4189POPC   C2B53996   1.451  20.514   6.764
 4189POPC   C3B53997   1.456  20.545   7.064
 4189POPC   C4B53998   1.496  20.520   7.364
 4190POPC   NC353999   8.924  41.510   5.564
 4190POPC   PO454000   8.967  41.560   5.864
 4190POPC   GL154001   8.931  41.581   6.164
 4190POPC   GL254002   9.097  41.676   6.164
 4190POPC   C1A54003   9.001  41.558   6.464
 4190POPC   D2A54004   8.923  41.563   6.764
 4190POPC   C3A54005   8.931  41.510   7.064
 4190POPC   C4A54006   8.929  41.539   7.364
 4190POPC   C1B54007   9.157  41.734   6.464
 4190POPC   C2B54008   9.205  41.750   6.764
 4190POPC   C3B54009   9.148  41.678   7.064
 4190POPC   C4B54010   9.204  41.749   7.364
 4191POPC   NC354011   0.483  37.700   5.564
 4191POPC   PO454012   0.394  37.660   5.864
 4191POPC   GL154013   0.473  37.706   6.164
 4191POPC   GL254014   0.428  37.519   6.164
 4191POPC   C1A54015   0.434  37.635   6.464
 4191POPC   D2A54016   0.434  37.633   6.764
 4191POPC   C3A54017   0.406  37.704   7.064
 4191POPC   C4A54018   0.476  37.649   7.364
 4191POPC   C1B54019   0.466  37.469   6.464
 4191POPC   C2B54020   0.449  37.457   6.764
 4191POPC   C3B54021   0.501  37.480   7.064
 4191POPC   C4B54022   0.529  37.410   7.364
 4192POPC   NC354023  25.222   8.239   5.564
 4192POPC   PO454024  25.253   8.214   5.864
 4192POPC   GL154025  25.270   8.211   6.164
 4192POPC   GL254026  25.243   8.273   6.164
 4192POPC   C1A54027  25.221   8.159   6.464
 4192POPC   D2A54028  25.271   8.188   6.764
 4192POPC   C3A54029  25.228   8.234   7.064
 4192POPC   C4A54030  25.289   8.197   7.364
 4192POPC   C1B54031  25.345   8.421   6.464
 4192POPC   C2B54032  25.297   8.419   6.764
 4192POPC   C3B54033  25.309   8.443   7.064
 4192POPC   C4B54034  25.331   8.395   7.364
 4193POPC   NC354035  11.306  39.979   5.564
 4193POPC   PO454036  11.341  39.988   5.864
 4193POPC   GL154037  11.307  39.975   6.164
 4193POPC   GL254038  11.452  39.978   6.164
 4193POPC   C1A54039  11.268  39.969   6.464
 4193POPC   D2A54040  11.289  40.053   6.764
 4193POPC   C3A54041  11.280  40.050   7.064
 4193POPC   C4A54042  11.333  39.970   7.364
 4193POPC   C1B54043  11.517  39.903   6.464
 4193POPC   C2B54044  11.544  39.928   6.764
 4193POPC   C3B54045  11.544  39.941   7.064
 4193POPC   C4B54046  11.521  39.888   7.364
 4194POPC   NC354047  36.172  27.547   5.564
 4194POPC   PO454048  36.112  27.585   5.864
 4194POPC   GL154049  36.158  27.577   6.164
 4194POPC   GL254050  36.022  27.546   6.164
 4194POPC   C1A54051  36.131  27.602   6.464
 4194POPC   D2A54052  36.150  27.564   6.764
 4194POPC   C3A54053  36.106  27.558   7.064
 4194POPC   C4A54054  36.079  27.606   7.364
 4194POPC   C1B54055  35.926  27.471   6.464
 4194POPC   C2B54056  35.921  27.426   6.764
 4194POPC   C3B54057  35.934  27.459   7.064
 4194POPC   C4B54058  35.918  27.431   7.364
 4195POPC   NC354059   2.000  36.876   5.564
 4195POPC   PO454060   1.957  36.889   5.864
 4195POPC   GL154061   2.022  36.918   6.164
 4195POPC   GL254062   2.029  36.832   6.164
 4195POPC   C1A54063   1.973  36.938   6.464
 4195POPC   D2A54064   1.986  36.935   6.764
 4195POPC   C3A54065   1.980  36.949   7.064
 4195POPC   C4A54066   2.005  36.911   7.364
 4195POPC   C1B54067   2.088  36.636   6.464
 4195POPC   C2B54068   2.042  36.624   6.764
 4195POPC   C3B54069   2.047  36.710   7.064
 4195POPC   C4B54070   2.098  36.633   7.364
 4196POPC   NC354071  43.931  44.680   5.564
 4196POPC   PO454072  43.870  44.628   5.864
 4196POPC   GL154073  43.877  44.707   6.164
 4196POPC   GL254074  44.048  44.686   6.164
 4196POPC   C1A54075  43.886  44.624   6.464
 4196POPC   D2A54076  43.855  44.694   6.764
 4196POPC   C3A54077  43.861  44.617   7.064
 4196POPC   C4A54078  43.909  44.623   7.364
 4196POPC   C1B54079  44.109  44.705   6.464
 4196POPC   C2B54080  44.155  44.671   6.764
 4196POPC   C3B54081  44.133  44.641   7.064
 4196POPC   C4B54082  44.125  44.696   7.364
 4197POPC   NC354083  27.608  26.007   5.564
 4197POPC   PO454084  27.557  26.008   5.864
 4197POPC   GL154085  27.603  26.023   6.164
 4197POPC   GL254086  27.452  26.151   6.164
 4197POPC   C1A54087  27.573  26.006   6.464
 4197POPC   D2A54088  27.641  26.006   6.764
 4197POPC   C3A54089  27.611  26.026   7.064
 4197POPC   C4A54090  27.633  25.998   7.364
 4197POPC   C1B54091  27.420  26.249   6.464
 4197POPC   C2B54092  27.379  26.206   6.764
 4197POPC   C3B54093  27.375  26.188   7.064
 4197POPC   C4B54094  27.456  26.243   7.364
 4198POPC   NC354095  25.311   7.404   5.564
 4198POPC   PO454096  25.265   7.432   5.864
 4198POPC   GL154097  25.295   7.420   6.164
 4198POPC   GL254098  25.318   7.586   6.164
 4198POPC   C1A54099  25.257   7.444   6.464
 4198POPC   D2A54100  25.312   7.464   6.764
 4198POPC   C3A54101  25.243   7.399   7.064
 4198POPC   C4A54102  25.239   7.430   7.364
 4198POPC   C1B54103  25.333   7.648   6.464
 4198POPC   C2B54104  25.356   7.614   6.764
 4198POPC   C3B54105  25.376   7.609   7.064
 4198POPC   C4B54106  25.308   7.608   7.364
 4199POPC   NC354107  29.959  42.288   5.564
 4199POPC   PO454108  29.943  42.367   5.864
 4199POPC   GL154109  29.876  42.330   6.164
 4199POPC   GL254110  29.802  42.386   6.164
 4199POPC   C1A54111  29.930  42.286   6.464
 4199POPC   D2A54112  29.880  42.381   6.764
 4199POPC   C3A54113  29.945  42.295   7.064
 4199POPC   C4A54114  29.888  42.344   7.364
 4199POPC   C1B54115  29.696  42.356   6.464
 4199POPC   C2B54116  29.636  42.342   6.764
 4199POPC   C3B54117  29.642  42.356   7.064
 4199POPC   C4B54118  29.699  42.368   7.364
 4200POPC   NC354119  43.871  29.968   5.564
 4200POPC   PO454120  43.881  29.938   5.864
 4200POPC   GL154121  43.881  29.925   6.164
 4200POPC   GL254122  43.780  29.868   6.164
 4200POPC   C1A54123  43.916  29.954   6.464
 4200POPC   D2A54124  43.868  29.898   6.764
 4200POPC   C3A54125  43.863  29.896   7.064
 4200POPC   C4A54126  43.861  29.892   7.364
 4200POPC   C1B54127  43.758  29.766   6.464
 4200POPC   C2B54128  43.661  29.780   6.764
 4200POPC   C3B54129  43.757  29.722   7.064
 4200POPC   C4B54130  43.675  29.762   7.364
 4201POPC   NC354131  15.207  24.517   5.564
 4201POPC   PO454132  15.180  24.442   5.864
 4201POPC   GL154133  15.192  24.464   6.164
 4201POPC   GL254134  15.274  24.362   6.164
 4201POPC   C1A54135  15.180  24.485   6.464
 4201POPC   D2A54136  15.185  24.468   6.764
 4201POPC   C3A54137  15.133  24.454   7.064
 4201POPC   C4A54138  15.137  24.535   7.364
 4201POPC   C1B54139  15.256  24.278   6.464
 4201POPC   C2B54140  15.285  24.248   6.764
 4201POPC   C3B54141  15.294  24.289   7.064
 4201POPC   C4B54142  15.288  24.298   7.364
 4202POPC   NC354143  28.358   5.899   5.564
 4202POPC   PO454144  28.370   5.866   5.864
 4202POPC   GL154145  28.373   5.866   6.164
 4202POPC   GL254146  28.445   5.904   6.164
 4202POPC   C1A54147  28.344   5.881   6.464
 4202POPC   D2A54148  28.367   5.883   6.764
 4202POPC   C3A54149  28.340   5.871   7.064
 4202POPC   C4A54150  28.357   5.870   7.364
 4202POPC   C1B54151  28.576   6.004   6.464
 4202POPC   C2B54152  28.588   5.960   6.764
 4202POPC   C3B54153  28.585   5.975   7.064
 4202POPC   C4B54154  28.545   6.045   7.364
 4203POPC   NC354155  34.566  29.898   5.564
 4203POPC   PO454156  34.538  29.922   5.864
 4203POPC   GL154157  34.532  29.878   6.164
 4203POPC   GL254158  34.534  30.056   6.164
 4203POPC   C1A54159  34.538  29.874   6.464
 4203POPC   D2A54160  34.553  29.943   6.764
 4203POPC   C3A54161  34.530  29.946   7.064
 4203POPC   C4A54162  34.580  29.962   7.364
 4203POPC   C1B54163  34.362  30.064   6.464
 4203POPC   C2B54164  34.383  30.065   6.764
 4203POPC   C3B54165  34.408  30.084   7.064
 4203POPC   C4B54166  34.456  30.101   7.364
 4204POPC   NC354167  33.061   4.280   5.564
 4204POPC   PO454168  33.040   4.337   5.864
 4204POPC   GL154169  33.000   4.311   6.164
 4204POPC   GL254170  32.906   4.238   6.164
 4204POPC   C1A54171  33.029   4.268   6.464
 4204POPC   D2A54172  33.064   4.332   6.764
 4204POPC   C3A54173  33.008   4.367   7.064
 4204POPC   C4A54174  32.978   4.332   7.364
 4204POPC   C1B54175  32.794   4.141   6.464
 4204POPC   C2B54176  32.845   4.188   6.764
 4204POPC   C3B54177  32.870   4.116   7.064
 4204POPC   C4B54178  32.874   4.101   7.364
 4205POPC   NC354179  17.546  12.118   5.564
 4205POPC   PO454180  17.487  12.026   5.864
 4205POPC   GL154181  17.518  12.115   6.164
 4205POPC   GL254182  17.606  12.020   6.164
 4205POPC   C1A54183  17.527  12.064   6.464
 4205POPC   D2A54184  17.510  12.052   6.764
 4205POPC   C3A54185  17.474  12.032   7.064
 4205POPC   C4A54186  17.528  12.067   7.364
 4205POPC   C1B54187  17.702  11.971   6.464
 4205POPC   C2B54188  17.676  11.939   6.764
 4205POPC   C3B54189  17.731  11.972   7.064
 4205POPC   C4B54190  17.768  11.966   7.364
 4206POPC   NC354191  13.665  37.638   5.564
 4206POPC   PO454192  13.602  37.702   5.864
 4206POPC   GL154193  13.637  37.641   6.164
 4206POPC   GL254194  13.721  37.622   6.164
 4206POPC   C1A54195  13.624  37.666   6.464
 4206POPC   D2A54196  13.672  37.687   6.764
 4206POPC   C3A54197  13.607  37.701   7.064
 4206POPC   C4A54198  13.585  37.676   7.364
 4206POPC   C1B54199  13.809  37.492   6.464
 4206POPC   C2B54200  13.784  37.471   6.764
 4206POPC   C3B54201  13.818  37.541   7.064
 4206POPC   C4B54202  13.814  37.542   7.364
 4207POPC   NC354203   9.010  23.731   5.564
 4207POPC   PO454204   8.947  23.718   5.864
 4207POPC   GL154205   8.977  23.676   6.164
 4207POPC   GL254206   8.989  23.551   6.164
 4207POPC   C1A54207   9.022  23.727   6.464
 4207POPC   D2A54208   9.007  23.750   6.764
 4207POPC   C3A54209   8.991  23.734   7.064
 4207POPC   C4A54210   9.019  23.729   7.364
 4207POPC   C1B54211   8.885  23.439   6.464
 4207POPC   C2B54212   8.947  23.512   6.764
 4207POPC   C3B54213   8.895  23.435   7.064
 4207POPC   C4B54214   8.863  23.426   7.364
 4208POPC   NC354215  19.095  22.930   5.564
 4208POPC   PO454216  19.057  22.898   5.864
 4208POPC   GL154217  19.060  22.979   6.164
 4208POPC   GL254218  19.018  23.100   6.164
 4208POPC   C1A54219  19.043  22.947   6.464
 4208POPC   D2A54220  19.018  22.906   6.764
 4208POPC   C3A54221  19.057  22.903   7.064
 4208POPC   C4A54222  19.038  22.958   7.364
 4208POPC   C1B54223  19.060  23.224   6.464
 4208POPC   C2B54224  19.092  23.204   6.764
 4208POPC   C3B54225  19.068  23.207   7.064
 4208POPC   C4B54226  19.071  23.193   7.364
 4209POPC   NC354227   3.544  37.697   5.564
 4209POPC   PO454228   3.576  37.649   5.864
 4209POPC   GL154229   3.532  37.664   6.164
 4209POPC   GL254230   3.601  37.761   6.164
 4209POPC   C1A54231   3.512  37.683   6.464
 4209POPC   D2A54232   3.522  37.641   6.764
 4209POPC   C3A54233   3.500  37.688   7.064
 4209POPC   C4A54234   3.571  37.662   7.364
 4209POPC   C1B54235   3.627  37.873   6.464
 4209POPC   C2B54236   3.687  37.935   6.764
 4209POPC   C3B54237   3.653  37.884   7.064
 4209POPC   C4B54238   3.693  37.901   7.364
 4210POPC   NC354239  24.531  17.474   5.564
 4210POPC   PO454240  24.519  17.491   5.864
 4210POPC   GL154241  24.482  17.503   6.164
 4210POPC   GL254242  24.338  17.440   6.164
 4210POPC   C1A54243  24.491  17.536   6.464
 4210POPC   D2A54244  24.525  17.515   6.764
 4210POPC   C3A54245  24.490  17.520   7.064
 4210POPC   C4A54246  24.497  17.521   7.364
 4210POPC   C1B54247  24.294  17.400   6.464
 4210POPC   C2B54248  24.232  17.450   6.764
 4210POPC   C3B54249  24.302  17.375   7.064
 4210POPC   C4B54250  24.226  17.412   7.364
 4211POPC   NC354251  44.655  15.131   5.564
 4211POPC   PO454252  44.656  15.132   5.864
 4211POPC   GL154253  44.678  15.144   6.164
 4211POPC   GL254254  44.602  15.198   6.164
 4211POPC   C1A54255  44.646  15.194   6.464
 4211POPC   D2A54256  44.658  15.207   6.764
 4211POPC   C3A54257  44.624  15.154   7.064
 4211POPC   C4A54258  44.674  15.180   7.364
 4211POPC   C1B54259  44.419  15.289   6.464
 4211POPC   C2B54260  44.489  15.318   6.764
 4211POPC   C3B54261  44.473  15.260   7.064
 4211POPC   C4B54262  44.464  15.340   7.364
 4212POPC   NC354263  26.840  26.797   5.564
 4212POPC   PO454264  26.801  26.843   5.864
 4212POPC   GL154265  26.781  26.830   6.164
 4212POPC   GL254266  26.729  26.750   6.164
 4212POPC   C1A54267  26.859  26.863   6.464
 4212POPC   D2A54268  26.799  26.817   6.764
 4212POPC   C3A54269  26.809  26.830   7.064
 4212POPC   C4A54270  26.838  26.780   7.364
 4212POPC   C1B54271  26.628  26.748   6.464
 4212POPC   C2B54272  26.598  26.704   6.764
 4212POPC   C3B54273  26.550  26.706   7.064
 4212POPC   C4B54274  26.605  26.738   7.364
 4213POPC   NC354275  26.853  33.825   5.564
 4213POPC   PO454276  26.866  33.755   5.864
 4213POPC   GL154277  26.830  33.819   6.164
 4213POPC   GL254278  26.923  33.827   6.164
 4213POPC   C1A54279  26.769  33.826   6.464
 4213POPC   D2A54280  26.806  33.829   6.764
 4213POPC   C3A54281  26.769  33.800   7.064
 4213POPC   C4A54282  26.822  33.830   7.364
 4213POPC   C1B54283  27.062  33.984   6.464
 4213POPC   C2B54284  26.989  33.979   6.764
 4213POPC   C3B54285  26.994  33.948   7.064
 4213POPC   C4B54286  26.994  33.965   7.364
 4214POPC   NC354287  12.887   4.313   5.564
 4214POPC   PO454288  12.854   4.351   5.864
 4214POPC   GL154289  12.881   4.358   6.164
 4214POPC   GL254290  12.840   4.480   6.164
 4214POPC   C1A54291  12.842   4.331   6.464
 4214POPC   D2A54292  12.819   4.359   6.764
 4214POPC   C3A54293  12.828   4.274   7.064
 4214POPC   C4A54294  12.857   4.322   7.364
 4214POPC   C1B54295  12.896   4.556   6.464
 4214POPC   C2B54296  12.931   4.535   6.764
 4214POPC   C3B54297  12.923   4.523   7.064
 4214POPC   C4B54298  12.886   4.522   7.364
 4215POPC   NC354299   1.190  43.876   5.564
 4215POPC   PO454300   1.261  43.842   5.864
 4215POPC   GL154301   1.173  43.859   6.164
 4215POPC   GL254302   1.101  43.949   6.164
 4215POPC   C1A54303   1.214  43.879   6.464
 4215POPC   D2A54304   1.228  43.845   6.764
 4215POPC   C3A54305   1.218  43.869   7.064
 4215POPC   C4A54306   1.238  43.871   7.364
 4215POPC   C1B54307   0.932  43.930   6.464
 4215POPC   C2B54308   0.938  43.873   6.764
 4215POPC   C3B54309   0.939  43.907   7.064
 4215POPC   C4B54310   0.981  43.886   7.364
 4216POPC   NC354311  28.365   4.357   5.564
 4216POPC   PO454312  28.370   4.277   5.864
 4216POPC   GL154313  28.412   4.319   6.164
 4216POPC   GL254314  28.479   4.299   6.164
 4216POPC   C1A54315  28.411   4.276   6.464
 4216POPC   D2A54316  28.384   4.334   6.764
 4216POPC   C3A54317  28.412   4.364   7.064
 4216POPC   C4A54318  28.361   4.308   7.364
 4216POPC   C1B54319  28.626   4.350   6.464
 4216POPC   C2B54320  28.630   4.308   6.764
 4216POPC   C3B54321  28.598   4.304   7.064
 4216POPC   C4B54322  28.594   4.362   7.364
 4217POPC   NC354323  32.987   8.930   5.564
 4217POPC   PO454324  32.997   8.951   5.864
 4217POPC   GL154325  33.012   8.954   6.164
 4217POPC   GL254326  33.105   8.894   6.164
 4217POPC   C1A54327  33.024   8.976   6.464
 4217POPC   D2A54328  33.000   8.942   6.764
 4217POPC   C3A54329  32.994   8.999   7.064
 4217POPC   C4A54330  32.979   8.965   7.364
 4217POPC   C1B54331  33.224   8.784   6.464
 4217POPC   C2B54332  33.182   8.818   6.764
 4217POPC   C3B54333  33.181   8.776   7.064
 4217POPC   C4B54334  33.149   8.835   7.364
 4218POPC   NC354335  29.183  15.970   5.564
 4218POPC   PO454336  29.120  15.911   5.864
 4218POPC   GL154337  29.100  15.927   6.164
 4218POPC   GL254338  29.268  15.870   6.164
 4218POPC   C1A54339  29.184  16.005   6.464
 4218POPC   D2A54340  29.141  15.938   6.764
 4218POPC   C3A54341  29.168  15.921   7.064
 4218POPC   C4A54342  29.140  15.965   7.364
 4218POPC   C1B54343  29.405  15.816   6.464
 4218POPC   C2B54344  29.359  15.888   6.764
 4218POPC   C3B54345  29.367  15.873   7.064
 4218POPC   C4B54346  29.338  15.899   7.364
 4219POPC   NC354347   2.002  26.797   5.564
 4219POPC   PO454348   1.987  26.852   5.864
 4219POPC   GL154349   1.967  26.769   6.164
 4219POPC   GL254350   2.136  26.825   6.164
 4219POPC   C1A54351   2.027  26.794   6.464
 4219POPC   D2A54352   2.029  26.840   6.764
 4219POPC   C3A54353   1.952  26.843   7.064
 4219POPC   C4A54354   2.019  26.800   7.364
 4219POPC   C1B54355   2.216  26.787   6.464
 4219POPC   C2B54356   2.273  26.742   6.764
 4219POPC   C3B54357   2.217  26.749   7.064
 4219POPC   C4B54358   2.263  26.798   7.364
 4220POPC   NC354359  37.693  26.810   5.564
 4220POPC   PO454360  37.727  26.776   5.864
 4220POPC   GL154361  37.679  26.858   6.164
 4220POPC   GL254362  37.636  26.685   6.164
 4220POPC   C1A54363  37.683  26.769   6.464
 4220POPC   D2A54364  37.643  26.775   6.764
 4220POPC   C3A54365  37.697  26.849   7.064
 4220POPC   C4A54366  37.675  26.834   7.364
 4220POPC   C1B54367  37.477  26.665   6.464
 4220POPC   C2B54368  37.554  26.622   6.764
 4220POPC   C3B54369  37.499  26.584   7.064
 4220POPC   C4B54370  37.538  26.610   7.364
 4221POPC   NC354371  26.091  15.936   5.564
 4221POPC   PO454372  26.083  15.923   5.864
 4221POPC   GL154373  26.007  15.905   6.164
 4221POPC   GL254374  26.082  15.888   6.164
 4221POPC   C1A54375  26.079  15.982   6.464
 4221POPC   D2A54376  26.073  15.981   6.764
 4221POPC   C3A54377  26.055  15.974   7.064
 4221POPC   C4A54378  26.051  15.957   7.364
 4221POPC   C1B54379  26.151  15.693   6.464
 4221POPC   C2B54380  26.210  15.713   6.764
 4221POPC   C3B54381  26.155  15.775   7.064
 4221POPC   C4B54382  26.182  15.726   7.364
 4222POPC   NC354383  12.805   5.846   5.564
 4222POPC   PO454384  12.897   5.832   5.864
 4222POPC   GL154385  12.866   5.871   6.164
 4222POPC   GL254386  12.996   5.964   6.164
 4222POPC   C1A54387  12.853   5.908   6.464
 4222POPC   D2A54388  12.864   5.877   6.764
 4222POPC   C3A54389  12.807   5.909   7.064
 4222POPC   C4A54390  12.835   5.912   7.364
 4222POPC   C1B54391  13.017   6.058   6.464
 4222POPC   C2B54392  13.055   6.043   6.764
 4222POPC   C3B54393  13.059   5.993   7.064
 4222POPC   C4B54394  13.102   6.035   7.364
 4223POPC   NC354395  32.208  19.070   5.564
 4223POPC   PO454396  32.284  19.094   5.864
 4223POPC   GL154397  32.251  19.014   6.164
 4223POPC   GL254398  32.285  19.166   6.164
 4223POPC   C1A54399  32.267  19.057   6.464
 4223POPC   D2A54400  32.298  19.082   6.764
 4223POPC   C3A54401  32.213  19.088   7.064
 4223POPC   C4A54402  32.244  19.025   7.364
 4223POPC   C1B54403  32.361  19.294   6.464
 4223POPC   C2B54404  32.327  19.271   6.764
 4223POPC   C3B54405  32.353  19.312   7.064
 4223POPC   C4B54406  32.349  19.307   7.364
 4224POPC   NC354407   1.181   7.424   5.564
 4224POPC   PO454408   1.231   7.460   5.864
 4224POPC   GL154409   1.176   7.408   6.164
 4224POPC   GL254410   1.152   7.470   6.164
 4224POPC   C1A54411   1.171   7.464   6.464
 4224POPC   D2A54412   1.220   7.399   6.764
 4224POPC   C3A54413   1.224   7.418   7.064
 4224POPC   C4A54414   1.173   7.420   7.364
 4224POPC   C1B54415   1.046   7.606   6.464
 4224POPC   C2B54416   1.040   7.633   6.764
 4224POPC   C3B54417   1.002   7.584   7.064
 4224POPC   C4B54418   1.009   7.613   7.364
 4225POPC   NC354419  31.494   3.513   5.564
 4225POPC   PO454420  31.512   3.497   5.864
 4225POPC   GL154421  31.449   3.494   6.164
 4225POPC   GL254422  31.413   3.620   6.164
 4225POPC   C1A54423  31.495   3.589   6.464
 4225POPC   D2A54424  31.472   3.495   6.764
 4225POPC   C3A54425  31.470   3.532   7.064
 4225POPC   C4A54426  31.482   3.529   7.364
 4225POPC   C1B54427  31.456   3.746   6.464
 4225POPC   C2B54428  31.457   3.784   6.764
 4225POPC   C3B54429  31.432   3.817   7.064
 4225POPC   C4B54430  31.453   3.797   7.364
 4226POPC   NC354431  15.165   2.740   5.564
 4226POPC   PO454432  15.207   2.779   5.864
 4226POPC   GL154433  15.136   2.792   6.164
 4226POPC   GL254434  15.254   2.827   6.164
 4226POPC   C1A54435  15.155   2.794   6.464
 4226POPC   D2A54436  15.194   2.814   6.764
 4226POPC   C3A54437  15.196   2.721   7.064
 4226POPC   C4A54438  15.212   2.798   7.364
 4226POPC   C1B54439  15.458   2.858   6.464
 4226POPC   C2B54440  15.404   2.856   6.764
 4226POPC   C3B54441  15.423   2.784   7.064
 4226POPC   C4B54442  15.428   2.823   7.364
 4227POPC   NC354443  33.821  43.124   5.564
 4227POPC   PO454444  33.826  43.150   5.864
 4227POPC   GL154445  33.788  43.112   6.164
 4227POPC   GL254446  33.723  43.275   6.164
 4227POPC   C1A54447  33.769  43.154   6.464
 4227POPC   D2A54448  33.812  43.149   6.764
 4227POPC   C3A54449  33.794  43.141   7.064
 4227POPC   C4A54450  33.775  43.084   7.364
 4227POPC   C1B54451  33.715  43.324   6.464
 4227POPC   C2B54452  33.775  43.323   6.764
 4227POPC   C3B54453  33.737  43.373   7.064
 4227POPC   C4B54454  33.787  43.307   7.364
 4228POPC   NC354455   2.742  27.558   5.564
 4228POPC   PO454456   2.745  27.554   5.864
 4228POPC   GL154457   2.804  27.617   6.164
 4228POPC   GL254458   2.913  27.587   6.164
 4228POPC   C1A54459   2.744  27.601   6.464
 4228POPC   D2A54460   2.747  27.560   6.764
 4228POPC   C3A54461   2.729  27.596   7.064
 4228POPC   C4A54462   2.743  27.597   7.364
 4228POPC   C1B54463   3.044  27.460   6.464
 4228POPC   C2B54464   2.954  27.500   6.764
 4228POPC   C3B54465   2.995  27.468   7.064
 4228POPC   C4B54466   2.954  27.499   7.364
 4229POPC   NC354467   6.653  10.491   5.564
 4229POPC   PO454468   6.595  10.494   5.864
 4229POPC   GL154469   6.684  10.547   6.164
 4229POPC   GL254470   6.546  10.391   6.164
 4229POPC   C1A54471   6.639  10.549   6.464
 4229POPC   D2A54472   6.643  10.562   6.764
 4229POPC   C3A54473   6.634  10.494   7.064
 4229POPC   C4A54474   6.624  10.537   7.364
 4229POPC   C1B54475   6.414  10.370   6.464
 4229POPC   C2B54476   6.493  10.371   6.764
 4229POPC   C3B54477   6.473  10.318   7.064
 4229POPC   C4B54478   6.449  10.307   7.364
 4230POPC   NC354479   1.237   5.122   5.564
 4230POPC   PO454480   1.240   5.093   5.864
 4230POPC   GL154481   1.233   5.085   6.164
 4230POPC   GL254482   1.296   5.012   6.164
 4230POPC   C1A54483   1.204   5.071   6.464
 4230POPC   D2A54484   1.226   5.074   6.764
 4230POPC   C3A54485   1.249   5.050   7.064
 4230POPC   C4A54486   1.177   5.121   7.364
 4230POPC   C1B54487   1.425   4.897   6.464
 4230POPC   C2B54488   1.364   4.942   6.764
 4230POPC   C3B54489   1.368   4.922   7.064
 4230POPC   C4B54490   1.355   4.896   7.364
 4231POPC   NC354491  36.881  13.636   5.564
 4231POPC   PO454492  36.941  13.626   5.864
 4231POPC   GL154493  36.949  13.649   6.164
 4231POPC   GL254494  36.854  13.712   6.164
 4231POPC   C1A54495  36.933  13.650   6.464
 4231POPC   D2A54496  36.946  13.659   6.764
 4231POPC   C3A54497  36.942  13.656   7.064
 4231POPC   C4A54498  36.879  13.586   7.364
 4231POPC   C1B54499  36.885  13.869   6.464
 4231POPC   C2B54500  36.907  13.842   6.764
 4231POPC   C3B54501  36.831  13.854   7.064
 4231POPC   C4B54502  36.853  13.922   7.364
 4232POPC   NC354503  36.928  26.779   5.564
 4232POPC   PO454504  36.909  26.845   5.864
 4232POPC   GL154505  36.945  26.867   6.164
 4232POPC   GL254506  36.999  26.894   6.164
 4232POPC   C1A54507  36.874  26.810   6.464
 4232POPC   D2A54508  36.948  26.818   6.764
 4232POPC   C3A54509  36.915  26.825   7.064
 4232POPC   C4A54510  36.904  26.861   7.364
 4232POPC   C1B54511  37.152  26.914   6.464
 4232POPC   C2B54512  37.134  26.973   6.764
 4232POPC   C3B54513  37.077  27.006   7.064
 4232POPC   C4B54514  37.152  26.968   7.364
 4233POPC   NC354515  29.101  43.922   5.564
 4233POPC   PO454516  29.123  43.839   5.864
 4233POPC   GL154517  29.147  43.879   6.164
 4233POPC   GL254518  29.185  43.815   6.164
 4233POPC   C1A54519  29.114  43.934   6.464
 4233POPC   D2A54520  29.124  43.907   6.764
 4233POPC   C3A54521  29.101  43.886   7.064
 4233POPC   C4A54522  29.173  43.890   7.364
 4233POPC   C1B54523  29.345  43.734   6.464
 4233POPC   C2B54524  29.304  43.747   6.764
 4233POPC   C3B54525  29.308  43.743   7.064
 4233POPC   C4B54526  29.292  43.753   7.364
 4234POPC   NC354527  18.244  33.814   5.564
 4234POPC   PO454528  18.329  33.758   5.864
 4234POPC   GL154529  18.291  33.824   6.164
 4234POPC   GL254530  18.179  33.924   6.164
 4234POPC   C1A54531  18.307  33.806   6.464
 4234POPC   D2A54532  18.325  33.756   6.764
 4234POPC   C3A54533  18.330  33.778   7.064
 4234POPC   C4A54534  18.245  33.815   7.364
 4234POPC   C1B54535  18.119  33.938   6.464
 4234POPC   C2B54536  18.099  34.006   6.764
 4234POPC   C3B54537  18.043  33.915   7.064
 4234POPC   C4B54538  18.070  34.000   7.364
 4235POPC   NC354539  32.216  25.225   5.564
 4235POPC   PO454540  32.276  25.216   5.864
 4235POPC   GL154541  32.284  25.273   6.164
 4235POPC   GL254542  32.268  25.188   6.164
 4235POPC   C1A54543  32.223  25.251   6.464
 4235POPC   D2A54544  32.293  25.289   6.764
 4235POPC   C3A54545  32.259  25.311   7.064
 4235POPC   C4A54546  32.240  25.221   7.364
 4235POPC   C1B54547  32.285  25.045   6.464
 4235POPC   C2B54548  32.301  25.027   6.764
 4235POPC   C3B54549  32.235  25.041   7.064
 4235POPC   C4B54550  32.288  25.026   7.364
 4236POPC   NC354551   3.543  10.566   5.564
 4236POPC   PO454552   3.586  10.566   5.864
 4236POPC   GL154553   3.526  10.560   6.164
 4236POPC   GL254554   3.648  10.604   6.164
 4236POPC   C1A54555   3.559  10.499   6.464
 4236POPC   D2A54556   3.496  10.525   6.764
 4236POPC   C3A54557   3.585  10.484   7.064
 4236POPC   C4A54558   3.516  10.475   7.364
 4236POPC   C1B54559   3.798  10.591   6.464
 4236POPC   C2B54560   3.784  10.603   6.764
 4236POPC   C3B54561   3.805  10.570   7.064
 4236POPC   C4B54562   3.793  10.635   7.364
 4237POPC   NC354563  44.616   2.734   5.564
 4237POPC   PO454564  44.664   2.799   5.864
 4237POPC   GL154565  44.669   2.752   6.164
 4237POPC   GL254566  44.510   2.711   6.164
 4237POPC   C1A54567  44.697   2.815   6.464
 4237POPC   D2A54568  44.615   2.808   6.764
 4237POPC   C3A54569  44.676   2.801   7.064
 4237POPC   C4A54570  44.677   2.806   7.364
 4237POPC   C1B54571  44.389   2.706   6.464
 4237POPC   C2B54572  44.378   2.688   6.764
 4237POPC   C3B54573  44.384   2.644   7.064
 4237POPC   C4B54574  44.407   2.649   7.364
 4238POPC   NC354575  15.207   5.826   5.564
 4238POPC   PO454576  15.199   5.914   5.864
 4238POPC   GL154577  15.224   5.829   6.164
 4238POPC   GL254578  15.186   5.783   6.164
 4238POPC   C1A54579  15.202   5.846   6.464
 4238POPC   D2A54580  15.167   5.891   6.764
 4238POPC   C3A54581  15.220   5.879   7.064
 4238POPC   C4A54582  15.218   5.884   7.364
 4238POPC   C1B54583  15.333   5.603   6.464
 4238POPC   C2B54584  15.266   5.644   6.764
 4238POPC   C3B54585  15.331   5.682   7.064
 4238POPC   C4B54586  15.286   5.609   7.364
 4239POPC   NC354587  40.744  34.625   5.564
 4239POPC   PO454588  40.825  34.537   5.864
 4239POPC   GL154589  40.780  34.541   6.164
 4239POPC   GL254590  40.791  34.654   6.164
 4239POPC   C1A54591  40.743  34.595   6.464
 4239POPC   D2A54592  40.774  34.583   6.764
 4239POPC   C3A54593  40.832  34.617   7.064
 4239POPC   C4A54594  40.742  34.554   7.364
 4239POPC   C1B54595  40.762  34.861   6.464
 4239POPC   C2B54596  40.758  34.770   6.764
 4239POPC   C3B54597  40.751  34.770   7.064
 4239POPC   C4B54598  40.706  34.855   7.364
 4240POPC   NC354599   1.225  22.896   5.564
 4240POPC   PO454600   1.241  22.983   5.864
 4240POPC   GL154601   1.258  22.929   6.164
 4240POPC   GL254602   1.197  23.016   6.164
 4240POPC   C1A54603   1.198  22.945   6.464
 4240POPC   D2A54604   1.190  22.890   6.764
 4240POPC   C3A54605   1.191  22.927   7.064
 4240POPC   C4A54606   1.208  22.938   7.364
 4240POPC   C1B54607   1.128  23.189   6.464
 4240POPC   C2B54608   1.139  23.196   6.764
 4240POPC   C3B54609   1.122  23.203   7.064
 4240POPC   C4B54610   1.104  23.176   7.364
 4241POPC   NC354611  35.355   8.150   5.564
 4241POPC   PO454612  35.336   8.212   5.864
 4241POPC   GL154613  35.362   8.162   6.164
 4241POPC   GL254614  35.427   8.080   6.164
 4241POPC   C1A54615  35.312   8.161   6.464
 4241POPC   D2A54616  35.331   8.181   6.764
 4241POPC   C3A54617  35.396   8.174   7.064
 4241POPC   C4A54618  35.395   8.189   7.364
 4241POPC   C1B54619  35.498   7.949   6.464
 4241POPC   C2B54620  35.441   8.011   6.764
 4241POPC   C3B54621  35.497   7.933   7.064
 4241POPC   C4B54622  35.459   7.990   7.364
 4242POPC   NC354623  36.132  42.294   5.564
 4242POPC   PO454624  36.151  42.311   5.864
 4242POPC   GL154625  36.156  42.288   6.164
 4242POPC   GL254626  35.971  42.385   6.164
 4242POPC   C1A54627  36.133  42.359   6.464
 4242POPC   D2A54628  36.079  42.341   6.764
 4242POPC   C3A54629  36.148  42.288   7.064
 4242POPC   C4A54630  36.154  42.300   7.364
 4242POPC   C1B54631  35.903  42.488   6.464
 4242POPC   C2B54632  35.935  42.496   6.764
 4242POPC   C3B54633  35.878  42.450   7.064
 4242POPC   C4B54634  35.888  42.469   7.364
 4243POPC   NC354635  24.523   8.969   5.564
 4243POPC   PO454636  24.520   8.932   5.864
 4243POPC   GL154637  24.494   8.969   6.164
 4243POPC   GL254638  24.619   8.893   6.164
 4243POPC   C1A54639  24.510   8.966   6.464
 4243POPC   D2A54640  24.531   9.021   6.764
 4243POPC   C3A54641  24.487   9.012   7.064
 4243POPC   C4A54642  24.502   9.012   7.364
 4243POPC   C1B54643  24.712   8.911   6.464
 4243POPC   C2B54644  24.755   8.914   6.764
 4243POPC   C3B54645  24.749   8.856   7.064
 4243POPC   C4B54646  24.735   8.873   7.364
 4244POPC   NC354647  12.820   7.408   5.564
 4244POPC   PO454648  12.872   7.395   5.864
 4244POPC   GL154649  12.843   7.386   6.164
 4244POPC   GL254650  12.769   7.364   6.164
 4244POPC   C1A54651  12.811   7.452   6.464
 4244POPC   D2A54652  12.838   7.376   6.764
 4244POPC   C3A54653  12.826   7.432   7.064
 4244POPC   C4A54654  12.857   7.386   7.364
 4244POPC   C1B54655  12.664   7.274   6.464
 4244POPC   C2B54656  12.697   7.236   6.764
 4244POPC   C3B54657  12.619   7.270   7.064
 4244POPC   C4B54658  12.624   7.274   7.364
 4245POPC   NC354659   0.406  10.534   5.564
 4245POPC   PO454660   0.429  10.564   5.864
 4245POPC   GL154661   0.455  10.509   6.164
 4245POPC   GL254662   0.470  10.625   6.164
 4245POPC   C1A54663   0.413  10.557   6.464
 4245POPC   D2A54664   0.453  10.529   6.764
 4245POPC   C3A54665   0.467  10.531   7.064
 4245POPC   C4A54666   0.418  10.500   7.364
 4245POPC   C1B54667   0.396  10.750   6.464
 4245POPC   C2B54668   0.398  10.731   6.764
 4245POPC   C3B54669   0.434  10.790   7.064
 4245POPC   C4B54670   0.486  10.775   7.364
 4246POPC   NC354671  30.680  26.791   5.564
 4246POPC   PO454672  30.672  26.812   5.864
 4246POPC   GL154673  30.732  26.810   6.164
 4246POPC   GL254674  30.716  26.709   6.164
 4246POPC   C1A54675  30.665  26.776   6.464
 4246POPC   D2A54676  30.682  26.772   6.764
 4246POPC   C3A54677  30.699  26.830   7.064
 4246POPC   C4A54678  30.676  26.772   7.364
 4246POPC   C1B54679  30.795  26.542   6.464
 4246POPC   C2B54680  30.707  26.619   6.764
 4246POPC   C3B54681  30.758  26.538   7.064
 4246POPC   C4B54682  30.732  26.561   7.364
 4247POPC   NC354683   2.804  22.948   5.564
 4247POPC   PO454684   2.744  22.919   5.864
 4247POPC   GL154685   2.733  22.906   6.164
 4247POPC   GL254686   2.860  23.030   6.164
 4247POPC   C1A54687   2.801  22.969   6.464
 4247POPC   D2A54688   2.766  22.912   6.764
 4247POPC   C3A54689   2.775  22.920   7.064
 4247POPC   C4A54690   2.782  22.973   7.364
 4247POPC   C1B54691   3.000  23.054   6.464
 4247POPC   C2B54692   2.936  23.059   6.764
 4247POPC   C3B54693   2.998  23.024   7.064
 4247POPC   C4B54694   2.977  23.070   7.364
 4248POPC   NC354695  42.370  25.310   5.564
 4248POPC   PO454696  42.365  25.285   5.864
 4248POPC   GL154697  42.292  25.298   6.164
 4248POPC   GL254698  42.391  25.196   6.164
 4248POPC   C1A54699  42.325  25.255   6.464
 4248POPC   D2A54700  42.349  25.251   6.764
 4248POPC   C3A54701  42.331  25.277   7.064
 4248POPC   C4A54702  42.329  25.222   7.364
 4248POPC   C1B54703  42.527  25.086   6.464
 4248POPC   C2B54704  42.503  25.156   6.764
 4248POPC   C3B54705  42.568  25.118   7.064
 4248POPC   C4B54706  42.573  25.119   7.364
 4249POPC   NC354707  21.414  35.401   5.564
 4249POPC   PO454708  21.379  35.369   5.864
 4249POPC   GL154709  21.401  35.304   6.164
 4249POPC   GL254710  21.317  35.217   6.164
 4249POPC   C1A54711  21.426  35.309   6.464
 4249POPC   D2A54712  21.351  35.320   6.764
 4249POPC   C3A54713  21.363  35.358   7.064
 4249POPC   C4A54714  21.426  35.337   7.364
 4249POPC   C1B54715  21.362  35.138   6.464
 4249POPC   C2B54716  21.316  35.105   6.764
 4249POPC   C3B54717  21.325  35.095   7.064
 4249POPC   C4B54718  21.295  35.138   7.364
 4250POPC   NC354719  26.075   9.772   5.564
 4250POPC   PO454720  26.043   9.699   5.864
 4250POPC   GL154721  26.028   9.766   6.164
 4250POPC   GL254722  26.034   9.586   6.164
 4250POPC   C1A54723  26.058   9.774   6.464
 4250POPC   D2A54724  25.994   9.791   6.764
 4250POPC   C3A54725  26.091   9.792   7.064
 4250POPC   C4A54726  26.039   9.779   7.364
 4250POPC   C1B54727  25.967   9.526   6.464
 4250POPC   C2B54728  26.027   9.498   6.764
 4250POPC   C3B54729  25.968   9.524   7.064
 4250POPC   C4B54730  26.002   9.517   7.364
 4251POPC   NC354731  20.632  35.356   5.564
 4251POPC   PO454732  20.597  35.312   5.864
 4251POPC   GL154733  20.587  35.363   6.164
 4251POPC   GL254734  20.680  35.428   6.164
 4251POPC   C1A54735  20.651  35.396   6.464
 4251POPC   D2A54736  20.640  35.356   6.764
 4251POPC   C3A54737  20.608  35.321   7.064
 4251POPC   C4A54738  20.589  35.356   7.364
 4251POPC   C1B54739  20.657  35.568   6.464
 4251POPC   C2B54740  20.698  35.541   6.764
 4251POPC   C3B54741  20.702  35.537   7.064
 4251POPC   C4B54742  20.695  35.564   7.364
 4252POPC   NC354743  41.565  35.378   5.564
 4252POPC   PO454744  41.566  35.385   5.864
 4252POPC   GL154745  41.593  35.400   6.164
 4252POPC   GL254746  41.499  35.318   6.164
 4252POPC   C1A54747  41.559  35.374   6.464
 4252POPC   D2A54748  41.545  35.351   6.764
 4252POPC   C3A54749  41.541  35.359   7.064
 4252POPC   C4A54750  41.542  35.315   7.364
 4252POPC   C1B54751  41.387  35.174   6.464
 4252POPC   C2B54752  41.386  35.230   6.764
 4252POPC   C3B54753  41.344  35.207   7.064
 4252POPC   C4B54754  41.314  35.245   7.364
 4253POPC   NC354755  32.234  36.083   5.564
 4253POPC   PO454756  32.227  36.089   5.864
 4253POPC   GL154757  32.253  36.135   6.164
 4253POPC   GL254758  32.343  36.021   6.164
 4253POPC   C1A54759  32.240  36.112   6.464
 4253POPC   D2A54760  32.230  36.174   6.764
 4253POPC   C3A54761  32.204  36.125   7.064
 4253POPC   C4A54762  32.297  36.146   7.364
 4253POPC   C1B54763  32.442  35.927   6.464
 4253POPC   C2B54764  32.466  35.998   6.764
 4253POPC   C3B54765  32.405  35.975   7.064
 4253POPC   C4B54766  32.418  35.977   7.364
 4254POPC   NC354767  12.853  25.222   5.564
 4254POPC   PO454768  12.896  25.303   5.864
 4254POPC   GL154769  12.870  25.309   6.164
 4254POPC   GL254770  12.924  25.336   6.164
 4254POPC   C1A54771  12.866  25.292   6.464
 4254POPC   D2A54772  12.841  25.217   6.764
 4254POPC   C3A54773  12.804  25.229   7.064
 4254POPC   C4A54774  12.813  25.250   7.364
 4254POPC   C1B54775  13.092  25.326   6.464
 4254POPC   C2B54776  13.100  25.310   6.764
 4254POPC   C3B54777  13.113  25.301   7.064
 4254POPC   C4B54778  13.066  25.307   7.364
 4255POPC   NC354779  28.358  37.689   5.564
 4255POPC   PO454780  28.390  37.700   5.864
 4255POPC   GL154781  28.348  37.679   6.164
 4255POPC   GL254782  28.453  37.729   6.164
 4255POPC   C1A54783  28.376  37.662   6.464
 4255POPC   D2A54784  28.323  37.640   6.764
 4255POPC   C3A54785  28.347  37.668   7.064
 4255POPC   C4A54786  28.411  37.703   7.364
 4255POPC   C1B54787  28.642  37.732   6.464
 4255POPC   C2B54788  28.578  37.801   6.764
 4255POPC   C3B54789  28.597  37.789   7.064
 4255POPC   C4B54790  28.614  37.804   7.364
 4256POPC   NC354791   6.670   0.452   5.564
 4256POPC   PO454792   6.685   0.444   5.864
 4256POPC   GL154793   6.607   0.423   6.164
 4256POPC   GL254794   6.669   0.275   6.164
 4256POPC   C1A54795   6.601   0.479   6.464
 4256POPC   D2A54796   6.654   0.427   6.764
 4256POPC   C3A54797   6.688   0.424   7.064
 4256POPC   C4A54798   6.659   0.469   7.364
 4256POPC   C1B54799   6.707   0.155   6.464
 4256POPC   C2B54800   6.733   0.214   6.764
 4256POPC   C3B54801   6.734   0.151   7.064
 4256POPC   C4B54802   6.729   0.218   7.364
 4257POPC   NC354803  24.534  15.188   5.564
 4257POPC   PO454804  24.518  15.156   5.864
 4257POPC   GL154805  24.459  15.229   6.164
 4257POPC   GL254806  24.488  15.319   6.164
 4257POPC   C1A54807  24.445  15.218   6.464
 4257POPC   D2A54808  24.531  15.145   6.764
 4257POPC   C3A54809  24.485  15.145   7.064
 4257POPC   C4A54810  24.496  15.176   7.364
 4257POPC   C1B54811  24.504  15.425   6.464
 4257POPC   C2B54812  24.515  15.474   6.764
 4257POPC   C3B54813  24.509  15.420   7.064
 4257POPC   C4B54814  24.522  15.398   7.364
 4258POPC   NC354815  33.831  44.710   5.564
 4258POPC   PO454816  33.779  44.615   5.864
 4258POPC   GL154817  33.795  44.657   6.164
 4258POPC   GL254818  33.917  44.636   6.164
 4258POPC   C1A54819  33.845  44.671   6.464
 4258POPC   D2A54820  33.823  44.674   6.764
 4258POPC   C3A54821  33.759  44.638   7.064
 4258POPC   C4A54822  33.761  44.667   7.364
 4258POPC   C1B54823  33.999  44.610   6.464
 4258POPC   C2B54824  34.018  44.547   6.764
 4258POPC   C3B54825  34.035  44.577   7.064
 4258POPC   C4B54826  33.980  44.591   7.364
 4259POPC   NC354827  12.812  19.102   5.564
 4259POPC   PO454828  12.841  19.040   5.864
 4259POPC   GL154829  12.803  19.034   6.164
 4259POPC   GL254830  12.776  19.182   6.164
 4259POPC   C1A54831  12.807  19.081   6.464
 4259POPC   D2A54832  12.806  19.067   6.764
 4259POPC   C3A54833  12.887  19.078   7.064
 4259POPC   C4A54834  12.863  19.099   7.364
 4259POPC   C1B54835  12.706  19.284   6.464
 4259POPC   C2B54836  12.760  19.308   6.764
 4259POPC   C3B54837  12.745  19.247   7.064
 4259POPC   C4B54838  12.735  19.287   7.364
 4260POPC   NC354839  36.161   3.499   5.564
 4260POPC   PO454840  36.167   3.504   5.864
 4260POPC   GL154841  36.085   3.587   6.164
 4260POPC   GL254842  36.064   3.646   6.164
 4260POPC   C1A54843  36.112   3.585   6.464
 4260POPC   D2A54844  36.118   3.589   6.764
 4260POPC   C3A54845  36.147   3.552   7.064
 4260POPC   C4A54846  36.135   3.511   7.364
 4260POPC   C1B54847  36.006   3.723   6.464
 4260POPC   C2B54848  35.981   3.771   6.764
 4260POPC   C3B54849  36.017   3.795   7.064
 4260POPC   C4B54850  35.974   3.777   7.364
 4261POPC   NC354851  29.132   0.401   5.564
 4261POPC   PO454852  29.106   0.441   5.864
 4261POPC   GL154853  29.114   0.451   6.164
 4261POPC   GL254854  29.266   0.394   6.164
 4261POPC   C1A54855  29.120   0.424   6.464
 4261POPC   D2A54856  29.143   0.454   6.764
 4261POPC   C3A54857  29.159   0.454   7.064
 4261POPC   C4A54858  29.103   0.471   7.364
 4261POPC   C1B54859  29.405   0.267   6.464
 4261POPC   C2B54860  29.372   0.259   6.764
 4261POPC   C3B54861  29.323   0.324   7.064
 4261POPC   C4B54862  29.343   0.321   7.364
 4262POPC   NC354863   6.603  40.797   5.564
 4262POPC   PO454864   6.602  40.733   5.864
 4262POPC   GL154865   6.599  40.769   6.164
 4262POPC   GL254866   6.673  40.915   6.164
 4262POPC   C1A54867   6.624  40.792   6.464
 4262POPC   D2A54868   6.674  40.803   6.764
 4262POPC   C3A54869   6.629  40.798   7.064
 4262POPC   C4A54870   6.687  40.771   7.364
 4262POPC   C1B54871   6.595  41.040   6.464
 4262POPC   C2B54872   6.615  41.079   6.764
 4262POPC   C3B54873   6.645  41.058   7.064
 4262POPC   C4B54874   6.614  41.012   7.364
 4263POPC   NC354875  37.665  24.441   5.564
 4263POPC   PO454876  37.692  24.455   5.864
 4263POPC   GL154877  37.706  24.504   6.164
 4263POPC   GL254878  37.756  24.388   6.164
 4263POPC   C1A54879  37.663  24.518   6.464
 4263POPC   D2A54880  37.650  24.484   6.764
 4263POPC   C3A54881  37.631  24.448   7.064
 4263POPC   C4A54882  37.713  24.466   7.364
 4263POPC   C1B54883  37.789  24.271   6.464
 4263POPC   C2B54884  37.804  24.265   6.764
 4263POPC   C3B54885  37.793  24.261   7.064
 4263POPC   C4B54886  37.778  24.224   7.364
 4264POPC   NC354887  42.346   7.399   5.564
 4264POPC   PO454888  42.288   7.454   5.864
 4264POPC   GL154889  42.358   7.376   6.164
 4264POPC   GL254890  42.388   7.539   6.164
 4264POPC   C1A54891  42.315   7.437   6.464
 4264POPC   D2A54892  42.287   7.378   6.764
 4264POPC   C3A54893  42.293   7.383   7.064
 4264POPC   C4A54894  42.350   7.399   7.364
 4264POPC   C1B54895  42.371   7.681   6.464
 4264POPC   C2B54896  42.419   7.707   6.764
 4264POPC   C3B54897  42.375   7.670   7.064
 4264POPC   C4B54898  42.339   7.661   7.364
 4265POPC   NC354899  35.313   1.254   5.564
 4265POPC   PO454900  35.318   1.180   5.864
 4265POPC   GL154901  35.333   1.200   6.164
 4265POPC   GL254902  35.261   1.161   6.164
 4265POPC   C1A54903  35.370   1.184   6.464
 4265POPC   D2A54904  35.400   1.254   6.764
 4265POPC   C3A54905  35.318   1.218   7.064
 4265POPC   C4A54906  35.309   1.256   7.364
 4265POPC   C1B54907  35.153   1.107   6.464
 4265POPC   C2B54908  35.151   1.096   6.764
 4265POPC   C3B54909  35.099   1.143   7.064
 4265POPC   C4B54910  35.127   1.086   7.364
 4266POPC   NC354911  39.245  25.277   5.564
 4266POPC   PO454912  39.227  25.309   5.864
 4266POPC   GL154913  39.184  25.229   6.164
 4266POPC   GL254914  39.194  25.379   6.164
 4266POPC   C1A54915  39.243  25.249   6.464
 4266POPC   D2A54916  39.201  25.243   6.764
 4266POPC   C3A54917  39.227  25.223   7.064
 4266POPC   C4A54918  39.229  25.291   7.364
 4266POPC   C1B54919  39.202  25.497   6.464
 4266POPC   C2B54920  39.134  25.518   6.764
 4266POPC   C3B54921  39.147  25.483   7.064
 4266POPC   C4B54922  39.143  25.465   7.364
 4267POPC   NC354923  39.987  26.043   5.564
 4267POPC   PO454924  39.995  26.091   5.864
 4267POPC   GL154925  39.997  26.089   6.164
 4267POPC   GL254926  39.857  26.033   6.164
 4267POPC   C1A54927  40.007  26.057   6.464
 4267POPC   D2A54928  40.023  26.046   6.764
 4267POPC   C3A54929  39.984  26.029   7.064
 4267POPC   C4A54930  39.964  26.032   7.364
 4267POPC   C1B54931  39.818  26.139   6.464
 4267POPC   C2B54932  39.811  26.092   6.764
 4267POPC   C3B54933  39.801  26.145   7.064
 4267POPC   C4B54934  39.753  26.129   7.364
 4268POPC   NC354935   7.415   1.944   5.564
 4268POPC   PO454936   7.400   2.034   5.864
 4268POPC   GL154937   7.430   2.001   6.164
 4268POPC   GL254938   7.335   1.984   6.164
 4268POPC   C1A54939   7.395   1.977   6.464
 4268POPC   D2A54940   7.397   1.940   6.764
 4268POPC   C3A54941   7.437   1.960   7.064
 4268POPC   C4A54942   7.420   1.940   7.364
 4268POPC   C1B54943   7.146   2.018   6.464
 4268POPC   C2B54944   7.206   2.006   6.764
 4268POPC   C3B54945   7.213   2.055   7.064
 4268POPC   C4B54946   7.125   2.037   7.364
 4269POPC   NC354947  11.291  19.106   5.564
 4269POPC   PO454948  11.308  19.088   5.864
 4269POPC   GL154949  11.349  19.091   6.164
 4269POPC   GL254950  11.318  19.132   6.164
 4269POPC   C1A54951  11.275  19.097   6.464
 4269POPC   D2A54952  11.270  19.031   6.764
 4269POPC   C3A54953  11.350  19.067   7.064
 4269POPC   C4A54954  11.272  19.060   7.364
 4269POPC   C1B54955  11.270  19.336   6.464
 4269POPC   C2B54956  11.293  19.316   6.764
 4269POPC   C3B54957  11.277  19.281   7.064
 4269POPC   C4B54958  11.261  19.325   7.364
 4270POPC   NC354959   2.763  33.059   5.564
 4270POPC   PO454960   2.809  32.987   5.864
 4270POPC   GL154961   2.781  32.975   6.164
 4270POPC   GL254962   2.932  33.020   6.164
 4270POPC   C1A54963   2.725  33.053   6.464
 4270POPC   D2A54964   2.744  33.049   6.764
 4270POPC   C3A54965   2.757  33.060   7.064
 4270POPC   C4A54966   2.773  33.005   7.364
 4270POPC   C1B54967   2.969  32.902   6.464
 4270POPC   C2B54968   2.972  32.975   6.764
 4270POPC   C3B54969   2.983  32.941   7.064
 4270POPC   C4B54970   3.033  32.963   7.364
 4271POPC   NC354971  37.679   3.549   5.564
 4271POPC   PO454972  37.689   3.536   5.864
 4271POPC   GL154973  37.668   3.571   6.164
 4271POPC   GL254974  37.782   3.446   6.164
 4271POPC   C1A54975  37.660   3.537   6.464
 4271POPC   D2A54976  37.729   3.500   6.764
 4271POPC   C3A54977  37.675   3.550   7.064
 4271POPC   C4A54978  37.722   3.571   7.364
 4271POPC   C1B54979  37.845   3.280   6.464
 4271POPC   C2B54980  37.810   3.371   6.764
 4271POPC   C3B54981  37.820   3.337   7.064
 4271POPC   C4B54982  37.840   3.285   7.364
 4272POPC   NC354983  25.249   2.776   5.564
 4272POPC   PO454984  25.241   2.778   5.864
 4272POPC   GL154985  25.266   2.723   6.164
 4272POPC   GL254986  25.094   2.802   6.164
 4272POPC   C1A54987  25.293   2.746   6.464
 4272POPC   D2A54988  25.277   2.766   6.764
 4272POPC   C3A54989  25.259   2.747   7.064
 4272POPC   C4A54990  25.243   2.733   7.364
 4272POPC   C1B54991  25.049   2.834   6.464
 4272POPC   C2B54992  25.046   2.844   6.764
 4272POPC   C3B54993  25.024   2.844   7.064
 4272POPC   C4B54994  25.046   2.816   7.364
 4273POPC   NC354995  44.639  32.288   5.564
 4273POPC   PO454996  44.628  32.229   5.864
 4273POPC   GL154997  44.616  32.219   6.164
 4273POPC   GL254998  44.581  32.303   6.164
 4273POPC   C1A54999  44.691  32.209   6.464
 4273POPC   D2A55000  44.675  32.224   6.764
 4273POPC   C3A55001  44.659  32.222   7.064
 4273POPC   C4A55002  44.632  32.297   7.364
 4273POPC   C1B55003  44.390  32.283   6.464
 4273POPC   C2B55004  44.416  32.372   6.764
 4273POPC   C3B55005  44.424  32.352   7.064
 4273POPC   C4B55006  44.474  32.297   7.364
 4274POPC   NC355007  13.648  20.564   5.564
 4274POPC   PO455008  13.585  20.561   5.864
 4274POPC   GL155009  13.658  20.652   6.164
 4274POPC   GL255010  13.731  20.514   6.164
 4274POPC   C1A55011  13.622  20.579   6.464
 4274POPC   D2A55012  13.608  20.561   6.764
 4274POPC   C3A55013  13.646  20.584   7.064
 4274POPC   C4A55014  13.672  20.637   7.364
 4274POPC   C1B55015  13.830  20.391   6.464
 4274POPC   C2B55016  13.805  20.392   6.764
 4274POPC   C3B55017  13.747  20.433   7.064
 4274POPC   C4B55018  13.821  20.451   7.364
 4275POPC   NC355019  19.813  31.437   5.564
 4275POPC   PO455020  19.842  31.504   5.864
 4275POPC   GL155021  19.810  31.483   6.164
 4275POPC   GL255022  19.901  31.405   6.164
 4275POPC   C1A55023  19.795  31.499   6.464
 4275POPC   D2A55024  19.867  31.430   6.764
 4275POPC   C3A55025  19.874  31.438   7.064
 4275POPC   C4A55026  19.831  31.513   7.364
 4275POPC   C1B55027  20.034  31.312   6.464
 4275POPC   C2B55028  19.973  31.311   6.764
 4275POPC   C3B55029  20.051  31.301   7.064
 4275POPC   C4B55030  19.971  31.311   7.364
 4276POPC   NC355031   8.193  33.024   5.564
 4276POPC   PO455032   8.166  33.072   5.864
 4276POPC   GL155033   8.175  33.023   6.164
 4276POPC   GL255034   8.316  33.143   6.164
 4276POPC   C1A55035   8.158  33.069   6.464
 4276POPC   D2A55036   8.181  33.006   6.764
 4276POPC   C3A55037   8.194  33.026   7.064
 4276POPC   C4A55038   8.189  32.991   7.364
 4276POPC   C1B55039   8.327  33.186   6.464
 4276POPC   C2B55040   8.410  33.207   6.764
 4276POPC   C3B55041   8.393  33.205   7.064
 4276POPC   C4B55042   8.371  33.181   7.364
 4277POPC   NC355043  19.865   5.100   5.564
 4277POPC   PO455044  19.801   5.057   5.864
 4277POPC   GL155045  19.879   5.058   6.164
 4277POPC   GL255046  19.785   5.250   6.164
 4277POPC   C1A55047  19.816   5.045   6.464
 4277POPC   D2A55048  19.855   5.069   6.764
 4277POPC   C3A55049  19.789   5.092   7.064
 4277POPC   C4A55050  19.854   5.135   7.364
 4277POPC   C1B55051  19.666   5.321   6.464
 4277POPC   C2B55052  19.739   5.278   6.764
 4277POPC   C3B55053  19.755   5.353   7.064
 4277POPC   C4B55054  19.740   5.349   7.364
 4278POPC   NC355055  26.078  37.695   5.564
 4278POPC   PO455056  26.024  37.705   5.864
 4278POPC   GL155057  26.056  37.670   6.164
 4278POPC   GL255058  26.121  37.701   6.164
 4278POPC   C1A55059  26.076  37.717   6.464
 4278POPC   D2A55060  26.058  37.658   6.764
 4278POPC   C3A55061  26.019  37.647   7.064
 4278POPC   C4A55062  26.067  37.673   7.364
 4278POPC   C1B55063  26.296  37.651   6.464
 4278POPC   C2B55064  26.328  37.647   6.764
 4278POPC   C3B55065  26.304  37.697   7.064
 4278POPC   C4B55066  26.302  37.696   7.364
 4279POPC   NC355067  29.954  43.106   5.564
 4279POPC   PO455068  29.938  43.152   5.864
 4279POPC   GL155069  29.915  43.079   6.164
 4279POPC   GL255070  29.952  42.938   6.164
 4279POPC   C1A55071  29.880  43.121   6.464
 4279POPC   D2A55072  29.872  43.150   6.764
 4279POPC   C3A55073  29.913  43.124   7.064
 4279POPC   C4A55074  29.876  43.102   7.364
 4279POPC   C1B55075  29.954  42.879   6.464
 4279POPC   C2B55076  29.912  42.872   6.764
 4279POPC   C3B55077  29.966  42.865   7.064
 4279POPC   C4B55078  29.939  42.815   7.364
 4280POPC   NC355079  41.565  18.283   5.564
 4280POPC   PO455080  41.567  18.294   5.864
 4280POPC   GL155081  41.562  18.292   6.164
 4280POPC   GL255082  41.600  18.414   6.164
 4280POPC   C1A55083  41.550  18.307   6.464
 4280POPC   D2A55084  41.558  18.251   6.764
 4280POPC   C3A55085  41.589  18.289   7.064
 4280POPC   C4A55086  41.594  18.268   7.364
 4280POPC   C1B55087  41.627  18.580   6.464
 4280POPC   C2B55088  41.601  18.577   6.764
 4280POPC   C3B55089  41.585  18.572   7.064
 4280POPC   C4B55090  41.577  18.580   7.364
 4281POPC   NC355091  43.099   1.992   5.564
 4281POPC   PO455092  43.157   1.944   5.864
 4281POPC   GL155093  43.123   1.958   6.164
 4281POPC   GL255094  43.191   2.094   6.164
 4281POPC   C1A55095  43.136   2.017   6.464
 4281POPC   D2A55096  43.074   2.002   6.764
 4281POPC   C3A55097  43.140   1.984   7.064
 4281POPC   C4A55098  43.060   1.952   7.364
 4281POPC   C1B55099  43.248   2.148   6.464
 4281POPC   C2B55100  43.336   2.132   6.764
 4281POPC   C3B55101  43.317   2.172   7.064
 4281POPC   C4B55102  43.249   2.147   7.364
 4282POPC   NC355103  25.242  12.850   5.564
 4282POPC   PO455104  25.251  12.814   5.864
 4282POPC   GL155105  25.276  12.807   6.164
 4282POPC   GL255106  25.393  12.865   6.164
 4282POPC   C1A55107  25.296  12.879   6.464
 4282POPC   D2A55108  25.277  12.816   6.764
 4282POPC   C3A55109  25.291  12.837   7.064
 4282POPC   C4A55110  25.237  12.831   7.364
 4282POPC   C1B55111  25.553  12.906   6.464
 4282POPC   C2B55112  25.548  12.901   6.764
 4282POPC   C3B55113  25.547  12.883   7.064
 4282POPC   C4B55114  25.548  12.925   7.364
 4283POPC   NC355115  20.659   2.022   5.564
 4283POPC   PO455116  20.630   1.994   5.864
 4283POPC   GL155117  20.591   2.024   6.164
 4283POPC   GL255118  20.472   1.888   6.164
 4283POPC   C1A55119  20.635   1.948   6.464
 4283POPC   D2A55120  20.602   1.986   6.764
 4283POPC   C3A55121  20.617   2.025   7.064
 4283POPC   C4A55122  20.607   2.025   7.364
 4283POPC   C1B55123  20.369   1.855   6.464
 4283POPC   C2B55124  20.389   1.814   6.764
 4283POPC   C3B55125  20.423   1.852   7.064
 4283POPC   C4B55126  20.440   1.853   7.364
 4284POPC   NC355127  36.171  43.855   5.564
 4284POPC   PO455128  36.079  43.910   5.864
 4284POPC   GL155129  36.144  43.837   6.164
 4284POPC   GL255130  36.049  43.966   6.164
 4284POPC   C1A55131  36.151  43.840   6.464
 4284POPC   D2A55132  36.116  43.875   6.764
 4284POPC   C3A55133  36.100  43.864   7.064
 4284POPC   C4A55134  36.105  43.891   7.364
 4284POPC   C1B55135  35.857  43.993   6.464
 4284POPC   C2B55136  35.885  44.032   6.764
 4284POPC   C3B55137  35.902  43.984   7.064
 4284POPC   C4B55138  35.896  43.994   7.364
 4285POPC   NC355139  10.574  43.892   5.564
 4285POPC   PO455140  10.565  43.838   5.864
 4285POPC   GL155141  10.507  43.850   6.164
 4285POPC   GL255142  10.560  43.774   6.164
 4285POPC   C1A55143  10.500  43.860   6.464
 4285POPC   D2A55144  10.547  43.896   6.764
 4285POPC   C3A55145  10.532  43.876   7.064
 4285POPC   C4A55146  10.488  43.894   7.364
 4285POPC   C1B55147  10.652  43.680   6.464
 4285POPC   C2B55148  10.692  43.641   6.764
 4285POPC   C3B55149  10.703  43.694   7.064
 4285POPC   C4B55150  10.688  43.642   7.364
 4286POPC   NC355151   2.771  26.057   5.564
 4286POPC   PO455152   2.773  26.033   5.864
 4286POPC   GL155153   2.777  26.019   6.164
 4286POPC   GL255154   2.647  26.187   6.164
 4286POPC   C1A55155   2.790  26.019   6.464
 4286POPC   D2A55156   2.770  26.084   6.764
 4286POPC   C3A55157   2.736  25.998   7.064
 4286POPC   C4A55158   2.746  26.050   7.364
 4286POPC   C1B55159   2.565  26.242   6.464
 4286POPC   C2B55160   2.560  26.190   6.764
 4286POPC   C3B55161   2.561  26.231   7.064
 4286POPC   C4B55162   2.588  26.250   7.364
 4287POPC   NC355163  28.358  36.132   5.564
 4287POPC   PO455164  28.323  36.139   5.864
 4287POPC   GL155165  28.324  36.100   6.164
 4287POPC   GL255166  28.476  36.098   6.164
 4287POPC   C1A55167  28.339  36.138   6.464
 4287POPC   D2A55168  28.399  36.080   6.764
 4287POPC   C3A55169  28.383  36.090   7.064
 4287POPC   C4A55170  28.395  36.122   7.364
 4287POPC   C1B55171  28.627  36.128   6.464
 4287POPC   C2B55172  28.616  36.091   6.764
 4287POPC   C3B55173  28.644  36.124   7.064
 4287POPC   C4B55174  28.632  36.168   7.364
 4288POPC   NC355175  25.311  43.879   5.564
 4288POPC   PO455176  25.216  43.841   5.864
 4288POPC   GL155177  25.264  43.885   6.164
 4288POPC   GL255178  25.180  43.778   6.164
 4288POPC   C1A55179  25.258  43.887   6.464
 4288POPC   D2A55180  25.306  43.907   6.764
 4288POPC   C3A55181  25.234  43.847   7.064
 4288POPC   C4A55182  25.259  43.896   7.364
 4288POPC   C1B55183  25.052  43.747   6.464
 4288POPC   C2B55184  25.114  43.699   6.764
 4288POPC   C3B55185  25.089  43.689   7.064
 4288POPC   C4B55186  25.072  43.694   7.364
 4289POPC   NC355187  39.203   3.590   5.564
 4289POPC   PO455188  39.240   3.508   5.864
 4289POPC   GL155189  39.207   3.492   6.164
 4289POPC   GL255190  39.141   3.476   6.164
 4289POPC   C1A55191  39.200   3.541   6.464
 4289POPC   D2A55192  39.227   3.569   6.764
 4289POPC   C3A55193  39.200   3.497   7.064
 4289POPC   C4A55194  39.248   3.493   7.364
 4289POPC   C1B55195  38.975   3.459   6.464
 4289POPC   C2B55196  38.960   3.420   6.764
 4289POPC   C3B55197  38.952   3.449   7.064
 4289POPC   C4B55198  38.991   3.459   7.364
 4290POPC   NC355199  14.373  20.609   5.564
 4290POPC   PO455200  14.411  20.657   5.864
 4290POPC   GL155201  14.405  20.602   6.164
 4290POPC   GL255202  14.384  20.727   6.164
 4290POPC   C1A55203  14.367  20.615   6.464
 4290POPC   D2A55204  14.450  20.610   6.764
 4290POPC   C3A55205  14.395  20.589   7.064
 4290POPC   C4A55206  14.449  20.606   7.364
 4290POPC   C1B55207  14.352  20.891   6.464
 4290POPC   C2B55208  14.410  20.843   6.764
 4290POPC   C3B55209  14.367  20.866   7.064
 4290POPC   C4B55210  14.347  20.841   7.364
 4291POPC   NC355211   0.448  17.519   5.564
 4291POPC   PO455212   0.445  17.480   5.864
 4291POPC   GL155213   0.391  17.471   6.164
 4291POPC   GL255214   0.398  17.383   6.164
 4291POPC   C1A55215   0.416  17.499   6.464
 4291POPC   D2A55216   0.441  17.458   6.764
 4291POPC   C3A55217   0.473  17.551   7.064
 4291POPC   C4A55218   0.480  17.545   7.364
 4291POPC   C1B55219   0.288  17.257   6.464
 4291POPC   C2B55220   0.297  17.286   6.764
 4291POPC   C3B55221   0.273  17.354   7.064
 4291POPC   C4B55222   0.287  17.273   7.364
 4292POPC   NC355223  30.702  36.903   5.564
 4292POPC   PO455224  30.727  36.907   5.864
 4292POPC   GL155225  30.653  36.953   6.164
 4292POPC   GL255226  30.784  36.939   6.164
 4292POPC   C1A55227  30.671  36.915   6.464
 4292POPC   D2A55228  30.672  36.932   6.764
 4292POPC   C3A55229  30.743  36.918   7.064
 4292POPC   C4A55230  30.691  36.870   7.364
 4292POPC   C1B55231  30.966  36.894   6.464
 4292POPC   C2B55232  30.982  36.970   6.764
 4292POPC   C3B55233  30.932  36.973   7.064
 4292POPC   C4B55234  30.913  36.948   7.364
 4293POPC   NC355235  29.932   5.050   5.564
 4293POPC   PO455236  29.923   5.139   5.864
 4293POPC   GL155237  29.899   5.134   6.164
 4293POPC   GL255238  29.882   5.225   6.164
 4293POPC   C1A55239  29.907   5.055   6.464
 4293POPC   D2A55240  29.970   5.108   6.764
 4293POPC   C3A55241  29.916   5.097   7.064
 4293POPC   C4A55242  29.928   5.100   7.364
 4293POPC   C1B55243  29.944   5.303   6.464
 4293POPC   C2B55244  29.912   5.302   6.764
 4293POPC   C3B55245  29.960   5.330   7.064
 4293POPC   C4B55246  29.894   5.372   7.364
 4294POPC   NC355247   3.566  26.070   5.564
 4294POPC   PO455248   3.509  26.064   5.864
 4294POPC   GL155249   3.538  26.064   6.164
 4294POPC   GL255250   3.601  25.895   6.164
 4294POPC   C1A55251   3.547  26.051   6.464
 4294POPC   D2A55252   3.518  26.033   6.764
 4294POPC   C3A55253   3.558  26.018   7.064
 4294POPC   C4A55254   3.557  25.993   7.364
 4294POPC   C1B55255   3.666  25.837   6.464
 4294POPC   C2B55256   3.625  25.842   6.764
 4294POPC   C3B55257   3.665  25.775   7.064
 4294POPC   C4B55258   3.672  25.861   7.364
 4295POPC   NC355259  42.318  22.918   5.564
 4295POPC   PO455260  42.314  22.933   5.864
 4295POPC   GL155261  42.291  22.916   6.164
 4295POPC   GL255262  42.266  22.879   6.164
 4295POPC   C1A55263  42.294  22.904   6.464
 4295POPC   D2A55264  42.286  22.900   6.764
 4295POPC   C3A55265  42.321  22.931   7.064
 4295POPC   C4A55266  42.369  22.894   7.364
 4295POPC   C1B55267  42.130  22.833   6.464
 4295POPC   C2B55268  42.173  22.770   6.764
 4295POPC   C3B55269  42.098  22.792   7.064
 4295POPC   C4B55270  42.170  22.800   7.364
 4296POPC   NC355271  41.526  32.294   5.564
 4296POPC   PO455272  41.595  32.284   5.864
 4296POPC   GL155273  41.606  32.229   6.164
 4296POPC   GL255274  41.712  32.202   6.164
 4296POPC   C1A55275  41.560  32.236   6.464
 4296POPC   D2A55276  41.552  32.255   6.764
 4296POPC   C3A55277  41.568  32.201   7.064
 4296POPC   C4A55278  41.519  32.294   7.364
 4296POPC   C1B55279  41.851  32.291   6.464
 4296POPC   C2B55280  41.821  32.208   6.764
 4296POPC   C3B55281  41.779  32.248   7.064
 4296POPC   C4B55282  41.792  32.210   7.364
 4297POPC   NC355283  41.509  13.581   5.564
 4297POPC   PO455284  41.514  13.640   5.864
 4297POPC   GL155285  41.539  13.646   6.164
 4297POPC   GL255286  41.474  13.692   6.164
 4297POPC   C1A55287  41.541  13.664   6.464
 4297POPC   D2A55288  41.512  13.634   6.764
 4297POPC   C3A55289  41.584  13.605   7.064
 4297POPC   C4A55290  41.592  13.662   7.364
 4297POPC   C1B55291  41.393  13.826   6.464
 4297POPC   C2B55292  41.381  13.838   6.764
 4297POPC   C3B55293  41.337  13.761   7.064
 4297POPC   C4B55294  41.393  13.855   7.364
 4298POPC   NC355295  27.543   8.166   5.564
 4298POPC   PO455296  27.568   8.191   5.864
 4298POPC   GL155297  27.588   8.239   6.164
 4298POPC   GL255298  27.471   8.260   6.164
 4298POPC   C1A55299  27.640   8.205   6.464
 4298POPC   D2A55300  27.554   8.181   6.764
 4298POPC   C3A55301  27.625   8.193   7.064
 4298POPC   C4A55302  27.562   8.188   7.364
 4298POPC   C1B55303  27.387   8.260   6.464
 4298POPC   C2B55304  27.375   8.274   6.764
 4298POPC   C3B55305  27.314   8.289   7.064
 4298POPC   C4B55306  27.390   8.245   7.364
 4299POPC   NC355307  43.111  42.353   5.564
 4299POPC   PO455308  43.083  42.309   5.864
 4299POPC   GL155309  43.067  42.373   6.164
 4299POPC   GL255310  43.256  42.325   6.164
 4299POPC   C1A55311  43.159  42.374   6.464
 4299POPC   D2A55312  43.146  42.375   6.764
 4299POPC   C3A55313  43.082  42.337   7.064
 4299POPC   C4A55314  43.131  42.359   7.364
 4299POPC   C1B55315  43.375  42.365   6.464
 4299POPC   C2B55316  43.302  42.376   6.764
 4299POPC   C3B55317  43.362  42.416   7.064
 4299POPC   C4B55318  43.325  42.360   7.364
 4300POPC   NC355319  11.262  17.457   5.564
 4300POPC   PO455320  11.276  17.491   5.864
 4300POPC   GL155321  11.280  17.488   6.164
 4300POPC   GL255322  11.217  17.449   6.164
 4300POPC   C1A55323  11.317  17.463   6.464
 4300POPC   D2A55324  11.280  17.527   6.764
 4300POPC   C3A55325  11.325  17.521   7.064
 4300POPC   C4A55326  11.295  17.467   7.364
 4300POPC   C1B55327  11.119  17.328   6.464
 4300POPC   C2B55328  11.128  17.399   6.764
 4300POPC   C3B55329  11.091  17.368   7.064
 4300POPC   C4B55330  11.139  17.334   7.364
 4301POPC   NC355331  29.105  36.910   5.564
 4301POPC   PO455332  29.189  36.941   5.864
 4301POPC   GL155333  29.161  36.863   6.164
 4301POPC   GL255334  29.108  36.811   6.164
 4301POPC   C1A55335  29.172  36.920   6.464
 4301POPC   D2A55336  29.105  36.945   6.764
 4301POPC   C3A55337  29.129  36.873   7.064
 4301POPC   C4A55338  29.161  36.922   7.364
 4301POPC   C1B55339  29.078  36.659   6.464
 4301POPC   C2B55340  29.034  36.698   6.764
 4301POPC   C3B55341  29.096  36.655   7.064
 4301POPC   C4B55342  29.066  36.644   7.364
 4302POPC   NC355343   4.359   7.441   5.564
 4302POPC   PO455344   4.271   7.407   5.864
 4302POPC   GL155345   4.312   7.375   6.164
 4302POPC   GL255346   4.233   7.311   6.164
 4302POPC   C1A55347   4.357   7.374   6.464
 4302POPC   D2A55348   4.339   7.378   6.764
 4302POPC   C3A55349   4.363   7.467   7.064
 4302POPC   C4A55350   4.284   7.394   7.364
 4302POPC   C1B55351   4.113   7.245   6.464
 4302POPC   C2B55352   4.116   7.241   6.764
 4302POPC   C3B55353   4.122   7.264   7.064
 4302POPC   C4B55354   4.175   7.206   7.364
 4303POPC   NC355355  29.178  11.299   5.564
 4303POPC   PO455356  29.146  11.313   5.864
 4303POPC   GL155357  29.181  11.300   6.164
 4303POPC   GL255358  29.135  11.420   6.164
 4303POPC   C1A55359  29.120  11.335   6.464
 4303POPC   D2A55360  29.168  11.308   6.764
 4303POPC   C3A55361  29.102  11.348   7.064
 4303POPC   C4A55362  29.178  11.300   7.364
 4303POPC   C1B55363  29.153  11.514   6.464
 4303POPC   C2B55364  29.187  11.582   6.764
 4303POPC   C3B55365  29.142  11.517   7.064
 4303POPC   C4B55366  29.159  11.589   7.364
 4304POPC   NC355367  15.958  44.630   5.564
 4304POPC   PO455368  15.906  44.628   5.864
 4304POPC   GL155369  15.999  44.687   6.164
 4304POPC   GL255370  15.938  44.803   6.164
 4304POPC   C1A55371  15.987  44.685   6.464
 4304POPC   D2A55372  15.912  44.662   6.764
 4304POPC   C3A55373  16.002  44.626   7.064
 4304POPC   C4A55374  15.989  44.649   7.364
 4304POPC   C1B55375  15.996  44.907   6.464
 4304POPC   C2B55376  15.965  44.924   6.764
 4304POPC   C3B55377  16.025  44.908   7.064
 4304POPC   C4B55378  15.960  44.945   7.364
 4305POPC   NC355379  20.654  32.201   5.564
 4305POPC   PO455380  20.574  32.263   5.864
 4305POPC   GL155381  20.580  32.241   6.164
 4305POPC   GL255382  20.774  32.268   6.164
 4305POPC   C1A55383  20.580  32.214   6.464
 4305POPC   D2A55384  20.573  32.269   6.764
 4305POPC   C3A55385  20.589  32.258   7.064
 4305POPC   C4A55386  20.639  32.264   7.364
 4305POPC   C1B55387  20.878  32.369   6.464
 4305POPC   C2B55388  20.806  32.379   6.764
 4305POPC   C3B55389  20.877  32.372   7.064
 4305POPC   C4B55390  20.807  32.322   7.364
 4306POPC   NC355391  26.052  26.014   5.564
 4306POPC   PO455392  26.016  26.000   5.864
 4306POPC   GL155393  26.062  25.996   6.164
 4306POPC   GL255394  26.170  25.944   6.164
 4306POPC   C1A55395  26.058  26.069   6.464
 4306POPC   D2A55396  26.069  26.078   6.764
 4306POPC   C3A55397  26.018  26.038   7.064
 4306POPC   C4A55398  26.056  26.009   7.364
 4306POPC   C1B55399  26.280  25.942   6.464
 4306POPC   C2B55400  26.231  25.933   6.764
 4306POPC   C3B55401  26.256  25.944   7.064
 4306POPC   C4B55402  26.284  25.942   7.364
 4307POPC   NC355403  35.359  32.221   5.564
 4307POPC   PO455404  35.391  32.292   5.864
 4307POPC   GL155405  35.307  32.278   6.164
 4307POPC   GL255406  35.279  32.216   6.164
 4307POPC   C1A55407  35.343  32.274   6.464
 4307POPC   D2A55408  35.375  32.231   6.764
 4307POPC   C3A55409  35.400  32.293   7.064
 4307POPC   C4A55410  35.376  32.222   7.364
 4307POPC   C1B55411  35.141  32.208   6.464
 4307POPC   C2B55412  35.083  32.204   6.764
 4307POPC   C3B55413  35.152  32.149   7.064
 4307POPC   C4B55414  35.153  32.163   7.364
 4308POPC   NC355415  24.494  24.494   5.564
 4308POPC   PO455416  24.514  24.473   5.864
 4308POPC   GL155417  24.476  24.510   6.164
 4308POPC   GL255418  24.395  24.540   6.164
 4308POPC   C1A55419  24.510  24.500   6.464
 4308POPC   D2A55420  24.444  24.478   6.764
 4308POPC   C3A55421  24.448  24.522   7.064
 4308POPC   C4A55422  24.483  24.499   7.364
 4308POPC   C1B55423  24.251  24.540   6.464
 4308POPC   C2B55424  24.208  24.552   6.764
 4308POPC   C3B55425  24.269  24.539   7.064
 4308POPC   C4B55426  24.258  24.517   7.364
 4309POPC   NC355427  14.360   9.703   5.564
 4309POPC   PO455428  14.363   9.729   5.864
 4309POPC   GL155429  14.451   9.751   6.164
 4309POPC   GL255430  14.407   9.824   6.164
 4309POPC   C1A55431  14.400   9.744   6.464
 4309POPC   D2A55432  14.355   9.729   6.764
 4309POPC   C3A55433  14.381   9.713   7.064
 4309POPC   C4A55434  14.419   9.731   7.364
 4309POPC   C1B55435  14.393   9.968   6.464
 4309POPC   C2B55436  14.345   9.978   6.764
 4309POPC   C3B55437  14.401   9.966   7.064
 4309POPC   C4B55438  14.389   9.951   7.364
 4310POPC   NC355439   0.470   2.801   5.564
 4310POPC   PO455440   0.468   2.805   5.864
 4310POPC   GL155441   0.474   2.807   6.164
 4310POPC   GL255442   0.439   2.638   6.164
 4310POPC   C1A55443   0.475   2.770   6.464
 4310POPC   D2A55444   0.473   2.749   6.764
 4310POPC   C3A55445   0.408   2.748   7.064
 4310POPC   C4A55446   0.455   2.749   7.364
 4310POPC   C1B55447   0.299   2.581   6.464
 4310POPC   C2B55448   0.395   2.532   6.764
 4310POPC   C3B55449   0.361   2.507   7.064
 4310POPC   C4B55450   0.343   2.546   7.364
 4311POPC   NC355451  26.785  16.761   5.564
 4311POPC   PO455452  26.806  16.763   5.864
 4311POPC   GL155453  26.811  16.760   6.164
 4311POPC   GL255454  26.752  16.625   6.164
 4311POPC   C1A55455  26.809  16.769   6.464
 4311POPC   D2A55456  26.827  16.728   6.764
 4311POPC   C3A55457  26.816  16.684   7.064
 4311POPC   C4A55458  26.849  16.710   7.364
 4311POPC   C1B55459  26.730  16.495   6.464
 4311POPC   C2B55460  26.747  16.544   6.764
 4311POPC   C3B55461  26.731  16.528   7.064
 4311POPC   C4B55462  26.696  16.481   7.364
 4312POPC   NC355463  15.916   1.186   5.564
 4312POPC   PO455464  15.997   1.223   5.864
 4312POPC   GL155465  15.989   1.242   6.164
 4312POPC   GL255466  15.983   1.136   6.164
 4312POPC   C1A55467  15.963   1.179   6.464
 4312POPC   D2A55468  15.925   1.218   6.764
 4312POPC   C3A55469  15.953   1.259   7.064
 4312POPC   C4A55470  15.951   1.203   7.364
 4312POPC   C1B55471  16.047   0.973   6.464
 4312POPC   C2B55472  16.082   0.954   6.764
 4312POPC   C3B55473  16.052   0.970   7.064
 4312POPC   C4B55474  16.038   0.969   7.364
 4313POPC   NC355475   7.421   8.232   5.564
 4313POPC   PO455476   7.373   8.186   5.864
 4313POPC   GL155477   7.437   8.166   6.164
 4313POPC   GL255478   7.509   8.040   6.164
 4313POPC   C1A55479   7.376   8.176   6.464
 4313POPC   D2A55480   7.416   8.165   6.764
 4313POPC   C3A55481   7.444   8.239   7.064
 4313POPC   C4A55482   7.402   8.194   7.364
 4313POPC   C1B55483   7.525   8.014   6.464
 4313POPC   C2B55484   7.508   7.978   6.764
 4313POPC   C3B55485   7.585   8.015   7.064
 4313POPC   C4B55486   7.528   8.010   7.364
 4314POPC   NC355487  43.101   6.655   5.564
 4314POPC   PO455488  43.157   6.656   5.864
 4314POPC   GL155489  43.122   6.644   6.164
 4314POPC   GL255490  43.038   6.492   6.164
 4314POPC   C1A55491  43.116   6.629   6.464
 4314POPC   D2A55492  43.108   6.623   6.764
 4314POPC   C3A55493  43.090   6.660   7.064
 4314POPC   C4A55494  43.140   6.598   7.364
 4314POPC   C1B55495  42.982   6.378   6.464
 4314POPC   C2B55496  42.982   6.403   6.764
 4314POPC   C3B55497  43.051   6.386   7.064
 4314POPC   C4B55498  43.000   6.421   7.364
 4315POPC   NC355499  40.006  39.215   5.564
 4315POPC   PO455500  40.028  39.212   5.864
 4315POPC   GL155501  39.982  39.268   6.164
 4315POPC   GL255502  40.081  39.108   6.164
 4315POPC   C1A55503  40.026  39.237   6.464
 4315POPC   D2A55504  39.984  39.261   6.764
 4315POPC   C3A55505  40.051  39.241   7.064
 4315POPC   C4A55506  39.991  39.222   7.364
 4315POPC   C1B55507  40.102  39.025   6.464
 4315POPC   C2B55508  40.149  38.996   6.764
 4315POPC   C3B55509  40.186  39.022   7.064
 4315POPC   C4B55510  40.176  38.995   7.364
 4316POPC   NC355511  39.251  40.026   5.564
 4316POPC   PO455512  39.215  40.019   5.864
 4316POPC   GL155513  39.277  40.002   6.164
 4316POPC   GL255514  39.293  40.113   6.164
 4316POPC   C1A55515  39.234  40.012   6.464
 4316POPC   D2A55516  39.272  40.000   6.764
 4316POPC   C3A55517  39.236  39.973   7.064
 4316POPC   C4A55518  39.251  40.014   7.364
 4316POPC   C1B55519  39.418  40.154   6.464
 4316POPC   C2B55520  39.400  40.200   6.764
 4316POPC   C3B55521  39.403  40.152   7.064
 4316POPC   C4B55522  39.467  40.151   7.364
 4317POPC   NC355523  18.330  25.300   5.564
 4317POPC   PO455524  18.263  25.300   5.864
 4317POPC   GL155525  18.299  25.236   6.164
 4317POPC   GL255526  18.189  25.198   6.164
 4317POPC   C1A55527  18.303  25.303   6.464
 4317POPC   D2A55528  18.247  25.220   6.764
 4317POPC   C3A55529  18.266  25.306   7.064
 4317POPC   C4A55530  18.329  25.242   7.364
 4317POPC   C1B55531  18.113  25.073   6.464
 4317POPC   C2B55532  18.092  25.126   6.764
 4317POPC   C3B55533  18.139  25.091   7.064
 4317POPC   C4B55534  18.119  25.093   7.364
 4318POPC   NC355535  43.121  39.196   5.564
 4318POPC   PO455536  43.071  39.228   5.864
 4318POPC   GL155537  43.112  39.229   6.164
 4318POPC   GL255538  43.134  39.372   6.164
 4318POPC   C1A55539  43.134  39.218   6.464
 4318POPC   D2A55540  43.103  39.229   6.764
 4318POPC   C3A55541  43.063  39.215   7.064
 4318POPC   C4A55542  43.113  39.218   7.364
 4318POPC   C1B55543  43.215  39.500   6.464
 4318POPC   C2B55544  43.136  39.481   6.764
 4318POPC   C3B55545  43.175  39.467   7.064
 4318POPC   C4B55546  43.172  39.466   7.364
 4319POPC   NC355547   2.783  16.706   5.564
 4319POPC   PO455548   2.767  16.757   5.864
 4319POPC   GL155549   2.792  16.696   6.164
 4319POPC   GL255550   2.782  16.859   6.164
 4319POPC   C1A55551   2.812  16.694   6.464
 4319POPC   D2A55552   2.806  16.709   6.764
 4319POPC   C3A55553   2.806  16.751   7.064
 4319POPC   C4A55554   2.803  16.683   7.364
 4319POPC   C1B55555   2.783  17.011   6.464
 4319POPC   C2B55556   2.780  16.958   6.764
 4319POPC   C3B55557   2.747  17.016   7.064
 4319POPC   C4B55558   2.785  16.995   7.364
 4320POPC   NC355559  41.510   2.793   5.564
 4320POPC   PO455560  41.541   2.757   5.864
 4320POPC   GL155561  41.591   2.742   6.164
 4320POPC   GL255562  41.532   2.896   6.164
 4320POPC   C1A55563  41.606   2.764   6.464
 4320POPC   D2A55564  41.511   2.788   6.764
 4320POPC   C3A55565  41.578   2.757   7.064
 4320POPC   C4A55566  41.543   2.804   7.364
 4320POPC   C1B55567  41.441   2.947   6.464
 4320POPC   C2B55568  41.402   3.022   6.764
 4320POPC   C3B55569  41.466   3.006   7.064
 4320POPC   C4B55570  41.408   2.969   7.364
 4321POPC   NC355571  36.139  23.755   5.564
 4321POPC   PO455572  36.150  23.687   5.864
 4321POPC   GL155573  36.132  23.685   6.164
 4321POPC   GL255574  36.118  23.831   6.164
 4321POPC   C1A55575  36.091  23.686   6.464
 4321POPC   D2A55576  36.153  23.666   6.764
 4321POPC   C3A55577  36.153  23.677   7.064
 4321POPC   C4A55578  36.100  23.704   7.364
 4321POPC   C1B55579  36.048  23.974   6.464
 4321POPC   C2B55580  35.996  23.926   6.764
 4321POPC   C3B55581  36.067  23.977   7.064
 4321POPC   C4B55582  36.054  23.950   7.364
 4322POPC   NC355583   3.534  43.066   5.564
 4322POPC   PO455584   3.544  43.131   5.864
 4322POPC   GL155585   3.492  43.086   6.164
 4322POPC   GL255586   3.461  42.990   6.164
 4322POPC   C1A55587   3.502  43.074   6.464
 4322POPC   D2A55588   3.557  43.122   6.764
 4322POPC   C3A55589   3.565  43.094   7.064
 4322POPC   C4A55590   3.544  43.079   7.364
 4322POPC   C1B55591   3.364  42.963   6.464
 4322POPC   C2B55592   3.334  42.923   6.764
 4322POPC   C3B55593   3.416  42.962   7.064
 4322POPC   C4B55594   3.378  42.959   7.364
 4323POPC   NC355595   3.525  19.048   5.564
 4323POPC   PO455596   3.519  19.091   5.864
 4323POPC   GL155597   3.573  19.077   6.164
 4323POPC   GL255598   3.520  19.139   6.164
 4323POPC   C1A55599   3.539  19.077   6.464
 4323POPC   D2A55600   3.570  19.047   6.764
 4323POPC   C3A55601   3.517  19.068   7.064
 4323POPC   C4A55602   3.494  19.022   7.364
 4323POPC   C1B55603   3.574  19.336   6.464
 4323POPC   C2B55604   3.510  19.259   6.764
 4323POPC   C3B55605   3.567  19.341   7.064
 4323POPC   C4B55606   3.539  19.303   7.364
 4324POPC   NC355607  19.030   2.000   5.564
 4324POPC   PO455608  19.068   2.028   5.864
 4324POPC   GL155609  19.091   2.038   6.164
 4324POPC   GL255610  18.886   1.985   6.164
 4324POPC   C1A55611  19.028   1.982   6.464
 4324POPC   D2A55612  19.045   1.993   6.764
 4324POPC   C3A55613  19.028   1.980   7.064
 4324POPC   C4A55614  19.064   1.988   7.364
 4324POPC   C1B55615  18.844   1.956   6.464
 4324POPC   C2B55616  18.838   1.929   6.764
 4324POPC   C3B55617  18.778   1.958   7.064
 4324POPC   C4B55618  18.838   2.006   7.364
 4325POPC   NC355619  36.089   5.882   5.564
 4325POPC   PO455620  36.132   5.894   5.864
 4325POPC   GL155621  36.100   5.889   6.164
 4325POPC   GL255622  36.180   5.947   6.164
 4325POPC   C1A55623  36.140   5.902   6.464
 4325POPC   D2A55624  36.119   5.877   6.764
 4325POPC   C3A55625  36.117   5.864   7.064
 4325POPC   C4A55626  36.127   5.852   7.364
 4325POPC   C1B55627  36.222   6.037   6.464
 4325POPC   C2B55628  36.228   6.075   6.764
 4325POPC   C3B55629  36.221   6.114   7.064
 4325POPC   C4B55630  36.230   6.103   7.364
 4326POPC   NC355631  44.667  22.159   5.564
 4326POPC   PO455632  44.651  22.113   5.864
 4326POPC   GL155633  44.682  22.210   6.164
 4326POPC   GL255634  44.583  22.197   6.164
 4326POPC   C1A55635  44.637  22.132   6.464
 4326POPC   D2A55636  44.686  22.171   6.764
 4326POPC   C3A55637  44.642  22.181   7.064
 4326POPC   C4A55638  44.682  22.153   7.364
 4326POPC   C1B55639  44.428  22.275   6.464
 4326POPC   C2B55640  44.446  22.250   6.764
 4326POPC   C3B55641  44.470  22.279   7.064
 4326POPC   C4B55642  44.414  22.259   7.364
 4327POPC   NC355643  26.851  19.859   5.564
 4327POPC   PO455644  26.812  19.884   5.864
 4327POPC   GL155645  26.838  19.797   6.164
 4327POPC   GL255646  26.832  19.947   6.164
 4327POPC   C1A55647  26.832  19.844   6.464
 4327POPC   D2A55648  26.818  19.883   6.764
 4327POPC   C3A55649  26.801  19.788   7.064
 4327POPC   C4A55650  26.772  19.807   7.364
 4327POPC   C1B55651  26.924  20.077   6.464
 4327POPC   C2B55652  26.885  20.106   6.764
 4327POPC   C3B55653  26.938  20.027   7.064
 4327POPC   C4B55654  26.882  20.027   7.364
 4328POPC   NC355655  14.365  11.337   5.564
 4328POPC   PO455656  14.437  11.263   5.864
 4328POPC   GL155657  14.412  11.333   6.164
 4328POPC   GL255658  14.258  11.226   6.164
 4328POPC   C1A55659  14.365  11.329   6.464
 4328POPC   D2A55660  14.397  11.280   6.764
 4328POPC   C3A55661  14.407  11.295   7.064
 4328POPC   C4A55662  14.439  11.323   7.364
 4328POPC   C1B55663  14.216  11.161   6.464
 4328POPC   C2B55664  14.184  11.211   6.764
 4328POPC   C3B55665  14.168  11.213   7.064
 4328POPC   C4B55666  14.156  11.189   7.364
 4329POPC   NC355667   6.693  42.319   5.564
 4329POPC   PO455668   6.667  42.374   5.864
 4329POPC   GL155669   6.614  42.377   6.164
 4329POPC   GL255670   6.570  42.274   6.164
 4329POPC   C1A55671   6.678  42.374   6.464
 4329POPC   D2A55672   6.596  42.323   6.764
 4329POPC   C3A55673   6.673  42.347   7.064
 4329POPC   C4A55674   6.659  42.328   7.364
 4329POPC   C1B55675   6.468  42.171   6.464
 4329POPC   C2B55676   6.437  42.233   6.764
 4329POPC   C3B55677   6.403  42.251   7.064
 4329POPC   C4B55678   6.412  42.259   7.364
 4330POPC   NC355679  44.672   5.098   5.564
 4330POPC   PO455680  44.623   5.114   5.864
 4330POPC   GL155681  44.684   5.072   6.164
 4330POPC   GL255682  44.713   5.162   6.164
 4330POPC   C1A55683  44.702   5.137   6.464
 4330POPC   D2A55684  44.693   5.094   6.764
 4330POPC   C3A55685  44.651   5.062   7.064
 4330POPC   C4A55686  44.650   5.082   7.364
 4330POPC   C1B55687  44.863   5.267   6.464
 4330POPC   C2B55688  44.784   5.303   6.764
 4330POPC   C3B55689  44.847   5.302   7.064
 4330POPC   C4B55690  44.831   5.292   7.364
 4331POPC   NC355691   8.188   3.569   5.564
 4331POPC   PO455692   8.206   3.520   5.864
 4331POPC   GL155693   8.228   3.528   6.164
 4331POPC   GL255694   8.294   3.611   6.164
 4331POPC   C1A55695   8.232   3.530   6.464
 4331POPC   D2A55696   8.241   3.508   6.764
 4331POPC   C3A55697   8.154   3.542   7.064
 4331POPC   C4A55698   8.223   3.526   7.364
 4331POPC   C1B55699   8.326   3.781   6.464
 4331POPC   C2B55700   8.350   3.783   6.764
 4331POPC   C3B55701   8.295   3.696   7.064
 4331POPC   C4B55702   8.325   3.737   7.364
 4332POPC   NC355703  10.485  31.509   5.564
 4332POPC   PO455704  10.475  31.505   5.864
 4332POPC   GL155705  10.515  31.468   6.164
 4332POPC   GL255706  10.524  31.551   6.164
 4332POPC   C1A55707  10.480  31.438   6.464
 4332POPC   D2A55708  10.486  31.474   6.764
 4332POPC   C3A55709  10.489  31.505   7.064
 4332POPC   C4A55710  10.482  31.425   7.364
 4332POPC   C1B55711  10.423  31.673   6.464
 4332POPC   C2B55712  10.471  31.676   6.764
 4332POPC   C3B55713  10.442  31.669   7.064
 4332POPC   C4B55714  10.453  31.693   7.364
 4333POPC   NC355715  31.488  41.568   5.564
 4333POPC   PO455716  31.499  41.541   5.864
 4333POPC   GL155717  31.432  41.529   6.164
 4333POPC   GL255718  31.369  41.652   6.164
 4333POPC   C1A55719  31.456  41.597   6.464
 4333POPC   D2A55720  31.448  41.555   6.764
 4333POPC   C3A55721  31.507  41.605   7.064
 4333POPC   C4A55722  31.429  41.584   7.364
 4333POPC   C1B55723  31.366  41.770   6.464
 4333POPC   C2B55724  31.354  41.795   6.764
 4333POPC   C3B55725  31.411  41.755   7.064
 4333POPC   C4B55726  31.344  41.770   7.364
 4334POPC   NC355727  14.374  43.101   5.564
 4334POPC   PO455728  14.361  43.123   5.864
 4334POPC   GL155729  14.405  43.109   6.164
 4334POPC   GL255730  14.493  43.083   6.164
 4334POPC   C1A55731  14.444  43.083   6.464
 4334POPC   D2A55732  14.433  43.127   6.764
 4334POPC   C3A55733  14.357  43.103   7.064
 4334POPC   C4A55734  14.364  43.134   7.364
 4334POPC   C1B55735  14.655  43.188   6.464
 4334POPC   C2B55736  14.668  43.122   6.764
 4334POPC   C3B55737  14.601  43.162   7.064
 4334POPC   C4B55738  14.629  43.177   7.364
 4335POPC   NC355739  26.014   1.993   5.564
 4335POPC   PO455740  26.012   1.954   5.864
 4335POPC   GL155741  26.045   2.012   6.164
 4335POPC   GL255742  26.150   1.935   6.164
 4335POPC   C1A55743  26.000   1.945   6.464
 4335POPC   D2A55744  26.061   1.981   6.764
 4335POPC   C3A55745  26.021   2.022   7.064
 4335POPC   C4A55746  26.045   2.009   7.364
 4335POPC   C1B55747  26.300   1.955   6.464
 4335POPC   C2B55748  26.297   1.972   6.764
 4335POPC   C3B55749  26.237   1.912   7.064
 4335POPC   C4B55750  26.292   1.907   7.364
 4336POPC   NC355751   1.969  32.210   5.564
 4336POPC   PO455752   2.012  32.231   5.864
 4336POPC   GL155753   2.029  32.221   6.164
 4336POPC   GL255754   2.044  32.133   6.164
 4336POPC   C1A55755   2.006  32.224   6.464
 4336POPC   D2A55756   2.024  32.293   6.764
 4336POPC   C3A55757   2.021  32.291   7.064
 4336POPC   C4A55758   1.964  32.233   7.364
 4336POPC   C1B55759   2.082  32.000   6.464
 4336POPC   C2B55760   2.064  31.977   6.764
 4336POPC   C3B55761   2.076  31.969   7.064
 4336POPC   C4B55762   2.071  32.056   7.364
 4337POPC   NC355763  42.332   5.865   5.564
 4337POPC   PO455764  42.382   5.853   5.864
 4337POPC   GL155765  42.305   5.862   6.164
 4337POPC   GL255766  42.307   5.704   6.164
 4337POPC   C1A55767  42.317   5.855   6.464
 4337POPC   D2A55768  42.286   5.904   6.764
 4337POPC   C3A55769  42.315   5.866   7.064
 4337POPC   C4A55770  42.382   5.872   7.364
 4337POPC   C1B55771  42.258   5.597   6.464
 4337POPC   C2B55772  42.260   5.658   6.764
 4337POPC   C3B55773  42.234   5.682   7.064
 4337POPC   C4B55774  42.275   5.655   7.364
 4338POPC   NC355775  17.503  13.663   5.564
 4338POPC   PO455776  17.539  13.645   5.864
 4338POPC   GL155777  17.459  13.602   6.164
 4338POPC   GL255778  17.568  13.542   6.164
 4338POPC   C1A55779  17.545  13.646   6.464
 4338POPC   D2A55780  17.476  13.656   6.764
 4338POPC   C3A55781  17.554  13.664   7.064
 4338POPC   C4A55782  17.481  13.620   7.364
 4338POPC   C1B55783  17.629  13.448   6.464
 4338POPC   C2B55784  17.666  13.391   6.764
 4338POPC   C3B55785  17.621  13.421   7.064
 4338POPC   C4B55786  17.604  13.429   7.364
 4339POPC   NC355787  18.257  15.176   5.564
 4339POPC   PO455788  18.325  15.180   5.864
 4339POPC   GL155789  18.332  15.209   6.164
 4339POPC   GL255790  18.188  15.174   6.164
 4339POPC   C1A55791  18.305  15.146   6.464
 4339POPC   D2A55792  18.319  15.152   6.764
 4339POPC   C3A55793  18.328  15.195   7.064
 4339POPC   C4A55794  18.314  15.185   7.364
 4339POPC   C1B55795  18.061  15.057   6.464
 4339POPC   C2B55796  18.045  15.141   6.764
 4339POPC   C3B55797  18.081  15.138   7.064
 4339POPC   C4B55798  18.098  15.093   7.364
 4340POPC   NC355799  16.702  17.553   5.564
 4340POPC   PO455800  16.760  17.471   5.864
 4340POPC   GL155801  16.699  17.549   6.164
 4340POPC   GL255802  16.683  17.630   6.164
 4340POPC   C1A55803  16.729  17.469   6.464
 4340POPC   D2A55804  16.738  17.551   6.764
 4340POPC   C3A55805  16.718  17.538   7.064
 4340POPC   C4A55806  16.748  17.461   7.364
 4340POPC   C1B55807  16.556  17.722   6.464
 4340POPC   C2B55808  16.546  17.686   6.764
 4340POPC   C3B55809  16.563  17.645   7.064
 4340POPC   C4B55810  16.531  17.726   7.364
 4341POPC   NC355811   3.587  35.374   5.564
 4341POPC   PO455812   3.548  35.393   5.864
 4341POPC   GL155813   3.524  35.331   6.164
 4341POPC   GL255814   3.618  35.412   6.164
 4341POPC   C1A55815   3.559  35.398   6.464
 4341POPC   D2A55816   3.504  35.388   6.764
 4341POPC   C3A55817   3.542  35.399   7.064
 4341POPC   C4A55818   3.573  35.341   7.364
 4341POPC   C1B55819   3.818  35.436   6.464
 4341POPC   C2B55820   3.748  35.428   6.764
 4341POPC   C3B55821   3.746  35.479   7.064
 4341POPC   C4B55822   3.739  35.452   7.364
 4342POPC   NC355823   9.739  34.569   5.564
 4342POPC   PO455824   9.726  34.585   5.864
 4342POPC   GL155825   9.730  34.543   6.164
 4342POPC   GL255826   9.810  34.672   6.164
 4342POPC   C1A55827   9.771  34.541   6.464
 4342POPC   D2A55828   9.761  34.611   6.764
 4342POPC   C3A55829   9.725  34.599   7.064
 4342POPC   C4A55830   9.704  34.536   7.364
 4342POPC   C1B55831   9.845  34.826   6.464
 4342POPC   C2B55832   9.854  34.774   6.764
 4342POPC   C3B55833   9.841  34.801   7.064
 4342POPC   C4B55834   9.788  34.825   7.364
 4343POPC   NC355835  33.779  28.353   5.564
 4343POPC   PO455836  33.776  28.360   5.864
 4343POPC   GL155837  33.818  28.405   6.164
 4343POPC   GL255838  33.733  28.500   6.164
 4343POPC   C1A55839  33.820  28.363   6.464
 4343POPC   D2A55840  33.787  28.369   6.764
 4343POPC   C3A55841  33.769  28.341   7.064
 4343POPC   C4A55842  33.797  28.390   7.364
 4343POPC   C1B55843  33.697  28.613   6.464
 4343POPC   C2B55844  33.673  28.561   6.764
 4343POPC   C3B55845  33.698  28.567   7.064
 4343POPC   C4B55846  33.691  28.541   7.364
 4344POPC   NC355847  21.343  17.488   5.564
 4344POPC   PO455848  21.430  17.475   5.864
 4344POPC   GL155849  21.342  17.491   6.164
 4344POPC   GL255850  21.461  17.497   6.164
 4344POPC   C1A55851  21.349  17.482   6.464
 4344POPC   D2A55852  21.403  17.522   6.764
 4344POPC   C3A55853  21.433  17.467   7.064
 4344POPC   C4A55854  21.426  17.506   7.364
 4344POPC   C1B55855  21.657  17.580   6.464
 4344POPC   C2B55856  21.607  17.577   6.764
 4344POPC   C3B55857  21.677  17.542   7.064
 4344POPC   C4B55858  21.625  17.546   7.364
 4345POPC   NC355859  22.130  30.682   5.564
 4345POPC   PO455860  22.168  30.743   5.864
 4345POPC   GL155861  22.169  30.717   6.164
 4345POPC   GL255862  22.189  30.611   6.164
 4345POPC   C1A55863  22.206  30.719   6.464
 4345POPC   D2A55864  22.122  30.717   6.764
 4345POPC   C3A55865  22.120  30.718   7.064
 4345POPC   C4A55866  22.140  30.713   7.364
 4345POPC   C1B55867  22.189  30.438   6.464
 4345POPC   C2B55868  22.185  30.497   6.764
 4345POPC   C3B55869  22.121  30.406   7.064
 4345POPC   C4B55870  22.144  30.465   7.364
 4346POPC   NC355871  10.494  19.804   5.564
 4346POPC   PO455872  10.477  19.850   5.864
 4346POPC   GL155873  10.562  19.878   6.164
 4346POPC   GL255874  10.472  19.910   6.164
 4346POPC   C1A55875  10.554  19.882   6.464
 4346POPC   D2A55876  10.508  19.825   6.764
 4346POPC   C3A55877  10.548  19.820   7.064
 4346POPC   C4A55878  10.481  19.819   7.364
 4346POPC   C1B55879  10.360  20.036   6.464
 4346POPC   C2B55880  10.382  19.992   6.764
 4346POPC   C3B55881  10.343  20.029   7.064
 4346POPC   C4B55882  10.300  19.979   7.364
 4347POPC   NC355883  21.373   0.394   5.564
 4347POPC   PO455884  21.363   0.488   5.864
 4347POPC   GL155885  21.428   0.454   6.164
 4347POPC   GL255886  21.307   0.488   6.164
 4347POPC   C1A55887  21.372   0.437   6.464
 4347POPC   D2A55888  21.393   0.485   6.764
 4347POPC   C3A55889  21.340   0.406   7.064
 4347POPC   C4A55890  21.366   0.401   7.364
 4347POPC   C1B55891  21.145   0.513   6.464
 4347POPC   C2B55892  21.112   0.445   6.764
 4347POPC   C3B55893  21.184   0.490   7.064
 4347POPC   C4B55894  21.133   0.428   7.364
 4348POPC   NC355895  12.052   6.684   5.564
 4348POPC   PO455896  12.048   6.603   5.864
 4348POPC   GL155897  12.060   6.695   6.164
 4348POPC   GL255898  12.063   6.491   6.164
 4348POPC   C1A55899  12.121   6.673   6.464
 4348POPC   D2A55900  12.110   6.616   6.764
 4348POPC   C3A55901  12.083   6.604   7.064
 4348POPC   C4A55902  12.066   6.634   7.364
 4348POPC   C1B55903  12.009   6.380   6.464
 4348POPC   C2B55904  12.001   6.451   6.764
 4348POPC   C3B55905  12.009   6.380   7.064
 4348POPC   C4B55906  12.020   6.403   7.364
 4349POPC   NC355907  30.744  39.186   5.564
 4349POPC   PO455908  30.734  39.202   5.864
 4349POPC   GL155909  30.730  39.229   6.164
 4349POPC   GL255910  30.710  39.078   6.164
 4349POPC   C1A55911  30.683  39.265   6.464
 4349POPC   D2A55912  30.706  39.203   6.764
 4349POPC   C3A55913  30.684  39.269   7.064
 4349POPC   C4A55914  30.692  39.265   7.364
 4349POPC   C1B55915  30.774  38.973   6.464
 4349POPC   C2B55916  30.772  39.009   6.764
 4349POPC   C3B55917  30.743  39.034   7.064
 4349POPC   C4B55918  30.720  39.032   7.364
 4350POPC   NC355919   3.547  25.307   5.564
 4350POPC   PO455920   3.499  25.220   5.864
 4350POPC   GL155921   3.562  25.303   6.164
 4350POPC   GL255922   3.573  25.168   6.164
 4350POPC   C1A55923   3.533  25.270   6.464
 4350POPC   D2A55924   3.528  25.306   6.764
 4350POPC   C3A55925   3.498  25.307   7.064
 4350POPC   C4A55926   3.539  25.278   7.364
 4350POPC   C1B55927   3.509  25.041   6.464
 4350POPC   C2B55928   3.506  25.053   6.764
 4350POPC   C3B55929   3.507  25.002   7.064
 4350POPC   C4B55930   3.482  25.001   7.364
 4351POPC   NC355931  30.658   5.089   5.564
 4351POPC   PO455932  30.674   5.131   5.864
 4351POPC   GL155933  30.719   5.101   6.164
 4351POPC   GL255934  30.797   4.966   6.164
 4351POPC   C1A55935  30.719   5.134   6.464
 4351POPC   D2A55936  30.664   5.098   6.764
 4351POPC   C3A55937  30.712   5.102   7.064
 4351POPC   C4A55938  30.683   5.079   7.364
 4351POPC   C1B55939  30.875   4.914   6.464
 4351POPC   C2B55940  30.847   4.929   6.764
 4351POPC   C3B55941  30.847   4.901   7.064
 4351POPC   C4B55942  30.913   4.898   7.364
 4352POPC   NC355943  33.008  42.293   5.564
 4352POPC   PO455944  33.034  42.287   5.864
 4352POPC   GL155945  33.060  42.337   6.164
 4352POPC   GL255946  33.108  42.258   6.164
 4352POPC   C1A55947  33.061  42.291   6.464
 4352POPC   D2A55948  33.029  42.291   6.764
 4352POPC   C3A55949  33.030  42.327   7.064
 4352POPC   C4A55950  32.979  42.356   7.364
 4352POPC   C1B55951  33.113  42.089   6.464
 4352POPC   C2B55952  33.142  42.095   6.764
 4352POPC   C3B55953  33.120  42.139   7.064
 4352POPC   C4B55954  33.132  42.066   7.364
 4353POPC   NC355955  15.213   1.236   5.564
 4353POPC   PO455956  15.197   1.218   5.864
 4353POPC   GL155957  15.157   1.218   6.164
 4353POPC   GL255958  15.098   1.343   6.164
 4353POPC   C1A55959  15.143   1.249   6.464
 4353POPC   D2A55960  15.145   1.239   6.764
 4353POPC   C3A55961  15.196   1.233   7.064
 4353POPC   C4A55962  15.203   1.233   7.364
 4353POPC   C1B55963  14.982   1.454   6.464
 4353POPC   C2B55964  15.041   1.387   6.764
 4353POPC   C3B55965  14.998   1.423   7.064
 4353POPC   C4B55966  15.002   1.431   7.364
 4354POPC   NC355967  39.258  15.969   5.564
 4354POPC   PO455968  39.183  15.959   5.864
 4354POPC   GL155969  39.250  15.942   6.164
 4354POPC   GL255970  39.064  15.912   6.164
 4354POPC   C1A55971  39.252  15.929   6.464
 4354POPC   D2A55972  39.228  15.948   6.764
 4354POPC   C3A55973  39.253  15.981   7.064
 4354POPC   C4A55974  39.256  15.996   7.364
 4354POPC   C1B55975  38.973  15.880   6.464
 4354POPC   C2B55976  38.969  15.922   6.764
 4354POPC   C3B55977  38.971  15.961   7.064
 4354POPC   C4B55978  39.029  15.900   7.364
 4355POPC   NC355979  41.562  27.569   5.564
 4355POPC   PO455980  41.539  27.570   5.864
 4355POPC   GL155981  41.578  27.559   6.164
 4355POPC   GL255982  41.662  27.656   6.164
 4355POPC   C1A55983  41.544  27.628   6.464
 4355POPC   D2A55984  41.523  27.589   6.764
 4355POPC   C3A55985  41.512  27.579   7.064
 4355POPC   C4A55986  41.544  27.643   7.364
 4355POPC   C1B55987  41.715  27.715   6.464
 4355POPC   C2B55988  41.737  27.767   6.764
 4355POPC   C3B55989  41.714  27.748   7.064
 4355POPC   C4B55990  41.718  27.737   7.364
 4356POPC   NC355991  35.375  12.077   5.564
 4356POPC   PO455992  35.384  12.055   5.864
 4356POPC   GL155993  35.383  12.080   6.164
 4356POPC   GL255994  35.287  12.216   6.164
 4356POPC   C1A55995  35.317  12.095   6.464
 4356POPC   D2A55996  35.345  12.113   6.764
 4356POPC   C3A55997  35.354  12.104   7.064
 4356POPC   C4A55998  35.386  12.096   7.364
 4356POPC   C1B55999  35.350  12.287   6.464
 4356POPC   C2B56000  35.286  12.335   6.764
 4356POPC   C3B56001  35.304  12.372   7.064
 4356POPC   C4B56002  35.296  12.355   7.364
 4357POPC   NC356003  33.019   7.468   5.564
 4357POPC   PO456004  33.020   7.458   5.864
 4357POPC   GL156005  33.041   7.398   6.164
 4357POPC   GL256006  32.891   7.352   6.164
 4357POPC   C1A56007  33.049   7.399   6.464
 4357POPC   D2A56008  33.050   7.392   6.764
 4357POPC   C3A56009  33.074   7.420   7.064
 4357POPC   C4A56010  32.993   7.470   7.364
 4357POPC   C1B56011  32.796   7.266   6.464
 4357POPC   C2B56012  32.834   7.322   6.764
 4357POPC   C3B56013  32.834   7.244   7.064
 4357POPC   C4B56014  32.843   7.269   7.364
 4358POPC   NC356015  43.098  29.908   5.564
 4358POPC   PO456016  43.122  29.947   5.864
 4358POPC   GL156017  43.070  29.923   6.164
 4358POPC   GL256018  43.016  30.000   6.164
 4358POPC   C1A56019  43.078  29.875   6.464
 4358POPC   D2A56020  43.153  29.886   6.764
 4358POPC   C3A56021  43.103  29.890   7.064
 4358POPC   C4A56022  43.145  29.968   7.364
 4358POPC   C1B56023  43.022  30.165   6.464
 4358POPC   C2B56024  43.045  30.180   6.764
 4358POPC   C3B56025  43.015  30.152   7.064
 4358POPC   C4B56026  42.956  30.182   7.364
 4359POPC   NC356027  19.105  31.432   5.564
 4359POPC   PO456028  19.035  31.455   5.864
 4359POPC   GL156029  19.079  31.517   6.164
 4359POPC   GL256030  19.003  31.547   6.164
 4359POPC   C1A56031  19.080  31.429   6.464
 4359POPC   D2A56032  19.076  31.464   6.764
 4359POPC   C3A56033  19.072  31.476   7.064
 4359POPC   C4A56034  19.086  31.474   7.364
 4359POPC   C1B56035  18.946  31.686   6.464
 4359POPC   C2B56036  19.036  31.682   6.764
 4359POPC   C3B56037  18.984  31.722   7.064
 4359POPC   C4B56038  18.999  31.693   7.364
 4360POPC   NC356039  39.247   1.199   5.564
 4360POPC   PO456040  39.182   1.195   5.864
 4360POPC   GL156041  39.233   1.175   6.164
 4360POPC   GL256042  39.315   1.066   6.164
 4360POPC   C1A56043  39.203   1.230   6.464
 4360POPC   D2A56044  39.259   1.236   6.764
 4360POPC   C3A56045  39.189   1.182   7.064
 4360POPC   C4A56046  39.201   1.197   7.364
 4360POPC   C1B56047  39.378   1.032   6.464
 4360POPC   C2B56048  39.338   0.955   6.764
 4360POPC   C3B56049  39.364   0.956   7.064
 4360POPC   C4B56050  39.409   0.998   7.364
 4361POPC   NC356051  12.120   4.286   5.564
 4361POPC   PO456052  12.045   4.327   5.864
 4361POPC   GL156053  12.087   4.278   6.164
 4361POPC   GL256054  11.987   4.393   6.164
 4361POPC   C1A56055  12.069   4.349   6.464
 4361POPC   D2A56056  12.089   4.321   6.764
 4361POPC   C3A56057  12.101   4.303   7.064
 4361POPC   C4A56058  12.101   4.286   7.364
 4361POPC   C1B56059  11.985   4.524   6.464
 4361POPC   C2B56060  12.001   4.575   6.764
 4361POPC   C3B56061  11.926   4.551   7.064
 4361POPC   C4B56062  11.953   4.550   7.364
 4362POPC   NC356063  29.126   4.335   5.564
 4362POPC   PO456064  29.128   4.346   5.864
 4362POPC   GL156065  29.185   4.311   6.164
 4362POPC   GL256066  28.992   4.318   6.164
 4362POPC   C1A56067  29.131   4.277   6.464
 4362POPC   D2A56068  29.126   4.343   6.764
 4362POPC   C3A56069  29.158   4.298   7.064
 4362POPC   C4A56070  29.135   4.270   7.364
 4362POPC   C1B56071  28.888   4.179   6.464
 4362POPC   C2B56072  28.929   4.217   6.764
 4362POPC   C3B56073  28.914   4.171   7.064
 4362POPC   C4B56074  28.928   4.264   7.364
 4363POPC   NC356075   2.739  17.482   5.564
 4363POPC   PO456076   2.718  17.468   5.864
 4363POPC   GL156077   2.775  17.493   6.164
 4363POPC   GL256078   2.726  17.386   6.164
 4363POPC   C1A56079   2.732  17.508   6.464
 4363POPC   D2A56080   2.813  17.544   6.764
 4363POPC   C3A56081   2.795  17.480   7.064
 4363POPC   C4A56082   2.777  17.497   7.364
 4363POPC   C1B56083   2.731  17.230   6.464
 4363POPC   C2B56084   2.676  17.290   6.764
 4363POPC   C3B56085   2.695  17.264   7.064
 4363POPC   C4B56086   2.735  17.289   7.364
 4364POPC   NC356087  42.379   2.803   5.564
 4364POPC   PO456088  42.287   2.719   5.864
 4364POPC   GL156089  42.312   2.806   6.164
 4364POPC   GL256090  42.228   2.782   6.164
 4364POPC   C1A56091  42.293   2.741   6.464
 4364POPC   D2A56092  42.375   2.769   6.764
 4364POPC   C3A56093  42.329   2.815   7.064
 4364POPC   C4A56094  42.309   2.767   7.364
 4364POPC   C1B56095  42.126   2.762   6.464
 4364POPC   C2B56096  42.111   2.726   6.764
 4364POPC   C3B56097  42.059   2.782   7.064
 4364POPC   C4B56098  42.086   2.753   7.364
 4365POPC   NC356099   9.717  33.015   5.564
 4365POPC   PO456100   9.740  33.003   5.864
 4365POPC   GL156101   9.719  33.002   6.164
 4365POPC   GL256102   9.896  33.060   6.164
 4365POPC   C1A56103   9.791  33.066   6.464
 4365POPC   D2A56104   9.763  33.063   6.764
 4365POPC   C3A56105   9.707  32.993   7.064
 4365POPC   C4A56106   9.701  33.035   7.364
 4365POPC   C1B56107   9.939  33.166   6.464
 4365POPC   C2B56108   9.968  33.145   6.764
 4365POPC   C3B56109   9.951  33.082   7.064
 4365POPC   C4B56110   9.992  33.112   7.364
 4366POPC   NC356111  18.288  27.602   5.564
 4366POPC   PO456112  18.239  27.626   5.864
 4366POPC   GL156113  18.249  27.552   6.164
 4366POPC   GL256114  18.207  27.666   6.164
 4366POPC   C1A56115  18.263  27.633   6.464
 4366POPC   D2A56116  18.320  27.619   6.764
 4366POPC   C3A56117  18.302  27.556   7.064
 4366POPC   C4A56118  18.320  27.640   7.364
 4366POPC   C1B56119  18.204  27.843   6.464
 4366POPC   C2B56120  18.155  27.811   6.764
 4366POPC   C3B56121  18.192  27.792   7.064
 4366POPC   C4B56122  18.209  27.802   7.364
 4367POPC   NC356123  14.434  19.864   5.564
 4367POPC   PO456124  14.366  19.785   5.864
 4367POPC   GL156125  14.396  19.854   6.164
 4367POPC   GL256126  14.351  19.920   6.164
 4367POPC   C1A56127  14.446  19.794   6.464
 4367POPC   D2A56128  14.449  19.806   6.764
 4367POPC   C3A56129  14.446  19.850   7.064
 4367POPC   C4A56130  14.372  19.864   7.364
 4367POPC   C1B56131  14.265  20.021   6.464
 4367POPC   C2B56132  14.298  20.028   6.764
 4367POPC   C3B56133  14.303  20.003   7.064
 4367POPC   C4B56134  14.231  20.071   7.364
 4368POPC   NC356135  43.866  14.439   5.564
 4368POPC   PO456136  43.870  14.377   5.864
 4368POPC   GL156137  43.931  14.418   6.164
 4368POPC   GL256138  43.904  14.265   6.164
 4368POPC   C1A56139  43.862  14.359   6.464
 4368POPC   D2A56140  43.864  14.356   6.764
 4368POPC   C3A56141  43.851  14.443   7.064
 4368POPC   C4A56142  43.886  14.449   7.364
 4368POPC   C1B56143  43.889  14.115   6.464
 4368POPC   C2B56144  43.903  14.133   6.764
 4368POPC   C3B56145  43.933  14.129   7.064
 4368POPC   C4B56146  43.928  14.133   7.364
 4369POPC   NC356147  19.830  10.481   5.564
 4369POPC   PO456148  19.824  10.555   5.864
 4369POPC   GL156149  19.824  10.528   6.164
 4369POPC   GL256150  19.730  10.401   6.164
 4369POPC   C1A56151  19.835  10.548   6.464
 4369POPC   D2A56152  19.873  10.489   6.764
 4369POPC   C3A56153  19.866  10.555   7.064
 4369POPC   C4A56154  19.796  10.516   7.364
 4369POPC   C1B56155  19.667  10.366   6.464
 4369POPC   C2B56156  19.635  10.365   6.764
 4369POPC   C3B56157  19.655  10.378   7.064
 4369POPC   C4B56158  19.600  10.354   7.364
 4370POPC   NC356159   1.242  19.013   5.564
 4370POPC   PO456160   1.229  19.047   5.864
 4370POPC   GL156161   1.250  19.037   6.164
 4370POPC   GL256162   1.127  19.111   6.164
 4370POPC   C1A56163   1.216  19.093   6.464
 4370POPC   D2A56164   1.182  19.076   6.764
 4370POPC   C3A56165   1.257  19.091   7.064
 4370POPC   C4A56166   1.240  19.051   7.364
 4370POPC   C1B56167   1.016  19.176   6.464
 4370POPC   C2B56168   1.017  19.083   6.764
 4370POPC   C3B56169   0.942  19.105   7.064
 4370POPC   C4B56170   0.948  19.114   7.364
 4371POPC   NC356171  28.360  10.549   5.564
 4371POPC   PO456172  28.380  10.557   5.864
 4371POPC   GL156173  28.410  10.564   6.164
 4371POPC   GL256174  28.445  10.644   6.164
 4371POPC   C1A56175  28.412  10.494   6.464
 4371POPC   D2A56176  28.418  10.527   6.764
 4371POPC   C3A56177  28.391  10.496   7.064
 4371POPC   C4A56178  28.349  10.532   7.364
 4371POPC   C1B56179  28.411  10.751   6.464
 4371POPC   C2B56180  28.442  10.739   6.764
 4371POPC   C3B56181  28.467  10.766   7.064
 4371POPC   C4B56182  28.385  10.743   7.364
 4372POPC   NC356183  12.101  20.648   5.564
 4372POPC   PO456184  12.041  20.646   5.864
 4372POPC   GL156185  12.087  20.568   6.164
 4372POPC   GL256186  12.108  20.698   6.164
 4372POPC   C1A56187  12.053  20.660   6.464
 4372POPC   D2A56188  12.097  20.595   6.764
 4372POPC   C3A56189  12.113  20.561   7.064
 4372POPC   C4A56190  12.071  20.572   7.364
 4372POPC   C1B56191  12.164  20.822   6.464
 4372POPC   C2B56192  12.199  20.887   6.764
 4372POPC   C3B56193  12.201  20.829   7.064
 4372POPC   C4B56194  12.142  20.878   7.364
 4373POPC   NC356195  19.088  29.890   5.564
 4373POPC   PO456196  19.079  29.957   5.864
 4373POPC   GL156197  19.091  29.938   6.164
 4373POPC   GL256198  19.165  29.976   6.164
 4373POPC   C1A56199  19.103  29.878   6.464
 4373POPC   D2A56200  19.090  29.927   6.764
 4373POPC   C3A56201  19.012  29.952   7.064
 4373POPC   C4A56202  19.086  29.917   7.364
 4373POPC   C1B56203  19.313  29.954   6.464
 4373POPC   C2B56204  19.289  29.955   6.764
 4373POPC   C3B56205  19.270  29.963   7.064
 4373POPC   C4B56206  19.295  29.973   7.364
 4374POPC   NC356207   2.737   9.724   5.564
 4374POPC   PO456208   2.761   9.742   5.864
 4374POPC   GL156209   2.745   9.715   6.164
 4374POPC   GL256210   2.852   9.903   6.164
 4374POPC   C1A56211   2.781   9.739   6.464
 4374POPC   D2A56212   2.732   9.766   6.764
 4374POPC   C3A56213   2.773   9.732   7.064
 4374POPC   C4A56214   2.758   9.711   7.364
 4374POPC   C1B56215   2.799  10.007   6.464
 4374POPC   C2B56216   2.809  10.018   6.764
 4374POPC   C3B56217   2.845  10.023   7.064
 4374POPC   C4B56218   2.862   9.984   7.364
 4375POPC   NC356219   5.859  22.189   5.564
 4375POPC   PO456220   5.835  22.141   5.864
 4375POPC   GL156221   5.834  22.138   6.164
 4375POPC   GL256222   5.840  22.310   6.164
 4375POPC   C1A56223   5.881  22.186   6.464
 4375POPC   D2A56224   5.907  22.205   6.764
 4375POPC   C3A56225   5.854  22.157   7.064
 4375POPC   C4A56226   5.826  22.191   7.364
 4375POPC   C1B56227   5.801  22.413   6.464
 4375POPC   C2B56228   5.877  22.365   6.764
 4375POPC   C3B56229   5.829  22.435   7.064
 4375POPC   C4B56230   5.820  22.452   7.364
 4376POPC   NC356231  43.152  17.523   5.564
 4376POPC   PO456232  43.113  17.465   5.864
 4376POPC   GL156233  43.110  17.465   6.164
 4376POPC   GL256234  43.274  17.585   6.164
 4376POPC   C1A56235  43.089  17.513   6.464
 4376POPC   D2A56236  43.135  17.516   6.764
 4376POPC   C3A56237  43.142  17.530   7.064
 4376POPC   C4A56238  43.111  17.511   7.364
 4376POPC   C1B56239  43.296  17.634   6.464
 4376POPC   C2B56240  43.360  17.591   6.764
 4376POPC   C3B56241  43.352  17.560   7.064
 4376POPC   C4B56242  43.377  17.629   7.364
 4377POPC   NC356243   1.193  44.631   5.564
 4377POPC   PO456244   1.172  44.648   5.864
 4377POPC   GL156245   1.184  44.668   6.164
 4377POPC   GL256246   1.194  44.756   6.164
 4377POPC   C1A56247   1.231  44.697   6.464
 4377POPC   D2A56248   1.262  44.679   6.764
 4377POPC   C3A56249   1.222  44.619   7.064
 4377POPC   C4A56250   1.200  44.630   7.364
 4377POPC   C1B56251   1.207  44.934   6.464
 4377POPC   C2B56252   1.256  44.950   6.764
 4377POPC   C3B56253   1.272  44.905   7.064
 4377POPC   C4B56254   1.242  44.951   7.364
 4378POPC   NC356255  26.810   2.742   5.564
 4378POPC   PO456256  26.843   2.740   5.864
 4378POPC   GL156257  26.793   2.717   6.164
 4378POPC   GL256258  26.679   2.780   6.164
 4378POPC   C1A56259  26.789   2.725   6.464
 4378POPC   D2A56260  26.783   2.762   6.764
 4378POPC   C3A56261  26.832   2.793   7.064
 4378POPC   C4A56262  26.823   2.751   7.364
 4378POPC   C1B56263  26.599   2.855   6.464
 4378POPC   C2B56264  26.539   2.845   6.764
 4378POPC   C3B56265  26.588   2.862   7.064
 4378POPC   C4B56266  26.600   2.853   7.364
 4379POPC   NC356267  19.798  25.233   5.564
 4379POPC   PO456268  19.840  25.223   5.864
 4379POPC   GL156269  19.866  25.264   6.164
 4379POPC   GL256270  19.887  25.377   6.164
 4379POPC   C1A56271  19.862  25.312   6.464
 4379POPC   D2A56272  19.843  25.285   6.764
 4379POPC   C3A56273  19.838  25.244   7.064
 4379POPC   C4A56274  19.847  25.239   7.364
 4379POPC   C1B56275  19.887  25.545   6.464
 4379POPC   C2B56276  19.935  25.493   6.764
 4379POPC   C3B56277  19.931  25.526   7.064
 4379POPC   C4B56278  19.923  25.461   7.364
 4380POPC   NC356279  17.485  42.303   5.564
 4380POPC   PO456280  17.523  42.290   5.864
 4380POPC   GL156281  17.549  42.347   6.164
 4380POPC   GL256282  17.599  42.310   6.164
 4380POPC   C1A56283  17.475  42.293   6.464
 4380POPC   D2A56284  17.470  42.381   6.764
 4380POPC   C3A56285  17.465  42.364   7.064
 4380POPC   C4A56286  17.538  42.343   7.364
 4380POPC   C1B56287  17.766  42.373   6.464
 4380POPC   C2B56288  17.745  42.309   6.764
 4380POPC   C3B56289  17.774  42.338   7.064
 4380POPC   C4B56290  17.777  42.390   7.364
 4381POPC   NC356291   6.655  41.561   5.564
 4381POPC   PO456292   6.677  41.523   5.864
 4381POPC   GL156293   6.649  41.541   6.164
 4381POPC   GL256294   6.700  41.683   6.164
 4381POPC   C1A56295   6.618  41.541   6.464
 4381POPC   D2A56296   6.628  41.566   6.764
 4381POPC   C3A56297   6.615  41.548   7.064
 4381POPC   C4A56298   6.604  41.602   7.364
 4381POPC   C1B56299   6.742  41.799   6.464
 4381POPC   C2B56300   6.716  41.819   6.764
 4381POPC   C3B56301   6.798  41.827   7.064
 4381POPC   C4B56302   6.775  41.796   7.364
 4382POPC   NC356303   4.344  12.894   5.564
 4382POPC   PO456304   4.309  12.862   5.864
 4382POPC   GL156305   4.275  12.856   6.164
 4382POPC   GL256306   4.429  12.921   6.164
 4382POPC   C1A56307   4.344  12.861   6.464
 4382POPC   D2A56308   4.328  12.893   6.764
 4382POPC   C3A56309   4.321  12.853   7.064
 4382POPC   C4A56310   4.284  12.807   7.364
 4382POPC   C1B56311   4.579  12.908   6.464
 4382POPC   C2B56312   4.576  12.853   6.764
 4382POPC   C3B56313   4.605  12.923   7.064
 4382POPC   C4B56314   4.562  12.947   7.364
 4383POPC   NC356315  16.702   4.317   5.564
 4383POPC   PO456316  16.750   4.355   5.864
 4383POPC   GL156317  16.688   4.311   6.164
 4383POPC   GL256318  16.808   4.388   6.164
 4383POPC   C1A56319  16.772   4.270   6.464
 4383POPC   D2A56320  16.688   4.341   6.764
 4383POPC   C3A56321  16.698   4.308   7.064
 4383POPC   C4A56322  16.697   4.277   7.364
 4383POPC   C1B56323  16.849   4.576   6.464
 4383POPC   C2B56324  16.830   4.524   6.764
 4383POPC   C3B56325  16.887   4.507   7.064
 4383POPC   C4B56326  16.819   4.573   7.364
 4384POPC   NC356327  29.961  24.491   5.564
 4384POPC   PO456328  29.884  24.484   5.864
 4384POPC   GL156329  29.961  24.520   6.164
 4384POPC   GL256330  29.982  24.439   6.164
 4384POPC   C1A56331  29.904  24.516   6.464
 4384POPC   D2A56332  29.930  24.450   6.764
 4384POPC   C3A56333  29.921  24.536   7.064
 4384POPC   C4A56334  29.879  24.532   7.364
 4384POPC   C1B56335  30.116  24.388   6.464
 4384POPC   C2B56336  30.104  24.393   6.764
 4384POPC   C3B56337  30.150  24.387   7.064
 4384POPC   C4B56338  30.150  24.392   7.364
 4385POPC   NC356339  26.847   9.749   5.564
 4385POPC   PO456340  26.843   9.758   5.864
 4385POPC   GL156341  26.828   9.755   6.164
 4385POPC   GL256342  26.880   9.783   6.164
 4385POPC   C1A56343  26.785   9.770   6.464
 4385POPC   D2A56344  26.858   9.757   6.764
 4385POPC   C3A56345  26.790   9.728   7.064
 4385POPC   C4A56346  26.842   9.725   7.364
 4385POPC   C1B56347  26.982   9.893   6.464
 4385POPC   C2B56348  26.987   9.903   6.764
 4385POPC   C3B56349  27.018   9.939   7.064
 4385POPC   C4B56350  26.985   9.862   7.364
 4386POPC   NC356351  15.149  40.817   5.564
 4386POPC   PO456352  15.133  40.753   5.864
 4386POPC   GL156353  15.178  40.812   6.164
 4386POPC   GL256354  15.164  40.922   6.164
 4386POPC   C1A56355  15.136  40.763   6.464
 4386POPC   D2A56356  15.164  40.750   6.764
 4386POPC   C3A56357  15.158  40.778   7.064
 4386POPC   C4A56358  15.186  40.798   7.364
 4386POPC   C1B56359  15.052  40.980   6.464
 4386POPC   C2B56360  15.072  40.985   6.764
 4386POPC   C3B56361  15.051  41.000   7.064
 4386POPC   C4B56362  15.052  40.978   7.364
 4387POPC   NC356363  34.556  14.442   5.564
 4387POPC   PO456364  34.615  14.419   5.864
 4387POPC   GL156365  34.583  14.362   6.164
 4387POPC   GL256366  34.642  14.403   6.164
 4387POPC   C1A56367  34.527  14.449   6.464
 4387POPC   D2A56368  34.533  14.413   6.764
 4387POPC   C3A56369  34.589  14.355   7.064
 4387POPC   C4A56370  34.618  14.412   7.364
 4387POPC   C1B56371  34.780  14.298   6.464
 4387POPC   C2B56372  34.805  14.310   6.764
 4387POPC   C3B56373  34.788  14.298   7.064
 4387POPC   C4B56374  34.783  14.320   7.364
 4388POPC   NC356375  41.600  17.491   5.564
 4388POPC   PO456376  41.549  17.489   5.864
 4388POPC   GL156377  41.551  17.475   6.164
 4388POPC   GL256378  41.481  17.603   6.164
 4388POPC   C1A56379  41.536  17.555   6.464
 4388POPC   D2A56380  41.558  17.543   6.764
 4388POPC   C3A56381  41.556  17.546   7.064
 4388POPC   C4A56382  41.512  17.469   7.364
 4388POPC   C1B56383  41.409  17.730   6.464
 4388POPC   C2B56384  41.445  17.714   6.764
 4388POPC   C3B56385  41.412  17.723   7.064
 4388POPC   C4B56386  41.481  17.683   7.364
 4389POPC   NC356387  20.583  39.269   5.564
 4389POPC   PO456388  20.579  39.247   5.864
 4389POPC   GL156389  20.629  39.198   6.164
 4389POPC   GL256390  20.656  39.062   6.164
 4389POPC   C1A56391  20.587  39.228   6.464
 4389POPC   D2A56392  20.590  39.240   6.764
 4389POPC   C3A56393  20.565  39.206   7.064
 4389POPC   C4A56394  20.612  39.228   7.364
 4389POPC   C1B56395  20.580  38.953   6.464
 4389POPC   C2B56396  20.578  38.977   6.764
 4389POPC   C3B56397  20.655  38.979   7.064
 4389POPC   C4B56398  20.661  38.950   7.364
 4390POPC   NC356399   5.880  35.344   5.564
 4390POPC   PO456400   5.872  35.336   5.864
 4390POPC   GL156401   5.834  35.329   6.164
 4390POPC   GL256402   5.881  35.418   6.164
 4390POPC   C1A56403   5.861  35.357   6.464
 4390POPC   D2A56404   5.904  35.377   6.764
 4390POPC   C3A56405   5.863  35.337   7.064
 4390POPC   C4A56406   5.855  35.376   7.364
 4390POPC   C1B56407   5.938  35.608   6.464
 4390POPC   C2B56408   5.986  35.525   6.764
 4390POPC   C3B56409   5.954  35.612   7.064
 4390POPC   C4B56410   5.985  35.593   7.364
 4391POPC   NC356411  40.036  36.896   5.564
 4391POPC   PO456412  39.964  36.876   5.864
 4391POPC   GL156413  40.030  36.869   6.164
 4391POPC   GL256414  40.059  37.040   6.164
 4391POPC   C1A56415  40.008  36.890   6.464
 4391POPC   D2A56416  39.958  36.918   6.764
 4391POPC   C3A56417  40.051  36.911   7.064
 4391POPC   C4A56418  40.046  36.905   7.364
 4391POPC   C1B56419  40.210  37.053   6.464
 4391POPC   C2B56420  40.203  37.057   6.764
 4391POPC   C3B56421  40.177  37.063   7.064
 4391POPC   C4B56422  40.140  37.122   7.364
 4392POPC   NC356423  29.100  19.092   5.564
 4392POPC   PO456424  29.119  19.070   5.864
 4392POPC   GL156425  29.166  19.072   6.164
 4392POPC   GL256426  29.220  19.187   6.164
 4392POPC   C1A56427  29.110  19.055   6.464
 4392POPC   D2A56428  29.143  19.066   6.764
 4392POPC   C3A56429  29.129  19.075   7.064
 4392POPC   C4A56430  29.115  19.089   7.364
 4392POPC   C1B56431  29.195  19.305   6.464
 4392POPC   C2B56432  29.208  19.285   6.764
 4392POPC   C3B56433  29.246  19.256   7.064
 4392POPC   C4B56434  29.214  19.326   7.364
 4393POPC   NC356435  22.964  37.711   5.564
 4393POPC   PO456436  22.966  37.631   5.864
 4393POPC   GL156437  22.966  37.671   6.164
 4393POPC   GL256438  23.086  37.715   6.164
 4393POPC   C1A56439  22.934  37.657   6.464
 4393POPC   D2A56440  22.963  37.689   6.764
 4393POPC   C3A56441  22.979  37.712   7.064
 4393POPC   C4A56442  22.967  37.640   7.364
 4393POPC   C1B56443  23.149  37.718   6.464
 4393POPC   C2B56444  23.140  37.756   6.764
 4393POPC   C3B56445  23.140  37.718   7.064
 4393POPC   C4B56446  23.200  37.758   7.364
 4394POPC   NC356447  39.276  35.357   5.564
 4394POPC   PO456448  39.272  35.389   5.864
 4394POPC   GL156449  39.186  35.352   6.164
 4394POPC   GL256450  39.353  35.411   6.164
 4394POPC   C1A56451  39.227  35.337   6.464
 4394POPC   D2A56452  39.258  35.365   6.764
 4394POPC   C3A56453  39.246  35.371   7.064
 4394POPC   C4A56454  39.183  35.352   7.364
 4394POPC   C1B56455  39.464  35.433   6.464
 4394POPC   C2B56456  39.473  35.388   6.764
 4394POPC   C3B56457  39.526  35.400   7.064
 4394POPC   C4B56458  39.486  35.406   7.364
 4395POPC   NC356459  32.200  35.357   5.564
 4395POPC   PO456460  32.222  35.397   5.864
 4395POPC   GL156461  32.237  35.401   6.164
 4395POPC   GL256462  32.315  35.436   6.164
 4395POPC   C1A56463  32.268  35.315   6.464
 4395POPC   D2A56464  32.290  35.312   6.764
 4395POPC   C3A56465  32.294  35.330   7.064
 4395POPC   C4A56466  32.212  35.388   7.364
 4395POPC   C1B56467  32.400  35.550   6.464
 4395POPC   C2B56468  32.476  35.509   6.764
 4395POPC   C3B56469  32.403  35.487   7.064
 4395POPC   C4B56470  32.444  35.506   7.364
 4396POPC   NC356471   8.150  11.258   5.564
 4396POPC   PO456472   8.229  11.312   5.864
 4396POPC   GL156473   8.154  11.311   6.164
 4396POPC   GL256474   8.116  11.380   6.164
 4396POPC   C1A56475   8.154  11.265   6.464
 4396POPC   D2A56476   8.214  11.294   6.764
 4396POPC   C3A56477   8.167  11.255   7.064
 4396POPC   C4A56478   8.191  11.308   7.364
 4396POPC   C1B56479   7.944  11.438   6.464
 4396POPC   C2B56480   8.031  11.432   6.764
 4396POPC   C3B56481   7.992  11.427   7.064
 4396POPC   C4B56482   7.995  11.423   7.364
 4397POPC   NC356483  29.883  27.637   5.564
 4397POPC   PO456484  29.967  27.546   5.864
 4397POPC   GL156485  29.953  27.552   6.164
 4397POPC   GL256486  29.786  27.562   6.164
 4397POPC   C1A56487  29.889  27.545   6.464
 4397POPC   D2A56488  29.932  27.595   6.764
 4397POPC   C3A56489  29.877  27.572   7.064
 4397POPC   C4A56490  29.884  27.625   7.364
 4397POPC   C1B56491  29.655  27.512   6.464
 4397POPC   C2B56492  29.658  27.457   6.764
 4397POPC   C3B56493  29.742  27.424   7.064
 4397POPC   C4B56494  29.701  27.495   7.364
 4398POPC   NC356495  18.248  42.295   5.564
 4398POPC   PO456496  18.319  42.365   5.864
 4398POPC   GL156497  18.257  42.299   6.164
 4398POPC   GL256498  18.334  42.380   6.164
 4398POPC   C1A56499  18.283  42.313   6.464
 4398POPC   D2A56500  18.312  42.325   6.764
 4398POPC   C3A56501  18.282  42.336   7.064
 4398POPC   C4A56502  18.329  42.347   7.364
 4398POPC   C1B56503  18.435  42.488   6.464
 4398POPC   C2B56504  18.501  42.526   6.764
 4398POPC   C3B56505  18.473  42.468   7.064
 4398POPC   C4B56506  18.439  42.517   7.364
 4399POPC   NC356507  44.699  29.195   5.564
 4399POPC   PO456508  44.649  29.175   5.864
 4399POPC   GL156509  44.681  29.175   6.164
 4399POPC   GL256510  44.695  29.058   6.164
 4399POPC   C1A56511  44.646  29.153   6.464
 4399POPC   D2A56512  44.694  29.151   6.764
 4399POPC   C3A56513  44.629  29.114   7.064
 4399POPC   C4A56514  44.688  29.107   7.364
 4399POPC   C1B56515  44.613  28.899   6.464
 4399POPC   C2B56516  44.635  28.879   6.764
 4399POPC   C3B56517  44.623  28.849   7.064
 4399POPC   C4B56518  44.651  28.862   7.364
 4400POPC   NC356519  18.308  16.769   5.564
 4400POPC   PO456520  18.305  16.692   5.864
 4400POPC   GL156521  18.294  16.709   6.164
 4400POPC   GL256522  18.165  16.658   6.164
 4400POPC   C1A56523  18.257  16.779   6.464
 4400POPC   D2A56524  18.297  16.746   6.764
 4400POPC   C3A56525  18.315  16.728   7.064
 4400POPC   C4A56526  18.332  16.686   7.364
 4400POPC   C1B56527  18.024  16.640   6.464
 4400POPC   C2B56528  18.051  16.677   6.764
 4400POPC   C3B56529  18.043  16.640   7.064
 4400POPC   C4B56530  18.007  16.689   7.364
 4401POPC   NC356531  18.279  26.797   5.564
 4401POPC   PO456532  18.330  26.855   5.864
 4401POPC   GL156533  18.283  26.799   6.164
 4401POPC   GL256534  18.158  26.742   6.164
 4401POPC   C1A56535  18.321  26.769   6.464
 4401POPC   D2A56536  18.313  26.779   6.764
 4401POPC   C3A56537  18.265  26.799   7.064
 4401POPC   C4A56538  18.244  26.815   7.364
 4401POPC   C1B56539  18.008  26.742   6.464
 4401POPC   C2B56540  18.007  26.746   6.764
 4401POPC   C3B56541  18.033  26.750   7.064
 4401POPC   C4B56542  18.026  26.733   7.364
 4402POPC   NC356543  14.362  41.514   5.564
 4402POPC   PO456544  14.392  41.541   5.864
 4402POPC   GL156545  14.369  41.605   6.164
 4402POPC   GL256546  14.460  41.638   6.164
 4402POPC   C1A56547  14.431  41.585   6.464
 4402POPC   D2A56548  14.391  41.548   6.764
 4402POPC   C3A56549  14.413  41.579   7.064
 4402POPC   C4A56550  14.420  41.537   7.364
 4402POPC   C1B56551  14.406  41.852   6.464
 4402POPC   C2B56552  14.428  41.827   6.764
 4402POPC   C3B56553  14.390  41.787   7.064
 4402POPC   C4B56554  14.435  41.839   7.364
 4403POPC   NC356555  22.207  33.791   5.564
 4403POPC   PO456556  22.174  33.791   5.864
 4403POPC   GL156557  22.209  33.783   6.164
 4403POPC   GL256558  22.090  33.724   6.164
 4403POPC   C1A56559  22.149  33.794   6.464
 4403POPC   D2A56560  22.181  33.795   6.764
 4403POPC   C3A56561  22.164  33.753   7.064
 4403POPC   C4A56562  22.136  33.756   7.364
 4403POPC   C1B56563  22.003  33.536   6.464
 4403POPC   C2B56564  22.083  33.608   6.764
 4403POPC   C3B56565  22.047  33.606   7.064
 4403POPC   C4B56566  22.033  33.543   7.364
 4404POPC   NC356567  14.452  22.117   5.564
 4404POPC   PO456568  14.357  22.196   5.864
 4404POPC   GL156569  14.408  22.196   6.164
 4404POPC   GL256570  14.528  22.091   6.164
 4404POPC   C1A56571  14.396  22.187   6.464
 4404POPC   D2A56572  14.446  22.166   6.764
 4404POPC   C3A56573  14.370  22.141   7.064
 4404POPC   C4A56574  14.367  22.159   7.364
 4404POPC   C1B56575  14.619  22.063   6.464
 4404POPC   C2B56576  14.691  22.112   6.764
 4404POPC   C3B56577  14.663  22.106   7.064
 4404POPC   C4B56578  14.611  22.051   7.364
 4405POPC   NC356579  15.207   4.284   5.564
 4405POPC   PO456580  15.223   4.285   5.864
 4405POPC   GL156581  15.196   4.329   6.164
 4405POPC   GL256582  15.234   4.456   6.164
 4405POPC   C1A56583  15.212   4.340   6.464
 4405POPC   D2A56584  15.182   4.359   6.764
 4405POPC   C3A56585  15.204   4.269   7.064
 4405POPC   C4A56586  15.208   4.354   7.364
 4405POPC   C1B56587  15.176   4.613   6.464
 4405POPC   C2B56588  15.162   4.543   6.764
 4405POPC   C3B56589  15.162   4.608   7.064
 4405POPC   C4B56590  15.196   4.534   7.364
 4406POPC   NC356591  30.660  22.157   5.564
 4406POPC   PO456592  30.743  22.180   5.864
 4406POPC   GL156593  30.717  22.185   6.164
 4406POPC   GL256594  30.770  22.235   6.164
 4406POPC   C1A56595  30.731  22.163   6.464
 4406POPC   D2A56596  30.706  22.154   6.764
 4406POPC   C3A56597  30.734  22.119   7.064
 4406POPC   C4A56598  30.683  22.145   7.364
 4406POPC   C1B56599  30.950  22.253   6.464
 4406POPC   C2B56600  30.891  22.335   6.764
 4406POPC   C3B56601  30.930  22.265   7.064
 4406POPC   C4B56602  30.890  22.287   7.364
 4407POPC   NC356603  34.527   3.555   5.564
 4407POPC   PO456604  34.603   3.525   5.864
 4407POPC   GL156605  34.589   3.582   6.164
 4407POPC   GL256606  34.615   3.692   6.164
 4407POPC   C1A56607  34.583   3.499   6.464
 4407POPC   D2A56608  34.570   3.532   6.764
 4407POPC   C3A56609  34.598   3.572   7.064
 4407POPC   C4A56610  34.587   3.574   7.364
 4407POPC   C1B56611  34.704   3.748   6.464
 4407POPC   C2B56612  34.689   3.767   6.764
 4407POPC   C3B56613  34.748   3.739   7.064
 4407POPC   C4B56614  34.759   3.761   7.364
 4408POPC   NC356615  43.109  21.400   5.564
 4408POPC   PO456616  43.155  21.418   5.864
 4408POPC   GL156617  43.150  21.385   6.164
 4408POPC   GL256618  43.049  21.532   6.164
 4408POPC   C1A56619  43.121  21.400   6.464
 4408POPC   D2A56620  43.075  21.431   6.764
 4408POPC   C3A56621  43.150  21.423   7.064
 4408POPC   C4A56622  43.117  21.385   7.364
 4408POPC   C1B56623  43.007  21.580   6.464
 4408POPC   C2B56624  43.036  21.669   6.764
 4408POPC   C3B56625  43.016  21.629   7.064
 4408POPC   C4B56626  42.978  21.620   7.364
 4409POPC   NC356627  16.754  23.744   5.564
 4409POPC   PO456628  16.721  23.682   5.864
 4409POPC   GL156629  16.768  23.742   6.164
 4409POPC   GL256630  16.797  23.793   6.164
 4409POPC   C1A56631  16.756  23.751   6.464
 4409POPC   D2A56632  16.744  23.674   6.764
 4409POPC   C3A56633  16.769  23.680   7.064
 4409POPC   C4A56634  16.688  23.750   7.364
 4409POPC   C1B56635  16.899  23.933   6.464
 4409POPC   C2B56636  16.944  23.914   6.764
 4409POPC   C3B56637  16.862  23.913   7.064
 4409POPC   C4B56638  16.886  23.866   7.364
 4410POPC   NC356639  37.701   6.683   5.564
 4410POPC   PO456640  37.721   6.635   5.864
 4410POPC   GL156641  37.679   6.598   6.164
 4410POPC   GL256642  37.670   6.546   6.164
 4410POPC   C1A56643  37.651   6.651   6.464
 4410POPC   D2A56644  37.646   6.617   6.764
 4410POPC   C3A56645  37.636   6.607   7.064
 4410POPC   C4A56646  37.650   6.664   7.364
 4410POPC   C1B56647  37.690   6.418   6.464
 4410POPC   C2B56648  37.732   6.431   6.764
 4410POPC   C3B56649  37.659   6.379   7.064
 4410POPC   C4B56650  37.741   6.360   7.364
 4411POPC   NC356651  31.460  19.827   5.564
 4411POPC   PO456652  31.438  19.883   5.864
 4411POPC   GL156653  31.486  19.845   6.164
 4411POPC   GL256654  31.496  19.912   6.164
 4411POPC   C1A56655  31.468  19.882   6.464
 4411POPC   D2A56656  31.493  19.823   6.764
 4411POPC   C3A56657  31.481  19.823   7.064
 4411POPC   C4A56658  31.427  19.876   7.364
 4411POPC   C1B56659  31.608  20.101   6.464
 4411POPC   C2B56660  31.566  20.062   6.764
 4411POPC   C3B56661  31.571  20.047   7.064
 4411POPC   C4B56662  31.553  20.113   7.364
 4412POPC   NC356663  34.606   7.409   5.564
 4412POPC   PO456664  34.599   7.418   5.864
 4412POPC   GL156665  34.580   7.466   6.164
 4412POPC   GL256666  34.540   7.510   6.164
 4412POPC   C1A56667  34.534   7.467   6.464
 4412POPC   D2A56668  34.596   7.406   6.764
 4412POPC   C3A56669  34.603   7.421   7.064
 4412POPC   C4A56670  34.606   7.401   7.364
 4412POPC   C1B56671  34.477   7.651   6.464
 4412POPC   C2B56672  34.486   7.688   6.764
 4412POPC   C3B56673  34.529   7.621   7.064
 4412POPC   C4B56674  34.477   7.618   7.364
 4413POPC   NC356675   5.839  42.290   5.564
 4413POPC   PO456676   5.919  42.383   5.864
 4413POPC   GL156677   5.890  42.299   6.164
 4413POPC   GL256678   5.837  42.164   6.164
 4413POPC   C1A56679   5.867  42.336   6.464
 4413POPC   D2A56680   5.876  42.384   6.764
 4413POPC   C3A56681   5.884  42.309   7.064
 4413POPC   C4A56682   5.863  42.314   7.364
 4413POPC   C1B56683   5.818  42.099   6.464
 4413POPC   C2B56684   5.869  42.037   6.764
 4413POPC   C3B56685   5.852  42.092   7.064
 4413POPC   C4B56686   5.838  42.040   7.364
 4414POPC   NC356687  22.924  39.989   5.564
 4414POPC   PO456688  22.975  40.052   5.864
 4414POPC   GL156689  22.903  40.038   6.164
 4414POPC   GL256690  22.888  40.153   6.164
 4414POPC   C1A56691  22.914  40.022   6.464
 4414POPC   D2A56692  22.900  40.029   6.764
 4414POPC   C3A56693  22.952  40.046   7.064
 4414POPC   C4A56694  22.949  40.007   7.364
 4414POPC   C1B56695  22.888  40.230   6.464
 4414POPC   C2B56696  22.803  40.279   6.764
 4414POPC   C3B56697  22.887  40.269   7.064
 4414POPC   C4B56698  22.865  40.261   7.364
 4415POPC   NC356699  43.101  27.607   5.564
 4415POPC   PO456700  43.113  27.636   5.864
 4415POPC   GL156701  43.115  27.552   6.164
 4415POPC   GL256702  43.025  27.542   6.164
 4415POPC   C1A56703  43.116  27.633   6.464
 4415POPC   D2A56704  43.149  27.592   6.764
 4415POPC   C3A56705  43.136  27.555   7.064
 4415POPC   C4A56706  43.157  27.637   7.364
 4415POPC   C1B56707  42.880  27.545   6.464
 4415POPC   C2B56708  42.825  27.510   6.764
 4415POPC   C3B56709  42.896  27.522   7.064
 4415POPC   C4B56710  42.845  27.546   7.364
 4416POPC   NC356711  37.705  37.676   5.564
 4416POPC   PO456712  37.724  37.680   5.864
 4416POPC   GL156713  37.636  37.712   6.164
 4416POPC   GL256714  37.673  37.543   6.164
 4416POPC   C1A56715  37.710  37.648   6.464
 4416POPC   D2A56716  37.696  37.708   6.764
 4416POPC   C3A56717  37.634  37.681   7.064
 4416POPC   C4A56718  37.724  37.663   7.364
 4416POPC   C1B56719  37.725  37.483   6.464
 4416POPC   C2B56720  37.709  37.427   6.764
 4416POPC   C3B56721  37.764  37.451   7.064
 4416POPC   C4B56722  37.741  37.407   7.364
 4417POPC   NC356723   2.716  44.657   5.564
 4417POPC   PO456724   2.718  44.693   5.864
 4417POPC   GL156725   2.807  44.638   6.164
 4417POPC   GL256726   2.791  44.522   6.164
 4417POPC   C1A56727   2.734  44.673   6.464
 4417POPC   D2A56728   2.779  44.654   6.764
 4417POPC   C3A56729   2.803  44.671   7.064
 4417POPC   C4A56730   2.722  44.634   7.364
 4417POPC   C1B56731   2.800  44.465   6.464
 4417POPC   C2B56732   2.866  44.465   6.764
 4417POPC   C3B56733   2.798  44.402   7.064
 4417POPC   C4B56734   2.805  44.403   7.364
 4418POPC   NC356735   1.952   0.398   5.564
 4418POPC   PO456736   1.991   0.437   5.864
 4418POPC   GL156737   1.947   0.448   6.164
 4418POPC   GL256738   2.079   0.468   6.164
 4418POPC   C1A56739   1.986   0.409   6.464
 4418POPC   D2A56740   1.991   0.438   6.764
 4418POPC   C3A56741   2.024   0.435   7.064
 4418POPC   C4A56742   1.965   0.442   7.364
 4418POPC   C1B56743   2.245   0.486   6.464
 4418POPC   C2B56744   2.284   0.492   6.764
 4418POPC   C3B56745   2.272   0.457   7.064
 4418POPC   C4B56746   2.223   0.442   7.364
 4419POPC   NC356747   8.990   8.970   5.564
 4419POPC   PO456748   8.977   8.936   5.864
 4419POPC   GL156749   8.955   8.991   6.164
 4419POPC   GL256750   8.802   8.965   6.164
 4419POPC   C1A56751   8.969   9.002   6.464
 4419POPC   D2A56752   8.925   8.948   6.764
 4419POPC   C3A56753   8.953   8.974   7.064
 4419POPC   C4A56754   8.928   9.007   7.364
 4419POPC   C1B56755   8.729   8.962   6.464
 4419POPC   C2B56756   8.742   8.882   6.764
 4419POPC   C3B56757   8.748   8.897   7.064
 4419POPC   C4B56758   8.729   8.886   7.364
 4420POPC   NC356759  24.482  19.870   5.564
 4420POPC   PO456760  24.534  19.877   5.864
 4420POPC   GL156761  24.442  19.838   6.164
 4420POPC   GL256762  24.572  19.832   6.164
 4420POPC   C1A56763  24.456  19.798   6.464
 4420POPC   D2A56764  24.463  19.806   6.764
 4420POPC   C3A56765  24.461  19.841   7.064
 4420POPC   C4A56766  24.469  19.820   7.364
 4420POPC   C1B56767  24.683  19.701   6.464
 4420POPC   C2B56768  24.681  19.779   6.764
 4420POPC   C3B56769  24.741  19.724   7.064
 4420POPC   C4B56770  24.697  19.724   7.364
 4421POPC   NC356771  42.323  12.818   5.564
 4421POPC   PO456772  42.301  12.900   5.864
 4421POPC   GL156773  42.349  12.824   6.164
 4421POPC   GL256774  42.232  12.936   6.164
 4421POPC   C1A56775  42.361  12.804   6.464
 4421POPC   D2A56776  42.320  12.820   6.764
 4421POPC   C3A56777  42.352  12.869   7.064
 4421POPC   C4A56778  42.353  12.882   7.364
 4421POPC   C1B56779  42.142  12.995   6.464
 4421POPC   C2B56780  42.166  13.023   6.764
 4421POPC   C3B56781  42.170  13.010   7.064
 4421POPC   C4B56782  42.158  13.043   7.364
 4422POPC   NC356783  33.753  42.341   5.564
 4422POPC   PO456784  33.849  42.370   5.864
 4422POPC   GL156785  33.833  42.288   6.164
 4422POPC   GL256786  33.726  42.417   6.164
 4422POPC   C1A56787  33.824  42.345   6.464
 4422POPC   D2A56788  33.837  42.310   6.764
 4422POPC   C3A56789  33.764  42.332   7.064
 4422POPC   C4A56790  33.826  42.337   7.364
 4422POPC   C1B56791  33.622  42.451   6.464
 4422POPC   C2B56792  33.615  42.507   6.764
 4422POPC   C3B56793  33.540  42.460   7.064
 4422POPC   C4B56794  33.586  42.428   7.364
 4423POPC   NC356795  25.290  10.488   5.564
 4423POPC   PO456796  25.296  10.526   5.864
 4423POPC   GL156797  25.274  10.572   6.164
 4423POPC   GL256798  25.263  10.395   6.164
 4423POPC   C1A56799  25.248  10.565   6.464
 4423POPC   D2A56800  25.263  10.573   6.764
 4423POPC   C3A56801  25.310  10.487   7.064
 4423POPC   C4A56802  25.299  10.526   7.364
 4423POPC   C1B56803  25.162  10.335   6.464
 4423POPC   C2B56804  25.166  10.257   6.764
 4423POPC   C3B56805  25.208  10.334   7.064
 4423POPC   C4B56806  25.141  10.262   7.364
 4424POPC   NC356807  25.229  30.704   5.564
 4424POPC   PO456808  25.301  30.730   5.864
 4424POPC   GL156809  25.239  30.663   6.164
 4424POPC   GL256810  25.164  30.614   6.164
 4424POPC   C1A56811  25.281  30.686   6.464
 4424POPC   D2A56812  25.302  30.719   6.764
 4424POPC   C3A56813  25.227  30.707   7.064
 4424POPC   C4A56814  25.311  30.746   7.364
 4424POPC   C1B56815  25.100  30.515   6.464
 4424POPC   C2B56816  25.137  30.494   6.764
 4424POPC   C3B56817  25.070  30.469   7.064
 4424POPC   C4B56818  25.067  30.458   7.364
 4425POPC   NC356819   5.912  20.576   5.564
 4425POPC   PO456820   5.823  20.577   5.864
 4425POPC   GL156821   5.884  20.568   6.164
 4425POPC   GL256822   5.896  20.510   6.164
 4425POPC   C1A56823   5.834  20.658   6.464
 4425POPC   D2A56824   5.871  20.566   6.764
 4425POPC   C3A56825   5.836  20.564   7.064
 4425POPC   C4A56826   5.845  20.602   7.364
 4425POPC   C1B56827   5.818  20.379   6.464
 4425POPC   C2B56828   5.808  20.318   6.764
 4425POPC   C3B56829   5.839  20.339   7.064
 4425POPC   C4B56830   5.801  20.347   7.364
 4426POPC   NC356831  33.758  12.068   5.564
 4426POPC   PO456832  33.762  12.026   5.864
 4426POPC   GL156833  33.772  12.052   6.164
 4426POPC   GL256834  33.910  12.084   6.164
 4426POPC   C1A56835  33.826  12.062   6.464
 4426POPC   D2A56836  33.839  12.105   6.764
 4426POPC   C3A56837  33.752  12.054   7.064
 4426POPC   C4A56838  33.845  12.078   7.364
 4426POPC   C1B56839  34.036  12.133   6.464
 4426POPC   C2B56840  34.065  12.182   6.764
 4426POPC   C3B56841  33.984  12.216   7.064
 4426POPC   C4B56842  34.032  12.123   7.364
 4427POPC   NC356843  21.390   9.790   5.564
 4427POPC   PO456844  21.364   9.782   5.864
 4427POPC   GL156845  21.417   9.773   6.164
 4427POPC   GL256846  21.332   9.632   6.164
 4427POPC   C1A56847  21.419   9.776   6.464
 4427POPC   D2A56848  21.418   9.709   6.764
 4427POPC   C3A56849  21.417   9.713   7.064
 4427POPC   C4A56850  21.431   9.721   7.364
 4427POPC   C1B56851  21.235   9.487   6.464
 4427POPC   C2B56852  21.224   9.509   6.764
 4427POPC   C3B56853  21.224   9.532   7.064
 4427POPC   C4B56854  21.262   9.494   7.364
 4428POPC   NC356855  25.269  34.604   5.564
 4428POPC   PO456856  25.255  34.537   5.864
 4428POPC   GL156857  25.267  34.574   6.164
 4428POPC   GL256858  25.326  34.431   6.164
 4428POPC   C1A56859  25.238  34.590   6.464
 4428POPC   D2A56860  25.263  34.597   6.764
 4428POPC   C3A56861  25.279  34.554   7.064
 4428POPC   C4A56862  25.285  34.528   7.364
 4428POPC   C1B56863  25.365  34.379   6.464
 4428POPC   C2B56864  25.340  34.323   6.764
 4428POPC   C3B56865  25.318  34.384   7.064
 4428POPC   C4B56866  25.382  34.354   7.364
 4429POPC   NC356867  18.243  40.808   5.564
 4429POPC   PO456868  18.288  40.820   5.864
 4429POPC   GL156869  18.324  40.737   6.164
 4429POPC   GL256870  18.343  40.650   6.164
 4429POPC   C1A56871  18.289  40.818   6.464
 4429POPC   D2A56872  18.254  40.771   6.764
 4429POPC   C3A56873  18.308  40.740   7.064
 4429POPC   C4A56874  18.295  40.755   7.364
 4429POPC   C1B56875  18.446  40.579   6.464
 4429POPC   C2B56876  18.459  40.632   6.764
 4429POPC   C3B56877  18.463  40.608   7.064
 4429POPC   C4B56878  18.412  40.597   7.364
 4430POPC   NC356879  26.085  22.889   5.564
 4430POPC   PO456880  26.061  22.978   5.864
 4430POPC   GL156881  26.087  22.906   6.164
 4430POPC   GL256882  26.081  23.080   6.164
 4430POPC   C1A56883  25.993  22.894   6.464
 4430POPC   D2A56884  26.021  22.932   6.764
 4430POPC   C3A56885  26.066  22.982   7.064
 4430POPC   C4A56886  26.078  22.921   7.364
 4430POPC   C1B56887  26.154  23.168   6.464
 4430POPC   C2B56888  26.137  23.183   6.764
 4430POPC   C3B56889  26.128  23.188   7.064
 4430POPC   C4B56890  26.078  23.136   7.364
 4431POPC   NC356891  26.837  35.397   5.564
 4431POPC   PO456892  26.775  35.327   5.864
 4431POPC   GL156893  26.847  35.346   6.164
 4431POPC   GL256894  26.815  35.510   6.164
 4431POPC   C1A56895  26.801  35.386   6.464
 4431POPC   D2A56896  26.829  35.336   6.764
 4431POPC   C3A56897  26.781  35.354   7.064
 4431POPC   C4A56898  26.835  35.380   7.364
 4431POPC   C1B56899  26.878  35.633   6.464
 4431POPC   C2B56900  26.863  35.567   6.764
 4431POPC   C3B56901  26.850  35.612   7.064
 4431POPC   C4B56902  26.928  35.637   7.364
 4432POPC   NC356903  29.188  22.198   5.564
 4432POPC   PO456904  29.099  22.141   5.864
 4432POPC   GL156905  29.119  22.147   6.164
 4432POPC   GL256906  29.202  22.106   6.164
 4432POPC   C1A56907  29.183  22.133   6.464
 4432POPC   D2A56908  29.145  22.140   6.764
 4432POPC   C3A56909  29.155  22.158   7.064
 4432POPC   C4A56910  29.178  22.159   7.364
 4432POPC   C1B56911  29.245  21.975   6.464
 4432POPC   C2B56912  29.232  21.916   6.764
 4432POPC   C3B56913  29.260  21.995   7.064
 4432POPC   C4B56914  29.307  21.968   7.364
 4433POPC   NC356915   8.971  31.493   5.564
 4433POPC   PO456916   8.960  31.449   5.864
 4433POPC   GL156917   8.988  31.460   6.164
 4433POPC   GL256918   8.925  31.577   6.164
 4433POPC   C1A56919   9.009  31.424   6.464
 4433POPC   D2A56920   9.010  31.499   6.764
 4433POPC   C3A56921   9.006  31.487   7.064
 4433POPC   C4A56922   9.009  31.485   7.364
 4433POPC   C1B56923   8.868  31.690   6.464
 4433POPC   C2B56924   8.894  31.754   6.764
 4433POPC   C3B56925   8.877  31.656   7.064
 4433POPC   C4B56926   8.886  31.682   7.364
 4434POPC   NC356927   0.468  21.377   5.564
 4434POPC   PO456928   0.449  21.415   5.864
 4434POPC   GL156929   0.453  21.433   6.164
 4434POPC   GL256930   0.355  21.520   6.164
 4434POPC   C1A56931   0.458  21.412   6.464
 4434POPC   D2A56932   0.455  21.345   6.764
 4434POPC   C3A56933   0.467  21.411   7.064
 4434POPC   C4A56934   0.473  21.384   7.364
 4434POPC   C1B56935   0.285  21.607   6.464
 4434POPC   C2B56936   0.254  21.612   6.764
 4434POPC   C3B56937   0.241  21.527   7.064
 4434POPC   C4B56938   0.245  21.599   7.364
 4435POPC   NC356939  40.816  14.444   5.564
 4435POPC   PO456940  40.777  14.425   5.864
 4435POPC   GL156941  40.797  14.395   6.164
 4435POPC   GL256942  40.887  14.518   6.164
 4435POPC   C1A56943  40.811  14.414   6.464
 4435POPC   D2A56944  40.822  14.415   6.764
 4435POPC   C3A56945  40.776  14.395   7.064
 4435POPC   C4A56946  40.750  14.373   7.364
 4435POPC   C1B56947  40.981  14.529   6.464
 4435POPC   C2B56948  40.991  14.497   6.764
 4435POPC   C3B56949  40.969  14.523   7.064
 4435POPC   C4B56950  41.012  14.586   7.364
 4436POPC   NC356951  20.585  12.879   5.564
 4436POPC   PO456952  20.586  12.886   5.864
 4436POPC   GL156953  20.623  12.807   6.164
 4436POPC   GL256954  20.518  12.708   6.164
 4436POPC   C1A56955  20.572  12.820   6.464
 4436POPC   D2A56956  20.632  12.873   6.764
 4436POPC   C3A56957  20.572  12.840   7.064
 4436POPC   C4A56958  20.616  12.887   7.364
 4436POPC   C1B56959  20.491  12.668   6.464
 4436POPC   C2B56960  20.461  12.607   6.764
 4436POPC   C3B56961  20.444  12.636   7.064
 4436POPC   C4B56962  20.488  12.678   7.364
 4437POPC   NC356963  42.331  41.530   5.564
 4437POPC   PO456964  42.330  41.526   5.864
 4437POPC   GL156965  42.370  41.558   6.164
 4437POPC   GL256966  42.356  41.393   6.164
 4437POPC   C1A56967  42.317  41.601   6.464
 4437POPC   D2A56968  42.313  41.509   6.764
 4437POPC   C3A56969  42.336  41.607   7.064
 4437POPC   C4A56970  42.376  41.558   7.364
 4437POPC   C1B56971  42.257  41.263   6.464
 4437POPC   C2B56972  42.303  41.273   6.764
 4437POPC   C3B56973  42.308  41.295   7.064
 4437POPC   C4B56974  42.305  41.356   7.364
 4438POPC   NC356975  27.599  29.172   5.564
 4438POPC   PO456976  27.576  29.148   5.864
 4438POPC   GL156977  27.549  29.172   6.164
 4438POPC   GL256978  27.587  29.252   6.164
 4438POPC   C1A56979  27.620  29.183   6.464
 4438POPC   D2A56980  27.587  29.121   6.764
 4438POPC   C3A56981  27.575  29.188   7.064
 4438POPC   C4A56982  27.596  29.099   7.364
 4438POPC   C1B56983  27.584  29.350   6.464
 4438POPC   C2B56984  27.622  29.429   6.764
 4438POPC   C3B56985  27.637  29.435   7.064
 4438POPC   C4B56986  27.635  29.402   7.364
 4439POPC   NC356987  33.073   8.237   5.564
 4439POPC   PO456988  33.054   8.183   5.864
 4439POPC   GL156989  32.980   8.230   6.164
 4439POPC   GL256990  32.953   8.261   6.164
 4439POPC   C1A56991  33.002   8.202   6.464
 4439POPC   D2A56992  33.013   8.185   6.764
 4439POPC   C3A56993  33.004   8.152   7.064
 4439POPC   C4A56994  32.982   8.232   7.364
 4439POPC   C1B56995  32.867   8.375   6.464
 4439POPC   C2B56996  32.857   8.367   6.764
 4439POPC   C3B56997  32.849   8.379   7.064
 4439POPC   C4B56998  32.845   8.342   7.364
 4440POPC   NC356999  13.670  10.502   5.564
 4440POPC   PO457000  13.607  10.480   5.864
 4440POPC   GL157001  13.598  10.529   6.164
 4440POPC   GL257002  13.678  10.416   6.164
 4440POPC   C1A57003  13.662  10.526   6.464
 4440POPC   D2A57004  13.599  10.484   6.764
 4440POPC   C3A57005  13.636  10.512   7.064
 4440POPC   C4A57006  13.621  10.499   7.364
 4440POPC   C1B57007  13.787  10.270   6.464
 4440POPC   C2B57008  13.810  10.298   6.764
 4440POPC   C3B57009  13.807  10.332   7.064
 4440POPC   C4B57010  13.812  10.363   7.364
 4441POPC   NC357011  37.630  40.008   5.564
 4441POPC   PO457012  37.669  39.972   5.864
 4441POPC   GL157013  37.679  40.052   6.164
 4441POPC   GL257014  37.811  40.077   6.164
 4441POPC   C1A57015  37.690  40.041   6.464
 4441POPC   D2A57016  37.656  39.968   6.764
 4441POPC   C3A57017  37.644  40.043   7.064
 4441POPC   C4A57018  37.652  39.957   7.364
 4441POPC   C1B57019  37.860  40.185   6.464
 4441POPC   C2B57020  37.839  40.182   6.764
 4441POPC   C3B57021  37.880  40.142   7.064
 4441POPC   C4B57022  37.832  40.192   7.364
 4442POPC   NC357023   8.937  35.352   5.564
 4442POPC   PO457024   8.951  35.354   5.864
 4442POPC   GL157025   8.932  35.329   6.164
 4442POPC   GL257026   9.099  35.357   6.164
 4442POPC   C1A57027   9.019  35.335   6.464
 4442POPC   D2A57028   8.961  35.338   6.764
 4442POPC   C3A57029   8.953  35.306   7.064
 4442POPC   C4A57030   8.989  35.361   7.364
 4442POPC   C1B57031   9.204  35.251   6.464
 4442POPC   C2B57032   9.239  35.292   6.764
 4442POPC   C3B57033   9.229  35.329   7.064
 4442POPC   C4B57034   9.232  35.325   7.364
 4443POPC   NC357035  30.675  33.771   5.564
 4443POPC   PO457036  30.697  33.813   5.864
 4443POPC   GL157037  30.693  33.849   6.164
 4443POPC   GL257038  30.549  33.742   6.164
 4443POPC   C1A57039  30.717  33.796   6.464
 4443POPC   D2A57040  30.662  33.791   6.764
 4443POPC   C3A57041  30.713  33.802   7.064
 4443POPC   C4A57042  30.659  33.842   7.364
 4443POPC   C1B57043  30.533  33.626   6.464
 4443POPC   C2B57044  30.468  33.639   6.764
 4443POPC   C3B57045  30.536  33.657   7.064
 4443POPC   C4B57046  30.484  33.696   7.364
 4444POPC   NC357047  33.805  40.021   5.564
 4444POPC   PO457048  33.846  39.965   5.864
 4444POPC   GL157049  33.819  40.032   6.164
 4444POPC   GL257050  33.885  39.998   6.164
 4444POPC   C1A57051  33.803  40.040   6.464
 4444POPC   D2A57052  33.771  40.012   6.764
 4444POPC   C3A57053  33.759  39.958   7.064
 4444POPC   C4A57054  33.767  39.990   7.364
 4444POPC   C1B57055  34.008  39.968   6.464
 4444POPC   C2B57056  34.000  39.925   6.764
 4444POPC   C3B57057  34.079  39.888   7.064
 4444POPC   C4B57058  33.992  39.884   7.364
 4445POPC   NC357059  34.568   2.756   5.564
 4445POPC   PO457060  34.550   2.745   5.864
 4445POPC   GL157061  34.551   2.734   6.164
 4445POPC   GL257062  34.445   2.884   6.164
 4445POPC   C1A57063  34.537   2.752   6.464
 4445POPC   D2A57064  34.622   2.786   6.764
 4445POPC   C3A57065  34.586   2.755   7.064
 4445POPC   C4A57066  34.548   2.765   7.364
 4445POPC   C1B57067  34.354   2.918   6.464
 4445POPC   C2B57068  34.410   2.896   6.764
 4445POPC   C3B57069  34.430   2.904   7.064
 4445POPC   C4B57070  34.416   2.948   7.364
 4446POPC   NC357071  10.519  39.249   5.564
 4446POPC   PO457072  10.572  39.189   5.864
 4446POPC   GL157073  10.510  39.265   6.164
 4446POPC   GL257074  10.661  39.244   6.164
 4446POPC   C1A57075  10.492  39.217   6.464
 4446POPC   D2A57076  10.548  39.245   6.764
 4446POPC   C3A57077  10.568  39.216   7.064
 4446POPC   C4A57078  10.536  39.267   7.364
 4446POPC   C1B57079  10.790  39.245   6.464
 4446POPC   C2B57080  10.740  39.325   6.764
 4446POPC   C3B57081  10.722  39.313   7.064
 4446POPC   C4B57082  10.781  39.270   7.364
 4447POPC   NC357083  25.260   5.823   5.564
 4447POPC   PO457084  25.259   5.890   5.864
 4447POPC   GL157085  25.312   5.824   6.164
 4447POPC   GL257086  25.109   5.832   6.164
 4447POPC   C1A57087  25.284   5.872   6.464
 4447POPC   D2A57088  25.223   5.847   6.764
 4447POPC   C3A57089  25.223   5.874   7.064
 4447POPC   C4A57090  25.244   5.827   7.364
 4447POPC   C1B57091  25.094   5.797   6.464
 4447POPC   C2B57092  25.040   5.742   6.764
 4447POPC   C3B57093  25.014   5.767   7.064
 4447POPC   C4B57094  24.998   5.771   7.364
 4448POPC   NC357095  39.994   1.253   5.564
 4448POPC   PO457096  40.029   1.239   5.864
 4448POPC   GL157097  40.004   1.260   6.164
 4448POPC   GL257098  40.121   1.254   6.164
 4448POPC   C1A57099  40.040   1.168   6.464
 4448POPC   D2A57100  39.981   1.244   6.764
 4448POPC   C3A57101  39.966   1.192   7.064
 4448POPC   C4A57102  40.044   1.185   7.364
 4448POPC   C1B57103  40.184   1.355   6.464
 4448POPC   C2B57104  40.166   1.375   6.764
 4448POPC   C3B57105  40.221   1.418   7.064
 4448POPC   C4B57106  40.160   1.359   7.364
 4449POPC   NC357107  18.314  43.152   5.564
 4449POPC   PO457108  18.330  43.093   5.864
 4449POPC   GL157109  18.302  43.142   6.164
 4449POPC   GL257110  18.336  43.196   6.164
 4449POPC   C1A57111  18.325  43.154   6.464
 4449POPC   D2A57112  18.265  43.120   6.764
 4449POPC   C3A57113  18.319  43.118   7.064
 4449POPC   C4A57114  18.299  43.071   7.364
 4449POPC   C1B57115  18.338  43.395   6.464
 4449POPC   C2B57116  18.302  43.333   6.764
 4449POPC   C3B57117  18.329  43.323   7.064
 4449POPC   C4B57118  18.254  43.366   7.364
 4450POPC   NC357119  16.719  27.550   5.564
 4450POPC   PO457120  16.776  27.605   5.864
 4450POPC   GL157121  16.717  27.612   6.164
 4450POPC   GL257122  16.710  27.468   6.164
 4450POPC   C1A57123  16.722  27.612   6.464
 4450POPC   D2A57124  16.711  27.555   6.764
 4450POPC   C3A57125  16.747  27.596   7.064
 4450POPC   C4A57126  16.708  27.562   7.364
 4450POPC   C1B57127  16.658  27.318   6.464
 4450POPC   C2B57128  16.699  27.351   6.764
 4450POPC   C3B57129  16.625  27.330   7.064
 4450POPC   C4B57130  16.685  27.318   7.364
 4451POPC   NC357131  36.902   6.643   5.564
 4451POPC   PO457132  36.898   6.638   5.864
 4451POPC   GL157133  36.951   6.605   6.164
 4451POPC   GL257134  36.757   6.643   6.164
 4451POPC   C1A57135  36.949   6.665   6.464
 4451POPC   D2A57136  36.887   6.618   6.764
 4451POPC   C3A57137  36.889   6.694   7.064
 4451POPC   C4A57138  36.917   6.666   7.364
 4451POPC   C1B57139  36.699   6.653   6.464
 4451POPC   C2B57140  36.621   6.699   6.764
 4451POPC   C3B57141  36.628   6.708   7.064
 4451POPC   C4B57142  36.661   6.696   7.364
 4452POPC   NC357143   5.891  39.962   5.564
 4452POPC   PO457144   5.890  39.971   5.864
 4452POPC   GL157145   5.904  40.056   6.164
 4452POPC   GL257146   5.752  40.028   6.164
 4452POPC   C1A57147   5.852  40.041   6.464
 4452POPC   D2A57148   5.859  40.007   6.764
 4452POPC   C3A57149   5.832  40.041   7.064
 4452POPC   C4A57150   5.902  39.984   7.364
 4452POPC   C1B57151   5.579  39.999   6.464
 4452POPC   C2B57152   5.625  39.950   6.764
 4452POPC   C3B57153   5.590  39.974   7.064
 4452POPC   C4B57154   5.605  39.973   7.364
 4453POPC   NC357155  39.230  36.126   5.564
 4453POPC   PO457156  39.280  36.153   5.864
 4453POPC   GL157157  39.241  36.161   6.164
 4453POPC   GL257158  39.309  36.056   6.164
 4453POPC   C1A57159  39.233  36.119   6.464
 4453POPC   D2A57160  39.195  36.176   6.764
 4453POPC   C3A57161  39.239  36.115   7.064
 4453POPC   C4A57162  39.190  36.176   7.364
 4453POPC   C1B57163  39.352  35.933   6.464
 4453POPC   C2B57164  39.336  35.949   6.764
 4453POPC   C3B57165  39.331  35.891   7.064
 4453POPC   C4B57166  39.336  35.882   7.364
 4454POPC   NC357167  14.449   8.998   5.564
 4454POPC   PO457168  14.402   9.013   5.864
 4454POPC   GL157169  14.357   9.001   6.164
 4454POPC   GL257170  14.450   9.092   6.164
 4454POPC   C1A57171  14.441   8.964   6.464
 4454POPC   D2A57172  14.369   8.942   6.764
 4454POPC   C3A57173  14.453   9.008   7.064
 4454POPC   C4A57174  14.386   8.929   7.364
 4454POPC   C1B57175  14.405   9.176   6.464
 4454POPC   C2B57176  14.424   9.205   6.764
 4454POPC   C3B57177  14.430   9.181   7.064
 4454POPC   C4B57178  14.428   9.214   7.364
 4455POPC   NC357179  18.276  10.573   5.564
 4455POPC   PO457180  18.330  10.571   5.864
 4455POPC   GL157181  18.249  10.516   6.164
 4455POPC   GL257182  18.256  10.623   6.164
 4455POPC   C1A57183  18.250  10.478   6.464
 4455POPC   D2A57184  18.317  10.520   6.764
 4455POPC   C3A57185  18.249  10.555   7.064
 4455POPC   C4A57186  18.236  10.496   7.364
 4455POPC   C1B57187  18.265  10.719   6.464
 4455POPC   C2B57188  18.227  10.787   6.764
 4455POPC   C3B57189  18.196  10.803   7.064
 4455POPC   C4B57190  18.244  10.758   7.364
 4456POPC   NC357191  26.851  27.629   5.564
 4456POPC   PO457192  26.799  27.595   5.864
 4456POPC   GL157193  26.856  27.638   6.164
 4456POPC   GL257194  26.852  27.516   6.164
 4456POPC   C1A57195  26.841  27.643   6.464
 4456POPC   D2A57196  26.854  27.591   6.764
 4456POPC   C3A57197  26.794  27.613   7.064
 4456POPC   C4A57198  26.781  27.603   7.364
 4456POPC   C1B57199  26.946  27.367   6.464
 4456POPC   C2B57200  26.950  27.407   6.764
 4456POPC   C3B57201  26.956  27.370   7.064
 4456POPC   C4B57202  26.972  27.371   7.364
 4457POPC   NC357203  10.533  32.999   5.564
 4457POPC   PO457204  10.480  33.054   5.864
 4457POPC   GL157205  10.515  33.010   6.164
 4457POPC   GL257206  10.550  32.890   6.164
 4457POPC   C1A57207  10.524  33.013   6.464
 4457POPC   D2A57208  10.541  33.038   6.764
 4457POPC   C3A57209  10.499  33.025   7.064
 4457POPC   C4A57210  10.545  33.060   7.364
 4457POPC   C1B57211  10.610  32.799   6.464
 4457POPC   C2B57212  10.624  32.775   6.764
 4457POPC   C3B57213  10.703  32.794   7.064
 4457POPC   C4B57214  10.662  32.794   7.364
 4458POPC   NC357215  43.848  12.853   5.564
 4458POPC   PO457216  43.925  12.861   5.864
 4458POPC   GL157217  43.841  12.894   6.164
 4458POPC   GL257218  43.954  12.840   6.164
 4458POPC   C1A57219  43.866  12.857   6.464
 4458POPC   D2A57220  43.931  12.852   6.764
 4458POPC   C3A57221  43.841  12.873   7.064
 4458POPC   C4A57222  43.852  12.875   7.364
 4458POPC   C1B57223  44.092  12.769   6.464
 4458POPC   C2B57224  44.144  12.784   6.764
 4458POPC   C3B57225  44.082  12.728   7.064
 4458POPC   C4B57226  44.102  12.801   7.364
 4459POPC   NC357227  35.335  33.776   5.564
 4459POPC   PO457228  35.330  33.811   5.864
 4459POPC   GL157229  35.334  33.825   6.164
 4459POPC   GL257230  35.512  33.805   6.164
 4459POPC   C1A57231  35.341  33.759   6.464
 4459POPC   D2A57232  35.380  33.794   6.764
 4459POPC   C3A57233  35.370  33.758   7.064
 4459POPC   C4A57234  35.333  33.776   7.364
 4459POPC   C1B57235  35.635  33.693   6.464
 4459POPC   C2B57236  35.565  33.741   6.764
 4459POPC   C3B57237  35.605  33.709   7.064
 4459POPC   C4B57238  35.584  33.766   7.364
 4460POPC   NC357239  21.429  43.881   5.564
 4460POPC   PO457240  21.387  43.882   5.864
 4460POPC   GL157241  21.382  43.871   6.164
 4460POPC   GL257242  21.480  43.887   6.164
 4460POPC   C1A57243  21.365  43.861   6.464
 4460POPC   D2A57244  21.410  43.846   6.764
 4460POPC   C3A57245  21.414  43.900   7.064
 4460POPC   C4A57246  21.373  43.926   7.364
 4460POPC   C1B57247  21.649  43.947   6.464
 4460POPC   C2B57248  21.622  43.920   6.764
 4460POPC   C3B57249  21.676  43.914   7.064
 4460POPC   C4B57250  21.614  43.957   7.364
 4461POPC   NC357251   5.912   9.785   5.564
 4461POPC   PO457252   5.898   9.718   5.864
 4461POPC   GL157253   5.847   9.718   6.164
 4461POPC   GL257254   5.852   9.619   6.164
 4461POPC   C1A57255   5.837   9.744   6.464
 4461POPC   D2A57256   5.872   9.776   6.764
 4461POPC   C3A57257   5.832   9.758   7.064
 4461POPC   C4A57258   5.842   9.793   7.364
 4461POPC   C1B57259   5.769   9.485   6.464
 4461POPC   C2B57260   5.766   9.502   6.764
 4461POPC   C3B57261   5.775   9.516   7.064
 4461POPC   C4B57262   5.726   9.563   7.364
 4462POPC   NC357263  42.285  21.342   5.564
 4462POPC   PO457264  42.383  21.408   5.864
 4462POPC   GL157265  42.339  21.370   6.164
 4462POPC   GL257266  42.358  21.519   6.164
 4462POPC   C1A57267  42.322  21.362   6.464
 4462POPC   D2A57268  42.300  21.371   6.764
 4462POPC   C3A57269  42.307  21.347   7.064
 4462POPC   C4A57270  42.290  21.388   7.364
 4462POPC   C1B57271  42.429  21.635   6.464
 4462POPC   C2B57272  42.449  21.645   6.764
 4462POPC   C3B57273  42.455  21.653   7.064
 4462POPC   C4B57274  42.444  21.603   7.364
 4463POPC   NC357275  20.646  40.784   5.564
 4463POPC   PO457276  20.659  40.759   5.864
 4463POPC   GL157277  20.621  40.825   6.164
 4463POPC   GL257278  20.687  40.781   6.164
 4463POPC   C1A57279  20.604  40.796   6.464
 4463POPC   D2A57280  20.649  40.818   6.764
 4463POPC   C3A57281  20.610  40.827   7.064
 4463POPC   C4A57282  20.644  40.737   7.364
 4463POPC   C1B57283  20.800  40.693   6.464
 4463POPC   C2B57284  20.838  40.674   6.764
 4463POPC   C3B57285  20.860  40.696   7.064
 4463POPC   C4B57286  20.884  40.651   7.364
 4464POPC   NC357287  37.686  31.474   5.564
 4464POPC   PO457288  37.727  31.465   5.864
 4464POPC   GL157289  37.651  31.472   6.164
 4464POPC   GL257290  37.815  31.580   6.164
 4464POPC   C1A57291  37.685  31.475   6.464
 4464POPC   D2A57292  37.712  31.501   6.764
 4464POPC   C3A57293  37.677  31.453   7.064
 4464POPC   C4A57294  37.721  31.457   7.364
 4464POPC   C1B57295  37.923  31.587   6.464
 4464POPC   C2B57296  37.877  31.608   6.764
 4464POPC   C3B57297  37.893  31.630   7.064
 4464POPC   C4B57298  37.867  31.599   7.364
 4465POPC   NC357299  30.680   9.781   5.564
 4465POPC   PO457300  30.666   9.743   5.864
 4465POPC   GL157301  30.668   9.775   6.164
 4465POPC   GL257302  30.751   9.806   6.164
 4465POPC   C1A57303  30.728   9.759   6.464
 4465POPC   D2A57304  30.666   9.791   6.764
 4465POPC   C3A57305  30.720   9.699   7.064
 4465POPC   C4A57306  30.668   9.708   7.364
 4465POPC   C1B57307  30.930   9.895   6.464
 4465POPC   C2B57308  30.906   9.921   6.764
 4465POPC   C3B57309  30.903   9.849   7.064
 4465POPC   C4B57310  30.942   9.929   7.364
 4466POPC   NC357311   7.409  34.535   5.564
 4466POPC   PO457312   7.452  34.550   5.864
 4466POPC   GL157313   7.444  34.550   6.164
 4466POPC   GL257314   7.361  34.461   6.164
 4466POPC   C1A57315   7.470  34.591   6.464
 4466POPC   D2A57316   7.444  34.531   6.764
 4466POPC   C3A57317   7.444  34.528   7.064
 4466POPC   C4A57318   7.374  34.591   7.364
 4466POPC   C1B57319   7.229  34.387   6.464
 4466POPC   C2B57320   7.302  34.409   6.764
 4466POPC   C3B57321   7.302  34.375   7.064
 4466POPC   C4B57322   7.263  34.395   7.364
 4467POPC   NC357323   4.277  40.033   5.564
 4467POPC   PO457324   4.341  40.010   5.864
 4467POPC   GL157325   4.285  40.004   6.164
 4467POPC   GL257326   4.379  39.922   6.164
 4467POPC   C1A57327   4.322  39.964   6.464
 4467POPC   D2A57328   4.287  39.974   6.764
 4467POPC   C3A57329   4.324  39.990   7.064
 4467POPC   C4A57330   4.287  40.014   7.364
 4467POPC   C1B57331   4.409  39.760   6.464
 4467POPC   C2B57332   4.356  39.786   6.764
 4467POPC   C3B57333   4.378  39.820   7.064
 4467POPC   C4B57334   4.369  39.770   7.364
 4468POPC   NC357335  41.586  10.514   5.564
 4468POPC   PO457336  41.546  10.571   5.864
 4468POPC   GL157337  41.511  10.533   6.164
 4468POPC   GL257338  41.698  10.584   6.164
 4468POPC   C1A57339  41.531  10.483   6.464
 4468POPC   D2A57340  41.568  10.526   6.764
 4468POPC   C3A57341  41.559  10.552   7.064
 4468POPC   C4A57342  41.536  10.526   7.364
 4468POPC   C1B57343  41.763  10.618   6.464
 4468POPC   C2B57344  41.775  10.639   6.764
 4468POPC   C3B57345  41.796  10.607   7.064
 4468POPC   C4B57346  41.756  10.603   7.364
 4469POPC   NC357347  19.882  21.394   5.564
 4469POPC   PO457348  19.796  21.400   5.864
 4469POPC   GL157349  19.857  21.398   6.164
 4469POPC   GL257350  19.831  21.507   6.164
 4469POPC   C1A57351  19.805  21.378   6.464
 4469POPC   D2A57352  19.795  21.393   6.764
 4469POPC   C3A57353  19.805  21.344   7.064
 4469POPC   C4A57354  19.789  21.429   7.364
 4469POPC   C1B57355  19.768  21.652   6.464
 4469POPC   C2B57356  19.776  21.660   6.764
 4469POPC   C3B57357  19.714  21.606   7.064
 4469POPC   C4B57358  19.758  21.600   7.364
 4470POPC   NC357359  33.779  23.753   5.564
 4470POPC   PO457360  33.796  23.709   5.864
 4470POPC   GL157361  33.802  23.706   6.164
 4470POPC   GL257362  33.674  23.611   6.164
 4470POPC   C1A57363  33.799  23.682   6.464
 4470POPC   D2A57364  33.824  23.751   6.764
 4470POPC   C3A57365  33.797  23.675   7.064
 4470POPC   C4A57366  33.785  23.721   7.364
 4470POPC   C1B57367  33.601  23.548   6.464
 4470POPC   C2B57368  33.655  23.524   6.764
 4470POPC   C3B57369  33.614  23.516   7.064
 4470POPC   C4B57370  33.631  23.525   7.364
 4471POPC   NC357371  26.797  42.380   5.564
 4471POPC   PO457372  26.774  42.320   5.864
 4471POPC   GL157373  26.863  42.376   6.164
 4471POPC   GL257374  26.730  42.184   6.164
 4471POPC   C1A57375  26.826  42.329   6.464
 4471POPC   D2A57376  26.774  42.343   6.764
 4471POPC   C3A57377  26.803  42.295   7.064
 4471POPC   C4A57378  26.791  42.349   7.364
 4471POPC   C1B57379  26.691  42.120   6.464
 4471POPC   C2B57380  26.663  42.116   6.764
 4471POPC   C3B57381  26.648  42.098   7.064
 4471POPC   C4B57382  26.713  42.099   7.364
 4472POPC   NC357383  35.399   6.608   5.564
 4472POPC   PO457384  35.363   6.637   5.864
 4472POPC   GL157385  35.319   6.687   6.164
 4472POPC   GL257386  35.457   6.563   6.164
 4472POPC   C1A57387  35.373   6.658   6.464
 4472POPC   D2A57388  35.376   6.616   6.764
 4472POPC   C3A57389  35.306   6.610   7.064
 4472POPC   C4A57390  35.337   6.658   7.364
 4472POPC   C1B57391  35.458   6.403   6.464
 4472POPC   C2B57392  35.494   6.458   6.764
 4472POPC   C3B57393  35.554   6.398   7.064
 4472POPC   C4B57394  35.510   6.419   7.364
 4473POPC   NC357395  44.634  10.526   5.564
 4473POPC   PO457396  44.639  10.516   5.864
 4473POPC   GL157397  44.698  10.569   6.164
 4473POPC   GL257398  44.676  10.426   6.164
 4473POPC   C1A57399  44.619  10.498   6.464
 4473POPC   D2A57400  44.671  10.529   6.764
 4473POPC   C3A57401  44.662  10.524   7.064
 4473POPC   C4A57402  44.686  10.534   7.364
 4473POPC   C1B57403  44.635  10.297   6.464
 4473POPC   C2B57404  44.622  10.309   6.764
 4473POPC   C3B57405  44.676  10.233   7.064
 4473POPC   C4B57406  44.637  10.244   7.364
 4474POPC   NC357407  13.628   5.859   5.564
 4474POPC   PO457408  13.579   5.872   5.864
 4474POPC   GL157409  13.670   5.863   6.164
 4474POPC   GL257410  13.660   6.043   6.164
 4474POPC   C1A57411  13.650   5.917   6.464
 4474POPC   D2A57412  13.632   5.865   6.764
 4474POPC   C3A57413  13.611   5.904   7.064
 4474POPC   C4A57414  13.594   5.847   7.364
 4474POPC   C1B57415  13.568   6.070   6.464
 4474POPC   C2B57416  13.638   6.128   6.764
 4474POPC   C3B57417  13.565   6.107   7.064
 4474POPC   C4B57418  13.605   6.086   7.364
 4475POPC   NC357419  36.953  33.010   5.564
 4475POPC   PO457420  36.887  33.068   5.864
 4475POPC   GL157421  36.918  32.991   6.164
 4475POPC   GL257422  37.054  33.097   6.164
 4475POPC   C1A57423  36.943  33.027   6.464
 4475POPC   D2A57424  36.930  33.015   6.764
 4475POPC   C3A57425  36.889  33.035   7.064
 4475POPC   C4A57426  36.871  33.053   7.364
 4475POPC   C1B57427  37.157  33.130   6.464
 4475POPC   C2B57428  37.104  33.164   6.764
 4475POPC   C3B57429  37.140  33.131   7.064
 4475POPC   C4B57430  37.122  33.166   7.364
 4476POPC   NC357431  39.248  29.097   5.564
 4476POPC   PO457432  39.264  29.117   5.864
 4476POPC   GL157433  39.188  29.119   6.164
 4476POPC   GL257434  39.197  29.238   6.164
 4476POPC   C1A57435  39.190  29.195   6.464
 4476POPC   D2A57436  39.235  29.116   6.764
 4476POPC   C3A57437  39.228  29.114   7.064
 4476POPC   C4A57438  39.279  29.175   7.364
 4476POPC   C1B57439  39.146  29.344   6.464
 4476POPC   C2B57440  39.175  29.343   6.764
 4476POPC   C3B57441  39.189  29.432   7.064
 4476POPC   C4B57442  39.215  29.382   7.364
 4477POPC   NC357443  33.788   5.851   5.564
 4477POPC   PO457444  33.758   5.849   5.864
 4477POPC   GL157445  33.819   5.826   6.164
 4477POPC   GL257446  33.836   5.787   6.164
 4477POPC   C1A57447  33.795   5.891   6.464
 4477POPC   D2A57448  33.792   5.874   6.764
 4477POPC   C3A57449  33.822   5.916   7.064
 4477POPC   C4A57450  33.848   5.822   7.364
 4477POPC   C1B57451  33.884   5.642   6.464
 4477POPC   C2B57452  33.907   5.608   6.764
 4477POPC   C3B57453  33.910   5.626   7.064
 4477POPC   C4B57454  33.858   5.672   7.364
 4478POPC   NC357455  33.802  38.439   5.564
 4478POPC   PO457456  33.844  38.426   5.864
 4478POPC   GL157457  33.819  38.459   6.164
 4478POPC   GL257458  33.926  38.325   6.164
 4478POPC   C1A57459  33.752  38.462   6.464
 4478POPC   D2A57460  33.795  38.476   6.764
 4478POPC   C3A57461  33.840  38.455   7.064
 4478POPC   C4A57462  33.773  38.406   7.364
 4478POPC   C1B57463  34.010  38.251   6.464
 4478POPC   C2B57464  33.933  38.298   6.764
 4478POPC   C3B57465  33.967  38.309   7.064
 4478POPC   C4B57466  33.985  38.262   7.364
 4479POPC   NC357467  32.210   9.017   5.564
 4479POPC   PO457468  32.278   8.975   5.864
 4479POPC   GL157469  32.280   8.983   6.164
 4479POPC   GL257470  32.328   9.039   6.164
 4479POPC   C1A57471  32.275   9.009   6.464
 4479POPC   D2A57472  32.217   8.938   6.764
 4479POPC   C3A57473  32.292   8.940   7.064
 4479POPC   C4A57474  32.237   9.009   7.364
 4479POPC   C1B57475  32.308   9.213   6.464
 4479POPC   C2B57476  32.315   9.199   6.764
 4479POPC   C3B57477  32.338   9.180   7.064
 4479POPC   C4B57478  32.380   9.240   7.364
 4480POPC   NC357479  28.399  39.268   5.564
 4480POPC   PO457480  28.336  39.188   5.864
 4480POPC   GL157481  28.390  39.192   6.164
 4480POPC   GL257482  28.462  39.141   6.164
 4480POPC   C1A57483  28.374  39.242   6.464
 4480POPC   D2A57484  28.408  39.256   6.764
 4480POPC   C3A57485  28.349  39.185   7.064
 4480POPC   C4A57486  28.319  39.205   7.364
 4480POPC   C1B57487  28.477  39.030   6.464
 4480POPC   C2B57488  28.474  39.002   6.764
 4480POPC   C3B57489  28.518  38.997   7.064
 4480POPC   C4B57490  28.492  39.047   7.364
 4481POPC   NC357491  43.154  22.982   5.564
 4481POPC   PO457492  43.126  22.955   5.864
 4481POPC   GL157493  43.112  22.948   6.164
 4481POPC   GL257494  43.275  22.949   6.164
 4481POPC   C1A57495  43.145  22.937   6.464
 4481POPC   D2A57496  43.135  22.909   6.764
 4481POPC   C3A57497  43.095  22.952   7.064
 4481POPC   C4A57498  43.116  22.978   7.364
 4481POPC   C1B57499  43.348  23.042   6.464
 4481POPC   C2B57500  43.328  23.010   6.764
 4481POPC   C3B57501  43.307  23.022   7.064
 4481POPC   C4B57502  43.311  23.002   7.364
 4482POPC   NC357503   6.678  15.208   5.564
 4482POPC   PO457504   6.627  15.211   5.864
 4482POPC   GL157505   6.642  15.196   6.164
 4482POPC   GL257506   6.581  15.037   6.164
 4482POPC   C1A57507   6.647  15.224   6.464
 4482POPC   D2A57508   6.599  15.199   6.764
 4482POPC   C3A57509   6.641  15.182   7.064
 4482POPC   C4A57510   6.619  15.133   7.364
 4482POPC   C1B57511   6.465  14.948   6.464
 4482POPC   C2B57512   6.481  14.924   6.764
 4482POPC   C3B57513   6.528  14.949   7.064
 4482POPC   C4B57514   6.550  14.939   7.364
 4483POPC   NC357515  25.264  19.790   5.564
 4483POPC   PO457516  25.266  19.862   5.864
 4483POPC   GL157517  25.264  19.869   6.164
 4483POPC   GL257518  25.295  19.975   6.164
 4483POPC   C1A57519  25.244  19.827   6.464
 4483POPC   D2A57520  25.261  19.792   6.764
 4483POPC   C3A57521  25.219  19.838   7.064
 4483POPC   C4A57522  25.222  19.883   7.364
 4483POPC   C1B57523  25.266  20.094   6.464
 4483POPC   C2B57524  25.276  20.124   6.764
 4483POPC   C3B57525  25.281  20.096   7.064
 4483POPC   C4B57526  25.210  20.046   7.364
 4484POPC   NC357527  39.248  12.027   5.564
 4484POPC   PO457528  39.263  12.084   5.864
 4484POPC   GL157529  39.194  12.051   6.164
 4484POPC   GL257530  39.325  12.222   6.164
 4484POPC   C1A57531  39.260  12.124   6.464
 4484POPC   D2A57532  39.182  12.115   6.764
 4484POPC   C3A57533  39.189  12.120   7.064
 4484POPC   C4A57534  39.184  12.059   7.364
 4484POPC   C1B57535  39.377  12.271   6.464
 4484POPC   C2B57536  39.425  12.251   6.764
 4484POPC   C3B57537  39.408  12.229   7.064
 4484POPC   C4B57538  39.357  12.272   7.364
 4485POPC   NC357539  26.864  23.746   5.564
 4485POPC   PO457540  26.801  23.710   5.864
 4485POPC   GL157541  26.803  23.725   6.164
 4485POPC   GL257542  26.955  23.752   6.164
 4485POPC   C1A57543  26.786  23.681   6.464
 4485POPC   D2A57544  26.817  23.670   6.764
 4485POPC   C3A57545  26.781  23.709   7.064
 4485POPC   C4A57546  26.840  23.729   7.364
 4485POPC   C1B57547  27.067  23.744   6.464
 4485POPC   C2B57548  27.100  23.780   6.764
 4485POPC   C3B57549  27.075  23.703   7.064
 4485POPC   C4B57550  27.096  23.785   7.364
 4486POPC   NC357551  12.079   5.132   5.564
 4486POPC   PO457552  12.101   5.061   5.864
 4486POPC   GL157553  12.065   5.108   6.164
 4486POPC   GL257554  12.205   5.033   6.164
 4486POPC   C1A57555  12.099   5.078   6.464
 4486POPC   D2A57556  12.039   5.070   6.764
 4486POPC   C3A57557  12.068   5.045   7.064
 4486POPC   C4A57558  12.072   5.062   7.364
 4486POPC   C1B57559  12.298   5.004   6.464
 4486POPC   C2B57560  12.268   5.011   6.764
 4486POPC   C3B57561  12.318   4.962   7.064
 4486POPC   C4B57562  12.259   4.943   7.364
 4487POPC   NC357563  12.036  42.376   5.564
 4487POPC   PO457564  12.033  42.307   5.864
 4487POPC   GL157565  12.110  42.384   6.164
 4487POPC   GL257566  12.047  42.192   6.164
 4487POPC   C1A57567  12.091  42.296   6.464
 4487POPC   D2A57568  12.083  42.374   6.764
 4487POPC   C3A57569  12.082  42.328   7.064
 4487POPC   C4A57570  12.072  42.310   7.364
 4487POPC   C1B57571  11.957  42.093   6.464
 4487POPC   C2B57572  11.939  42.106   6.764
 4487POPC   C3B57573  11.960  42.061   7.064
 4487POPC   C4B57574  11.960  42.123   7.364
 4488POPC   NC357575  12.033  34.533   5.564
 4488POPC   PO457576  12.070  34.591   5.864
 4488POPC   GL157577  12.125  34.587   6.164
 4488POPC   GL257578  12.227  34.596   6.164
 4488POPC   C1A57579  12.045  34.575   6.464
 4488POPC   D2A57580  12.101  34.531   6.764
 4488POPC   C3A57581  12.065  34.555   7.064
 4488POPC   C4A57582  12.086  34.543   7.364
 4488POPC   C1B57583  12.295  34.580   6.464
 4488POPC   C2B57584  12.335  34.576   6.764
 4488POPC   C3B57585  12.289  34.560   7.064
 4488POPC   C4B57586  12.351  34.506   7.364
 4489POPC   NC357587   5.880  21.429   5.564
 4489POPC   PO457588   5.907  21.400   5.864
 4489POPC   GL157589   5.898  21.364   6.164
 4489POPC   GL257590   5.891  21.279   6.164
 4489POPC   C1A57591   5.896  21.420   6.464
 4489POPC   D2A57592   5.919  21.358   6.764
 4489POPC   C3A57593   5.857  21.420   7.064
 4489POPC   C4A57594   5.868  21.417   7.364
 4489POPC   C1B57595   5.938  21.192   6.464
 4489POPC   C2B57596   5.980  21.215   6.764
 4489POPC   C3B57597   6.022  21.151   7.064
 4489POPC   C4B57598   6.016  21.157   7.364
 4490POPC   NC357599   7.384  18.302   5.564
 4490POPC   PO457600   7.455  18.293   5.864
 4490POPC   GL157601   7.443  18.319   6.164
 4490POPC   GL257602   7.312  18.283   6.164
 4490POPC   C1A57603   7.416  18.248   6.464
 4490POPC   D2A57604   7.398  18.301   6.764
 4490POPC   C3A57605   7.408  18.316   7.064
 4490POPC   C4A57606   7.437  18.323   7.364
 4490POPC   C1B57607   7.189  18.337   6.464
 4490POPC   C2B57608   7.212  18.309   6.764
 4490POPC   C3B57609   7.219  18.277   7.064
 4490POPC   C4B57610   7.169  18.309   7.364
 4491POPC   NC357611  25.285  38.462   5.564
 4491POPC   PO457612  25.281  38.409   5.864
 4491POPC   GL157613  25.279  38.418   6.164
 4491POPC   GL257614  25.227  38.352   6.164
 4491POPC   C1A57615  25.290  38.427   6.464
 4491POPC   D2A57616  25.241  38.410   6.764
 4491POPC   C3A57617  25.217  38.455   7.064
 4491POPC   C4A57618  25.241  38.466   7.364
 4491POPC   C1B57619  25.268  38.221   6.464
 4491POPC   C2B57620  25.279  38.187   6.764
 4491POPC   C3B57621  25.219  38.164   7.064
 4491POPC   C4B57622  25.283  38.176   7.364
 4492POPC   NC357623  29.144  15.197   5.564
 4492POPC   PO457624  29.133  15.195   5.864
 4492POPC   GL157625  29.096  15.213   6.164
 4492POPC   GL257626  29.213  15.102   6.164
 4492POPC   C1A57627  29.154  15.138   6.464
 4492POPC   D2A57628  29.135  15.221   6.764
 4492POPC   C3A57629  29.100  15.209   7.064
 4492POPC   C4A57630  29.183  15.135   7.364
 4492POPC   C1B57631  29.236  14.948   6.464
 4492POPC   C2B57632  29.289  14.959   6.764
 4492POPC   C3B57633  29.200  14.941   7.064
 4492POPC   C4B57634  29.263  14.939   7.364
 4493POPC   NC357635  43.902  10.532   5.564
 4493POPC   PO457636  43.864  10.503   5.864
 4493POPC   GL157637  43.884  10.530   6.164
 4493POPC   GL257638  43.823  10.475   6.164
 4493POPC   C1A57639  43.879  10.513   6.464
 4493POPC   D2A57640  43.889  10.539   6.764
 4493POPC   C3A57641  43.935  10.557   7.064
 4493POPC   C4A57642  43.921  10.519   7.364
 4493POPC   C1B57643  43.690  10.364   6.464
 4493POPC   C2B57644  43.721  10.348   6.764
 4493POPC   C3B57645  43.776  10.340   7.064
 4493POPC   C4B57646  43.736  10.294   7.364
 4494POPC   NC357647  14.426  14.388   5.564
 4494POPC   PO457648  14.447  14.443   5.864
 4494POPC   GL157649  14.422  14.448   6.164
 4494POPC   GL257650  14.306  14.314   6.164
 4494POPC   C1A57651  14.370  14.360   6.464
 4494POPC   D2A57652  14.358  14.396   6.764
 4494POPC   C3A57653  14.446  14.431   7.064
 4494POPC   C4A57654  14.435  14.381   7.364
 4494POPC   C1B57655  14.293  14.180   6.464
 4494POPC   C2B57656  14.206  14.215   6.764
 4494POPC   C3B57657  14.222  14.183   7.064
 4494POPC   C4B57658  14.243  14.210   7.364
 4495POPC   NC357659  39.999  40.010   5.564
 4495POPC   PO457660  39.967  40.026   5.864
 4495POPC   GL157661  40.042  40.017   6.164
 4495POPC   GL257662  40.086  39.918   6.164
 4495POPC   C1A57663  40.043  40.012   6.464
 4495POPC   D2A57664  39.970  40.025   6.764
 4495POPC   C3A57665  40.012  40.039   7.064
 4495POPC   C4A57666  39.957  39.974   7.364
 4495POPC   C1B57667  40.228  39.932   6.464
 4495POPC   C2B57668  40.289  39.969   6.764
 4495POPC   C3B57669  40.275  39.925   7.064
 4495POPC   C4B57670  40.235  39.950   7.364
 4496POPC   NC357671  15.217   6.609   5.564
 4496POPC   PO457672  15.153   6.636   5.864
 4496POPC   GL157673  15.225   6.598   6.164
 4496POPC   GL257674  15.182   6.567   6.164
 4496POPC   C1A57675  15.159   6.619   6.464
 4496POPC   D2A57676  15.188   6.602   6.764
 4496POPC   C3A57677  15.154   6.651   7.064
 4496POPC   C4A57678  15.132   6.611   7.364
 4496POPC   C1B57679  15.201   6.443   6.464
 4496POPC   C2B57680  15.217   6.388   6.764
 4496POPC   C3B57681  15.232   6.442   7.064
 4496POPC   C4B57682  15.218   6.394   7.364
 4497POPC   NC357683  38.417  15.218   5.564
 4497POPC   PO457684  38.439  15.201   5.864
 4497POPC   GL157685  38.442  15.191   6.164
 4497POPC   GL257686  38.356  15.212   6.164
 4497POPC   C1A57687  38.467  15.184   6.464
 4497POPC   D2A57688  38.480  15.229   6.764
 4497POPC   C3A57689  38.450  15.179   7.064
 4497POPC   C4A57690  38.498  15.210   7.364
 4497POPC   C1B57691  38.280  15.291   6.464
 4497POPC   C2B57692  38.203  15.358   6.764
 4497POPC   C3B57693  38.213  15.301   7.064
 4497POPC   C4B57694  38.275  15.318   7.364
 4498POPC   NC357695  12.034  31.440   5.564
 4498POPC   PO457696  12.030  31.430   5.864
 4498POPC   GL157697  12.054  31.493   6.164
 4498POPC   GL257698  12.032  31.615   6.164
 4498POPC   C1A57699  12.071  31.433   6.464
 4498POPC   D2A57700  12.030  31.469   6.764
 4498POPC   C3A57701  12.036  31.512   7.064
 4498POPC   C4A57702  12.084  31.476   7.364
 4498POPC   C1B57703  12.034  31.681   6.464
 4498POPC   C2B57704  12.050  31.732   6.764
 4498POPC   C3B57705  12.008  31.697   7.064
 4498POPC   C4B57706  12.079  31.740   7.364
 4499POPC   NC357707  36.936  44.696   5.564
 4499POPC   PO457708  36.860  44.614   5.864
 4499POPC   GL157709  36.897  44.661   6.164
 4499POPC   GL257710  36.804  44.614   6.164
 4499POPC   C1A57711  36.937  44.671   6.464
 4499POPC   D2A57712  36.862  44.615   6.764
 4499POPC   C3A57713  36.875  44.668   7.064
 4499POPC   C4A57714  36.947  44.671   7.364
 4499POPC   C1B57715  36.702  44.497   6.464
 4499POPC   C2B57716  36.700  44.428   6.764
 4499POPC   C3B57717  36.707  44.522   7.064
 4499POPC   C4B57718  36.734  44.469   7.364
 4500POPC   NC357719   6.694  22.158   5.564
 4500POPC   PO457720   6.695  22.207   5.864
 4500POPC   GL157721   6.599  22.172   6.164
 4500POPC   GL257722   6.685  22.271   6.164
 4500POPC   C1A57723   6.686  22.133   6.464
 4500POPC   D2A57724   6.635  22.199   6.764
 4500POPC   C3A57725   6.689  22.180   7.064
 4500POPC   C4A57726   6.640  22.162   7.364
 4500POPC   C1B57727   6.787  22.358   6.464
 4500POPC   C2B57728   6.745  22.351   6.764
 4500POPC   C3B57729   6.755  22.375   7.064
 4500POPC   C4B57730   6.785  22.430   7.364
 4501POPC   NC357731  43.875  12.099   5.564
 4501POPC   PO457732  43.889  12.041   5.864
 4501POPC   GL157733  43.876  12.037   6.164
 4501POPC   GL257734  44.041  12.138   6.164
 4501POPC   C1A57735  43.903  12.070   6.464
 4501POPC   D2A57736  43.884  12.050   6.764
 4501POPC   C3A57737  43.917  12.099   7.064
 4501POPC   C4A57738  43.935  12.074   7.364
 4501POPC   C1B57739  44.142  12.213   6.464
 4501POPC   C2B57740  44.100  12.203   6.764
 4501POPC   C3B57741  44.083  12.120   7.064
 4501POPC   C4B57742  44.130  12.136   7.364
 4502POPC   NC357743  30.714   6.609   5.564
 4502POPC   PO457744  30.699   6.604   5.864
 4502POPC   GL157745  30.689   6.618   6.164
 4502POPC   GL257746  30.800   6.550   6.164
 4502POPC   C1A57747  30.732   6.663   6.464
 4502POPC   D2A57748  30.726   6.690   6.764
 4502POPC   C3A57749  30.728   6.620   7.064
 4502POPC   C4A57750  30.707   6.655   7.364
 4502POPC   C1B57751  30.827   6.385   6.464
 4502POPC   C2B57752  30.816   6.409   6.764
 4502POPC   C3B57753  30.853   6.412   7.064
 4502POPC   C4B57754  30.809   6.414   7.364
 4503POPC   NC357755  35.305   2.807   5.564
 4503POPC   PO457756  35.303   2.800   5.864
 4503POPC   GL157757  35.380   2.813   6.164
 4503POPC   GL257758  35.412   2.806   6.164
 4503POPC   C1A57759  35.360   2.726   6.464
 4503POPC   D2A57760  35.337   2.781   6.764
 4503POPC   C3A57761  35.398   2.727   7.064
 4503POPC   C4A57762  35.381   2.758   7.364
 4503POPC   C1B57763  35.487   2.910   6.464
 4503POPC   C2B57764  35.510   2.954   6.764
 4503POPC   C3B57765  35.535   2.919   7.064
 4503POPC   C4B57766  35.524   2.971   7.364
 4504POPC   NC357767  35.335  11.263   5.564
 4504POPC   PO457768  35.304  11.276   5.864
 4504POPC   GL157769  35.313  11.333   6.164
 4504POPC   GL257770  35.260  11.401   6.164
 4504POPC   C1A57771  35.314  11.293   6.464
 4504POPC   D2A57772  35.380  11.303   6.764
 4504POPC   C3A57773  35.312  11.345   7.064
 4504POPC   C4A57774  35.335  11.273   7.364
 4504POPC   C1B57775  35.123  11.391   6.464
 4504POPC   C2B57776  35.153  11.409   6.764
 4504POPC   C3B57777  35.149  11.371   7.064
 4504POPC   C4B57778  35.133  11.443   7.364
 4505POPC   NC357779   9.747  23.677   5.564
 4505POPC   PO457780   9.725  23.743   5.864
 4505POPC   GL157781   9.758  23.689   6.164
 4505POPC   GL257782   9.681  23.572   6.164
 4505POPC   C1A57783   9.732  23.730   6.464
 4505POPC   D2A57784   9.776  23.667   6.764
 4505POPC   C3A57785   9.778  23.709   7.064
 4505POPC   C4A57786   9.701  23.760   7.364
 4505POPC   C1B57787   9.700  23.439   6.464
 4505POPC   C2B57788   9.635  23.507   6.764
 4505POPC   C3B57789   9.642  23.448   7.064
 4505POPC   C4B57790   9.698  23.434   7.364
 4506POPC   NC357791  31.448  17.470   5.564
 4506POPC   PO457792  31.481  17.497   5.864
 4506POPC   GL157793  31.464  17.459   6.164
 4506POPC   GL257794  31.487  17.369   6.164
 4506POPC   C1A57795  31.482  17.525   6.464
 4506POPC   D2A57796  31.486  17.540   6.764
 4506POPC   C3A57797  31.471  17.486   7.064
 4506POPC   C4A57798  31.444  17.500   7.364
 4506POPC   C1B57799  31.513  17.215   6.464
 4506POPC   C2B57800  31.542  17.269   6.764
 4506POPC   C3B57801  31.508  17.284   7.064
 4506POPC   C4B57802  31.528  17.289   7.364
 4507POPC   NC357803  26.831  29.886   5.564
 4507POPC   PO457804  26.812  29.910   5.864
 4507POPC   GL157805  26.773  29.961   6.164
 4507POPC   GL257806  26.856  29.799   6.164
 4507POPC   C1A57807  26.770  29.952   6.464
 4507POPC   D2A57808  26.796  29.905   6.764
 4507POPC   C3A57809  26.772  29.925   7.064
 4507POPC   C4A57810  26.797  29.900   7.364
 4507POPC   C1B57811  26.873  29.723   6.464
 4507POPC   C2B57812  26.916  29.727   6.764
 4507POPC   C3B57813  26.873  29.677   7.064
 4507POPC   C4B57814  26.956  29.663   7.364
 4508POPC   NC357815  37.658   4.337   5.564
 4508POPC   PO457816  37.645   4.295   5.864
 4508POPC   GL157817  37.689   4.275   6.164
 4508POPC   GL257818  37.613   4.388   6.164
 4508POPC   C1A57819  37.663   4.287   6.464
 4508POPC   D2A57820  37.728   4.267   6.764
 4508POPC   C3A57821  37.669   4.322   7.064
 4508POPC   C4A57822  37.647   4.337   7.364
 4508POPC   C1B57823  37.473   4.420   6.464
 4508POPC   C2B57824  37.455   4.457   6.764
 4508POPC   C3B57825  37.502   4.380   7.064
 4508POPC   C4B57826  37.423   4.464   7.364
 4509POPC   NC357827  20.597   8.174   5.564
 4509POPC   PO457828  20.600   8.204   5.864
 4509POPC   GL157829  20.565   8.243   6.164
 4509POPC   GL257830  20.543   8.163   6.164
 4509POPC   C1A57831  20.622   8.209   6.464
 4509POPC   D2A57832  20.635   8.226   6.764
 4509POPC   C3A57833  20.616   8.230   7.064
 4509POPC   C4A57834  20.627   8.176   7.364
 4509POPC   C1B57835  20.424   8.091   6.464
 4509POPC   C2B57836  20.437   8.106   6.764
 4509POPC   C3B57837  20.395   8.057   7.064
 4509POPC   C4B57838  20.427   8.081   7.364
 4510POPC   NC357839   1.207  27.574   5.564
 4510POPC   PO457840   1.197  27.562   5.864
 4510POPC   GL157841   1.236  27.560   6.164
 4510POPC   GL257842   1.100  27.568   6.164
 4510POPC   C1A57843   1.189  27.637   6.464
 4510POPC   D2A57844   1.205  27.583   6.764
 4510POPC   C3A57845   1.178  27.606   7.064
 4510POPC   C4A57846   1.199  27.617   7.364
 4510POPC   C1B57847   0.961  27.614   6.464
 4510POPC   C2B57848   0.983  27.563   6.764
 4510POPC   C3B57849   1.011  27.637   7.064
 4510POPC   C4B57850   0.971  27.553   7.364
 4511POPC   NC357851  12.891   0.469   5.564
 4511POPC   PO457852  12.814   0.419   5.864
 4511POPC   GL157853  12.851   0.429   6.164
 4511POPC   GL257854  12.930   0.316   6.164
 4511POPC   C1A57855  12.862   0.472   6.464
 4511POPC   D2A57856  12.803   0.401   6.764
 4511POPC   C3A57857  12.853   0.427   7.064
 4511POPC   C4A57858  12.872   0.396   7.364
 4511POPC   C1B57859  13.055   0.313   6.464
 4511POPC   C2B57860  13.005   0.312   6.764
 4511POPC   C3B57861  13.043   0.321   7.064
 4511POPC   C4B57862  13.021   0.303   7.364
 4512POPC   NC357863  12.083  22.926   5.564
 4512POPC   PO457864  12.039  22.973   5.864
 4512POPC   GL157865  12.048  22.964   6.164
 4512POPC   GL257866  12.222  22.882   6.164
 4512POPC   C1A57867  12.056  22.956   6.464
 4512POPC   D2A57868  12.048  22.963   6.764
 4512POPC   C3A57869  12.077  22.955   7.064
 4512POPC   C4A57870  12.081  22.973   7.364
 4512POPC   C1B57871  12.261  22.763   6.464
 4512POPC   C2B57872  12.301  22.751   6.764
 4512POPC   C3B57873  12.237  22.763   7.064
 4512POPC   C4B57874  12.275  22.836   7.364
 4513POPC   NC357875   1.182  18.284   5.564
 4513POPC   PO457876   1.167  18.287   5.864
 4513POPC   GL157877   1.223  18.316   6.164
 4513POPC   GL257878   1.071  18.341   6.164
 4513POPC   C1A57879   1.196  18.300   6.464
 4513POPC   D2A57880   1.170  18.260   6.764
 4513POPC   C3A57881   1.253  18.304   7.064
 4513POPC   C4A57882   1.244  18.310   7.364
 4513POPC   C1B57883   1.030  18.430   6.464
 4513POPC   C2B57884   1.008  18.419   6.764
 4513POPC   C3B57885   1.019  18.386   7.064
 4513POPC   C4B57886   0.966  18.442   7.364
 4514POPC   NC357887  30.738   1.244   5.564
 4514POPC   PO457888  30.701   1.197   5.864
 4514POPC   GL157889  30.710   1.247   6.164
 4514POPC   GL257890  30.667   1.353   6.164
 4514POPC   C1A57891  30.682   1.229   6.464
 4514POPC   D2A57892  30.719   1.237   6.764
 4514POPC   C3A57893  30.704   1.249   7.064
 4514POPC   C4A57894  30.698   1.212   7.364
 4514POPC   C1B57895  30.636   1.493   6.464
 4514POPC   C2B57896  30.635   1.467   6.764
 4514POPC   C3B57897  30.613   1.450   7.064
 4514POPC   C4B57898  30.643   1.468   7.364
 4515POPC   NC357899  33.807  10.535   5.564
 4515POPC   PO457900  33.774  10.547   5.864
 4515POPC   GL157901  33.846  10.515   6.164
 4515POPC   GL257902  33.683  10.594   6.164
 4515POPC   C1A57903  33.785  10.512   6.464
 4515POPC   D2A57904  33.763  10.539   6.764
 4515POPC   C3A57905  33.752  10.552   7.064
 4515POPC   C4A57906  33.764  10.546   7.364
 4515POPC   C1B57907  33.543  10.646   6.464
 4515POPC   C2B57908  33.557  10.610   6.764
 4515POPC   C3B57909  33.606  10.608   7.064
 4515POPC   C4B57910  33.582  10.658   7.364
 4516POPC   NC357911  16.706  34.593   5.564
 4516POPC   PO457912  16.716  34.530   5.864
 4516POPC   GL157913  16.682  34.532   6.164
 4516POPC   GL257914  16.641  34.517   6.164
 4516POPC   C1A57915  16.708  34.588   6.464
 4516POPC   D2A57916  16.696  34.600   6.764
 4516POPC   C3A57917  16.701  34.575   7.064
 4516POPC   C4A57918  16.730  34.616   7.364
 4516POPC   C1B57919  16.476  34.492   6.464
 4516POPC   C2B57920  16.486  34.488   6.764
 4516POPC   C3B57921  16.491  34.472   7.064
 4516POPC   C4B57922  16.527  34.509   7.364
 4517POPC   NC357923   9.702  35.368   5.564
 4517POPC   PO457924   9.776  35.367   5.864
 4517POPC   GL157925   9.719  35.373   6.164
 4517POPC   GL257926   9.829  35.391   6.164
 4517POPC   C1A57927   9.743  35.339   6.464
 4517POPC   D2A57928   9.764  35.320   6.764
 4517POPC   C3A57929   9.784  35.350   7.064
 4517POPC   C4A57930   9.789  35.345   7.364
 4517POPC   C1B57931   9.958  35.408   6.464
 4517POPC   C2B57932   9.981  35.349   6.764
 4517POPC   C3B57933   9.975  35.387   7.064
 4517POPC   C4B57934   9.953  35.348   7.364
 4518POPC   NC357935  11.276  34.623   5.564
 4518POPC   PO457936  11.319  34.545   5.864
 4518POPC   GL157937  11.252  34.619   6.164
 4518POPC   GL257938  11.411  34.712   6.164
 4518POPC   C1A57939  11.263  34.543   6.464
 4518POPC   D2A57940  11.319  34.558   6.764
 4518POPC   C3A57941  11.270  34.569   7.064
 4518POPC   C4A57942  11.258  34.582   7.364
 4518POPC   C1B57943  11.508  34.756   6.464
 4518POPC   C2B57944  11.480  34.761   6.764
 4518POPC   C3B57945  11.472  34.753   7.064
 4518POPC   C4B57946  11.459  34.724   7.364
 4519POPC   NC357947   1.942  34.542   5.564
 4519POPC   PO457948   2.015  34.527   5.864
 4519POPC   GL157949   1.973  34.595   6.164
 4519POPC   GL257950   2.063  34.434   6.164
 4519POPC   C1A57951   2.021  34.564   6.464
 4519POPC   D2A57952   2.036  34.602   6.764
 4519POPC   C3A57953   1.958  34.558   7.064
 4519POPC   C4A57954   1.942  34.588   7.364
 4519POPC   C1B57955   2.163  34.394   6.464
 4519POPC   C2B57956   2.119  34.428   6.764
 4519POPC   C3B57957   2.201  34.342   7.064
 4519POPC   C4B57958   2.189  34.405   7.364
 4520POPC   NC357959   5.887  12.877   5.564
 4520POPC   PO457960   5.828  12.841   5.864
 4520POPC   GL157961   5.837  12.863   6.164
 4520POPC   GL257962   5.957  12.882   6.164
 4520POPC   C1A57963   5.852  12.863   6.464
 4520POPC   D2A57964   5.830  12.871   6.764
 4520POPC   C3A57965   5.856  12.822   7.064
 4520POPC   C4A57966   5.830  12.838   7.364
 4520POPC   C1B57967   6.040  12.962   6.464
 4520POPC   C2B57968   6.123  13.020   6.764
 4520POPC   C3B57969   6.077  13.037   7.064
 4520POPC   C4B57970   6.034  12.964   7.364
 4521POPC   NC357971  22.923   0.468   5.564
 4521POPC   PO457972  22.951   0.485   5.864
 4521POPC   GL157973  22.958   0.432   6.164
 4521POPC   GL257974  23.017   0.346   6.164
 4521POPC   C1A57975  22.964   0.390   6.464
 4521POPC   D2A57976  22.907   0.404   6.764
 4521POPC   C3A57977  22.933   0.431   7.064
 4521POPC   C4A57978  22.952   0.420   7.364
 4521POPC   C1B57979  23.146   0.311   6.464
 4521POPC   C2B57980  23.137   0.323   6.764
 4521POPC   C3B57981  23.089   0.280   7.064
 4521POPC   C4B57982  23.090   0.236   7.364
 4522POPC   NC357983  35.392  24.455   5.564
 4522POPC   PO457984  35.354  24.458   5.864
 4522POPC   GL157985  35.338  24.519   6.164
 4522POPC   GL257986  35.206  24.547   6.164
 4522POPC   C1A57987  35.339  24.472   6.464
 4522POPC   D2A57988  35.319  24.533   6.764
 4522POPC   C3A57989  35.358  24.489   7.064
 4522POPC   C4A57990  35.381  24.449   7.364
 4522POPC   C1B57991  35.140  24.572   6.464
 4522POPC   C2B57992  35.105  24.594   6.764
 4522POPC   C3B57993  35.088  24.524   7.064
 4522POPC   C4B57994  35.147  24.593   7.364
 4523POPC   NC357995  28.408  29.156   5.564
 4523POPC   PO457996  28.345  29.165   5.864
 4523POPC   GL157997  28.393  29.139   6.164
 4523POPC   GL257998  28.415  29.278   6.164
 4523POPC   C1A57999  28.395  29.163   6.464
 4523POPC   D2A58000  28.397  29.182   6.764
 4523POPC   C3A58001  28.327  29.161   7.064
 4523POPC   C4A58002  28.346  29.131   7.364
 4523POPC   C1B58003  28.434  29.362   6.464
 4523POPC   C2B58004  28.434  29.419   6.764
 4523POPC   C3B58005  28.473  29.330   7.064
 4523POPC   C4B58006  28.441  29.413   7.364
 4524POPC   NC358007  31.424  20.569   5.564
 4524POPC   PO458008  31.504  20.631   5.864
 4524POPC   GL158009  31.424  20.581   6.164
 4524POPC   GL258010  31.578  20.478   6.164
 4524POPC   C1A58011  31.444  20.615   6.464
 4524POPC   D2A58012  31.514  20.631   6.764
 4524POPC   C3A58013  31.487  20.577   7.064
 4524POPC   C4A58014  31.489  20.568   7.364
 4524POPC   C1B58015  31.608  20.382   6.464
 4524POPC   C2B58016  31.611  20.444   6.764
 4524POPC   C3B58017  31.667  20.455   7.064
 4524POPC   C4B58018  31.589  20.443   7.364
 4525POPC   NC358019  19.843  36.106   5.564
 4525POPC   PO458020  19.834  36.137   5.864
 4525POPC   GL158021  19.799  36.174   6.164
 4525POPC   GL258022  19.983  36.064   6.164
 4525POPC   C1A58023  19.869  36.122   6.464
 4525POPC   D2A58024  19.858  36.080   6.764
 4525POPC   C3A58025  19.828  36.095   7.064
 4525POPC   C4A58026  19.848  36.096   7.364
 4525POPC   C1B58027  20.036  36.092   6.464
 4525POPC   C2B58028  20.129  36.108   6.764
 4525POPC   C3B58029  20.108  36.093   7.064
 4525POPC   C4B58030  20.041  36.079   7.364
 4526POPC   NC358031  25.258  44.665   5.564
 4526POPC   PO458032  25.288  44.673   5.864
 4526POPC   GL158033  25.244  44.705   6.164
 4526POPC   GL258034  25.221  44.791   6.164
 4526POPC   C1A58035  25.297  44.665   6.464
 4526POPC   D2A58036  25.263  44.685   6.764
 4526POPC   C3A58037  25.286  44.653   7.064
 4526POPC   C4A58038  25.309  44.697   7.364
 4526POPC   C1B58039  25.182  44.905   6.464
 4526POPC   C2B58040  25.198  44.878   6.764
 4526POPC   C3B58041  25.220  44.918   7.064
 4526POPC   C4B58042  25.169  44.922   7.364
 4527POPC   NC358043  11.334  32.263   5.564
 4527POPC   PO458044  11.298  32.276   5.864
 4527POPC   GL158045  11.263  32.287   6.164
 4527POPC   GL258046  11.162  32.239   6.164
 4527POPC   C1A58047  11.261  32.205   6.464
 4527POPC   D2A58048  11.316  32.262   6.764
 4527POPC   C3A58049  11.326  32.290   7.064
 4527POPC   C4A58050  11.285  32.231   7.364
 4527POPC   C1B58051  11.003  32.214   6.464
 4527POPC   C2B58052  11.005  32.255   6.764
 4527POPC   C3B58053  11.035  32.217   7.064
 4527POPC   C4B58054  11.068  32.215   7.364
 4528POPC   NC358055  42.318  14.396   5.564
 4528POPC   PO458056  42.292  14.366   5.864
 4528POPC   GL158057  42.315  14.397   6.164
 4528POPC   GL258058  42.469  14.340   6.164
 4528POPC   C1A58059  42.331  14.366   6.464
 4528POPC   D2A58060  42.344  14.452   6.764
 4528POPC   C3A58061  42.371  14.400   7.064
 4528POPC   C4A58062  42.285  14.366   7.364
 4528POPC   C1B58063  42.525  14.356   6.464
 4528POPC   C2B58064  42.602  14.345   6.764
 4528POPC   C3B58065  42.596  14.266   7.064
 4528POPC   C4B58066  42.602  14.307   7.364
 4529POPC   NC358067  12.070   5.900   5.564
 4529POPC   PO458068  12.105   5.853   5.864
 4529POPC   GL158069  12.107   5.896   6.164
 4529POPC   GL258070  12.172   5.782   6.164
 4529POPC   C1A58071  12.105   5.862   6.464
 4529POPC   D2A58072  12.058   5.910   6.764
 4529POPC   C3A58073  12.095   5.840   7.064
 4529POPC   C4A58074  12.093   5.865   7.364
 4529POPC   C1B58075  12.208   5.687   6.464
 4529POPC   C2B58076  12.261   5.652   6.764
 4529POPC   C3B58077  12.245   5.704   7.064
 4529POPC   C4B58078  12.239   5.710   7.364
 4530POPC   NC358079   8.214  15.172   5.564
 4530POPC   PO458080   8.224  15.168   5.864
 4530POPC   GL158081   8.180  15.155   6.164
 4530POPC   GL258082   8.127  15.153   6.164
 4530POPC   C1A58083   8.164  15.179   6.464
 4530POPC   D2A58084   8.169  15.215   6.764
 4530POPC   C3A58085   8.184  15.182   7.064
 4530POPC   C4A58086   8.183  15.158   7.364
 4530POPC   C1B58087   7.932  15.073   6.464
 4530POPC   C2B58088   7.933  15.099   6.764
 4530POPC   C3B58089   8.019  15.025   7.064
 4530POPC   C4B58090   7.942  15.025   7.364
 4531POPC   NC358091  20.590  41.509   5.564
 4531POPC   PO458092  20.575  41.608   5.864
 4531POPC   GL158093  20.561  41.583   6.164
 4531POPC   GL258094  20.716  41.681   6.164
 4531POPC   C1A58095  20.606  41.570   6.464
 4531POPC   D2A58096  20.570  41.573   6.764
 4531POPC   C3A58097  20.624  41.555   7.064
 4531POPC   C4A58098  20.581  41.570   7.364
 4531POPC   C1B58099  20.750  41.721   6.464
 4531POPC   C2B58100  20.776  41.745   6.764
 4531POPC   C3B58101  20.699  41.774   7.064
 4531POPC   C4B58102  20.783  41.721   7.364
 4532POPC   NC358103  40.758  22.982   5.564
 4532POPC   PO458104  40.802  22.952   5.864
 4532POPC   GL158105  40.736  22.980   6.164
 4532POPC   GL258106  40.670  22.960   6.164
 4532POPC   C1A58107  40.799  22.928   6.464
 4532POPC   D2A58108  40.786  22.979   6.764
 4532POPC   C3A58109  40.831  22.981   7.064
 4532POPC   C4A58110  40.763  22.906   7.364
 4532POPC   C1B58111  40.589  23.099   6.464
 4532POPC   C2B58112  40.529  23.090   6.764
 4532POPC   C3B58113  40.566  23.010   7.064
 4532POPC   C4B58114  40.603  23.101   7.364
 4533POPC   NC358115   3.524  41.560   5.564
 4533POPC   PO458116   3.495  41.564   5.864
 4533POPC   GL158117   3.500  41.567   6.164
 4533POPC   GL258118   3.673  41.585   6.164
 4533POPC   C1A58119   3.525  41.586   6.464
 4533POPC   D2A58120   3.544  41.608   6.764
 4533POPC   C3A58121   3.513  41.565   7.064
 4533POPC   C4A58122   3.551  41.601   7.364
 4533POPC   C1B58123   3.792  41.612   6.464
 4533POPC   C2B58124   3.806  41.647   6.764
 4533POPC   C3B58125   3.756  41.627   7.064
 4533POPC   C4B58126   3.771  41.653   7.364
 4534POPC   NC358127  20.617  15.977   5.564
 4534POPC   PO458128  20.620  15.920   5.864
 4534POPC   GL158129  20.657  15.953   6.164
 4534POPC   GL258130  20.516  15.946   6.164
 4534POPC   C1A58131  20.593  16.000   6.464
 4534POPC   D2A58132  20.610  15.977   6.764
 4534POPC   C3A58133  20.564  15.948   7.064
 4534POPC   C4A58134  20.585  15.938   7.364
 4534POPC   C1B58135  20.364  15.833   6.464
 4534POPC   C2B58136  20.337  15.817   6.764
 4534POPC   C3B58137  20.389  15.879   7.064
 4534POPC   C4B58138  20.395  15.814   7.364
 4535POPC   NC358139  27.611  34.586   5.564
 4535POPC   PO458140  27.624  34.541   5.864
 4535POPC   GL158141  27.561  34.586   6.164
 4535POPC   GL258142  27.484  34.599   6.164
 4535POPC   C1A58143  27.559  34.608   6.464
 4535POPC   D2A58144  27.572  34.544   6.764
 4535POPC   C3A58145  27.633  34.572   7.064
 4535POPC   C4A58146  27.580  34.580   7.364
 4535POPC   C1B58147  27.362  34.562   6.464
 4535POPC   C2B58148  27.391  34.569   6.764
 4535POPC   C3B58149  27.386  34.608   7.064
 4535POPC   C4B58150  27.306  34.571   7.364
 4536POPC   NC358151  11.343   4.305   5.564
 4536POPC   PO458152  11.321   4.359   5.864
 4536POPC   GL158153  11.339   4.324   6.164
 4536POPC   GL258154  11.408   4.352   6.164
 4536POPC   C1A58155  11.329   4.282   6.464
 4536POPC   D2A58156  11.321   4.318   6.764
 4536POPC   C3A58157  11.321   4.312   7.064
 4536POPC   C4A58158  11.266   4.316   7.364
 4536POPC   C1B58159  11.529   4.390   6.464
 4536POPC   C2B58160  11.534   4.452   6.764
 4536POPC   C3B58161  11.566   4.379   7.064
 4536POPC   C4B58162  11.501   4.387   7.364
 4537POPC   NC358163  36.151  33.024   5.564
 4537POPC   PO458164  36.095  33.062   5.864
 4537POPC   GL158165  36.106  32.995   6.164
 4537POPC   GL258166  36.263  33.049   6.164
 4537POPC   C1A58167  36.137  32.992   6.464
 4537POPC   D2A58168  36.095  33.006   6.764
 4537POPC   C3A58169  36.139  32.983   7.064
 4537POPC   C4A58170  36.117  33.074   7.364
 4537POPC   C1B58171  36.315  33.167   6.464
 4537POPC   C2B58172  36.377  33.158   6.764
 4537POPC   C3B58173  36.367  33.157   7.064
 4537POPC   C4B58174  36.378  33.104   7.364
 4538POPC   NC358175   4.320   4.363   5.564
 4538POPC   PO458176   4.349   4.354   5.864
 4538POPC   GL158177   4.269   4.301   6.164
 4538POPC   GL258178   4.385   4.226   6.164
 4538POPC   C1A58179   4.291   4.336   6.464
 4538POPC   D2A58180   4.338   4.340   6.764
 4538POPC   C3A58181   4.334   4.303   7.064
 4538POPC   C4A58182   4.333   4.277   7.364
 4538POPC   C1B58183   4.505   4.215   6.464
 4538POPC   C2B58184   4.570   4.209   6.764
 4538POPC   C3B58185   4.525   4.201   7.064
 4538POPC   C4B58186   4.504   4.167   7.364
 4539POPC   NC358187  35.305  43.842   5.564
 4539POPC   PO458188  35.380  43.838   5.864
 4539POPC   GL158189  35.393  43.935   6.164
 4539POPC   GL258190  35.207  43.846   6.164
 4539POPC   C1A58191  35.356  43.917   6.464
 4539POPC   D2A58192  35.362  43.917   6.764
 4539POPC   C3A58193  35.390  43.862   7.064
 4539POPC   C4A58194  35.358  43.882   7.364
 4539POPC   C1B58195  35.147  43.816   6.464
 4539POPC   C2B58196  35.116  43.789   6.764
 4539POPC   C3B58197  35.134  43.824   7.064
 4539POPC   C4B58198  35.106  43.735   7.364
 4540POPC   NC358199   6.627  14.421   5.564
 4540POPC   PO458200   6.614  14.436   5.864
 4540POPC   GL158201   6.631  14.434   6.164
 4540POPC   GL258202   6.662  14.235   6.164
 4540POPC   C1A58203   6.617  14.407   6.464
 4540POPC   D2A58204   6.660  14.421   6.764
 4540POPC   C3A58205   6.602  14.397   7.064
 4540POPC   C4A58206   6.671  14.375   7.364
 4540POPC   C1B58207   6.691  14.129   6.464
 4540POPC   C2B58208   6.649  14.197   6.764
 4540POPC   C3B58209   6.705  14.208   7.064
 4540POPC   C4B58210   6.728  14.181   7.364
 4541POPC   NC358211  19.788  38.468   5.564
 4541POPC   PO458212  19.813  38.454   5.864
 4541POPC   GL158213  19.785  38.431   6.164
 4541POPC   GL258214  19.951  38.476   6.164
 4541POPC   C1A58215  19.788  38.445   6.464
 4541POPC   D2A58216  19.882  38.429   6.764
 4541POPC   C3A58217  19.794  38.468   7.064
 4541POPC   C4A58218  19.847  38.459   7.364
 4541POPC   C1B58219  20.083  38.456   6.464
 4541POPC   C2B58220  20.061  38.481   6.764
 4541POPC   C3B58221  20.100  38.496   7.064
 4541POPC   C4B58222  20.042  38.433   7.364
 4542POPC   NC358223   1.219   9.001   5.564
 4542POPC   PO458224   1.177   8.972   5.864
 4542POPC   GL158225   1.261   8.931   6.164
 4542POPC   GL258226   1.256   8.891   6.164
 4542POPC   C1A58227   1.167   8.990   6.464
 4542POPC   D2A58228   1.239   8.982   6.764
 4542POPC   C3A58229   1.225   9.013   7.064
 4542POPC   C4A58230   1.223   8.951   7.364
 4542POPC   C1B58231   1.239   8.696   6.464
 4542POPC   C2B58232   1.268   8.729   6.764
 4542POPC   C3B58233   1.296   8.743   7.064
 4542POPC   C4B58234   1.277   8.723   7.364
 4543POPC   NC358235  21.344   6.619   5.564
 4543POPC   PO458236  21.388   6.617   5.864
 4543POPC   GL158237  21.389   6.637   6.164
 4543POPC   GL258238  21.441   6.507   6.164
 4543POPC   C1A58239  21.399   6.615   6.464
 4543POPC   D2A58240  21.342   6.677   6.764
 4543POPC   C3A58241  21.408   6.626   7.064
 4543POPC   C4A58242  21.347   6.676   7.364
 4543POPC   C1B58243  21.409   6.432   6.464
 4543POPC   C2B58244  21.459   6.403   6.764
 4543POPC   C3B58245  21.405   6.446   7.064
 4543POPC   C4B58246  21.456   6.404   7.364
 4544POPC   NC358247  39.225   4.271   5.564
 4544POPC   PO458248  39.216   4.304   5.864
 4544POPC   GL158249  39.232   4.358   6.164
 4544POPC   GL258250  39.374   4.338   6.164
 4544POPC   C1A58251  39.181   4.356   6.464
 4544POPC   D2A58252  39.216   4.291   6.764
 4544POPC   C3A58253  39.201   4.365   7.064
 4544POPC   C4A58254  39.232   4.354   7.364
 4544POPC   C1B58255  39.452   4.430   6.464
 4544POPC   C2B58256  39.454   4.362   6.764
 4544POPC   C3B58257  39.451   4.407   7.064
 4544POPC   C4B58258  39.470   4.365   7.364
 4545POPC   NC358259   1.247  40.800   5.564
 4545POPC   PO458260   1.235  40.789   5.864
 4545POPC   GL158261   1.243  40.831   6.164
 4545POPC   GL258262   1.164  40.656   6.164
 4545POPC   C1A58263   1.173  40.824   6.464
 4545POPC   D2A58264   1.173  40.765   6.764
 4545POPC   C3A58265   1.181  40.785   7.064
 4545POPC   C4A58266   1.250  40.749   7.364
 4545POPC   C1B58267   1.192  40.527   6.464
 4545POPC   C2B58268   1.157  40.554   6.764
 4545POPC   C3B58269   1.190  40.491   7.064
 4545POPC   C4B58270   1.137  40.500   7.364
 4546POPC   NC358271   4.358  32.980   5.564
 4546POPC   PO458272   4.347  32.994   5.864
 4546POPC   GL158273   4.346  33.062   6.164
 4546POPC   GL258274   4.250  32.955   6.164
 4546POPC   C1A58275   4.282  33.056   6.464
 4546POPC   D2A58276   4.328  33.043   6.764
 4546POPC   C3A58277   4.365  32.996   7.064
 4546POPC   C4A58278   4.352  33.048   7.364
 4546POPC   C1B58279   4.181  32.845   6.464
 4546POPC   C2B58280   4.141  32.801   6.764
 4546POPC   C3B58281   4.211  32.784   7.064
 4546POPC   C4B58282   4.165  32.783   7.364
 4547POPC   NC358283  26.824  36.904   5.564
 4547POPC   PO458284  26.780  36.923   5.864
 4547POPC   GL158285  26.795  36.911   6.164
 4547POPC   GL258286  26.783  37.051   6.164
 4547POPC   C1A58287  26.826  36.950   6.464
 4547POPC   D2A58288  26.777  36.916   6.764
 4547POPC   C3A58289  26.774  36.903   7.064
 4547POPC   C4A58290  26.823  36.904   7.364
 4547POPC   C1B58291  26.699  37.138   6.464
 4547POPC   C2B58292  26.689  37.077   6.764
 4547POPC   C3B58293  26.674  37.086   7.064
 4547POPC   C4B58294  26.714  37.084   7.364
 4548POPC   NC358295  37.646  17.523   5.564
 4548POPC   PO458296  37.677  17.506   5.864
 4548POPC   GL158297  37.685  17.533   6.164
 4548POPC   GL258298  37.692  17.678   6.164
 4548POPC   C1A58299  37.657  17.467   6.464
 4548POPC   D2A58300  37.668  17.551   6.764
 4548POPC   C3A58301  37.632  17.507   7.064
 4548POPC   C4A58302  37.726  17.500   7.364
 4548POPC   C1B58303  37.684  17.767   6.464
 4548POPC   C2B58304  37.646  17.717   6.764
 4548POPC   C3B58305  37.670  17.779   7.064
 4548POPC   C4B58306  37.694  17.789   7.364
 4549POPC   NC358307  22.123  32.278   5.564
 4549POPC   PO458308  22.136  32.297   5.864
 4549POPC   GL158309  22.120  32.292   6.164
 4549POPC   GL258310  22.115  32.327   6.164
 4549POPC   C1A58311  22.155  32.236   6.464
 4549POPC   D2A58312  22.117  32.233   6.764
 4549POPC   C3A58313  22.201  32.281   7.064
 4549POPC   C4A58314  22.154  32.285   7.364
 4549POPC   C1B58315  22.145  32.459   6.464
 4549POPC   C2B58316  22.085  32.536   6.764
 4549POPC   C3B58317  22.108  32.459   7.064
 4549POPC   C4B58318  22.064  32.498   7.364
 4550POPC   NC358319  11.282  14.409   5.564
 4550POPC   PO458320  11.269  14.411   5.864
 4550POPC   GL158321  11.266  14.444   6.164
 4550POPC   GL258322  11.373  14.317   6.164
 4550POPC   C1A58323  11.260  14.428   6.464
 4550POPC   D2A58324  11.310  14.436   6.764
 4550POPC   C3A58325  11.307  14.372   7.064
 4550POPC   C4A58326  11.342  14.375   7.364
 4550POPC   C1B58327  11.518  14.280   6.464
 4550POPC   C2B58328  11.540  14.261   6.764
 4550POPC   C3B58329  11.469  14.284   7.064
 4550POPC   C4B58330  11.556  14.267   7.364
 4551POPC   NC358331  29.179   2.814   5.564
 4551POPC   PO458332  29.100   2.723   5.864
 4551POPC   GL158333  29.129   2.790   6.164
 4551POPC   GL258334  29.284   2.702   6.164
 4551POPC   C1A58335  29.113   2.743   6.464
 4551POPC   D2A58336  29.135   2.773   6.764
 4551POPC   C3A58337  29.095   2.739   7.064
 4551POPC   C4A58338  29.162   2.754   7.364
 4551POPC   C1B58339  29.313   2.596   6.464
 4551POPC   C2B58340  29.346   2.642   6.764
 4551POPC   C3B58341  29.338   2.628   7.064
 4551POPC   C4B58342  29.289   2.625   7.364
 4552POPC   NC358343   1.174   8.225   5.564
 4552POPC   PO458344   1.192   8.173   5.864
 4552POPC   GL158345   1.173   8.185   6.164
 4552POPC   GL258346   1.204   8.112   6.164
 4552POPC   C1A58347   1.211   8.147   6.464
 4552POPC   D2A58348   1.213   8.236   6.764
 4552POPC   C3A58349   1.241   8.234   7.064
 4552POPC   C4A58350   1.185   8.212   7.364
 4552POPC   C1B58351   1.247   7.953   6.464
 4552POPC   C2B58352   1.259   7.975   6.764
 4552POPC   C3B58353   1.295   7.905   7.064
 4552POPC   C4B58354   1.248   7.963   7.364
 4553POPC   NC358355  38.437  21.370   5.564
 4553POPC   PO458356  38.450  21.413   5.864
 4553POPC   GL158357  38.494  21.350   6.164
 4553POPC   GL258358  38.514  21.347   6.164
 4553POPC   C1A58359  38.492  21.352   6.464
 4553POPC   D2A58360  38.483  21.379   6.764
 4553POPC   C3A58361  38.407  21.374   7.064
 4553POPC   C4A58362  38.407  21.352   7.364
 4553POPC   C1B58363  38.658  21.261   6.464
 4553POPC   C2B58364  38.638  21.228   6.764
 4553POPC   C3B58365  38.632  21.266   7.064
 4553POPC   C4B58366  38.610  21.256   7.364
 4554POPC   NC358367   2.755  43.120   5.564
 4554POPC   PO458368   2.754  43.153   5.864
 4554POPC   GL158369   2.726  43.098   6.164
 4554POPC   GL258370   2.848  43.222   6.164
 4554POPC   C1A58371   2.765  43.154   6.464
 4554POPC   D2A58372   2.744  43.098   6.764
 4554POPC   C3A58373   2.739  43.160   7.064
 4554POPC   C4A58374   2.731  43.110   7.364
 4554POPC   C1B58375   2.901  43.298   6.464
 4554POPC   C2B58376   2.846  43.286   6.764
 4554POPC   C3B58377   2.913  43.310   7.064
 4554POPC   C4B58378   2.902  43.374   7.364
 4555POPC   NC358379   3.554  27.554   5.564
 4555POPC   PO458380   3.533  27.581   5.864
 4555POPC   GL158381   3.517  27.590   6.164
 4555POPC   GL258382   3.439  27.594   6.164
 4555POPC   C1A58383   3.582  27.603   6.464
 4555POPC   D2A58384   3.591  27.554   6.764
 4555POPC   C3A58385   3.528  27.565   7.064
 4555POPC   C4A58386   3.558  27.601   7.364
 4555POPC   C1B58387   3.263  27.632   6.464
 4555POPC   C2B58388   3.339  27.653   6.764
 4555POPC   C3B58389   3.294  27.565   7.064
 4555POPC   C4B58390   3.330  27.638   7.364
 4556POPC   NC358391  11.309   5.043   5.564
 4556POPC   PO458392  11.300   5.083   5.864
 4556POPC   GL158393  11.280   5.087   6.164
 4556POPC   GL258394  11.354   5.222   6.164
 4556POPC   C1A58395  11.328   5.073   6.464
 4556POPC   D2A58396  11.346   5.130   6.764
 4556POPC   C3A58397  11.343   5.060   7.064
 4556POPC   C4A58398  11.335   5.127   7.364
 4556POPC   C1B58399  11.411   5.328   6.464
 4556POPC   C2B58400  11.422   5.306   6.764
 4556POPC   C3B58401  11.492   5.266   7.064
 4556POPC   C4B58402  11.442   5.288   7.364
 4557POPC   NC358403  43.146  26.012   5.564
 4557POPC   PO458404  43.090  26.024   5.864
 4557POPC   GL158405  43.130  26.023   6.164
 4557POPC   GL258406  43.212  26.199   6.164
 4557POPC   C1A58407  43.113  26.042   6.464
 4557POPC   D2A58408  43.130  26.057   6.764
 4557POPC   C3A58409  43.117  26.058   7.064
 4557POPC   C4A58410  43.139  26.008   7.364
 4557POPC   C1B58411  43.188  26.243   6.464
 4557POPC   C2B58412  43.266  26.303   6.764
 4557POPC   C3B58413  43.204  26.223   7.064
 4557POPC   C4B58414  43.226  26.267   7.364
 4558POPC   NC358415  36.908   5.905   5.564
 4558POPC   PO458416  36.937   5.876   5.864
 4558POPC   GL158417  36.860   5.842   6.164
 4558POPC   GL258418  37.026   5.813   6.164
 4558POPC   C1A58419  36.931   5.861   6.464
 4558POPC   D2A58420  36.939   5.881   6.764
 4558POPC   C3A58421  36.936   5.908   7.064
 4558POPC   C4A58422  36.953   5.845   7.364
 4558POPC   C1B58423  37.126   5.823   6.464
 4558POPC   C2B58424  37.185   5.785   6.764
 4558POPC   C3B58425  37.174   5.781   7.064
 4558POPC   C4B58426  37.122   5.772   7.364
 4559POPC   NC358427  43.884  27.546   5.564
 4559POPC   PO458428  43.848  27.626   5.864
 4559POPC   GL158429  43.869  27.583   6.164
 4559POPC   GL258430  43.863  27.515   6.164
 4559POPC   C1A58431  43.860  27.609   6.464
 4559POPC   D2A58432  43.860  27.609   6.764
 4559POPC   C3A58433  43.851  27.551   7.064
 4559POPC   C4A58434  43.840  27.615   7.364
 4559POPC   C1B58435  43.909  27.311   6.464
 4559POPC   C2B58436  43.911  27.345   6.764
 4559POPC   C3B58437  43.943  27.306   7.064
 4559POPC   C4B58438  43.894  27.383   7.364
 4560POPC   NC358439   3.585   8.174   5.564
 4560POPC   PO458440   3.516   8.176   5.864
 4560POPC   GL158441   3.560   8.165   6.164
 4560POPC   GL258442   3.612   8.283   6.164
 4560POPC   C1A58443   3.494   8.165   6.464
 4560POPC   D2A58444   3.574   8.196   6.764
 4560POPC   C3A58445   3.559   8.233   7.064
 4560POPC   C4A58446   3.531   8.228   7.364
 4560POPC   C1B58447   3.766   8.274   6.464
 4560POPC   C2B58448   3.810   8.323   6.764
 4560POPC   C3B58449   3.762   8.350   7.064
 4560POPC   C4B58450   3.735   8.327   7.364
 4561POPC   NC358451  30.716  12.807   5.564
 4561POPC   PO458452  30.697  12.854   5.864
 4561POPC   GL158453  30.710  12.875   6.164
 4561POPC   GL258454  30.559  12.906   6.164
 4561POPC   C1A58455  30.725  12.856   6.464
 4561POPC   D2A58456  30.743  12.901   6.764
 4561POPC   C3A58457  30.671  12.883   7.064
 4561POPC   C4A58458  30.711  12.859   7.364
 4561POPC   C1B58459  30.458  12.984   6.464
 4561POPC   C2B58460  30.455  13.019   6.764
 4561POPC   C3B58461  30.495  13.049   7.064
 4561POPC   C4B58462  30.488  13.006   7.364
 4562POPC   NC358463  41.516   6.687   5.564
 4562POPC   PO458464  41.574   6.627   5.864
 4562POPC   GL158465  41.590   6.609   6.164
 4562POPC   GL258466  41.667   6.773   6.164
 4562POPC   C1A58467  41.599   6.643   6.464
 4562POPC   D2A58468  41.589   6.625   6.764
 4562POPC   C3A58469  41.580   6.600   7.064
 4562POPC   C4A58470  41.584   6.597   7.364
 4562POPC   C1B58471  41.740   6.818   6.464
 4562POPC   C2B58472  41.737   6.803   6.764
 4562POPC   C3B58473  41.716   6.868   7.064
 4562POPC   C4B58474  41.758   6.885   7.364
 4563POPC   NC358475  43.111  29.186   5.564
 4563POPC   PO458476  43.105  29.151   5.864
 4563POPC   GL158477  43.129  29.181   6.164
 4563POPC   GL258478  43.236  29.223   6.164
 4563POPC   C1A58479  43.108  29.147   6.464
 4563POPC   D2A58480  43.160  29.106   6.764
 4563POPC   C3A58481  43.132  29.175   7.064
 4563POPC   C4A58482  43.115  29.147   7.364
 4563POPC   C1B58483  43.252  29.306   6.464
 4563POPC   C2B58484  43.341  29.297   6.764
 4563POPC   C3B58485  43.255  29.292   7.064
 4563POPC   C4B58486  43.289  29.293   7.364
 4564POPC   NC358487  39.212  33.801   5.564
 4564POPC   PO458488  39.241  33.810   5.864
 4564POPC   GL158489  39.265  33.774   6.164
 4564POPC   GL258490  39.152  33.658   6.164
 4564POPC   C1A58491  39.239  33.797   6.464
 4564POPC   D2A58492  39.241  33.770   6.764
 4564POPC   C3A58493  39.210  33.830   7.064
 4564POPC   C4A58494  39.223  33.811   7.364
 4564POPC   C1B58495  39.080  33.603   6.464
 4564POPC   C2B58496  39.157  33.544   6.764
 4564POPC   C3B58497  39.116  33.589   7.064
 4564POPC   C4B58498  39.127  33.544   7.364
 4565POPC   NC358499  36.948  32.290   5.564
 4565POPC   PO458500  36.921  32.267   5.864
 4565POPC   GL158501  36.939  32.231   6.164
 4565POPC   GL258502  36.978  32.299   6.164
 4565POPC   C1A58503  36.947  32.283   6.464
 4565POPC   D2A58504  36.943  32.238   6.764
 4565POPC   C3A58505  36.867  32.203   7.064
 4565POPC   C4A58506  36.861  32.215   7.364
 4565POPC   C1B58507  37.092  32.379   6.464
 4565POPC   C2B58508  37.056  32.379   6.764
 4565POPC   C3B58509  37.123  32.393   7.064
 4565POPC   C4B58510  37.084  32.404   7.364
 4566POPC   NC358511   4.319  18.248   5.564
 4566POPC   PO458512   4.271  18.269   5.864
 4566POPC   GL158513   4.358  18.321   6.164
 4566POPC   GL258514   4.324  18.420   6.164
 4566POPC   C1A58515   4.311  18.275   6.464
 4566POPC   D2A58516   4.301  18.313   6.764
 4566POPC   C3A58517   4.268  18.316   7.064
 4566POPC   C4A58518   4.301  18.256   7.364
 4566POPC   C1B58519   4.213  18.567   6.464
 4566POPC   C2B58520   4.236  18.481   6.764
 4566POPC   C3B58521   4.222  18.557   7.064
 4566POPC   C4B58522   4.209  18.483   7.364
 4567POPC   NC358523  29.937  28.409   5.564
 4567POPC   PO458524  29.880  28.327   5.864
 4567POPC   GL158525  29.881  28.354   6.164
 4567POPC   GL258526  30.059  28.365   6.164
 4567POPC   C1A58527  29.883  28.347   6.464
 4567POPC   D2A58528  29.883  28.350   6.764
 4567POPC   C3A58529  29.902  28.345   7.064
 4567POPC   C4A58530  29.966  28.381   7.364
 4567POPC   C1B58531  30.218  28.361   6.464
 4567POPC   C2B58532  30.163  28.326   6.764
 4567POPC   C3B58533  30.217  28.394   7.064
 4567POPC   C4B58534  30.166  28.337   7.364
 4568POPC   NC358535  29.892   1.970   5.564
 4568POPC   PO458536  29.905   1.989   5.864
 4568POPC   GL158537  29.908   1.953   6.164
 4568POPC   GL258538  29.924   2.091   6.164
 4568POPC   C1A58539  29.875   1.951   6.464
 4568POPC   D2A58540  29.948   1.982   6.764
 4568POPC   C3A58541  29.918   1.952   7.064
 4568POPC   C4A58542  29.872   1.977   7.364
 4568POPC   C1B58543  29.795   2.274   6.464
 4568POPC   C2B58544  29.863   2.229   6.764
 4568POPC   C3B58545  29.855   2.232   7.064
 4568POPC   C4B58546  29.832   2.177   7.364
 4569POPC   NC358547  34.593  24.519   5.564
 4569POPC   PO458548  34.571  24.532   5.864
 4569POPC   GL158549  34.617  24.499   6.164
 4569POPC   GL258550  34.505  24.526   6.164
 4569POPC   C1A58551  34.529  24.449   6.464
 4569POPC   D2A58552  34.565  24.460   6.764
 4569POPC   C3A58553  34.574  24.486   7.064
 4569POPC   C4A58554  34.561  24.471   7.364
 4569POPC   C1B58555  34.338  24.581   6.464
 4569POPC   C2B58556  34.339  24.545   6.764
 4569POPC   C3B58557  34.323  24.589   7.064
 4569POPC   C4B58558  34.353  24.602   7.364
 4570POPC   NC358559   4.294  19.033   5.564
 4570POPC   PO458560   4.304  19.029   5.864
 4570POPC   GL158561   4.317  19.061   6.164
 4570POPC   GL258562   4.185  19.122   6.164
 4570POPC   C1A58563   4.276  19.065   6.464
 4570POPC   D2A58564   4.343  19.054   6.764
 4570POPC   C3A58565   4.275  19.057   7.064
 4570POPC   C4A58566   4.278  19.093   7.364
 4570POPC   C1B58567   4.158  19.269   6.464
 4570POPC   C2B58568   4.175  19.198   6.764
 4570POPC   C3B58569   4.162  19.222   7.064
 4570POPC   C4B58570   4.130  19.185   7.364
 4571POPC   NC358571  35.327  38.460   5.564
 4571POPC   PO458572  35.375  38.415   5.864
 4571POPC   GL158573  35.342  38.457   6.164
 4571POPC   GL258574  35.305  38.324   6.164
 4571POPC   C1A58575  35.367  38.432   6.464
 4571POPC   D2A58576  35.400  38.486   6.764
 4571POPC   C3A58577  35.349  38.411   7.064
 4571POPC   C4A58578  35.346  38.466   7.364
 4571POPC   C1B58579  35.245  38.215   6.464
 4571POPC   C2B58580  35.283  38.239   6.764
 4571POPC   C3B58581  35.281  38.177   7.064
 4571POPC   C4B58582  35.295  38.237   7.364
 4572POPC   NC358583  19.015   9.732   5.564
 4572POPC   PO458584  19.017   9.707   5.864
 4572POPC   GL158585  19.085   9.762   6.164
 4572POPC   GL258586  19.186   9.806   6.164
 4572POPC   C1A58587  19.050   9.798   6.464
 4572POPC   D2A58588  19.025   9.747   6.764
 4572POPC   C3A58589  19.028   9.790   7.064
 4572POPC   C4A58590  19.021   9.768   7.364
 4572POPC   C1B58591  19.294   9.799   6.464
 4572POPC   C2B58592  19.318   9.763   6.764
 4572POPC   C3B58593  19.312   9.739   7.064
 4572POPC   C4B58594  19.294   9.758   7.364
 4573POPC   NC358595  26.020  22.127   5.564
 4573POPC   PO458596  26.013  22.189   5.864
 4573POPC   GL158597  25.993  22.114   6.164
 4573POPC   GL258598  26.151  22.245   6.164
 4573POPC   C1A58599  26.012  22.197   6.464
 4573POPC   D2A58600  26.076  22.122   6.764
 4573POPC   C3A58601  26.067  22.139   7.064
 4573POPC   C4A58602  26.084  22.183   7.364
 4573POPC   C1B58603  26.127  22.425   6.464
 4573POPC   C2B58604  26.140  22.355   6.764
 4573POPC   C3B58605  26.207  22.367   7.064
 4573POPC   C4B58606  26.197  22.344   7.364
 4574POPC   NC358607  15.942  29.957   5.564
 4574POPC   PO458608  15.954  29.946   5.864
 4574POPC   GL158609  15.932  29.898   6.164
 4574POPC   GL258610  15.860  29.957   6.164
 4574POPC   C1A58611  15.968  29.963   6.464
 4574POPC   D2A58612  15.958  29.911   6.764
 4574POPC   C3A58613  15.948  29.970   7.064
 4574POPC   C4A58614  15.995  29.938   7.364
 4574POPC   C1B58615  15.726  29.911   6.464
 4574POPC   C2B58616  15.723  29.943   6.764
 4574POPC   C3B58617  15.688  29.931   7.064
 4574POPC   C4B58618  15.697  29.891   7.364
 4575POPC   NC358619  40.788  11.290   5.564
 4575POPC   PO458620  40.737  11.268   5.864
 4575POPC   GL158621  40.789  11.289   6.164
 4575POPC   GL258622  40.793  11.379   6.164
 4575POPC   C1A58623  40.752  11.268   6.464
 4575POPC   D2A58624  40.821  11.345   6.764
 4575POPC   C3A58625  40.782  11.310   7.064
 4575POPC   C4A58626  40.766  11.277   7.364
 4575POPC   C1B58627  40.716  11.569   6.464
 4575POPC   C2B58628  40.710  11.589   6.764
 4575POPC   C3B58629  40.735  11.509   7.064
 4575POPC   C4B58630  40.722  11.551   7.364
 4576POPC   NC358631  22.965  15.912   5.564
 4576POPC   PO458632  22.948  15.980   5.864
 4576POPC   GL158633  22.893  15.970   6.164
 4576POPC   GL258634  22.833  15.841   6.164
 4576POPC   C1A58635  22.917  15.954   6.464
 4576POPC   D2A58636  22.926  15.927   6.764
 4576POPC   C3A58637  22.891  15.985   7.064
 4576POPC   C4A58638  22.900  15.927   7.364
 4576POPC   C1B58639  22.757  15.786   6.464
 4576POPC   C2B58640  22.759  15.829   6.764
 4576POPC   C3B58641  22.783  15.769   7.064
 4576POPC   C4B58642  22.702  15.772   7.364
 4577POPC   NC358643  19.100  14.415   5.564
 4577POPC   PO458644  19.080  14.394   5.864
 4577POPC   GL158645  19.095  14.379   6.164
 4577POPC   GL258646  18.958  14.361   6.164
 4577POPC   C1A58647  19.107  14.434   6.464
 4577POPC   D2A58648  19.079  14.397   6.764
 4577POPC   C3A58649  19.085  14.414   7.064
 4577POPC   C4A58650  19.070  14.418   7.364
 4577POPC   C1B58651  18.866  14.333   6.464
 4577POPC   C2B58652  18.812  14.296   6.764
 4577POPC   C3B58653  18.799  14.341   7.064
 4577POPC   C4B58654  18.826  14.326   7.364
 4578POPC   NC358655  26.044  35.311   5.564
 4578POPC   PO458656  26.081  35.377   5.864
 4578POPC   GL158657  26.076  35.323   6.164
 4578POPC   GL258658  25.937  35.285   6.164
 4578POPC   C1A58659  26.080  35.312   6.464
 4578POPC   D2A58660  26.069  35.323   6.764
 4578POPC   C3A58661  26.002  35.401   7.064
 4578POPC   C4A58662  26.027  35.311   7.364
 4578POPC   C1B58663  25.784  35.288   6.464
 4578POPC   C2B58664  25.852  35.225   6.764
 4578POPC   C3B58665  25.799  35.299   7.064
 4578POPC   C4B58666  25.760  35.251   7.364
 4579POPC   NC358667   7.451  11.292   5.564
 4579POPC   PO458668   7.463  11.324   5.864
 4579POPC   GL158669   7.425  11.281   6.164
 4579POPC   GL258670   7.471  11.449   6.164
 4579POPC   C1A58671   7.384  11.347   6.464
 4579POPC   D2A58672   7.461  11.345   6.764
 4579POPC   C3A58673   7.468  11.251   7.064
 4579POPC   C4A58674   7.425  11.306   7.364
 4579POPC   C1B58675   7.535  11.485   6.464
 4579POPC   C2B58676   7.531  11.531   6.764
 4579POPC   C3B58677   7.557  11.554   7.064
 4579POPC   C4B58678   7.576  11.538   7.364
 4580POPC   NC358679  44.643  30.731   5.564
 4580POPC   PO458680  44.661  30.683   5.864
 4580POPC   GL158681  44.664  30.747   6.164
 4580POPC   GL258682  44.577  30.851   6.164
 4580POPC   C1A58683  44.694  30.735   6.464
 4580POPC   D2A58684  44.698  30.651   6.764
 4580POPC   C3A58685  44.680  30.719   7.064
 4580POPC   C4A58686  44.698  30.686   7.364
 4580POPC   C1B58687  44.496  30.910   6.464
 4580POPC   C2B58688  44.572  30.938   6.764
 4580POPC   C3B58689  44.578  30.869   7.064
 4580POPC   C4B58690  44.577  30.960   7.364
 4581POPC   NC358691  35.372   3.539   5.564
 4581POPC   PO458692  35.398   3.570   5.864
 4581POPC   GL158693  35.317   3.504   6.164
 4581POPC   GL258694  35.333   3.703   6.164
 4581POPC   C1A58695  35.320   3.538   6.464
 4581POPC   D2A58696  35.328   3.545   6.764
 4581POPC   C3A58697  35.375   3.567   7.064
 4581POPC   C4A58698  35.355   3.513   7.364
 4581POPC   C1B58699  35.270   3.761   6.464
 4581POPC   C2B58700  35.228   3.726   6.764
 4581POPC   C3B58701  35.210   3.784   7.064
 4581POPC   C4B58702  35.245   3.779   7.364
 4582POPC   NC358703   9.750  20.619   5.564
 4582POPC   PO458704   9.717  20.572   5.864
 4582POPC   GL158705   9.700  20.636   6.164
 4582POPC   GL258706   9.703  20.723   6.164
 4582POPC   C1A58707   9.774  20.608   6.464
 4582POPC   D2A58708   9.710  20.596   6.764
 4582POPC   C3A58709   9.702  20.610   7.064
 4582POPC   C4A58710   9.758  20.591   7.364
 4582POPC   C1B58711   9.743  20.837   6.464
 4582POPC   C2B58712   9.766  20.908   6.764
 4582POPC   C3B58713   9.694  20.885   7.064
 4582POPC   C4B58714   9.783  20.853   7.364
 4583POPC   NC358715  24.490  31.479   5.564
 4583POPC   PO458716  24.521  31.470   5.864
 4583POPC   GL158717  24.471  31.444   6.164
 4583POPC   GL258718  24.606  31.606   6.164
 4583POPC   C1A58719  24.536  31.500   6.464
 4583POPC   D2A58720  24.492  31.494   6.764
 4583POPC   C3A58721  24.440  31.464   7.064
 4583POPC   C4A58722  24.456  31.478   7.364
 4583POPC   C1B58723  24.669  31.676   6.464
 4583POPC   C2B58724  24.638  31.661   6.764
 4583POPC   C3B58725  24.612  31.676   7.064
 4583POPC   C4B58726  24.642  31.672   7.364
 4584POPC   NC358727  43.118  33.052   5.564
 4584POPC   PO458728  43.109  33.051   5.864
 4584POPC   GL158729  43.084  33.012   6.164
 4584POPC   GL258730  43.244  32.948   6.164
 4584POPC   C1A58731  43.128  33.018   6.464
 4584POPC   D2A58732  43.136  33.038   6.764
 4584POPC   C3A58733  43.154  33.011   7.064
 4584POPC   C4A58734  43.108  32.998   7.364
 4584POPC   C1B58735  43.381  32.963   6.464
 4584POPC   C2B58736  43.368  32.886   6.764
 4584POPC   C3B58737  43.343  32.927   7.064
 4584POPC   C4B58738  43.304  32.960   7.364
 4585POPC   NC358739  40.798  24.466   5.564
 4585POPC   PO458740  40.785  24.539   5.864
 4585POPC   GL158741  40.745  24.529   6.164
 4585POPC   GL258742  40.810  24.329   6.164
 4585POPC   C1A58743  40.775  24.523   6.464
 4585POPC   D2A58744  40.759  24.445   6.764
 4585POPC   C3A58745  40.808  24.518   7.064
 4585POPC   C4A58746  40.750  24.474   7.364
 4585POPC   C1B58747  40.843  24.208   6.464
 4585POPC   C2B58748  40.815  24.206   6.764
 4585POPC   C3B58749  40.818  24.265   7.064
 4585POPC   C4B58750  40.856  24.283   7.364
 4586POPC   NC358751  36.168  25.269   5.564
 4586POPC   PO458752  36.084  25.283   5.864
 4586POPC   GL158753  36.168  25.250   6.164
 4586POPC   GL258754  36.082  25.355   6.164
 4586POPC   C1A58755  36.115  25.233   6.464
 4586POPC   D2A58756  36.078  25.301   6.764
 4586POPC   C3A58757  36.121  25.244   7.064
 4586POPC   C4A58758  36.143  25.254   7.364
 4586POPC   C1B58759  36.121  25.485   6.464
 4586POPC   C2B58760  36.123  25.478   6.764
 4586POPC   C3B58761  36.071  25.520   7.064
 4586POPC   C4B58762  36.109  25.488   7.364
 4587POPC   NC358763   4.355   0.454   5.564
 4587POPC   PO458764   4.288   0.446   5.864
 4587POPC   GL158765   4.280   0.439   6.164
 4587POPC   GL258766   4.217   0.559   6.164
 4587POPC   C1A58767   4.315   0.477   6.464
 4587POPC   D2A58768   4.304   0.416   6.764
 4587POPC   C3A58769   4.319   0.453   7.064
 4587POPC   C4A58770   4.350   0.465   7.364
 4587POPC   C1B58771   4.242   0.677   6.464
 4587POPC   C2B58772   4.157   0.677   6.764
 4587POPC   C3B58773   4.238   0.666   7.064
 4587POPC   C4B58774   4.192   0.698   7.364
 4588POPC   NC358775  20.658  33.832   5.564
 4588POPC   PO458776  20.610  33.812   5.864
 4588POPC   GL158777  20.566  33.782   6.164
 4588POPC   GL258778  20.750  33.724   6.164
 4588POPC   C1A58779  20.647  33.844   6.464
 4588POPC   D2A58780  20.561  33.795   6.764
 4588POPC   C3A58781  20.629  33.774   7.064
 4588POPC   C4A58782  20.606  33.760   7.364
 4588POPC   C1B58783  20.862  33.631   6.464
 4588POPC   C2B58784  20.858  33.695   6.764
 4588POPC   C3B58785  20.857  33.632   7.064
 4588POPC   C4B58786  20.807  33.697   7.364
 4589POPC   NC358787  18.293  17.549   5.564
 4589POPC   PO458788  18.318  17.553   5.864
 4589POPC   GL158789  18.252  17.489   6.164
 4589POPC   GL258790  18.190  17.607   6.164
 4589POPC   C1A58791  18.266  17.516   6.464
 4589POPC   D2A58792  18.312  17.460   6.764
 4589POPC   C3A58793  18.275  17.513   7.064
 4589POPC   C4A58794  18.272  17.474   7.364
 4589POPC   C1B58795  18.113  17.722   6.464
 4589POPC   C2B58796  18.090  17.755   6.764
 4589POPC   C3B58797  18.141  17.706   7.064
 4589POPC   C4B58798  18.132  17.730   7.364
 4590POPC   NC358799   0.470  40.785   5.564
 4590POPC   PO458800   0.449  40.817   5.864
 4590POPC   GL158801   0.449  40.829   6.164
 4590POPC   GL258802   0.380  40.830   6.164
 4590POPC   C1A58803   0.453  40.815   6.464
 4590POPC   D2A58804   0.400  40.821   6.764
 4590POPC   C3A58805   0.395  40.745   7.064
 4590POPC   C4A58806   0.440  40.746   7.364
 4590POPC   C1B58807   0.270  40.935   6.464
 4590POPC   C2B58808   0.245  40.900   6.764
 4590POPC   C3B58809   0.194  40.887   7.064
 4590POPC   C4B58810   0.203  40.879   7.364
 4591POPC   NC358811  34.616  12.861   5.564
 4591POPC   PO458812  34.572  12.865   5.864
 4591POPC   GL158813  34.578  12.805   6.164
 4591POPC   GL258814  34.666  13.005   6.164
 4591POPC   C1A58815  34.528  12.864   6.464
 4591POPC   D2A58816  34.605  12.877   6.764
 4591POPC   C3A58817  34.554  12.877   7.064
 4591POPC   C4A58818  34.556  12.894   7.364
 4591POPC   C1B58819  34.640  13.050   6.464
 4591POPC   C2B58820  34.619  13.050   6.764
 4591POPC   C3B58821  34.650  13.101   7.064
 4591POPC   C4B58822  34.692  13.035   7.364
 4592POPC   NC358823  34.547  15.973   5.564
 4592POPC   PO458824  34.551  15.930   5.864
 4592POPC   GL158825  34.603  15.917   6.164
 4592POPC   GL258826  34.727  16.040   6.164
 4592POPC   C1A58827  34.567  15.979   6.464
 4592POPC   D2A58828  34.608  15.968   6.764
 4592POPC   C3A58829  34.544  15.985   7.064
 4592POPC   C4A58830  34.580  16.004   7.364
 4592POPC   C1B58831  34.847  16.042   6.464
 4592POPC   C2B58832  34.850  16.040   6.764
 4592POPC   C3B58833  34.779  15.987   7.064
 4592POPC   C4B58834  34.791  16.050   7.364
 4593POPC   NC358835   8.937  40.815   5.564
 4593POPC   PO458836   9.008  40.801   5.864
 4593POPC   GL158837   8.984  40.796   6.164
 4593POPC   GL258838   8.930  40.646   6.164
 4593POPC   C1A58839   8.989  40.748   6.464
 4593POPC   D2A58840   9.010  40.760   6.764
 4593POPC   C3A58841   8.985  40.764   7.064
 4593POPC   C4A58842   8.996  40.804   7.364
 4593POPC   C1B58843   8.849  40.534   6.464
 4593POPC   C2B58844   8.832  40.523   6.764
 4593POPC   C3B58845   8.902  40.595   7.064
 4593POPC   C4B58846   8.894  40.555   7.364
 4594POPC   NC358847  19.031  36.902   5.564
 4594POPC   PO458848  19.020  36.919   5.864
 4594POPC   GL158849  19.016  36.893   6.164
 4594POPC   GL258850  19.003  36.766   6.164
 4594POPC   C1A58851  19.027  36.938   6.464
 4594POPC   D2A58852  19.105  36.867   6.764
 4594POPC   C3A58853  19.027  36.912   7.064
 4594POPC   C4A58854  19.096  36.927   7.364
 4594POPC   C1B58855  18.961  36.683   6.464
 4594POPC   C2B58856  18.944  36.669   6.764
 4594POPC   C3B58857  18.979  36.644   7.064
 4594POPC   C4B58858  19.031  36.615   7.364
 4595POPC   NC358859  23.755   6.624   5.564
 4595POPC   PO458860  23.679   6.668   5.864
 4595POPC   GL158861  23.716   6.658   6.164
 4595POPC   GL258862  23.619   6.572   6.164
 4595POPC   C1A58863  23.672   6.679   6.464
 4595POPC   D2A58864  23.737   6.681   6.764
 4595POPC   C3A58865  23.737   6.657   7.064
 4595POPC   C4A58866  23.679   6.623   7.364
 4595POPC   C1B58867  23.564   6.456   6.464
 4595POPC   C2B58868  23.590   6.394   6.764
 4595POPC   C3B58869  23.645   6.384   7.064
 4595POPC   C4B58870  23.630   6.428   7.364
 4596POPC   NC358871  35.369  44.616   5.564
 4596POPC   PO458872  35.389  44.651   5.864
 4596POPC   GL158873  35.378  44.620   6.164
 4596POPC   GL258874  35.255  44.526   6.164
 4596POPC   C1A58875  35.307  44.618   6.464
 4596POPC   D2A58876  35.355  44.702   6.764
 4596POPC   C3A58877  35.326  44.653   7.064
 4596POPC   C4A58878  35.333  44.663   7.364
 4596POPC   C1B58879  35.190  44.427   6.464
 4596POPC   C2B58880  35.225  44.482   6.764
 4596POPC   C3B58881  35.167  44.496   7.064
 4596POPC   C4B58882  35.180  44.499   7.364
 4597POPC   NC358883  25.238  11.316   5.564
 4597POPC   PO458884  25.258  11.280   5.864
 4597POPC   GL158885  25.251  11.292   6.164
 4597POPC   GL258886  25.198  11.141   6.164
 4597POPC   C1A58887  25.278  11.256   6.464
 4597POPC   D2A58888  25.267  11.330   6.764
 4597POPC   C3A58889  25.269  11.324   7.064
 4597POPC   C4A58890  25.259  11.327   7.364
 4597POPC   C1B58891  25.191  11.024   6.464
 4597POPC   C2B58892  25.159  11.058   6.764
 4597POPC   C3B58893  25.199  11.080   7.064
 4597POPC   C4B58894  25.143  11.058   7.364
 4598POPC   NC358895  26.833  28.380   5.564
 4598POPC   PO458896  26.843  28.381   5.864
 4598POPC   GL158897  26.768  28.375   6.164
 4598POPC   GL258898  26.676  28.453   6.164
 4598POPC   C1A58899  26.793  28.392   6.464
 4598POPC   D2A58900  26.845  28.415   6.764
 4598POPC   C3A58901  26.812  28.374   7.064
 4598POPC   C4A58902  26.773  28.391   7.364
 4598POPC   C1B58903  26.613  28.486   6.464
 4598POPC   C2B58904  26.612  28.513   6.764
 4598POPC   C3B58905  26.583  28.471   7.064
 4598POPC   C4B58906  26.650  28.525   7.364
 4599POPC   NC358907  15.213  41.538   5.564
 4599POPC   PO458908  15.149  41.511   5.864
 4599POPC   GL158909  15.130  41.518   6.164
 4599POPC   GL258910  15.070  41.615   6.164
 4599POPC   C1A58911  15.208  41.558   6.464
 4599POPC   D2A58912  15.131  41.551   6.764
 4599POPC   C3A58913  15.133  41.541   7.064
 4599POPC   C4A58914  15.207  41.606   7.364
 4599POPC   C1B58915  14.995  41.740   6.464
 4599POPC   C2B58916  14.970  41.711   6.764
 4599POPC   C3B58917  15.043  41.699   7.064
 4599POPC   C4B58918  15.036  41.737   7.364
 4600POPC   NC358919  43.095  18.293   5.564
 4600POPC   PO458920  43.132  18.271   5.864
 4600POPC   GL158921  43.078  18.325   6.164
 4600POPC   GL258922  43.036  18.392   6.164
 4600POPC   C1A58923  43.069  18.266   6.464
 4600POPC   D2A58924  43.149  18.241   6.764
 4600POPC   C3A58925  43.081  18.278   7.064
 4600POPC   C4A58926  43.072  18.242   7.364
 4600POPC   C1B58927  42.945  18.457   6.464
 4600POPC   C2B58928  42.858  18.424   6.764
 4600POPC   C3B58929  42.942  18.450   7.064
 4600POPC   C4B58930  42.896  18.449   7.364
 4601POPC   NC358931  22.172  37.707   5.564
 4601POPC   PO458932  22.151  37.702   5.864
 4601POPC   GL158933  22.167  37.694   6.164
 4601POPC   GL258934  22.275  37.651   6.164
 4601POPC   C1A58935  22.144  37.694   6.464
 4601POPC   D2A58936  22.178  37.634   6.764
 4601POPC   C3A58937  22.150  37.648   7.064
 4601POPC   C4A58938  22.205  37.631   7.364
 4601POPC   C1B58939  22.397  37.626   6.464
 4601POPC   C2B58940  22.446  37.581   6.764
 4601POPC   C3B58941  22.393  37.566   7.064
 4601POPC   C4B58942  22.357  37.560   7.364
 4602POPC   NC358943  19.802  43.159   5.564
 4602POPC   PO458944  19.859  43.134   5.864
 4602POPC   GL158945  19.830  43.135   6.164
 4602POPC   GL258946  19.747  43.246   6.164
 4602POPC   C1A58947  19.878  43.104   6.464
 4602POPC   D2A58948  19.800  43.071   6.764
 4602POPC   C3A58949  19.794  43.103   7.064
 4602POPC   C4A58950  19.798  43.117   7.364
 4602POPC   C1B58951  19.688  43.352   6.464
 4602POPC   C2B58952  19.689  43.280   6.764
 4602POPC   C3B58953  19.731  43.271   7.064
 4602POPC   C4B58954  19.738  43.301   7.364
 4603POPC   NC358955  12.827  22.200   5.564
 4603POPC   PO458956  12.883  22.119   5.864
 4603POPC   GL158957  12.900  22.147   6.164
 4603POPC   GL258958  12.777  22.070   6.164
 4603POPC   C1A58959  12.874  22.165   6.464
 4603POPC   D2A58960  12.819  22.133   6.764
 4603POPC   C3A58961  12.886  22.134   7.064
 4603POPC   C4A58962  12.806  22.135   7.364
 4603POPC   C1B58963  12.740  21.944   6.464
 4603POPC   C2B58964  12.751  21.974   6.764
 4603POPC   C3B58965  12.800  21.949   7.064
 4603POPC   C4B58966  12.820  21.960   7.364
 4604POPC   NC358967  43.123  35.387   5.564
 4604POPC   PO458968  43.148  35.307   5.864
 4604POPC   GL158969  43.136  35.347   6.164
 4604POPC   GL258970  43.071  35.238   6.164
 4604POPC   C1A58971  43.086  35.382   6.464
 4604POPC   D2A58972  43.116  35.320   6.764
 4604POPC   C3A58973  43.098  35.340   7.064
 4604POPC   C4A58974  43.155  35.376   7.364
 4604POPC   C1B58975  42.983  35.113   6.464
 4604POPC   C2B58976  42.982  35.137   6.764
 4604POPC   C3B58977  42.975  35.150   7.064
 4604POPC   C4B58978  42.985  35.076   7.364
 4605POPC   NC358979  22.147  12.098   5.564
 4605POPC   PO458980  22.126  12.096   5.864
 4605POPC   GL158981  22.171  12.056   6.164
 4605POPC   GL258982  22.076  12.205   6.164
 4605POPC   C1A58983  22.149  12.043   6.464
 4605POPC   D2A58984  22.169  12.052   6.764
 4605POPC   C3A58985  22.186  12.071   7.064
 4605POPC   C4A58986  22.137  12.124   7.364
 4605POPC   C1B58987  22.015  12.219   6.464
 4605POPC   C2B58988  22.010  12.210   6.764
 4605POPC   C3B58989  21.953  12.224   7.064
 4605POPC   C4B58990  22.018  12.277   7.364
 4606POPC   NC358991   1.216  24.498   5.564
 4606POPC   PO458992   1.236  24.525   5.864
 4606POPC   GL158993   1.226  24.446   6.164
 4606POPC   GL258994   1.176  24.394   6.164
 4606POPC   C1A58995   1.173  24.514   6.464
 4606POPC   D2A58996   1.229  24.462   6.764
 4606POPC   C3A58997   1.222  24.466   7.064
 4606POPC   C4A58998   1.239  24.473   7.364
 4606POPC   C1B58999   1.101  24.273   6.464
 4606POPC   C2B59000   1.072  24.327   6.764
 4606POPC   C3B59001   1.112  24.245   7.064
 4606POPC   C4B59002   1.043  24.244   7.364
 4607POPC   NC359003  31.440  12.084   5.564
 4607POPC   PO459004  31.516  12.078   5.864
 4607POPC   GL159005  31.436  12.095   6.164
 4607POPC   GL259006  31.384  12.162   6.164
 4607POPC   C1A59007  31.470  12.110   6.464
 4607POPC   D2A59008  31.464  12.110   6.764
 4607POPC   C3A59009  31.478  12.109   7.064
 4607POPC   C4A59010  31.451  12.036   7.364
 4607POPC   C1B59011  31.338  12.227   6.464
 4607POPC   C2B59012  31.294  12.238   6.764
 4607POPC   C3B59013  31.277  12.218   7.064
 4607POPC   C4B59014  31.326  12.277   7.364
 4608POPC   NC359015   5.070   5.900   5.564
 4608POPC   PO459016   5.107   5.911   5.864
 4608POPC   GL159017   5.074   5.895   6.164
 4608POPC   GL259018   5.122   5.719   6.164
 4608POPC   C1A59019   5.054   5.873   6.464
 4608POPC   D2A59020   5.085   5.896   6.764
 4608POPC   C3A59021   5.066   5.890   7.064
 4608POPC   C4A59022   5.112   5.833   7.364
 4608POPC   C1B59023   5.100   5.630   6.464
 4608POPC   C2B59024   5.105   5.646   6.764
 4608POPC   C3B59025   5.140   5.622   7.064
 4608POPC   C4B59026   5.171   5.648   7.364
 4609POPC   NC359027  30.746   8.220   5.564
 4609POPC   PO459028  30.674   8.229   5.864
 4609POPC   GL159029  30.743   8.166   6.164
 4609POPC   GL259030  30.569   8.199   6.164
 4609POPC   C1A59031  30.698   8.193   6.464
 4609POPC   D2A59032  30.741   8.199   6.764
 4609POPC   C3A59033  30.654   8.184   7.064
 4609POPC   C4A59034  30.658   8.209   7.364
 4609POPC   C1B59035  30.480   8.204   6.464
 4609POPC   C2B59036  30.481   8.191   6.764
 4609POPC   C3B59037  30.456   8.183   7.064
 4609POPC   C4B59038  30.446   8.210   7.364
 4610POPC   NC359039   2.756  15.999   5.564
 4610POPC   PO459040   2.734  15.972   5.864
 4610POPC   GL159041   2.797  15.941   6.164
 4610POPC   GL259042   2.686  15.912   6.164
 4610POPC   C1A59043   2.806  15.970   6.464
 4610POPC   D2A59044   2.750  15.961   6.764
 4610POPC   C3A59045   2.721  15.936   7.064
 4610POPC   C4A59046   2.811  15.953   7.364
 4610POPC   C1B59047   2.480  15.835   6.464
 4610POPC   C2B59048   2.506  15.900   6.764
 4610POPC   C3B59049   2.539  15.858   7.064
 4610POPC   C4B59050   2.545  15.899   7.364
 4611POPC   NC359051  14.382  19.057   5.564
 4611POPC   PO459052  14.439  19.091   5.864
 4611POPC   GL159053  14.420  19.068   6.164
 4611POPC   GL259054  14.555  19.048   6.164
 4611POPC   C1A59055  14.442  19.021   6.464
 4611POPC   D2A59056  14.436  19.016   6.764
 4611POPC   C3A59057  14.400  19.048   7.064
 4611POPC   C4A59058  14.428  19.069   7.364
 4611POPC   C1B59059  14.686  19.067   6.464
 4611POPC   C2B59060  14.679  19.001   6.764
 4611POPC   C3B59061  14.679  18.991   7.064
 4611POPC   C4B59062  14.667  19.016   7.364
 4612POPC   NC359063  33.819  29.148   5.564
 4612POPC   PO459064  33.831  29.111   5.864
 4612POPC   GL159065  33.819  29.172   6.164
 4612POPC   GL259066  33.708  29.252   6.164
 4612POPC   C1A59067  33.825  29.149   6.464
 4612POPC   D2A59068  33.755  29.134   6.764
 4612POPC   C3A59069  33.811  29.195   7.064
 4612POPC   C4A59070  33.844  29.194   7.364
 4612POPC   C1B59071  33.716  29.336   6.464
 4612POPC   C2B59072  33.698  29.382   6.764
 4612POPC   C3B59073  33.733  29.348   7.064
 4612POPC   C4B59074  33.742  29.385   7.364
 4613POPC   NC359075   9.009   7.390   5.564
 4613POPC   PO459076   9.020   7.372   5.864
 4613POPC   GL159077   8.951   7.386   6.164
 4613POPC   GL259078   8.871   7.440   6.164
 4613POPC   C1A59079   9.006   7.406   6.464
 4613POPC   D2A59080   8.989   7.410   6.764
 4613POPC   C3A59081   8.924   7.433   7.064
 4613POPC   C4A59082   9.009   7.454   7.364
 4613POPC   C1B59083   8.681   7.439   6.464
 4613POPC   C2B59084   8.739   7.355   6.764
 4613POPC   C3B59085   8.772   7.404   7.064
 4613POPC   C4B59086   8.762   7.440   7.364
 4614POPC   NC359087  15.227  22.961   5.564
 4614POPC   PO459088  15.145  22.934   5.864
 4614POPC   GL159089  15.145  22.959   6.164
 4614POPC   GL259090  15.240  22.875   6.164
 4614POPC   C1A59091  15.157  22.918   6.464
 4614POPC   D2A59092  15.183  22.905   6.764
 4614POPC   C3A59093  15.155  22.964   7.064
 4614POPC   C4A59094  15.169  22.985   7.364
 4614POPC   C1B59095  15.332  22.756   6.464
 4614POPC   C2B59096  15.349  22.731   6.764
 4614POPC   C3B59097  15.362  22.736   7.064
 4614POPC   C4B59098  15.335  22.796   7.364
 4615POPC   NC359099  12.899  43.095   5.564
 4615POPC   PO459100  12.804  43.102   5.864
 4615POPC   GL159101  12.820  43.083   6.164
 4615POPC   GL259102  12.784  42.987   6.164
 4615POPC   C1A59103  12.828  43.065   6.464
 4615POPC   D2A59104  12.867  43.082   6.764
 4615POPC   C3A59105  12.860  43.118   7.064
 4615POPC   C4A59106  12.810  43.150   7.364
 4615POPC   C1B59107  12.821  42.906   6.464
 4615POPC   C2B59108  12.824  42.895   6.764
 4615POPC   C3B59109  12.775  42.836   7.064
 4615POPC   C4B59110  12.783  42.841   7.364
 4616POPC   NC359111   5.101   0.405   5.564
 4616POPC   PO459112   5.049   0.485   5.864
 4616POPC   GL159113   5.070   0.439   6.164
 4616POPC   GL259114   5.169   0.283   6.164
 4616POPC   C1A59115   5.121   0.475   6.464
 4616POPC   D2A59116   5.110   0.414   6.764
 4616POPC   C3A59117   5.135   0.390   7.064
 4616POPC   C4A59118   5.065   0.428   7.364
 4616POPC   C1B59119   5.164   0.235   6.464
 4616POPC   C2B59120   5.182   0.243   6.764
 4616POPC   C3B59121   5.161   0.252   7.064
 4616POPC   C4B59122   5.230   0.255   7.364
 4617POPC   NC359123  40.799   5.118   5.564
 4617POPC   PO459124  40.758   5.134   5.864
 4617POPC   GL159125  40.782   5.087   6.164
 4617POPC   GL259126  40.673   5.153   6.164
 4617POPC   C1A59127  40.759   5.054   6.464
 4617POPC   D2A59128  40.790   5.095   6.764
 4617POPC   C3A59129  40.766   5.124   7.064
 4617POPC   C4A59130  40.817   5.122   7.364
 4617POPC   C1B59131  40.634   5.220   6.464
 4617POPC   C2B59132  40.612   5.222   6.764
 4617POPC   C3B59133  40.563   5.297   7.064
 4617POPC   C4B59134  40.578   5.287   7.364
 4618POPC   NC359135  40.027  16.725   5.564
 4618POPC   PO459136  40.015  16.766   5.864
 4618POPC   GL159137  39.996  16.736   6.164
 4618POPC   GL259138  39.894  16.787   6.164
 4618POPC   C1A59139  39.984  16.682   6.464
 4618POPC   D2A59140  39.979  16.702   6.764
 4618POPC   C3A59141  39.977  16.725   7.064
 4618POPC   C4A59142  39.959  16.705   7.364
 4618POPC   C1B59143  39.844  16.863   6.464
 4618POPC   C2B59144  39.806  16.894   6.764
 4618POPC   C3B59145  39.784  16.895   7.064
 4618POPC   C4B59146  39.781  16.853   7.364
 4619POPC   NC359147  15.220  12.871   5.564
 4619POPC   PO459148  15.139  12.869   5.864
 4619POPC   GL159149  15.194  12.864   6.164
 4619POPC   GL259150  15.316  12.834   6.164
 4619POPC   C1A59151  15.145  12.891   6.464
 4619POPC   D2A59152  15.166  12.893   6.764
 4619POPC   C3A59153  15.208  12.829   7.064
 4619POPC   C4A59154  15.180  12.833   7.364
 4619POPC   C1B59155  15.429  12.756   6.464
 4619POPC   C2B59156  15.448  12.727   6.764
 4619POPC   C3B59157  15.384  12.749   7.064
 4619POPC   C4B59158  15.436  12.707   7.364
 4620POPC   NC359159  19.808  26.085   5.564
 4620POPC   PO459160  19.785  26.042   5.864
 4620POPC   GL159161  19.849  26.060   6.164
 4620POPC   GL259162  19.758  26.135   6.164
 4620POPC   C1A59163  19.850  26.001   6.464
 4620POPC   D2A59164  19.850  26.069   6.764
 4620POPC   C3A59165  19.867  26.039   7.064
 4620POPC   C4A59166  19.787  26.059   7.364
 4620POPC   C1B59167  19.713  26.269   6.464
 4620POPC   C2B59168  19.783  26.311   6.764
 4620POPC   C3B59169  19.705  26.233   7.064
 4620POPC   C4B59170  19.747  26.255   7.364
 4621POPC   NC359171  10.534  20.627   5.564
 4621POPC   PO459172  10.524  20.622   5.864
 4621POPC   GL159173  10.551  20.596   6.164
 4621POPC   GL259174  10.585  20.515   6.164
 4621POPC   C1A59175  10.523  20.621   6.464
 4621POPC   D2A59176  10.479  20.583   6.764
 4621POPC   C3A59177  10.541  20.591   7.064
 4621POPC   C4A59178  10.523  20.634   7.364
 4621POPC   C1B59179  10.768  20.445   6.464
 4621POPC   C2B59180  10.726  20.446   6.764
 4621POPC   C3B59181  10.701  20.442   7.064
 4621POPC   C4B59182  10.709  20.410   7.364
 4622POPC   NC359183  11.286  36.882   5.564
 4622POPC   PO459184  11.328  36.919   5.864
 4622POPC   GL159185  11.323  36.940   6.164
 4622POPC   GL259186  11.351  36.775   6.164
 4622POPC   C1A59187  11.328  36.940   6.464
 4622POPC   D2A59188  11.271  36.928   6.764
 4622POPC   C3A59189  11.340  36.874   7.064
 4622POPC   C4A59190  11.345  36.860   7.364
 4622POPC   C1B59191  11.371  36.680   6.464
 4622POPC   C2B59192  11.359  36.661   6.764
 4622POPC   C3B59193  11.389  36.689   7.064
 4622POPC   C4B59194  11.380  36.686   7.364
 4623POPC   NC359195  12.860  12.063   5.564
 4623POPC   PO459196  12.871  12.101   5.864
 4623POPC   GL159197  12.824  12.038   6.164
 4623POPC   GL259198  12.840  12.180   6.164
 4623POPC   C1A59199  12.868  12.116   6.464
 4623POPC   D2A59200  12.823  12.053   6.764
 4623POPC   C3A59201  12.818  12.054   7.064
 4623POPC   C4A59202  12.829  12.053   7.364
 4623POPC   C1B59203  12.728  12.296   6.464
 4623POPC   C2B59204  12.781  12.317   6.764
 4623POPC   C3B59205  12.745  12.285   7.064
 4623POPC   C4B59206  12.747  12.273   7.364
 4624POPC   NC359207  33.065  27.590   5.564
 4624POPC   PO459208  33.073  27.595   5.864
 4624POPC   GL159209  32.987  27.565   6.164
 4624POPC   GL259210  32.917  27.739   6.164
 4624POPC   C1A59211  32.978  27.566   6.464
 4624POPC   D2A59212  33.042  27.615   6.764
 4624POPC   C3A59213  33.049  27.577   7.064
 4624POPC   C4A59214  33.031  27.551   7.364
 4624POPC   C1B59215  32.844  27.806   6.464
 4624POPC   C2B59216  32.897  27.769   6.764
 4624POPC   C3B59217  32.913  27.775   7.064
 4624POPC   C4B59218  32.884  27.818   7.364
 4625POPC   NC359219  41.566  43.103   5.564
 4625POPC   PO459220  41.526  43.148   5.864
 4625POPC   GL159221  41.540  43.099   6.164
 4625POPC   GL259222  41.447  43.153   6.164
 4625POPC   C1A59223  41.562  43.160   6.464
 4625POPC   D2A59224  41.520  43.127   6.764
 4625POPC   C3A59225  41.519  43.141   7.064
 4625POPC   C4A59226  41.588  43.078   7.364
 4625POPC   C1B59227  41.328  43.260   6.464
 4625POPC   C2B59228  41.338  43.229   6.764
 4625POPC   C3B59229  41.382  43.274   7.064
 4625POPC   C4B59230  41.393  43.287   7.364
 4626POPC   NC359231  30.698   8.946   5.564
 4626POPC   PO459232  30.683   8.994   5.864
 4626POPC   GL159233  30.663   8.977   6.164
 4626POPC   GL259234  30.726   9.044   6.164
 4626POPC   C1A59235  30.736   8.977   6.464
 4626POPC   D2A59236  30.710   8.968   6.764
 4626POPC   C3A59237  30.681   8.939   7.064
 4626POPC   C4A59238  30.690   8.972   7.364
 4626POPC   C1B59239  30.877   9.217   6.464
 4626POPC   C2B59240  30.858   9.146   6.764
 4626POPC   C3B59241  30.840   9.184   7.064
 4626POPC   C4B59242  30.845   9.184   7.364
 4627POPC   NC359243   9.739  15.925   5.564
 4627POPC   PO459244   9.787  15.920   5.864
 4627POPC   GL159245   9.779  16.000   6.164
 4627POPC   GL259246   9.726  16.067   6.164
 4627POPC   C1A59247   9.701  15.951   6.464
 4627POPC   D2A59248   9.784  15.965   6.764
 4627POPC   C3A59249   9.772  15.917   7.064
 4627POPC   C4A59250   9.716  15.921   7.364
 4627POPC   C1B59251   9.714  16.241   6.464
 4627POPC   C2B59252   9.738  16.243   6.764
 4627POPC   C3B59253   9.736  16.155   7.064
 4627POPC   C4B59254   9.745  16.225   7.364
 4628POPC   NC359255  28.346  12.874   5.564
 4628POPC   PO459256  28.383  12.806   5.864
 4628POPC   GL159257  28.349  12.855   6.164
 4628POPC   GL259258  28.352  12.992   6.164
 4628POPC   C1A59259  28.323  12.815   6.464
 4628POPC   D2A59260  28.388  12.881   6.764
 4628POPC   C3A59261  28.323  12.826   7.064
 4628POPC   C4A59262  28.331  12.856   7.364
 4628POPC   C1B59263  28.334  13.140   6.464
 4628POPC   C2B59264  28.353  13.065   6.764
 4628POPC   C3B59265  28.325  13.146   7.064
 4628POPC   C4B59266  28.285  13.139   7.364
 4629POPC   NC359267  36.133   5.141   5.564
 4629POPC   PO459268  36.101   5.091   5.864
 4629POPC   GL159269  36.107   5.077   6.164
 4629POPC   GL259270  36.261   5.055   6.164
 4629POPC   C1A59271  36.128   5.129   6.464
 4629POPC   D2A59272  36.125   5.089   6.764
 4629POPC   C3A59273  36.080   5.079   7.064
 4629POPC   C4A59274  36.132   5.066   7.364
 4629POPC   C1B59275  36.312   4.999   6.464
 4629POPC   C2B59276  36.385   5.010   6.764
 4629POPC   C3B59277  36.363   5.009   7.064
 4629POPC   C4B59278  36.354   4.954   7.364
 4630POPC   NC359279   8.191  28.356   5.564
 4630POPC   PO459280   8.181  28.369   5.864
 4630POPC   GL159281   8.228  28.392   6.164
 4630POPC   GL259282   8.149  28.306   6.164
 4630POPC   C1A59283   8.243  28.341   6.464
 4630POPC   D2A59284   8.200  28.351   6.764
 4630POPC   C3A59285   8.222  28.356   7.064
 4630POPC   C4A59286   8.216  28.340   7.364
 4630POPC   C1B59287   8.085  28.188   6.464
 4630POPC   C2B59288   8.011  28.223   6.764
 4630POPC   C3B59289   8.063  28.204   7.064
 4630POPC   C4B59290   8.073  28.224   7.364
 4631POPC   NC359291  31.497  32.260   5.564
 4631POPC   PO459292  31.444  32.296   5.864
 4631POPC   GL159293  31.520  32.295   6.164
 4631POPC   GL259294  31.377  32.323   6.164
 4631POPC   C1A59295  31.441  32.213   6.464
 4631POPC   D2A59296  31.441  32.274   6.764
 4631POPC   C3A59297  31.451  32.207   7.064
 4631POPC   C4A59298  31.483  32.255   7.364
 4631POPC   C1B59299  31.297  32.423   6.464
 4631POPC   C2B59300  31.288  32.477   6.764
 4631POPC   C3B59301  31.289  32.393   7.064
 4631POPC   C4B59302  31.320  32.480   7.364
 4632POPC   NC359303  44.621  11.260   5.564
 4632POPC   PO459304  44.694  11.324   5.864
 4632POPC   GL159305  44.683  11.340   6.164
 4632POPC   GL259306  44.756  11.314   6.164
 4632POPC   C1A59307  44.663  11.328   6.464
 4632POPC   D2A59308  44.619  11.289   6.764
 4632POPC   C3A59309  44.701  11.298   7.064
 4632POPC   C4A59310  44.613  11.284   7.364
 4632POPC   C1B59311  44.917  11.248   6.464
 4632POPC   C2B59312  44.884  11.291   6.764
 4632POPC   C3B59313  44.872  11.320   7.064
 4632POPC   C4B59314  44.952  11.236   7.364
 4633POPC   NC359315  28.331  19.822   5.564
 4633POPC   PO459316  28.397  19.824   5.864
 4633POPC   GL159317  28.384  19.881   6.164
 4633POPC   GL259318  28.353  19.999   6.164
 4633POPC   C1A59319  28.353  19.825   6.464
 4633POPC   D2A59320  28.364  19.823   6.764
 4633POPC   C3A59321  28.359  19.813   7.064
 4633POPC   C4A59322  28.334  19.810   7.364
 4633POPC   C1B59323  28.421  20.044   6.464
 4633POPC   C2B59324  28.352  20.050   6.764
 4633POPC   C3B59325  28.434  20.091   7.064
 4633POPC   C4B59326  28.441  20.042   7.364
 4634POPC   NC359327  25.235  22.906   5.564
 4634POPC   PO459328  25.249  22.987   5.864
 4634POPC   GL159329  25.278  22.987   6.164
 4634POPC   GL259330  25.199  23.068   6.164
 4634POPC   C1A59331  25.310  22.908   6.464
 4634POPC   D2A59332  25.299  22.939   6.764
 4634POPC   C3A59333  25.252  22.919   7.064
 4634POPC   C4A59334  25.226  22.952   7.364
 4634POPC   C1B59335  25.160  23.096   6.464
 4634POPC   C2B59336  25.133  23.148   6.764
 4634POPC   C3B59337  25.099  23.130   7.064
 4634POPC   C4B59338  25.160  23.139   7.364
 4635POPC   NC359339  27.606  24.534   5.564
 4635POPC   PO459340  27.584  24.441   5.864
 4635POPC   GL159341  27.561  24.532   6.164
 4635POPC   GL259342  27.502  24.386   6.164
 4635POPC   C1A59343  27.608  24.507   6.464
 4635POPC   D2A59344  27.625  24.509   6.764
 4635POPC   C3A59345  27.550  24.501   7.064
 4635POPC   C4A59346  27.545  24.527   7.364
 4635POPC   C1B59347  27.376  24.335   6.464
 4635POPC   C2B59348  27.358  24.401   6.764
 4635POPC   C3B59349  27.400  24.396   7.064
 4635POPC   C4B59350  27.379  24.397   7.364
 4636POPC   NC359351  10.558   3.522   5.564
 4636POPC   PO459352  10.530   3.507   5.864
 4636POPC   GL159353  10.547   3.495   6.164
 4636POPC   GL259354  10.413   3.467   6.164
 4636POPC   C1A59355  10.540   3.506   6.464
 4636POPC   D2A59356  10.562   3.541   6.764
 4636POPC   C3A59357  10.554   3.514   7.064
 4636POPC   C4A59358  10.572   3.494   7.364
 4636POPC   C1B59359  10.318   3.336   6.464
 4636POPC   C2B59360  10.337   3.326   6.764
 4636POPC   C3B59361  10.363   3.319   7.064
 4636POPC   C4B59362  10.384   3.342   7.364
 4637POPC   NC359363  23.719   5.137   5.564
 4637POPC   PO459364  23.675   5.126   5.864
 4637POPC   GL159365  23.757   5.112   6.164
 4637POPC   GL259366  23.838   5.037   6.164
 4637POPC   C1A59367  23.691   5.077   6.464
 4637POPC   D2A59368  23.741   5.051   6.764
 4637POPC   C3A59369  23.735   5.134   7.064
 4637POPC   C4A59370  23.688   5.055   7.364
 4637POPC   C1B59371  23.903   4.943   6.464
 4637POPC   C2B59372  23.872   4.926   6.764
 4637POPC   C3B59373  23.899   4.943   7.064
 4637POPC   C4B59374  23.956   4.924   7.364
 4638POPC   NC359375  24.487  18.321   5.564
 4638POPC   PO459376  24.486  18.253   5.864
 4638POPC   GL159377  24.452  18.306   6.164
 4638POPC   GL259378  24.427  18.355   6.164
 4638POPC   C1A59379  24.520  18.262   6.464
 4638POPC   D2A59380  24.501  18.318   6.764
 4638POPC   C3A59381  24.524  18.241   7.064
 4638POPC   C4A59382  24.488  18.284   7.364
 4638POPC   C1B59383  24.426  18.552   6.464
 4638POPC   C2B59384  24.377  18.515   6.764
 4638POPC   C3B59385  24.403  18.562   7.064
 4638POPC   C4B59386  24.400  18.477   7.364
 4639POPC   NC359387  20.611  43.848   5.564
 4639POPC   PO459388  20.597  43.840   5.864
 4639POPC   GL159389  20.605  43.869   6.164
 4639POPC   GL259390  20.642  44.000   6.164
 4639POPC   C1A59391  20.617  43.848   6.464
 4639POPC   D2A59392  20.599  43.891   6.764
 4639POPC   C3A59393  20.619  43.842   7.064
 4639POPC   C4A59394  20.614  43.854   7.364
 4639POPC   C1B59395  20.607  44.140   6.464
 4639POPC   C2B59396  20.637  44.156   6.764
 4639POPC   C3B59397  20.594  44.155   7.064
 4639POPC   C4B59398  20.578  44.181   7.364
 4640POPC   NC359399  17.469  25.312   5.564
 4640POPC   PO459400  17.489  25.267   5.864
 4640POPC   GL159401  17.482  25.310   6.164
 4640POPC   GL259402  17.451  25.154   6.164
 4640POPC   C1A59403  17.473  25.314   6.464
 4640POPC   D2A59404  17.531  25.298   6.764
 4640POPC   C3A59405  17.516  25.258   7.064
 4640POPC   C4A59406  17.481  25.218   7.364
 4640POPC   C1B59407  17.282  25.124   6.464
 4640POPC   C2B59408  17.253  25.102   6.764
 4640POPC   C3B59409  17.263  25.147   7.064
 4640POPC   C4B59410  17.331  25.130   7.364
 4641POPC   NC359411  28.378  39.995   5.564
 4641POPC   PO459412  28.329  40.027   5.864
 4641POPC   GL159413  28.380  40.003   6.164
 4641POPC   GL259414  28.391  40.125   6.164
 4641POPC   C1A59415  28.366  40.017   6.464
 4641POPC   D2A59416  28.381  39.965   6.764
 4641POPC   C3A59417  28.411  40.038   7.064
 4641POPC   C4A59418  28.372  39.976   7.364
 4641POPC   C1B59419  28.335  40.238   6.464
 4641POPC   C2B59420  28.304  40.219   6.764
 4641POPC   C3B59421  28.364  40.232   7.064
 4641POPC   C4B59422  28.338  40.213   7.364
 4642POPC   NC359423  42.380  28.358   5.564
 4642POPC   PO459424  42.341  28.377   5.864
 4642POPC   GL159425  42.319  28.391   6.164
 4642POPC   GL259426  42.193  28.349   6.164
 4642POPC   C1A59427  42.360  28.330   6.464
 4642POPC   D2A59428  42.348  28.331   6.764
 4642POPC   C3A59429  42.297  28.397   7.064
 4642POPC   C4A59430  42.301  28.332   7.364
 4642POPC   C1B59431  42.113  28.436   6.464
 4642POPC   C2B59432  42.085  28.388   6.764
 4642POPC   C3B59433  42.083  28.438   7.064
 4642POPC   C4B59434  42.081  28.373   7.364
 4643POPC   NC359435  44.672  32.997   5.564
 4643POPC   PO459436  44.668  33.010   5.864
 4643POPC   GL159437  44.695  32.977   6.164
 4643POPC   GL259438  44.557  32.946   6.164
 4643POPC   C1A59439  44.631  32.997   6.464
 4643POPC   D2A59440  44.640  32.983   6.764
 4643POPC   C3A59441  44.662  32.997   7.064
 4643POPC   C4A59442  44.654  33.064   7.364
 4643POPC   C1B59443  44.488  32.829   6.464
 4643POPC   C2B59444  44.469  32.835   6.764
 4643POPC   C3B59445  44.486  32.815   7.064
 4643POPC   C4B59446  44.543  32.834   7.364
 4644POPC   NC359447   4.308   5.902   5.564
 4644POPC   PO459448   4.341   5.885   5.864
 4644POPC   GL159449   4.278   5.898   6.164
 4644POPC   GL259450   4.151   5.881   6.164
 4644POPC   C1A59451   4.269   5.835   6.464
 4644POPC   D2A59452   4.347   5.897   6.764
 4644POPC   C3A59453   4.302   5.847   7.064
 4644POPC   C4A59454   4.274   5.826   7.364
 4644POPC   C1B59455   4.024   5.880   6.464
 4644POPC   C2B59456   4.048   5.908   6.764
 4644POPC   C3B59457   4.117   5.848   7.064
 4644POPC   C4B59458   4.087   5.916   7.364
 4645POPC   NC359459  10.487  12.806   5.564
 4645POPC   PO459460  10.516  12.854   5.864
 4645POPC   GL159461  10.534  12.901   6.164
 4645POPC   GL259462  10.583  12.731   6.164
 4645POPC   C1A59463  10.562  12.877   6.464
 4645POPC   D2A59464  10.570  12.835   6.764
 4645POPC   C3A59465  10.536  12.868   7.064
 4645POPC   C4A59466  10.546  12.846   7.364
 4645POPC   C1B59467  10.557  12.576   6.464
 4645POPC   C2B59468  10.635  12.635   6.764
 4645POPC   C3B59469  10.642  12.587   7.064
 4645POPC   C4B59470  10.614  12.575   7.364
 4646POPC   NC359471   3.541   9.022   5.564
 4646POPC   PO459472   3.494   9.010   5.864
 4646POPC   GL159473   3.493   8.957   6.164
 4646POPC   GL259474   3.623   8.896   6.164
 4646POPC   C1A59475   3.561   8.972   6.464
 4646POPC   D2A59476   3.514   8.938   6.764
 4646POPC   C3A59477   3.558   9.000   7.064
 4646POPC   C4A59478   3.536   9.006   7.364
 4646POPC   C1B59479   3.750   8.833   6.464
 4646POPC   C2B59480   3.724   8.781   6.764
 4646POPC   C3B59481   3.671   8.787   7.064
 4646POPC   C4B59482   3.712   8.747   7.364
 4647POPC   NC359483  26.811  20.659   5.564
 4647POPC   PO459484  26.797  20.574   5.864
 4647POPC   GL159485  26.853  20.603   6.164
 4647POPC   GL259486  26.781  20.507   6.164
 4647POPC   C1A59487  26.799  20.586   6.464
 4647POPC   D2A59488  26.784  20.628   6.764
 4647POPC   C3A59489  26.795  20.573   7.064
 4647POPC   C4A59490  26.771  20.627   7.364
 4647POPC   C1B59491  26.822  20.324   6.464
 4647POPC   C2B59492  26.810  20.333   6.764
 4647POPC   C3B59493  26.807  20.359   7.064
 4647POPC   C4B59494  26.786  20.371   7.364
 4648POPC   NC359495   8.985  29.910   5.564
 4648POPC   PO459496   8.964  29.947   5.864
 4648POPC   GL159497   8.989  29.951   6.164
 4648POPC   GL259498   8.952  30.032   6.164
 4648POPC   C1A59499   8.989  29.965   6.464
 4648POPC   D2A59500   8.980  29.942   6.764
 4648POPC   C3A59501   8.934  29.964   7.064
 4648POPC   C4A59502   8.961  29.881   7.364
 4648POPC   C1B59503   8.946  30.179   6.464
 4648POPC   C2B59504   8.905  30.149   6.764
 4648POPC   C3B59505   8.975  30.177   7.064
 4648POPC   C4B59506   8.891  30.167   7.364
 4649POPC   NC359507  17.481  29.903   5.564
 4649POPC   PO459508  17.523  29.928   5.864
 4649POPC   GL159509  17.474  29.908   6.164
 4649POPC   GL259510  17.631  29.960   6.164
 4649POPC   C1A59511  17.514  29.934   6.464
 4649POPC   D2A59512  17.525  29.914   6.764
 4649POPC   C3A59513  17.500  29.965   7.064
 4649POPC   C4A59514  17.553  29.909   7.364
 4649POPC   C1B59515  17.737  29.959   6.464
 4649POPC   C2B59516  17.768  29.946   6.764
 4649POPC   C3B59517  17.789  29.985   7.064
 4649POPC   C4B59518  17.704  29.965   7.364
 4650POPC   NC359519  43.878  43.070   5.564
 4650POPC   PO459520  43.882  43.137   5.864
 4650POPC   GL159521  43.863  43.139   6.164
 4650POPC   GL259522  43.836  42.937   6.164
 4650POPC   C1A59523  43.852  43.093   6.464
 4650POPC   D2A59524  43.872  43.160   6.764
 4650POPC   C3A59525  43.894  43.147   7.064
 4650POPC   C4A59526  43.858  43.133   7.364
 4650POPC   C1B59527  43.839  42.833   6.464
 4650POPC   C2B59528  43.919  42.860   6.764
 4650POPC   C3B59529  43.841  42.833   7.064
 4650POPC   C4B59530  43.890  42.884   7.364
 4651POPC   NC359531  39.228  18.284   5.564
 4651POPC   PO459532  39.226  18.302   5.864
 4651POPC   GL159533  39.228  18.309   6.164
 4651POPC   GL259534  39.369  18.327   6.164
 4651POPC   C1A59535  39.218  18.315   6.464
 4651POPC   D2A59536  39.203  18.318   6.764
 4651POPC   C3A59537  39.275  18.247   7.064
 4651POPC   C4A59538  39.191  18.278   7.364
 4651POPC   C1B59539  39.513  18.330   6.464
 4651POPC   C2B59540  39.473  18.376   6.764
 4651POPC   C3B59541  39.499  18.398   7.064
 4651POPC   C4B59542  39.445  18.332   7.364
 4652POPC   NC359543  29.184  13.642   5.564
 4652POPC   PO459544  29.110  13.617   5.864
 4652POPC   GL159545  29.142  13.651   6.164
 4652POPC   GL259546  29.220  13.585   6.164
 4652POPC   C1A59547  29.142  13.623   6.464
 4652POPC   D2A59548  29.169  13.654   6.764
 4652POPC   C3A59549  29.126  13.646   7.064
 4652POPC   C4A59550  29.142  13.637   7.364
 4652POPC   C1B59551  29.345  13.528   6.464
 4652POPC   C2B59552  29.370  13.565   6.764
 4652POPC   C3B59553  29.333  13.514   7.064
 4652POPC   C4B59554  29.336  13.544   7.364
 4653POPC   NC359555   5.069  29.966   5.564
 4653POPC   PO459556   5.126  29.899   5.864
 4653POPC   GL159557   5.132  29.929   6.164
 4653POPC   GL259558   5.185  29.872   6.164
 4653POPC   C1A59559   5.107  29.934   6.464
 4653POPC   D2A59560   5.053  29.899   6.764
 4653POPC   C3A59561   5.126  29.947   7.064
 4653POPC   C4A59562   5.114  29.956   7.364
 4653POPC   C1B59563   5.315  29.934   6.464
 4653POPC   C2B59564   5.375  29.921   6.764
 4653POPC   C3B59565   5.390  29.929   7.064
 4653POPC   C4B59566   5.392  29.945   7.364
 4654POPC   NC359567   8.246  39.963   5.564
 4654POPC   PO459568   8.207  39.966   5.864
 4654POPC   GL159569   8.211  40.001   6.164
 4654POPC   GL259570   8.146  39.891   6.164
 4654POPC   C1A59571   8.238  39.974   6.464
 4654POPC   D2A59572   8.164  40.016   6.764
 4654POPC   C3A59573   8.172  40.012   7.064
 4654POPC   C4A59574   8.179  40.036   7.364
 4654POPC   C1B59575   8.122  39.720   6.464
 4654POPC   C2B59576   8.127  39.714   6.764
 4654POPC   C3B59577   8.176  39.752   7.064
 4654POPC   C4B59578   8.177  39.801   7.364
 4655POPC   NC359579  34.566  32.261   5.564
 4655POPC   PO459580  34.577  32.228   5.864
 4655POPC   GL159581  34.531  32.256   6.164
 4655POPC   GL259582  34.553  32.378   6.164
 4655POPC   C1A59583  34.610  32.244   6.464
 4655POPC   D2A59584  34.625  32.251   6.764
 4655POPC   C3A59585  34.586  32.277   7.064
 4655POPC   C4A59586  34.552  32.280   7.364
 4655POPC   C1B59587  34.446  32.455   6.464
 4655POPC   C2B59588  34.507  32.474   6.764
 4655POPC   C3B59589  34.502  32.493   7.064
 4655POPC   C4B59590  34.418  32.461   7.364
 4656POPC   NC359591  42.344  36.171   5.564
 4656POPC   PO459592  42.333  36.108   5.864
 4656POPC   GL159593  42.329  36.153   6.164
 4656POPC   GL259594  42.442  36.145   6.164
 4656POPC   C1A59595  42.334  36.175   6.464
 4656POPC   D2A59596  42.305  36.126   6.764
 4656POPC   C3A59597  42.380  36.136   7.064
 4656POPC   C4A59598  42.293  36.138   7.364
 4656POPC   C1B59599  42.549  36.255   6.464
 4656POPC   C2B59600  42.567  36.246   6.764
 4656POPC   C3B59601  42.571  36.191   7.064
 4656POPC   C4B59602  42.530  36.224   7.364
 4657POPC   NC359603  43.063  28.393   5.564
 4657POPC   PO459604  43.141  28.365   5.864
 4657POPC   GL159605  43.096  28.345   6.164
 4657POPC   GL259606  43.165  28.520   6.164
 4657POPC   C1A59607  43.121  28.381   6.464
 4657POPC   D2A59608  43.093  28.410   6.764
 4657POPC   C3A59609  43.146  28.329   7.064
 4657POPC   C4A59610  43.137  28.390   7.364
 4657POPC   C1B59611  43.221  28.656   6.464
 4657POPC   C2B59612  43.200  28.581   6.764
 4657POPC   C3B59613  43.136  28.626   7.064
 4657POPC   C4B59614  43.185  28.611   7.364
 4658POPC   NC359615  29.136  26.827   5.564
 4658POPC   PO459616  29.137  26.781   5.864
 4658POPC   GL159617  29.096  26.834   6.164
 4658POPC   GL259618  29.113  26.897   6.164
 4658POPC   C1A59619  29.187  26.859   6.464
 4658POPC   D2A59620  29.124  26.845   6.764
 4658POPC   C3A59621  29.164  26.852   7.064
 4658POPC   C4A59622  29.115  26.835   7.364
 4658POPC   C1B59623  29.088  27.068   6.464
 4658POPC   C2B59624  29.058  27.043   6.764
 4658POPC   C3B59625  29.144  27.112   7.064
 4658POPC   C4B59626  29.141  27.026   7.364
 4659POPC   NC359627  22.975   8.999   5.564
 4659POPC   PO459628  22.897   8.985   5.864
 4659POPC   GL159629  22.929   8.960   6.164
 4659POPC   GL259630  23.083   8.951   6.164
 4659POPC   C1A59631  22.969   8.931   6.464
 4659POPC   D2A59632  22.908   8.996   6.764
 4659POPC   C3A59633  22.929   9.014   7.064
 4659POPC   C4A59634  22.897   8.954   7.364
 4659POPC   C1B59635  23.129   8.878   6.464
 4659POPC   C2B59636  23.139   8.850   6.764
 4659POPC   C3B59637  23.135   8.831   7.064
 4659POPC   C4B59638  23.124   8.881   7.364
 4660POPC   NC359639  19.048  34.624   5.564
 4660POPC   PO459640  19.089  34.605   5.864
 4660POPC   GL159641  19.052  34.623   6.164
 4660POPC   GL259642  19.150  34.646   6.164
 4660POPC   C1A59643  19.101  34.554   6.464
 4660POPC   D2A59644  19.105  34.611   6.764
 4660POPC   C3A59645  19.057  34.616   7.064
 4660POPC   C4A59646  19.027  34.599   7.364
 4660POPC   C1B59647  19.205  34.775   6.464
 4660POPC   C2B59648  19.242  34.733   6.764
 4660POPC   C3B59649  19.230  34.729   7.064
 4660POPC   C4B59650  19.251  34.747   7.364
 4661POPC   NC359651  15.924  19.876   5.564
 4661POPC   PO459652  15.973  19.816   5.864
 4661POPC   GL159653  15.917  19.838   6.164
 4661POPC   GL259654  15.955  19.982   6.164
 4661POPC   C1A59655  15.915  19.856   6.464
 4661POPC   D2A59656  15.988  19.866   6.764
 4661POPC   C3A59657  15.933  19.827   7.064
 4661POPC   C4A59658  15.994  19.846   7.364
 4661POPC   C1B59659  15.915  20.061   6.464
 4661POPC   C2B59660  15.821  20.095   6.764
 4661POPC   C3B59661  15.917  20.069   7.064
 4661POPC   C4B59662  15.890  20.024   7.364
 4662POPC   NC359663  29.871  36.952   5.564
 4662POPC   PO459664  29.897  36.891   5.864
 4662POPC   GL159665  29.934  36.859   6.164
 4662POPC   GL259666  30.050  36.901   6.164
 4662POPC   C1A59667  29.896  36.899   6.464
 4662POPC   D2A59668  29.893  36.890   6.764
 4662POPC   C3A59669  29.927  36.871   7.064
 4662POPC   C4A59670  29.949  36.948   7.364
 4662POPC   C1B59671  30.198  36.908   6.464
 4662POPC   C2B59672  30.149  36.909   6.764
 4662POPC   C3B59673  30.146  36.919   7.064
 4662POPC   C4B59674  30.140  36.928   7.364
 4663POPC   NC359675  25.234   1.197   5.564
 4663POPC   PO459676  25.296   1.190   5.864
 4663POPC   GL159677  25.272   1.185   6.164
 4663POPC   GL259678  25.223   1.339   6.164
 4663POPC   C1A59679  25.272   1.168   6.464
 4663POPC   D2A59680  25.279   1.234   6.764
 4663POPC   C3A59681  25.312   1.242   7.064
 4663POPC   C4A59682  25.310   1.250   7.364
 4663POPC   C1B59683  25.219   1.468   6.464
 4663POPC   C2B59684  25.159   1.433   6.764
 4663POPC   C3B59685  25.204   1.455   7.064
 4663POPC   C4B59686  25.187   1.410   7.364
 4664POPC   NC359687  31.465  35.334   5.564
 4664POPC   PO459688  31.497  35.304   5.864
 4664POPC   GL159689  31.479  35.337   6.164
 4664POPC   GL259690  31.519  35.280   6.164
 4664POPC   C1A59691  31.467  35.363   6.464
 4664POPC   D2A59692  31.518  35.322   6.764
 4664POPC   C3A59693  31.487  35.393   7.064
 4664POPC   C4A59694  31.506  35.363   7.364
 4664POPC   C1B59695  31.657  35.180   6.464
 4664POPC   C2B59696  31.655  35.224   6.764
 4664POPC   C3B59697  31.667  35.166   7.064
 4664POPC   C4B59698  31.670  35.182   7.364
 4665POPC   NC359699   2.748  10.530   5.564
 4665POPC   PO459700   2.778  10.518   5.864
 4665POPC   GL159701   2.800  10.490   6.164
 4665POPC   GL259702   2.795  10.392   6.164
 4665POPC   C1A59703   2.762  10.511   6.464
 4665POPC   D2A59704   2.795  10.511   6.764
 4665POPC   C3A59705   2.743  10.549   7.064
 4665POPC   C4A59706   2.774  10.509   7.364
 4665POPC   C1B59707   2.763  10.256   6.464
 4665POPC   C2B59708   2.770  10.229   6.764
 4665POPC   C3B59709   2.762  10.234   7.064
 4665POPC   C4B59710   2.823  10.235   7.364
 4666POPC   NC359711  19.064  19.834   5.564
 4666POPC   PO459712  19.078  19.845   5.864
 4666POPC   GL159713  19.092  19.797   6.164
 4666POPC   GL259714  19.193  19.899   6.164
 4666POPC   C1A59715  19.097  19.795   6.464
 4666POPC   D2A59716  19.078  19.864   6.764
 4666POPC   C3A59717  19.100  19.791   7.064
 4666POPC   C4A59718  19.015  19.840   7.364
 4666POPC   C1B59719  19.277  19.983   6.464
 4666POPC   C2B59720  19.276  20.003   6.764
 4666POPC   C3B59721  19.213  20.037   7.064
 4666POPC   C4B59722  19.193  20.031   7.364
 4667POPC   NC359723   1.217  17.499   5.564
 4667POPC   PO459724   1.184  17.503   5.864
 4667POPC   GL159725   1.244  17.511   6.164
 4667POPC   GL259726   1.109  17.423   6.164
 4667POPC   C1A59727   1.258  17.494   6.464
 4667POPC   D2A59728   1.235  17.459   6.764
 4667POPC   C3A59729   1.250  17.536   7.064
 4667POPC   C4A59730   1.182  17.466   7.364
 4667POPC   C1B59731   0.932  17.402   6.464
 4667POPC   C2B59732   0.925  17.409   6.764
 4667POPC   C3B59733   0.989  17.390   7.064
 4667POPC   C4B59734   0.965  17.388   7.364
 4668POPC   NC359735  42.297  34.622   5.564
 4668POPC   PO459736  42.314  34.563   5.864
 4668POPC   GL159737  42.359  34.574   6.164
 4668POPC   GL259738  42.231  34.534   6.164
 4668POPC   C1A59739  42.302  34.580   6.464
 4668POPC   D2A59740  42.309  34.595   6.764
 4668POPC   C3A59741  42.328  34.585   7.064
 4668POPC   C4A59742  42.295  34.588   7.364
 4668POPC   C1B59743  42.137  34.503   6.464
 4668POPC   C2B59744  42.085  34.503   6.764
 4668POPC   C3B59745  42.056  34.525   7.064
 4668POPC   C4B59746  42.118  34.532   7.364
 4669POPC   NC359747  14.374  42.305   5.564
 4669POPC   PO459748  14.377  42.343   5.864
 4669POPC   GL159749  14.411  42.375   6.164
 4669POPC   GL259750  14.432  42.199   6.164
 4669POPC   C1A59751  14.451  42.327   6.464
 4669POPC   D2A59752  14.423  42.336   6.764
 4669POPC   C3A59753  14.359  42.363   7.064
 4669POPC   C4A59754  14.372  42.363   7.364
 4669POPC   C1B59755  14.517  42.075   6.464
 4669POPC   C2B59756  14.530  42.104   6.764
 4669POPC   C3B59757  14.504  42.108   7.064
 4669POPC   C4B59758  14.520  42.102   7.364
 4670POPC   NC359759  43.859   5.123   5.564
 4670POPC   PO459760  43.922   5.117   5.864
 4670POPC   GL159761  43.916   5.051   6.164
 4670POPC   GL259762  43.839   4.944   6.164
 4670POPC   C1A59763  43.906   5.082   6.464
 4670POPC   D2A59764  43.879   5.143   6.764
 4670POPC   C3A59765  43.849   5.106   7.064
 4670POPC   C4A59766  43.855   5.108   7.364
 4670POPC   C1B59767  43.723   4.923   6.464
 4670POPC   C2B59768  43.767   4.857   6.764
 4670POPC   C3B59769  43.707   4.892   7.064
 4670POPC   C4B59770  43.776   4.884   7.364
 4671POPC   NC359771  43.902  37.685   5.564
 4671POPC   PO459772  43.930  37.692   5.864
 4671POPC   GL159773  43.909  37.631   6.164
 4671POPC   GL259774  44.009  37.707   6.164
 4671POPC   C1A59775  43.914  37.672   6.464
 4671POPC   D2A59776  43.849  37.707   6.764
 4671POPC   C3A59777  43.889  37.726   7.064
 4671POPC   C4A59778  43.936  37.653   7.364
 4671POPC   C1B59779  44.112  37.661   6.464
 4671POPC   C2B59780  44.088  37.738   6.764
 4671POPC   C3B59781  44.102  37.659   7.064
 4671POPC   C4B59782  44.106  37.740   7.364
 4672POPC   NC359783   5.121  22.142   5.564
 4672POPC   PO459784   5.056  22.128   5.864
 4672POPC   GL159785   5.057  22.144   6.164
 4672POPC   GL259786   5.200  22.084   6.164
 4672POPC   C1A59787   5.048  22.196   6.464
 4672POPC   D2A59788   5.108  22.159   6.764
 4672POPC   C3A59789   5.082  22.200   7.064
 4672POPC   C4A59790   5.062  22.180   7.364
 4672POPC   C1B59791   5.253  21.976   6.464
 4672POPC   C2B59792   5.306  22.006   6.764
 4672POPC   C3B59793   5.318  22.015   7.064
 4672POPC   C4B59794   5.257  22.032   7.364
 4673POPC   NC359795  10.490   8.157   5.564
 4673POPC   PO459796  10.491   8.213   5.864
 4673POPC   GL159797  10.550   8.189   6.164
 4673POPC   GL259798  10.361   8.133   6.164
 4673POPC   C1A59799  10.492   8.148   6.464
 4673POPC   D2A59800  10.541   8.183   6.764
 4673POPC   C3A59801  10.510   8.243   7.064
 4673POPC   C4A59802  10.507   8.156   7.364
 4673POPC   C1B59803  10.295   8.128   6.464
 4673POPC   C2B59804  10.303   8.205   6.764
 4673POPC   C3B59805  10.301   8.165   7.064
 4673POPC   C4B59806  10.250   8.119   7.364
 4674POPC   NC359807  29.181  35.330   5.564
 4674POPC   PO459808  29.136  35.359   5.864
 4674POPC   GL159809  29.151  35.327   6.164
 4674POPC   GL259810  29.116  35.251   6.164
 4674POPC   C1A59811  29.100  35.316   6.464
 4674POPC   D2A59812  29.178  35.370   6.764
 4674POPC   C3A59813  29.185  35.334   7.064
 4674POPC   C4A59814  29.127  35.377   7.364
 4674POPC   C1B59815  29.135  35.125   6.464
 4674POPC   C2B59816  29.080  35.137   6.764
 4674POPC   C3B59817  29.074  35.062   7.064
 4674POPC   C4B59818  29.156  35.064   7.364
 4675POPC   NC359819  28.406  16.713   5.564
 4675POPC   PO459820  28.354  16.697   5.864
 4675POPC   GL159821  28.394  16.713   6.164
 4675POPC   GL259822  28.222  16.655   6.164
 4675POPC   C1A59823  28.342  16.704   6.464
 4675POPC   D2A59824  28.347  16.728   6.764
 4675POPC   C3A59825  28.386  16.742   7.064
 4675POPC   C4A59826  28.390  16.706   7.364
 4675POPC   C1B59827  28.122  16.590   6.464
 4675POPC   C2B59828  28.153  16.627   6.764
 4675POPC   C3B59829  28.166  16.578   7.064
 4675POPC   C4B59830  28.129  16.612   7.364
 4676POPC   NC359831  33.817   8.960   5.564
 4676POPC   PO459832  33.794   9.010   5.864
 4676POPC   GL159833  33.791   8.983   6.164
 4676POPC   GL259834  33.944   8.938   6.164
 4676POPC   C1A59835  33.800   8.998   6.464
 4676POPC   D2A59836  33.784   8.956   6.764
 4676POPC   C3A59837  33.811   8.985   7.064
 4676POPC   C4A59838  33.836   8.985   7.364
 4676POPC   C1B59839  34.033   8.938   6.464
 4676POPC   C2B59840  34.046   8.945   6.764
 4676POPC   C3B59841  34.027   8.961   7.064
 4676POPC   C4B59842  34.028   8.894   7.364
 4677POPC   NC359843  13.617   2.726   5.564
 4677POPC   PO459844  13.594   2.763   5.864
 4677POPC   GL159845  13.609   2.750   6.164
 4677POPC   GL259846  13.617   2.612   6.164
 4677POPC   C1A59847  13.660   2.759   6.464
 4677POPC   D2A59848  13.610   2.814   6.764
 4677POPC   C3A59849  13.676   2.812   7.064
 4677POPC   C4A59850  13.655   2.808   7.364
 4677POPC   C1B59851  13.662   2.489   6.464
 4677POPC   C2B59852  13.725   2.529   6.764
 4677POPC   C3B59853  13.674   2.526   7.064
 4677POPC   C4B59854  13.685   2.537   7.364
 4678POPC   NC359855  44.678  21.409   5.564
 4678POPC   PO459856  44.631  21.395   5.864
 4678POPC   GL159857  44.630  21.372   6.164
 4678POPC   GL259858  44.537  21.447   6.164
 4678POPC   C1A59859  44.668  21.339   6.464
 4678POPC   D2A59860  44.652  21.359   6.764
 4678POPC   C3A59861  44.707  21.339   7.064
 4678POPC   C4A59862  44.613  21.421   7.364
 4678POPC   C1B59863  44.401  21.477   6.464
 4678POPC   C2B59864  44.463  21.500   6.764
 4678POPC   C3B59865  44.405  21.475   7.064
 4678POPC   C4B59866  44.448  21.460   7.364
 4679POPC   NC359867   8.996  39.993   5.564
 4679POPC   PO459868   9.013  39.985   5.864
 4679POPC   GL159869   8.990  40.028   6.164
 4679POPC   GL259870   9.106  39.900   6.164
 4679POPC   C1A59871   8.990  39.996   6.464
 4679POPC   D2A59872   8.962  39.984   6.764
 4679POPC   C3A59873   8.940  40.006   7.064
 4679POPC   C4A59874   8.958  39.992   7.364
 4679POPC   C1B59875   9.150  39.877   6.464
 4679POPC   C2B59876   9.215  39.906   6.764
 4679POPC   C3B59877   9.237  39.848   7.064
 4679POPC   C4B59878   9.234  39.874   7.364
 4680POPC   NC359879  40.006  22.117   5.564
 4680POPC   PO459880  40.026  22.138   5.864
 4680POPC   GL159881  40.034  22.112   6.164
 4680POPC   GL259882  39.962  22.044   6.164
 4680POPC   C1A59883  39.965  22.148   6.464
 4680POPC   D2A59884  40.014  22.134   6.764
 4680POPC   C3A59885  39.989  22.186   7.064
 4680POPC   C4A59886  40.032  22.113   7.364
 4680POPC   C1B59887  39.883  21.891   6.464
 4680POPC   C2B59888  39.936  21.952   6.764
 4680POPC   C3B59889  39.970  21.898   7.064
 4680POPC   C4B59890  39.954  21.944   7.364
 4681POPC   NC359891  42.315  31.482   5.564
 4681POPC   PO459892  42.291  31.432   5.864
 4681POPC   GL159893  42.326  31.459   6.164
 4681POPC   GL259894  42.476  31.520   6.164
 4681POPC   C1A59895  42.285  31.521   6.464
 4681POPC   D2A59896  42.327  31.522   6.764
 4681POPC   C3A59897  42.351  31.498   7.064
 4681POPC   C4A59898  42.374  31.488   7.364
 4681POPC   C1B59899  42.577  31.676   6.464
 4681POPC   C2B59900  42.502  31.591   6.764
 4681POPC   C3B59901  42.513  31.598   7.064
 4681POPC   C4B59902  42.519  31.611   7.364
 4682POPC   NC359903  19.080  38.462   5.564
 4682POPC   PO459904  19.088  38.450   5.864
 4682POPC   GL159905  19.009  38.408   6.164
 4682POPC   GL259906  18.884  38.472   6.164
 4682POPC   C1A59907  19.099  38.455   6.464
 4682POPC   D2A59908  19.097  38.497   6.764
 4682POPC   C3A59909  19.037  38.433   7.064
 4682POPC   C4A59910  19.030  38.475   7.364
 4682POPC   C1B59911  18.777  38.437   6.464
 4682POPC   C2B59912  18.776  38.465   6.764
 4682POPC   C3B59913  18.808  38.482   7.064
 4682POPC   C4B59914  18.778  38.486   7.364
 4683POPC   NC359915   9.781  16.734   5.564
 4683POPC   PO459916   9.790  16.711   5.864
 4683POPC   GL159917   9.787  16.777   6.164
 4683POPC   GL259918   9.859  16.724   6.164
 4683POPC   C1A59919   9.792  16.682   6.464
 4683POPC   D2A59920   9.783  16.690   6.764
 4683POPC   C3A59921   9.794  16.702   7.064
 4683POPC   C4A59922   9.765  16.751   7.364
 4683POPC   C1B59923  10.014  16.854   6.464
 4683POPC   C2B59924  10.029  16.802   6.764
 4683POPC   C3B59925   9.984  16.772   7.064
 4683POPC   C4B59926  10.025  16.818   7.364
 4684POPC   NC359927  27.573  44.669   5.564
 4684POPC   PO459928  27.638  44.620   5.864
 4684POPC   GL159929  27.549  44.621   6.164
 4684POPC   GL259930  27.732  44.658   6.164
 4684POPC   C1A59931  27.599  44.616   6.464
 4684POPC   D2A59932  27.575  44.684   6.764
 4684POPC   C3A59933  27.636  44.651   7.064
 4684POPC   C4A59934  27.583  44.657   7.364
 4684POPC   C1B59935  27.873  44.637   6.464
 4684POPC   C2B59936  27.854  44.587   6.764
 4684POPC   C3B59937  27.791  44.584   7.064
 4684POPC   C4B59938  27.811  44.614   7.364
 4685POPC   NC359939  15.132  31.498   5.564
 4685POPC   PO459940  15.167  31.500   5.864
 4685POPC   GL159941  15.173  31.486   6.164
 4685POPC   GL259942  15.023  31.494   6.164
 4685POPC   C1A59943  15.132  31.445   6.464
 4685POPC   D2A59944  15.141  31.472   6.764
 4685POPC   C3A59945  15.216  31.490   7.064
 4685POPC   C4A59946  15.172  31.462   7.364
 4685POPC   C1B59947  14.918  31.451   6.464
 4685POPC   C2B59948  14.926  31.519   6.764
 4685POPC   C3B59949  14.893  31.464   7.064
 4685POPC   C4B59950  14.934  31.440   7.364
 4686POPC   NC359951  27.559   9.714   5.564
 4686POPC   PO459952  27.554   9.720   5.864
 4686POPC   GL159953  27.576   9.767   6.164
 4686POPC   GL259954  27.559   9.894   6.164
 4686POPC   C1A59955  27.543   9.772   6.464
 4686POPC   D2A59956  27.623   9.732   6.764
 4686POPC   C3A59957  27.617   9.771   7.064
 4686POPC   C4A59958  27.620   9.740   7.364
 4686POPC   C1B59959  27.642  10.018   6.464
 4686POPC   C2B59960  27.617   9.973   6.764
 4686POPC   C3B59961  27.580   9.987   7.064
 4686POPC   C4B59962  27.606  10.020   7.364
 4687POPC   NC359963   1.955  43.921   5.564
 4687POPC   PO459964   1.987  43.919   5.864
 4687POPC   GL159965   1.979  43.882   6.164
 4687POPC   GL259966   2.109  43.872   6.164
 4687POPC   C1A59967   1.942  43.858   6.464
 4687POPC   D2A59968   2.010  43.843   6.764
 4687POPC   C3A59969   1.999  43.859   7.064
 4687POPC   C4A59970   1.964  43.909   7.364
 4687POPC   C1B59971   2.213  43.810   6.464
 4687POPC   C2B59972   2.207  43.744   6.764
 4687POPC   C3B59973   2.188  43.747   7.064
 4687POPC   C4B59974   2.189  43.819   7.364
 4688POPC   NC359975   9.020  44.657   5.564
 4688POPC   PO459976   8.931  44.691   5.864
 4688POPC   GL159977   8.971  44.616   6.164
 4688POPC   GL259978   8.949  44.551   6.164
 4688POPC   C1A59979   8.937  44.670   6.464
 4688POPC   D2A59980   8.977  44.630   6.764
 4688POPC   C3A59981   8.955  44.680   7.064
 4688POPC   C4A59982   9.021  44.655   7.364
 4688POPC   C1B59983   8.972  44.446   6.464
 4688POPC   C2B59984   8.994  44.420   6.764
 4688POPC   C3B59985   9.009  44.375   7.064
 4688POPC   C4B59986   9.053  44.422   7.364
 4689POPC   NC359987   5.895   7.429   5.564
 4689POPC   PO459988   5.878   7.396   5.864
 4689POPC   GL159989   5.894   7.373   6.164
 4689POPC   GL259990   5.778   7.301   6.164
 4689POPC   C1A59991   5.902   7.445   6.464
 4689POPC   D2A59992   5.902   7.438   6.764
 4689POPC   C3A59993   5.917   7.389   7.064
 4689POPC   C4A59994   5.833   7.396   7.364
 4689POPC   C1B59995   5.741   7.220   6.464
 4689POPC   C2B59996   5.767   7.211   6.764
 4689POPC   C3B59997   5.732   7.220   7.064
 4689POPC   C4B59998   5.744   7.228   7.364
 4690POPC   NC359999   6.607  16.780   5.564
 4690POPC   PO460000   6.688  16.697   5.864
 4690POPC   GL160001   6.598  16.714   6.164
 4690POPC   GL260002   6.580  16.833   6.164
 4690POPC   C1A60003   6.650  16.724   6.464
 4690POPC   D2A60004   6.679  16.695   6.764
 4690POPC   C3A60005   6.666  16.743   7.064
 4690POPC   C4A60006   6.602  16.736   7.364
 4690POPC   C1B60007   6.581  16.987   6.464
 4690POPC   C2B60008   6.659  17.014   6.764
 4690POPC   C3B60009   6.629  16.979   7.064
 4690POPC   C4B60010   6.653  16.936   7.364
 4691POPC   NC360011  34.620   1.218   5.564
 4691POPC   PO460012  34.604   1.248   5.864
 4691POPC   GL160013  34.531   1.180   6.164
 4691POPC   GL260014  34.530   1.132   6.164
 4691POPC   C1A60015  34.528   1.250   6.464
 4691POPC   D2A60016  34.533   1.193   6.764
 4691POPC   C3A60017  34.598   1.228   7.064
 4691POPC   C4A60018  34.552   1.193   7.364
 4691POPC   C1B60019  34.554   0.957   6.464
 4691POPC   C2B60020  34.529   0.974   6.764
 4691POPC   C3B60021  34.565   0.940   7.064
 4691POPC   C4B60022  34.590   1.004   7.364
 4692POPC   NC360023   5.141   8.962   5.564
 4692POPC   PO460024   5.059   8.973   5.864
 4692POPC   GL160025   5.055   8.977   6.164
 4692POPC   GL260026   5.050   9.062   6.164
 4692POPC   C1A60027   5.117   9.017   6.464
 4692POPC   D2A60028   5.140   8.949   6.764
 4692POPC   C3A60029   5.062   8.937   7.064
 4692POPC   C4A60030   5.050   8.935   7.364
 4692POPC   C1B60031   4.965   9.136   6.464
 4692POPC   C2B60032   4.891   9.170   6.764
 4692POPC   C3B60033   4.976   9.139   7.064
 4692POPC   C4B60034   4.882   9.197   7.364
 4693POPC   NC360035  22.132  33.002   5.564
 4693POPC   PO460036  22.208  33.069   5.864
 4693POPC   GL160037  22.188  33.056   6.164
 4693POPC   GL260038  22.075  32.922   6.164
 4693POPC   C1A60039  22.188  32.977   6.464
 4693POPC   D2A60040  22.126  32.978   6.764
 4693POPC   C3A60041  22.162  32.992   7.064
 4693POPC   C4A60042  22.178  33.069   7.364
 4693POPC   C1B60043  22.104  32.749   6.464
 4693POPC   C2B60044  22.080  32.805   6.764
 4693POPC   C3B60045  22.069  32.778   7.064
 4693POPC   C4B60046  22.093  32.811   7.364
 4694POPC   NC360047  11.302  15.909   5.564
 4694POPC   PO460048  11.274  15.912   5.864
 4694POPC   GL160049  11.286  15.957   6.164
 4694POPC   GL260050  11.299  16.064   6.164
 4694POPC   C1A60051  11.255  15.907   6.464
 4694POPC   D2A60052  11.330  15.968   6.764
 4694POPC   C3A60053  11.291  15.964   7.064
 4694POPC   C4A60054  11.348  16.000   7.364
 4694POPC   C1B60055  11.241  16.233   6.464
 4694POPC   C2B60056  11.262  16.167   6.764
 4694POPC   C3B60057  11.323  16.195   7.064
 4694POPC   C4B60058  11.310  16.183   7.364
 4695POPC   NC360059  26.779   3.546   5.564
 4695POPC   PO460060  26.859   3.514   5.864
 4695POPC   GL160061  26.810   3.511   6.164
 4695POPC   GL260062  26.975   3.554   6.164
 4695POPC   C1A60063  26.800   3.577   6.464
 4695POPC   D2A60064  26.825   3.536   6.764
 4695POPC   C3A60065  26.853   3.579   7.064
 4695POPC   C4A60066  26.859   3.527   7.364
 4695POPC   C1B60067  27.078   3.504   6.464
 4695POPC   C2B60068  27.030   3.521   6.764
 4695POPC   C3B60069  27.024   3.448   7.064
 4695POPC   C4B60070  27.029   3.479   7.364
 4696POPC   NC360071  41.586  26.818   5.564
 4696POPC   PO460072  41.568  26.800   5.864
 4696POPC   GL160073  41.600  26.866   6.164
 4696POPC   GL260074  41.547  26.734   6.164
 4696POPC   C1A60075  41.534  26.831   6.464
 4696POPC   D2A60076  41.604  26.853   6.764
 4696POPC   C3A60077  41.539  26.838   7.064
 4696POPC   C4A60078  41.549  26.797   7.364
 4696POPC   C1B60079  41.569  26.582   6.464
 4696POPC   C2B60080  41.518  26.538   6.764
 4696POPC   C3B60081  41.543  26.579   7.064
 4696POPC   C4B60082  41.515  26.534   7.364
 4697POPC   NC360083  33.758  31.507   5.564
 4697POPC   PO460084  33.753  31.506   5.864
 4697POPC   GL160085  33.785  31.458   6.164
 4697POPC   GL260086  33.701  31.334   6.164
 4697POPC   C1A60087  33.801  31.446   6.464
 4697POPC   D2A60088  33.778  31.477   6.764
 4697POPC   C3A60089  33.794  31.440   7.064
 4697POPC   C4A60090  33.827  31.477   7.364
 4697POPC   C1B60091  33.667  31.326   6.464
 4697POPC   C2B60092  33.665  31.246   6.764
 4697POPC   C3B60093  33.638  31.239   7.064
 4697POPC   C4B60094  33.661  31.332   7.364
 4698POPC   NC360095  39.272  24.534   5.564
 4698POPC   PO460096  39.268  24.487   5.864
 4698POPC   GL160097  39.232  24.524   6.164
 4698POPC   GL260098  39.130  24.423   6.164
 4698POPC   C1A60099  39.212  24.517   6.464
 4698POPC   D2A60100  39.250  24.442   6.764
 4698POPC   C3A60101  39.252  24.449   7.064
 4698POPC   C4A60102  39.192  24.493   7.364
 4698POPC   C1B60103  39.018  24.366   6.464
 4698POPC   C2B60104  38.980  24.398   6.764
 4698POPC   C3B60105  39.018  24.362   7.064
 4698POPC   C4B60106  38.998  24.353   7.364
 4699POPC   NC360107  22.201  38.502   5.564
 4699POPC   PO460108  22.202  38.411   5.864
 4699POPC   GL160109  22.122  38.476   6.164
 4699POPC   GL260110  22.238  38.387   6.164
 4699POPC   C1A60111  22.184  38.460   6.464
 4699POPC   D2A60112  22.140  38.488   6.764
 4699POPC   C3A60113  22.130  38.503   7.064
 4699POPC   C4A60114  22.174  38.433   7.364
 4699POPC   C1B60115  22.245  38.219   6.464
 4699POPC   C2B60116  22.236  38.184   6.764
 4699POPC   C3B60117  22.225  38.239   7.064
 4699POPC   C4B60118  22.243  38.199   7.364
 4700POPC   NC360119   6.600  22.916   5.564
 4700POPC   PO460120   6.657  22.982   5.864
 4700POPC   GL160121   6.682  22.932   6.164
 4700POPC   GL260122   6.543  22.899   6.164
 4700POPC   C1A60123   6.654  22.916   6.464
 4700POPC   D2A60124   6.682  22.925   6.764
 4700POPC   C3A60125   6.633  22.955   7.064
 4700POPC   C4A60126   6.642  22.967   7.364
 4700POPC   C1B60127   6.448  22.926   6.464
 4700POPC   C2B60128   6.352  22.941   6.764
 4700POPC   C3B60129   6.381  22.844   7.064
 4700POPC   C4B60130   6.414  22.882   7.364
 4701POPC   NC360131  27.544   5.142   5.564
 4701POPC   PO460132  27.604   5.113   5.864
 4701POPC   GL160133  27.609   5.131   6.164
 4701POPC   GL260134  27.598   4.995   6.164
 4701POPC   C1A60135  27.617   5.059   6.464
 4701POPC   D2A60136  27.553   5.055   6.764
 4701POPC   C3A60137  27.582   5.099   7.064
 4701POPC   C4A60138  27.638   5.114   7.364
 4701POPC   C1B60139  27.544   4.895   6.464
 4701POPC   C2B60140  27.537   4.831   6.764
 4701POPC   C3B60141  27.595   4.804   7.064
 4701POPC   C4B60142  27.595   4.810   7.364
 4702POPC   NC360143  29.886  26.059   5.564
 4702POPC   PO460144  29.937  26.065   5.864
 4702POPC   GL160145  29.888  26.078   6.164
 4702POPC   GL260146  30.055  26.108   6.164
 4702POPC   C1A60147  29.877  26.063   6.464
 4702POPC   D2A60148  29.886  26.053   6.764
 4702POPC   C3A60149  29.965  26.071   7.064
 4702POPC   C4A60150  29.878  26.057   7.364
 4702POPC   C1B60151  30.188  26.159   6.464
 4702POPC   C2B60152  30.136  26.133   6.764
 4702POPC   C3B60153  30.122  26.190   7.064
 4702POPC   C4B60154  30.149  26.151   7.364
 4703POPC   NC360155  27.618  15.226   5.564
 4703POPC   PO460156  27.569  15.189   5.864
 4703POPC   GL160157  27.553  15.173   6.164
 4703POPC   GL260158  27.455  15.126   6.164
 4703POPC   C1A60159  27.614  15.137   6.464
 4703POPC   D2A60160  27.622  15.180   6.764
 4703POPC   C3A60161  27.624  15.141   7.064
 4703POPC   C4A60162  27.635  15.210   7.364
 4703POPC   C1B60163  27.305  15.140   6.464
 4703POPC   C2B60164  27.338  15.084   6.764
 4703POPC   C3B60165  27.340  15.076   7.064
 4703POPC   C4B60166  27.371  15.109   7.364
 4704POPC   NC360167  12.107  22.148   5.564
 4704POPC   PO460168  12.031  22.148   5.864
 4704POPC   GL160169  12.039  22.208   6.164
 4704POPC   GL260170  11.943  22.163   6.164
 4704POPC   C1A60171  12.099  22.206   6.464
 4704POPC   D2A60172  12.099  22.121   6.764
 4704POPC   C3A60173  12.040  22.175   7.064
 4704POPC   C4A60174  12.049  22.114   7.364
 4704POPC   C1B60175  11.813  22.210   6.464
 4704POPC   C2B60176  11.787  22.240   6.764
 4704POPC   C3B60177  11.854  22.183   7.064
 4704POPC   C4B60178  11.786  22.171   7.364
 4705POPC   NC360179  21.412  22.940   5.564
 4705POPC   PO460180  21.397  22.932   5.864
 4705POPC   GL160181  21.340  22.901   6.164
 4705POPC   GL260182  21.379  23.061   6.164
 4705POPC   C1A60183  21.371  22.968   6.464
 4705POPC   D2A60184  21.400  22.961   6.764
 4705POPC   C3A60185  21.413  22.984   7.064
 4705POPC   C4A60186  21.341  22.974   7.364
 4705POPC   C1B60187  21.250  23.134   6.464
 4705POPC   C2B60188  21.307  23.161   6.764
 4705POPC   C3B60189  21.314  23.207   7.064
 4705POPC   C4B60190  21.347  23.170   7.364
 4706POPC   NC360191  23.749  42.360   5.564
 4706POPC   PO460192  23.711  42.359   5.864
 4706POPC   GL160193  23.703  42.367   6.164
 4706POPC   GL260194  23.791  42.458   6.164
 4706POPC   C1A60195  23.737  42.360   6.464
 4706POPC   D2A60196  23.754  42.292   6.764
 4706POPC   C3A60197  23.727  42.315   7.064
 4706POPC   C4A60198  23.749  42.372   7.364
 4706POPC   C1B60199  23.835  42.574   6.464
 4706POPC   C2B60200  23.846  42.581   6.764
 4706POPC   C3B60201  23.827  42.558   7.064
 4706POPC   C4B60202  23.851  42.555   7.364
 4707POPC   NC360203  35.392  22.169   5.564
 4707POPC   PO460204  35.395  22.146   5.864
 4707POPC   GL160205  35.321  22.126   6.164
 4707POPC   GL260206  35.224  22.087   6.164
 4707POPC   C1A60207  35.351  22.163   6.464
 4707POPC   D2A60208  35.369  22.195   6.764
 4707POPC   C3A60209  35.304  22.128   7.064
 4707POPC   C4A60210  35.348  22.207   7.364
 4707POPC   C1B60211  35.149  22.089   6.464
 4707POPC   C2B60212  35.138  22.041   6.764
 4707POPC   C3B60213  35.121  22.099   7.064
 4707POPC   C4B60214  35.155  22.091   7.364
 4708POPC   NC360215  28.404  18.248   5.564
 4708POPC   PO460216  28.371  18.293   5.864
 4708POPC   GL160217  28.398  18.313   6.164
 4708POPC   GL260218  28.427  18.309   6.164
 4708POPC   C1A60219  28.372  18.256   6.464
 4708POPC   D2A60220  28.349  18.269   6.764
 4708POPC   C3A60221  28.413  18.250   7.064
 4708POPC   C4A60222  28.377  18.321   7.364
 4708POPC   C1B60223  28.577  18.438   6.464
 4708POPC   C2B60224  28.555  18.417   6.764
 4708POPC   C3B60225  28.596  18.403   7.064
 4708POPC   C4B60226  28.554  18.405   7.364
 4709POPC   NC360227  38.457  22.967   5.564
 4709POPC   PO460228  38.421  22.976   5.864
 4709POPC   GL160229  38.439  22.969   6.164
 4709POPC   GL260230  38.474  23.048   6.164
 4709POPC   C1A60231  38.480  22.962   6.464
 4709POPC   D2A60232  38.483  22.897   6.764
 4709POPC   C3A60233  38.472  22.909   7.064
 4709POPC   C4A60234  38.416  22.937   7.364
 4709POPC   C1B60235  38.495  23.190   6.464
 4709POPC   C2B60236  38.473  23.210   6.764
 4709POPC   C3B60237  38.449  23.148   7.064
 4709POPC   C4B60238  38.487  23.145   7.364
 4710POPC   NC360239   1.184   4.300   5.564
 4710POPC   PO460240   1.205   4.312   5.864
 4710POPC   GL160241   1.209   4.269   6.164
 4710POPC   GL260242   1.120   4.381   6.164
 4710POPC   C1A60243   1.176   4.347   6.464
 4710POPC   D2A60244   1.249   4.281   6.764
 4710POPC   C3A60245   1.228   4.285   7.064
 4710POPC   C4A60246   1.214   4.270   7.364
 4710POPC   C1B60247   1.017   4.522   6.464
 4710POPC   C2B60248   1.017   4.462   6.764
 4710POPC   C3B60249   1.071   4.432   7.064
 4710POPC   C4B60250   1.060   4.431   7.364
 4711POPC   NC360251  29.130  37.700   5.564
 4711POPC   PO460252  29.180  37.655   5.864
 4711POPC   GL160253  29.154  37.695   6.164
 4711POPC   GL260254  29.131  37.844   6.164
 4711POPC   C1A60255  29.099  37.713   6.464
 4711POPC   D2A60256  29.107  37.638   6.764
 4711POPC   C3A60257  29.189  37.705   7.064
 4711POPC   C4A60258  29.097  37.637   7.364
 4711POPC   C1B60259  29.017  37.876   6.464
 4711POPC   C2B60260  29.002  37.955   6.764
 4711POPC   C3B60261  29.052  37.874   7.064
 4711POPC   C4B60262  29.012  37.899   7.364
 4712POPC   NC360263  13.617  12.803   5.564
 4712POPC   PO460264  13.655  12.885   5.864
 4712POPC   GL160265  13.617  12.811   6.164
 4712POPC   GL260266  13.655  12.943   6.164
 4712POPC   C1A60267  13.632  12.805   6.464
 4712POPC   D2A60268  13.668  12.807   6.764
 4712POPC   C3A60269  13.625  12.840   7.064
 4712POPC   C4A60270  13.600  12.809   7.364
 4712POPC   C1B60271  13.701  13.055   6.464
 4712POPC   C2B60272  13.661  13.097   6.764
 4712POPC   C3B60273  13.648  13.122   7.064
 4712POPC   C4B60274  13.691  13.137   7.364
 4713POPC   NC360275  15.920   4.281   5.564
 4713POPC   PO460276  15.991   4.325   5.864
 4713POPC   GL160277  16.001   4.268   6.164
 4713POPC   GL260278  15.911   4.229   6.164
 4713POPC   C1A60279  15.990   4.272   6.464
 4713POPC   D2A60280  15.916   4.326   6.764
 4713POPC   C3A60281  15.963   4.303   7.064
 4713POPC   C4A60282  15.963   4.286   7.364
 4713POPC   C1B60283  15.926   4.035   6.464
 4713POPC   C2B60284  15.928   4.038   6.764
 4713POPC   C3B60285  15.848   4.070   7.064
 4713POPC   C4B60286  15.910   4.061   7.364
 4714POPC   NC360287  29.928  33.794   5.564
 4714POPC   PO460288  29.942  33.768   5.864
 4714POPC   GL160289  29.940  33.838   6.164
 4714POPC   GL260290  29.898  33.728   6.164
 4714POPC   C1A60291  29.962  33.752   6.464
 4714POPC   D2A60292  29.920  33.791   6.764
 4714POPC   C3A60293  29.944  33.842   7.064
 4714POPC   C4A60294  29.967  33.805   7.364
 4714POPC   C1B60295  29.782  33.565   6.464
 4714POPC   C2B60296  29.804  33.584   6.764
 4714POPC   C3B60297  29.872  33.594   7.064
 4714POPC   C4B60298  29.795  33.585   7.364
 4715POPC   NC360299  33.024  23.673   5.564
 4715POPC   PO460300  33.028  23.714   5.864
 4715POPC   GL160301  33.036  23.699   6.164
 4715POPC   GL260302  32.993  23.845   6.164
 4715POPC   C1A60303  33.064  23.688   6.464
 4715POPC   D2A60304  33.000  23.721   6.764
 4715POPC   C3A60305  33.069  23.712   7.064
 4715POPC   C4A60306  32.979  23.692   7.364
 4715POPC   C1B60307  32.913  23.932   6.464
 4715POPC   C2B60308  32.924  23.902   6.764
 4715POPC   C3B60309  32.906  23.883   7.064
 4715POPC   C4B60310  32.889  23.961   7.364
 4716POPC   NC360311  39.217  11.328   5.564
 4716POPC   PO460312  39.279  11.291   5.864
 4716POPC   GL160313  39.238  11.305   6.164
 4716POPC   GL260314  39.384  11.286   6.164
 4716POPC   C1A60315  39.277  11.298   6.464
 4716POPC   D2A60316  39.200  11.293   6.764
 4716POPC   C3A60317  39.207  11.348   7.064
 4716POPC   C4A60318  39.268  11.286   7.364
 4716POPC   C1B60319  39.430  11.237   6.464
 4716POPC   C2B60320  39.504  11.306   6.764
 4716POPC   C3B60321  39.512  11.279   7.064
 4716POPC   C4B60322  39.506  11.280   7.364
 4717POPC   NC360323   1.949   6.607   5.564
 4717POPC   PO460324   1.973   6.603   5.864
 4717POPC   GL160325   1.975   6.641   6.164
 4717POPC   GL260326   1.913   6.760   6.164
 4717POPC   C1A60327   2.035   6.601   6.464
 4717POPC   D2A60328   1.967   6.615   6.764
 4717POPC   C3A60329   1.945   6.633   7.064
 4717POPC   C4A60330   1.972   6.659   7.364
 4717POPC   C1B60331   1.878   6.904   6.464
 4717POPC   C2B60332   1.899   6.895   6.764
 4717POPC   C3B60333   1.948   6.843   7.064
 4717POPC   C4B60334   1.869   6.839   7.364
 4718POPC   NC360335  29.921   8.976   5.564
 4718POPC   PO460336  29.950   8.990   5.864
 4718POPC   GL160337  29.895   9.007   6.164
 4718POPC   GL260338  29.986   8.861   6.164
 4718POPC   C1A60339  29.934   8.932   6.464
 4718POPC   D2A60340  29.945   8.927   6.764
 4718POPC   C3A60341  29.925   8.987   7.064
 4718POPC   C4A60342  29.953   8.984   7.364
 4718POPC   C1B60343  29.969   8.710   6.464
 4718POPC   C2B60344  30.001   8.771   6.764
 4718POPC   C3B60345  30.048   8.732   7.064
 4718POPC   C4B60346  30.026   8.703   7.364
 4719POPC   NC360347  22.130   9.750   5.564
 4719POPC   PO460348  22.181   9.797   5.864
 4719POPC   GL160349  22.125   9.735   6.164
 4719POPC   GL260350  22.237   9.721   6.164
 4719POPC   C1A60351  22.171   9.739   6.464
 4719POPC   D2A60352  22.178   9.744   6.764
 4719POPC   C3A60353  22.131   9.780   7.064
 4719POPC   C4A60354  22.139   9.785   7.364
 4719POPC   C1B60355  22.371   9.665   6.464
 4719POPC   C2B60356  22.411   9.660   6.764
 4719POPC   C3B60357  22.355   9.654   7.064
 4719POPC   C4B60358  22.376   9.677   7.364
 4720POPC   NC360359  40.813  20.626   5.564
 4720POPC   PO460360  40.740  20.628   5.864
 4720POPC   GL160361  40.814  20.657   6.164
 4720POPC   GL260362  40.848  20.548   6.164
 4720POPC   C1A60363  40.807  20.589   6.464
 4720POPC   D2A60364  40.811  20.580   6.764
 4720POPC   C3A60365  40.781  20.646   7.064
 4720POPC   C4A60366  40.764  20.658   7.364
 4720POPC   C1B60367  41.024  20.536   6.464
 4720POPC   C2B60368  41.048  20.505   6.764
 4720POPC   C3B60369  40.962  20.473   7.064
 4720POPC   C4B60370  41.052  20.484   7.364
 4721POPC   NC360371  26.069  43.071   5.564
 4721POPC   PO460372  26.050  43.105   5.864
 4721POPC   GL160373  26.064  43.128   6.164
 4721POPC   GL260374  26.113  43.240   6.164
 4721POPC   C1A60375  26.090  43.105   6.464
 4721POPC   D2A60376  26.022  43.087   6.764
 4721POPC   C3A60377  26.024  43.158   7.064
 4721POPC   C4A60378  26.049  43.090   7.364
 4721POPC   C1B60379  26.230  43.284   6.464
 4721POPC   C2B60380  26.162  43.350   6.764
 4721POPC   C3B60381  26.172  43.322   7.064
 4721POPC   C4B60382  26.164  43.358   7.364
 4722POPC   NC360383  30.688  18.280   5.564
 4722POPC   PO460384  30.688  18.238   5.864
 4722POPC   GL160385  30.647  18.270   6.164
 4722POPC   GL260386  30.850  18.294   6.164
 4722POPC   C1A60387  30.713  18.286   6.464
 4722POPC   D2A60388  30.721  18.329   6.764
 4722POPC   C3A60389  30.673  18.323   7.064
 4722POPC   C4A60390  30.727  18.304   7.364
 4722POPC   C1B60391  30.952  18.223   6.464
 4722POPC   C2B60392  30.933  18.309   6.764
 4722POPC   C3B60393  30.920  18.250   7.064
 4722POPC   C4B60394  30.910  18.245   7.364
 4723POPC   NC360395   0.452  26.031   5.564
 4723POPC   PO460396   0.393  26.032   5.864
 4723POPC   GL160397   0.434  26.045   6.164
 4723POPC   GL260398   0.509  26.021   6.164
 4723POPC   C1A60399   0.486  26.085   6.464
 4723POPC   D2A60400   0.447  26.002   6.764
 4723POPC   C3A60401   0.450  26.054   7.064
 4723POPC   C4A60402   0.477  26.030   7.364
 4723POPC   C1B60403   0.618  25.900   6.464
 4723POPC   C2B60404   0.702  25.968   6.764
 4723POPC   C3B60405   0.651  25.923   7.064
 4723POPC   C4B60406   0.677  25.924   7.364
 4724POPC   NC360407  32.208  11.298   5.564
 4724POPC   PO460408  32.263  11.286   5.864
 4724POPC   GL160409  32.288  11.304   6.164
 4724POPC   GL260410  32.170  11.223   6.164
 4724POPC   C1A60411  32.261  11.297   6.464
 4724POPC   D2A60412  32.221  11.321   6.764
 4724POPC   C3A60413  32.257  11.347   7.064
 4724POPC   C4A60414  32.217  11.305   7.364
 4724POPC   C1B60415  32.124  11.139   6.464
 4724POPC   C2B60416  32.153  11.106   6.764
 4724POPC   C3B60417  32.061  11.083   7.064
 4724POPC   C4B60418  32.113  11.137   7.364
 4725POPC   NC360419   0.485  41.531   5.564
 4725POPC   PO460420   0.474  41.566   5.864
 4725POPC   GL160421   0.460  41.608   6.164
 4725POPC   GL260422   0.426  41.634   6.164
 4725POPC   C1A60423   0.430  41.569   6.464
 4725POPC   D2A60424   0.475  41.532   6.764
 4725POPC   C3A60425   0.407  41.560   7.064
 4725POPC   C4A60426   0.439  41.537   7.364
 4725POPC   C1B60427   0.407  41.813   6.464
 4725POPC   C2B60428   0.414  41.772   6.764
 4725POPC   C3B60429   0.414  41.828   7.064
 4725POPC   C4B60430   0.377  41.811   7.364
 4726POPC   NC360431   9.771   1.243   5.564
 4726POPC   PO460432   9.718   1.212   5.864
 4726POPC   GL160433   9.728   1.172   6.164
 4726POPC   GL260434   9.659   1.196   6.164
 4726POPC   C1A60435   9.769   1.213   6.464
 4726POPC   D2A60436   9.733   1.168   6.764
 4726POPC   C3A60437   9.733   1.245   7.064
 4726POPC   C4A60438   9.745   1.252   7.364
 4726POPC   C1B60439   9.514   1.249   6.464
 4726POPC   C2B60440   9.482   1.279   6.764
 4726POPC   C3B60441   9.513   1.200   7.064
 4726POPC   C4B60442   9.481   1.272   7.364
 4727POPC   NC360443  34.607  36.921   5.564
 4727POPC   PO460444  34.616  36.945   5.864
 4727POPC   GL160445  34.533  36.876   6.164
 4727POPC   GL260446  34.424  36.931   6.164
 4727POPC   C1A60447  34.552  36.893   6.464
 4727POPC   D2A60448  34.528  36.878   6.764
 4727POPC   C3A60449  34.604  36.944   7.064
 4727POPC   C4A60450  34.534  36.901   7.364
 4727POPC   C1B60451  34.387  36.952   6.464
 4727POPC   C2B60452  34.304  36.991   6.764
 4727POPC   C3B60453  34.341  36.942   7.064
 4727POPC   C4B60454  34.351  37.021   7.364
 4728POPC   NC360455  31.428  12.902   5.564
 4728POPC   PO460456  31.488  12.854   5.864
 4728POPC   GL160457  31.510  12.863   6.164
 4728POPC   GL260458  31.385  12.847   6.164
 4728POPC   C1A60459  31.482  12.812   6.464
 4728POPC   D2A60460  31.517  12.890   6.764
 4728POPC   C3A60461  31.515  12.879   7.064
 4728POPC   C4A60462  31.463  12.901   7.364
 4728POPC   C1B60463  31.203  12.923   6.464
 4728POPC   C2B60464  31.249  12.959   6.764
 4728POPC   C3B60465  31.261  12.956   7.064
 4728POPC   C4B60466  31.272  12.864   7.364
 4729POPC   NC360467   5.080   6.685   5.564
 4729POPC   PO460468   5.086   6.650   5.864
 4729POPC   GL160469   5.142   6.691   6.164
 4729POPC   GL260470   5.072   6.572   6.164
 4729POPC   C1A60471   5.055   6.632   6.464
 4729POPC   D2A60472   5.077   6.651   6.764
 4729POPC   C3A60473   5.066   6.600   7.064
 4729POPC   C4A60474   5.084   6.640   7.364
 4729POPC   C1B60475   4.985   6.444   6.464
 4729POPC   C2B60476   4.999   6.415   6.764
 4729POPC   C3B60477   5.002   6.414   7.064
 4729POPC   C4B60478   4.973   6.413   7.364
 4730POPC   NC360479  30.654   5.881   5.564
 4730POPC   PO460480  30.713   5.864   5.864
 4730POPC   GL160481  30.680   5.831   6.164
 4730POPC   GL260482  30.760   5.818   6.164
 4730POPC   C1A60483  30.658   5.911   6.464
 4730POPC   D2A60484  30.733   5.903   6.764
 4730POPC   C3A60485  30.711   5.841   7.064
 4730POPC   C4A60486  30.700   5.907   7.364
 4730POPC   C1B60487  30.837   5.640   6.464
 4730POPC   C2B60488  30.845   5.717   6.764
 4730POPC   C3B60489  30.902   5.657   7.064
 4730POPC   C4B60490  30.865   5.717   7.364
 4731POPC   NC360491   9.744  38.441   5.564
 4731POPC   PO460492   9.708  38.448   5.864
 4731POPC   GL160493   9.771  38.489   6.164
 4731POPC   GL260494   9.910  38.493   6.164
 4731POPC   C1A60495   9.761  38.436   6.464
 4731POPC   D2A60496   9.732  38.500   6.764
 4731POPC   C3A60497   9.759  38.410   7.064
 4731POPC   C4A60498   9.716  38.483   7.364
 4731POPC   C1B60499  10.028  38.514   6.464
 4731POPC   C2B60500   9.983  38.517   6.764
 4731POPC   C3B60501  10.022  38.479   7.064
 4731POPC   C4B60502  10.015  38.464   7.364
 4732POPC   NC360503  31.454   7.402   5.564
 4732POPC   PO460504  31.427   7.400   5.864
 4732POPC   GL160505  31.512   7.405   6.164
 4732POPC   GL260506  31.585   7.399   6.164
 4732POPC   C1A60507  31.483   7.458   6.464
 4732POPC   D2A60508  31.513   7.392   6.764
 4732POPC   C3A60509  31.470   7.434   7.064
 4732POPC   C4A60510  31.456   7.401   7.364
 4732POPC   C1B60511  31.662   7.296   6.464
 4732POPC   C2B60512  31.750   7.317   6.764
 4732POPC   C3B60513  31.685   7.347   7.064
 4732POPC   C4B60514  31.746   7.372   7.364
 4733POPC   NC360515  22.966   8.149   5.564
 4733POPC   PO460516  22.926   8.158   5.864
 4733POPC   GL160517  22.982   8.154   6.164
 4733POPC   GL260518  22.925   8.311   6.164
 4733POPC   C1A60519  22.941   8.192   6.464
 4733POPC   D2A60520  22.935   8.226   6.764
 4733POPC   C3A60521  22.967   8.147   7.064
 4733POPC   C4A60522  22.977   8.224   7.364
 4733POPC   C1B60523  23.042   8.465   6.464
 4733POPC   C2B60524  23.043   8.432   6.764
 4733POPC   C3B60525  23.004   8.445   7.064
 4733POPC   C4B60526  22.985   8.426   7.364
 4734POPC   NC360527  29.169  39.985   5.564
 4734POPC   PO460528  29.137  40.011   5.864
 4734POPC   GL160529  29.155  39.972   6.164
 4734POPC   GL260530  29.137  39.866   6.164
 4734POPC   C1A60531  29.172  40.047   6.464
 4734POPC   D2A60532  29.150  39.974   6.764
 4734POPC   C3A60533  29.135  40.044   7.064
 4734POPC   C4A60534  29.174  39.972   7.364
 4734POPC   C1B60535  29.173  39.811   6.464
 4734POPC   C2B60536  29.149  39.737   6.764
 4734POPC   C3B60537  29.169  39.765   7.064
 4734POPC   C4B60538  29.183  39.715   7.364
 4735POPC   NC360539  19.035  33.795   5.564
 4735POPC   PO460540  19.055  33.758   5.864
 4735POPC   GL160541  19.051  33.763   6.164
 4735POPC   GL260542  19.178  33.876   6.164
 4735POPC   C1A60543  19.062  33.751   6.464
 4735POPC   D2A60544  19.105  33.827   6.764
 4735POPC   C3A60545  19.065  33.819   7.064
 4735POPC   C4A60546  19.019  33.752   7.364
 4735POPC   C1B60547  19.247  34.013   6.464
 4735POPC   C2B60548  19.247  34.015   6.764
 4735POPC   C3B60549  19.225  34.008   7.064
 4735POPC   C4B60550  19.172  34.039   7.364
 4736POPC   NC360551   3.507   4.357   5.564
 4736POPC   PO460552   3.492   4.363   5.864
 4736POPC   GL160553   3.536   4.289   6.164
 4736POPC   GL260554   3.422   4.413   6.164
 4736POPC   C1A60555   3.566   4.305   6.464
 4736POPC   D2A60556   3.522   4.289   6.764
 4736POPC   C3A60557   3.542   4.352   7.064
 4736POPC   C4A60558   3.525   4.296   7.364
 4736POPC   C1B60559   3.376   4.497   6.464
 4736POPC   C2B60560   3.396   4.528   6.764
 4736POPC   C3B60561   3.377   4.547   7.064
 4736POPC   C4B60562   3.406   4.503   7.364
 4737POPC   NC360563  29.887  22.958   5.564
 4737POPC   PO460564  29.903  22.889   5.864
 4737POPC   GL160565  29.894  22.958   6.164
 4737POPC   GL260566  29.986  23.107   6.164
 4737POPC   C1A60567  29.899  22.947   6.464
 4737POPC   D2A60568  29.945  22.964   6.764
 4737POPC   C3A60569  29.880  22.961   7.064
 4737POPC   C4A60570  29.939  22.960   7.364
 4737POPC   C1B60571  29.941  23.219   6.464
 4737POPC   C2B60572  29.930  23.187   6.764
 4737POPC   C3B60573  29.986  23.141   7.064
 4737POPC   C4B60574  29.964  23.145   7.364
 4738POPC   NC360575  14.372   5.892   5.564
 4738POPC   PO460576  14.397   5.848   5.864
 4738POPC   GL160577  14.391   5.845   6.164
 4738POPC   GL260578  14.505   5.979   6.164
 4738POPC   C1A60579  14.380   5.836   6.464
 4738POPC   D2A60580  14.380   5.826   6.764
 4738POPC   C3A60581  14.376   5.897   7.064
 4738POPC   C4A60582  14.403   5.830   7.364
 4738POPC   C1B60583  14.526   6.086   6.464
 4738POPC   C2B60584  14.553   6.050   6.764
 4738POPC   C3B60585  14.567   6.021   7.064
 4738POPC   C4B60586  14.606   6.108   7.364
 4739POPC   NC360587   8.964  21.424   5.564
 4739POPC   PO460588   9.005  21.347   5.864
 4739POPC   GL160589   9.013  21.407   6.164
 4739POPC   GL260590   9.057  21.488   6.164
 4739POPC   C1A60591   8.972  21.369   6.464
 4739POPC   D2A60592   9.005  21.358   6.764
 4739POPC   C3A60593   8.923  21.423   7.064
 4739POPC   C4A60594   9.022  21.386   7.364
 4739POPC   C1B60595   9.124  21.631   6.464
 4739POPC   C2B60596   9.130  21.595   6.764
 4739POPC   C3B60597   9.112  21.624   7.064
 4739POPC   C4B60598   9.104  21.642   7.364
 4740POPC   NC360599  33.047  12.862   5.564
 4740POPC   PO460600  33.031  12.893   5.864
 4740POPC   GL160601  33.006  12.847   6.164
 4740POPC   GL260602  32.954  12.951   6.164
 4740POPC   C1A60603  33.073  12.874   6.464
 4740POPC   D2A60604  32.985  12.885   6.764
 4740POPC   C3A60605  33.000  12.882   7.064
 4740POPC   C4A60606  33.058  12.842   7.364
 4740POPC   C1B60607  32.778  12.965   6.464
 4740POPC   C2B60608  32.781  12.939   6.764
 4740POPC   C3B60609  32.781  12.903   7.064
 4740POPC   C4B60610  32.830  12.933   7.364
 4741POPC   NC360611  13.671  19.867   5.564
 4741POPC   PO460612  13.595  19.878   5.864
 4741POPC   GL160613  13.608  19.799   6.164
 4741POPC   GL260614  13.534  19.976   6.164
 4741POPC   C1A60615  13.591  19.796   6.464
 4741POPC   D2A60616  13.658  19.810   6.764
 4741POPC   C3A60617  13.667  19.788   7.064
 4741POPC   C4A60618  13.664  19.796   7.364
 4741POPC   C1B60619  13.499  19.989   6.464
 4741POPC   C2B60620  13.466  19.985   6.764
 4741POPC   C3B60621  13.519  20.057   7.064
 4741POPC   C4B60622  13.505  19.992   7.364
 4742POPC   NC360623  32.278  36.912   5.564
 4742POPC   PO460624  32.244  36.867   5.864
 4742POPC   GL160625  32.246  36.881   6.164
 4742POPC   GL260626  32.231  36.819   6.164
 4742POPC   C1A60627  32.256  36.923   6.464
 4742POPC   D2A60628  32.229  36.859   6.764
 4742POPC   C3A60629  32.243  36.870   7.064
 4742POPC   C4A60630  32.242  36.910   7.364
 4742POPC   C1B60631  32.099  36.709   6.464
 4742POPC   C2B60632  32.090  36.656   6.764
 4742POPC   C3B60633  32.100  36.670   7.064
 4742POPC   C4B60634  32.112  36.656   7.364
 4743POPC   NC360635   5.896  33.003   5.564
 4743POPC   PO460636   5.841  33.065   5.864
 4743POPC   GL160637   5.845  32.985   6.164
 4743POPC   GL260638   5.914  33.181   6.164
 4743POPC   C1A60639   5.872  33.030   6.464
 4743POPC   D2A60640   5.821  32.993   6.764
 4743POPC   C3A60641   5.895  33.048   7.064
 4743POPC   C4A60642   5.914  33.070   7.364
 4743POPC   C1B60643   5.944  33.228   6.464
 4743POPC   C2B60644   5.979  33.279   6.764
 4743POPC   C3B60645   5.928  33.280   7.064
 4743POPC   C4B60646   5.912  33.290   7.364
 4744POPC   NC360647  36.156  22.180   5.564
 4744POPC   PO460648  36.122  22.114   5.864
 4744POPC   GL160649  36.126  22.145   6.164
 4744POPC   GL260650  36.222  22.082   6.164
 4744POPC   C1A60651  36.133  22.127   6.464
 4744POPC   D2A60652  36.164  22.205   6.764
 4744POPC   C3A60653  36.145  22.141   7.064
 4744POPC   C4A60654  36.134  22.193   7.364
 4744POPC   C1B60655  36.340  22.038   6.464
 4744POPC   C2B60656  36.300  22.061   6.764
 4744POPC   C3B60657  36.338  22.079   7.064
 4744POPC   C4B60658  36.377  22.030   7.364
 4745POPC   NC360659  15.994  38.429   5.564
 4745POPC   PO460660  15.965  38.414   5.864
 4745POPC   GL160661  15.993  38.460   6.164
 4745POPC   GL260662  15.864  38.434   6.164
 4745POPC   C1A60663  15.987  38.460   6.464
 4745POPC   D2A60664  15.984  38.490   6.764
 4745POPC   C3A60665  15.983  38.425   7.064
 4745POPC   C4A60666  15.930  38.427   7.364
 4745POPC   C1B60667  15.726  38.413   6.464
 4745POPC   C2B60668  15.723  38.440   6.764
 4745POPC   C3B60669  15.670  38.461   7.064
 4745POPC   C4B60670  15.676  38.421   7.364
 4746POPC   NC360671  24.453   1.994   5.564
 4746POPC   PO460672  24.466   1.983   5.864
 4746POPC   GL160673  24.464   2.003   6.164
 4746POPC   GL260674  24.480   2.120   6.164
 4746POPC   C1A60675  24.479   1.994   6.464
 4746POPC   D2A60676  24.444   2.039   6.764
 4746POPC   C3A60677  24.467   1.969   7.064
 4746POPC   C4A60678  24.442   1.981   7.364
 4746POPC   C1B60679  24.571   2.205   6.464
 4746POPC   C2B60680  24.508   2.197   6.764
 4746POPC   C3B60681  24.489   2.262   7.064
 4746POPC   C4B60682  24.502   2.259   7.364
 4747POPC   NC360683   2.004  19.041   5.564
 4747POPC   PO460684   2.023  19.033   5.864
 4747POPC   GL160685   1.950  19.085   6.164
 4747POPC   GL260686   1.935  19.121   6.164
 4747POPC   C1A60687   2.029  19.051   6.464
 4747POPC   D2A60688   1.957  19.065   6.764
 4747POPC   C3A60689   2.036  19.082   7.064
 4747POPC   C4A60690   1.962  19.108   7.364
 4747POPC   C1B60691   1.877  19.262   6.464
 4747POPC   C2B60692   1.872  19.266   6.764
 4747POPC   C3B60693   1.879  19.238   7.064
 4747POPC   C4B60694   1.846  19.300   7.364
 4748POPC   NC360695   1.264  19.795   5.564
 4748POPC   PO460696   1.247  19.859   5.864
 4748POPC   GL160697   1.243  19.809   6.164
 4748POPC   GL260698   1.166  19.711   6.164
 4748POPC   C1A60699   1.205  19.798   6.464
 4748POPC   D2A60700   1.195  19.811   6.764
 4748POPC   C3A60701   1.201  19.868   7.064
 4748POPC   C4A60702   1.232  19.817   7.364
 4748POPC   C1B60703   1.154  19.633   6.464
 4748POPC   C2B60704   1.105  19.636   6.764
 4748POPC   C3B60705   1.182  19.591   7.064
 4748POPC   C4B60706   1.138  19.605   7.364
 4749POPC   NC360707  26.077   8.211   5.564
 4749POPC   PO460708  26.066   8.170   5.864
 4749POPC   GL160709  26.025   8.223   6.164
 4749POPC   GL260710  26.124   8.094   6.164
 4749POPC   C1A60711  26.009   8.233   6.464
 4749POPC   D2A60712  26.081   8.156   6.764
 4749POPC   C3A60713  26.084   8.240   7.064
 4749POPC   C4A60714  26.064   8.211   7.364
 4749POPC   C1B60715  26.244   8.064   6.464
 4749POPC   C2B60716  26.243   8.040   6.764
 4749POPC   C3B60717  26.273   8.000   7.064
 4749POPC   C4B60718  26.267   8.074   7.364
 4750POPC   NC360719  25.290   3.554   5.564
 4750POPC   PO460720  25.262   3.492   5.864
 4750POPC   GL160721  25.315   3.558   6.164
 4750POPC   GL260722  25.127   3.487   6.164
 4750POPC   C1A60723  25.259   3.565   6.464
 4750POPC   D2A60724  25.304   3.505   6.764
 4750POPC   C3A60725  25.232   3.572   7.064
 4750POPC   C4A60726  25.248   3.569   7.364
 4750POPC   C1B60727  25.103   3.403   6.464
 4750POPC   C2B60728  25.027   3.398   6.764
 4750POPC   C3B60729  25.078   3.353   7.064
 4750POPC   C4B60730  25.021   3.373   7.364
 4751POPC   NC360731   1.211  35.363   5.564
 4751POPC   PO460732   1.238  35.302   5.864
 4751POPC   GL160733   1.232  35.353   6.164
 4751POPC   GL260734   1.091  35.432   6.164
 4751POPC   C1A60735   1.177  35.314   6.464
 4751POPC   D2A60736   1.185  35.339   6.764
 4751POPC   C3A60737   1.244  35.337   7.064
 4751POPC   C4A60738   1.219  35.344   7.364
 4751POPC   C1B60739   1.004  35.569   6.464
 4751POPC   C2B60740   1.081  35.556   6.764
 4751POPC   C3B60741   1.083  35.529   7.064
 4751POPC   C4B60742   1.048  35.482   7.364
 4752POPC   NC360743  19.850  44.658   5.564
 4752POPC   PO460744  19.831  44.628   5.864
 4752POPC   GL160745  19.813  44.657   6.164
 4752POPC   GL260746  19.875  44.828   6.164
 4752POPC   C1A60747  19.832  44.703   6.464
 4752POPC   D2A60748  19.872  44.706   6.764
 4752POPC   C3A60749  19.884  44.620   7.064
 4752POPC   C4A60750  19.824  44.612   7.364
 4752POPC   C1B60751  19.898  44.906   6.464
 4752POPC   C2B60752  19.919  44.911   6.764
 4752POPC   C3B60753  19.842  44.872   7.064
 4752POPC   C4B60754  19.930  44.932   7.364
 4753POPC   NC360755  29.927   2.803   5.564
 4753POPC   PO460756  29.944   2.762   5.864
 4753POPC   GL160757  29.909   2.767   6.164
 4753POPC   GL260758  29.890   2.917   6.164
 4753POPC   C1A60759  29.959   2.733   6.464
 4753POPC   D2A60760  29.961   2.801   6.764
 4753POPC   C3A60761  29.931   2.752   7.064
 4753POPC   C4A60762  29.958   2.728   7.364
 4753POPC   C1B60763  29.930   3.004   6.464
 4753POPC   C2B60764  29.921   3.049   6.764
 4753POPC   C3B60765  29.898   3.011   7.064
 4753POPC   C4B60766  29.973   2.993   7.364
 4754POPC   NC360767  31.489  40.782   5.564
 4754POPC   PO460768  31.482  40.738   5.864
 4754POPC   GL160769  31.425  40.735   6.164
 4754POPC   GL260770  31.391  40.655   6.164
 4754POPC   C1A60771  31.520  40.798   6.464
 4754POPC   D2A60772  31.493  40.827   6.764
 4754POPC   C3A60773  31.448  40.763   7.064
 4754POPC   C4A60774  31.506  40.788   7.364
 4754POPC   C1B60775  31.266  40.613   6.464
 4754POPC   C2B60776  31.254  40.648   6.764
 4754POPC   C3B60777  31.291  40.576   7.064
 4754POPC   C4B60778  31.278  40.639   7.364
 4755POPC   NC360779  19.787  26.820   5.564
 4755POPC   PO460780  19.815  26.828   5.864
 4755POPC   GL160781  19.845  26.796   6.164
 4755POPC   GL260782  19.777  26.932   6.164
 4755POPC   C1A60783  19.863  26.866   6.464
 4755POPC   D2A60784  19.818  26.845   6.764
 4755POPC   C3A60785  19.813  26.863   7.064
 4755POPC   C4A60786  19.830  26.822   7.364
 4755POPC   C1B60787  19.772  27.086   6.464
 4755POPC   C2B60788  19.775  27.029   6.764
 4755POPC   C3B60789  19.769  27.019   7.064
 4755POPC   C4B60790  19.803  27.091   7.364
 4756POPC   NC360791  29.871   4.300   5.564
 4756POPC   PO460792  29.885   4.291   5.864
 4756POPC   GL160793  29.931   4.348   6.164
 4756POPC   GL260794  30.044   4.259   6.164
 4756POPC   C1A60795  29.967   4.360   6.464
 4756POPC   D2A60796  29.899   4.271   6.764
 4756POPC   C3A60797  29.886   4.340   7.064
 4756POPC   C4A60798  29.895   4.363   7.364
 4756POPC   C1B60799  30.144   4.174   6.464
 4756POPC   C2B60800  30.099   4.208   6.764
 4756POPC   C3B60801  30.129   4.163   7.064
 4756POPC   C4B60802  30.077   4.128   7.364
 4757POPC   NC360803  43.864  20.657   5.564
 4757POPC   PO460804  43.895  20.614   5.864
 4757POPC   GL160805  43.892  20.589   6.164
 4757POPC   GL260806  43.759  20.571   6.164
 4757POPC   C1A60807  43.879  20.628   6.464
 4757POPC   D2A60808  43.864  20.598   6.764
 4757POPC   C3A60809  43.896  20.580   7.064
 4757POPC   C4A60810  43.933  20.655   7.364
 4757POPC   C1B60811  43.718  20.439   6.464
 4757POPC   C2B60812  43.692  20.445   6.764
 4757POPC   C3B60813  43.716  20.518   7.064
 4757POPC   C4B60814  43.640  20.453   7.364
 4758POPC   NC360815  32.283  16.736   5.564
 4758POPC   PO460816  32.250  16.730   5.864
 4758POPC   GL160817  32.248  16.707   6.164
 4758POPC   GL260818  32.342  16.648   6.164
 4758POPC   C1A60819  32.242  16.768   6.464
 4758POPC   D2A60820  32.294  16.740   6.764
 4758POPC   C3A60821  32.263  16.696   7.064
 4758POPC   C4A60822  32.250  16.764   7.364
 4758POPC   C1B60823  32.492  16.584   6.464
 4758POPC   C2B60824  32.502  16.585   6.764
 4758POPC   C3B60825  32.448  16.552   7.064
 4758POPC   C4B60826  32.420  16.619   7.364
 4759POPC   NC360827  22.186   8.199   5.564
 4759POPC   PO460828  22.124   8.194   5.864
 4759POPC   GL160829  22.169   8.183   6.164
 4759POPC   GL260830  22.104   8.285   6.164
 4759POPC   C1A60831  22.132   8.179   6.464
 4759POPC   D2A60832  22.118   8.184   6.764
 4759POPC   C3A60833  22.184   8.219   7.064
 4759POPC   C4A60834  22.148   8.174   7.364
 4759POPC   C1B60835  22.085   8.393   6.464
 4759POPC   C2B60836  22.042   8.396   6.764
 4759POPC   C3B60837  22.071   8.395   7.064
 4759POPC   C4B60838  22.069   8.425   7.364
 4760POPC   NC360839  43.096  16.748   5.564
 4760POPC   PO460840  43.061  16.727   5.864
 4760POPC   GL160841  43.152  16.696   6.164
 4760POPC   GL260842  43.147  16.577   6.164
 4760POPC   C1A60843  43.142  16.694   6.464
 4760POPC   D2A60844  43.072  16.756   6.764
 4760POPC   C3A60845  43.138  16.744   7.064
 4760POPC   C4A60846  43.112  16.773   7.364
 4760POPC   C1B60847  43.144  16.500   6.464
 4760POPC   C2B60848  43.076  16.523   6.764
 4760POPC   C3B60849  43.151  16.519   7.064
 4760POPC   C4B60850  43.150  16.500   7.364
 4761POPC   NC360851   9.790  33.798   5.564
 4761POPC   PO460852   9.750  33.804   5.864
 4761POPC   GL160853   9.773  33.778   6.164
 4761POPC   GL260854   9.610  33.874   6.164
 4761POPC   C1A60855   9.742  33.759   6.464
 4761POPC   D2A60856   9.772  33.756   6.764
 4761POPC   C3A60857   9.735  33.820   7.064
 4761POPC   C4A60858   9.761  33.818   7.364
 4761POPC   C1B60859   9.540  33.942   6.464
 4761POPC   C2B60860   9.507  33.877   6.764
 4761POPC   C3B60861   9.558  33.863   7.064
 4761POPC   C4B60862   9.553  33.941   7.364
 4762POPC   NC360863  32.269  44.668   5.564
 4762POPC   PO460864  32.255  44.626   5.864
 4762POPC   GL160865  32.239  44.634   6.164
 4762POPC   GL260866  32.286  44.574   6.164
 4762POPC   C1A60867  32.298  44.660   6.464
 4762POPC   D2A60868  32.240  44.632   6.764
 4762POPC   C3A60869  32.236  44.651   7.064
 4762POPC   C4A60870  32.205  44.677   7.364
 4762POPC   C1B60871  32.266  44.456   6.464
 4762POPC   C2B60872  32.264  44.393   6.764
 4762POPC   C3B60873  32.281  44.417   7.064
 4762POPC   C4B60874  32.280  44.411   7.364
 4763POPC   NC360875   9.700   5.896   5.564
 4763POPC   PO460876   9.723   5.917   5.864
 4763POPC   GL160877   9.707   5.901   6.164
 4763POPC   GL260878   9.599   5.898   6.164
 4763POPC   C1A60879   9.718   5.866   6.464
 4763POPC   D2A60880   9.716   5.882   6.764
 4763POPC   C3A60881   9.755   5.820   7.064
 4763POPC   C4A60882   9.797   5.911   7.364
 4763POPC   C1B60883   9.546   5.913   6.464
 4763POPC   C2B60884   9.466   5.849   6.764
 4763POPC   C3B60885   9.520   5.827   7.064
 4763POPC   C4B60886   9.537   5.848   7.364
 4764POPC   NC360887  14.354   7.400   5.564
 4764POPC   PO460888  14.429   7.467   5.864
 4764POPC   GL160889  14.438   7.375   6.164
 4764POPC   GL260890  14.491   7.506   6.164
 4764POPC   C1A60891  14.411   7.423   6.464
 4764POPC   D2A60892  14.377   7.423   6.764
 4764POPC   C3A60893  14.414   7.467   7.064
 4764POPC   C4A60894  14.371   7.410   7.364
 4764POPC   C1B60895  14.621   7.557   6.464
 4764POPC   C2B60896  14.645   7.593   6.764
 4764POPC   C3B60897  14.603   7.562   7.064
 4764POPC   C4B60898  14.619   7.586   7.364
 4765POPC   NC360899   5.124  35.351   5.564
 4765POPC   PO460900   5.092  35.384   5.864
 4765POPC   GL160901   5.057  35.392   6.164
 4765POPC   GL260902   5.218  35.357   6.164
 4765POPC   C1A60903   5.101  35.337   6.464
 4765POPC   D2A60904   5.126  35.309   6.764
 4765POPC   C3A60905   5.108  35.355   7.064
 4765POPC   C4A60906   5.115  35.368   7.364
 4765POPC   C1B60907   5.304  35.466   6.464
 4765POPC   C2B60908   5.307  35.391   6.764
 4765POPC   C3B60909   5.375  35.399   7.064
 4765POPC   C4B60910   5.355  35.435   7.364
 4766POPC   NC360911   8.941  28.414   5.564
 4766POPC   PO460912   8.980  28.357   5.864
 4766POPC   GL160913   9.021  28.322   6.164
 4766POPC   GL260914   9.052  28.336   6.164
 4766POPC   C1A60915   9.009  28.366   6.464
 4766POPC   D2A60916   8.957  28.334   6.764
 4766POPC   C3A60917   8.980  28.321   7.064
 4766POPC   C4A60918   8.959  28.362   7.364
 4766POPC   C1B60919   9.239  28.407   6.464
 4766POPC   C2B60920   9.211  28.433   6.764
 4766POPC   C3B60921   9.201  28.416   7.064
 4766POPC   C4B60922   9.235  28.422   7.364
 4767POPC   NC360923  22.984  38.406   5.564
 4767POPC   PO460924  22.954  38.409   5.864
 4767POPC   GL160925  22.974  38.482   6.164
 4767POPC   GL260926  22.985  38.297   6.164
 4767POPC   C1A60927  22.900  38.503   6.464
 4767POPC   D2A60928  22.964  38.497   6.764
 4767POPC   C3A60929  22.985  38.432   7.064
 4767POPC   C4A60930  22.955  38.495   7.364
 4767POPC   C1B60931  23.061  38.210   6.464
 4767POPC   C2B60932  23.035  38.193   6.764
 4767POPC   C3B60933  23.024  38.272   7.064
 4767POPC   C4B60934  23.044  38.240   7.364
 4768POPC   NC360935  37.720  11.277   5.564
 4768POPC   PO460936  37.662  11.259   5.864
 4768POPC   GL160937  37.642  11.257   6.164
 4768POPC   GL260938  37.786  11.163   6.164
 4768POPC   C1A60939  37.663  11.286   6.464
 4768POPC   D2A60940  37.682  11.333   6.764
 4768POPC   C3A60941  37.714  11.265   7.064
 4768POPC   C4A60942  37.695  11.306   7.364
 4768POPC   C1B60943  37.814  11.123   6.464
 4768POPC   C2B60944  37.815  11.076   6.764
 4768POPC   C3B60945  37.866  11.159   7.064
 4768POPC   C4B60946  37.810  11.094   7.364
 4769POPC   NC360947   5.861  30.654   5.564
 4769POPC   PO460948   5.855  30.722   5.864
 4769POPC   GL160949   5.821  30.746   6.164
 4769POPC   GL260950   5.804  30.646   6.164
 4769POPC   C1A60951   5.905  30.657   6.464
 4769POPC   D2A60952   5.918  30.704   6.764
 4769POPC   C3A60953   5.863  30.737   7.064
 4769POPC   C4A60954   5.900  30.722   7.364
 4769POPC   C1B60955   5.626  30.551   6.464
 4769POPC   C2B60956   5.630  30.554   6.764
 4769POPC   C3B60957   5.697  30.505   7.064
 4769POPC   C4B60958   5.690  30.516   7.364
 4770POPC   NC360959  15.940  12.077   5.564
 4770POPC   PO460960  15.920  12.042   5.864
 4770POPC   GL160961  15.993  12.115   6.164
 4770POPC   GL260962  15.840  12.119   6.164
 4770POPC   C1A60963  15.906  12.122   6.464
 4770POPC   D2A60964  15.907  12.065   6.764
 4770POPC   C3A60965  16.001  12.039   7.064
 4770POPC   C4A60966  15.937  12.067   7.364
 4770POPC   C1B60967  15.703  12.113   6.464
 4770POPC   C2B60968  15.750  12.099   6.764
 4770POPC   C3B60969  15.725  12.079   7.064
 4770POPC   C4B60970  15.713  12.023   7.364
 4771POPC   NC360971  43.885  26.025   5.564
 4771POPC   PO460972  43.851  26.015   5.864
 4771POPC   GL160973  43.928  26.069   6.164
 4771POPC   GL260974  43.766  26.176   6.164
 4771POPC   C1A60975  43.853  25.997   6.464
 4771POPC   D2A60976  43.880  26.091   6.764
 4771POPC   C3A60977  43.841  26.044   7.064
 4771POPC   C4A60978  43.848  26.063   7.364
 4771POPC   C1B60979  43.700  26.204   6.464
 4771POPC   C2B60980  43.703  26.277   6.764
 4771POPC   C3B60981  43.781  26.242   7.064
 4771POPC   C4B60982  43.758  26.266   7.364
 4772POPC   NC360983  37.689   2.021   5.564
 4772POPC   PO460984  37.704   2.029   5.864
 4772POPC   GL160985  37.629   1.954   6.164
 4772POPC   GL260986  37.812   2.024   6.164
 4772POPC   C1A60987  37.690   2.012   6.464
 4772POPC   D2A60988  37.707   1.989   6.764
 4772POPC   C3A60989  37.684   1.956   7.064
 4772POPC   C4A60990  37.727   2.014   7.364
 4772POPC   C1B60991  37.916   1.981   6.464
 4772POPC   C2B60992  37.917   1.945   6.764
 4772POPC   C3B60993  37.944   1.982   7.064
 4772POPC   C4B60994  37.939   2.003   7.364
 4773POPC   NC360995  36.902  34.611   5.564
 4773POPC   PO460996  36.926  34.567   5.864
 4773POPC   GL160997  36.871  34.539   6.164
 4773POPC   GL260998  36.985  34.724   6.164
 4773POPC   C1A60999  36.913  34.577   6.464
 4773POPC   D2A61000  36.890  34.603   6.764
 4773POPC   C3A61001  36.947  34.551   7.064
 4773POPC   C4A61002  36.882  34.531   7.364
 4773POPC   C1B61003  36.975  34.783   6.464
 4773POPC   C2B61004  37.031  34.828   6.764
 4773POPC   C3B61005  36.994  34.783   7.064
 4773POPC   C4B61006  36.967  34.778   7.364
 4774POPC   NC361007  16.773  43.114   5.564
 4774POPC   PO461008  16.712  43.076   5.864
 4774POPC   GL161009  16.718  43.150   6.164
 4774POPC   GL261010  16.648  43.075   6.164
 4774POPC   C1A61011  16.704  43.112   6.464
 4774POPC   D2A61012  16.689  43.110   6.764
 4774POPC   C3A61013  16.703  43.149   7.064
 4774POPC   C4A61014  16.692  43.087   7.364
 4774POPC   C1B61015  16.501  43.018   6.464
 4774POPC   C2B61016  16.465  43.036   6.764
 4774POPC   C3B61017  16.495  43.057   7.064
 4774POPC   C4B61018  16.481  43.051   7.364
 4775POPC   NC361019  32.294   9.699   5.564
 4775POPC   PO461020  32.218   9.783   5.864
 4775POPC   GL161021  32.204   9.792   6.164
 4775POPC   GL261022  32.132   9.742   6.164
 4775POPC   C1A61023  32.268   9.771   6.464
 4775POPC   D2A61024  32.280   9.794   6.764
 4775POPC   C3A61025  32.264   9.741   7.064
 4775POPC   C4A61026  32.211   9.729   7.364
 4775POPC   C1B61027  31.987   9.629   6.464
 4775POPC   C2B61028  31.961   9.647   6.764
 4775POPC   C3B61029  32.045   9.686   7.064
 4775POPC   C4B61030  31.993   9.631   7.364
 4776POPC   NC361031   2.739  29.172   5.564
 4776POPC   PO461032   2.735  29.156   5.864
 4776POPC   GL161033   2.811  29.127   6.164
 4776POPC   GL261034   2.905  29.279   6.164
 4776POPC   C1A61035   2.793  29.136   6.464
 4776POPC   D2A61036   2.772  29.120   6.764
 4776POPC   C3A61037   2.745  29.167   7.064
 4776POPC   C4A61038   2.761  29.191   7.364
 4776POPC   C1B61039   2.999  29.275   6.464
 4776POPC   C2B61040   2.962  29.319   6.764
 4776POPC   C3B61041   2.944  29.296   7.064
 4776POPC   C4B61042   2.915  29.285   7.364
 4777POPC   NC361043  24.463  25.248   5.564
 4777POPC   PO461044  24.482  25.242   5.864
 4777POPC   GL161045  24.501  25.247   6.164
 4777POPC   GL261046  24.627  25.195   6.164
 4777POPC   C1A61047  24.446  25.229   6.464
 4777POPC   D2A61048  24.455  25.271   6.764
 4777POPC   C3A61049  24.496  25.248   7.064
 4777POPC   C4A61050  24.458  25.251   7.364
 4777POPC   C1B61051  24.691  25.162   6.464
 4777POPC   C2B61052  24.744  25.218   6.764
 4777POPC   C3B61053  24.725  25.214   7.064
 4777POPC   C4B61054  24.674  25.134   7.364
 4778POPC   NC361055  11.278   2.778   5.564
 4778POPC   PO461056  11.317   2.769   5.864
 4778POPC   GL161057  11.258   2.748   6.164
 4778POPC   GL261058  11.198   2.836   6.164
 4778POPC   C1A61059  11.251   2.754   6.464
 4778POPC   D2A61060  11.282   2.771   6.764
 4778POPC   C3A61061  11.323   2.774   7.064
 4778POPC   C4A61062  11.273   2.752   7.364
 4778POPC   C1B61063  11.065   2.828   6.464
 4778POPC   C2B61064  11.017   2.886   6.764
 4778POPC   C3B61065  11.084   2.819   7.064
 4778POPC   C4B61066  11.076   2.850   7.364
 4779POPC   NC361067   3.582  30.681   5.564
 4779POPC   PO461068   3.524  30.676   5.864
 4779POPC   GL161069   3.563  30.653   6.164
 4779POPC   GL261070   3.702  30.753   6.164
 4779POPC   C1A61071   3.572  30.647   6.464
 4779POPC   D2A61072   3.522  30.671   6.764
 4779POPC   C3A61073   3.496  30.745   7.064
 4779POPC   C4A61074   3.504  30.685   7.364
 4779POPC   C1B61075   3.823  30.769   6.464
 4779POPC   C2B61076   3.740  30.741   6.764
 4779POPC   C3B61077   3.754  30.721   7.064
 4779POPC   C4B61078   3.770  30.783   7.364
 4780POPC   NC361079  19.096  39.960   5.564
 4780POPC   PO461080  19.057  40.009   5.864
 4780POPC   GL161081  19.061  40.015   6.164
 4780POPC   GL261082  19.169  40.001   6.164
 4780POPC   C1A61083  19.102  39.983   6.464
 4780POPC   D2A61084  19.040  39.961   6.764
 4780POPC   C3A61085  19.055  39.984   7.064
 4780POPC   C4A61086  19.036  40.039   7.364
 4780POPC   C1B61087  19.294  39.936   6.464
 4780POPC   C2B61088  19.293  39.914   6.764
 4780POPC   C3B61089  19.267  39.921   7.064
 4780POPC   C4B61090  19.313  39.959   7.364
 4781POPC   NC361091  14.389  34.616   5.564
 4781POPC   PO461092  14.439  34.539   5.864
 4781POPC   GL161093  14.449  34.582   6.164
 4781POPC   GL261094  14.470  34.673   6.164
 4781POPC   C1A61095  14.403  34.553   6.464
 4781POPC   D2A61096  14.355  34.567   6.764
 4781POPC   C3A61097  14.366  34.544   7.064
 4781POPC   C4A61098  14.382  34.597   7.364
 4781POPC   C1B61099  14.448  34.788   6.464
 4781POPC   C2B61100  14.429  34.848   6.764
 4781POPC   C3B61101  14.444  34.783   7.064
 4781POPC   C4B61102  14.477  34.786   7.364
 4782POPC   NC361103  44.618  18.308   5.564
 4782POPC   PO461104  44.669  18.292   5.864
 4782POPC   GL161105  44.616  18.289   6.164
 4782POPC   GL261106  44.786  18.358   6.164
 4782POPC   C1A61107  44.709  18.293   6.464
 4782POPC   D2A61108  44.660  18.268   6.764
 4782POPC   C3A61109  44.674  18.263   7.064
 4782POPC   C4A61110  44.622  18.311   7.364
 4782POPC   C1B61111  44.939  18.408   6.464
 4782POPC   C2B61112  44.885  18.354   6.764
 4782POPC   C3B61113  44.918  18.313   7.064
 4782POPC   C4B61114  44.877  18.384   7.364
 4783POPC   NC361115  19.028  29.109   5.564
 4783POPC   PO461116  19.086  29.106   5.864
 4783POPC   GL161117  19.099  29.171   6.164
 4783POPC   GL261118  18.961  29.233   6.164
 4783POPC   C1A61119  19.031  29.148   6.464
 4783POPC   D2A61120  19.100  29.123   6.764
 4783POPC   C3A61121  19.090  29.193   7.064
 4783POPC   C4A61122  19.055  29.170   7.364
 4783POPC   C1B61123  18.808  29.305   6.464
 4783POPC   C2B61124  18.837  29.232   6.764
 4783POPC   C3B61125  18.836  29.229   7.064
 4783POPC   C4B61126  18.830  29.280   7.364
 4784POPC   NC361127   9.762  36.136   5.564
 4784POPC   PO461128   9.761  36.176   5.864
 4784POPC   GL161129   9.724  36.123   6.164
 4784POPC   GL261130   9.664  36.128   6.164
 4784POPC   C1A61131   9.727  36.148   6.464
 4784POPC   D2A61132   9.700  36.096   6.764
 4784POPC   C3A61133   9.743  36.162   7.064
 4784POPC   C4A61134   9.772  36.090   7.364
 4784POPC   C1B61135   9.489  36.040   6.464
 4784POPC   C2B61136   9.463  36.025   6.764
 4784POPC   C3B61137   9.545  36.047   7.064
 4784POPC   C4B61138   9.502  36.028   7.364
 4785POPC   NC361139   9.718  43.098   5.564
 4785POPC   PO461140   9.712  43.086   5.864
 4785POPC   GL161141   9.793  43.080   6.164
 4785POPC   GL261142   9.901  43.174   6.164
 4785POPC   C1A61143   9.798  43.111   6.464
 4785POPC   D2A61144   9.716  43.100   6.764
 4785POPC   C3A61145   9.735  43.072   7.064
 4785POPC   C4A61146   9.751  43.083   7.364
 4785POPC   C1B61147   9.969  43.203   6.464
 4785POPC   C2B61148   9.999  43.195   6.764
 4785POPC   C3B61149   9.969  43.181   7.064
 4785POPC   C4B61150   9.963  43.220   7.364
 4786POPC   NC361151  25.246  25.278   5.564
 4786POPC   PO461152  25.252  25.273   5.864
 4786POPC   GL161153  25.250  25.239   6.164
 4786POPC   GL261154  25.219  25.425   6.164
 4786POPC   C1A61155  25.217  25.242   6.464
 4786POPC   D2A61156  25.254  25.229   6.764
 4786POPC   C3A61157  25.297  25.307   7.064
 4786POPC   C4A61158  25.292  25.303   7.364
 4786POPC   C1B61159  25.130  25.499   6.464
 4786POPC   C2B61160  25.187  25.532   6.764
 4786POPC   C3B61161  25.215  25.491   7.064
 4786POPC   C4B61162  25.197  25.504   7.364
 4787POPC   NC361163  32.221  38.500   5.564
 4787POPC   PO461164  32.227  38.504   5.864
 4787POPC   GL161165  32.245  38.426   6.164
 4787POPC   GL261166  32.324  38.463   6.164
 4787POPC   C1A61167  32.239  38.414   6.464
 4787POPC   D2A61168  32.233  38.470   6.764
 4787POPC   C3A61169  32.211  38.491   7.064
 4787POPC   C4A61170  32.250  38.487   7.364
 4787POPC   C1B61171  32.458  38.500   6.464
 4787POPC   C2B61172  32.486  38.469   6.764
 4787POPC   C3B61173  32.509  38.472   7.064
 4787POPC   C4B61174  32.448  38.508   7.364
 4788POPC   NC361175   8.211  29.911   5.564
 4788POPC   PO461176   8.178  29.890   5.864
 4788POPC   GL161177   8.242  29.877   6.164
 4788POPC   GL261178   8.301  29.880   6.164
 4788POPC   C1A61179   8.152  29.962   6.464
 4788POPC   D2A61180   8.191  29.900   6.764
 4788POPC   C3A61181   8.171  29.945   7.064
 4788POPC   C4A61182   8.164  29.923   7.364
 4788POPC   C1B61183   8.372  29.767   6.464
 4788POPC   C2B61184   8.374  29.833   6.764
 4788POPC   C3B61185   8.456  29.762   7.064
 4788POPC   C4B61186   8.446  29.832   7.364
 4789POPC   NC361187  39.236  17.487   5.564
 4789POPC   PO461188  39.189  17.473   5.864
 4789POPC   GL161189  39.223  17.462   6.164
 4789POPC   GL261190  39.165  17.636   6.164
 4789POPC   C1A61191  39.216  17.484   6.464
 4789POPC   D2A61192  39.191  17.545   6.764
 4789POPC   C3A61193  39.253  17.520   7.064
 4789POPC   C4A61194  39.211  17.535   7.364
 4789POPC   C1B61195  39.229  17.708   6.464
 4789POPC   C2B61196  39.216  17.709   6.764
 4789POPC   C3B61197  39.155  17.716   7.064
 4789POPC   C4B61198  39.242  17.779   7.364
 4790POPC   NC361199   8.182   4.350   5.564
 4790POPC   PO461200   8.199   4.287   5.864
 4790POPC   GL161201   8.189   4.366   6.164
 4790POPC   GL261202   8.221   4.394   6.164
 4790POPC   C1A61203   8.205   4.330   6.464
 4790POPC   D2A61204   8.238   4.332   6.764
 4790POPC   C3A61205   8.224   4.276   7.064
 4790POPC   C4A61206   8.234   4.280   7.364
 4790POPC   C1B61207   8.319   4.523   6.464
 4790POPC   C2B61208   8.315   4.561   6.764
 4790POPC   C3B61209   8.326   4.499   7.064
 4790POPC   C4B61210   8.300   4.526   7.364
 4791POPC   NC361211  22.126   0.437   5.564
 4791POPC   PO461212  22.133   0.477   5.864
 4791POPC   GL161213  22.204   0.404   6.164
 4791POPC   GL261214  21.998   0.345   6.164
 4791POPC   C1A61215  22.129   0.469   6.464
 4791POPC   D2A61216  22.176   0.451   6.764
 4791POPC   C3A61217  22.172   0.434   7.064
 4791POPC   C4A61218  22.117   0.424   7.364
 4791POPC   C1B61219  21.884   0.349   6.464
 4791POPC   C2B61220  21.947   0.298   6.764
 4791POPC   C3B61221  21.944   0.341   7.064
 4791POPC   C4B61222  21.915   0.375   7.364
 4792POPC   NC361223   9.759  31.431   5.564
 4792POPC   PO461224   9.735  31.472   5.864
 4792POPC   GL161225   9.702  31.520   6.164
 4792POPC   GL261226   9.821  31.307   6.164
 4792POPC   C1A61227   9.730  31.519   6.464
 4792POPC   D2A61228   9.755  31.428   6.764
 4792POPC   C3A61229   9.782  31.484   7.064
 4792POPC   C4A61230   9.788  31.466   7.364
 4792POPC   C1B61231   9.781  31.201   6.464
 4792POPC   C2B61232   9.759  31.247   6.764
 4792POPC   C3B61233   9.786  31.211   7.064
 4792POPC   C4B61234   9.806  31.263   7.364
 4793POPC   NC361235  28.389  15.964   5.564
 4793POPC   PO461236  28.336  15.984   5.864
 4793POPC   GL161237  28.326  15.978   6.164
 4793POPC   GL261238  28.341  15.818   6.164
 4793POPC   C1A61239  28.397  15.982   6.464
 4793POPC   D2A61240  28.360  15.925   6.764
 4793POPC   C3A61241  28.372  15.992   7.064
 4793POPC   C4A61242  28.328  15.970   7.364
 4793POPC   C1B61243  28.269  15.663   6.464
 4793POPC   C2B61244  28.267  15.670   6.764
 4793POPC   C3B61245  28.329  15.685   7.064
 4793POPC   C4B61246  28.355  15.742   7.364
 4794POPC   NC361247  21.426  40.020   5.564
 4794POPC   PO461248  21.364  40.001   5.864
 4794POPC   GL161249  21.431  39.986   6.164
 4794POPC   GL261250  21.371  40.136   6.164
 4794POPC   C1A61251  21.382  39.971   6.464
 4794POPC   D2A61252  21.352  40.036   6.764
 4794POPC   C3A61253  21.431  40.042   7.064
 4794POPC   C4A61254  21.350  40.027   7.364
 4794POPC   C1B61255  21.341  40.283   6.464
 4794POPC   C2B61256  21.358  40.209   6.764
 4794POPC   C3B61257  21.353  40.292   7.064
 4794POPC   C4B61258  21.374  40.274   7.364
 4795POPC   NC361259  12.838  14.416   5.564
 4795POPC   PO461260  12.892  14.411   5.864
 4795POPC   GL161261  12.833  14.438   6.164
 4795POPC   GL261262  12.743  14.514   6.164
 4795POPC   C1A61263  12.841  14.399   6.464
 4795POPC   D2A61264  12.827  14.453   6.764
 4795POPC   C3A61265  12.847  14.442   7.064
 4795POPC   C4A61266  12.877  14.405   7.364
 4795POPC   C1B61267  12.709  14.596   6.464
 4795POPC   C2B61268  12.666  14.629   6.764
 4795POPC   C3B61269  12.631  14.627   7.064
 4795POPC   C4B61270  12.697  14.556   7.364
 4796POPC   NC361271  32.993  11.316   5.564
 4796POPC   PO461272  33.051  11.276   5.864
 4796POPC   GL161273  33.073  11.334   6.164
 4796POPC   GL261274  33.122  11.189   6.164
 4796POPC   C1A61275  33.000  11.330   6.464
 4796POPC   D2A61276  33.039  11.321   6.764
 4796POPC   C3A61277  33.046  11.255   7.064
 4796POPC   C4A61278  33.012  11.303   7.364
 4796POPC   C1B61279  33.147  11.131   6.464
 4796POPC   C2B61280  33.182  11.084   6.764
 4796POPC   C3B61281  33.201  11.075   7.064
 4796POPC   C4B61282  33.226  11.097   7.364
 4797POPC   NC361283  12.087  40.772   5.564
 4797POPC   PO461284  12.121  40.780   5.864
 4797POPC   GL161285  12.028  40.749   6.164
 4797POPC   GL261286  11.979  40.855   6.164
 4797POPC   C1A61287  12.108  40.757   6.464
 4797POPC   D2A61288  12.115  40.783   6.764
 4797POPC   C3A61289  12.068  40.746   7.064
 4797POPC   C4A61290  12.053  40.827   7.364
 4797POPC   C1B61291  11.834  40.797   6.464
 4797POPC   C2B61292  11.839  40.867   6.764
 4797POPC   C3B61293  11.811  40.863   7.064
 4797POPC   C4B61294  11.835  40.801   7.364
 4798POPC   NC361295  16.761  29.904   5.564
 4798POPC   PO461296  16.713  29.923   5.864
 4798POPC   GL161297  16.692  29.887   6.164
 4798POPC   GL261298  16.628  29.849   6.164
 4798POPC   C1A61299  16.776  29.927   6.464
 4798POPC   D2A61300  16.737  29.956   6.764
 4798POPC   C3A61301  16.692  29.934   7.064
 4798POPC   C4A61302  16.767  29.913   7.364
 4798POPC   C1B61303  16.540  29.733   6.464
 4798POPC   C2B61304  16.567  29.747   6.764
 4798POPC   C3B61305  16.597  29.701   7.064
 4798POPC   C4B61306  16.590  29.762   7.364
 4799POPC   NC361307  32.224   7.463   5.564
 4799POPC   PO461308  32.225   7.379   5.864
 4799POPC   GL161309  32.206   7.417   6.164
 4799POPC   GL261310  32.385   7.396   6.164
 4799POPC   C1A61311  32.233   7.376   6.464
 4799POPC   D2A61312  32.231   7.423   6.764
 4799POPC   C3A61313  32.252   7.410   7.064
 4799POPC   C4A61314  32.287   7.387   7.364
 4799POPC   C1B61315  32.443   7.367   6.464
 4799POPC   C2B61316  32.474   7.385   6.764
 4799POPC   C3B61317  32.535   7.390   7.064
 4799POPC   C4B61318  32.466   7.403   7.364
 4800POPC   NC361319  16.707  11.291   5.564
 4800POPC   PO461320  16.709  11.308   5.864
 4800POPC   GL161321  16.706  11.340   6.164
 4800POPC   GL261322  16.604  11.312   6.164
 4800POPC   C1A61323  16.710  11.331   6.464
 4800POPC   D2A61324  16.774  11.275   6.764
 4800POPC   C3A61325  16.709  11.257   7.064
 4800POPC   C4A61326  16.720  11.305   7.364
 4800POPC   C1B61327  16.526  11.382   6.464
 4800POPC   C2B61328  16.514  11.354   6.764
 4800POPC   C3B61329  16.484  11.366   7.064
 4800POPC   C4B61330  16.513  11.367   7.364
 4801POPC   NC361331  26.772  22.185   5.564
 4801POPC   PO461332  26.866  22.182   5.864
 4801POPC   GL161333  26.834  22.142   6.164
 4801POPC   GL261334  26.877  22.108   6.164
 4801POPC   C1A61335  26.831  22.125   6.464
 4801POPC   D2A61336  26.825  22.161   6.764
 4801POPC   C3A61337  26.849  22.123   7.064
 4801POPC   C4A61338  26.821  22.177   7.364
 4801POPC   C1B61339  27.004  22.059   6.464
 4801POPC   C2B61340  27.040  22.017   6.764
 4801POPC   C3B61341  27.022  22.059   7.064
 4801POPC   C4B61342  27.017  22.043   7.364
 4802POPC   NC361343   3.581   5.075   5.564
 4802POPC   PO461344   3.506   5.053   5.864
 4802POPC   GL161345   3.536   5.108   6.164
 4802POPC   GL261346   3.626   4.978   6.164
 4802POPC   C1A61347   3.572   5.064   6.464
 4802POPC   D2A61348   3.578   5.122   6.764
 4802POPC   C3A61349   3.566   5.117   7.064
 4802POPC   C4A61350   3.532   5.108   7.364
 4802POPC   C1B61351   3.788   4.926   6.464
 4802POPC   C2B61352   3.766   4.923   6.764
 4802POPC   C3B61353   3.784   4.930   7.064
 4802POPC   C4B61354   3.750   4.996   7.364
 4803POPC   NC361355  12.814  19.792   5.564
 4803POPC   PO461356  12.839  19.879   5.864
 4803POPC   GL161357  12.829  19.816   6.164
 4803POPC   GL261358  12.740  19.814   6.164
 4803POPC   C1A61359  12.818  19.788   6.464
 4803POPC   D2A61360  12.876  19.848   6.764
 4803POPC   C3A61361  12.882  19.791   7.064
 4803POPC   C4A61362  12.827  19.808   7.364
 4803POPC   C1B61363  12.597  19.705   6.464
 4803POPC   C2B61364  12.585  19.697   6.764
 4803POPC   C3B61365  12.631  19.719   7.064
 4803POPC   C4B61366  12.573  19.783   7.364
 4804POPC   NC361367  22.920   2.764   5.564
 4804POPC   PO461368  22.981   2.785   5.864
 4804POPC   GL161369  22.930   2.804   6.164
 4804POPC   GL261370  22.985   2.667   6.164
 4804POPC   C1A61371  22.982   2.761   6.464
 4804POPC   D2A61372  22.930   2.777   6.764
 4804POPC   C3A61373  22.929   2.807   7.064
 4804POPC   C4A61374  22.921   2.741   7.364
 4804POPC   C1B61375  22.945   2.512   6.464
 4804POPC   C2B61376  22.947   2.538   6.764
 4804POPC   C3B61377  23.000   2.483   7.064
 4804POPC   C4B61378  23.011   2.473   7.364
 4805POPC   NC361379  38.482   2.021   5.564
 4805POPC   PO461380  38.431   1.987   5.864
 4805POPC   GL161381  38.457   2.027   6.164
 4805POPC   GL261382  38.313   1.959   6.164
 4805POPC   C1A61383  38.454   1.971   6.464
 4805POPC   D2A61384  38.426   2.033   6.764
 4805POPC   C3A61385  38.443   2.012   7.064
 4805POPC   C4A61386  38.467   1.974   7.364
 4805POPC   C1B61387  38.219   1.890   6.464
 4805POPC   C2B61388  38.188   1.954   6.764
 4805POPC   C3B61389  38.178   1.923   7.064
 4805POPC   C4B61390  38.231   1.931   7.364
 4806POPC   NC361391   5.892  34.619   5.564
 4806POPC   PO461392   5.882  34.614   5.864
 4806POPC   GL161393   5.903  34.623   6.164
 4806POPC   GL261394   5.985  34.463   6.164
 4806POPC   C1A61395   5.835  34.539   6.464
 4806POPC   D2A61396   5.895  34.605   6.764
 4806POPC   C3A61397   5.857  34.602   7.064
 4806POPC   C4A61398   5.882  34.568   7.364
 4806POPC   C1B61399   6.035  34.385   6.464
 4806POPC   C2B61400   6.053  34.395   6.764
 4806POPC   C3B61401   6.034  34.329   7.064
 4806POPC   C4B61402   6.026  34.349   7.364
 4807POPC   NC361403  31.446  21.363   5.564
 4807POPC   PO461404  31.504  21.374   5.864
 4807POPC   GL161405  31.510  21.425   6.164
 4807POPC   GL261406  31.332  21.333   6.164
 4807POPC   C1A61407  31.450  21.351   6.464
 4807POPC   D2A61408  31.438  21.425   6.764
 4807POPC   C3A61409  31.490  21.425   7.064
 4807POPC   C4A61410  31.491  21.393   7.364
 4807POPC   C1B61411  31.273  21.201   6.464
 4807POPC   C2B61412  31.245  21.219   6.764
 4807POPC   C3B61413  31.270  21.213   7.064
 4807POPC   C4B61414  31.258  21.220   7.364
 4808POPC   NC361415  24.492  11.271   5.564
 4808POPC   PO461416  24.489  11.307   5.864
 4808POPC   GL161417  24.504  11.278   6.164
 4808POPC   GL261418  24.438  11.409   6.164
 4808POPC   C1A61419  24.517  11.252   6.464
 4808POPC   D2A61420  24.442  11.319   6.764
 4808POPC   C3A61421  24.456  11.258   7.064
 4808POPC   C4A61422  24.449  11.319   7.364
 4808POPC   C1B61423  24.446  11.547   6.464
 4808POPC   C2B61424  24.399  11.540   6.764
 4808POPC   C3B61425  24.470  11.546   7.064
 4808POPC   C4B61426  24.420  11.544   7.364
 4809POPC   NC361427  22.926  12.815   5.564
 4809POPC   PO461428  22.950  12.810   5.864
 4809POPC   GL161429  22.986  12.845   6.164
 4809POPC   GL261430  22.824  12.809   6.164
 4809POPC   C1A61431  22.943  12.875   6.464
 4809POPC   D2A61432  22.951  12.896   6.764
 4809POPC   C3A61433  22.916  12.896   7.064
 4809POPC   C4A61434  22.932  12.876   7.364
 4809POPC   C1B61435  22.736  12.688   6.464
 4809POPC   C2B61436  22.736  12.708   6.764
 4809POPC   C3B61437  22.737  12.672   7.064
 4809POPC   C4B61438  22.750  12.718   7.364
 4810POPC   NC361439  44.634  29.958   5.564
 4810POPC   PO461440  44.690  29.948   5.864
 4810POPC   GL161441  44.620  29.897   6.164
 4810POPC   GL261442  44.526  29.829   6.164
 4810POPC   C1A61443  44.704  29.910   6.464
 4810POPC   D2A61444  44.704  29.917   6.764
 4810POPC   C3A61445  44.661  29.966   7.064
 4810POPC   C4A61446  44.635  29.929   7.364
 4810POPC   C1B61447  44.462  29.769   6.464
 4810POPC   C2B61448  44.479  29.769   6.764
 4810POPC   C3B61449  44.469  29.805   7.064
 4810POPC   C4B61450  44.439  29.762   7.364
 4811POPC   NC361451  43.846  40.028   5.564
 4811POPC   PO461452  43.867  40.010   5.864
 4811POPC   GL161453  43.847  40.021   6.164
 4811POPC   GL261454  43.907  39.869   6.164
 4811POPC   C1A61455  43.913  40.050   6.464
 4811POPC   D2A61456  43.873  39.994   6.764
 4811POPC   C3A61457  43.929  39.965   7.064
 4811POPC   C4A61458  43.915  39.969   7.364
 4811POPC   C1B61459  43.899  39.803   6.464
 4811POPC   C2B61460  43.927  39.759   6.764
 4811POPC   C3B61461  43.922  39.743   7.064
 4811POPC   C4B61462  43.899  39.735   7.364
 4812POPC   NC361463  18.279  35.356   5.564
 4812POPC   PO461464  18.257  35.349   5.864
 4812POPC   GL161465  18.322  35.381   6.164
 4812POPC   GL261466  18.433  35.260   6.164
 4812POPC   C1A61467  18.331  35.348   6.464
 4812POPC   D2A61468  18.305  35.316   6.764
 4812POPC   C3A61469  18.288  35.303   7.064
 4812POPC   C4A61470  18.316  35.302   7.364
 4812POPC   C1B61471  18.500  35.286   6.464
 4812POPC   C2B61472  18.507  35.281   6.764
 4812POPC   C3B61473  18.471  35.247   7.064
 4812POPC   C4B61474  18.472  35.271   7.364
 4813POPC   NC361475   2.795   7.446   5.564
 4813POPC   PO461476   2.727   7.405   5.864
 4813POPC   GL161477   2.808   7.411   6.164
 4813POPC   GL261478   2.605   7.478   6.164
 4813POPC   C1A61479   2.795   7.418   6.464
 4813POPC   D2A61480   2.803   7.439   6.764
 4813POPC   C3A61481   2.760   7.436   7.064
 4813POPC   C4A61482   2.755   7.467   7.364
 4813POPC   C1B61483   2.519   7.489   6.464
 4813POPC   C2B61484   2.554   7.477   6.764
 4813POPC   C3B61485   2.566   7.499   7.064
 4813POPC   C4B61486   2.540   7.549   7.364
 4814POPC   NC361487  14.392  32.281   5.564
 4814POPC   PO461488  14.398  32.260   5.864
 4814POPC   GL161489  14.450  32.223   6.164
 4814POPC   GL261490  14.323  32.158   6.164
 4814POPC   C1A61491  14.444  32.285   6.464
 4814POPC   D2A61492  14.423  32.243   6.764
 4814POPC   C3A61493  14.434  32.274   7.064
 4814POPC   C4A61494  14.386  32.234   7.364
 4814POPC   C1B61495  14.362  31.993   6.464
 4814POPC   C2B61496  14.304  32.055   6.764
 4814POPC   C3B61497  14.298  32.039   7.064
 4814POPC   C4B61498  14.304  32.052   7.364
 4815POPC   NC361499   9.699  11.330   5.564
 4815POPC   PO461500   9.770  11.347   5.864
 4815POPC   GL161501   9.730  11.267   6.164
 4815POPC   GL261502   9.658  11.393   6.164
 4815POPC   C1A61503   9.731  11.339   6.464
 4815POPC   D2A61504   9.734  11.344   6.764
 4815POPC   C3A61505   9.784  11.295   7.064
 4815POPC   C4A61506   9.702  11.273   7.364
 4815POPC   C1B61507   9.570  11.436   6.464
 4815POPC   C2B61508   9.487  11.421   6.764
 4815POPC   C3B61509   9.535  11.389   7.064
 4815POPC   C4B61510   9.532  11.417   7.364
 4816POPC   NC361511  15.152  19.079   5.564
 4816POPC   PO461512  15.189  19.036   5.864
 4816POPC   GL161513  15.178  19.050   6.164
 4816POPC   GL261514  15.264  19.184   6.164
 4816POPC   C1A61515  15.203  19.016   6.464
 4816POPC   D2A61516  15.194  19.025   6.764
 4816POPC   C3A61517  15.176  19.106   7.064
 4816POPC   C4A61518  15.205  19.067   7.364
 4816POPC   C1B61519  15.350  19.239   6.464
 4816POPC   C2B61520  15.391  19.200   6.764
 4816POPC   C3B61521  15.356  19.251   7.064
 4816POPC   C4B61522  15.379  19.204   7.364
 4817POPC   NC361523  37.705  40.783   5.564
 4817POPC   PO461524  37.700  40.806   5.864
 4817POPC   GL161525  37.637  40.826   6.164
 4817POPC   GL261526  37.794  40.834   6.164
 4817POPC   C1A61527  37.660  40.773   6.464
 4817POPC   D2A61528  37.681  40.830   6.764
 4817POPC   C3A61529  37.710  40.809   7.064
 4817POPC   C4A61530  37.670  40.826   7.364
 4817POPC   C1B61531  37.968  40.826   6.464
 4817POPC   C2B61532  37.934  40.823   6.764
 4817POPC   C3B61533  37.883  40.864   7.064
 4817POPC   C4B61534  37.883  40.808   7.364
 4818POPC   NC361535  36.112   9.700   5.564
 4818POPC   PO461536  36.166   9.793   5.864
 4818POPC   GL161537  36.152   9.792   6.164
 4818POPC   GL261538  36.232   9.801   6.164
 4818POPC   C1A61539  36.146   9.795   6.464
 4818POPC   D2A61540  36.176   9.747   6.764
 4818POPC   C3A61541  36.118   9.784   7.064
 4818POPC   C4A61542  36.157   9.717   7.364
 4818POPC   C1B61543  36.275   9.972   6.464
 4818POPC   C2B61544  36.312   9.905   6.764
 4818POPC   C3B61545  36.311   9.902   7.064
 4818POPC   C4B61546  36.300   9.967   7.364
 4819POPC   NC361547  17.544  36.947   5.564
 4819POPC   PO461548  17.504  36.877   5.864
 4819POPC   GL161549  17.534  36.898   6.164
 4819POPC   GL261550  17.546  36.845   6.164
 4819POPC   C1A61551  17.509  36.857   6.464
 4819POPC   D2A61552  17.497  36.875   6.764
 4819POPC   C3A61553  17.486  36.936   7.064
 4819POPC   C4A61554  17.542  36.950   7.364
 4819POPC   C1B61555  17.635  36.745   6.464
 4819POPC   C2B61556  17.708  36.728   6.764
 4819POPC   C3B61557  17.655  36.765   7.064
 4819POPC   C4B61558  17.699  36.741   7.364
 4820POPC   NC361559  26.857  21.377   5.564
 4820POPC   PO461560  26.856  21.408   5.864
 4820POPC   GL161561  26.773  21.432   6.164
 4820POPC   GL261562  26.964  21.462   6.164
 4820POPC   C1A61563  26.856  21.404   6.464
 4820POPC   D2A61564  26.781  21.436   6.764
 4820POPC   C3A61565  26.812  21.338   7.064
 4820POPC   C4A61566  26.816  21.394   7.364
 4820POPC   C1B61567  27.076  21.506   6.464
 4820POPC   C2B61568  27.005  21.469   6.764
 4820POPC   C3B61569  27.037  21.500   7.064
 4820POPC   C4B61570  27.004  21.494   7.364
 4821POPC   NC361571  11.275  11.286   5.564
 4821POPC   PO461572  11.261  11.265   5.864
 4821POPC   GL161573  11.337  11.261   6.164
 4821POPC   GL261574  11.230  11.186   6.164
 4821POPC   C1A61575  11.305  11.263   6.464
 4821POPC   D2A61576  11.286  11.326   6.764
 4821POPC   C3A61577  11.344  11.314   7.064
 4821POPC   C4A61578  11.277  11.317   7.364
 4821POPC   C1B61579  11.254  11.030   6.464
 4821POPC   C2B61580  11.251  11.030   6.764
 4821POPC   C3B61581  11.223  11.099   7.064
 4821POPC   C4B61582  11.196  11.063   7.364
 4822POPC   NC361583   8.997  13.619   5.564
 4822POPC   PO461584   8.963  13.590   5.864
 4822POPC   GL161585   8.946  13.632   6.164
 4822POPC   GL261586   8.882  13.733   6.164
 4822POPC   C1A61587   8.994  13.668   6.464
 4822POPC   D2A61588   9.003  13.607   6.764
 4822POPC   C3A61589   9.016  13.591   7.064
 4822POPC   C4A61590   8.979  13.600   7.364
 4822POPC   C1B61591   8.816  13.815   6.464
 4822POPC   C2B61592   8.888  13.822   6.764
 4822POPC   C3B61593   8.850  13.844   7.064
 4822POPC   C4B61594   8.876  13.819   7.364
 4823POPC   NC361595   3.559  28.346   5.564
 4823POPC   PO461596   3.566  28.384   5.864
 4823POPC   GL161597   3.495  28.407   6.164
 4823POPC   GL261598   3.537  28.207   6.164
 4823POPC   C1A61599   3.582  28.354   6.464
 4823POPC   D2A61600   3.551  28.328   6.764
 4823POPC   C3A61601   3.531  28.402   7.064
 4823POPC   C4A61602   3.583  28.354   7.364
 4823POPC   C1B61603   3.483  28.115   6.464
 4823POPC   C2B61604   3.507  28.073   6.764
 4823POPC   C3B61605   3.506  28.089   7.064
 4823POPC   C4B61606   3.567  28.152   7.364
 4824POPC   NC361607   5.095  19.813   5.564
 4824POPC   PO461608   5.133  19.813   5.864
 4824POPC   GL161609   5.138  19.861   6.164
 4824POPC   GL261610   5.021  19.789   6.164
 4824POPC   C1A61611   5.111  19.844   6.464
 4824POPC   D2A61612   5.043  19.844   6.764
 4824POPC   C3A61613   5.128  19.819   7.064
 4824POPC   C4A61614   5.044  19.809   7.364
 4824POPC   C1B61615   4.890  19.617   6.464
 4824POPC   C2B61616   4.879  19.609   6.764
 4824POPC   C3B61617   4.932  19.702   7.064
 4824POPC   C4B61618   4.903  19.607   7.364
 4825POPC   NC361619  17.514  14.397   5.564
 4825POPC   PO461620  17.550  14.413   5.864
 4825POPC   GL161621  17.488  14.397   6.164
 4825POPC   GL261622  17.476  14.536   6.164
 4825POPC   C1A61623  17.511  14.390   6.464
 4825POPC   D2A61624  17.495  14.406   6.764
 4825POPC   C3A61625  17.468  14.426   7.064
 4825POPC   C4A61626  17.465  14.375   7.364
 4825POPC   C1B61627  17.358  14.661   6.464
 4825POPC   C2B61628  17.454  14.599   6.764
 4825POPC   C3B61629  17.409  14.643   7.064
 4825POPC   C4B61630  17.454  14.614   7.364
 4826POPC   NC361631  13.602   8.190   5.564
 4826POPC   PO461632  13.606   8.176   5.864
 4826POPC   GL161633  13.615   8.158   6.164
 4826POPC   GL261634  13.502   8.109   6.164
 4826POPC   C1A61635  13.586   8.239   6.464
 4826POPC   D2A61636  13.654   8.172   6.764
 4826POPC   C3A61637  13.655   8.168   7.064
 4826POPC   C4A61638  13.654   8.211   7.364
 4826POPC   C1B61639  13.386   8.089   6.464
 4826POPC   C2B61640  13.383   8.116   6.764
 4826POPC   C3B61641  13.390   8.037   7.064
 4826POPC   C4B61642  13.418   8.090   7.364
 4827POPC   NC361643  22.893  36.166   5.564
 4827POPC   PO461644  22.961  36.103   5.864
 4827POPC   GL161645  22.972  36.100   6.164
 4827POPC   GL261646  23.036  36.211   6.164
 4827POPC   C1A61647  22.943  36.161   6.464
 4827POPC   D2A61648  22.915  36.117   6.764
 4827POPC   C3A61649  22.902  36.136   7.064
 4827POPC   C4A61650  22.902  36.120   7.364
 4827POPC   C1B61651  23.064  36.362   6.464
 4827POPC   C2B61652  23.040  36.328   6.764
 4827POPC   C3B61653  23.100  36.310   7.064
 4827POPC   C4B61654  23.100  36.396   7.364
 4828POPC   NC361655   7.400  12.031   5.564
 4828POPC   PO461656   7.397  12.032   5.864
 4828POPC   GL161657   7.389  12.035   6.164
 4828POPC   GL261658   7.483  11.964   6.164
 4828POPC   C1A61659   7.437  12.047   6.464
 4828POPC   D2A61660   7.377  12.047   6.764
 4828POPC   C3A61661   7.450  12.093   7.064
 4828POPC   C4A61662   7.426  12.065   7.364
 4828POPC   C1B61663   7.521  11.806   6.464
 4828POPC   C2B61664   7.517  11.798   6.764
 4828POPC   C3B61665   7.470  11.817   7.064
 4828POPC   C4B61666   7.480  11.825   7.364
 4829POPC   NC361667  23.760   2.038   5.564
 4829POPC   PO461668  23.697   2.026   5.864
 4829POPC   GL161669  23.741   2.028   6.164
 4829POPC   GL261670  23.834   1.921   6.164
 4829POPC   C1A61671  23.701   1.943   6.464
 4829POPC   D2A61672  23.669   1.977   6.764
 4829POPC   C3A61673  23.686   2.015   7.064
 4829POPC   C4A61674  23.718   1.947   7.364
 4829POPC   C1B61675  23.947   1.934   6.464
 4829POPC   C2B61676  23.946   1.928   6.764
 4829POPC   C3B61677  23.973   1.941   7.064
 4829POPC   C4B61678  23.932   1.887   7.364
 4830POPC   NC361679  32.217  15.973   5.564
 4830POPC   PO461680  32.266  15.985   5.864
 4830POPC   GL161681  32.260  15.956   6.164
 4830POPC   GL261682  32.110  15.904   6.164
 4830POPC   C1A61683  32.262  15.961   6.464
 4830POPC   D2A61684  32.298  15.961   6.764
 4830POPC   C3A61685  32.298  15.961   7.064
 4830POPC   C4A61686  32.235  15.941   7.364
 4830POPC   C1B61687  31.974  15.876   6.464
 4830POPC   C2B61688  32.042  15.844   6.764
 4830POPC   C3B61689  31.979  15.808   7.064
 4830POPC   C4B61690  32.003  15.869   7.364
 4831POPC   NC361691  41.584  43.899   5.564
 4831POPC   PO461692  41.537  43.901   5.864
 4831POPC   GL161693  41.548  43.936   6.164
 4831POPC   GL261694  41.454  43.919   6.164
 4831POPC   C1A61695  41.595  43.842   6.464
 4831POPC   D2A61696  41.540  43.847   6.764
 4831POPC   C3A61697  41.520  43.868   7.064
 4831POPC   C4A61698  41.608  43.865   7.364
 4831POPC   C1B61699  41.304  44.033   6.464
 4831POPC   C2B61700  41.303  44.047   6.764
 4831POPC   C3B61701  41.382  44.001   7.064
 4831POPC   C4B61702  41.386  44.056   7.364
 4832POPC   NC361703  35.365  15.947   5.564
 4832POPC   PO461704  35.372  15.990   5.864
 4832POPC   GL161705  35.336  15.984   6.164
 4832POPC   GL261706  35.232  15.856   6.164
 4832POPC   C1A61707  35.363  15.976   6.464
 4832POPC   D2A61708  35.402  15.990   6.764
 4832POPC   C3A61709  35.335  15.982   7.064
 4832POPC   C4A61710  35.330  16.001   7.364
 4832POPC   C1B61711  35.120  15.802   6.464
 4832POPC   C2B61712  35.153  15.831   6.764
 4832POPC   C3B61713  35.121  15.762   7.064
 4832POPC   C4B61714  35.171  15.800   7.364
 4833POPC   NC361715   8.203   5.063   5.564
 4833POPC   PO461716   8.244   5.082   5.864
 4833POPC   GL161717   8.190   5.105   6.164
 4833POPC   GL261718   8.232   4.971   6.164
 4833POPC   C1A61719   8.197   5.128   6.464
 4833POPC   D2A61720   8.219   5.044   6.764
 4833POPC   C3A61721   8.166   5.070   7.064
 4833POPC   C4A61722   8.232   5.092   7.364
 4833POPC   C1B61723   8.185   4.821   6.464
 4833POPC   C2B61724   8.222   4.854   6.764
 4833POPC   C3B61725   8.200   4.794   7.064
 4833POPC   C4B61726   8.235   4.871   7.364
 4834POPC   NC361727  40.011  33.009   5.564
 4834POPC   PO461728  39.967  32.974   5.864
 4834POPC   GL161729  39.981  33.008   6.164
 4834POPC   GL261730  40.029  32.908   6.164
 4834POPC   C1A61731  40.001  33.063   6.464
 4834POPC   D2A61732  40.024  33.027   6.764
 4834POPC   C3A61733  40.026  33.046   7.064
 4834POPC   C4A61734  40.004  32.982   7.364
 4834POPC   C1B61735  40.094  32.795   6.464
 4834POPC   C2B61736  40.136  32.760   6.764
 4834POPC   C3B61737  40.148  32.775   7.064
 4834POPC   C4B61738  40.064  32.787   7.364
 4835POPC   NC361739  10.517  30.737   5.564
 4835POPC   PO461740  10.499  30.725   5.864
 4835POPC   GL161741  10.497  30.687   6.164
 4835POPC   GL261742  10.446  30.796   6.164
 4835POPC   C1A61743  10.544  30.718   6.464
 4835POPC   D2A61744  10.542  30.731   6.764
 4835POPC   C3A61745  10.569  30.678   7.064
 4835POPC   C4A61746  10.516  30.657   7.364
 4835POPC   C1B61747  10.414  30.922   6.464
 4835POPC   C2B61748  10.492  30.908   6.764
 4835POPC   C3B61749  10.505  30.931   7.064
 4835POPC   C4B61750  10.499  30.967   7.364
 4836POPC   NC361751  41.599  34.619   5.564
 4836POPC   PO461752  41.518  34.571   5.864
 4836POPC   GL161753  41.541  34.552   6.164
 4836POPC   GL261754  41.534  34.473   6.164
 4836POPC   C1A61755  41.608  34.587   6.464
 4836POPC   D2A61756  41.576  34.528   6.764
 4836POPC   C3A61757  41.526  34.532   7.064
 4836POPC   C4A61758  41.536  34.575   7.364
 4836POPC   C1B61759  41.403  34.394   6.464
 4836POPC   C2B61760  41.464  34.327   6.764
 4836POPC   C3B61761  41.420  34.340   7.064
 4836POPC   C4B61762  41.476  34.316   7.364
 4837POPC   NC361763  29.179  25.223   5.564
 4837POPC   PO461764  29.135  25.240   5.864
 4837POPC   GL161765  29.186  25.278   6.164
 4837POPC   GL261766  29.198  25.346   6.164
 4837POPC   C1A61767  29.128  25.254   6.464
 4837POPC   D2A61768  29.152  25.230   6.764
 4837POPC   C3A61769  29.126  25.247   7.064
 4837POPC   C4A61770  29.120  25.224   7.364
 4837POPC   C1B61771  29.347  25.424   6.464
 4837POPC   C2B61772  29.362  25.419   6.764
 4837POPC   C3B61773  29.314  25.414   7.064
 4837POPC   C4B61774  29.357  25.458   7.364
 4838POPC   NC361775  11.318   8.173   5.564
 4838POPC   PO461776  11.310   8.165   5.864
 4838POPC   GL161777  11.338   8.198   6.164
 4838POPC   GL261778  11.436   8.275   6.164
 4838POPC   C1A61779  11.296   8.207   6.464
 4838POPC   D2A61780  11.255   8.151   6.764
 4838POPC   C3A61781  11.307   8.220   7.064
 4838POPC   C4A61782  11.280   8.206   7.364
 4838POPC   C1B61783  11.548   8.283   6.464
 4838POPC   C2B61784  11.541   8.290   6.764
 4838POPC   C3B61785  11.522   8.262   7.064
 4838POPC   C4B61786  11.474   8.300   7.364
 4839POPC   NC361787   2.809  41.531   5.564
 4839POPC   PO461788   2.785  41.563   5.864
 4839POPC   GL161789   2.738  41.537   6.164
 4839POPC   GL261790   2.675  41.689   6.164
 4839POPC   C1A61791   2.764  41.600   6.464
 4839POPC   D2A61792   2.716  41.524   6.764
 4839POPC   C3A61793   2.793  41.555   7.064
 4839POPC   C4A61794   2.746  41.543   7.364
 4839POPC   C1B61795   2.668  41.769   6.464
 4839POPC   C2B61796   2.574  41.753   6.764
 4839POPC   C3B61797   2.623  41.777   7.064
 4839POPC   C4B61798   2.671  41.759   7.364
 4840POPC   NC361799  28.392  43.859   5.564
 4840POPC   PO461800  28.352  43.857   5.864
 4840POPC   GL161801  28.385  43.901   6.164
 4840POPC   GL261802  28.237  43.854   6.164
 4840POPC   C1A61803  28.385  43.873   6.464
 4840POPC   D2A61804  28.353  43.889   6.764
 4840POPC   C3A61805  28.336  43.841   7.064
 4840POPC   C4A61806  28.355  43.906   7.364
 4840POPC   C1B61807  28.139  43.918   6.464
 4840POPC   C2B61808  28.153  43.873   6.764
 4840POPC   C3B61809  28.079  43.876   7.064
 4840POPC   C4B61810  28.169  43.954   7.364
 4841POPC   NC361811   0.400  11.289   5.564
 4841POPC   PO461812   0.467  11.321   5.864
 4841POPC   GL161813   0.438  11.252   6.164
 4841POPC   GL261814   0.334  11.370   6.164
 4841POPC   C1A61815   0.405  11.310   6.464
 4841POPC   D2A61816   0.450  11.254   6.764
 4841POPC   C3A61817   0.462  11.319   7.064
 4841POPC   C4A61818   0.425  11.295   7.364
 4841POPC   C1B61819   0.230  11.408   6.464
 4841POPC   C2B61820   0.175  11.445   6.764
 4841POPC   C3B61821   0.216  11.361   7.064
 4841POPC   C4B61822   0.178  11.361   7.364
 4842POPC   NC361823   6.659   4.318   5.564
 4842POPC   PO461824   6.690   4.329   5.864
 4842POPC   GL161825   6.604   4.275   6.164
 4842POPC   GL261826   6.628   4.148   6.164
 4842POPC   C1A61827   6.634   4.361   6.464
 4842POPC   D2A61828   6.599   4.354   6.764
 4842POPC   C3A61829   6.694   4.301   7.064
 4842POPC   C4A61830   6.630   4.365   7.364
 4842POPC   C1B61831   6.652   4.033   6.464
 4842POPC   C2B61832   6.679   4.041   6.764
 4842POPC   C3B61833   6.670   4.066   7.064
 4842POPC   C4B61834   6.672   4.111   7.364
 4843POPC   NC361835   0.407  24.505   5.564
 4843POPC   PO461836   0.487  24.516   5.864
 4843POPC   GL161837   0.415  24.526   6.164
 4843POPC   GL261838   0.514  24.555   6.164
 4843POPC   C1A61839   0.395  24.496   6.464
 4843POPC   D2A61840   0.473  24.517   6.764
 4843POPC   C3A61841   0.449  24.460   7.064
 4843POPC   C4A61842   0.436  24.450   7.364
 4843POPC   C1B61843   0.697  24.569   6.464
 4843POPC   C2B61844   0.687  24.566   6.764
 4843POPC   C3B61845   0.646  24.591   7.064
 4843POPC   C4B61846   0.682  24.605   7.364
 4844POPC   NC361847   2.778  40.048   5.564
 4844POPC   PO461848   2.725  40.011   5.864
 4844POPC   GL161849   2.785  40.054   6.164
 4844POPC   GL261850   2.856  39.884   6.164
 4844POPC   C1A61851   2.806  40.040   6.464
 4844POPC   D2A61852   2.759  39.977   6.764
 4844POPC   C3A61853   2.811  39.974   7.064
 4844POPC   C4A61854   2.775  39.980   7.364
 4844POPC   C1B61855   2.961  39.829   6.464
 4844POPC   C2B61856   2.953  39.864   6.764
 4844POPC   C3B61857   2.972  39.859   7.064
 4844POPC   C4B61858   2.947  39.787   7.364
 4845POPC   NC361859   1.179  43.120   5.564
 4845POPC   PO461860   1.203  43.070   5.864
 4845POPC   GL161861   1.206  43.119   6.164
 4845POPC   GL261862   1.230  42.961   6.164
 4845POPC   C1A61863   1.193  43.099   6.464
 4845POPC   D2A61864   1.211  43.067   6.764
 4845POPC   C3A61865   1.182  43.074   7.064
 4845POPC   C4A61866   1.221  43.160   7.364
 4845POPC   C1B61867   1.355  42.838   6.464
 4845POPC   C2B61868   1.296  42.845   6.764
 4845POPC   C3B61869   1.299  42.864   7.064
 4845POPC   C4B61870   1.289  42.842   7.364
 4846POPC   NC361871  15.189  37.640   5.564
 4846POPC   PO461872  15.161  37.670   5.864
 4846POPC   GL161873  15.191  37.713   6.164
 4846POPC   GL261874  15.251  37.602   6.164
 4846POPC   C1A61875  15.224  37.646   6.464
 4846POPC   D2A61876  15.180  37.647   6.764
 4846POPC   C3A61877  15.203  37.653   7.064
 4846POPC   C4A61878  15.229  37.648   7.364
 4846POPC   C1B61879  15.383  37.533   6.464
 4846POPC   C2B61880  15.372  37.476   6.764
 4846POPC   C3B61881  15.344  37.471   7.064
 4846POPC   C4B61882  15.327  37.472   7.364
 4847POPC   NC361883  31.477  37.647   5.564
 4847POPC   PO461884  31.428  37.712   5.864
 4847POPC   GL161885  31.427  37.705   6.164
 4847POPC   GL261886  31.518  37.803   6.164
 4847POPC   C1A61887  31.503  37.652   6.464
 4847POPC   D2A61888  31.516  37.719   6.764
 4847POPC   C3A61889  31.454  37.635   7.064
 4847POPC   C4A61890  31.511  37.699   7.364
 4847POPC   C1B61891  31.417  37.948   6.464
 4847POPC   C2B61892  31.479  37.938   6.764
 4847POPC   C3B61893  31.512  37.926   7.064
 4847POPC   C4B61894  31.423  37.906   7.364
 4848POPC   NC361895  44.625  38.416   5.564
 4848POPC   PO461896  44.621  38.458   5.864
 4848POPC   GL161897  44.652  38.436   6.164
 4848POPC   GL261898  44.633  38.306   6.164
 4848POPC   C1A61899  44.667  38.479   6.464
 4848POPC   D2A61900  44.707  38.467   6.764
 4848POPC   C3A61901  44.638  38.504   7.064
 4848POPC   C4A61902  44.624  38.454   7.364
 4848POPC   C1B61903  44.610  38.166   6.464
 4848POPC   C2B61904  44.656  38.224   6.764
 4848POPC   C3B61905  44.637  38.181   7.064
 4848POPC   C4B61906  44.663  38.203   7.364
 4849POPC   NC361907  19.042  18.295   5.564
 4849POPC   PO461908  19.043  18.272   5.864
 4849POPC   GL161909  19.062  18.274   6.164
 4849POPC   GL261910  19.088  18.385   6.164
 4849POPC   C1A61911  19.017  18.255   6.464
 4849POPC   D2A61912  19.014  18.271   6.764
 4849POPC   C3A61913  19.029  18.234   7.064
 4849POPC   C4A61914  19.010  18.291   7.364
 4849POPC   C1B61915  19.182  18.513   6.464
 4849POPC   C2B61916  19.156  18.504   6.764
 4849POPC   C3B61917  19.157  18.526   7.064
 4849POPC   C4B61918  19.210  18.493   7.364
 4850POPC   NC361919  21.386  40.778   5.564
 4850POPC   PO461920  21.416  40.817   5.864
 4850POPC   GL161921  21.375  40.751   6.164
 4850POPC   GL261922  21.314  40.750   6.164
 4850POPC   C1A61923  21.342  40.803   6.464
 4850POPC   D2A61924  21.373  40.764   6.764
 4850POPC   C3A61925  21.422  40.740   7.064
 4850POPC   C4A61926  21.434  40.788   7.364
 4850POPC   C1B61927  21.179  40.680   6.464
 4850POPC   C2B61928  21.150  40.677   6.764
 4850POPC   C3B61929  21.169  40.729   7.064
 4850POPC   C4B61930  21.182  40.743   7.364
 4851POPC   NC361931  37.697  15.926   5.564
 4851POPC   PO461932  37.660  15.998   5.864
 4851POPC   GL161933  37.718  16.000   6.164
 4851POPC   GL261934  37.773  16.079   6.164
 4851POPC   C1A61935  37.696  15.962   6.464
 4851POPC   D2A61936  37.675  15.979   6.764
 4851POPC   C3A61937  37.652  15.965   7.064
 4851POPC   C4A61938  37.676  15.922   7.364
 4851POPC   C1B61939  37.751  16.128   6.464
 4851POPC   C2B61940  37.795  16.193   6.764
 4851POPC   C3B61941  37.814  16.142   7.064
 4851POPC   C4B61942  37.842  16.213   7.364
 4852POPC   NC361943  39.184  10.488   5.564
 4852POPC   PO461944  39.207  10.515   5.864
 4852POPC   GL161945  39.201  10.497   6.164
 4852POPC   GL261946  39.287  10.362   6.164
 4852POPC   C1A61947  39.241  10.520   6.464
 4852POPC   D2A61948  39.275  10.521   6.764
 4852POPC   C3A61949  39.273  10.532   7.064
 4852POPC   C4A61950  39.248  10.545   7.364
 4852POPC   C1B61951  39.308  10.275   6.464
 4852POPC   C2B61952  39.236  10.259   6.764
 4852POPC   C3B61953  39.291  10.289   7.064
 4852POPC   C4B61954  39.238  10.267   7.364
 4853POPC   NC361955   3.518  17.472   5.564
 4853POPC   PO461956   3.567  17.503   5.864
 4853POPC   GL161957   3.548  17.463   6.164
 4853POPC   GL261958   3.681  17.536   6.164
 4853POPC   C1A61959   3.564  17.555   6.464
 4853POPC   D2A61960   3.519  17.493   6.764
 4853POPC   C3A61961   3.565  17.488   7.064
 4853POPC   C4A61962   3.515  17.542   7.364
 4853POPC   C1B61963   3.827  17.567   6.464
 4853POPC   C2B61964   3.768  17.538   6.764
 4853POPC   C3B61965   3.813  17.562   7.064
 4853POPC   C4B61966   3.804  17.521   7.364
 4854POPC   NC361967  29.137  24.481   5.564
 4854POPC   PO461968  29.105  24.465   5.864
 4854POPC   GL161969  29.124  24.532   6.164
 4854POPC   GL261970  29.200  24.408   6.164
 4854POPC   C1A61971  29.130  24.504   6.464
 4854POPC   D2A61972  29.096  24.478   6.764
 4854POPC   C3A61973  29.113  24.513   7.064
 4854POPC   C4A61974  29.117  24.491   7.364
 4854POPC   C1B61975  29.152  24.213   6.464
 4854POPC   C2B61976  29.139  24.241   6.764
 4854POPC   C3B61977  29.141  24.221   7.064
 4854POPC   C4B61978  29.139  24.191   7.364
 4855POPC   NC361979  39.983  26.794   5.564
 4855POPC   PO461980  40.047  26.822   5.864
 4855POPC   GL161981  40.016  26.795   6.164
 4855POPC   GL261982  40.112  26.873   6.164
 4855POPC   C1A61983  39.985  26.791   6.464
 4855POPC   D2A61984  40.009  26.861   6.764
 4855POPC   C3A61985  40.024  26.860   7.064
 4855POPC   C4A61986  40.030  26.831   7.364
 4855POPC   C1B61987  40.245  26.850   6.464
 4855POPC   C2B61988  40.232  26.851   6.764
 4855POPC   C3B61989  40.253  26.849   7.064
 4855POPC   C4B61990  40.277  26.824   7.364
 4856POPC   NC361991  43.935  30.653   5.564
 4856POPC   PO461992  43.858  30.675   5.864
 4856POPC   GL161993  43.919  30.685   6.164
 4856POPC   GL261994  44.026  30.766   6.164
 4856POPC   C1A61995  43.925  30.651   6.464
 4856POPC   D2A61996  43.933  30.647   6.764
 4856POPC   C3A61997  43.932  30.742   7.064
 4856POPC   C4A61998  43.839  30.712   7.364
 4856POPC   C1B61999  44.125  30.824   6.464
 4856POPC   C2B62000  44.097  30.878   6.764
 4856POPC   C3B62001  44.088  30.855   7.064
 4856POPC   C4B62002  44.122  30.794   7.364
 4857POPC   NC362003  31.477  14.435   5.564
 4857POPC   PO462004  31.437  14.414   5.864
 4857POPC   GL162005  31.433  14.356   6.164
 4857POPC   GL262006  31.372  14.440   6.164
 4857POPC   C1A62007  31.452  14.432   6.464
 4857POPC   D2A62008  31.487  14.377   6.764
 4857POPC   C3A62009  31.453  14.393   7.064
 4857POPC   C4A62010  31.458  14.359   7.364
 4857POPC   C1B62011  31.277  14.489   6.464
 4857POPC   C2B62012  31.252  14.468   6.764
 4857POPC   C3B62013  31.222  14.457   7.064
 4857POPC   C4B62014  31.216  14.509   7.364
 4858POPC   NC362015  27.601  22.944   5.564
 4858POPC   PO462016  27.591  22.896   5.864
 4858POPC   GL162017  27.616  22.963   6.164
 4858POPC   GL262018  27.503  22.923   6.164
 4858POPC   C1A62019  27.638  22.920   6.464
 4858POPC   D2A62020  27.635  22.896   6.764
 4858POPC   C3A62021  27.553  22.948   7.064
 4858POPC   C4A62022  27.574  22.986   7.364
 4858POPC   C1B62023  27.364  22.897   6.464
 4858POPC   C2B62024  27.328  22.893   6.764
 4858POPC   C3B62025  27.312  22.870   7.064
 4858POPC   C4B62026  27.373  22.884   7.364
 4859POPC   NC362027   5.856  16.695   5.564
 4859POPC   PO462028   5.863  16.777   5.864
 4859POPC   GL162029   5.895  16.745   6.164
 4859POPC   GL262030   5.981  16.835   6.164
 4859POPC   C1A62031   5.872  16.749   6.464
 4859POPC   D2A62032   5.865  16.743   6.764
 4859POPC   C3A62033   5.909  16.767   7.064
 4859POPC   C4A62034   5.911  16.739   7.364
 4859POPC   C1B62035   5.979  16.918   6.464
 4859POPC   C2B62036   6.008  16.963   6.764
 4859POPC   C3B62037   6.045  16.902   7.064
 4859POPC   C4B62038   6.046  16.945   7.364
 4860POPC   NC362039  22.210  34.601   5.564
 4860POPC   PO462040  22.148  34.620   5.864
 4860POPC   GL162041  22.166  34.599   6.164
 4860POPC   GL262042  22.200  34.440   6.164
 4860POPC   C1A62043  22.202  34.547   6.464
 4860POPC   D2A62044  22.112  34.557   6.764
 4860POPC   C3A62045  22.209  34.622   7.064
 4860POPC   C4A62046  22.176  34.600   7.364
 4860POPC   C1B62047  22.192  34.288   6.464
 4860POPC   C2B62048  22.231  34.301   6.764
 4860POPC   C3B62049  22.234  34.332   7.064
 4860POPC   C4B62050  22.251  34.358   7.364
 4861POPC   NC362051  13.647  26.043   5.564
 4861POPC   PO462052  13.653  26.071   5.864
 4861POPC   GL162053  13.649  26.039   6.164
 4861POPC   GL262054  13.551  25.937   6.164
 4861POPC   C1A62055  13.667  26.031   6.464
 4861POPC   D2A62056  13.586  26.035   6.764
 4861POPC   C3A62057  13.616  26.009   7.064
 4861POPC   C4A62058  13.674  26.041   7.364
 4861POPC   C1B62059  13.530  25.770   6.464
 4861POPC   C2B62060  13.532  25.794   6.764
 4861POPC   C3B62061  13.558  25.830   7.064
 4861POPC   C4B62062  13.478  25.838   7.364
 4862POPC   NC362063  39.238  38.483   5.564
 4862POPC   PO462064  39.260  38.456   5.864
 4862POPC   GL162065  39.230  38.466   6.164
 4862POPC   GL262066  39.312  38.563   6.164
 4862POPC   C1A62067  39.261  38.412   6.464
 4862POPC   D2A62068  39.196  38.497   6.764
 4862POPC   C3A62069  39.214  38.437   7.064
 4862POPC   C4A62070  39.231  38.442   7.364
 4862POPC   C1B62071  39.461  38.540   6.464
 4862POPC   C2B62072  39.453  38.548   6.764
 4862POPC   C3B62073  39.425  38.635   7.064
 4862POPC   C4B62074  39.483  38.604   7.364
 4863POPC   NC362075   3.533  12.097   5.564
 4863POPC   PO462076   3.586  12.089   5.864
 4863POPC   GL162077   3.492  12.116   6.164
 4863POPC   GL262078   3.542  12.229   6.164
 4863POPC   C1A62079   3.501  12.107   6.464
 4863POPC   D2A62080   3.581  12.063   6.764
 4863POPC   C3A62081   3.553  12.125   7.064
 4863POPC   C4A62082   3.510  12.124   7.364
 4863POPC   C1B62083   3.585  12.291   6.464
 4863POPC   C2B62084   3.547  12.351   6.764
 4863POPC   C3B62085   3.613  12.279   7.064
 4863POPC   C4B62086   3.616  12.301   7.364
 4864POPC   NC362087  15.913  12.829   5.564
 4864POPC   PO462088  15.925  12.888   5.864
 4864POPC   GL162089  15.936  12.889   6.164
 4864POPC   GL262090  15.798  12.813   6.164
 4864POPC   C1A62091  15.949  12.842   6.464
 4864POPC   D2A62092  16.004  12.895   6.764
 4864POPC   C3A62093  15.958  12.829   7.064
 4864POPC   C4A62094  15.923  12.828   7.364
 4864POPC   C1B62095  15.715  12.834   6.464
 4864POPC   C2B62096  15.738  12.766   6.764
 4864POPC   C3B62097  15.722  12.805   7.064
 4864POPC   C4B62098  15.728  12.785   7.364
 4865POPC   NC362099  21.381   8.942   5.564
 4865POPC   PO462100  21.377   8.964   5.864
 4865POPC   GL162101  21.385   8.980   6.164
 4865POPC   GL262102  21.302   9.026   6.164
 4865POPC   C1A62103  21.371   8.947   6.464
 4865POPC   D2A62104  21.340   8.972   6.764
 4865POPC   C3A62105  21.410   8.954   7.064
 4865POPC   C4A62106  21.402   8.970   7.364
 4865POPC   C1B62107  21.132   9.037   6.464
 4865POPC   C2B62108  21.110   9.041   6.764
 4865POPC   C3B62109  21.183   9.082   7.064
 4865POPC   C4B62110  21.162   9.027   7.364
 4866POPC   NC362111  44.697  36.940   5.564
 4866POPC   PO462112  44.667  36.900   5.864
 4866POPC   GL162113  44.635  36.915   6.164
 4866POPC   GL262114  44.689  36.773   6.164
 4866POPC   C1A62115  44.645  36.926   6.464
 4866POPC   D2A62116  44.700  36.920   6.764
 4866POPC   C3A62117  44.696  36.871   7.064
 4866POPC   C4A62118  44.618  36.895   7.364
 4866POPC   C1B62119  44.820  36.709   6.464
 4866POPC   C2B62120  44.831  36.663   6.764
 4866POPC   C3B62121  44.795  36.728   7.064
 4866POPC   C4B62122  44.800  36.713   7.364
 4867POPC   NC362123  15.927  37.676   5.564
 4867POPC   PO462124  15.962  37.639   5.864
 4867POPC   GL162125  15.995  37.641   6.164
 4867POPC   GL262126  15.861  37.621   6.164
 4867POPC   C1A62127  15.933  37.693   6.464
 4867POPC   D2A62128  15.933  37.656   6.764
 4867POPC   C3A62129  15.934  37.708   7.064
 4867POPC   C4A62130  15.960  37.710   7.364
 4867POPC   C1B62131  15.771  37.529   6.464
 4867POPC   C2B62132  15.783  37.515   6.764
 4867POPC   C3B62133  15.703  37.571   7.064
 4867POPC   C4B62134  15.767  37.573   7.364
 4868POPC   NC362135  34.603   9.743   5.564
 4868POPC   PO462136  34.585   9.753   5.864
 4868POPC   GL162137  34.575   9.794   6.164
 4868POPC   GL262138  34.697   9.677   6.164
 4868POPC   C1A62139  34.611   9.719   6.464
 4868POPC   D2A62140  34.536   9.781   6.764
 4868POPC   C3A62141  34.585   9.750   7.064
 4868POPC   C4A62142  34.550   9.794   7.364
 4868POPC   C1B62143  34.845   9.696   6.464
 4868POPC   C2B62144  34.824   9.649   6.764
 4868POPC   C3B62145  34.832   9.717   7.064
 4868POPC   C4B62146  34.770   9.668   7.364
 4869POPC   NC362147   6.640  30.745   5.564
 4869POPC   PO462148   6.633  30.658   5.864
 4869POPC   GL162149   6.624  30.698   6.164
 4869POPC   GL262150   6.744  30.815   6.164
 4869POPC   C1A62151   6.598  30.706   6.464
 4869POPC   D2A62152   6.602  30.712   6.764
 4869POPC   C3A62153   6.649  30.667   7.064
 4869POPC   C4A62154   6.691  30.676   7.364
 4869POPC   C1B62155   6.729  30.952   6.464
 4869POPC   C2B62156   6.733  30.897   6.764
 4869POPC   C3B62157   6.791  30.874   7.064
 4869POPC   C4B62158   6.735  30.869   7.364
 4870POPC   NC362159  11.263   5.914   5.564
 4870POPC   PO462160  11.332   5.874   5.864
 4870POPC   GL162161  11.258   5.907   6.164
 4870POPC   GL262162  11.409   5.782   6.164
 4870POPC   C1A62163  11.314   5.878   6.464
 4870POPC   D2A62164  11.322   5.890   6.764
 4870POPC   C3A62165  11.254   5.903   7.064
 4870POPC   C4A62166  11.274   5.914   7.364
 4870POPC   C1B62167  11.574   5.826   6.464
 4870POPC   C2B62168  11.530   5.772   6.764
 4870POPC   C3B62169  11.500   5.802   7.064
 4870POPC   C4B62170  11.523   5.827   7.364
 4871POPC   NC362171  43.104   5.890   5.564
 4871POPC   PO462172  43.082   5.875   5.864
 4871POPC   GL162173  43.102   5.827   6.164
 4871POPC   GL262174  43.182   5.998   6.164
 4871POPC   C1A62175  43.155   5.827   6.464
 4871POPC   D2A62176  43.125   5.828   6.764
 4871POPC   C3A62177  43.110   5.824   7.064
 4871POPC   C4A62178  43.133   5.878   7.364
 4871POPC   C1B62179  43.270   6.030   6.464
 4871POPC   C2B62180  43.330   5.997   6.764
 4871POPC   C3B62181  43.324   6.037   7.064
 4871POPC   C4B62182  43.326   6.008   7.364
 4872POPC   NC362183  16.694  14.437   5.564
 4872POPC   PO462184  16.694  14.407   5.864
 4872POPC   GL162185  16.772  14.389   6.164
 4872POPC   GL262186  16.754  14.521   6.164
 4872POPC   C1A62187  16.770  14.436   6.464
 4872POPC   D2A62188  16.695  14.392   6.764
 4872POPC   C3A62189  16.682  14.371   7.064
 4872POPC   C4A62190  16.757  14.437   7.364
 4872POPC   C1B62191  16.859  14.631   6.464
 4872POPC   C2B62192  16.850  14.648   6.764
 4872POPC   C3B62193  16.870  14.646   7.064
 4872POPC   C4B62194  16.864  14.601   7.364
 4873POPC   NC362195  39.985   0.431   5.564
 4873POPC   PO462196  40.017   0.421   5.864
 4873POPC   GL162197  40.000   0.401   6.164
 4873POPC   GL262198  39.917   0.516   6.164
 4873POPC   C1A62199  40.047   0.441   6.464
 4873POPC   D2A62200  40.002   0.394   6.764
 4873POPC   C3A62201  40.003   0.450   7.064
 4873POPC   C4A62202  40.021   0.431   7.364
 4873POPC   C1B62203  39.873   0.691   6.464
 4873POPC   C2B62204  39.917   0.640   6.764
 4873POPC   C3B62205  39.927   0.698   7.064
 4873POPC   C4B62206  39.850   0.699   7.364
 4874POPC   NC362207  12.816  43.930   5.564
 4874POPC   PO462208  12.887  43.866   5.864
 4874POPC   GL162209  12.866  43.858   6.164
 4874POPC   GL262210  12.895  43.997   6.164
 4874POPC   C1A62211  12.899  43.895   6.464
 4874POPC   D2A62212  12.861  43.862   6.764
 4874POPC   C3A62213  12.866  43.846   7.064
 4874POPC   C4A62214  12.857  43.905   7.364
 4874POPC   C1B62215  12.986  44.089   6.464
 4874POPC   C2B62216  12.976  44.050   6.764
 4874POPC   C3B62217  12.932  44.140   7.064
 4874POPC   C4B62218  13.011  44.149   7.364
 4875POPC   NC362219  25.249  27.618   5.564
 4875POPC   PO462220  25.244  27.631   5.864
 4875POPC   GL162221  25.227  27.639   6.164
 4875POPC   GL262222  25.409  27.539   6.164
 4875POPC   C1A62223  25.277  27.595   6.464
 4875POPC   D2A62224  25.263  27.615   6.764
 4875POPC   C3A62225  25.306  27.556   7.064
 4875POPC   C4A62226  25.307  27.617   7.364
 4875POPC   C1B62227  25.481  27.580   6.464
 4875POPC   C2B62228  25.508  27.505   6.764
 4875POPC   C3B62229  25.510  27.489   7.064
 4875POPC   C4B62230  25.460  27.557   7.364
 4876POPC   NC362231  40.028  13.615   5.564
 4876POPC   PO462232  39.983  13.676   5.864
 4876POPC   GL162233  40.027  13.641   6.164
 4876POPC   GL262234  40.079  13.721   6.164
 4876POPC   C1A62235  40.011  13.597   6.464
 4876POPC   D2A62236  39.981  13.586   6.764
 4876POPC   C3A62237  39.989  13.671   7.064
 4876POPC   C4A62238  39.977  13.599   7.364
 4876POPC   C1B62239  40.036  13.874   6.464
 4876POPC   C2B62240  40.051  13.887   6.764
 4876POPC   C3B62241  40.061  13.875   7.064
 4876POPC   C4B62242  40.047  13.909   7.364
 4877POPC   NC362243  41.559   8.154   5.564
 4877POPC   PO462244  41.599   8.234   5.864
 4877POPC   GL162245  41.510   8.173   6.164
 4877POPC   GL262246  41.445   8.307   6.164
 4877POPC   C1A62247  41.577   8.187   6.464
 4877POPC   D2A62248  41.595   8.193   6.764
 4877POPC   C3A62249  41.554   8.183   7.064
 4877POPC   C4A62250  41.536   8.189   7.364
 4877POPC   C1B62251  41.428   8.407   6.464
 4877POPC   C2B62252  41.386   8.332   6.764
 4877POPC   C3B62253  41.360   8.382   7.064
 4877POPC   C4B62254  41.355   8.405   7.364
 4878POPC   NC362255  19.103  12.054   5.564
 4878POPC   PO462256  19.048  12.041   5.864
 4878POPC   GL162257  19.049  12.064   6.164
 4878POPC   GL262258  18.987  12.039   6.164
 4878POPC   C1A62259  19.098  12.123   6.464
 4878POPC   D2A62260  19.038  12.043   6.764
 4878POPC   C3A62261  19.102  12.076   7.064
 4878POPC   C4A62262  19.040  12.092   7.364
 4878POPC   C1B62263  18.808  11.928   6.464
 4878POPC   C2B62264  18.821  12.012   6.764
 4878POPC   C3B62265  18.795  12.004   7.064
 4878POPC   C4B62266  18.815  11.993   7.364
 4879POPC   NC362267  37.681  38.448   5.564
 4879POPC   PO462268  37.662  38.466   5.864
 4879POPC   GL162269  37.702  38.430   6.164
 4879POPC   GL262270  37.713  38.335   6.164
 4879POPC   C1A62271  37.692  38.452   6.464
 4879POPC   D2A62272  37.644  38.408   6.764
 4879POPC   C3A62273  37.631  38.455   7.064
 4879POPC   C4A62274  37.633  38.477   7.364
 4879POPC   C1B62275  37.828  38.222   6.464
 4879POPC   C2B62276  37.784  38.270   6.764
 4879POPC   C3B62277  37.750  38.245   7.064
 4879POPC   C4B62278  37.797  38.216   7.364
 4880POPC   NC362279  43.918   1.230   5.564
 4880POPC   PO462280  43.909   1.250   5.864
 4880POPC   GL162281  43.908   1.244   6.164
 4880POPC   GL262282  43.734   1.332   6.164
 4880POPC   C1A62283  43.916   1.253   6.464
 4880POPC   D2A62284  43.925   1.221   6.764
 4880POPC   C3A62285  43.860   1.165   7.064
 4880POPC   C4A62286  43.899   1.237   7.364
 4880POPC   C1B62287  43.720   1.332   6.464
 4880POPC   C2B62288  43.655   1.306   6.764
 4880POPC   C3B62289  43.641   1.309   7.064
 4880POPC   C4B62290  43.704   1.322   7.364
 4881POPC   NC362291  34.604   6.664   5.564
 4881POPC   PO462292  34.598   6.654   5.864
 4881POPC   GL162293  34.545   6.635   6.164
 4881POPC   GL262294  34.702   6.648   6.164
 4881POPC   C1A62295  34.592   6.600   6.464
 4881POPC   D2A62296  34.614   6.665   6.764
 4881POPC   C3A62297  34.532   6.625   7.064
 4881POPC   C4A62298  34.590   6.629   7.364
 4881POPC   C1B62299  34.829   6.638   6.464
 4881POPC   C2B62300  34.779   6.614   6.764
 4881POPC   C3B62301  34.801   6.648   7.064
 4881POPC   C4B62302  34.783   6.649   7.364
 4882POPC   NC362303  39.229  21.401   5.564
 4882POPC   PO462304  39.229  21.350   5.864
 4882POPC   GL162305  39.257  21.431   6.164
 4882POPC   GL262306  39.355  21.432   6.164
 4882POPC   C1A62307  39.265  21.423   6.464
 4882POPC   D2A62308  39.202  21.432   6.764
 4882POPC   C3A62309  39.250  21.356   7.064
 4882POPC   C4A62310  39.258  21.429   7.364
 4882POPC   C1B62311  39.400  21.550   6.464
 4882POPC   C2B62312  39.424  21.562   6.764
 4882POPC   C3B62313  39.470  21.543   7.064
 4882POPC   C4B62314  39.405  21.545   7.364
 4883POPC   NC362315  26.014  10.482   5.564
 4883POPC   PO462316  26.053  10.557   5.864
 4883POPC   GL162317  26.068  10.569   6.164
 4883POPC   GL262318  26.070  10.675   6.164
 4883POPC   C1A62319  25.998  10.561   6.464
 4883POPC   D2A62320  26.085  10.547   6.764
 4883POPC   C3A62321  25.992  10.560   7.064
 4883POPC   C4A62322  26.005  10.488   7.364
 4883POPC   C1B62323  26.027  10.748   6.464
 4883POPC   C2B62324  26.056  10.750   6.764
 4883POPC   C3B62325  26.042  10.816   7.064
 4883POPC   C4B62326  26.033  10.733   7.364
 4884POPC   NC362327  20.633   5.093   5.564
 4884POPC   PO462328  20.570   5.136   5.864
 4884POPC   GL162329  20.563   5.069   6.164
 4884POPC   GL262330  20.645   5.014   6.164
 4884POPC   C1A62331  20.571   5.084   6.464
 4884POPC   D2A62332  20.573   5.047   6.764
 4884POPC   C3A62333  20.599   5.140   7.064
 4884POPC   C4A62334  20.618   5.106   7.364
 4884POPC   C1B62335  20.729   4.879   6.464
 4884POPC   C2B62336  20.719   4.860   6.764
 4884POPC   C3B62337  20.720   4.880   7.064
 4884POPC   C4B62338  20.679   4.863   7.364
 4885POPC   NC362339  39.957  23.675   5.564
 4885POPC   PO462340  39.961  23.707   5.864
 4885POPC   GL162341  40.038  23.746   6.164
 4885POPC   GL262342  39.872  23.781   6.164
 4885POPC   C1A62343  39.971  23.700   6.464
 4885POPC   D2A62344  40.025  23.746   6.764
 4885POPC   C3A62345  40.045  23.760   7.064
 4885POPC   C4A62346  40.049  23.719   7.364
 4885POPC   C1B62347  39.819  23.840   6.464
 4885POPC   C2B62348  39.833  23.872   6.764
 4885POPC   C3B62349  39.775  23.814   7.064
 4885POPC   C4B62350  39.791  23.859   7.364
 4886POPC   NC362351  24.443  28.389   5.564
 4886POPC   PO462352  24.508  28.350   5.864
 4886POPC   GL162353  24.510  28.400   6.164
 4886POPC   GL262354  24.528  28.479   6.164
 4886POPC   C1A62355  24.499  28.412   6.464
 4886POPC   D2A62356  24.498  28.375   6.764
 4886POPC   C3A62357  24.464  28.417   7.064
 4886POPC   C4A62358  24.516  28.329   7.364
 4886POPC   C1B62359  24.561  28.570   6.464
 4886POPC   C2B62360  24.620  28.576   6.764
 4886POPC   C3B62361  24.576  28.650   7.064
 4886POPC   C4B62362  24.559  28.557   7.364
 4887POPC   NC362363  27.631  22.160   5.564
 4887POPC   PO462364  27.559  22.211   5.864
 4887POPC   GL162365  27.635  22.142   6.164
 4887POPC   GL262366  27.510  22.102   6.164
 4887POPC   C1A62367  27.583  22.203   6.464
 4887POPC   D2A62368  27.554  22.125   6.764
 4887POPC   C3A62369  27.550  22.126   7.064
 4887POPC   C4A62370  27.591  22.196   7.364
 4887POPC   C1B62371  27.373  22.064   6.464
 4887POPC   C2B62372  27.382  22.085   6.764
 4887POPC   C3B62373  27.398  22.098   7.064
 4887POPC   C4B62374  27.327  22.072   7.364
 4888POPC   NC362375  28.323  13.601   5.564
 4888POPC   PO462376  28.356  13.655   5.864
 4888POPC   GL162377  28.396  13.649   6.164
 4888POPC   GL262378  28.444  13.658   6.164
 4888POPC   C1A62379  28.320  13.611   6.464
 4888POPC   D2A62380  28.400  13.590   6.764
 4888POPC   C3A62381  28.377  13.591   7.064
 4888POPC   C4A62382  28.340  13.587   7.364
 4888POPC   C1B62383  28.554  13.734   6.464
 4888POPC   C2B62384  28.604  13.782   6.764
 4888POPC   C3B62385  28.631  13.800   7.064
 4888POPC   C4B62386  28.627  13.711   7.364
 4889POPC   NC362387  11.262  22.186   5.564
 4889POPC   PO462388  11.256  22.144   5.864
 4889POPC   GL162389  11.331  22.212   6.164
 4889POPC   GL262390  11.213  22.122   6.164
 4889POPC   C1A62391  11.297  22.160   6.464
 4889POPC   D2A62392  11.342  22.122   6.764
 4889POPC   C3A62393  11.285  22.153   7.064
 4889POPC   C4A62394  11.340  22.162   7.364
 4889POPC   C1B62395  11.133  21.986   6.464
 4889POPC   C2B62396  11.048  22.034   6.764
 4889POPC   C3B62397  11.085  22.073   7.064
 4889POPC   C4B62398  11.132  22.051   7.364
 4890POPC   NC362399  27.551  27.642   5.564
 4890POPC   PO462400  27.580  27.642   5.864
 4890POPC   GL162401  27.547  27.630   6.164
 4890POPC   GL262402  27.487  27.655   6.164
 4890POPC   C1A62403  27.552  27.637   6.464
 4890POPC   D2A62404  27.622  27.578   6.764
 4890POPC   C3A62405  27.560  27.616   7.064
 4890POPC   C4A62406  27.589  27.572   7.364
 4890POPC   C1B62407  27.302  27.612   6.464
 4890POPC   C2B62408  27.361  27.635   6.764
 4890POPC   C3B62409  27.316  27.618   7.064
 4890POPC   C4B62410  27.392  27.652   7.364
 4891POPC   NC362411  40.026  38.483   5.564
 4891POPC   PO462412  40.035  38.484   5.864
 4891POPC   GL162413  40.030  38.490   6.164
 4891POPC   GL262414  39.906  38.521   6.164
 4891POPC   C1A62415  39.992  38.462   6.464
 4891POPC   D2A62416  39.974  38.424   6.764
 4891POPC   C3A62417  39.986  38.425   7.064
 4891POPC   C4A62418  40.035  38.425   7.364
 4891POPC   C1B62419  39.824  38.613   6.464
 4891POPC   C2B62420  39.793  38.615   6.764
 4891POPC   C3B62421  39.815  38.626   7.064
 4891POPC   C4B62422  39.781  38.583   7.364
 4892POPC   NC362423   2.019   4.312   5.564
 4892POPC   PO462424   2.028   4.342   5.864
 4892POPC   GL162425   1.958   4.336   6.164
 4892POPC   GL262426   1.884   4.284   6.164
 4892POPC   C1A62427   1.978   4.359   6.464
 4892POPC   D2A62428   2.003   4.335   6.764
 4892POPC   C3A62429   2.007   4.345   7.064
 4892POPC   C4A62430   1.984   4.292   7.364
 4892POPC   C1B62431   1.769   4.236   6.464
 4892POPC   C2B62432   1.703   4.272   6.764
 4892POPC   C3B62433   1.786   4.244   7.064
 4892POPC   C4B62434   1.772   4.221   7.364
 4893POPC   NC362435  41.567  16.712   5.564
 4893POPC   PO462436  41.536  16.685   5.864
 4893POPC   GL162437  41.600  16.755   6.164
 4893POPC   GL262438  41.512  16.612   6.164
 4893POPC   C1A62439  41.550  16.702   6.464
 4893POPC   D2A62440  41.595  16.716   6.764
 4893POPC   C3A62441  41.574  16.720   7.064
 4893POPC   C4A62442  41.555  16.703   7.364
 4893POPC   C1B62443  41.452  16.519   6.464
 4893POPC   C2B62444  41.505  16.451   6.764
 4893POPC   C3B62445  41.546  16.479   7.064
 4893POPC   C4B62446  41.525  16.521   7.364
 4894POPC   NC362447  19.046  27.630   5.564
 4894POPC   PO462448  19.093  27.636   5.864
 4894POPC   GL162449  19.083  27.605   6.164
 4894POPC   GL262450  19.091  27.501   6.164
 4894POPC   C1A62451  19.039  27.567   6.464
 4894POPC   D2A62452  19.036  27.547   6.764
 4894POPC   C3A62453  19.066  27.557   7.064
 4894POPC   C4A62454  19.032  27.574   7.364
 4894POPC   C1B62455  19.181  27.316   6.464
 4894POPC   C2B62456  19.148  27.347   6.764
 4894POPC   C3B62457  19.119  27.316   7.064
 4894POPC   C4B62458  19.173  27.336   7.364
 4895POPC   NC362459  18.247  36.929   5.564
 4895POPC   PO462460  18.326  36.861   5.864
 4895POPC   GL162461  18.307  36.892   6.164
 4895POPC   GL262462  18.279  37.013   6.164
 4895POPC   C1A62463  18.264  36.910   6.464
 4895POPC   D2A62464  18.310  36.906   6.764
 4895POPC   C3A62465  18.313  36.920   7.064
 4895POPC   C4A62466  18.252  36.912   7.364
 4895POPC   C1B62467  18.333  37.094   6.464
 4895POPC   C2B62468  18.346  37.095   6.764
 4895POPC   C3B62469  18.370  37.093   7.064
 4895POPC   C4B62470  18.414  37.116   7.364
 4896POPC   NC362471  30.650  10.548   5.564
 4896POPC   PO462472  30.715  10.488   5.864
 4896POPC   GL162473  30.691  10.564   6.164
 4896POPC   GL262474  30.649  10.659   6.164
 4896POPC   C1A62475  30.740  10.573   6.464
 4896POPC   D2A62476  30.725  10.493   6.764
 4896POPC   C3A62477  30.746  10.566   7.064
 4896POPC   C4A62478  30.716  10.503   7.364
 4896POPC   C1B62479  30.654  10.780   6.464
 4896POPC   C2B62480  30.634  10.730   6.764
 4896POPC   C3B62481  30.572  10.808   7.064
 4896POPC   C4B62482  30.586  10.763   7.364
 4897POPC   NC362483   6.611  36.911   5.564
 4897POPC   PO462484   6.667  36.949   5.864
 4897POPC   GL162485   6.684  36.878   6.164
 4897POPC   GL262486   6.580  36.783   6.164
 4897POPC   C1A62487   6.625  36.938   6.464
 4897POPC   D2A62488   6.688  36.905   6.764
 4897POPC   C3A62489   6.668  36.937   7.064
 4897POPC   C4A62490   6.636  36.944   7.364
 4897POPC   C1B62491   6.468  36.737   6.464
 4897POPC   C2B62492   6.477  36.701   6.764
 4897POPC   C3B62493   6.491  36.685   7.064
 4897POPC   C4B62494   6.463  36.701   7.364
 4898POPC   NC362495  36.922  42.322   5.564
 4898POPC   PO462496  36.942  42.353   5.864
 4898POPC   GL162497  36.873  42.332   6.164
 4898POPC   GL262498  36.980  42.292   6.164
 4898POPC   C1A62499  36.859  42.379   6.464
 4898POPC   D2A62500  36.920  42.315   6.764
 4898POPC   C3A62501  36.895  42.380   7.064
 4898POPC   C4A62502  36.953  42.307   7.364
 4898POPC   C1B62503  37.185  42.261   6.464
 4898POPC   C2B62504  37.116  42.251   6.764
 4898POPC   C3B62505  37.118  42.263   7.064
 4898POPC   C4B62506  37.092  42.236   7.364
 4899POPC   NC362507  11.325  36.175   5.564
 4899POPC   PO462508  11.343  36.081   5.864
 4899POPC   GL162509  11.261  36.080   6.164
 4899POPC   GL262510  11.458  36.140   6.164
 4899POPC   C1A62511  11.290  36.112   6.464
 4899POPC   D2A62512  11.313  36.173   6.764
 4899POPC   C3A62513  11.295  36.089   7.064
 4899POPC   C4A62514  11.271  36.139   7.364
 4899POPC   C1B62515  11.537  36.106   6.464
 4899POPC   C2B62516  11.585  36.182   6.764
 4899POPC   C3B62517  11.547  36.175   7.064
 4899POPC   C4B62518  11.551  36.142   7.364
 4900POPC   NC362519   3.537  29.923   5.564
 4900POPC   PO462520   3.566  29.941   5.864
 4900POPC   GL162521   3.492  29.909   6.164
 4900POPC   GL262522   3.585  30.006   6.164
 4900POPC   C1A62523   3.579  29.971   6.464
 4900POPC   D2A62524   3.515  29.926   6.764
 4900POPC   C3A62525   3.511  29.881   7.064
 4900POPC   C4A62526   3.494  29.914   7.364
 4900POPC   C1B62527   3.685  30.141   6.464
 4900POPC   C2B62528   3.643  30.180   6.764
 4900POPC   C3B62529   3.648  30.167   7.064
 4900POPC   C4B62530   3.680  30.126   7.364
 4901POPC   NC362531   5.861  43.924   5.564
 4901POPC   PO462532   5.919  43.838   5.864
 4901POPC   GL162533   5.829  43.929   6.164
 4901POPC   GL262534   5.807  43.778   6.164
 4901POPC   C1A62535   5.896  43.874   6.464
 4901POPC   D2A62536   5.881  43.899   6.764
 4901POPC   C3A62537   5.874  43.905   7.064
 4901POPC   C4A62538   5.892  43.897   7.364
 4901POPC   C1B62539   5.779  43.611   6.464
 4901POPC   C2B62540   5.868  43.600   6.764
 4901POPC   C3B62541   5.857  43.658   7.064
 4901POPC   C4B62542   5.839  43.669   7.364
 4902POPC   NC362543  39.257   5.889   5.564
 4902POPC   PO462544  39.231   5.918   5.864
 4902POPC   GL162545  39.278   5.867   6.164
 4902POPC   GL262546  39.299   5.993   6.164
 4902POPC   C1A62547  39.243   5.905   6.464
 4902POPC   D2A62548  39.213   5.917   6.764
 4902POPC   C3A62549  39.278   5.902   7.064
 4902POPC   C4A62550  39.199   5.914   7.364
 4902POPC   C1B62551  39.278   6.069   6.464
 4902POPC   C2B62552  39.271   6.110   6.764
 4902POPC   C3B62553  39.248   6.079   7.064
 4902POPC   C4B62554  39.238   6.075   7.364
 4903POPC   NC362555   8.244  19.052   5.564
 4903POPC   PO462556   8.181  19.073   5.864
 4903POPC   GL162557   8.210  19.070   6.164
 4903POPC   GL262558   8.309  19.178   6.164
 4903POPC   C1A62559   8.244  19.042   6.464
 4903POPC   D2A62560   8.184  19.054   6.764
 4903POPC   C3A62561   8.155  19.035   7.064
 4903POPC   C4A62562   8.221  19.044   7.364
 4903POPC   C1B62563   8.425  19.187   6.464
 4903POPC   C2B62564   8.393  19.219   6.764
 4903POPC   C3B62565   8.370  19.170   7.064
 4903POPC   C4B62566   8.377  19.253   7.364
 4904POPC   NC362567   4.303  44.671   5.564
 4904POPC   PO462568   4.360  44.650   5.864
 4904POPC   GL162569   4.352  44.710   6.164
 4904POPC   GL262570   4.243  44.728   6.164
 4904POPC   C1A62571   4.354  44.629   6.464
 4904POPC   D2A62572   4.303  44.626   6.764
 4904POPC   C3A62573   4.304  44.662   7.064
 4904POPC   C4A62574   4.279  44.684   7.364
 4904POPC   C1B62575   4.151  44.887   6.464
 4904POPC   C2B62576   4.193  44.822   6.764
 4904POPC   C3B62577   4.202  44.845   7.064
 4904POPC   C4B62578   4.211  44.881   7.364
 4905POPC   NC362579  20.567  44.665   5.564
 4905POPC   PO462580  20.601  44.680   5.864
 4905POPC   GL162581  20.660  44.686   6.164
 4905POPC   GL262582  20.554  44.772   6.164
 4905POPC   C1A62583  20.638  44.619   6.464
 4905POPC   D2A62584  20.614  44.686   6.764
 4905POPC   C3A62585  20.605  44.648   7.064
 4905POPC   C4A62586  20.609  44.647   7.364
 4905POPC   C1B62587  20.468  44.896   6.464
 4905POPC   C2B62588  20.484  44.902   6.764
 4905POPC   C3B62589  20.471  44.887   7.064
 4905POPC   C4B62590  20.497  44.875   7.364
 4906POPC   NC362591  12.124  44.687   5.564
 4906POPC   PO462592  12.115  44.701   5.864
 4906POPC   GL162593  12.049  44.613   6.164
 4906POPC   GL262594  11.985  44.683   6.164
 4906POPC   C1A62595  12.094  44.712   6.464
 4906POPC   D2A62596  12.057  44.625   6.764
 4906POPC   C3A62597  12.117  44.623   7.064
 4906POPC   C4A62598  12.084  44.703   7.364
 4906POPC   C1B62599  11.792  44.707   6.464
 4906POPC   C2B62600  11.847  44.640   6.764
 4906POPC   C3B62601  11.795  44.698   7.064
 4906POPC   C4B62602  11.837  44.722   7.364
 4907POPC   NC362603  20.653  38.429   5.564
 4907POPC   PO462604  20.571  38.454   5.864
 4907POPC   GL162605  20.641  38.413   6.164
 4907POPC   GL262606  20.507  38.394   6.164
 4907POPC   C1A62607  20.562  38.422   6.464
 4907POPC   D2A62608  20.655  38.484   6.764
 4907POPC   C3A62609  20.658  38.490   7.064
 4907POPC   C4A62610  20.601  38.474   7.364
 4907POPC   C1B62611  20.378  38.409   6.464
 4907POPC   C2B62612  20.385  38.403   6.764
 4907POPC   C3B62613  20.363  38.409   7.064
 4907POPC   C4B62614  20.360  38.330   7.364
 4908POPC   NC362615  40.029  27.610   5.564
 4908POPC   PO462616  39.990  27.580   5.864
 4908POPC   GL162617  39.976  27.574   6.164
 4908POPC   GL262618  39.873  27.653   6.164
 4908POPC   C1A62619  39.975  27.554   6.464
 4908POPC   D2A62620  39.996  27.606   6.764
 4908POPC   C3A62621  40.048  27.591   7.064
 4908POPC   C4A62622  40.033  27.587   7.364
 4908POPC   C1B62623  39.766  27.763   6.464
 4908POPC   C2B62624  39.744  27.703   6.764
 4908POPC   C3B62625  39.825  27.684   7.064
 4908POPC   C4B62626  39.796  27.722   7.364
 4909POPC   NC362627   5.889  12.041   5.564
 4909POPC   PO462628   5.904  12.081   5.864
 4909POPC   GL162629   5.841  12.027   6.164
 4909POPC   GL262630   5.750  12.187   6.164
 4909POPC   C1A62631   5.909  12.110   6.464
 4909POPC   D2A62632   5.877  12.030   6.764
 4909POPC   C3A62633   5.854  12.038   7.064
 4909POPC   C4A62634   5.887  12.045   7.364
 4909POPC   C1B62635   5.704  12.246   6.464
 4909POPC   C2B62636   5.648  12.186   6.764
 4909POPC   C3B62637   5.677  12.216   7.064
 4909POPC   C4B62638   5.622  12.165   7.364
 4910POPC   NC362639  33.045  15.214   5.564
 4910POPC   PO462640  33.053  15.202   5.864
 4910POPC   GL162641  33.000  15.139   6.164
 4910POPC   GL262642  32.954  15.265   6.164
 4910POPC   C1A62643  33.044  15.130   6.464
 4910POPC   D2A62644  33.059  15.134   6.764
 4910POPC   C3A62645  33.071  15.219   7.064
 4910POPC   C4A62646  32.988  15.216   7.364
 4910POPC   C1B62647  32.895  15.411   6.464
 4910POPC   C2B62648  32.932  15.456   6.764
 4910POPC   C3B62649  32.900  15.419   7.064
 4910POPC   C4B62650  32.975  15.446   7.364
 4911POPC   NC362651  43.137   2.726   5.564
 4911POPC   PO462652  43.152   2.741   5.864
 4911POPC   GL162653  43.153   2.804   6.164
 4911POPC   GL262654  42.956   2.697   6.164
 4911POPC   C1A62655  43.132   2.789   6.464
 4911POPC   D2A62656  43.124   2.756   6.764
 4911POPC   C3A62657  43.075   2.746   7.064
 4911POPC   C4A62658  43.074   2.752   7.364
 4911POPC   C1B62659  42.893   2.705   6.464
 4911POPC   C2B62660  42.867   2.684   6.764
 4911POPC   C3B62661  42.868   2.709   7.064
 4911POPC   C4B62662  42.930   2.701   7.364
 4912POPC   NC362663  42.322  29.182   5.564
 4912POPC   PO462664  42.303  29.150   5.864
 4912POPC   GL162665  42.317  29.099   6.164
 4912POPC   GL262666  42.197  29.109   6.164
 4912POPC   C1A62667  42.365  29.126   6.464
 4912POPC   D2A62668  42.325  29.188   6.764
 4912POPC   C3A62669  42.383  29.127   7.064
 4912POPC   C4A62670  42.384  29.158   7.364
 4912POPC   C1B62671  42.081  29.062   6.464
 4912POPC   C2B62672  42.072  29.049   6.764
 4912POPC   C3B62673  42.161  29.040   7.064
 4912POPC   C4B62674  42.078  29.045   7.364
 4913POPC   NC362675  35.366  36.134   5.564
 4913POPC   PO462676  35.366  36.174   5.864
 4913POPC   GL162677  35.394  36.109   6.164
 4913POPC   GL262678  35.409  36.255   6.164
 4913POPC   C1A62679  35.360  36.162   6.464
 4913POPC   D2A62680  35.343  36.122   6.764
 4913POPC   C3A62681  35.370  36.167   7.064
 4913POPC   C4A62682  35.328  36.095   7.364
 4913POPC   C1B62683  35.409  36.339   6.464
 4913POPC   C2B62684  35.385  36.419   6.764
 4913POPC   C3B62685  35.445  36.341   7.064
 4913POPC   C4B62686  35.382  36.381   7.364
 4914POPC   NC362687  44.685   6.652   5.564
 4914POPC   PO462688  44.681   6.605   5.864
 4914POPC   GL162689  44.626   6.631   6.164
 4914POPC   GL262690  44.547   6.504   6.164
 4914POPC   C1A62691  44.638   6.601   6.464
 4914POPC   D2A62692  44.704   6.680   6.764
 4914POPC   C3A62693  44.689   6.636   7.064
 4914POPC   C4A62694  44.708   6.653   7.364
 4914POPC   C1B62695  44.544   6.402   6.464
 4914POPC   C2B62696  44.487   6.393   6.764
 4914POPC   C3B62697  44.507   6.448   7.064
 4914POPC   C4B62698  44.482   6.412   7.364
 4915POPC   NC362699  15.940  22.113   5.564
 4915POPC   PO462700  15.978  22.173   5.864
 4915POPC   GL162701  15.980  22.151   6.164
 4915POPC   GL262702  15.821  22.180   6.164
 4915POPC   C1A62703  15.958  22.202   6.464
 4915POPC   D2A62704  15.943  22.148   6.764
 4915POPC   C3A62705  15.960  22.161   7.064
 4915POPC   C4A62706  15.975  22.175   7.364
 4915POPC   C1B62707  15.748  22.178   6.464
 4915POPC   C2B62708  15.729  22.130   6.764
 4915POPC   C3B62709  15.677  22.148   7.064
 4915POPC   C4B62710  15.744  22.112   7.364
 4916POPC   NC362711   6.627  19.024   5.564
 4916POPC   PO462712   6.621  19.097   5.864
 4916POPC   GL162713   6.656  19.040   6.164
 4916POPC   GL262714   6.585  18.894   6.164
 4916POPC   C1A62715   6.655  19.060   6.464
 4916POPC   D2A62716   6.621  19.080   6.764
 4916POPC   C3A62717   6.687  19.086   7.064
 4916POPC   C4A62718   6.616  19.011   7.364
 4916POPC   C1B62719   6.569  18.779   6.464
 4916POPC   C2B62720   6.564  18.837   6.764
 4916POPC   C3B62721   6.579  18.799   7.064
 4916POPC   C4B62722   6.626  18.830   7.364
 4917POPC   NC362723  12.812  12.900   5.564
 4917POPC   PO462724  12.832  12.840   5.864
 4917POPC   GL162725  12.830  12.868   6.164
 4917POPC   GL262726  12.936  12.777   6.164
 4917POPC   C1A62727  12.877  12.844   6.464
 4917POPC   D2A62728  12.879  12.819   6.764
 4917POPC   C3A62729  12.855  12.818   7.064
 4917POPC   C4A62730  12.846  12.870   7.364
 4917POPC   C1B62731  13.098  12.767   6.464
 4917POPC   C2B62732  13.132  12.760   6.764
 4917POPC   C3B62733  13.041  12.748   7.064
 4917POPC   C4B62734  13.104  12.798   7.364
 4918POPC   NC362735  38.449  29.916   5.564
 4918POPC   PO462736  38.472  29.938   5.864
 4918POPC   GL162737  38.409  29.909   6.164
 4918POPC   GL262738  38.526  29.845   6.164
 4918POPC   C1A62739  38.502  29.944   6.464
 4918POPC   D2A62740  38.474  29.970   6.764
 4918POPC   C3A62741  38.428  29.889   7.064
 4918POPC   C4A62742  38.451  29.926   7.364
 4918POPC   C1B62743  38.675  29.751   6.464
 4918POPC   C2B62744  38.641  29.793   6.764
 4918POPC   C3B62745  38.706  29.801   7.064
 4918POPC   C4B62746  38.623  29.823   7.364
 4919POPC   NC362747  18.278  23.696   5.564
 4919POPC   PO462748  18.279  23.723   5.864
 4919POPC   GL162749  18.280  23.690   6.164
 4919POPC   GL262750  18.378  23.747   6.164
 4919POPC   C1A62751  18.258  23.738   6.464
 4919POPC   D2A62752  18.320  23.758   6.764
 4919POPC   C3A62753  18.271  23.713   7.064
 4919POPC   C4A62754  18.301  23.746   7.364
 4919POPC   C1B62755  18.539  23.762   6.464
 4919POPC   C2B62756  18.572  23.670   6.764
 4919POPC   C3B62757  18.493  23.683   7.064
 4919POPC   C4B62758  18.518  23.705   7.364
 4920POPC   NC362759   4.281  13.649   5.564
 4920POPC   PO462760   4.277  13.585   5.864
 4920POPC   GL162761   4.296  13.655   6.164
 4920POPC   GL262762   4.151  13.593   6.164
 4920POPC   C1A62763   4.303  13.604   6.464
 4920POPC   D2A62764   4.325  13.673   6.764
 4920POPC   C3A62765   4.279  13.618   7.064
 4920POPC   C4A62766   4.350  13.606   7.364
 4920POPC   C1B62767   4.099  13.599   6.464
 4920POPC   C2B62768   4.052  13.667   6.764
 4920POPC   C3B62769   4.034  13.624   7.064
 4920POPC   C4B62770   4.110  13.652   7.364
 4921POPC   NC362771  12.057   8.945   5.564
 4921POPC   PO462772  12.079   9.009   5.864
 4921POPC   GL162773  12.085   9.009   6.164
 4921POPC   GL262774  11.986   8.983   6.164
 4921POPC   C1A62775  12.086   8.971   6.464
 4921POPC   D2A62776  12.090   8.999   6.764
 4921POPC   C3A62777  12.105   8.975   7.064
 4921POPC   C4A62778  12.075   8.974   7.364
 4921POPC   C1B62779  11.835   9.086   6.464
 4921POPC   C2B62780  11.849   9.036   6.764
 4921POPC   C3B62781  11.805   9.094   7.064
 4921POPC   C4B62782  11.798   9.042   7.364
 4922POPC   NC362783  42.294  11.277   5.564
 4922POPC   PO462784  42.334  11.270   5.864
 4922POPC   GL162785  42.299  11.280   6.164
 4922POPC   GL262786  42.385  11.439   6.164
 4922POPC   C1A62787  42.296  11.287   6.464
 4922POPC   D2A62788  42.291  11.330   6.764
 4922POPC   C3A62789  42.323  11.310   7.064
 4922POPC   C4A62790  42.286  11.349   7.364
 4922POPC   C1B62791  42.440  11.532   6.464
 4922POPC   C2B62792  42.474  11.515   6.764
 4922POPC   C3B62793  42.507  11.532   7.064
 4922POPC   C4B62794  42.504  11.472   7.364
 4923POPC   NC362795   1.961  26.033   5.564
 4923POPC   PO462796   1.980  26.061   5.864
 4923POPC   GL162797   2.002  26.052   6.164
 4923POPC   GL262798   2.080  26.000   6.164
 4923POPC   C1A62799   1.996  26.088   6.464
 4923POPC   D2A62800   2.039  26.020   6.764
 4923POPC   C3A62801   1.943  26.088   7.064
 4923POPC   C4A62802   2.016  26.064   7.364
 4923POPC   C1B62803   2.256  26.003   6.464
 4923POPC   C2B62804   2.273  25.976   6.764
 4923POPC   C3B62805   2.253  26.014   7.064
 4923POPC   C4B62806   2.267  26.028   7.364
 4924POPC   NC362807  10.570  21.368   5.564
 4924POPC   PO462808  10.544  21.372   5.864
 4924POPC   GL162809  10.533  21.426   6.164
 4924POPC   GL262810  10.637  21.433   6.164
 4924POPC   C1A62811  10.531  21.398   6.464
 4924POPC   D2A62812  10.504  21.432   6.764
 4924POPC   C3A62813  10.499  21.342   7.064
 4924POPC   C4A62814  10.561  21.354   7.364
 4924POPC   C1B62815  10.759  21.412   6.464
 4924POPC   C2B62816  10.740  21.465   6.764
 4924POPC   C3B62817  10.779  21.385   7.064
 4924POPC   C4B62818  10.726  21.440   7.364
 4925POPC   NC362819  10.482  25.313   5.564
 4925POPC   PO462820  10.491  25.230   5.864
 4925POPC   GL162821  10.559  25.273   6.164
 4925POPC   GL262822  10.584  25.172   6.164
 4925POPC   C1A62823  10.474  25.283   6.464
 4925POPC   D2A62824  10.485  25.311   6.764
 4925POPC   C3A62825  10.520  25.257   7.064
 4925POPC   C4A62826  10.498  25.253   7.364
 4925POPC   C1B62827  10.583  25.059   6.464
 4925POPC   C2B62828  10.588  24.986   6.764
 4925POPC   C3B62829  10.585  25.021   7.064
 4925POPC   C4B62830  10.572  24.979   7.364
 4926POPC   NC362831   0.437  38.445   5.564
 4926POPC   PO462832   0.488  38.502   5.864
 4926POPC   GL162833   0.430  38.406   6.164
 4926POPC   GL262834   0.524  38.461   6.164
 4926POPC   C1A62835   0.392  38.450   6.464
 4926POPC   D2A62836   0.463  38.442   6.764
 4926POPC   C3A62837   0.460  38.460   7.064
 4926POPC   C4A62838   0.487  38.450   7.364
 4926POPC   C1B62839   0.653  38.545   6.464
 4926POPC   C2B62840   0.628  38.533   6.764
 4926POPC   C3B62841   0.658  38.556   7.064
 4926POPC   C4B62842   0.700  38.587   7.364
 4927POPC   NC362843   8.171  29.158   5.564
 4927POPC   PO462844   8.157  29.150   5.864
 4927POPC   GL162845   8.208  29.173   6.164
 4927POPC   GL262846   8.083  29.011   6.164
 4927POPC   C1A62847   8.193  29.129   6.464
 4927POPC   D2A62848   8.194  29.108   6.764
 4927POPC   C3A62849   8.158  29.138   7.064
 4927POPC   C4A62850   8.188  29.117   7.364
 4927POPC   C1B62851   7.974  28.998   6.464
 4927POPC   C2B62852   8.045  28.936   6.764
 4927POPC   C3B62853   7.997  28.952   7.064
 4927POPC   C4B62854   7.982  28.979   7.364
 4928POPC   NC362855  34.604  34.611   5.564
 4928POPC   PO462856  34.535  34.607   5.864
 4928POPC   GL162857  34.606  34.574   6.164
 4928POPC   GL262858  34.500  34.497   6.164
 4928POPC   C1A62859  34.625  34.552   6.464
 4928POPC   D2A62860  34.596  34.581   6.764
 4928POPC   C3A62861  34.569  34.535   7.064
 4928POPC   C4A62862  34.567  34.557   7.364
 4928POPC   C1B62863  34.378  34.511   6.464
 4928POPC   C2B62864  34.342  34.438   6.764
 4928POPC   C3B62865  34.372  34.473   7.064
 4928POPC   C4B62866  34.369  34.517   7.364
 4929POPC   NC362867  25.276  16.719   5.564
 4929POPC   PO462868  25.256  16.759   5.864
 4929POPC   GL162869  25.252  16.726   6.164
 4929POPC   GL262870  25.306  16.647   6.164
 4929POPC   C1A62871  25.284  16.723   6.464
 4929POPC   D2A62872  25.274  16.733   6.764
 4929POPC   C3A62873  25.220  16.736   7.064
 4929POPC   C4A62874  25.287  16.735   7.364
 4929POPC   C1B62875  25.297  16.481   6.464
 4929POPC   C2B62876  25.333  16.465   6.764
 4929POPC   C3B62877  25.379  16.460   7.064
 4929POPC   C4B62878  25.330  16.504   7.364
 4930POPC   NC362879  42.304  17.532   5.564
 4930POPC   PO462880  42.343  17.492   5.864
 4930POPC   GL162881  42.295  17.498   6.164
 4930POPC   GL262882  42.257  17.514   6.164
 4930POPC   C1A62883  42.339  17.471   6.464
 4930POPC   D2A62884  42.343  17.552   6.764
 4930POPC   C3A62885  42.334  17.509   7.064
 4930POPC   C4A62886  42.338  17.527   7.364
 4930POPC   C1B62887  42.051  17.535   6.464
 4930POPC   C2B62888  42.114  17.503   6.764
 4930POPC   C3B62889  42.086  17.547   7.064
 4930POPC   C4B62890  42.118  17.551   7.364
 4931POPC   NC362891   8.976  19.050   5.564
 4931POPC   PO462892   9.012  19.102   5.864
 4931POPC   GL162893   8.926  19.072   6.164
 4931POPC   GL262894   9.069  18.938   6.164
 4931POPC   C1A62895   9.018  19.083   6.464
 4931POPC   D2A62896   9.009  19.053   6.764
 4931POPC   C3A62897   8.982  19.012   7.064
 4931POPC   C4A62898   8.933  19.037   7.364
 4931POPC   C1B62899   9.140  18.814   6.464
 4931POPC   C2B62900   9.066  18.849   6.764
 4931POPC   C3B62901   9.101  18.861   7.064
 4931POPC   C4B62902   9.144  18.807   7.364
 4932POPC   NC362903  21.395  25.304   5.564
 4932POPC   PO462904  21.428  25.278   5.864
 4932POPC   GL162905  21.384  25.260   6.164
 4932POPC   GL262906  21.313  25.157   6.164
 4932POPC   C1A62907  21.362  25.307   6.464
 4932POPC   D2A62908  21.356  25.289   6.764
 4932POPC   C3A62909  21.364  25.249   7.064
 4932POPC   C4A62910  21.415  25.283   7.364
 4932POPC   C1B62911  21.248  25.106   6.464
 4932POPC   C2B62912  21.253  25.115   6.764
 4932POPC   C3B62913  21.275  25.035   7.064
 4932POPC   C4B62914  21.255  25.100   7.364
 4933POPC   NC362915  19.870  29.883   5.564
 4933POPC   PO462916  19.805  29.929   5.864
 4933POPC   GL162917  19.882  29.925   6.164
 4933POPC   GL262918  19.752  30.022   6.164
 4933POPC   C1A62919  19.814  29.959   6.464
 4933POPC   D2A62920  19.825  29.904   6.764
 4933POPC   C3A62921  19.862  29.919   7.064
 4933POPC   C4A62922  19.871  29.936   7.364
 4933POPC   C1B62923  19.676  30.166   6.464
 4933POPC   C2B62924  19.701  30.190   6.764
 4933POPC   C3B62925  19.705  30.178   7.064
 4933POPC   C4B62926  19.742  30.130   7.364
 4934POPC   NC362927   8.246  36.907   5.564
 4934POPC   PO462928   8.164  36.950   5.864
 4934POPC   GL162929   8.243  36.947   6.164
 4934POPC   GL262930   8.120  37.016   6.164
 4934POPC   C1A62931   8.200  36.864   6.464
 4934POPC   D2A62932   8.157  36.876   6.764
 4934POPC   C3A62933   8.191  36.900   7.064
 4934POPC   C4A62934   8.224  36.888   7.364
 4934POPC   C1B62935   8.028  37.104   6.464
 4934POPC   C2B62936   8.025  37.047   6.764
 4934POPC   C3B62937   8.049  37.080   7.064
 4934POPC   C4B62938   8.052  37.101   7.364
 4935POPC   NC362939  19.074  40.784   5.564
 4935POPC   PO462940  19.066  40.733   5.864
 4935POPC   GL162941  19.020  40.804   6.164
 4935POPC   GL262942  19.045  40.883   6.164
 4935POPC   C1A62943  19.030  40.786   6.464
 4935POPC   D2A62944  19.071  40.759   6.764
 4935POPC   C3A62945  19.017  40.780   7.064
 4935POPC   C4A62946  19.051  40.742   7.364
 4935POPC   C1B62947  18.999  40.985   6.464
 4935POPC   C2B62948  19.037  41.030   6.764
 4935POPC   C3B62949  19.071  41.021   7.064
 4935POPC   C4B62950  18.981  41.021   7.364
 4936POPC   NC362951   8.930   9.723   5.564
 4936POPC   PO462952   8.971   9.741   5.864
 4936POPC   GL162953   8.937   9.749   6.164
 4936POPC   GL262954   9.076   9.878   6.164
 4936POPC   C1A62955   8.987   9.710   6.464
 4936POPC   D2A62956   8.948   9.721   6.764
 4936POPC   C3A62957   8.994   9.737   7.064
 4936POPC   C4A62958   8.996   9.759   7.364
 4936POPC   C1B62959   9.195   9.944   6.464
 4936POPC   C2B62960   9.176   9.925   6.764
 4936POPC   C3B62961   9.145   9.875   7.064
 4936POPC   C4B62962   9.110   9.963   7.364
 4937POPC   NC362963   8.923  18.271   5.564
 4937POPC   PO462964   8.987  18.269   5.864
 4937POPC   GL162965   8.958  18.291   6.164
 4937POPC   GL262966   8.869  18.361   6.164
 4937POPC   C1A62967   8.923  18.292   6.464
 4937POPC   D2A62968   9.014  18.265   6.764
 4937POPC   C3A62969   8.941  18.280   7.064
 4937POPC   C4A62970   8.968  18.285   7.364
 4937POPC   C1B62971   8.715  18.364   6.464
 4937POPC   C2B62972   8.726  18.444   6.764
 4937POPC   C3B62973   8.749  18.440   7.064
 4937POPC   C4B62974   8.804  18.370   7.364
 4938POPC   NC362975  14.364  12.061   5.564
 4938POPC   PO462976  14.358  12.064   5.864
 4938POPC   GL162977  14.371  12.059   6.164
 4938POPC   GL262978  14.314  12.083   6.164
 4938POPC   C1A62979  14.434  12.118   6.464
 4938POPC   D2A62980  14.387  12.031   6.764
 4938POPC   C3A62981  14.415  12.061   7.064
 4938POPC   C4A62982  14.395  12.031   7.364
 4938POPC   C1B62983  14.207  12.039   6.464
 4938POPC   C2B62984  14.208  12.001   6.764
 4938POPC   C3B62985  14.131  12.045   7.064
 4938POPC   C4B62986  14.204  11.996   7.364
 4939POPC   NC362987   7.415   7.459   5.564
 4939POPC   PO462988   7.371   7.396   5.864
 4939POPC   GL162989   7.377   7.462   6.164
 4939POPC   GL262990   7.320   7.545   6.164
 4939POPC   C1A62991   7.464   7.437   6.464
 4939POPC   D2A62992   7.455   7.440   6.764
 4939POPC   C3A62993   7.411   7.447   7.064
 4939POPC   C4A62994   7.416   7.437   7.364
 4939POPC   C1B62995   7.267   7.638   6.464
 4939POPC   C2B62996   7.250   7.567   6.764
 4939POPC   C3B62997   7.280   7.588   7.064
 4939POPC   C4B62998   7.269   7.622   7.364
 4940POPC   NC362999  19.080   4.349   5.564
 4940POPC   PO463000  19.016   4.342   5.864
 4940POPC   GL163001  19.087   4.339   6.164
 4940POPC   GL263002  19.036   4.237   6.164
 4940POPC   C1A63003  19.019   4.272   6.464
 4940POPC   D2A63004  19.095   4.300   6.764
 4940POPC   C3A63005  19.056   4.298   7.064
 4940POPC   C4A63006  19.074   4.278   7.364
 4940POPC   C1B63007  19.059   4.054   6.464
 4940POPC   C2B63008  19.025   4.097   6.764
 4940POPC   C3B63009  19.065   4.077   7.064
 4940POPC   C4B63010  19.017   4.024   7.364
 4941POPC   NC363011  12.030  18.273   5.564
 4941POPC   PO463012  12.039  18.249   5.864
 4941POPC   GL163013  12.055  18.288   6.164
 4941POPC   GL263014  11.992  18.323   6.164
 4941POPC   C1A63015  12.125  18.303   6.464
 4941POPC   D2A63016  12.062  18.278   6.764
 4941POPC   C3A63017  12.056  18.287   7.064
 4941POPC   C4A63018  12.035  18.311   7.364
 4941POPC   C1B63019  11.899  18.464   6.464
 4941POPC   C2B63020  11.846  18.435   6.764
 4941POPC   C3B63021  11.908  18.382   7.064
 4941POPC   C4B63022  11.867  18.424   7.364
 4942POPC   NC363023  30.680  21.402   5.564
 4942POPC   PO463024  30.715  21.337   5.864
 4942POPC   GL163025  30.647  21.427   6.164
 4942POPC   GL263026  30.804  21.476   6.164
 4942POPC   C1A63027  30.735  21.419   6.464
 4942POPC   D2A63028  30.708  21.422   6.764
 4942POPC   C3A63029  30.712  21.341   7.064
 4942POPC   C4A63030  30.679  21.344   7.364
 4942POPC   C1B63031  30.815  21.578   6.464
 4942POPC   C2B63032  30.849  21.553   6.764
 4942POPC   C3B63033  30.896  21.533   7.064
 4942POPC   C4B63034  30.877  21.533   7.364
 4943POPC   NC363035   0.430   5.857   5.564
 4943POPC   PO463036   0.404   5.893   5.864
 4943POPC   GL163037   0.405   5.908   6.164
 4943POPC   GL263038   0.578   5.868   6.164
 4943POPC   C1A63039   0.402   5.885   6.464
 4943POPC   D2A63040   0.429   5.857   6.764
 4943POPC   C3A63041   0.465   5.915   7.064
 4943POPC   C4A63042   0.444   5.858   7.364
 4943POPC   C1B63043   0.670   5.945   6.464
 4943POPC   C2B63044   0.711   5.975   6.764
 4943POPC   C3B63045   0.705   5.926   7.064
 4943POPC   C4B63046   0.633   5.964   7.364
 4944POPC   NC363047  40.763  23.744   5.564
 4944POPC   PO463048  40.744  23.732   5.864
 4944POPC   GL163049  40.736  23.718   6.164
 4944POPC   GL263050  40.734  23.808   6.164
 4944POPC   C1A63051  40.777  23.750   6.464
 4944POPC   D2A63052  40.758  23.672   6.764
 4944POPC   C3A63053  40.757  23.716   7.064
 4944POPC   C4A63054  40.734  23.709   7.364
 4944POPC   C1B63055  40.692  23.978   6.464
 4944POPC   C2B63056  40.776  23.956   6.764
 4944POPC   C3B63057  40.749  23.923   7.064
 4944POPC   C4B63058  40.720  23.921   7.364
 4945POPC   NC363059  20.636   6.637   5.564
 4945POPC   PO463060  20.629   6.612   5.864
 4945POPC   GL163061  20.578   6.630   6.164
 4945POPC   GL263062  20.559   6.775   6.164
 4945POPC   C1A63063  20.658   6.676   6.464
 4945POPC   D2A63064  20.653   6.663   6.764
 4945POPC   C3A63065  20.615   6.617   7.064
 4945POPC   C4A63066  20.621   6.611   7.364
 4945POPC   C1B63067  20.592   6.934   6.464
 4945POPC   C2B63068  20.618   6.847   6.764
 4945POPC   C3B63069  20.577   6.933   7.064
 4945POPC   C4B63070  20.590   6.846   7.364
 4946POPC   NC363071  36.128  24.491   5.564
 4946POPC   PO463072  36.086  24.504   5.864
 4946POPC   GL163073  36.108  24.528   6.164
 4946POPC   GL263074  36.002  24.370   6.164
 4946POPC   C1A63075  36.092  24.448   6.464
 4946POPC   D2A63076  36.133  24.454   6.764
 4946POPC   C3A63077  36.100  24.488   7.064
 4946POPC   C4A63078  36.175  24.475   7.364
 4946POPC   C1B63079  35.896  24.327   6.464
 4946POPC   C2B63080  35.927  24.300   6.764
 4946POPC   C3B63081  35.885  24.309   7.064
 4946POPC   C4B63082  35.970  24.297   7.364
 4947POPC   NC363083  15.971  32.975   5.564
 4947POPC   PO463084  15.917  33.008   5.864
 4947POPC   GL163085  15.934  33.030   6.164
 4947POPC   GL263086  16.107  33.131   6.164
 4947POPC   C1A63087  15.951  32.980   6.464
 4947POPC   D2A63088  15.947  33.062   6.764
 4947POPC   C3A63089  15.929  32.988   7.064
 4947POPC   C4A63090  15.944  33.021   7.364
 4947POPC   C1B63091  16.128  33.108   6.464
 4947POPC   C2B63092  16.209  33.144   6.764
 4947POPC   C3B63093  16.180  33.176   7.064
 4947POPC   C4B63094  16.146  33.181   7.364
 4948POPC   NC363095  16.746   1.992   5.564
 4948POPC   PO463096  16.768   1.993   5.864
 4948POPC   GL163097  16.725   1.985   6.164
 4948POPC   GL263098  16.579   1.985   6.164
 4948POPC   C1A63099  16.747   1.985   6.464
 4948POPC   D2A63100  16.778   2.030   6.764
 4948POPC   C3A63101  16.724   2.031   7.064
 4948POPC   C4A63102  16.691   1.956   7.364
 4948POPC   C1B63103  16.525   2.023   6.464
 4948POPC   C2B63104  16.466   2.006   6.764
 4948POPC   C3B63105  16.477   2.075   7.064
 4948POPC   C4B63106  16.476   2.005   7.364
 4949POPC   NC363107  43.864   8.202   5.564
 4949POPC   PO463108  43.844   8.233   5.864
 4949POPC   GL163109  43.859   8.178   6.164
 4949POPC   GL263110  43.932   8.128   6.164
 4949POPC   C1A63111  43.865   8.185   6.464
 4949POPC   D2A63112  43.838   8.157   6.764
 4949POPC   C3A63113  43.919   8.165   7.064
 4949POPC   C4A63114  43.873   8.150   7.364
 4949POPC   C1B63115  44.016   7.963   6.464
 4949POPC   C2B63116  43.995   7.964   6.764
 4949POPC   C3B63117  43.994   8.008   7.064
 4949POPC   C4B63118  43.970   7.961   7.364
 4950POPC   NC363119  36.898  35.371   5.564
 4950POPC   PO463120  36.879  35.316   5.864
 4950POPC   GL163121  36.864  35.352   6.164
 4950POPC   GL263122  36.872  35.180   6.164
 4950POPC   C1A63123  36.854  35.361   6.464
 4950POPC   D2A63124  36.922  35.354   6.764
 4950POPC   C3A63125  36.866  35.312   7.064
 4950POPC   C4A63126  36.881  35.362   7.364
 4950POPC   C1B63127  36.895  35.130   6.464
 4950POPC   C2B63128  36.936  35.053   6.764
 4950POPC   C3B63129  36.880  35.060   7.064
 4950POPC   C4B63130  36.940  35.106   7.364
 4951POPC   NC363131  33.063  17.533   5.564
 4951POPC   PO463132  33.070  17.508   5.864
 4951POPC   GL163133  33.068  17.493   6.164
 4951POPC   GL263134  32.933  17.544   6.164
 4951POPC   C1A63135  33.052  17.494   6.464
 4951POPC   D2A63136  33.059  17.479   6.764
 4951POPC   C3A63137  33.032  17.523   7.064
 4951POPC   C4A63138  32.994  17.518   7.364
 4951POPC   C1B63139  32.803  17.652   6.464
 4951POPC   C2B63140  32.806  17.687   6.764
 4951POPC   C3B63141  32.805  17.695   7.064
 4951POPC   C4B63142  32.851  17.662   7.364
 4952POPC   NC363143   2.761  11.348   5.564
 4952POPC   PO463144   2.768  11.300   5.864
 4952POPC   GL163145   2.746  11.295   6.164
 4952POPC   GL263146   2.803  11.353   6.164
 4952POPC   C1A63147   2.794  11.273   6.464
 4952POPC   D2A63148   2.763  11.276   6.764
 4952POPC   C3A63149   2.718  11.297   7.064
 4952POPC   C4A63150   2.810  11.339   7.364
 4952POPC   C1B63151   2.967  11.509   6.464
 4952POPC   C2B63152   2.905  11.473   6.764
 4952POPC   C3B63153   2.887  11.461   7.064
 4952POPC   C4B63154   2.907  11.451   7.364
 4953POPC   NC363155   4.273  38.450   5.564
 4953POPC   PO463156   4.354  38.501   5.864
 4953POPC   GL163157   4.303  38.462   6.164
 4953POPC   GL263158   4.196  38.347   6.164
 4953POPC   C1A63159   4.334  38.435   6.464
 4953POPC   D2A63160   4.330  38.432   6.764
 4953POPC   C3A63161   4.269  38.458   7.064
 4953POPC   C4A63162   4.342  38.470   7.364
 4953POPC   C1B63163   4.129  38.358   6.464
 4953POPC   C2B63164   4.089  38.284   6.764
 4953POPC   C3B63165   4.083  38.331   7.064
 4953POPC   C4B63166   4.112  38.294   7.364
 4954POPC   NC363167  29.154  27.637   5.564
 4954POPC   PO463168  29.164  27.578   5.864
 4954POPC   GL163169  29.181  27.626   6.164
 4954POPC   GL263170  29.068  27.688   6.164
 4954POPC   C1A63171  29.162  27.638   6.464
 4954POPC   D2A63172  29.153  27.593   6.764
 4954POPC   C3A63173  29.161  27.613   7.064
 4954POPC   C4A63174  29.153  27.563   7.364
 4954POPC   C1B63175  29.021  27.814   6.464
 4954POPC   C2B63176  28.981  27.757   6.764
 4954POPC   C3B63177  28.974  27.786   7.064
 4954POPC   C4B63178  28.953  27.811   7.364
 4955POPC   NC363179  17.481   4.355   5.564
 4955POPC   PO463180  17.485   4.323   5.864
 4955POPC   GL163181  17.504   4.342   6.164
 4955POPC   GL263182  17.488   4.483   6.164
 4955POPC   C1A63183  17.505   4.270   6.464
 4955POPC   D2A63184  17.511   4.311   6.764
 4955POPC   C3A63185  17.458   4.358   7.064
 4955POPC   C4A63186  17.503   4.363   7.364
 4955POPC   C1B63187  17.559   4.539   6.464
 4955POPC   C2B63188  17.520   4.543   6.764
 4955POPC   C3B63189  17.530   4.616   7.064
 4955POPC   C4B63190  17.496   4.533   7.364
 4956POPC   NC363191   1.944  12.067   5.564
 4956POPC   PO463192   1.955  12.081   5.864
 4956POPC   GL163193   2.024  12.032   6.164
 4956POPC   GL263194   2.025  11.915   6.164
 4956POPC   C1A63195   2.006  12.104   6.464
 4956POPC   D2A63196   2.001  12.078   6.764
 4956POPC   C3A63197   1.971  12.046   7.064
 4956POPC   C4A63198   1.987  12.064   7.364
 4956POPC   C1B63199   2.106  11.836   6.464
 4956POPC   C2B63200   2.089  11.800   6.764
 4956POPC   C3B63201   2.114  11.811   7.064
 4956POPC   C4B63202   2.059  11.859   7.364
 4957POPC   NC363203  20.567  25.236   5.564
 4957POPC   PO463204  20.631  25.294   5.864
 4957POPC   GL163205  20.608  25.227   6.164
 4957POPC   GL263206  20.692  25.234   6.164
 4957POPC   C1A63207  20.602  25.254   6.464
 4957POPC   D2A63208  20.652  25.284   6.764
 4957POPC   C3A63209  20.567  25.314   7.064
 4957POPC   C4A63210  20.583  25.226   7.364
 4957POPC   C1B63211  20.889  25.242   6.464
 4957POPC   C2B63212  20.821  25.258   6.764
 4957POPC   C3B63213  20.852  25.295   7.064
 4957POPC   C4B63214  20.855  25.246   7.364
 4958POPC   NC363215   9.757  40.041   5.564
 4958POPC   PO463216   9.771  39.963   5.864
 4958POPC   GL163217   9.720  40.040   6.164
 4958POPC   GL263218   9.611  40.096   6.164
 4958POPC   C1A63219   9.732  39.981   6.464
 4958POPC   D2A63220   9.711  40.050   6.764
 4958POPC   C3A63221   9.766  39.993   7.064
 4958POPC   C4A63222   9.711  40.020   7.364
 4958POPC   C1B63223   9.573  40.118   6.464
 4958POPC   C2B63224   9.495  40.141   6.764
 4958POPC   C3B63225   9.543  40.106   7.064
 4958POPC   C4B63226   9.542  40.145   7.364
 4959POPC   NC363227  30.709  23.686   5.564
 4959POPC   PO463228  30.708  23.686   5.864
 4959POPC   GL163229  30.682  23.740   6.164
 4959POPC   GL263230  30.665  23.826   6.164
 4959POPC   C1A63231  30.696  23.692   6.464
 4959POPC   D2A63232  30.725  23.666   6.764
 4959POPC   C3A63233  30.721  23.691   7.064
 4959POPC   C4A63234  30.715  23.722   7.364
 4959POPC   C1B63235  30.523  23.882   6.464
 4959POPC   C2B63236  30.515  23.943   6.764
 4959POPC   C3B63237  30.529  23.941   7.064
 4959POPC   C4B63238  30.563  23.893   7.364
 4960POPC   NC363239  38.414  43.087   5.564
 4960POPC   PO463240  38.502  43.069   5.864
 4960POPC   GL163241  38.419  43.157   6.164
 4960POPC   GL263242  38.540  43.016   6.164
 4960POPC   C1A63243  38.497  43.113   6.464
 4960POPC   D2A63244  38.477  43.093   6.764
 4960POPC   C3A63245  38.502  43.141   7.064
 4960POPC   C4A63246  38.493  43.137   7.364
 4960POPC   C1B63247  38.582  42.909   6.464
 4960POPC   C2B63248  38.617  42.850   6.764
 4960POPC   C3B63249  38.543  42.920   7.064
 4960POPC   C4B63250  38.596  42.848   7.364
 4961POPC   NC363251  33.809  17.503   5.564
 4961POPC   PO463252  33.808  17.544   5.864
 4961POPC   GL163253  33.806  17.499   6.164
 4961POPC   GL263254  33.905  17.578   6.164
 4961POPC   C1A63255  33.768  17.538   6.464
 4961POPC   D2A63256  33.826  17.508   6.764
 4961POPC   C3A63257  33.810  17.468   7.064
 4961POPC   C4A63258  33.810  17.469   7.364
 4961POPC   C1B63259  33.964  17.671   6.464
 4961POPC   C2B63260  34.060  17.687   6.764
 4961POPC   C3B63261  34.051  17.590   7.064
 4961POPC   C4B63262  34.031  17.590   7.364
 4962POPC   NC363263  43.845  26.824   5.564
 4962POPC   PO463264  43.885  26.865   5.864
 4962POPC   GL163265  43.872  26.778   6.164
 4962POPC   GL263266  43.936  26.935   6.164
 4962POPC   C1A63267  43.899  26.843   6.464
 4962POPC   D2A63268  43.899  26.842   6.764
 4962POPC   C3A63269  43.898  26.791   7.064
 4962POPC   C4A63270  43.919  26.837   7.364
 4962POPC   C1B63271  43.977  27.019   6.464
 4962POPC   C2B63272  43.952  27.076   6.764
 4962POPC   C3B63273  43.951  27.040   7.064
 4962POPC   C4B63274  44.027  27.053   7.364
 4963POPC   NC363275  35.373  34.606   5.564
 4963POPC   PO463276  35.322  34.566   5.864
 4963POPC   GL163277  35.334  34.565   6.164
 4963POPC   GL263278  35.376  34.426   6.164
 4963POPC   C1A63279  35.305  34.574   6.464
 4963POPC   D2A63280  35.309  34.561   6.764
 4963POPC   C3A63281  35.338  34.590   7.064
 4963POPC   C4A63282  35.397  34.559   7.364
 4963POPC   C1B63283  35.354  34.328   6.464
 4963POPC   C2B63284  35.380  34.344   6.764
 4963POPC   C3B63285  35.353  34.287   7.064
 4963POPC   C4B63286  35.448  34.334   7.364
 4964POPC   NC363287  13.594  22.939   5.564
 4964POPC   PO463288  13.585  22.976   5.864
 4964POPC   GL163289  13.642  22.895   6.164
 4964POPC   GL263290  13.478  22.915   6.164
 4964POPC   C1A63291  13.598  22.967   6.464
 4964POPC   D2A63292  13.655  22.889   6.764
 4964POPC   C3A63293  13.662  22.926   7.064
 4964POPC   C4A63294  13.647  22.914   7.364
 4964POPC   C1B63295  13.396  22.944   6.464
 4964POPC   C2B63296  13.383  22.877   6.764
 4964POPC   C3B63297  13.419  22.944   7.064
 4964POPC   C4B63298  13.371  22.904   7.364
 4965POPC   NC363299   7.428  15.923   5.564
 4965POPC   PO463300   7.416  15.938   5.864
 4965POPC   GL163301   7.433  15.972   6.164
 4965POPC   GL263302   7.361  16.028   6.164
 4965POPC   C1A63303   7.419  15.926   6.464
 4965POPC   D2A63304   7.413  15.938   6.764
 4965POPC   C3A63305   7.468  15.998   7.064
 4965POPC   C4A63306   7.373  15.918   7.364
 4965POPC   C1B63307   7.221  16.072   6.464
 4965POPC   C2B63308   7.183  16.127   6.764
 4965POPC   C3B63309   7.209  16.116   7.064
 4965POPC   C4B63310   7.245  16.098   7.364
 4966POPC   NC363311   1.194  12.878   5.564
 4966POPC   PO463312   1.201  12.834   5.864
 4966POPC   GL163313   1.252  12.872   6.164
 4966POPC   GL263314   1.152  12.740   6.164
 4966POPC   C1A63315   1.187  12.805   6.464
 4966POPC   D2A63316   1.261  12.853   6.764
 4966POPC   C3A63317   1.255  12.892   7.064
 4966POPC   C4A63318   1.225  12.805   7.364
 4966POPC   C1B63319   1.019  12.655   6.464
 4966POPC   C2B63320   1.025  12.687   6.764
 4966POPC   C3B63321   1.099  12.691   7.064
 4966POPC   C4B63322   1.110  12.664   7.364
 4967POPC   NC363323  33.767   4.326   5.564
 4967POPC   PO463324  33.826   4.317   5.864
 4967POPC   GL163325  33.750   4.352   6.164
 4967POPC   GL263326  33.729   4.286   6.164
 4967POPC   C1A63327  33.762   4.307   6.464
 4967POPC   D2A63328  33.782   4.338   6.764
 4967POPC   C3A63329  33.763   4.325   7.064
 4967POPC   C4A63330  33.790   4.362   7.364
 4967POPC   C1B63331  33.525   4.260   6.464
 4967POPC   C2B63332  33.578   4.249   6.764
 4967POPC   C3B63333  33.580   4.262   7.064
 4967POPC   C4B63334  33.532   4.229   7.364
 4968POPC   NC363335  32.200  27.602   5.564
 4968POPC   PO463336  32.277  27.582   5.864
 4968POPC   GL163337  32.258  27.641   6.164
 4968POPC   GL263338  32.369  27.538   6.164
 4968POPC   C1A63339  32.257  27.602   6.464
 4968POPC   D2A63340  32.216  27.579   6.764
 4968POPC   C3A63341  32.270  27.572   7.064
 4968POPC   C4A63342  32.213  27.622   7.364
 4968POPC   C1B63343  32.465  27.432   6.464
 4968POPC   C2B63344  32.390  27.431   6.764
 4968POPC   C3B63345  32.372  27.397   7.064
 4968POPC   C4B63346  32.374  27.412   7.364
 4969POPC   NC363347  26.772  11.309   5.564
 4969POPC   PO463348  26.777  11.289   5.864
 4969POPC   GL163349  26.851  11.278   6.164
 4969POPC   GL263350  26.923  11.180   6.164
 4969POPC   C1A63351  26.862  11.293   6.464
 4969POPC   D2A63352  26.867  11.269   6.764
 4969POPC   C3A63353  26.854  11.271   7.064
 4969POPC   C4A63354  26.862  11.346   7.364
 4969POPC   C1B63355  26.983  11.116   6.464
 4969POPC   C2B63356  26.912  11.120   6.764
 4969POPC   C3B63357  26.908  11.094   7.064
 4969POPC   C4B63358  26.926  11.059   7.364
 4970POPC   NC363359  20.623  36.144   5.564
 4970POPC   PO463360  20.575  36.115   5.864
 4970POPC   GL163361  20.627  36.105   6.164
 4970POPC   GL263362  20.445  36.082   6.164
 4970POPC   C1A63363  20.611  36.117   6.464
 4970POPC   D2A63364  20.596  36.097   6.764
 4970POPC   C3A63365  20.648  36.112   7.064
 4970POPC   C4A63366  20.643  36.112   7.364
 4970POPC   C1B63367  20.387  36.130   6.464
 4970POPC   C2B63368  20.370  36.073   6.764
 4970POPC   C3B63369  20.333  36.106   7.064
 4970POPC   C4B63370  20.364  36.106   7.364
 4971POPC   NC363371  36.161  13.626   5.564
 4971POPC   PO463372  36.146  13.671   5.864
 4971POPC   GL163373  36.102  13.606   6.164
 4971POPC   GL263374  36.220  13.596   6.164
 4971POPC   C1A63375  36.099  13.580   6.464
 4971POPC   D2A63376  36.085  13.582   6.764
 4971POPC   C3A63377  36.124  13.669   7.064
 4971POPC   C4A63378  36.137  13.647   7.364
 4971POPC   C1B63379  36.340  13.608   6.464
 4971POPC   C2B63380  36.387  13.629   6.764
 4971POPC   C3B63381  36.352  13.590   7.064
 4971POPC   C4B63382  36.353  13.634   7.364
 4972POPC   NC363383  13.640   4.278   5.564
 4972POPC   PO463384  13.652   4.351   5.864
 4972POPC   GL163385  13.620   4.305   6.164
 4972POPC   GL263386  13.604   4.225   6.164
 4972POPC   C1A63387  13.634   4.273   6.464
 4972POPC   D2A63388  13.668   4.281   6.764
 4972POPC   C3A63389  13.598   4.280   7.064
 4972POPC   C4A63390  13.668   4.352   7.364
 4972POPC   C1B63391  13.659   4.057   6.464
 4972POPC   C2B63392  13.638   4.085   6.764
 4972POPC   C3B63393  13.655   4.026   7.064
 4972POPC   C4B63394  13.689   4.055   7.364
 4973POPC   NC363395  18.264   2.781   5.564
 4973POPC   PO463396  18.240   2.799   5.864
 4973POPC   GL163397  18.267   2.784   6.164
 4973POPC   GL263398  18.407   2.696   6.164
 4973POPC   C1A63399  18.250   2.742   6.464
 4973POPC   D2A63400  18.286   2.797   6.764
 4973POPC   C3A63401  18.260   2.769   7.064
 4973POPC   C4A63402  18.315   2.718   7.364
 4973POPC   C1B63403  18.523   2.636   6.464
 4973POPC   C2B63404  18.477   2.663   6.764
 4973POPC   C3B63405  18.479   2.665   7.064
 4973POPC   C4B63406  18.551   2.670   7.364
 4974POPC   NC363407  29.168  18.275   5.564
 4974POPC   PO463408  29.112  18.249   5.864
 4974POPC   GL163409  29.147  18.265   6.164
 4974POPC   GL263410  29.077  18.441   6.164
 4974POPC   C1A63411  29.131  18.240   6.464
 4974POPC   D2A63412  29.135  18.249   6.764
 4974POPC   C3A63413  29.122  18.241   7.064
 4974POPC   C4A63414  29.184  18.303   7.364
 4974POPC   C1B63415  29.131  18.554   6.464
 4974POPC   C2B63416  29.037  18.557   6.764
 4974POPC   C3B63417  29.090  18.558   7.064
 4974POPC   C4B63418  29.065  18.503   7.364
 4975POPC   NC363419  30.721  22.962   5.564
 4975POPC   PO463420  30.673  22.970   5.864
 4975POPC   GL163421  30.730  22.891   6.164
 4975POPC   GL263422  30.640  23.023   6.164
 4975POPC   C1A63423  30.673  22.935   6.464
 4975POPC   D2A63424  30.671  22.892   6.764
 4975POPC   C3A63425  30.656  22.925   7.064
 4975POPC   C4A63426  30.688  22.951   7.364
 4975POPC   C1B63427  30.603  23.196   6.464
 4975POPC   C2B63428  30.609  23.109   6.764
 4975POPC   C3B63429  30.614  23.204   7.064
 4975POPC   C4B63430  30.617  23.164   7.364
 4976POPC   NC363431  27.636  20.637   5.564
 4976POPC   PO463432  27.545  20.631   5.864
 4976POPC   GL163433  27.573  20.617   6.164
 4976POPC   GL263434  27.478  20.620   6.164
 4976POPC   C1A63435  27.619  20.575   6.464
 4976POPC   D2A63436  27.554  20.615   6.764
 4976POPC   C3A63437  27.552  20.616   7.064
 4976POPC   C4A63438  27.549  20.583   7.364
 4976POPC   C1B63439  27.357  20.572   6.464
 4976POPC   C2B63440  27.337  20.572   6.764
 4976POPC   C3B63441  27.364  20.562   7.064
 4976POPC   C4B63442  27.331  20.538   7.364
 4977POPC   NC363443  43.841   6.667   5.564
 4977POPC   PO463444  43.911   6.654   5.864
 4977POPC   GL163445  43.903   6.610   6.164
 4977POPC   GL263446  43.720   6.671   6.164
 4977POPC   C1A63447  43.893   6.612   6.464
 4977POPC   D2A63448  43.930   6.622   6.764
 4977POPC   C3A63449  43.881   6.604   7.064
 4977POPC   C4A63450  43.899   6.677   7.364
 4977POPC   C1B63451  43.650   6.664   6.464
 4977POPC   C2B63452  43.616   6.672   6.764
 4977POPC   C3B63453  43.604   6.623   7.064
 4977POPC   C4B63454  43.605   6.667   7.364
 4978POPC   NC363455  36.922  33.805   5.564
 4978POPC   PO463456  36.911  33.803   5.864
 4978POPC   GL163457  36.932  33.778   6.164
 4978POPC   GL263458  37.011  33.740   6.164
 4978POPC   C1A63459  36.863  33.826   6.464
 4978POPC   D2A63460  36.948  33.848   6.764
 4978POPC   C3A63461  36.942  33.819   7.064
 4978POPC   C4A63462  36.924  33.805   7.364
 4978POPC   C1B63463  37.115  33.789   6.464
 4978POPC   C2B63464  37.131  33.771   6.764
 4978POPC   C3B63465  37.145  33.728   7.064
 4978POPC   C4B63466  37.195  33.717   7.364
 4979POPC   NC363467  36.134  40.036   5.564
 4979POPC   PO463468  36.173  39.976   5.864
 4979POPC   GL163469  36.114  39.970   6.164
 4979POPC   GL263470  36.204  40.138   6.164
 4979POPC   C1A63471  36.125  40.042   6.464
 4979POPC   D2A63472  36.166  40.048   6.764
 4979POPC   C3A63473  36.103  39.991   7.064
 4979POPC   C4A63474  36.101  40.032   7.364
 4979POPC   C1B63475  36.258  40.239   6.464
 4979POPC   C2B63476  36.261  40.195   6.764
 4979POPC   C3B63477  36.212  40.279   7.064
 4979POPC   C4B63478  36.221  40.251   7.364
 4980POPC   NC363479  28.389  42.372   5.564
 4980POPC   PO463480  28.413  42.343   5.864
 4980POPC   GL163481  28.396  42.363   6.164
 4980POPC   GL263482  28.396  42.213   6.164
 4980POPC   C1A63483  28.413  42.361   6.464
 4980POPC   D2A63484  28.326  42.351   6.764
 4980POPC   C3A63485  28.340  42.364   7.064
 4980POPC   C4A63486  28.412  42.300   7.364
 4980POPC   C1B63487  28.558  42.143   6.464
 4980POPC   C2B63488  28.531  42.127   6.764
 4980POPC   C3B63489  28.500  42.084   7.064
 4980POPC   C4B63490  28.464  42.126   7.364
 4981POPC   NC363491  19.077  21.384   5.564
 4981POPC   PO463492  19.097  21.383   5.864
 4981POPC   GL163493  19.039  21.354   6.164
 4981POPC   GL263494  19.041  21.548   6.164
 4981POPC   C1A63495  19.076  21.423   6.464
 4981POPC   D2A63496  19.060  21.420   6.764
 4981POPC   C3A63497  19.033  21.368   7.064
 4981POPC   C4A63498  19.054  21.388   7.364
 4981POPC   C1B63499  19.058  21.592   6.464
 4981POPC   C2B63500  19.080  21.670   6.764
 4981POPC   C3B63501  19.109  21.625   7.064
 4981POPC   C4B63502  19.056  21.636   7.364
 4982POPC   NC363503  31.455  36.106   5.564
 4982POPC   PO463504  31.440  36.122   5.864
 4982POPC   GL163505  31.504  36.168   6.164
 4982POPC   GL263506  31.469  36.217   6.164
 4982POPC   C1A63507  31.497  36.108   6.464
 4982POPC   D2A63508  31.507  36.118   6.764
 4982POPC   C3A63509  31.511  36.127   7.064
 4982POPC   C4A63510  31.443  36.151   7.364
 4982POPC   C1B63511  31.466  36.359   6.464
 4982POPC   C2B63512  31.457  36.354   6.764
 4982POPC   C3B63513  31.472  36.422   7.064
 4982POPC   C4B63514  31.535  36.360   7.364
 4983POPC   NC363515   7.381  35.379   5.564
 4983POPC   PO463516   7.373  35.336   5.864
 4983POPC   GL163517   7.466  35.364   6.164
 4983POPC   GL263518   7.541  35.315   6.164
 4983POPC   C1A63519   7.395  35.316   6.464
 4983POPC   D2A63520   7.379  35.323   6.764
 4983POPC   C3A63521   7.428  35.368   7.064
 4983POPC   C4A63522   7.431  35.318   7.364
 4983POPC   C1B63523   7.693  35.368   6.464
 4983POPC   C2B63524   7.694  35.379   6.764
 4983POPC   C3B63525   7.629  35.421   7.064
 4983POPC   C4B63526   7.642  35.352   7.364
 4984POPC   NC363527  11.278  44.648   5.564
 4984POPC   PO463528  11.323  44.702   5.864
 4984POPC   GL163529  11.348  44.668   6.164
 4984POPC   GL263530  11.426  44.634   6.164
 4984POPC   C1A63531  11.277  44.650   6.464
 4984POPC   D2A63532  11.291  44.630   6.764
 4984POPC   C3A63533  11.343  44.648   7.064
 4984POPC   C4A63534  11.335  44.693   7.364
 4984POPC   C1B63535  11.515  44.682   6.464
 4984POPC   C2B63536  11.596  44.649   6.764
 4984POPC   C3B63537  11.598  44.688   7.064
 4984POPC   C4B63538  11.526  44.724   7.364
 4985POPC   NC363539  10.500  13.640   5.564
 4985POPC   PO463540  10.567  13.643   5.864
 4985POPC   GL163541  10.550  13.617   6.164
 4985POPC   GL263542  10.586  13.716   6.164
 4985POPC   C1A63543  10.500  13.666   6.464
 4985POPC   D2A63544  10.521  13.643   6.764
 4985POPC   C3A63545  10.496  13.638   7.064
 4985POPC   C4A63546  10.504  13.598   7.364
 4985POPC   C1B63547  10.691  13.786   6.464
 4985POPC   C2B63548  10.735  13.791   6.764
 4985POPC   C3B63549  10.705  13.769   7.064
 4985POPC   C4B63550  10.657  13.774   7.364
 4986POPC   NC363551  29.932   1.261   5.564
 4986POPC   PO463552  29.943   1.228   5.864
 4986POPC   GL163553  29.953   1.242   6.164
 4986POPC   GL263554  29.999   1.137   6.164
 4986POPC   C1A63555  29.899   1.185   6.464
 4986POPC   D2A63556  29.888   1.229   6.764
 4986POPC   C3A63557  29.921   1.178   7.064
 4986POPC   C4A63558  29.924   1.185   7.364
 4986POPC   C1B63559  30.105   1.058   6.464
 4986POPC   C2B63560  30.108   1.096   6.764
 4986POPC   C3B63561  30.151   1.080   7.064
 4986POPC   C4B63562  30.084   1.023   7.364
 4987POPC   NC363563   9.704  32.214   5.564
 4987POPC   PO463564   9.700  32.276   5.864
 4987POPC   GL163565   9.743  32.286   6.164
 4987POPC   GL263566   9.911  32.242   6.164
 4987POPC   C1A63567   9.779  32.271   6.464
 4987POPC   D2A63568   9.733  32.229   6.764
 4987POPC   C3A63569   9.726  32.273   7.064
 4987POPC   C4A63570   9.719  32.292   7.364
 4987POPC   C1B63571  10.009  32.175   6.464
 4987POPC   C2B63572  10.015  32.123   6.764
 4987POPC   C3B63573  10.022  32.186   7.064
 4987POPC   C4B63574  10.024  32.149   7.364
 4988POPC   NC363575   5.897  37.661   5.564
 4988POPC   PO463576   5.910  37.720   5.864
 4988POPC   GL163577   5.836  37.680   6.164
 4988POPC   GL263578   5.850  37.544   6.164
 4988POPC   C1A63579   5.871  37.674   6.464
 4988POPC   D2A63580   5.863  37.634   6.764
 4988POPC   C3A63581   5.837  37.695   7.064
 4988POPC   C4A63582   5.864  37.684   7.364
 4988POPC   C1B63583   5.713  37.451   6.464
 4988POPC   C2B63584   5.711  37.479   6.764
 4988POPC   C3B63585   5.778  37.484   7.064
 4988POPC   C4B63586   5.758  37.417   7.364
 4989POPC   NC363587  29.955   8.202   5.564
 4989POPC   PO463588  29.891   8.183   5.864
 4989POPC   GL163589  29.943   8.231   6.164
 4989POPC   GL263590  29.949   8.271   6.164
 4989POPC   C1A63591  29.962   8.235   6.464
 4989POPC   D2A63592  29.884   8.238   6.764
 4989POPC   C3A63593  29.938   8.240   7.064
 4989POPC   C4A63594  29.935   8.210   7.364
 4989POPC   C1B63595  29.855   8.473   6.464
 4989POPC   C2B63596  29.914   8.483   6.764
 4989POPC   C3B63597  29.845   8.411   7.064
 4989POPC   C4B63598  29.887   8.400   7.364
 4990POPC   NC363599  21.356   4.327   5.564
 4990POPC   PO463600  21.412   4.328   5.864
 4990POPC   GL163601  21.405   4.297   6.164
 4990POPC   GL263602  21.344   4.412   6.164
 4990POPC   C1A63603  21.427   4.329   6.464
 4990POPC   D2A63604  21.361   4.344   6.764
 4990POPC   C3A63605  21.402   4.325   7.064
 4990POPC   C4A63606  21.369   4.302   7.364
 4990POPC   C1B63607  21.360   4.521   6.464
 4990POPC   C2B63608  21.363   4.521   6.764
 4990POPC   C3B63609  21.412   4.590   7.064
 4990POPC   C4B63610  21.332   4.525   7.364
 4991POPC   NC363611  11.274  25.237   5.564
 4991POPC   PO463612  11.269  25.243   5.864
 4991POPC   GL163613  11.285  25.260   6.164
 4991POPC   GL263614  11.146  25.372   6.164
 4991POPC   C1A63615  11.306  25.261   6.464
 4991POPC   D2A63616  11.333  25.293   6.764
 4991POPC   C3A63617  11.329  25.227   7.064
 4991POPC   C4A63618  11.334  25.262   7.364
 4991POPC   C1B63619  11.093  25.386   6.464
 4991POPC   C2B63620  11.064  25.362   6.764
 4991POPC   C3B63621  11.062  25.345   7.064
 4991POPC   C4B63622  11.126  25.388   7.364
 4992POPC   NC363623  34.592   9.002   5.564
 4992POPC   PO463624  34.614   8.994   5.864
 4992POPC   GL163625  34.553   8.937   6.164
 4992POPC   GL263626  34.712   8.917   6.164
 4992POPC   C1A63627  34.608   8.952   6.464
 4992POPC   D2A63628  34.558   8.952   6.764
 4992POPC   C3A63629  34.598   8.952   7.064
 4992POPC   C4A63630  34.557   8.967   7.364
 4992POPC   C1B63631  34.870   8.963   6.464
 4992POPC   C2B63632  34.816   8.935   6.764
 4992POPC   C3B63633  34.849   8.961   7.064
 4992POPC   C4B63634  34.808   8.987   7.364
 4993POPC   NC363635   5.057  39.273   5.564
 4993POPC   PO463636   5.050  39.244   5.864
 4993POPC   GL163637   5.067  39.224   6.164
 4993POPC   GL263638   5.042  39.132   6.164
 4993POPC   C1A63639   5.140  39.211   6.464
 4993POPC   D2A63640   5.062  39.216   6.764
 4993POPC   C3A63641   5.108  39.255   7.064
 4993POPC   C4A63642   5.112  39.261   7.364
 4993POPC   C1B63643   4.896  39.106   6.464
 4993POPC   C2B63644   4.947  39.051   6.764
 4993POPC   C3B63645   4.883  39.084   7.064
 4993POPC   C4B63646   4.945  39.049   7.364
 4994POPC   NC363647  15.972   8.212   5.564
 4994POPC   PO463648  15.980   8.234   5.864
 4994POPC   GL163649  15.979   8.155   6.164
 4994POPC   GL263650  15.790   8.184   6.164
 4994POPC   C1A63651  15.943   8.241   6.464
 4994POPC   D2A63652  15.989   8.208   6.764
 4994POPC   C3A63653  15.931   8.158   7.064
 4994POPC   C4A63654  15.965   8.147   7.364
 4994POPC   C1B63655  15.759   8.156   6.464
 4994POPC   C2B63656  15.672   8.121   6.764
 4994POPC   C3B63657  15.756   8.124   7.064
 4994POPC   C4B63658  15.721   8.189   7.364
 4995POPC   NC363659  17.496  32.213   5.564
 4995POPC   PO463660  17.525  32.232   5.864
 4995POPC   GL163661  17.546  32.286   6.164
 4995POPC   GL263662  17.563  32.314   6.164
 4995POPC   C1A63663  17.515  32.288   6.464
 4995POPC   D2A63664  17.552  32.273   6.764
 4995POPC   C3A63665  17.510  32.242   7.064
 4995POPC   C4A63666  17.461  32.230   7.364
 4995POPC   C1B63667  17.624  32.465   6.464
 4995POPC   C2B63668  17.646  32.433   6.764
 4995POPC   C3B63669  17.621  32.514   7.064
 4995POPC   C4B63670  17.617  32.488   7.364
 4996POPC   NC363671  42.321  38.434   5.564
 4996POPC   PO463672  42.341  38.418   5.864
 4996POPC   GL163673  42.364  38.422   6.164
 4996POPC   GL263674  42.178  38.420   6.164
 4996POPC   C1A63675  42.329  38.422   6.464
 4996POPC   D2A63676  42.307  38.441   6.764
 4996POPC   C3A63677  42.288  38.432   7.064
 4996POPC   C4A63678  42.324  38.438   7.364
 4996POPC   C1B63679  42.055  38.390   6.464
 4996POPC   C2B63680  42.042  38.435   6.764
 4996POPC   C3B63681  42.058  38.430   7.064
 4996POPC   C4B63682  42.067  38.400   7.364
 4997POPC   NC363683   4.333  42.321   5.564
 4997POPC   PO463684   4.303  42.315   5.864
 4997POPC   GL163685   4.314  42.316   6.164
 4997POPC   GL263686   4.314  42.424   6.164
 4997POPC   C1A63687   4.341  42.339   6.464
 4997POPC   D2A63688   4.343  42.315   6.764
 4997POPC   C3A63689   4.326  42.357   7.064
 4997POPC   C4A63690   4.305  42.310   7.364
 4997POPC   C1B63691   4.290  42.634   6.464
 4997POPC   C2B63692   4.363  42.563   6.764
 4997POPC   C3B63693   4.347  42.582   7.064
 4997POPC   C4B63694   4.336  42.628   7.364
 4998POPC   NC363695  36.854  43.081   5.564
 4998POPC   PO463696  36.910  43.089   5.864
 4998POPC   GL163697  36.911  43.104   6.164
 4998POPC   GL263698  36.869  43.024   6.164
 4998POPC   C1A63699  36.895  43.134   6.464
 4998POPC   D2A63700  36.860  43.118   6.764
 4998POPC   C3A63701  36.877  43.102   7.064
 4998POPC   C4A63702  36.895  43.143   7.364
 4998POPC   C1B63703  36.893  42.819   6.464
 4998POPC   C2B63704  36.933  42.830   6.764
 4998POPC   C3B63705  36.896  42.869   7.064
 4998POPC   C4B63706  36.861  42.832   7.364
 4999POPC   NC363707   8.148  15.987   5.564
 4999POPC   PO463708   8.150  15.981   5.864
 4999POPC   GL163709   8.177  15.910   6.164
 4999POPC   GL263710   8.361  15.953   6.164
 4999POPC   C1A63711   8.214  15.965   6.464
 4999POPC   D2A63712   8.229  15.935   6.764
 4999POPC   C3A63713   8.225  15.911   7.064
 4999POPC   C4A63714   8.239  16.003   7.364
 4999POPC   C1B63715   8.449  15.982   6.464
 4999POPC   C2B63716   8.426  15.980   6.764
 4999POPC   C3B63717   8.484  15.977   7.064
 4999POPC   C4B63718   8.400  16.034   7.364
 5000POPC   NC363719  22.986  29.887   5.564
 5000POPC   PO463720  22.912  29.916   5.864
 5000POPC   GL163721  22.951  29.920   6.164
 5000POPC   GL263722  23.025  29.917   6.164
 5000POPC   C1A63723  22.954  29.932   6.464
 5000POPC   D2A63724  22.933  29.952   6.764
 5000POPC   C3A63725  22.888  29.903   7.064
 5000POPC   C4A63726  22.941  29.942   7.364
 5000POPC   C1B63727  23.219  29.939   6.464
 5000POPC   C2B63728  23.230  29.928   6.764
 5000POPC   C3B63729  23.193  29.917   7.064
 5000POPC   C4B63730  23.228  29.982   7.364
 5001POPC   NC363731  42.323   5.100   5.564
 5001POPC   PO463732  42.323   5.120   5.864
 5001POPC   GL163733  42.375   5.085   6.164
 5001POPC   GL263734  42.282   4.976   6.164
 5001POPC   C1A63735  42.356   5.071   6.464
 5001POPC   D2A63736  42.354   5.058   6.764
 5001POPC   C3A63737  42.318   5.050   7.064
 5001POPC   C4A63738  42.354   5.113   7.364
 5001POPC   C1B63739  42.244   4.827   6.464
 5001POPC   C2B63740  42.224   4.878   6.764
 5001POPC   C3B63741  42.167   4.849   7.064
 5001POPC   C4B63742  42.259   4.842   7.364
 5002POPC   NC363743  40.790  41.537   5.564
 5002POPC   PO463744  40.796  41.544   5.864
 5002POPC   GL163745  40.796  41.564   6.164
 5002POPC   GL263746  40.841  41.693   6.164
 5002POPC   C1A63747  40.828  41.590   6.464
 5002POPC   D2A63748  40.815  41.587   6.764
 5002POPC   C3A63749  40.795  41.527   7.064
 5002POPC   C4A63750  40.821  41.545   7.364
 5002POPC   C1B63751  40.853  41.825   6.464
 5002POPC   C2B63752  40.848  41.820   6.764
 5002POPC   C3B63753  40.813  41.781   7.064
 5002POPC   C4B63754  40.841  41.840   7.364
 5003POPC   NC363755  28.331  17.549   5.564
 5003POPC   PO463756  28.349  17.533   5.864
 5003POPC   GL163757  28.348  17.520   6.164
 5003POPC   GL263758  28.481  17.608   6.164
 5003POPC   C1A63759  28.350  17.478   6.464
 5003POPC   D2A63760  28.361  17.458   6.764
 5003POPC   C3A63761  28.388  17.494   7.064
 5003POPC   C4A63762  28.356  17.504   7.364
 5003POPC   C1B63763  28.520  17.750   6.464
 5003POPC   C2B63764  28.551  17.745   6.764
 5003POPC   C3B63765  28.487  17.723   7.064
 5003POPC   C4B63766  28.534  17.666   7.364
 5004POPC   NC363767  25.287  23.680   5.564
 5004POPC   PO463768  25.217  23.696   5.864
 5004POPC   GL163769  25.226  23.685   6.164
 5004POPC   GL263770  25.136  23.622   6.164
 5004POPC   C1A63771  25.276  23.751   6.464
 5004POPC   D2A63772  25.283  23.714   6.764
 5004POPC   C3A63773  25.271  23.679   7.064
 5004POPC   C4A63774  25.287  23.706   7.364
 5004POPC   C1B63775  25.125  23.563   6.464
 5004POPC   C2B63776  25.076  23.583   6.764
 5004POPC   C3B63777  25.072  23.558   7.064
 5004POPC   C4B63778  25.127  23.577   7.364
 5005POPC   NC363779  38.432  23.704   5.564
 5005POPC   PO463780  38.432  23.741   5.864
 5005POPC   GL163781  38.460  23.695   6.164
 5005POPC   GL263782  38.305  23.672   6.164
 5005POPC   C1A63783  38.493  23.756   6.464
 5005POPC   D2A63784  38.449  23.753   6.764
 5005POPC   C3A63785  38.469  23.721   7.064
 5005POPC   C4A63786  38.452  23.704   7.364
 5005POPC   C1B63787  38.193  23.643   6.464
 5005POPC   C2B63788  38.233  23.637   6.764
 5005POPC   C3B63789  38.239  23.665   7.064
 5005POPC   C4B63790  38.236  23.634   7.364
 5006POPC   NC363791   4.330  33.770   5.564
 5006POPC   PO463792   4.327  33.813   5.864
 5006POPC   GL163793   4.326  33.848   6.164
 5006POPC   GL263794   4.232  33.832   6.164
 5006POPC   C1A63795   4.343  33.818   6.464
 5006POPC   D2A63796   4.311  33.848   6.764
 5006POPC   C3A63797   4.352  33.781   7.064
 5006POPC   C4A63798   4.333  33.840   7.364
 5006POPC   C1B63799   4.043  33.806   6.464
 5006POPC   C2B63800   4.062  33.804   6.764
 5006POPC   C3B63801   4.053  33.850   7.064
 5006POPC   C4B63802   4.107  33.801   7.364
 5007POPC   NC363803  17.470  15.922   5.564
 5007POPC   PO463804  17.500  15.991   5.864
 5007POPC   GL163805  17.493  15.920   6.164
 5007POPC   GL263806  17.374  15.903   6.164
 5007POPC   C1A63807  17.539  15.968   6.464
 5007POPC   D2A63808  17.474  15.944   6.764
 5007POPC   C3A63809  17.486  15.936   7.064
 5007POPC   C4A63810  17.518  15.912   7.364
 5007POPC   C1B63811  17.306  15.826   6.464
 5007POPC   C2B63812  17.301  15.800   6.764
 5007POPC   C3B63813  17.360  15.764   7.064
 5007POPC   C4B63814  17.336  15.746   7.364
 5008POPC   NC363815   5.071  43.150   5.564
 5008POPC   PO463816   5.110  43.118   5.864
 5008POPC   GL163817   5.143  43.070   6.164
 5008POPC   GL263818   5.120  43.198   6.164
 5008POPC   C1A63819   5.095  43.093   6.464
 5008POPC   D2A63820   5.107  43.128   6.764
 5008POPC   C3A63821   5.081  43.105   7.064
 5008POPC   C4A63822   5.064  43.106   7.364
 5008POPC   C1B63823   5.165  43.346   6.464
 5008POPC   C2B63824   5.195  43.320   6.764
 5008POPC   C3B63825   5.193  43.335   7.064
 5008POPC   C4B63826   5.220  43.317   7.364
 5009POPC   NC363827   7.458  13.672   5.564
 5009POPC   PO463828   7.379  13.587   5.864
 5009POPC   GL163829   7.380  13.584   6.164
 5009POPC   GL263830   7.562  13.672   6.164
 5009POPC   C1A63831   7.380  13.634   6.464
 5009POPC   D2A63832   7.393  13.608   6.764
 5009POPC   C3A63833   7.432  13.629   7.064
 5009POPC   C4A63834   7.381  13.654   7.364
 5009POPC   C1B63835   7.663  13.714   6.464
 5009POPC   C2B63836   7.656  13.682   6.764
 5009POPC   C3B63837   7.680  13.684   7.064
 5009POPC   C4B63838   7.614  13.734   7.364
 5010POPC   NC363839  15.218  23.683   5.564
 5010POPC   PO463840  15.167  23.708   5.864
 5010POPC   GL163841  15.229  23.741   6.164
 5010POPC   GL263842  15.181  23.588   6.164
 5010POPC   C1A63843  15.212  23.740   6.464
 5010POPC   D2A63844  15.157  23.699   6.764
 5010POPC   C3A63845  15.193  23.715   7.064
 5010POPC   C4A63846  15.225  23.687   7.364
 5010POPC   C1B63847  15.184  23.486   6.464
 5010POPC   C2B63848  15.179  23.455   6.764
 5010POPC   C3B63849  15.191  23.448   7.064
 5010POPC   C4B63850  15.164  23.490   7.364
 5011POPC   NC363851   9.753   3.543   5.564
 5011POPC   PO463852   9.706   3.501   5.864
 5011POPC   GL163853   9.737   3.505   6.164
 5011POPC   GL263854   9.779   3.451   6.164
 5011POPC   C1A63855   9.711   3.588   6.464
 5011POPC   D2A63856   9.795   3.535   6.764
 5011POPC   C3A63857   9.792   3.540   7.064
 5011POPC   C4A63858   9.774   3.526   7.364
 5011POPC   C1B63859   9.836   3.343   6.464
 5011POPC   C2B63860   9.849   3.317   6.764
 5011POPC   C3B63861   9.836   3.286   7.064
 5011POPC   C4B63862   9.853   3.309   7.364
 5012POPC   NC363863  36.915  21.337   5.564
 5012POPC   PO463864  36.904  21.431   5.864
 5012POPC   GL163865  36.871  21.362   6.164
 5012POPC   GL263866  37.066  21.325   6.164
 5012POPC   C1A63867  36.862  21.403   6.464
 5012POPC   D2A63868  36.865  21.387   6.764
 5012POPC   C3A63869  36.909  21.360   7.064
 5012POPC   C4A63870  36.856  21.342   7.364
 5012POPC   C1B63871  37.155  21.355   6.464
 5012POPC   C2B63872  37.197  21.387   6.764
 5012POPC   C3B63873  37.116  21.366   7.064
 5012POPC   C4B63874  37.150  21.356   7.364
 5013POPC   NC363875  32.996  22.162   5.564
 5013POPC   PO463876  32.991  22.200   5.864
 5013POPC   GL163877  33.052  22.207   6.164
 5013POPC   GL263878  33.120  22.061   6.164
 5013POPC   C1A63879  32.986  22.177   6.464
 5013POPC   D2A63880  32.996  22.192   6.764
 5013POPC   C3A63881  33.065  22.174   7.064
 5013POPC   C4A63882  33.028  22.137   7.364
 5013POPC   C1B63883  33.206  22.047   6.464
 5013POPC   C2B63884  33.242  21.979   6.764
 5013POPC   C3B63885  33.218  22.060   7.064
 5013POPC   C4B63886  33.265  22.030   7.364
 5014POPC   NC363887  10.547   2.034   5.564
 5014POPC   PO463888  10.536   2.017   5.864
 5014POPC   GL163889  10.499   1.972   6.164
 5014POPC   GL263890  10.597   1.860   6.164
 5014POPC   C1A63891  10.538   1.983   6.464
 5014POPC   D2A63892  10.488   1.973   6.764
 5014POPC   C3A63893  10.570   1.959   7.064
 5014POPC   C4A63894  10.528   1.974   7.364
 5014POPC   C1B63895  10.690   1.788   6.464
 5014POPC   C2B63896  10.627   1.787   6.764
 5014POPC   C3B63897  10.645   1.782   7.064
 5014POPC   C4B63898  10.712   1.737   7.364
 5015POPC   NC363899  32.269  15.226   5.564
 5015POPC   PO463900  32.222  15.202   5.864
 5015POPC   GL163901  32.270  15.209   6.164
 5015POPC   GL263902  32.131  15.156   6.164
 5015POPC   C1A63903  32.229  15.147   6.464
 5015POPC   D2A63904  32.244  15.215   6.764
 5015POPC   C3A63905  32.199  15.153   7.064
 5015POPC   C4A63906  32.210  15.177   7.364
 5015POPC   C1B63907  32.005  15.109   6.464
 5015POPC   C2B63908  31.990  15.095   6.764
 5015POPC   C3B63909  31.973  15.108   7.064
 5015POPC   C4B63910  31.979  15.113   7.364
 5016POPC   NC363911  20.565   8.924   5.564
 5016POPC   PO463912  20.623   8.946   5.864
 5016POPC   GL163913  20.610   9.007   6.164
 5016POPC   GL263914  20.699   9.099   6.164
 5016POPC   C1A63915  20.646   8.963   6.464
 5016POPC   D2A63916  20.592   8.955   6.764
 5016POPC   C3A63917  20.596   8.976   7.064
 5016POPC   C4A63918  20.608   8.966   7.364
 5016POPC   C1B63919  20.736   9.149   6.464
 5016POPC   C2B63920  20.738   9.144   6.764
 5016POPC   C3B63921  20.731   9.183   7.064
 5016POPC   C4B63922  20.776   9.139   7.364
 5017POPC   NC363923  37.643  19.027   5.564
 5017POPC   PO463924  37.674  19.042   5.864
 5017POPC   GL163925  37.699  19.041   6.164
 5017POPC   GL263926  37.735  18.938   6.164
 5017POPC   C1A63927  37.672  19.023   6.464
 5017POPC   D2A63928  37.657  19.030   6.764
 5017POPC   C3A63929  37.692  19.065   7.064
 5017POPC   C4A63930  37.709  19.079   7.364
 5017POPC   C1B63931  37.846  18.853   6.464
 5017POPC   C2B63932  37.854  18.898   6.764
 5017POPC   C3B63933  37.874  18.863   7.064
 5017POPC   C4B63934  37.880  18.931   7.364
 5018POPC   NC363935  29.884  19.055   5.564
 5018POPC   PO463936  29.948  19.031   5.864
 5018POPC   GL163937  29.969  19.070   6.164
 5018POPC   GL263938  30.060  19.019   6.164
 5018POPC   C1A63939  29.881  19.066   6.464
 5018POPC   D2A63940  29.964  19.026   6.764
 5018POPC   C3A63941  29.939  19.047   7.064
 5018POPC   C4A63942  29.968  19.085   7.364
 5018POPC   C1B63943  30.111  18.896   6.464
 5018POPC   C2B63944  30.157  18.879   6.764
 5018POPC   C3B63945  30.117  18.877   7.064
 5018POPC   C4B63946  30.072  18.927   7.364
 5019POPC   NC363947  26.847  25.264   5.564
 5019POPC   PO463948  26.803  25.270   5.864
 5019POPC   GL163949  26.859  25.309   6.164
 5019POPC   GL263950  26.655  25.318   6.164
 5019POPC   C1A63951  26.781  25.306   6.464
 5019POPC   D2A63952  26.782  25.289   6.764
 5019POPC   C3A63953  26.801  25.278   7.064
 5019POPC   C4A63954  26.818  25.225   7.364
 5019POPC   C1B63955  26.586  25.345   6.464
 5019POPC   C2B63956  26.604  25.348   6.764
 5019POPC   C3B63957  26.590  25.297   7.064
 5019POPC   C4B63958  26.533  25.294   7.364
 5020POPC   NC363959  40.010  33.775   5.564
 5020POPC   PO463960  40.034  33.802   5.864
 5020POPC   GL163961  40.029  33.848   6.164
 5020POPC   GL263962  39.931  33.695   6.164
 5020POPC   C1A63963  39.992  33.797   6.464
 5020POPC   D2A63964  39.979  33.802   6.764
 5020POPC   C3A63965  40.041  33.764   7.064
 5020POPC   C4A63966  40.030  33.787   7.364
 5020POPC   C1B63967  39.891  33.605   6.464
 5020POPC   C2B63968  39.923  33.585   6.764
 5020POPC   C3B63969  39.904  33.606   7.064
 5020POPC   C4B63970  39.891  33.577   7.364
 5021POPC   NC363971   2.758   8.948   5.564
 5021POPC   PO463972   2.803   8.993   5.864
 5021POPC   GL163973   2.718   8.975   6.164
 5021POPC   GL263974   2.799   9.106   6.164
 5021POPC   C1A63975   2.767   9.019   6.464
 5021POPC   D2A63976   2.751   9.022   6.764
 5021POPC   C3A63977   2.770   8.980   7.064
 5021POPC   C4A63978   2.774   9.010   7.364
 5021POPC   C1B63979   2.730   9.191   6.464
 5021POPC   C2B63980   2.753   9.224   6.764
 5021POPC   C3B63981   2.742   9.226   7.064
 5021POPC   C4B63982   2.711   9.258   7.364
 5022POPC   NC363983  21.435  12.870   5.564
 5022POPC   PO463984  21.357  12.892   5.864
 5022POPC   GL163985  21.423  12.896   6.164
 5022POPC   GL263986  21.481  12.926   6.164
 5022POPC   C1A63987  21.416  12.897   6.464
 5022POPC   D2A63988  21.414  12.820   6.764
 5022POPC   C3A63989  21.355  12.890   7.064
 5022POPC   C4A63990  21.358  12.806   7.364
 5022POPC   C1B63991  21.533  13.107   6.464
 5022POPC   C2B63992  21.479  13.060   6.764
 5022POPC   C3B63993  21.451  13.027   7.064
 5022POPC   C4B63994  21.535  13.121   7.364
 5023POPC   NC363995  40.018   4.305   5.564
 5023POPC   PO463996  40.020   4.366   5.864
 5023POPC   GL163997  40.032   4.330   6.164
 5023POPC   GL263998  40.135   4.203   6.164
 5023POPC   C1A63999  40.021   4.339   6.464
 5023POPC   D2A64000  40.057   4.320   6.764
 5023POPC   C3A64001  40.001   4.293   7.064
 5023POPC   C4A64002  40.044   4.354   7.364
 5023POPC   C1B64003  40.144   4.170   6.464
 5023POPC   C2B64004  40.162   4.096   6.764
 5023POPC   C3B64005  40.139   4.144   7.064
 5023POPC   C4B64006  40.211   4.106   7.364
 5024POPC   NC364007  32.988   5.136   5.564
 5024POPC   PO464008  32.975   5.057   5.864
 5024POPC   GL164009  33.054   5.093   6.164
 5024POPC   GL264010  33.149   5.117   6.164
 5024POPC   C1A64011  33.013   5.137   6.464
 5024POPC   D2A64012  33.022   5.080   6.764
 5024POPC   C3A64013  33.008   5.068   7.064
 5024POPC   C4A64014  33.039   5.115   7.364
 5024POPC   C1B64015  33.251   5.115   6.464
 5024POPC   C2B64016  33.297   5.106   6.764
 5024POPC   C3B64017  33.284   5.164   7.064
 5024POPC   C4B64018  33.278   5.123   7.364
 5025POPC   NC364019  24.460   8.168   5.564
 5025POPC   PO464020  24.524   8.190   5.864
 5025POPC   GL164021  24.471   8.172   6.164
 5025POPC   GL264022  24.451   8.345   6.164
 5025POPC   C1A64023  24.528   8.230   6.464
 5025POPC   D2A64024  24.456   8.226   6.764
 5025POPC   C3A64025  24.458   8.234   7.064
 5025POPC   C4A64026  24.537   8.184   7.364
 5025POPC   C1B64027  24.390   8.434   6.464
 5025POPC   C2B64028  24.400   8.469   6.764
 5025POPC   C3B64029  24.394   8.399   7.064
 5025POPC   C4B64030  24.461   8.434   7.364
 5026POPC   NC364031   7.374  16.712   5.564
 5026POPC   PO464032   7.415  16.696   5.864
 5026POPC   GL164033   7.375  16.711   6.164
 5026POPC   GL264034   7.562  16.753   6.164
 5026POPC   C1A64035   7.410  16.774   6.464
 5026POPC   D2A64036   7.392  16.742   6.764
 5026POPC   C3A64037   7.450  16.757   7.064
 5026POPC   C4A64038   7.394  16.721   7.364
 5026POPC   C1B64039   7.634  16.842   6.464
 5026POPC   C2B64040   7.673  16.823   6.764
 5026POPC   C3B64041   7.660  16.856   7.064
 5026POPC   C4B64042   7.619  16.818   7.364
 5027POPC   NC364043  26.028  27.553   5.564
 5027POPC   PO464044  26.011  27.559   5.864
 5027POPC   GL164045  26.025  27.622   6.164
 5027POPC   GL264046  25.971  27.705   6.164
 5027POPC   C1A64047  26.031  27.569   6.464
 5027POPC   D2A64048  26.016  27.608   6.764
 5027POPC   C3A64049  26.046  27.569   7.064
 5027POPC   C4A64050  26.087  27.566   7.364
 5027POPC   C1B64051  25.825  27.813   6.464
 5027POPC   C2B64052  25.833  27.812   6.764
 5027POPC   C3B64053  25.869  27.806   7.064
 5027POPC   C4B64054  25.873  27.813   7.364
 5028POPC   NC364055  43.119  13.677   5.564
 5028POPC   PO464056  43.129  13.602   5.864
 5028POPC   GL164057  43.150  13.630   6.164
 5028POPC   GL264058  43.209  13.711   6.164
 5028POPC   C1A64059  43.149  13.633   6.464
 5028POPC   D2A64060  43.067  13.590   6.764
 5028POPC   C3A64061  43.063  13.631   7.064
 5028POPC   C4A64062  43.114  13.579   7.364
 5028POPC   C1B64063  43.307  13.857   6.464
 5028POPC   C2B64064  43.262  13.853   6.764
 5028POPC   C3B64065  43.293  13.785   7.064
 5028POPC   C4B64066  43.277  13.869   7.364
 5029POPC   NC364067  13.635  31.489   5.564
 5029POPC   PO464068  13.600  31.437   5.864
 5029POPC   GL164069  13.600  31.453   6.164
 5029POPC   GL264070  13.662  31.301   6.164
 5029POPC   C1A64071  13.652  31.434   6.464
 5029POPC   D2A64072  13.583  31.472   6.764
 5029POPC   C3A64073  13.652  31.492   7.064
 5029POPC   C4A64074  13.610  31.472   7.364
 5029POPC   C1B64075  13.597  31.185   6.464
 5029POPC   C2B64076  13.651  31.253   6.764
 5029POPC   C3B64077  13.607  31.244   7.064
 5029POPC   C4B64078  13.586  31.241   7.364
 5030POPC   NC364079   1.221  26.815   5.564
 5030POPC   PO464080   1.200  26.799   5.864
 5030POPC   GL164081   1.257  26.780   6.164
 5030POPC   GL264082   1.110  26.778   6.164
 5030POPC   C1A64083   1.186  26.850   6.464
 5030POPC   D2A64084   1.189  26.796   6.764
 5030POPC   C3A64085   1.167  26.812   7.064
 5030POPC   C4A64086   1.216  26.849   7.364
 5030POPC   C1B64087   1.017  26.779   6.464
 5030POPC   C2B64088   1.012  26.797   6.764
 5030POPC   C3B64089   1.000  26.787   7.064
 5030POPC   C4B64090   0.949  26.767   7.364
 5031POPC   NC364091  32.221  39.239   5.564
 5031POPC   PO464092  32.199  39.271   5.864
 5031POPC   GL164093  32.238  39.252   6.164
 5031POPC   GL264094  32.276  39.359   6.164
 5031POPC   C1A64095  32.261  39.181   6.464
 5031POPC   D2A64096  32.258  39.211   6.764
 5031POPC   C3A64097  32.288  39.183   7.064
 5031POPC   C4A64098  32.265  39.271   7.364
 5031POPC   C1B64099  32.389  39.469   6.464
 5031POPC   C2B64100  32.376  39.393   6.764
 5031POPC   C3B64101  32.378  39.437   7.064
 5031POPC   C4B64102  32.348  39.420   7.364
 5032POPC   NC364103  35.390   2.003   5.564
 5032POPC   PO464104  35.346   1.961   5.864
 5032POPC   GL164105  35.398   1.991   6.164
 5032POPC   GL264106  35.320   1.900   6.164
 5032POPC   C1A64107  35.333   1.961   6.464
 5032POPC   D2A64108  35.326   2.013   6.764
 5032POPC   C3A64109  35.361   1.982   7.064
 5032POPC   C4A64110  35.371   1.940   7.364
 5032POPC   C1B64111  35.332   1.785   6.464
 5032POPC   C2B64112  35.325   1.738   6.764
 5032POPC   C3B64113  35.294   1.782   7.064
 5032POPC   C4B64114  35.297   1.745   7.364
 5033POPC   NC364115  25.285  18.274   5.564
 5033POPC   PO464116  25.306  18.308   5.864
 5033POPC   GL164117  25.277  18.304   6.164
 5033POPC   GL264118  25.336  18.371   6.164
 5033POPC   C1A64119  25.307  18.249   6.464
 5033POPC   D2A64120  25.270  18.323   6.764
 5033POPC   C3A64121  25.299  18.280   7.064
 5033POPC   C4A64122  25.311  18.262   7.364
 5033POPC   C1B64123  25.472  18.414   6.464
 5033POPC   C2B64124  25.488  18.433   6.764
 5033POPC   C3B64125  25.476  18.443   7.064
 5033POPC   C4B64126  25.520  18.431   7.364
 5034POPC   NC364127  39.264  16.738   5.564
 5034POPC   PO464128  39.262  16.717   5.864
 5034POPC   GL164129  39.243  16.711   6.164
 5034POPC   GL264130  39.347  16.791   6.164
 5034POPC   C1A64131  39.243  16.715   6.464
 5034POPC   D2A64132  39.211  16.705   6.764
 5034POPC   C3A64133  39.259  16.693   7.064
 5034POPC   C4A64134  39.250  16.738   7.364
 5034POPC   C1B64135  39.503  16.799   6.464
 5034POPC   C2B64136  39.521  16.816   6.764
 5034POPC   C3B64137  39.472  16.779   7.064
 5034POPC   C4B64138  39.456  16.747   7.364
 5035POPC   NC364139   8.994  34.549   5.564
 5035POPC   PO464140   8.930  34.610   5.864
 5035POPC   GL164141   8.987  34.590   6.164
 5035POPC   GL264142   8.980  34.430   6.164
 5035POPC   C1A64143   8.942  34.556   6.464
 5035POPC   D2A64144   8.933  34.585   6.764
 5035POPC   C3A64145   8.950  34.602   7.064
 5035POPC   C4A64146   8.945  34.538   7.364
 5035POPC   C1B64147   9.006  34.316   6.464
 5035POPC   C2B64148   9.012  34.283   6.764
 5035POPC   C3B64149   8.977  34.318   7.064
 5035POPC   C4B64150   9.042  34.312   7.364
 5036POPC   NC364151   9.738   0.408   5.564
 5036POPC   PO464152   9.772   0.426   5.864
 5036POPC   GL164153   9.712   0.446   6.164
 5036POPC   GL264154   9.706   0.307   6.164
 5036POPC   C1A64155   9.702   0.391   6.464
 5036POPC   D2A64156   9.714   0.464   6.764
 5036POPC   C3A64157   9.758   0.456   7.064
 5036POPC   C4A64158   9.775   0.394   7.364
 5036POPC   C1B64159   9.699   0.153   6.464
 5036POPC   C2B64160   9.732   0.222   6.764
 5036POPC   C3B64161   9.723   0.162   7.064
 5036POPC   C4B64162   9.720   0.219   7.364
 5037POPC   NC364163   2.032  31.498   5.564
 5037POPC   PO464164   1.982  31.442   5.864
 5037POPC   GL164165   2.026  31.423   6.164
 5037POPC   GL264166   2.012  31.633   6.164
 5037POPC   C1A64167   2.021  31.508   6.464
 5037POPC   D2A64168   2.015  31.461   6.764
 5037POPC   C3A64169   2.018  31.423   7.064
 5037POPC   C4A64170   2.031  31.445   7.364
 5037POPC   C1B64171   2.031  31.733   6.464
 5037POPC   C2B64172   1.987  31.691   6.764
 5037POPC   C3B64173   1.956  31.752   7.064
 5037POPC   C4B64174   1.999  31.746   7.364
 5038POPC   NC364175  16.749  36.152   5.564
 5038POPC   PO464176  16.704  36.157   5.864
 5038POPC   GL164177  16.685  36.102   6.164
 5038POPC   GL264178  16.759  36.206   6.164
 5038POPC   C1A64179  16.772  36.079   6.464
 5038POPC   D2A64180  16.723  36.162   6.764
 5038POPC   C3A64181  16.710  36.144   7.064
 5038POPC   C4A64182  16.742  36.110   7.364
 5038POPC   C1B64183  16.709  36.393   6.464
 5038POPC   C2B64184  16.778  36.359   6.764
 5038POPC   C3B64185  16.730  36.400   7.064
 5038POPC   C4B64186  16.740  36.419   7.364
 5039POPC   NC364187  35.371  26.783   5.564
 5039POPC   PO464188  35.342  26.830   5.864
 5039POPC   GL164189  35.303  26.861   6.164
 5039POPC   GL264190  35.333  26.659   6.164
 5039POPC   C1A64191  35.310  26.856   6.464
 5039POPC   D2A64192  35.384  26.860   6.764
 5039POPC   C3A64193  35.385  26.824   7.064
 5039POPC   C4A64194  35.333  26.796   7.364
 5039POPC   C1B64195  35.291  26.532   6.464
 5039POPC   C2B64196  35.319  26.594   6.764
 5039POPC   C3B64197  35.230  26.589   7.064
 5039POPC   C4B64198  35.287  26.631   7.364
 5040POPC   NC364199   8.937  10.560   5.564
 5040POPC   PO464200   9.004  10.573   5.864
 5040POPC   GL164201   8.988  10.565   6.164
 5040POPC   GL264202   8.924  10.659   6.164
 5040POPC   C1A64203   9.020  10.529   6.464
 5040POPC   D2A64204   8.970  10.558   6.764
 5040POPC   C3A64205   8.978  10.495   7.064
 5040POPC   C4A64206   8.936  10.480   7.364
 5040POPC   C1B64207   8.875  10.806   6.464
 5040POPC   C2B64208   8.898  10.762   6.764
 5040POPC   C3B64209   8.899  10.765   7.064
 5040POPC   C4B64210   8.870  10.769   7.364
 5041POPC   NC364211   2.809  40.807   5.564
 5041POPC   PO464212   2.769  40.765   5.864
 5041POPC   GL164213   2.759  40.753   6.164
 5041POPC   GL264214   2.655  40.787   6.164
 5041POPC   C1A64215   2.775  40.763   6.464
 5041POPC   D2A64216   2.755  40.832   6.764
 5041POPC   C3A64217   2.735  40.786   7.064
 5041POPC   C4A64218   2.765  40.829   7.364
 5041POPC   C1B64219   2.570  40.913   6.464
 5041POPC   C2B64220   2.484  40.854   6.764
 5041POPC   C3B64221   2.553  40.854   7.064
 5041POPC   C4B64222   2.485  40.897   7.364
 5042POPC   NC364223  22.958   5.863   5.564
 5042POPC   PO464224  22.971   5.830   5.864
 5042POPC   GL164225  22.899   5.844   6.164
 5042POPC   GL264226  22.871   5.938   6.164
 5042POPC   C1A64227  22.936   5.889   6.464
 5042POPC   D2A64228  22.898   5.914   6.764
 5042POPC   C3A64229  22.911   5.882   7.064
 5042POPC   C4A64230  22.896   5.888   7.364
 5042POPC   C1B64231  22.668   5.958   6.464
 5042POPC   C2B64232  22.717   5.966   6.764
 5042POPC   C3B64233  22.732   5.939   7.064
 5042POPC   C4B64234  22.678   5.946   7.364
 5043POPC   NC364235  18.242  34.547   5.564
 5043POPC   PO464236  18.329  34.531   5.864
 5043POPC   GL164237  18.286  34.607   6.164
 5043POPC   GL264238  18.342  34.697   6.164
 5043POPC   C1A64239  18.254  34.619   6.464
 5043POPC   D2A64240  18.311  34.604   6.764
 5043POPC   C3A64241  18.290  34.546   7.064
 5043POPC   C4A64242  18.301  34.592   7.364
 5043POPC   C1B64243  18.487  34.698   6.464
 5043POPC   C2B64244  18.473  34.694   6.764
 5043POPC   C3B64245  18.495  34.768   7.064
 5043POPC   C4B64246  18.499  34.693   7.364
 5044POPC   NC364247  21.393  34.572   5.564
 5044POPC   PO464248  21.433  34.592   5.864
 5044POPC   GL164249  21.404  34.535   6.164
 5044POPC   GL264250  21.435  34.665   6.164
 5044POPC   C1A64251  21.389  34.590   6.464
 5044POPC   D2A64252  21.354  34.621   6.764
 5044POPC   C3A64253  21.425  34.568   7.064
 5044POPC   C4A64254  21.395  34.582   7.364
 5044POPC   C1B64255  21.547  34.823   6.464
 5044POPC   C2B64256  21.491  34.767   6.764
 5044POPC   C3B64257  21.506  34.785   7.064
 5044POPC   C4B64258  21.477  34.817   7.364
 5045POPC   NC364259  15.959   8.984   5.564
 5045POPC   PO464260  15.970   8.978   5.864
 5045POPC   GL164261  15.990   8.929   6.164
 5045POPC   GL264262  16.029   8.992   6.164
 5045POPC   C1A64263  15.973   8.994   6.464
 5045POPC   D2A64264  15.975   8.970   6.764
 5045POPC   C3A64265  15.969   9.021   7.064
 5045POPC   C4A64266  15.971   8.928   7.364
 5045POPC   C1B64267  16.211   8.892   6.464
 5045POPC   C2B64268  16.247   8.928   6.764
 5045POPC   C3B64269  16.227   8.912   7.064
 5045POPC   C4B64270  16.153   8.895   7.364
 5046POPC   NC364271  16.717  35.342   5.564
 5046POPC   PO464272  16.773  35.306   5.864
 5046POPC   GL164273  16.737  35.355   6.164
 5046POPC   GL264274  16.773  35.478   6.164
 5046POPC   C1A64275  16.694  35.317   6.464
 5046POPC   D2A64276  16.701  35.395   6.764
 5046POPC   C3A64277  16.776  35.391   7.064
 5046POPC   C4A64278  16.713  35.347   7.364
 5046POPC   C1B64279  16.762  35.614   6.464
 5046POPC   C2B64280  16.712  35.610   6.764
 5046POPC   C3B64281  16.730  35.594   7.064
 5046POPC   C4B64282  16.714  35.594   7.364
 5047POPC   NC364283  26.088   5.829   5.564
 5047POPC   PO464284  26.004   5.884   5.864
 5047POPC   GL164285  26.031   5.906   6.164
 5047POPC   GL264286  25.946   5.959   6.164
 5047POPC   C1A64287  26.052   5.905   6.464
 5047POPC   D2A64288  26.089   5.894   6.764
 5047POPC   C3A64289  26.040   5.903   7.064
 5047POPC   C4A64290  26.081   5.832   7.364
 5047POPC   C1B64291  25.824   5.923   6.464
 5047POPC   C2B64292  25.843   5.946   6.764
 5047POPC   C3B64293  25.785   5.947   7.064
 5047POPC   C4B64294  25.800   5.973   7.364
 5048POPC   NC364295  25.232  29.174   5.564
 5048POPC   PO464296  25.221  29.174   5.864
 5048POPC   GL164297  25.282  29.168   6.164
 5048POPC   GL264298  25.202  29.071   6.164
 5048POPC   C1A64299  25.230  29.109   6.464
 5048POPC   D2A64300  25.287  29.133   6.764
 5048POPC   C3A64301  25.251  29.184   7.064
 5048POPC   C4A64302  25.290  29.161   7.364
 5048POPC   C1B64303  25.232  28.881   6.464
 5048POPC   C2B64304  25.251  28.879   6.764
 5048POPC   C3B64305  25.185  28.855   7.064
 5048POPC   C4B64306  25.264  28.863   7.364
 5049POPC   NC364307   3.579   2.786   5.564
 5049POPC   PO464308   3.534   2.735   5.864
 5049POPC   GL164309   3.586   2.806   6.164
 5049POPC   GL264310   3.450   2.724   6.164
 5049POPC   C1A64311   3.571   2.753   6.464
 5049POPC   D2A64312   3.530   2.794   6.764
 5049POPC   C3A64313   3.559   2.722   7.064
 5049POPC   C4A64314   3.567   2.759   7.364
 5049POPC   C1B64315   3.338   2.626   6.464
 5049POPC   C2B64316   3.299   2.634   6.764
 5049POPC   C3B64317   3.318   2.583   7.064
 5049POPC   C4B64318   3.377   2.561   7.364
 5050POPC   NC364319  30.672  11.345   5.564
 5050POPC   PO464320  30.669  11.336   5.864
 5050POPC   GL164321  30.651  11.313   6.164
 5050POPC   GL264322  30.593  11.403   6.164
 5050POPC   C1A64323  30.653  11.288   6.464
 5050POPC   D2A64324  30.743  11.310   6.764
 5050POPC   C3A64325  30.682  11.252   7.064
 5050POPC   C4A64326  30.672  11.348   7.364
 5050POPC   C1B64327  30.484  11.523   6.464
 5050POPC   C2B64328  30.554  11.504   6.764
 5050POPC   C3B64329  30.556  11.524   7.064
 5050POPC   C4B64330  30.494  11.510   7.364
 5051POPC   NC364331  20.593   4.294   5.564
 5051POPC   PO464332  20.609   4.332   5.864
 5051POPC   GL164333  20.608   4.363   6.164
 5051POPC   GL264334  20.516   4.451   6.164
 5051POPC   C1A64335  20.614   4.290   6.464
 5051POPC   D2A64336  20.623   4.335   6.764
 5051POPC   C3A64337  20.574   4.267   7.064
 5051POPC   C4A64338  20.582   4.363   7.364
 5051POPC   C1B64339  20.475   4.538   6.464
 5051POPC   C2B64340  20.523   4.568   6.764
 5051POPC   C3B64341  20.478   4.504   7.064
 5051POPC   C4B64342  20.444   4.508   7.364
 5052POPC   NC364343  26.820  26.021   5.564
 5052POPC   PO464344  26.795  25.999   5.864
 5052POPC   GL164345  26.838  26.020   6.164
 5052POPC   GL264346  26.742  25.892   6.164
 5052POPC   C1A64347  26.793  26.055   6.464
 5052POPC   D2A64348  26.770  26.051   6.764
 5052POPC   C3A64349  26.863  26.021   7.064
 5052POPC   C4A64350  26.820  26.064   7.364
 5052POPC   C1B64351  26.716  25.791   6.464
 5052POPC   C2B64352  26.738  25.815   6.764
 5052POPC   C3B64353  26.670  25.792   7.064
 5052POPC   C4B64354  26.720  25.782   7.364
 5053POPC   NC364355  14.429   3.537   5.564
 5053POPC   PO464356  14.421   3.501   5.864
 5053POPC   GL164357  14.439   3.565   6.164
 5053POPC   GL264358  14.422   3.377   6.164
 5053POPC   C1A64359  14.398   3.557   6.464
 5053POPC   D2A64360  14.444   3.555   6.764
 5053POPC   C3A64361  14.363   3.498   7.064
 5053POPC   C4A64362  14.385   3.544   7.364
 5053POPC   C1B64363  14.366   3.317   6.464
 5053POPC   C2B64364  14.350   3.296   6.764
 5053POPC   C3B64365  14.421   3.315   7.064
 5053POPC   C4B64366  14.369   3.322   7.364
 5054POPC   NC364367  29.943   0.436   5.564
 5054POPC   PO464368  29.917   0.409   5.864
 5054POPC   GL164369  29.914   0.402   6.164
 5054POPC   GL264370  30.039   0.391   6.164
 5054POPC   C1A64371  29.946   0.423   6.464
 5054POPC   D2A64372  29.872   0.444   6.764
 5054POPC   C3A64373  29.948   0.453   7.064
 5054POPC   C4A64374  29.937   0.410   7.364
 5054POPC   C1B64375  30.128   0.390   6.464
 5054POPC   C2B64376  30.170   0.401   6.764
 5054POPC   C3B64377  30.131   0.434   7.064
 5054POPC   C4B64378  30.152   0.439   7.364
 5055POPC   NC364379  12.853  13.672   5.564
 5055POPC   PO464380  12.856  13.600   5.864
 5055POPC   GL164381  12.858  13.640   6.164
 5055POPC   GL264382  12.783  13.738   6.164
 5055POPC   C1A64383  12.802  13.674   6.464
 5055POPC   D2A64384  12.885  13.630   6.764
 5055POPC   C3A64385  12.889  13.642   7.064
 5055POPC   C4A64386  12.829  13.617   7.364
 5055POPC   C1B64387  12.665  13.840   6.464
 5055POPC   C2B64388  12.701  13.801   6.764
 5055POPC   C3B64389  12.631  13.836   7.064
 5055POPC   C4B64390  12.693  13.838   7.364
 5056POPC   NC364391  12.873  22.947   5.564
 5056POPC   PO464392  12.866  22.966   5.864
 5056POPC   GL164393  12.887  22.979   6.164
 5056POPC   GL264394  12.975  22.817   6.164
 5056POPC   C1A64395  12.850  22.945   6.464
 5056POPC   D2A64396  12.893  22.968   6.764
 5056POPC   C3A64397  12.877  22.900   7.064
 5056POPC   C4A64398  12.902  22.917   7.364
 5056POPC   C1B64399  13.003  22.755   6.464
 5056POPC   C2B64400  13.042  22.783   6.764
 5056POPC   C3B64401  13.069  22.707   7.064
 5056POPC   C4B64402  13.010  22.783   7.364
 5057POPC   NC364403  43.139  43.061   5.564
 5057POPC   PO464404  43.138  43.114   5.864
 5057POPC   GL164405  43.149  43.086   6.164
 5057POPC   GL264406  43.260  43.137   6.164
 5057POPC   C1A64407  43.084  43.117   6.464
 5057POPC   D2A64408  43.148  43.115   6.764
 5057POPC   C3A64409  43.123  43.117   7.064
 5057POPC   C4A64410  43.069  43.133   7.364
 5057POPC   C1B64411  43.303  43.216   6.464
 5057POPC   C2B64412  43.342  43.231   6.764
 5057POPC   C3B64413  43.335  43.208   7.064
 5057POPC   C4B64414  43.329  43.250   7.364
 5058POPC   NC364415  26.839  12.101   5.564
 5058POPC   PO464416  26.837  12.116   5.864
 5058POPC   GL164417  26.807  12.123   6.164
 5058POPC   GL264418  26.882  12.232   6.164
 5058POPC   C1A64419  26.832  12.042   6.464
 5058POPC   D2A64420  26.862  12.112   6.764
 5058POPC   C3A64421  26.785  12.038   7.064
 5058POPC   C4A64422  26.862  12.085   7.364
 5058POPC   C1B64423  26.915  12.266   6.464
 5058POPC   C2B64424  26.896  12.338   6.764
 5058POPC   C3B64425  26.916  12.294   7.064
 5058POPC   C4B64426  26.970  12.251   7.364
 5059POPC   NC364427  31.458   0.418   5.564
 5059POPC   PO464428  31.458   0.487   5.864
 5059POPC   GL164429  31.505   0.453   6.164
 5059POPC   GL264430  31.323   0.473   6.164
 5059POPC   C1A64431  31.440   0.451   6.464
 5059POPC   D2A64432  31.480   0.439   6.764
 5059POPC   C3A64433  31.423   0.408   7.064
 5059POPC   C4A64434  31.497   0.487   7.364
 5059POPC   C1B64435  31.249   0.460   6.464
 5059POPC   C2B64436  31.262   0.419   6.764
 5059POPC   C3B64437  31.249   0.453   7.064
 5059POPC   C4B64438  31.246   0.482   7.364
 5060POPC   NC364439  20.568  12.074   5.564
 5060POPC   PO464440  20.612  12.122   5.864
 5060POPC   GL164441  20.655  12.099   6.164
 5060POPC   GL264442  20.590  12.238   6.164
 5060POPC   C1A64443  20.578  12.030   6.464
 5060POPC   D2A64444  20.609  12.094   6.764
 5060POPC   C3A64445  20.583  12.095   7.064
 5060POPC   C4A64446  20.601  12.124   7.364
 5060POPC   C1B64447  20.656  12.373   6.464
 5060POPC   C2B64448  20.633  12.366   6.764
 5060POPC   C3B64449  20.649  12.303   7.064
 5060POPC   C4B64450  20.667  12.341   7.364
 5061POPC   NC364451  40.025  21.403   5.564
 5061POPC   PO464452  39.983  21.396   5.864
 5061POPC   GL164453  40.019  21.430   6.164
 5061POPC   GL264454  39.937  21.274   6.164
 5061POPC   C1A64455  39.962  21.397   6.464
 5061POPC   D2A64456  39.975  21.361   6.764
 5061POPC   C3A64457  40.045  21.340   7.064
 5061POPC   C4A64458  39.957  21.342   7.364
 5061POPC   C1B64459  39.843  21.195   6.464
 5061POPC   C2B64460  39.853  21.211   6.764
 5061POPC   C3B64461  39.909  21.159   7.064
 5061POPC   C4B64462  39.857  21.131   7.364
 5062POPC   NC364463  33.825  30.664   5.564
 5062POPC   PO464464  33.777  30.696   5.864
 5062POPC   GL164465  33.789  30.738   6.164
 5062POPC   GL264466  33.678  30.749   6.164
 5062POPC   C1A64467  33.778  30.714   6.464
 5062POPC   D2A64468  33.793  30.746   6.764
 5062POPC   C3A64469  33.835  30.726   7.064
 5062POPC   C4A64470  33.838  30.692   7.364
 5062POPC   C1B64471  33.554  30.750   6.464
 5062POPC   C2B64472  33.526  30.667   6.764
 5062POPC   C3B64473  33.593  30.662   7.064
 5062POPC   C4B64474  33.522  30.759   7.364
 5063POPC   NC364475  42.325  29.940   5.564
 5063POPC   PO464476  42.290  29.922   5.864
 5063POPC   GL164477  42.325  29.957   6.164
 5063POPC   GL264478  42.204  29.865   6.164
 5063POPC   C1A64479  42.336  29.935   6.464
 5063POPC   D2A64480  42.345  29.963   6.764
 5063POPC   C3A64481  42.380  29.909   7.064
 5063POPC   C4A64482  42.336  29.902   7.364
 5063POPC   C1B64483  42.062  29.819   6.464
 5063POPC   C2B64484  42.063  29.828   6.764
 5063POPC   C3B64485  42.070  29.841   7.064
 5063POPC   C4B64486  42.112  29.830   7.364
 5064POPC   NC364487  43.143   9.005   5.564
 5064POPC   PO464488  43.156   9.012   5.864
 5064POPC   GL164489  43.080   9.008   6.164
 5064POPC   GL264490  43.028   8.989   6.164
 5064POPC   C1A64491  43.070   8.967   6.464
 5064POPC   D2A64492  43.149   8.947   6.764
 5064POPC   C3A64493  43.105   9.006   7.064
 5064POPC   C4A64494  43.108   9.008   7.364
 5064POPC   C1B64495  42.845   8.869   6.464
 5064POPC   C2B64496  42.916   8.905   6.764
 5064POPC   C3B64497  42.867   8.869   7.064
 5064POPC   C4B64498  42.860   8.959   7.364
 5065POPC   NC364499  19.015  16.742   5.564
 5065POPC   PO464500  19.075  16.682   5.864
 5065POPC   GL164501  19.040  16.751   6.164
 5065POPC   GL264502  18.979  16.725   6.164
 5065POPC   C1A64503  19.036  16.751   6.464
 5065POPC   D2A64504  19.107  16.701   6.764
 5065POPC   C3A64505  19.010  16.763   7.064
 5065POPC   C4A64506  19.097  16.689   7.364
 5065POPC   C1B64507  18.821  16.848   6.464
 5065POPC   C2B64508  18.858  16.839   6.764
 5065POPC   C3B64509  18.849  16.814   7.064
 5065POPC   C4B64510  18.844  16.763   7.364
 5066POPC   NC364511   7.440   6.645   5.564
 5066POPC   PO464512   7.384   6.663   5.864
 5066POPC   GL164513   7.380   6.606   6.164
 5066POPC   GL264514   7.559   6.692   6.164
 5066POPC   C1A64515   7.387   6.667   6.464
 5066POPC   D2A64516   7.429   6.648   6.764
 5066POPC   C3A64517   7.464   6.692   7.064
 5066POPC   C4A64518   7.438   6.631   7.364
 5066POPC   C1B64519   7.647   6.712   6.464
 5066POPC   C2B64520   7.667   6.737   6.764
 5066POPC   C3B64521   7.677   6.717   7.064
 5066POPC   C4B64522   7.643   6.690   7.364
 5067POPC   NC364523  33.069  12.026   5.564
 5067POPC   PO464524  33.046  12.078   5.864
 5067POPC   GL164525  33.066  12.073   6.164
 5067POPC   GL264526  33.192  12.027   6.164
 5067POPC   C1A64527  33.049  12.114   6.464
 5067POPC   D2A64528  33.008  12.052   6.764
 5067POPC   C3A64529  33.026  12.075   7.064
 5067POPC   C4A64530  33.014  12.079   7.364
 5067POPC   C1B64531  33.285  11.989   6.464
 5067POPC   C2B64532  33.237  12.044   6.764
 5067POPC   C3B64533  33.279  11.968   7.064
 5067POPC   C4B64534  33.213  12.042   7.364
 5068POPC   NC364535  30.655  37.704   5.564
 5068POPC   PO464536  30.715  37.713   5.864
 5068POPC   GL164537  30.696  37.710   6.164
 5068POPC   GL264538  30.750  37.818   6.164
 5068POPC   C1A64539  30.698  37.677   6.464
 5068POPC   D2A64540  30.713  37.726   6.764
 5068POPC   C3A64541  30.672  37.656   7.064
 5068POPC   C4A64542  30.716  37.670   7.364
 5068POPC   C1B64543  30.794  37.864   6.464
 5068POPC   C2B64544  30.841  37.898   6.764
 5068POPC   C3B64545  30.865  37.903   7.064
 5068POPC   C4B64546  30.881  37.884   7.364
 5069POPC   NC364547  34.539  29.173   5.564
 5069POPC   PO464548  34.573  29.157   5.864
 5069POPC   GL164549  34.572  29.173   6.164
 5069POPC   GL264550  34.714  29.100   6.164
 5069POPC   C1A64551  34.578  29.097   6.464
 5069POPC   D2A64552  34.599  29.113   6.764
 5069POPC   C3A64553  34.567  29.128   7.064
 5069POPC   C4A64554  34.538  29.106   7.364
 5069POPC   C1B64555  34.803  29.076   6.464
 5069POPC   C2B64556  34.823  29.050   6.764
 5069POPC   C3B64557  34.784  29.074   7.064
 5069POPC   C4B64558  34.851  29.005   7.364
 5070POPC   NC364559  36.876  22.152   5.564
 5070POPC   PO464560  36.858  22.160   5.864
 5070POPC   GL164561  36.906  22.132   6.164
 5070POPC   GL264562  36.921  22.049   6.164
 5070POPC   C1A64563  36.943  22.212   6.464
 5070POPC   D2A64564  36.900  22.174   6.764
 5070POPC   C3A64565  36.907  22.166   7.064
 5070POPC   C4A64566  36.927  22.155   7.364
 5070POPC   C1B64567  36.883  21.909   6.464
 5070POPC   C2B64568  36.818  21.950   6.764
 5070POPC   C3B64569  36.912  21.964   7.064
 5070POPC   C4B64570  36.830  21.918   7.364
 5071POPC   NC364571  39.967   1.999   5.564
 5071POPC   PO464572  40.015   2.027   5.864
 5071POPC   GL164573  39.961   1.940   6.164
 5071POPC   GL264574  40.159   2.034   6.164
 5071POPC   C1A64575  39.997   1.953   6.464
 5071POPC   D2A64576  39.989   1.999   6.764
 5071POPC   C3A64577  40.052   2.008   7.064
 5071POPC   C4A64578  40.008   1.999   7.364
 5071POPC   C1B64579  40.289   1.984   6.464
 5071POPC   C2B64580  40.244   1.982   6.764
 5071POPC   C3B64581  40.234   1.982   7.064
 5071POPC   C4B64582  40.269   1.967   7.364
 5072POPC   NC364583  34.586  15.174   5.564
 5072POPC   PO464584  34.536  15.155   5.864
 5072POPC   GL164585  34.586  15.157   6.164
 5072POPC   GL264586  34.512  15.096   6.164
 5072POPC   C1A64587  34.593  15.141   6.464
 5072POPC   D2A64588  34.554  15.171   6.764
 5072POPC   C3A64589  34.544  15.135   7.064
 5072POPC   C4A64590  34.543  15.202   7.364
 5072POPC   C1B64591  34.387  15.044   6.464
 5072POPC   C2B64592  34.398  14.983   6.764
 5072POPC   C3B64593  34.419  15.038   7.064
 5072POPC   C4B64594  34.393  15.018   7.364
 5073POPC   NC364595   5.894  29.916   5.564
 5073POPC   PO464596   5.879  29.910   5.864
 5073POPC   GL164597   5.884  29.893   6.164
 5073POPC   GL264598   6.000  29.907   6.164
 5073POPC   C1A64599   5.877  29.907   6.464
 5073POPC   D2A64600   5.889  29.951   6.764
 5073POPC   C3A64601   5.872  29.878   7.064
 5073POPC   C4A64602   5.852  29.965   7.364
 5073POPC   C1B64603   6.127  29.944   6.464
 5073POPC   C2B64604   6.122  29.888   6.764
 5073POPC   C3B64605   6.141  29.891   7.064
 5073POPC   C4B64606   6.112  29.865   7.364
 5074POPC   NC364607   5.124  23.694   5.564
 5074POPC   PO464608   5.066  23.701   5.864
 5074POPC   GL164609   5.050  23.680   6.164
 5074POPC   GL264610   5.011  23.805   6.164
 5074POPC   C1A64611   5.114  23.700   6.464
 5074POPC   D2A64612   5.053  23.671   6.764
 5074POPC   C3A64613   5.136  23.708   7.064
 5074POPC   C4A64614   5.132  23.709   7.364
 5074POPC   C1B64615   4.901  23.923   6.464
 5074POPC   C2B64616   4.967  23.928   6.764
 5074POPC   C3B64617   4.932  23.954   7.064
 5074POPC   C4B64618   4.924  23.873   7.364
 5075POPC   NC364619  43.140  19.028   5.564
 5075POPC   PO464620  43.160  19.028   5.864
 5075POPC   GL164621  43.080  19.025   6.164
 5075POPC   GL264622  43.011  18.982   6.164
 5075POPC   C1A64623  43.120  19.028   6.464
 5075POPC   D2A64624  43.116  19.012   6.764
 5075POPC   C3A64625  43.122  19.067   7.064
 5075POPC   C4A64626  43.067  19.022   7.364
 5075POPC   C1B64627  42.871  18.954   6.464
 5075POPC   C2B64628  42.853  18.932   6.764
 5075POPC   C3B64629  42.907  19.005   7.064
 5075POPC   C4B64630  42.831  18.987   7.364
 5076POPC   NC364631  20.608  33.050   5.564
 5076POPC   PO464632  20.654  32.982   5.864
 5076POPC   GL164633  20.589  33.071   6.164
 5076POPC   GL264634  20.537  32.958   6.164
 5076POPC   C1A64635  20.608  33.070   6.464
 5076POPC   D2A64636  20.591  32.993   6.764
 5076POPC   C3A64637  20.627  33.002   7.064
 5076POPC   C4A64638  20.617  32.998   7.364
 5076POPC   C1B64639  20.411  32.885   6.464
 5076POPC   C2B64640  20.419  32.880   6.764
 5076POPC   C3B64641  20.397  32.929   7.064
 5076POPC   C4B64642  20.418  32.961   7.364
 5077POPC   NC364643  23.676   8.985   5.564
 5077POPC   PO464644  23.726   8.984   5.864
 5077POPC   GL164645  23.729   9.005   6.164
 5077POPC   GL264646  23.879   8.912   6.164
 5077POPC   C1A64647  23.667   8.941   6.464
 5077POPC   D2A64648  23.741   8.959   6.764
 5077POPC   C3A64649  23.696   8.975   7.064
 5077POPC   C4A64650  23.744   8.964   7.364
 5077POPC   C1B64651  23.989   8.964   6.464
 5077POPC   C2B64652  24.002   8.957   6.764
 5077POPC   C3B64653  23.931   8.952   7.064
 5077POPC   C4B64654  24.011   8.947   7.364
 5078POPC   NC364655  11.311  13.668   5.564
 5078POPC   PO464656  11.344  13.663   5.864
 5078POPC   GL164657  11.263  13.620   6.164
 5078POPC   GL264658  11.281  13.534   6.164
 5078POPC   C1A64659  11.290  13.643   6.464
 5078POPC   D2A64660  11.296  13.616   6.764
 5078POPC   C3A64661  11.294  13.603   7.064
 5078POPC   C4A64662  11.286  13.658   7.364
 5078POPC   C1B64663  11.270  13.388   6.464
 5078POPC   C2B64664  11.254  13.403   6.764
 5078POPC   C3B64665  11.250  13.405   7.064
 5078POPC   C4B64666  11.324  13.329   7.364
 5079POPC   NC364667  28.337  25.266   5.564
 5079POPC   PO464668  28.350  25.238   5.864
 5079POPC   GL164669  28.413  25.268   6.164
 5079POPC   GL264670  28.281  25.266   6.164
 5079POPC   C1A64671  28.414  25.304   6.464
 5079POPC   D2A64672  28.381  25.220   6.764
 5079POPC   C3A64673  28.332  25.287   7.064
 5079POPC   C4A64674  28.361  25.256   7.364
 5079POPC   C1B64675  28.107  25.328   6.464
 5079POPC   C2B64676  28.102  25.302   6.764
 5079POPC   C3B64677  28.102  25.269   7.064
 5079POPC   C4B64678  28.109  25.279   7.364
 5080POPC   NC364679   5.133  33.819   5.564
 5080POPC   PO464680   5.127  33.752   5.864
 5080POPC   GL164681   5.113  33.796   6.164
 5080POPC   GL264682   5.044  33.871   6.164
 5080POPC   C1A64683   5.061  33.826   6.464
 5080POPC   D2A64684   5.116  33.806   6.764
 5080POPC   C3A64685   5.090  33.788   7.064
 5080POPC   C4A64686   5.106  33.788   7.364
 5080POPC   C1B64687   4.935  33.941   6.464
 5080POPC   C2B64688   4.890  34.007   6.764
 5080POPC   C3B64689   4.943  33.940   7.064
 5080POPC   C4B64690   4.870  33.983   7.364
 5081POPC   NC364691  22.939  23.678   5.564
 5081POPC   PO464692  22.958  23.735   5.864
 5081POPC   GL164693  22.966  23.741   6.164
 5081POPC   GL264694  23.007  23.570   6.164
 5081POPC   C1A64695  22.976  23.720   6.464
 5081POPC   D2A64696  22.943  23.752   6.764
 5081POPC   C3A64697  22.972  23.746   7.064
 5081POPC   C4A64698  22.889  23.666   7.364
 5081POPC   C1B64699  23.038  23.457   6.464
 5081POPC   C2B64700  23.014  23.502   6.764
 5081POPC   C3B64701  23.007  23.422   7.064
 5081POPC   C4B64702  22.995  23.495   7.364
 5082POPC   NC364703  22.186  39.959   5.564
 5082POPC   PO464704  22.177  40.036   5.864
 5082POPC   GL164705  22.205  39.990   6.164
 5082POPC   GL264706  22.239  40.121   6.164
 5082POPC   C1A64707  22.186  39.969   6.464
 5082POPC   D2A64708  22.193  40.053   6.764
 5082POPC   C3A64709  22.119  40.054   7.064
 5082POPC   C4A64710  22.137  39.980   7.364
 5082POPC   C1B64711  22.362  40.194   6.464
 5082POPC   C2B64712  22.334  40.170   6.764
 5082POPC   C3B64713  22.370  40.208   7.064
 5082POPC   C4B64714  22.391  40.138   7.364
 5083POPC   NC364715  22.130  41.584   5.564
 5083POPC   PO464716  22.169  41.569   5.864
 5083POPC   GL164717  22.161  41.596   6.164
 5083POPC   GL264718  22.026  41.518   6.164
 5083POPC   C1A64719  22.196  41.535   6.464
 5083POPC   D2A64720  22.198  41.533   6.764
 5083POPC   C3A64721  22.153  41.518   7.064
 5083POPC   C4A64722  22.130  41.597   7.364
 5083POPC   C1B64723  21.959  41.371   6.464
 5083POPC   C2B64724  21.978  41.410   6.764
 5083POPC   C3B64725  22.015  41.372   7.064
 5083POPC   C4B64726  22.020  41.373   7.364
 5084POPC   NC364727  29.886   6.659   5.564
 5084POPC   PO464728  29.927   6.664   5.864
 5084POPC   GL164729  29.891   6.686   6.164
 5084POPC   GL264730  29.854   6.681   6.164
 5084POPC   C1A64731  29.904   6.676   6.464
 5084POPC   D2A64732  29.965   6.644   6.764
 5084POPC   C3A64733  29.900   6.688   7.064
 5084POPC   C4A64734  29.871   6.598   7.364
 5084POPC   C1B64735  29.771   6.800   6.464
 5084POPC   C2B64736  29.736   6.829   6.764
 5084POPC   C3B64737  29.724   6.839   7.064
 5084POPC   C4B64738  29.694   6.828   7.364
 5085POPC   NC364739  40.803  32.295   5.564
 5085POPC   PO464740  40.752  32.298   5.864
 5085POPC   GL164741  40.758  32.235   6.164
 5085POPC   GL264742  40.948  32.242   6.164
 5085POPC   C1A64743  40.778  32.206   6.464
 5085POPC   D2A64744  40.764  32.212   6.764
 5085POPC   C3A64745  40.797  32.211   7.064
 5085POPC   C4A64746  40.777  32.271   7.364
 5085POPC   C1B64747  41.044  32.297   6.464
 5085POPC   C2B64748  41.013  32.291   6.764
 5085POPC   C3B64749  41.024  32.306   7.064
 5085POPC   C4B64750  41.039  32.315   7.364
 5086POPC   NC364751  36.858  40.808   5.564
 5086POPC   PO464752  36.929  40.820   5.864
 5086POPC   GL164753  36.861  40.786   6.164
 5086POPC   GL264754  37.001  40.650   6.164
 5086POPC   C1A64755  36.930  40.795   6.464
 5086POPC   D2A64756  36.931  40.742   6.764
 5086POPC   C3A64757  36.953  40.797   7.064
 5086POPC   C4A64758  36.933  40.828   7.364
 5086POPC   C1B64759  37.086  40.571   6.464
 5086POPC   C2B64760  37.082  40.591   6.764
 5086POPC   C3B64761  37.084  40.539   7.064
 5086POPC   C4B64762  37.067  40.605   7.364
 5087POPC   NC364763  40.744  15.981   5.564
 5087POPC   PO464764  40.735  15.940   5.864
 5087POPC   GL164765  40.810  15.970   6.164
 5087POPC   GL264766  40.883  15.911   6.164
 5087POPC   C1A64767  40.811  15.922   6.464
 5087POPC   D2A64768  40.810  15.917   6.764
 5087POPC   C3A64769  40.745  15.986   7.064
 5087POPC   C4A64770  40.799  15.969   7.364
 5087POPC   C1B64771  41.017  15.922   6.464
 5087POPC   C2B64772  41.023  15.949   6.764
 5087POPC   C3B64773  41.071  15.983   7.064
 5087POPC   C4B64774  40.999  15.919   7.364
 5088POPC   NC364775  37.693  29.152   5.564
 5088POPC   PO464776  37.687  29.175   5.864
 5088POPC   GL164777  37.632  29.101   6.164
 5088POPC   GL264778  37.724  29.275   6.164
 5088POPC   C1A64779  37.704  29.158   6.464
 5088POPC   D2A64780  37.705  29.185   6.764
 5088POPC   C3A64781  37.714  29.166   7.064
 5088POPC   C4A64782  37.670  29.107   7.364
 5088POPC   C1B64783  37.899  29.372   6.464
 5088POPC   C2B64784  37.815  29.368   6.764
 5088POPC   C3B64785  37.863  29.281   7.064
 5088POPC   C4B64786  37.842  29.292   7.364
 5089POPC   NC364787  19.105  41.558   5.564
 5089POPC   PO464788  19.105  41.582   5.864
 5089POPC   GL164789  19.103  41.555   6.164
 5089POPC   GL264790  18.926  41.686   6.164
 5089POPC   C1A64791  19.064  41.598   6.464
 5089POPC   D2A64792  19.055  41.578   6.764
 5089POPC   C3A64793  19.063  41.557   7.064
 5089POPC   C4A64794  19.087  41.512   7.364
 5089POPC   C1B64795  18.846  41.772   6.464
 5089POPC   C2B64796  18.858  41.754   6.764
 5089POPC   C3B64797  18.877  41.706   7.064
 5089POPC   C4B64798  18.879  41.774   7.364
 5090POPC   NC364799  30.712  41.606   5.564
 5090POPC   PO464800  30.675  41.528   5.864
 5090POPC   GL164801  30.664  41.523   6.164
 5090POPC   GL264802  30.645  41.657   6.164
 5090POPC   C1A64803  30.696  41.590   6.464
 5090POPC   D2A64804  30.724  41.605   6.764
 5090POPC   C3A64805  30.740  41.572   7.064
 5090POPC   C4A64806  30.707  41.575   7.364
 5090POPC   C1B64807  30.628  41.823   6.464
 5090POPC   C2B64808  30.663  41.778   6.764
 5090POPC   C3B64809  30.590  41.809   7.064
 5090POPC   C4B64810  30.622  41.766   7.364
 5091POPC   NC364811  40.753  15.148   5.564
 5091POPC   PO464812  40.799  15.222   5.864
 5091POPC   GL164813  40.784  15.133   6.164
 5091POPC   GL264814  40.785  15.299   6.164
 5091POPC   C1A64815  40.763  15.223   6.464
 5091POPC   D2A64816  40.812  15.214   6.764
 5091POPC   C3A64817  40.793  15.169   7.064
 5091POPC   C4A64818  40.777  15.222   7.364
 5091POPC   C1B64819  40.800  15.463   6.464
 5091POPC   C2B64820  40.785  15.428   6.764
 5091POPC   C3B64821  40.797  15.383   7.064
 5091POPC   C4B64822  40.822  15.443   7.364
 5092POPC   NC364823  27.625  36.860   5.564
 5092POPC   PO464824  27.592  36.939   5.864
 5092POPC   GL164825  27.576  36.855   6.164
 5092POPC   GL264826  27.660  37.063   6.164
 5092POPC   C1A64827  27.637  36.905   6.464
 5092POPC   D2A64828  27.580  36.928   6.764
 5092POPC   C3A64829  27.549  36.861   7.064
 5092POPC   C4A64830  27.584  36.874   7.364
 5092POPC   C1B64831  27.661  37.102   6.464
 5092POPC   C2B64832  27.750  37.107   6.764
 5092POPC   C3B64833  27.675  37.113   7.064
 5092POPC   C4B64834  27.661  37.150   7.364
 5093POPC   NC364835  15.153   9.776   5.564
 5093POPC   PO464836  15.187   9.722   5.864
 5093POPC   GL164837  15.187   9.761   6.164
 5093POPC   GL264838  15.118   9.623   6.164
 5093POPC   C1A64839  15.164   9.722   6.464
 5093POPC   D2A64840  15.217   9.782   6.764
 5093POPC   C3A64841  15.176   9.698   7.064
 5093POPC   C4A64842  15.222   9.707   7.364
 5093POPC   C1B64843  15.059   9.524   6.464
 5093POPC   C2B64844  15.046   9.559   6.764
 5093POPC   C3B64845  15.026   9.495   7.064
 5093POPC   C4B64846  15.024   9.554   7.364
 5094POPC   NC364847  11.296  30.668   5.564
 5094POPC   PO464848  11.319  30.729   5.864
 5094POPC   GL164849  11.339  30.740   6.164
 5094POPC   GL264850  11.304  30.569   6.164
 5094POPC   C1A64851  11.271  30.746   6.464
 5094POPC   D2A64852  11.251  30.707   6.764
 5094POPC   C3A64853  11.317  30.746   7.064
 5094POPC   C4A64854  11.270  30.664   7.364
 5094POPC   C1B64855  11.335  30.476   6.464
 5094POPC   C2B64856  11.259  30.421   6.764
 5094POPC   C3B64857  11.285  30.406   7.064
 5094POPC   C4B64858  11.261  30.447   7.364
 5095POPC   NC364859   3.511  44.615   5.564
 5095POPC   PO464860   3.547  44.613   5.864
 5095POPC   GL164861   3.552  44.675   6.164
 5095POPC   GL264862   3.689  44.616   6.164
 5095POPC   C1A64863   3.557  44.690   6.464
 5095POPC   D2A64864   3.492  44.685   6.764
 5095POPC   C3A64865   3.555  44.683   7.064
 5095POPC   C4A64866   3.546  44.618   7.364
 5095POPC   C1B64867   3.734  44.568   6.464
 5095POPC   C2B64868   3.743  44.574   6.764
 5095POPC   C3B64869   3.764  44.485   7.064
 5095POPC   C4B64870   3.764  44.480   7.364
 5096POPC   NC364871   1.234   1.982   5.564
 5096POPC   PO464872   1.209   2.013   5.864
 5096POPC   GL164873   1.176   1.942   6.164
 5096POPC   GL264874   1.340   1.906   6.164
 5096POPC   C1A64875   1.240   1.940   6.464
 5096POPC   D2A64876   1.259   1.978   6.764
 5096POPC   C3A64877   1.236   1.975   7.064
 5096POPC   C4A64878   1.165   2.005   7.364
 5096POPC   C1B64879   1.469   1.864   6.464
 5096POPC   C2B64880   1.382   1.852   6.764
 5096POPC   C3B64881   1.370   1.811   7.064
 5096POPC   C4B64882   1.409   1.889   7.364
 5097POPC   NC364883  29.176   1.230   5.564
 5097POPC   PO464884  29.150   1.168   5.864
 5097POPC   GL164885  29.156   1.209   6.164
 5097POPC   GL264886  29.182   1.313   6.164
 5097POPC   C1A64887  29.174   1.231   6.464
 5097POPC   D2A64888  29.188   1.188   6.764
 5097POPC   C3A64889  29.138   1.166   7.064
 5097POPC   C4A64890  29.106   1.189   7.364
 5097POPC   C1B64891  29.297   1.433   6.464
 5097POPC   C2B64892  29.323   1.392   6.764
 5097POPC   C3B64893  29.309   1.371   7.064
 5097POPC   C4B64894  29.350   1.428   7.364
 5098POPC   NC364895   9.775  28.398   5.564
 5098POPC   PO464896   9.712  28.398   5.864
 5098POPC   GL164897   9.716  28.360   6.164
 5098POPC   GL264898   9.604  28.276   6.164
 5098POPC   C1A64899   9.789  28.348   6.464
 5098POPC   D2A64900   9.712  28.418   6.764
 5098POPC   C3A64901   9.774  28.390   7.064
 5098POPC   C4A64902   9.701  28.350   7.364
 5098POPC   C1B64903   9.514  28.161   6.464
 5098POPC   C2B64904   9.607  28.228   6.764
 5098POPC   C3B64905   9.577  28.168   7.064
 5098POPC   C4B64906   9.592  28.249   7.364
 5099POPC   NC364907  10.499  42.301   5.564
 5099POPC   PO464908  10.518  42.349   5.864
 5099POPC   GL164909  10.508  42.318   6.164
 5099POPC   GL264910  10.535  42.222   6.164
 5099POPC   C1A64911  10.557  42.359   6.464
 5099POPC   D2A64912  10.525  42.313   6.764
 5099POPC   C3A64913  10.534  42.287   7.064
 5099POPC   C4A64914  10.483  42.370   7.364
 5099POPC   C1B64915  10.445  42.063   6.464
 5099POPC   C2B64916  10.500  42.116   6.764
 5099POPC   C3B64917  10.442  42.087   7.064
 5099POPC   C4B64918  10.432  42.139   7.364
 5100POPC   NC364919  39.274  30.714   5.564
 5100POPC   PO464920  39.267  30.662   5.864
 5100POPC   GL164921  39.258  30.708   6.164
 5100POPC   GL264922  39.377  30.672   6.164
 5100POPC   C1A64923  39.229  30.675   6.464
 5100POPC   D2A64924  39.261  30.707   6.764
 5100POPC   C3A64925  39.258  30.718   7.064
 5100POPC   C4A64926  39.215  30.706   7.364
 5100POPC   C1B64927  39.447  30.618   6.464
 5100POPC   C2B64928  39.417  30.640   6.764
 5100POPC   C3B64929  39.479  30.615   7.064
 5100POPC   C4B64930  39.464  30.579   7.364
 5101POPC   NC364931   2.014  22.150   5.564
 5101POPC   PO464932   1.954  22.198   5.864
 5101POPC   GL164933   1.966  22.123   6.164
 5101POPC   GL264934   2.118  22.148   6.164
 5101POPC   C1A64935   2.023  22.114   6.464
 5101POPC   D2A64936   1.969  22.115   6.764
 5101POPC   C3A64937   2.024  22.136   7.064
 5101POPC   C4A64938   2.035  22.141   7.364
 5101POPC   C1B64939   2.170  21.993   6.464
 5101POPC   C2B64940   2.213  22.070   6.764
 5101POPC   C3B64941   2.176  22.079   7.064
 5101POPC   C4B64942   2.231  22.052   7.364
 5102POPC   NC364943  40.769  21.340   5.564
 5102POPC   PO464944  40.799  21.400   5.864
 5102POPC   GL164945  40.795  21.431   6.164
 5102POPC   GL264946  40.905  21.453   6.164
 5102POPC   C1A64947  40.774  21.340   6.464
 5102POPC   D2A64948  40.786  21.345   6.764
 5102POPC   C3A64949  40.791  21.345   7.064
 5102POPC   C4A64950  40.733  21.434   7.364
 5102POPC   C1B64951  41.058  21.462   6.464
 5102POPC   C2B64952  40.998  21.433   6.764
 5102POPC   C3B64953  41.061  21.432   7.064
 5102POPC   C4B64954  41.068  21.423   7.364
 5103POPC   NC364955  15.222  10.507   5.564
 5103POPC   PO464956  15.206  10.550   5.864
 5103POPC   GL164957  15.140  10.560   6.164
 5103POPC   GL264958  15.150  10.647   6.164
 5103POPC   C1A64959  15.189  10.493   6.464
 5103POPC   D2A64960  15.137  10.499   6.764
 5103POPC   C3A64961  15.215  10.554   7.064
 5103POPC   C4A64962  15.221  10.553   7.364
 5103POPC   C1B64963  15.065  10.767   6.464
 5103POPC   C2B64964  15.092  10.728   6.764
 5103POPC   C3B64965  15.079  10.707   7.064
 5103POPC   C4B64966  15.025  10.766   7.364
 5104POPC   NC364967  15.975  22.978   5.564
 5104POPC   PO464968  15.929  22.903   5.864
 5104POPC   GL164969  15.989  22.896   6.164
 5104POPC   GL264970  16.026  22.953   6.164
 5104POPC   C1A64971  15.950  22.897   6.464
 5104POPC   D2A64972  15.941  22.964   6.764
 5104POPC   C3A64973  15.942  22.976   7.064
 5104POPC   C4A64974  15.951  22.890   7.364
 5104POPC   C1B64975  16.164  23.002   6.464
 5104POPC   C2B64976  16.185  23.080   6.764
 5104POPC   C3B64977  16.157  23.035   7.064
 5104POPC   C4B64978  16.185  23.076   7.364
 5105POPC   NC364979  36.080  41.527   5.564
 5105POPC   PO464980  36.103  41.545   5.864
 5105POPC   GL164981  36.104  41.514   6.164
 5105POPC   GL264982  36.034  41.547   6.164
 5105POPC   C1A64983  36.091  41.596   6.464
 5105POPC   D2A64984  36.148  41.590   6.764
 5105POPC   C3A64985  36.096  41.582   7.064
 5105POPC   C4A64986  36.161  41.596   7.364
 5105POPC   C1B64987  35.898  41.440   6.464
 5105POPC   C2B64988  35.901  41.451   6.764
 5105POPC   C3B64989  35.924  41.430   7.064
 5105POPC   C4B64990  35.872  41.482   7.364
 5106POPC   NC364991  12.875  26.054   5.564
 5106POPC   PO464992  12.896  26.032   5.864
 5106POPC   GL164993  12.813  26.011   6.164
 5106POPC   GL264994  12.809  25.936   6.164
 5106POPC   C1A64995  12.817  26.003   6.464
 5106POPC   D2A64996  12.847  26.081   6.764
 5106POPC   C3A64997  12.830  26.015   7.064
 5106POPC   C4A64998  12.883  26.036   7.364
 5106POPC   C1B64999  12.859  25.796   6.464
 5106POPC   C2B65000  12.883  25.793   6.764
 5106POPC   C3B65001  12.835  25.812   7.064
 5106POPC   C4B65002  12.851  25.770   7.364
 5107POPC   NC365003  26.821  38.410   5.564
 5107POPC   PO465004  26.788  38.488   5.864
 5107POPC   GL165005  26.846  38.500   6.164
 5107POPC   GL265006  26.856  38.316   6.164
 5107POPC   C1A65007  26.800  38.494   6.464
 5107POPC   D2A65008  26.816  38.422   6.764
 5107POPC   C3A65009  26.795  38.411   7.064
 5107POPC   C4A65010  26.822  38.406   7.364
 5107POPC   C1B65011  27.015  38.265   6.464
 5107POPC   C2B65012  26.998  38.281   6.764
 5107POPC   C3B65013  27.004  38.289   7.064
 5107POPC   C4B65014  27.019  38.259   7.364
 5108POPC   NC365015  42.304  42.382   5.564
 5108POPC   PO465016  42.331  42.316   5.864
 5108POPC   GL165017  42.297  42.285   6.164
 5108POPC   GL265018  42.495  42.414   6.164
 5108POPC   C1A65019  42.373  42.363   6.464
 5108POPC   D2A65020  42.329  42.312   6.764
 5108POPC   C3A65021  42.299  42.313   7.064
 5108POPC   C4A65022  42.308  42.373   7.364
 5108POPC   C1B65023  42.601  42.434   6.464
 5108POPC   C2B65024  42.534  42.468   6.764
 5108POPC   C3B65025  42.606  42.456   7.064
 5108POPC   C4B65026  42.541  42.467   7.364
 5109POPC   NC365027  16.749  36.929   5.564
 5109POPC   PO465028  16.739  36.929   5.864
 5109POPC   GL165029  16.747  36.920   6.164
 5109POPC   GL265030  16.899  36.892   6.164
 5109POPC   C1A65031  16.752  36.854   6.464
 5109POPC   D2A65032  16.684  36.862   6.764
 5109POPC   C3A65033  16.751  36.921   7.064
 5109POPC   C4A65034  16.743  36.922   7.364
 5109POPC   C1B65035  16.947  36.881   6.464
 5109POPC   C2B65036  17.001  36.824   6.764
 5109POPC   C3B65037  16.924  36.882   7.064
 5109POPC   C4B65038  16.997  36.847   7.364
 5110POPC   NC365039  12.031  21.348   5.564
 5110POPC   PO465040  12.031  21.401   5.864
 5110POPC   GL165041  12.077  21.381   6.164
 5110POPC   GL265042  12.124  21.444   6.164
 5110POPC   C1A65043  12.027  21.415   6.464
 5110POPC   D2A65044  12.071  21.392   6.764
 5110POPC   C3A65045  12.052  21.358   7.064
 5110POPC   C4A65046  12.061  21.373   7.364
 5110POPC   C1B65047  12.200  21.537   6.464
 5110POPC   C2B65048  12.255  21.566   6.764
 5110POPC   C3B65049  12.204  21.595   7.064
 5110POPC   C4B65050  12.266  21.605   7.364
 5111POPC   NC365051   0.482  26.811   5.564
 5111POPC   PO465052   0.456  26.774   5.864
 5111POPC   GL165053   0.410  26.781   6.164
 5111POPC   GL265054   0.543  26.725   6.164
 5111POPC   C1A65055   0.389  26.854   6.464
 5111POPC   D2A65056   0.415  26.768   6.764
 5111POPC   C3A65057   0.482  26.782   7.064
 5111POPC   C4A65058   0.443  26.824   7.364
 5111POPC   C1B65059   0.686  26.707   6.464
 5111POPC   C2B65060   0.643  26.722   6.764
 5111POPC   C3B65061   0.635  26.676   7.064
 5111POPC   C4B65062   0.695  26.744   7.364
 5112POPC   NC365063  12.863  40.019   5.564
 5112POPC   PO465064  12.828  40.036   5.864
 5112POPC   GL165065  12.830  40.035   6.164
 5112POPC   GL265066  12.730  40.041   6.164
 5112POPC   C1A65067  12.900  40.055   6.464
 5112POPC   D2A65068  12.868  40.049   6.764
 5112POPC   C3A65069  12.868  40.021   7.064
 5112POPC   C4A65070  12.867  39.992   7.364
 5112POPC   C1B65071  12.597  40.034   6.464
 5112POPC   C2B65072  12.587  40.053   6.764
 5112POPC   C3B65073  12.577  40.027   7.064
 5112POPC   C4B65074  12.559  40.074   7.364
 5113POPC   NC365075  29.905   5.918   5.564
 5113POPC   PO465076  29.968   5.856   5.864
 5113POPC   GL165077  29.960   5.912   6.164
 5113POPC   GL265078  29.982   5.748   6.164
 5113POPC   C1A65079  29.894   5.856   6.464
 5113POPC   D2A65080  29.911   5.887   6.764
 5113POPC   C3A65081  29.920   5.878   7.064
 5113POPC   C4A65082  29.878   5.856   7.364
 5113POPC   C1B65083  30.149   5.679   6.464
 5113POPC   C2B65084  30.074   5.657   6.764
 5113POPC   C3B65085  30.142   5.685   7.064
 5113POPC   C4B65086  30.097   5.736   7.364
 5114POPC   NC365087   0.454  22.123   5.564
 5114POPC   PO465088   0.408  22.187   5.864
 5114POPC   GL165089   0.418  22.200   6.164
 5114POPC   GL265090   0.300  22.048   6.164
 5114POPC   C1A65091   0.478  22.191   6.464
 5114POPC   D2A65092   0.481  22.141   6.764
 5114POPC   C3A65093   0.440  22.126   7.064
 5114POPC   C4A65094   0.467  22.128   7.364
 5114POPC   C1B65095   0.251  22.060   6.464
 5114POPC   C2B65096   0.195  22.046   6.764
 5114POPC   C3B65097   0.248  22.019   7.064
 5114POPC   C4B65098   0.268  22.030   7.364
 5115POPC   NC365099  10.498  24.515   5.564
 5115POPC   PO465100  10.485  24.517   5.864
 5115POPC   GL165101  10.529  24.447   6.164
 5115POPC   GL265102  10.409  24.437   6.164
 5115POPC   C1A65103  10.519  24.531   6.464
 5115POPC   D2A65104  10.540  24.448   6.764
 5115POPC   C3A65105  10.555  24.471   7.064
 5115POPC   C4A65106  10.511  24.516   7.364
 5115POPC   C1B65107  10.357  24.395   6.464
 5115POPC   C2B65108  10.326  24.398   6.764
 5115POPC   C3B65109  10.279  24.360   7.064
 5115POPC   C4B65110  10.280  24.391   7.364
 5116POPC   NC365111  25.310  32.245   5.564
 5116POPC   PO465112  25.304  32.261   5.864
 5116POPC   GL165113  25.311  32.268   6.164
 5116POPC   GL265114  25.178  32.332   6.164
 5116POPC   C1A65115  25.283  32.206   6.464
 5116POPC   D2A65116  25.258  32.281   6.764
 5116POPC   C3A65117  25.230  32.295   7.064
 5116POPC   C4A65118  25.311  32.206   7.364
 5116POPC   C1B65119  25.046  32.415   6.464
 5116POPC   C2B65120  25.121  32.463   6.764
 5116POPC   C3B65121  25.047  32.466   7.064
 5116POPC   C4B65122  25.063  32.472   7.364
 5117POPC   NC365123   9.782  22.912   5.564
 5117POPC   PO465124   9.794  22.964   5.864
 5117POPC   GL165125   9.759  22.967   6.164
 5117POPC   GL265126   9.615  23.003   6.164
 5117POPC   C1A65127   9.784  22.973   6.464
 5117POPC   D2A65128   9.714  22.930   6.764
 5117POPC   C3A65129   9.796  22.953   7.064
 5117POPC   C4A65130   9.797  22.898   7.364
 5117POPC   C1B65131   9.524  23.163   6.464
 5117POPC   C2B65132   9.575  23.141   6.764
 5117POPC   C3B65133   9.597  23.126   7.064
 5117POPC   C4B65134   9.564  23.114   7.364
 5118POPC   NC365135  11.344  19.839   5.564
 5118POPC   PO465136  11.252  19.810   5.864
 5118POPC   GL165137  11.326  19.853   6.164
 5118POPC   GL265138  11.422  19.780   6.164
 5118POPC   C1A65139  11.349  19.848   6.464
 5118POPC   D2A65140  11.350  19.844   6.764
 5118POPC   C3A65141  11.298  19.849   7.064
 5118POPC   C4A65142  11.267  19.857   7.364
 5118POPC   C1B65143  11.582  19.728   6.464
 5118POPC   C2B65144  11.512  19.741   6.764
 5118POPC   C3B65145  11.528  19.742   7.064
 5118POPC   C4B65146  11.571  19.778   7.364
 5119POPC   NC365147   6.614   1.207   5.564
 5119POPC   PO465148   6.611   1.246   5.864
 5119POPC   GL165149   6.616   1.182   6.164
 5119POPC   GL265150   6.771   1.282   6.164
 5119POPC   C1A65151   6.676   1.202   6.464
 5119POPC   D2A65152   6.614   1.231   6.764
 5119POPC   C3A65153   6.602   1.214   7.064
 5119POPC   C4A65154   6.638   1.239   7.364
 5119POPC   C1B65155   6.892   1.245   6.464
 5119POPC   C2B65156   6.920   1.307   6.764
 5119POPC   C3B65157   6.878   1.311   7.064
 5119POPC   C4B65158   6.857   1.265   7.364
 5120POPC   NC365159  10.520   4.358   5.564
 5120POPC   PO465160  10.515   4.283   5.864
 5120POPC   GL165161  10.550   4.270   6.164
 5120POPC   GL265162  10.461   4.230   6.164
 5120POPC   C1A65163  10.535   4.296   6.464
 5120POPC   D2A65164  10.535   4.306   6.764
 5120POPC   C3A65165  10.554   4.340   7.064
 5120POPC   C4A65166  10.515   4.354   7.364
 5120POPC   C1B65167  10.384   4.103   6.464
 5120POPC   C2B65168  10.443   4.071   6.764
 5120POPC   C3B65169  10.428   4.140   7.064
 5120POPC   C4B65170  10.365   4.139   7.364
 5121POPC   NC365171  14.419  23.718   5.564
 5121POPC   PO465172  14.421  23.727   5.864
 5121POPC   GL165173  14.382  23.730   6.164
 5121POPC   GL265174  14.294  23.692   6.164
 5121POPC   C1A65175  14.361  23.672   6.464
 5121POPC   D2A65176  14.380  23.719   6.764
 5121POPC   C3A65177  14.440  23.695   7.064
 5121POPC   C4A65178  14.441  23.743   7.364
 5121POPC   C1B65179  14.193  23.737   6.464
 5121POPC   C2B65180  14.132  23.759   6.764
 5121POPC   C3B65181  14.141  23.720   7.064
 5121POPC   C4B65182  14.181  23.701   7.364
 5122POPC   NC365183  15.964  13.583   5.564
 5122POPC   PO465184  15.960  13.644   5.864
 5122POPC   GL165185  15.975  13.587   6.164
 5122POPC   GL265186  15.897  13.772   6.164
 5122POPC   C1A65187  15.951  13.632   6.464
 5122POPC   D2A65188  15.977  13.637   6.764
 5122POPC   C3A65189  15.991  13.595   7.064
 5122POPC   C4A65190  15.905  13.612   7.364
 5122POPC   C1B65191  15.860  13.847   6.464
 5122POPC   C2B65192  15.859  13.812   6.764
 5122POPC   C3B65193  15.823  13.883   7.064
 5122POPC   C4B65194  15.838  13.835   7.364
 5123POPC   NC365195  19.877  41.519   5.564
 5123POPC   PO465196  19.791  41.606   5.864
 5123POPC   GL165197  19.816  41.581   6.164
 5123POPC   GL265198  19.744  41.456   6.164
 5123POPC   C1A65199  19.840  41.522   6.464
 5123POPC   D2A65200  19.795  41.532   6.764
 5123POPC   C3A65201  19.830  41.514   7.064
 5123POPC   C4A65202  19.827  41.539   7.364
 5123POPC   C1B65203  19.705  41.366   6.464
 5123POPC   C2B65204  19.687  41.355   6.764
 5123POPC   C3B65205  19.701  41.289   7.064
 5123POPC   C4B65206  19.696  41.286   7.364
 5124POPC   NC365207  19.048   1.226   5.564
 5124POPC   PO465208  19.101   1.250   5.864
 5124POPC   GL165209  19.107   1.242   6.164
 5124POPC   GL265210  18.985   1.212   6.164
 5124POPC   C1A65211  19.022   1.167   6.464
 5124POPC   D2A65212  19.063   1.229   6.764
 5124POPC   C3A65213  19.046   1.224   7.064
 5124POPC   C4A65214  19.014   1.230   7.364
 5124POPC   C1B65215  18.840   1.100   6.464
 5124POPC   C2B65216  18.787   1.131   6.764
 5124POPC   C3B65217  18.853   1.139   7.064
 5124POPC   C4B65218  18.825   1.176   7.364
 5125POPC   NC365219  27.581  36.112   5.564
 5125POPC   PO465220  27.568  36.099   5.864
 5125POPC   GL165221  27.620  36.120   6.164
 5125POPC   GL265222  27.630  36.243   6.164
 5125POPC   C1A65223  27.545  36.114   6.464
 5125POPC   D2A65224  27.629  36.094   6.764
 5125POPC   C3A65225  27.572  36.151   7.064
 5125POPC   C4A65226  27.639  36.106   7.364
 5125POPC   C1B65227  27.586  36.378   6.464
 5125POPC   C2B65228  27.580  36.329   6.764
 5125POPC   C3B65229  27.598  36.382   7.064
 5125POPC   C4B65230  27.657  36.341   7.364
 5126POPC   NC365231  35.384  10.564   5.564
 5126POPC   PO465232  35.398  10.474   5.864
 5126POPC   GL165233  35.353  10.516   6.164
 5126POPC   GL265234  35.435  10.645   6.164
 5126POPC   C1A65235  35.357  10.476   6.464
 5126POPC   D2A65236  35.352  10.536   6.764
 5126POPC   C3A65237  35.328  10.475   7.064
 5126POPC   C4A65238  35.366  10.573   7.364
 5126POPC   C1B65239  35.431  10.784   6.464
 5126POPC   C2B65240  35.519  10.700   6.764
 5126POPC   C3B65241  35.488  10.753   7.064
 5126POPC   C4B65242  35.461  10.771   7.364
 5127POPC   NC365243  22.954  36.928   5.564
 5127POPC   PO465244  22.936  36.897   5.864
 5127POPC   GL165245  22.897  36.942   6.164
 5127POPC   GL265246  22.787  36.845   6.164
 5127POPC   C1A65247  22.965  36.856   6.464
 5127POPC   D2A65248  22.940  36.887   6.764
 5127POPC   C3A65249  22.896  36.880   7.064
 5127POPC   C4A65250  22.950  36.858   7.364
 5127POPC   C1B65251  22.671  36.863   6.464
 5127POPC   C2B65252  22.736  36.839   6.764
 5127POPC   C3B65253  22.722  36.782   7.064
 5127POPC   C4B65254  22.681  36.798   7.364
 5128POPC   NC365255  31.479  33.058   5.564
 5128POPC   PO465256  31.500  32.996   5.864
 5128POPC   GL165257  31.505  33.049   6.164
 5128POPC   GL265258  31.399  32.962   6.164
 5128POPC   C1A65259  31.473  32.976   6.464
 5128POPC   D2A65260  31.440  33.055   6.764
 5128POPC   C3A65261  31.485  33.037   7.064
 5128POPC   C4A65262  31.487  33.021   7.364
 5128POPC   C1B65263  31.232  32.947   6.464
 5128POPC   C2B65264  31.285  32.922   6.764
 5128POPC   C3B65265  31.212  32.937   7.064
 5128POPC   C4B65266  31.253  32.947   7.364
 5129POPC   NC365267   2.747  33.809   5.564
 5129POPC   PO465268   2.790  33.839   5.864
 5129POPC   GL165269   2.752  33.799   6.164
 5129POPC   GL265270   2.754  33.718   6.164
 5129POPC   C1A65271   2.731  33.802   6.464
 5129POPC   D2A65272   2.788  33.756   6.764
 5129POPC   C3A65273   2.741  33.829   7.064
 5129POPC   C4A65274   2.766  33.782   7.364
 5129POPC   C1B65275   2.837  33.570   6.464
 5129POPC   C2B65276   2.827  33.513   6.764
 5129POPC   C3B65277   2.776  33.532   7.064
 5129POPC   C4B65278   2.804  33.601   7.364
 5130POPC   NC365279  15.160  43.106   5.564
 5130POPC   PO465280  15.176  43.129   5.864
 5130POPC   GL165281  15.164  43.128   6.164
 5130POPC   GL265282  15.323  43.042   6.164
 5130POPC   C1A65283  15.227  43.090   6.464
 5130POPC   D2A65284  15.137  43.144   6.764
 5130POPC   C3A65285  15.151  43.115   7.064
 5130POPC   C4A65286  15.184  43.144   7.364
 5130POPC   C1B65287  15.375  43.002   6.464
 5130POPC   C2B65288  15.437  42.986   6.764
 5130POPC   C3B65289  15.377  43.025   7.064
 5130POPC   C4B65290  15.440  42.999   7.364
 5131POPC   NC365291  11.327   1.950   5.564
 5131POPC   PO465292  11.268   2.034   5.864
 5131POPC   GL165293  11.344   1.977   6.164
 5131POPC   GL265294  11.398   1.918   6.164
 5131POPC   C1A65295  11.264   1.949   6.464
 5131POPC   D2A65296  11.335   2.000   6.764
 5131POPC   C3A65297  11.261   2.012   7.064
 5131POPC   C4A65298  11.259   1.964   7.364
 5131POPC   C1B65299  11.501   1.839   6.464
 5131POPC   C2B65300  11.479   1.824   6.764
 5131POPC   C3B65301  11.419   1.836   7.064
 5131POPC   C4B65302  11.444   1.808   7.364
 5132POPC   NC365303   0.456  15.966   5.564
 5132POPC   PO465304   0.479  15.941   5.864
 5132POPC   GL165305   0.421  15.962   6.164
 5132POPC   GL265306   0.483  16.100   6.164
 5132POPC   C1A65307   0.482  15.966   6.464
 5132POPC   D2A65308   0.471  15.974   6.764
 5132POPC   C3A65309   0.464  15.927   7.064
 5132POPC   C4A65310   0.471  15.912   7.364
 5132POPC   C1B65311   0.500  16.214   6.464
 5132POPC   C2B65312   0.487  16.157   6.764
 5132POPC   C3B65313   0.533  16.231   7.064
 5132POPC   C4B65314   0.522  16.189   7.364
 5133POPC   NC365315  43.131  14.356   5.564
 5133POPC   PO465316  43.160  14.422   5.864
 5133POPC   GL165317  43.093  14.377   6.164
 5133POPC   GL265318  43.209  14.395   6.164
 5133POPC   C1A65319  43.079  14.419   6.464
 5133POPC   D2A65320  43.105  14.410   6.764
 5133POPC   C3A65321  43.079  14.387   7.064
 5133POPC   C4A65322  43.116  14.390   7.364
 5133POPC   C1B65323  43.348  14.500   6.464
 5133POPC   C2B65324  43.392  14.440   6.764
 5133POPC   C3B65325  43.347  14.448   7.064
 5133POPC   C4B65326  43.389  14.498   7.364
 5134POPC   NC365327   0.450   4.322   5.564
 5134POPC   PO465328   0.422   4.342   5.864
 5134POPC   GL165329   0.449   4.327   6.164
 5134POPC   GL265330   0.386   4.402   6.164
 5134POPC   C1A65331   0.410   4.308   6.464
 5134POPC   D2A65332   0.458   4.343   6.764
 5134POPC   C3A65333   0.427   4.268   7.064
 5134POPC   C4A65334   0.421   4.351   7.364
 5134POPC   C1B65335   0.339   4.581   6.464
 5134POPC   C2B65336   0.336   4.514   6.764
 5134POPC   C3B65337   0.326   4.570   7.064
 5134POPC   C4B65338   0.332   4.515   7.364
 5135POPC   NC365339  41.544  40.825   5.564
 5135POPC   PO465340  41.575  40.814   5.864
 5135POPC   GL165341  41.545  40.792   6.164
 5135POPC   GL265342  41.609  40.711   6.164
 5135POPC   C1A65343  41.594  40.777   6.464
 5135POPC   D2A65344  41.527  40.807   6.764
 5135POPC   C3A65345  41.530  40.754   7.064
 5135POPC   C4A65346  41.514  40.779   7.364
 5135POPC   C1B65347  41.596  40.556   6.464
 5135POPC   C2B65348  41.605  40.559   6.764
 5135POPC   C3B65349  41.597  40.521   7.064
 5135POPC   C4B65350  41.662  40.514   7.364
 5136POPC   NC365351  39.203  34.602   5.564
 5136POPC   PO465352  39.221  34.610   5.864
 5136POPC   GL165353  39.236  34.624   6.164
 5136POPC   GL265354  39.083  34.658   6.164
 5136POPC   C1A65355  39.261  34.554   6.464
 5136POPC   D2A65356  39.278  34.560   6.764
 5136POPC   C3A65357  39.204  34.540   7.064
 5136POPC   C4A65358  39.271  34.569   7.364
 5136POPC   C1B65359  38.973  34.691   6.464
 5136POPC   C2B65360  39.030  34.674   6.764
 5136POPC   C3B65361  39.024  34.710   7.064
 5136POPC   C4B65362  39.041  34.632   7.364
 5137POPC   NC365363  16.723  10.514   5.564
 5137POPC   PO465364  16.710  10.483   5.864
 5137POPC   GL165365  16.722  10.557   6.164
 5137POPC   GL265366  16.613  10.408   6.164
 5137POPC   C1A65367  16.719  10.531   6.464
 5137POPC   D2A65368  16.754  10.533   6.764
 5137POPC   C3A65369  16.750  10.546   7.064
 5137POPC   C4A65370  16.711  10.477   7.364
 5137POPC   C1B65371  16.568  10.325   6.464
 5137POPC   C2B65372  16.533  10.329   6.764
 5137POPC   C3B65373  16.568  10.388   7.064
 5137POPC   C4B65374  16.528  10.324   7.364
 5138POPC   NC365375   9.730  15.179   5.564
 5138POPC   PO465376   9.700  15.172   5.864
 5138POPC   GL165377   9.745  15.202   6.164
 5138POPC   GL265378   9.645  15.283   6.164
 5138POPC   C1A65379   9.741  15.221   6.464
 5138POPC   D2A65380   9.787  15.219   6.764
 5138POPC   C3A65381   9.759  15.175   7.064
 5138POPC   C4A65382   9.738  15.132   7.364
 5138POPC   C1B65383   9.527  15.291   6.464
 5138POPC   C2B65384   9.524  15.329   6.764
 5138POPC   C3B65385   9.563  15.367   7.064
 5138POPC   C4B65386   9.581  15.298   7.364
 5139POPC   NC365387  27.545  12.047   5.564
 5139POPC   PO465388  27.586  12.097   5.864
 5139POPC   GL165389  27.635  12.034   6.164
 5139POPC   GL265390  27.694  12.000   6.164
 5139POPC   C1A65391  27.562  12.104   6.464
 5139POPC   D2A65392  27.621  12.079   6.764
 5139POPC   C3A65393  27.555  12.042   7.064
 5139POPC   C4A65394  27.570  12.049   7.364
 5139POPC   C1B65395  27.769  11.923   6.464
 5139POPC   C2B65396  27.771  11.970   6.764
 5139POPC   C3B65397  27.752  11.876   7.064
 5139POPC   C4B65398  27.825  11.932   7.364
 5140POPC   NC365399   5.121  36.923   5.564
 5140POPC   PO465400   5.104  36.883   5.864
 5140POPC   GL165401   5.090  36.929   6.164
 5140POPC   GL265402   5.218  36.871   6.164
 5140POPC   C1A65403   5.133  36.890   6.464
 5140POPC   D2A65404   5.057  36.946   6.764
 5140POPC   C3A65405   5.054  36.869   7.064
 5140POPC   C4A65406   5.120  36.941   7.364
 5140POPC   C1B65407   5.339  36.779   6.464
 5140POPC   C2B65408   5.329  36.828   6.764
 5140POPC   C3B65409   5.350  36.797   7.064
 5140POPC   C4B65410   5.347  36.850   7.364
 5141POPC   NC365411  36.135  21.360   5.564
 5141POPC   PO465412  36.152  21.352   5.864
 5141POPC   GL165413  36.123  21.413   6.164
 5141POPC   GL265414  35.959  21.387   6.164
 5141POPC   C1A65415  36.136  21.416   6.464
 5141POPC   D2A65416  36.147  21.386   6.764
 5141POPC   C3A65417  36.106  21.343   7.064
 5141POPC   C4A65418  36.096  21.350   7.364
 5141POPC   C1B65419  35.851  21.329   6.464
 5141POPC   C2B65420  35.853  21.297   6.764
 5141POPC   C3B65421  35.905  21.289   7.064
 5141POPC   C4B65422  35.903  21.308   7.364
 5142POPC   NC365423  19.798  22.912   5.564
 5142POPC   PO465424  19.793  22.896   5.864
 5142POPC   GL165425  19.836  22.903   6.164
 5142POPC   GL265426  19.910  22.989   6.164
 5142POPC   C1A65427  19.808  22.961   6.464
 5142POPC   D2A65428  19.857  22.931   6.764
 5142POPC   C3A65429  19.853  22.897   7.064
 5142POPC   C4A65430  19.883  22.896   7.364
 5142POPC   C1B65431  20.004  23.130   6.464
 5142POPC   C2B65432  20.012  23.064   6.764
 5142POPC   C3B65433  20.044  23.052   7.064
 5142POPC   C4B65434  20.007  23.110   7.364
 5143POPC   NC365435  39.958   2.796   5.564
 5143POPC   PO465436  40.020   2.796   5.864
 5143POPC   GL165437  40.039   2.748   6.164
 5143POPC   GL265438  39.903   2.808   6.164
 5143POPC   C1A65439  39.977   2.764   6.464
 5143POPC   D2A65440  39.983   2.794   6.764
 5143POPC   C3A65441  40.033   2.813   7.064
 5143POPC   C4A65442  40.010   2.761   7.364
 5143POPC   C1B65443  39.728   2.855   6.464
 5143POPC   C2B65444  39.757   2.802   6.764
 5143POPC   C3B65445  39.742   2.875   7.064
 5143POPC   C4B65446  39.784   2.808   7.364
 5144POPC   NC365447   2.011   7.467   5.564
 5144POPC   PO465448   1.979   7.382   5.864
 5144POPC   GL165449   1.978   7.462   6.164
 5144POPC   GL265450   2.095   7.541   6.164
 5144POPC   C1A65451   1.958   7.403   6.464
 5144POPC   D2A65452   1.959   7.394   6.764
 5144POPC   C3A65453   2.004   7.404   7.064
 5144POPC   C4A65454   2.010   7.375   7.364
 5144POPC   C1B65455   2.196   7.597   6.464
 5144POPC   C2B65456   2.164   7.587   6.764
 5144POPC   C3B65457   2.120   7.565   7.064
 5144POPC   C4B65458   2.128   7.568   7.364
 5145POPC   NC365459  36.159  17.525   5.564
 5145POPC   PO465460  36.163  17.513   5.864
 5145POPC   GL165461  36.110  17.507   6.164
 5145POPC   GL265462  36.017  17.506   6.164
 5145POPC   C1A65463  36.108  17.547   6.464
 5145POPC   D2A65464  36.154  17.458   6.764
 5145POPC   C3A65465  36.102  17.522   7.064
 5145POPC   C4A65466  36.108  17.553   7.364
 5145POPC   C1B65467  35.864  17.502   6.464
 5145POPC   C2B65468  35.854  17.594   6.764
 5145POPC   C3B65469  35.857  17.591   7.064
 5145POPC   C4B65470  35.886  17.557   7.364
 5146POPC   NC365471  26.088  44.679   5.564
 5146POPC   PO465472  26.043  44.621   5.864
 5146POPC   GL165473  26.055  44.647   6.164
 5146POPC   GL265474  25.933  44.535   6.164
 5146POPC   C1A65475  26.076  44.616   6.464
 5146POPC   D2A65476  26.009  44.623   6.764
 5146POPC   C3A65477  26.033  44.659   7.064
 5146POPC   C4A65478  26.012  44.642   7.364
 5146POPC   C1B65479  25.874  44.478   6.464
 5146POPC   C2B65480  25.881  44.438   6.764
 5146POPC   C3B65481  25.895  44.461   7.064
 5146POPC   C4B65482  25.968  44.410   7.364
 5147POPC   NC365483   1.239  25.314   5.564
 5147POPC   PO465484   1.245  25.282   5.864
 5147POPC   GL165485   1.262  25.274   6.164
 5147POPC   GL265486   1.209  25.416   6.164
 5147POPC   C1A65487   1.237  25.283   6.464
 5147POPC   D2A65488   1.191  25.225   6.764
 5147POPC   C3A65489   1.262  25.289   7.064
 5147POPC   C4A65490   1.211  25.278   7.364
 5147POPC   C1B65491   1.166  25.497   6.464
 5147POPC   C2B65492   1.198  25.518   6.764
 5147POPC   C3B65493   1.128  25.545   7.064
 5147POPC   C4B65494   1.216  25.533   7.364
 5148POPC   NC365495   9.002  37.664   5.564
 5148POPC   PO465496   8.932  37.715   5.864
 5148POPC   GL165497   8.968  37.645   6.164
 5148POPC   GL265498   9.100  37.634   6.164
 5148POPC   C1A65499   9.019  37.684   6.464
 5148POPC   D2A65500   9.017  37.707   6.764
 5148POPC   C3A65501   8.967  37.700   7.064
 5148POPC   C4A65502   9.017  37.649   7.364
 5148POPC   C1B65503   9.217  37.530   6.464
 5148POPC   C2B65504   9.229  37.582   6.764
 5148POPC   C3B65505   9.196  37.501   7.064
 5148POPC   C4B65506   9.201  37.576   7.364
 5149POPC   NC365507  34.571  28.335   5.564
 5149POPC   PO465508  34.574  28.410   5.864
 5149POPC   GL165509  34.541  28.351   6.164
 5149POPC   GL265510  34.662  28.250   6.164
 5149POPC   C1A65511  34.597  28.349   6.464
 5149POPC   D2A65512  34.585  28.406   6.764
 5149POPC   C3A65513  34.621  28.322   7.064
 5149POPC   C4A65514  34.593  28.347   7.364
 5149POPC   C1B65515  34.737  28.170   6.464
 5149POPC   C2B65516  34.765  28.255   6.764
 5149POPC   C3B65517  34.743  28.201   7.064
 5149POPC   C4B65518  34.810  28.196   7.364
 5150POPC   NC365519   1.194  31.465   5.564
 5150POPC   PO465520   1.206  31.482   5.864
 5150POPC   GL165521   1.182  31.459   6.164
 5150POPC   GL265522   1.110  31.613   6.164
 5150POPC   C1A65523   1.263  31.450   6.464
 5150POPC   D2A65524   1.202  31.503   6.764
 5150POPC   C3A65525   1.212  31.500   7.064
 5150POPC   C4A65526   1.164  31.431   7.364
 5150POPC   C1B65527   1.047  31.687   6.464
 5150POPC   C2B65528   1.123  31.725   6.764
 5150POPC   C3B65529   1.040  31.674   7.064
 5150POPC   C4B65530   1.052  31.701   7.364
 5151POPC   NC365531  12.072   0.465   5.564
 5151POPC   PO465532  12.028   0.400   5.864
 5151POPC   GL165533  12.108   0.474   6.164
 5151POPC   GL265534  11.989   0.444   6.164
 5151POPC   C1A65535  12.120   0.465   6.464
 5151POPC   D2A65536  12.109   0.403   6.764
 5151POPC   C3A65537  12.044   0.388   7.064
 5151POPC   C4A65538  12.039   0.451   7.364
 5151POPC   C1B65539  11.779   0.418   6.464
 5151POPC   C2B65540  11.874   0.464   6.764
 5151POPC   C3B65541  11.854   0.469   7.064
 5151POPC   C4B65542  11.827   0.422   7.364
 5152POPC   NC365543  11.338  33.005   5.564
 5152POPC   PO465544  11.347  33.039   5.864
 5152POPC   GL165545  11.337  33.003   6.164
 5152POPC   GL265546  11.464  33.034   6.164
 5152POPC   C1A65547  11.251  33.003   6.464
 5152POPC   D2A65548  11.278  32.988   6.764
 5152POPC   C3A65549  11.301  32.996   7.064
 5152POPC   C4A65550  11.316  33.031   7.364
 5152POPC   C1B65551  11.562  33.066   6.464
 5152POPC   C2B65552  11.538  32.989   6.764
 5152POPC   C3B65553  11.513  33.005   7.064
 5152POPC   C4B65554  11.543  33.025   7.364
 5153POPC   NC365555  37.718  43.905   5.564
 5153POPC   PO465556  37.717  43.858   5.864
 5153POPC   GL165557  37.644  43.898   6.164
 5153POPC   GL265558  37.571  43.898   6.164
 5153POPC   C1A65559  37.638  43.836   6.464
 5153POPC   D2A65560  37.653  43.869   6.764
 5153POPC   C3A65561  37.637  43.890   7.064
 5153POPC   C4A65562  37.721  43.851   7.364
 5153POPC   C1B65563  37.447  43.793   6.464
 5153POPC   C2B65564  37.421  43.860   6.764
 5153POPC   C3B65565  37.484  43.804   7.064
 5153POPC   C4B65566  37.470  43.853   7.364
 5154POPC   NC365567  33.024  43.069   5.564
 5154POPC   PO465568  33.019  43.135   5.864
 5154POPC   GL165569  32.988  43.078   6.164
 5154POPC   GL265570  33.139  43.077   6.164
 5154POPC   C1A65571  33.014  43.146   6.464
 5154POPC   D2A65572  33.019  43.073   6.764
 5154POPC   C3A65573  33.040  43.140   7.064
 5154POPC   C4A65574  33.004  43.140   7.364
 5154POPC   C1B65575  33.268  43.114   6.464
 5154POPC   C2B65576  33.293  43.063   6.764
 5154POPC   C3B65577  33.316  43.136   7.064
 5154POPC   C4B65578  33.292  43.077   7.364
 5155POPC   NC365579   2.782  12.040   5.564
 5155POPC   PO465580   2.814  12.101   5.864
 5155POPC   GL165581   2.751  12.046   6.164
 5155POPC   GL265582   2.599  12.081   6.164
 5155POPC   C1A65583   2.787  12.054   6.464
 5155POPC   D2A65584   2.762  12.063   6.764
 5155POPC   C3A65585   2.732  12.111   7.064
 5155POPC   C4A65586   2.731  12.118   7.364
 5155POPC   C1B65587   2.513  12.060   6.464
 5155POPC   C2B65588   2.468  12.042   6.764
 5155POPC   C3B65589   2.558  12.115   7.064
 5155POPC   C4B65590   2.525  12.080   7.364
 5156POPC   NC365591  39.244  33.045   5.564
 5156POPC   PO465592  39.231  33.007   5.864
 5156POPC   GL165593  39.263  33.046   6.164
 5156POPC   GL265594  39.378  33.041   6.164
 5156POPC   C1A65595  39.225  33.056   6.464
 5156POPC   D2A65596  39.184  32.986   6.764
 5156POPC   C3A65597  39.273  33.030   7.064
 5156POPC   C4A65598  39.195  32.984   7.364
 5156POPC   C1B65599  39.452  33.110   6.464
 5156POPC   C2B65600  39.471  33.173   6.764
 5156POPC   C3B65601  39.466  33.142   7.064
 5156POPC   C4B65602  39.468  33.124   7.364
 5157POPC   NC365603  21.357  16.005   5.564
 5157POPC   PO465604  21.359  15.917   5.864
 5157POPC   GL165605  21.400  15.987   6.164
 5157POPC   GL265606  21.292  15.922   6.164
 5157POPC   C1A65607  21.338  15.912   6.464
 5157POPC   D2A65608  21.371  15.961   6.764
 5157POPC   C3A65609  21.419  15.976   7.064
 5157POPC   C4A65610  21.393  15.957   7.364
 5157POPC   C1B65611  21.176  15.862   6.464
 5157POPC   C2B65612  21.107  15.946   6.764
 5157POPC   C3B65613  21.171  15.949   7.064
 5157POPC   C4B65614  21.155  15.858   7.364
 5158POPC   NC365615  20.583  36.870   5.564
 5158POPC   PO465616  20.620  36.922   5.864
 5158POPC   GL165617  20.644  36.934   6.164
 5158POPC   GL265618  20.688  36.784   6.164
 5158POPC   C1A65619  20.653  36.856   6.464
 5158POPC   D2A65620  20.600  36.886   6.764
 5158POPC   C3A65621  20.656  36.948   7.064
 5158POPC   C4A65622  20.598  36.925   7.364
 5158POPC   C1B65623  20.703  36.633   6.464
 5158POPC   C2B65624  20.703  36.666   6.764
 5158POPC   C3B65625  20.680  36.624   7.064
 5158POPC   C4B65626  20.670  36.639   7.364
 5159POPC   NC365627  33.001   9.793   5.564
 5159POPC   PO465628  33.028   9.746   5.864
 5159POPC   GL165629  32.986   9.763   6.164
 5159POPC   GL265630  33.077   9.608   6.164
 5159POPC   C1A65631  32.977   9.751   6.464
 5159POPC   D2A65632  32.974   9.713   6.764
 5159POPC   C3A65633  33.019   9.786   7.064
 5159POPC   C4A65634  33.061   9.763   7.364
 5159POPC   C1B65635  33.118   9.559   6.464
 5159POPC   C2B65636  33.076   9.514   6.764
 5159POPC   C3B65637  33.137   9.467   7.064
 5159POPC   C4B65638  33.115   9.556   7.364
 5160POPC   NC365639  16.736  44.691   5.564
 5160POPC   PO465640  16.768  44.679   5.864
 5160POPC   GL165641  16.769  44.633   6.164
 5160POPC   GL265642  16.780  44.539   6.164
 5160POPC   C1A65643  16.719  44.651   6.464
 5160POPC   D2A65644  16.709  44.675   6.764
 5160POPC   C3A65645  16.767  44.626   7.064
 5160POPC   C4A65646  16.726  44.627   7.364
 5160POPC   C1B65647  16.865  44.527   6.464
 5160POPC   C2B65648  16.898  44.445   6.764
 5160POPC   C3B65649  16.912  44.436   7.064
 5160POPC   C4B65650  16.872  44.483   7.364
 5161POPC   NC365651   7.377  15.215   5.564
 5161POPC   PO465652   7.446  15.150   5.864
 5161POPC   GL165653   7.422  15.194   6.164
 5161POPC   GL265654   7.345  15.171   6.164
 5161POPC   C1A65655   7.410  15.168   6.464
 5161POPC   D2A65656   7.465  15.218   6.764
 5161POPC   C3A65657   7.412  15.211   7.064
 5161POPC   C4A65658   7.428  15.175   7.364
 5161POPC   C1B65659   7.196  15.176   6.464
 5161POPC   C2B65660   7.154  15.228   6.764
 5161POPC   C3B65661   7.204  15.167   7.064
 5161POPC   C4B65662   7.171  15.198   7.364
 5162POPC   NC365663   8.237   1.226   5.564
 5162POPC   PO465664   8.182   1.225   5.864
 5162POPC   GL165665   8.189   1.249   6.164
 5162POPC   GL265666   8.184   1.320   6.164
 5162POPC   C1A65667   8.187   1.224   6.464
 5162POPC   D2A65668   8.222   1.227   6.764
 5162POPC   C3A65669   8.151   1.245   7.064
 5162POPC   C4A65670   8.221   1.217   7.364
 5162POPC   C1B65671   8.232   1.481   6.464
 5162POPC   C2B65672   8.212   1.420   6.764
 5162POPC   C3B65673   8.225   1.495   7.064
 5162POPC   C4B65674   8.181   1.453   7.364
 5163POPC   NC365675   8.967  14.370   5.564
 5163POPC   PO465676   8.961  14.430   5.864
 5163POPC   GL165677   8.926  14.445   6.164
 5163POPC   GL265678   9.127  14.424   6.164
 5163POPC   C1A65679   8.939  14.389   6.464
 5163POPC   D2A65680   8.982  14.359   6.764
 5163POPC   C3A65681   8.943  14.366   7.064
 5163POPC   C4A65682   9.018  14.401   7.364
 5163POPC   C1B65683   9.243  14.399   6.464
 5163POPC   C2B65684   9.251  14.432   6.764
 5163POPC   C3B65685   9.192  14.385   7.064
 5163POPC   C4B65686   9.265  14.361   7.364
 5164POPC   NC365687  20.582   1.200   5.564
 5164POPC   PO465688  20.656   1.214   5.864
 5164POPC   GL165689  20.654   1.169   6.164
 5164POPC   GL265690  20.678   1.142   6.164
 5164POPC   C1A65691  20.615   1.244   6.464
 5164POPC   D2A65692  20.651   1.215   6.764
 5164POPC   C3A65693  20.634   1.164   7.064
 5164POPC   C4A65694  20.647   1.223   7.364
 5164POPC   C1B65695  20.781   1.089   6.464
 5164POPC   C2B65696  20.782   1.059   6.764
 5164POPC   C3B65697  20.781   1.016   7.064
 5164POPC   C4B65698  20.791   1.024   7.364
 5165POPC   NC365699  26.066  36.149   5.564
 5165POPC   PO465700  26.031  36.155   5.864
 5165POPC   GL165701  26.079  36.169   6.164
 5165POPC   GL265702  26.093  36.283   6.164
 5165POPC   C1A65703  26.040  36.092   6.464
 5165POPC   D2A65704  26.043  36.157   6.764
 5165POPC   C3A65705  26.091  36.166   7.064
 5165POPC   C4A65706  26.081  36.088   7.364
 5165POPC   C1B65707  26.031  36.344   6.464
 5165POPC   C2B65708  26.037  36.373   6.764
 5165POPC   C3B65709  26.020  36.424   7.064
 5165POPC   C4B65710  26.077  36.399   7.364
 5166POPC   NC365711   7.456   4.281   5.564
 5166POPC   PO465712   7.441   4.285   5.864
 5166POPC   GL165713   7.462   4.307   6.164
 5166POPC   GL265714   7.509   4.376   6.164
 5166POPC   C1A65715   7.428   4.346   6.464
 5166POPC   D2A65716   7.397   4.332   6.764
 5166POPC   C3A65717   7.430   4.313   7.064
 5166POPC   C4A65718   7.421   4.363   7.364
 5166POPC   C1B65719   7.689   4.353   6.464
 5166POPC   C2B65720   7.704   4.347   6.764
 5166POPC   C3B65721   7.656   4.356   7.064
 5166POPC   C4B65722   7.630   4.377   7.364
 5167POPC   NC365723  10.505  36.150   5.564
 5167POPC   PO465724  10.526  36.108   5.864
 5167POPC   GL165725  10.521  36.113   6.164
 5167POPC   GL265726  10.447  36.000   6.164
 5167POPC   C1A65727  10.500  36.121   6.464
 5167POPC   D2A65728  10.480  36.083   6.764
 5167POPC   C3A65729  10.573  36.089   7.064
 5167POPC   C4A65730  10.522  36.142   7.364
 5167POPC   C1B65731  10.432  35.949   6.464
 5167POPC   C2B65732  10.368  35.932   6.764
 5167POPC   C3B65733  10.367  35.917   7.064
 5167POPC   C4B65734  10.384  35.917   7.364
 5168POPC   NC365735  16.687   1.252   5.564
 5168POPC   PO465736  16.756   1.236   5.864
 5168POPC   GL165737  16.762   1.230   6.164
 5168POPC   GL265738  16.844   1.222   6.164
 5168POPC   C1A65739  16.681   1.188   6.464
 5168POPC   D2A65740  16.759   1.185   6.764
 5168POPC   C3A65741  16.723   1.225   7.064
 5168POPC   C4A65742  16.750   1.226   7.364
 5168POPC   C1B65743  16.995   1.159   6.464
 5168POPC   C2B65744  17.003   1.157   6.764
 5168POPC   C3B65745  16.971   1.204   7.064
 5168POPC   C4B65746  17.024   1.143   7.364
 5169POPC   NC365747  17.472  33.065   5.564
 5169POPC   PO465748  17.539  33.004   5.864
 5169POPC   GL165749  17.473  33.033   6.164
 5169POPC   GL265750  17.398  33.069   6.164
 5169POPC   C1A65751  17.493  33.023   6.464
 5169POPC   D2A65752  17.505  32.999   6.764
 5169POPC   C3A65753  17.496  33.059   7.064
 5169POPC   C4A65754  17.474  33.038   7.364
 5169POPC   C1B65755  17.281  33.141   6.464
 5169POPC   C2B65756  17.219  33.129   6.764
 5169POPC   C3B65757  17.231  33.090   7.064
 5169POPC   C4B65758  17.308  33.058   7.364
 5170POPC   NC365759  39.217  20.621   5.564
 5170POPC   PO465760  39.266  20.647   5.864
 5170POPC   GL165761  39.201  20.604   6.164
 5170POPC   GL265762  39.093  20.719   6.164
 5170POPC   C1A65763  39.274  20.646   6.464
 5170POPC   D2A65764  39.232  20.624   6.764
 5170POPC   C3A65765  39.225  20.616   7.064
 5170POPC   C4A65766  39.184  20.568   7.364
 5170POPC   C1B65767  39.032  20.773   6.464
 5170POPC   C2B65768  38.965  20.709   6.764
 5170POPC   C3B65769  38.990  20.770   7.064
 5170POPC   C4B65770  39.037  20.778   7.364
 5171POPC   NC365771  36.891  16.695   5.564
 5171POPC   PO465772  36.923  16.684   5.864
 5171POPC   GL165773  36.879  16.702   6.164
 5171POPC   GL265774  36.988  16.641   6.164
 5171POPC   C1A65775  36.897  16.772   6.464
 5171POPC   D2A65776  36.897  16.714   6.764
 5171POPC   C3A65777  36.953  16.707   7.064
 5171POPC   C4A65778  36.936  16.727   7.364
 5171POPC   C1B65779  37.064  16.553   6.464
 5171POPC   C2B65780  37.023  16.527   6.764
 5171POPC   C3B65781  37.000  16.483   7.064
 5171POPC   C4B65782  37.060  16.535   7.364
 5172POPC   NC365783  29.917  36.170   5.564
 5172POPC   PO465784  29.895  36.172   5.864
 5172POPC   GL165785  29.903  36.125   6.164
 5172POPC   GL265786  30.046  36.147   6.164
 5172POPC   C1A65787  29.934  36.134   6.464
 5172POPC   D2A65788  29.950  36.167   6.764
 5172POPC   C3A65789  29.891  36.156   7.064
 5172POPC   C4A65790  29.964  36.129   7.364
 5172POPC   C1B65791  30.183  36.240   6.464
 5172POPC   C2B65792  30.149  36.256   6.764
 5172POPC   C3B65793  30.117  36.203   7.064
 5172POPC   C4B65794  30.097  36.227   7.364
 5173POPC   NC365795   8.982  39.254   5.564
 5173POPC   PO465796   8.975  39.266   5.864
 5173POPC   GL165797   9.010  39.189   6.164
 5173POPC   GL265798   9.050  39.239   6.164
 5173POPC   C1A65799   8.928  39.203   6.464
 5173POPC   D2A65800   8.966  39.280   6.764
 5173POPC   C3A65801   8.970  39.235   7.064
 5173POPC   C4A65802   9.003  39.232   7.364
 5173POPC   C1B65803   9.264  39.244   6.464
 5173POPC   C2B65804   9.193  39.290   6.764
 5173POPC   C3B65805   9.229  39.280   7.064
 5173POPC   C4B65806   9.244  39.280   7.364
 5174POPC   NC365807  42.360  20.613   5.564
 5174POPC   PO465808  42.366  20.579   5.864
 5174POPC   GL165809  42.339  20.622   6.164
 5174POPC   GL265810  42.247  20.701   6.164
 5174POPC   C1A65811  42.320  20.564   6.464
 5174POPC   D2A65812  42.301  20.601   6.764
 5174POPC   C3A65813  42.363  20.567   7.064
 5174POPC   C4A65814  42.285  20.652   7.364
 5174POPC   C1B65815  42.216  20.837   6.464
 5174POPC   C2B65816  42.269  20.814   6.764
 5174POPC   C3B65817  42.262  20.835   7.064
 5174POPC   C4B65818  42.258  20.854   7.364
 5175POPC   NC365819  10.566  26.044   5.564
 5175POPC   PO465820  10.562  26.004   5.864
 5175POPC   GL165821  10.552  26.083   6.164
 5175POPC   GL265822  10.490  26.165   6.164
 5175POPC   C1A65823  10.482  26.090   6.464
 5175POPC   D2A65824  10.490  26.052   6.764
 5175POPC   C3A65825  10.479  26.035   7.064
 5175POPC   C4A65826  10.552  26.051   7.364
 5175POPC   C1B65827  10.391  26.284   6.464
 5175POPC   C2B65828  10.379  26.294   6.764
 5175POPC   C3B65829  10.377  26.200   7.064
 5175POPC   C4B65830  10.409  26.291   7.364
 5176POPC   NC365831  43.122  19.800   5.564
 5176POPC   PO465832  43.100  19.826   5.864
 5176POPC   GL165833  43.067  19.800   6.164
 5176POPC   GL265834  43.192  19.776   6.164
 5176POPC   C1A65835  43.074  19.854   6.464
 5176POPC   D2A65836  43.129  19.846   6.764
 5176POPC   C3A65837  43.090  19.842   7.064
 5176POPC   C4A65838  43.130  19.871   7.364
 5176POPC   C1B65839  43.337  19.669   6.464
 5176POPC   C2B65840  43.246  19.642   6.764
 5176POPC   C3B65841  43.250  19.638   7.064
 5176POPC   C4B65842  43.321  19.691   7.364
 5177POPC   NC365843  17.496  40.805   5.564
 5177POPC   PO465844  17.533  40.747   5.864
 5177POPC   GL165845  17.547  40.747   6.164
 5177POPC   GL265846  17.436  40.894   6.164
 5177POPC   C1A65847  17.516  40.795   6.464
 5177POPC   D2A65848  17.481  40.814   6.764
 5177POPC   C3A65849  17.507  40.746   7.064
 5177POPC   C4A65850  17.503  40.783   7.364
 5177POPC   C1B65851  17.405  41.035   6.464
 5177POPC   C2B65852  17.460  41.047   6.764
 5177POPC   C3B65853  17.408  41.031   7.064
 5177POPC   C4B65854  17.437  40.983   7.364
 5178POPC   NC365855  31.460  26.035   5.564
 5178POPC   PO465856  31.517  26.008   5.864
 5178POPC   GL165857  31.464  26.039   6.164
 5178POPC   GL265858  31.616  26.040   6.164
 5178POPC   C1A65859  31.453  26.024   6.464
 5178POPC   D2A65860  31.504  26.060   6.764
 5178POPC   C3A65861  31.477  26.037   7.064
 5178POPC   C4A65862  31.508  26.015   7.364
 5178POPC   C1B65863  31.700  26.077   6.464
 5178POPC   C2B65864  31.761  26.077   6.764
 5178POPC   C3B65865  31.721  26.148   7.064
 5178POPC   C4B65866  31.690  26.145   7.364
 5179POPC   NC365867  30.719  25.216   5.564
 5179POPC   PO465868  30.686  25.240   5.864
 5179POPC   GL165869  30.687  25.265   6.164
 5179POPC   GL265870  30.646  25.201   6.164
 5179POPC   C1A65871  30.728  25.261   6.464
 5179POPC   D2A65872  30.716  25.279   6.764
 5179POPC   C3A65873  30.735  25.263   7.064
 5179POPC   C4A65874  30.706  25.261   7.364
 5179POPC   C1B65875  30.574  25.055   6.464
 5179POPC   C2B65876  30.502  25.067   6.764
 5179POPC   C3B65877  30.516  25.134   7.064
 5179POPC   C4B65878  30.526  25.067   7.364
 5180POPC   NC365879  38.477  32.275   5.564
 5180POPC   PO465880  38.501  32.232   5.864
 5180POPC   GL165881  38.438  32.290   6.164
 5180POPC   GL265882  38.298  32.214   6.164
 5180POPC   C1A65883  38.503  32.249   6.464
 5180POPC   D2A65884  38.437  32.258   6.764
 5180POPC   C3A65885  38.482  32.273   7.064
 5180POPC   C4A65886  38.461  32.239   7.364
 5180POPC   C1B65887  38.215  32.077   6.464
 5180POPC   C2B65888  38.267  32.134   6.764
 5180POPC   C3B65889  38.208  32.135   7.064
 5180POPC   C4B65890  38.222  32.101   7.364
 5181POPC   NC365891   9.707  18.250   5.564
 5181POPC   PO465892   9.747  18.306   5.864
 5181POPC   GL165893   9.745  18.259   6.164
 5181POPC   GL265894   9.578  18.252   6.164
 5181POPC   C1A65895   9.730  18.267   6.464
 5181POPC   D2A65896   9.746  18.298   6.764
 5181POPC   C3A65897   9.797  18.326   7.064
 5181POPC   C4A65898   9.769  18.295   7.364
 5181POPC   C1B65899   9.480  18.314   6.464
 5181POPC   C2B65900   9.493  18.270   6.764
 5181POPC   C3B65901   9.546  18.271   7.064
 5181POPC   C4B65902   9.507  18.288   7.364
 5182POPC   NC365903  15.174  20.626   5.564
 5182POPC   PO465904  15.197  20.653   5.864
 5182POPC   GL165905  15.217  20.618   6.164
 5182POPC   GL265906  15.231  20.683   6.164
 5182POPC   C1A65907  15.199  20.657   6.464
 5182POPC   D2A65908  15.204  20.587   6.764
 5182POPC   C3A65909  15.136  20.561   7.064
 5182POPC   C4A65910  15.174  20.657   7.364
 5182POPC   C1B65911  15.344  20.810   6.464
 5182POPC   C2B65912  15.412  20.809   6.764
 5182POPC   C3B65913  15.333  20.769   7.064
 5182POPC   C4B65914  15.362  20.785   7.364
 5183POPC   NC365915  11.346  43.147   5.564
 5183POPC   PO465916  11.263  43.082   5.864
 5183POPC   GL165917  11.344  43.129   6.164
 5183POPC   GL265918  11.429  43.045   6.164
 5183POPC   C1A65919  11.259  43.129   6.464
 5183POPC   D2A65920  11.293  43.134   6.764
 5183POPC   C3A65921  11.254  43.085   7.064
 5183POPC   C4A65922  11.276  43.137   7.364
 5183POPC   C1B65923  11.512  43.073   6.464
 5183POPC   C2B65924  11.564  43.064   6.764
 5183POPC   C3B65925  11.588  43.072   7.064
 5183POPC   C4B65926  11.559  43.056   7.364
 5184POPC   NC365927   6.611  15.926   5.564
 5184POPC   PO465928   6.655  15.908   5.864
 5184POPC   GL165929   6.618  15.930   6.164
 5184POPC   GL265930   6.565  15.866   6.164
 5184POPC   C1A65931   6.619  15.974   6.464
 5184POPC   D2A65932   6.684  15.949   6.764
 5184POPC   C3A65933   6.669  15.935   7.064
 5184POPC   C4A65934   6.675  15.951   7.364
 5184POPC   C1B65935   6.447  15.743   6.464
 5184POPC   C2B65936   6.512  15.778   6.764
 5184POPC   C3B65937   6.518  15.767   7.064
 5184POPC   C4B65938   6.459  15.745   7.364
 5185POPC   NC365939  32.218  12.105   5.564
 5185POPC   PO465940  32.280  12.050   5.864
 5185POPC   GL165941  32.237  12.092   6.164
 5185POPC   GL265942  32.159  12.141   6.164
 5185POPC   C1A65943  32.208  12.124   6.464
 5185POPC   D2A65944  32.257  12.087   6.764
 5185POPC   C3A65945  32.278  12.119   7.064
 5185POPC   C4A65946  32.293  12.069   7.364
 5185POPC   C1B65947  32.078  12.187   6.464
 5185POPC   C2B65948  32.083  12.254   6.764
 5185POPC   C3B65949  32.046  12.259   7.064
 5185POPC   C4B65950  32.023  12.195   7.364
 5186POPC   NC365951   8.211  20.648   5.564
 5186POPC   PO465952   8.234  20.594   5.864
 5186POPC   GL165953   8.213  20.573   6.164
 5186POPC   GL265954   8.284  20.633   6.164
 5186POPC   C1A65955   8.188  20.608   6.464
 5186POPC   D2A65956   8.230  20.632   6.764
 5186POPC   C3A65957   8.200  20.597   7.064
 5186POPC   C4A65958   8.191  20.604   7.364
 5186POPC   C1B65959   8.463  20.658   6.464
 5186POPC   C2B65960   8.480  20.644   6.764
 5186POPC   C3B65961   8.473  20.597   7.064
 5186POPC   C4B65962   8.475  20.656   7.364
 5187POPC   NC365963  19.095  42.358   5.564
 5187POPC   PO465964  19.040  42.357   5.864
 5187POPC   GL165965  19.095  42.336   6.164
 5187POPC   GL265966  19.108  42.430   6.164
 5187POPC   C1A65967  19.010  42.320   6.464
 5187POPC   D2A65968  19.097  42.329   6.764
 5187POPC   C3A65969  19.055  42.363   7.064
 5187POPC   C4A65970  19.036  42.286   7.364
 5187POPC   C1B65971  19.208  42.468   6.464
 5187POPC   C2B65972  19.181  42.524   6.764
 5187POPC   C3B65973  19.268  42.532   7.064
 5187POPC   C4B65974  19.278  42.502   7.364
 5188POPC   NC365975  38.489  41.529   5.564
 5188POPC   PO465976  38.469  41.526   5.864
 5188POPC   GL165977  38.422  41.586   6.164
 5188POPC   GL265978  38.441  41.639   6.164
 5188POPC   C1A65979  38.463  41.591   6.464
 5188POPC   D2A65980  38.421  41.590   6.764
 5188POPC   C3A65981  38.486  41.539   7.064
 5188POPC   C4A65982  38.450  41.596   7.364
 5188POPC   C1B65983  38.517  41.763   6.464
 5188POPC   C2B65984  38.515  41.759   6.764
 5188POPC   C3B65985  38.542  41.813   7.064
 5188POPC   C4B65986  38.509  41.787   7.364
 5189POPC   NC365987   3.537  23.760   5.564
 5189POPC   PO465988   3.512  23.720   5.864
 5189POPC   GL165989   3.571  23.757   6.164
 5189POPC   GL265990   3.603  23.818   6.164
 5189POPC   C1A65991   3.561  23.711   6.464
 5189POPC   D2A65992   3.577  23.673   6.764
 5189POPC   C3A65993   3.583  23.733   7.064
 5189POPC   C4A65994   3.497  23.677   7.364
 5189POPC   C1B65995   3.577  24.007   6.464
 5189POPC   C2B65996   3.574  23.959   6.764
 5189POPC   C3B65997   3.576  23.932   7.064
 5189POPC   C4B65998   3.546  24.005   7.364
 5190POPC   NC365999  41.555  24.455   5.564
 5190POPC   PO466000  41.539  24.441   5.864
 5190POPC   GL166001  41.608  24.481   6.164
 5190POPC   GL266002  41.607  24.582   6.164
 5190POPC   C1A66003  41.540  24.456   6.464
 5190POPC   D2A66004  41.509  24.441   6.764
 5190POPC   C3A66005  41.544  24.452   7.064
 5190POPC   C4A66006  41.598  24.467   7.364
 5190POPC   C1B66007  41.664  24.675   6.464
 5190POPC   C2B66008  41.747  24.666   6.764
 5190POPC   C3B66009  41.745  24.668   7.064
 5190POPC   C4B66010  41.688  24.684   7.364
 5191POPC   NC366011  12.805  26.804   5.564
 5191POPC   PO466012  12.848  26.810   5.864
 5191POPC   GL166013  12.862  26.831   6.164
 5191POPC   GL266014  12.797  26.842   6.164
 5191POPC   C1A66015  12.838  26.804   6.464
 5191POPC   D2A66016  12.839  26.821   6.764
 5191POPC   C3A66017  12.894  26.860   7.064
 5191POPC   C4A66018  12.838  26.786   7.364
 5191POPC   C1B66019  12.693  26.964   6.464
 5191POPC   C2B66020  12.640  26.989   6.764
 5191POPC   C3B66021  12.694  26.955   7.064
 5191POPC   C4B66022  12.662  26.919   7.364
 5192POPC   NC366023  15.920  30.719   5.564
 5192POPC   PO466024  15.961  30.651   5.864
 5192POPC   GL166025  15.987  30.666   6.164
 5192POPC   GL266026  15.834  30.606   6.164
 5192POPC   C1A66027  15.966  30.726   6.464
 5192POPC   D2A66028  15.917  30.657   6.764
 5192POPC   C3A66029  15.930  30.707   7.064
 5192POPC   C4A66030  15.916  30.694   7.364
 5192POPC   C1B66031  15.743  30.533   6.464
 5192POPC   C2B66032  15.750  30.593   6.764
 5192POPC   C3B66033  15.764  30.519   7.064
 5192POPC   C4B66034  15.765  30.545   7.364
 5193POPC   NC366035   4.337  34.561   5.564
 5193POPC   PO466036   4.320  34.615   5.864
 5193POPC   GL166037   4.317  34.556   6.164
 5193POPC   GL266038   4.212  34.545   6.164
 5193POPC   C1A66039   4.341  34.585   6.464
 5193POPC   D2A66040   4.319  34.554   6.764
 5193POPC   C3A66041   4.348  34.537   7.064
 5193POPC   C4A66042   4.300  34.569   7.364
 5193POPC   C1B66043   4.050  34.461   6.464
 5193POPC   C2B66044   4.056  34.493   6.764
 5193POPC   C3B66045   4.084  34.427   7.064
 5193POPC   C4B66046   4.062  34.446   7.364
 5194POPC   NC366047   3.555  34.575   5.564
 5194POPC   PO466048   3.504  34.589   5.864
 5194POPC   GL166049   3.575  34.614   6.164
 5194POPC   GL266050   3.428  34.612   6.164
 5194POPC   C1A66051   3.563  34.610   6.464
 5194POPC   D2A66052   3.525  34.625   6.764
 5194POPC   C3A66053   3.549  34.603   7.064
 5194POPC   C4A66054   3.545  34.527   7.364
 5194POPC   C1B66055   3.253  34.553   6.464
 5194POPC   C2B66056   3.276  34.548   6.764
 5194POPC   C3B66057   3.320  34.599   7.064
 5194POPC   C4B66058   3.312  34.599   7.364
 5195POPC   NC366059   1.254  38.474   5.564
 5195POPC   PO466060   1.198  38.443   5.864
 5195POPC   GL166061   1.169  38.470   6.164
 5195POPC   GL266062   1.044  38.468   6.164
 5195POPC   C1A66063   1.168  38.448   6.464
 5195POPC   D2A66064   1.177  38.462   6.764
 5195POPC   C3A66065   1.209  38.499   7.064
 5195POPC   C4A66066   1.221  38.463   7.364
 5195POPC   C1B66067   0.965  38.387   6.464
 5195POPC   C2B66068   0.957  38.430   6.764
 5195POPC   C3B66069   0.993  38.356   7.064
 5195POPC   C4B66070   1.017  38.433   7.364
 5196POPC   NC366071   1.973  20.656   5.564
 5196POPC   PO466072   2.000  20.587   5.864
 5196POPC   GL166073   1.986  20.620   6.164
 5196POPC   GL266074   1.829  20.564   6.164
 5196POPC   C1A66075   2.009  20.629   6.464
 5196POPC   D2A66076   2.029  20.596   6.764
 5196POPC   C3A66077   1.983  20.603   7.064
 5196POPC   C4A66078   1.962  20.599   7.364
 5196POPC   C1B66079   1.726  20.472   6.464
 5196POPC   C2B66080   1.758  20.546   6.764
 5196POPC   C3B66081   1.751  20.539   7.064
 5196POPC   C4B66082   1.732  20.541   7.364
 5197POPC   NC366083   2.792   1.201   5.564
 5197POPC   PO466084   2.771   1.184   5.864
 5197POPC   GL166085   2.815   1.193   6.164
 5197POPC   GL266086   2.670   1.124   6.164
 5197POPC   C1A66087   2.746   1.215   6.464
 5197POPC   D2A66088   2.815   1.171   6.764
 5197POPC   C3A66089   2.791   1.177   7.064
 5197POPC   C4A66090   2.809   1.259   7.364
 5197POPC   C1B66091   2.562   1.138   6.464
 5197POPC   C2B66092   2.516   1.078   6.764
 5197POPC   C3B66093   2.537   1.078   7.064
 5197POPC   C4B66094   2.569   1.090   7.364
 5198POPC   NC366095  15.916  28.412   5.564
 5198POPC   PO466096  15.944  28.369   5.864
 5198POPC   GL166097  15.962  28.343   6.164
 5198POPC   GL266098  16.027  28.278   6.164
 5198POPC   C1A66099  15.946  28.366   6.464
 5198POPC   D2A66100  15.906  28.365   6.764
 5198POPC   C3A66101  15.951  28.417   7.064
 5198POPC   C4A66102  15.910  28.377   7.364
 5198POPC   C1B66103  15.984  28.096   6.464
 5198POPC   C2B66104  16.003  28.081   6.764
 5198POPC   C3B66105  16.043  28.165   7.064
 5198POPC   C4B66106  15.987  28.102   7.364
 5199POPC   NC366107  12.888   8.948   5.564
 5199POPC   PO466108  12.867   8.983   5.864
 5199POPC   GL166109  12.889   8.988   6.164
 5199POPC   GL266110  12.951   9.025   6.164
 5199POPC   C1A66111  12.845   8.930   6.464
 5199POPC   D2A66112  12.847   8.955   6.764
 5199POPC   C3A66113  12.896   8.951   7.064
 5199POPC   C4A66114  12.834   8.951   7.364
 5199POPC   C1B66115  12.973   9.145   6.464
 5199POPC   C2B66116  12.994   9.125   6.764
 5199POPC   C3B66117  13.020   9.123   7.064
 5199POPC   C4B66118  12.979   9.180   7.364
 5200POPC   NC366119   0.435  32.245   5.564
 5200POPC   PO466120   0.411  32.259   5.864
 5200POPC   GL166121   0.453  32.236   6.164
 5200POPC   GL266122   0.348  32.342   6.164
 5200POPC   C1A66123   0.395  32.269   6.464
 5200POPC   D2A66124   0.418  32.233   6.764
 5200POPC   C3A66125   0.389  32.227   7.064
 5200POPC   C4A66126   0.485  32.286   7.364
 5200POPC   C1B66127   0.198  32.333   6.464
 5200POPC   C2B66128   0.237  32.389   6.764
 5200POPC   C3B66129   0.239  32.346   7.064
 5200POPC   C4B66130   0.177  32.393   7.364
 5201POPC   NC366131  32.290   8.163   5.564
 5201POPC   PO466132  32.203   8.200   5.864
 5201POPC   GL166133  32.268   8.222   6.164
 5201POPC   GL266134  32.388   8.103   6.164
 5201POPC   C1A66135  32.226   8.205   6.464
 5201POPC   D2A66136  32.237   8.177   6.764
 5201POPC   C3A66137  32.243   8.149   7.064
 5201POPC   C4A66138  32.204   8.179   7.364
 5201POPC   C1B66139  32.459   8.116   6.464
 5201POPC   C2B66140  32.457   8.035   6.764
 5201POPC   C3B66141  32.457   8.079   7.064
 5201POPC   C4B66142  32.433   8.080   7.364
 5202POPC   NC366143  26.013  31.509   5.564
 5202POPC   PO466144  26.081  31.423   5.864
 5202POPC   GL166145  26.061  31.424   6.164
 5202POPC   GL266146  26.119  31.367   6.164
 5202POPC   C1A66147  26.016  31.519   6.464
 5202POPC   D2A66148  25.998  31.444   6.764
 5202POPC   C3A66149  26.048  31.452   7.064
 5202POPC   C4A66150  26.004  31.470   7.364
 5202POPC   C1B66151  26.243  31.327   6.464
 5202POPC   C2B66152  26.225  31.297   6.764
 5202POPC   C3B66153  26.173  31.285   7.064
 5202POPC   C4B66154  26.238  31.328   7.364
 5203POPC   NC366155  36.143   2.749   5.564
 5203POPC   PO466156  36.171   2.802   5.864
 5203POPC   GL166157  36.168   2.750   6.164
 5203POPC   GL266158  36.193   2.707   6.164
 5203POPC   C1A66159  36.126   2.769   6.464
 5203POPC   D2A66160  36.148   2.770   6.764
 5203POPC   C3A66161  36.143   2.729   7.064
 5203POPC   C4A66162  36.120   2.746   7.364
 5203POPC   C1B66163  36.226   2.580   6.464
 5203POPC   C2B66164  36.230   2.520   6.764
 5203POPC   C3B66165  36.235   2.530   7.064
 5203POPC   C4B66166  36.254   2.573   7.364
 5204POPC   NC366167  39.963  34.566   5.564
 5204POPC   PO466168  40.020  34.570   5.864
 5204POPC   GL166169  39.973  34.616   6.164
 5204POPC   GL266170  39.980  34.705   6.164
 5204POPC   C1A66171  39.992  34.572   6.464
 5204POPC   D2A66172  39.999  34.550   6.764
 5204POPC   C3A66173  40.026  34.585   7.064
 5204POPC   C4A66174  39.975  34.595   7.364
 5204POPC   C1B66175  40.056  34.856   6.464
 5204POPC   C2B66176  40.058  34.852   6.764
 5204POPC   C3B66177  39.999  34.810   7.064
 5204POPC   C4B66178  40.077  34.862   7.364
 5205POPC   NC366179  34.561  35.352   5.564
 5205POPC   PO466180  34.544  35.343   5.864
 5205POPC   GL166181  34.529  35.321   6.164
 5205POPC   GL266182  34.501  35.283   6.164
 5205POPC   C1A66183  34.609  35.343   6.464
 5205POPC   D2A66184  34.615  35.344   6.764
 5205POPC   C3A66185  34.568  35.358   7.064
 5205POPC   C4A66186  34.549  35.324   7.364
 5205POPC   C1B66187  34.359  35.231   6.464
 5205POPC   C2B66188  34.368  35.176   6.764
 5205POPC   C3B66189  34.363  35.145   7.064
 5205POPC   C4B66190  34.385  35.146   7.364
 5206POPC   NC366191   5.833   3.581   5.564
 5206POPC   PO466192   5.903   3.568   5.864
 5206POPC   GL166193   5.903   3.566   6.164
 5206POPC   GL266194   5.981   3.526   6.164
 5206POPC   C1A66195   5.858   3.526   6.464
 5206POPC   D2A66196   5.861   3.550   6.764
 5206POPC   C3A66197   5.892   3.545   7.064
 5206POPC   C4A66198   5.885   3.543   7.364
 5206POPC   C1B66199   6.092   3.496   6.464
 5206POPC   C2B66200   6.126   3.511   6.764
 5206POPC   C3B66201   6.076   3.488   7.064
 5206POPC   C4B66202   6.108   3.477   7.364
 5207POPC   NC366203  19.810  33.049   5.564
 5207POPC   PO466204  19.793  33.071   5.864
 5207POPC   GL166205  19.810  33.061   6.164
 5207POPC   GL266206  19.871  32.960   6.164
 5207POPC   C1A66207  19.854  33.020   6.464
 5207POPC   D2A66208  19.849  33.002   6.764
 5207POPC   C3A66209  19.841  33.061   7.064
 5207POPC   C4A66210  19.866  33.011   7.364
 5207POPC   C1B66211  20.033  32.855   6.464
 5207POPC   C2B66212  20.022  32.884   6.764
 5207POPC   C3B66213  20.048  32.832   7.064
 5207POPC   C4B66214  20.030  32.862   7.364
 5208POPC   NC366215  13.642  25.223   5.564
 5208POPC   PO466216  13.631  25.313   5.864
 5208POPC   GL166217  13.586  25.218   6.164
 5208POPC   GL266218  13.692  25.167   6.164
 5208POPC   C1A66219  13.673  25.278   6.464
 5208POPC   D2A66220  13.666  25.249   6.764
 5208POPC   C3A66221  13.599  25.279   7.064
 5208POPC   C4A66222  13.635  25.250   7.364
 5208POPC   C1B66223  13.724  25.038   6.464
 5208POPC   C2B66224  13.747  25.057   6.764
 5208POPC   C3B66225  13.731  25.005   7.064
 5208POPC   C4B66226  13.702  24.999   7.364
 5209POPC   NC366227   8.234  39.263   5.564
 5209POPC   PO466228   8.237  39.244   5.864
 5209POPC   GL166229   8.182  39.250   6.164
 5209POPC   GL266230   8.169  39.162   6.164
 5209POPC   C1A66231   8.216  39.208   6.464
 5209POPC   D2A66232   8.194  39.208   6.764
 5209POPC   C3A66233   8.193  39.262   7.064
 5209POPC   C4A66234   8.232  39.252   7.364
 5209POPC   C1B66235   8.094  38.954   6.464
 5209POPC   C2B66236   8.077  38.959   6.764
 5209POPC   C3B66237   8.074  38.965   7.064
 5209POPC   C4B66238   8.063  39.030   7.364
 5210POPC   NC366239  39.278  28.412   5.564
 5210POPC   PO466240  39.195  28.341   5.864
 5210POPC   GL166241  39.227  28.374   6.164
 5210POPC   GL266242  39.104  28.371   6.164
 5210POPC   C1A66243  39.230  28.412   6.464
 5210POPC   D2A66244  39.195  28.322   6.764
 5210POPC   C3A66245  39.226  28.361   7.064
 5210POPC   C4A66246  39.230  28.417   7.364
 5210POPC   C1B66247  39.001  28.276   6.464
 5210POPC   C2B66248  38.989  28.339   6.764
 5210POPC   C3B66249  39.016  28.302   7.064
 5210POPC   C4B66250  38.968  28.357   7.364
 5211POPC   NC366251  43.070   8.174   5.564
 5211POPC   PO466252  43.122   8.241   5.864
 5211POPC   GL166253  43.107   8.221   6.164
 5211POPC   GL266254  43.079   8.053   6.164
 5211POPC   C1A66255  43.159   8.192   6.464
 5211POPC   D2A66256  43.146   8.183   6.764
 5211POPC   C3A66257  43.094   8.156   7.064
 5211POPC   C4A66258  43.136   8.228   7.364
 5211POPC   C1B66259  42.950   7.993   6.464
 5211POPC   C2B66260  42.961   8.011   6.764
 5211POPC   C3B66261  42.954   7.983   7.064
 5211POPC   C4B66262  42.968   7.963   7.364
 5212POPC   NC366263  12.812  33.069   5.564
 5212POPC   PO466264  12.896  33.067   5.864
 5212POPC   GL166265  12.829  33.043   6.164
 5212POPC   GL266266  12.819  32.911   6.164
 5212POPC   C1A66267  12.893  33.030   6.464
 5212POPC   D2A66268  12.837  32.993   6.764
 5212POPC   C3A66269  12.851  33.011   7.064
 5212POPC   C4A66270  12.815  32.999   7.364
 5212POPC   C1B66271  12.696  32.844   6.464
 5212POPC   C2B66272  12.736  32.774   6.764
 5212POPC   C3B66273  12.665  32.802   7.064
 5212POPC   C4B66274  12.748  32.845   7.364
 5213POPC   NC366275  43.881  16.739   5.564
 5213POPC   PO466276  43.921  16.683   5.864
 5213POPC   GL166277  43.846  16.707   6.164
 5213POPC   GL266278  43.879  16.597   6.164
 5213POPC   C1A66279  43.852  16.771   6.464
 5213POPC   D2A66280  43.846  16.754   6.764
 5213POPC   C3A66281  43.867  16.713   7.064
 5213POPC   C4A66282  43.840  16.704   7.364
 5213POPC   C1B66283  43.968  16.481   6.464
 5213POPC   C2B66284  43.949  16.436   6.764
 5213POPC   C3B66285  43.945  16.526   7.064
 5213POPC   C4B66286  43.881  16.438   7.364
 5214POPC   NC366287   0.409  20.655   5.564
 5214POPC   PO466288   0.431  20.571   5.864
 5214POPC   GL166289   0.398  20.642   6.164
 5214POPC   GL266290   0.454  20.484   6.164
 5214POPC   C1A66291   0.400  20.588   6.464
 5214POPC   D2A66292   0.465  20.630   6.764
 5214POPC   C3A66293   0.408  20.562   7.064
 5214POPC   C4A66294   0.483  20.626   7.364
 5214POPC   C1B66295   0.479  20.358   6.464
 5214POPC   C2B66296   0.461  20.392   6.764
 5214POPC   C3B66297   0.482  20.413   7.064
 5214POPC   C4B66298   0.516  20.368   7.364
 5215POPC   NC366299  30.721  19.039   5.564
 5215POPC   PO466300  30.733  19.066   5.864
 5215POPC   GL166301  30.718  19.024   6.164
 5215POPC   GL266302  30.580  18.981   6.164
 5215POPC   C1A66303  30.722  19.038   6.464
 5215POPC   D2A66304  30.674  19.032   6.764
 5215POPC   C3A66305  30.649  19.057   7.064
 5215POPC   C4A66306  30.691  19.053   7.364
 5215POPC   C1B66307  30.561  18.866   6.464
 5215POPC   C2B66308  30.504  18.891   6.764
 5215POPC   C3B66309  30.473  18.845   7.064
 5215POPC   C4B66310  30.528  18.854   7.364
 5216POPC   NC366311  16.725  28.417   5.564
 5216POPC   PO466312  16.749  28.352   5.864
 5216POPC   GL166313  16.696  28.414   6.164
 5216POPC   GL266314  16.647  28.370   6.164
 5216POPC   C1A66315  16.750  28.417   6.464
 5216POPC   D2A66316  16.769  28.403   6.764
 5216POPC   C3A66317  16.718  28.362   7.064
 5216POPC   C4A66318  16.704  28.353   7.364
 5216POPC   C1B66319  16.517  28.323   6.464
 5216POPC   C2B66320  16.464  28.290   6.764
 5216POPC   C3B66321  16.507  28.358   7.064
 5216POPC   C4B66322  16.480  28.362   7.364
 5217POPC   NC366323  22.925   6.604   5.564
 5217POPC   PO466324  22.919   6.665   5.864
 5217POPC   GL166325  22.925   6.653   6.164
 5217POPC   GL266326  22.827   6.601   6.164
 5217POPC   C1A66327  22.983   6.687   6.464
 5217POPC   D2A66328  22.924   6.670   6.764
 5217POPC   C3A66329  22.964   6.601   7.064
 5217POPC   C4A66330  22.956   6.606   7.364
 5217POPC   C1B66331  22.691   6.513   6.464
 5217POPC   C2B66332  22.762   6.520   6.764
 5217POPC   C3B66333  22.762   6.545   7.064
 5217POPC   C4B66334  22.763   6.472   7.364
 5218POPC   NC366335  15.948   9.728   5.564
 5218POPC   PO466336  15.959   9.727   5.864
 5218POPC   GL166337  15.949   9.711   6.164
 5218POPC   GL266338  15.881   9.863   6.164
 5218POPC   C1A66339  15.936   9.777   6.464
 5218POPC   D2A66340  15.945   9.780   6.764
 5218POPC   C3A66341  15.911   9.772   7.064
 5218POPC   C4A66342  15.951   9.749   7.364
 5218POPC   C1B66343  15.782   9.965   6.464
 5218POPC   C2B66344  15.804   9.965   6.764
 5218POPC   C3B66345  15.796   9.918   7.064
 5218POPC   C4B66346  15.817   9.920   7.364
 5219POPC   NC366347   1.986   3.566   5.564
 5219POPC   PO466348   2.015   3.523   5.864
 5219POPC   GL166349   1.995   3.568   6.164
 5219POPC   GL266350   2.137   3.548   6.164
 5219POPC   C1A66351   1.983   3.496   6.464
 5219POPC   D2A66352   2.016   3.551   6.764
 5219POPC   C3A66353   1.962   3.511   7.064
 5219POPC   C4A66354   1.986   3.495   7.364
 5219POPC   C1B66355   2.220   3.549   6.464
 5219POPC   C2B66356   2.242   3.550   6.764
 5219POPC   C3B66357   2.253   3.544   7.064
 5219POPC   C4B66358   2.190   3.462   7.364
 5220POPC   NC366359  44.676   7.434   5.564
 5220POPC   PO466360  44.689   7.444   5.864
 5220POPC   GL166361  44.617   7.373   6.164
 5220POPC   GL266362  44.569   7.308   6.164
 5220POPC   C1A66363  44.618   7.450   6.464
 5220POPC   D2A66364  44.693   7.400   6.764
 5220POPC   C3A66365  44.620   7.466   7.064
 5220POPC   C4A66366  44.621   7.404   7.364
 5220POPC   C1B66367  44.573   7.155   6.464
 5220POPC   C2B66368  44.528   7.239   6.764
 5220POPC   C3B66369  44.551   7.182   7.064
 5220POPC   C4B66370  44.594   7.185   7.364
 5221POPC   NC366371  17.478  44.659   5.564
 5221POPC   PO466372  17.522  44.686   5.864
 5221POPC   GL166373  17.548  44.661   6.164
 5221POPC   GL266374  17.547  44.613   6.164
 5221POPC   C1A66375  17.503  44.633   6.464
 5221POPC   D2A66376  17.523  44.708   6.764
 5221POPC   C3A66377  17.516  44.679   7.064
 5221POPC   C4A66378  17.515  44.645   7.364
 5221POPC   C1B66379  17.661  44.453   6.464
 5221POPC   C2B66380  17.713  44.516   6.764
 5221POPC   C3B66381  17.674  44.480   7.064
 5221POPC   C4B66382  17.633  44.487   7.364
 5222POPC   NC366383  32.251  21.343   5.564
 5222POPC   PO466384  32.214  21.400   5.864
 5222POPC   GL166385  32.294  21.403   6.164
 5222POPC   GL266386  32.344  21.486   6.164
 5222POPC   C1A66387  32.290  21.430   6.464
 5222POPC   D2A66388  32.262  21.436   6.764
 5222POPC   C3A66389  32.224  21.385   7.064
 5222POPC   C4A66390  32.279  21.356   7.364
 5222POPC   C1B66391  32.397  21.575   6.464
 5222POPC   C2B66392  32.412  21.622   6.764
 5222POPC   C3B66393  32.415  21.607   7.064
 5222POPC   C4B66394  32.346  21.605   7.364
 5223POPC   NC366395  17.530  43.838   5.564
 5223POPC   PO466396  17.473  43.889   5.864
 5223POPC   GL166397  17.502  43.888   6.164
 5223POPC   GL266398  17.360  43.868   6.164
 5223POPC   C1A66399  17.462  43.872   6.464
 5223POPC   D2A66400  17.546  43.852   6.764
 5223POPC   C3A66401  17.474  43.836   7.064
 5223POPC   C4A66402  17.476  43.879   7.364
 5223POPC   C1B66403  17.213  43.911   6.464
 5223POPC   C2B66404  17.298  43.850   6.764
 5223POPC   C3B66405  17.298  43.929   7.064
 5223POPC   C4B66406  17.228  43.902   7.364
 5224POPC   NC366407   1.213  11.330   5.564
 5224POPC   PO466408   1.210  11.328   5.864
 5224POPC   GL166409   1.244  11.316   6.164
 5224POPC   GL266410   1.089  11.306   6.164
 5224POPC   C1A66411   1.211  11.289   6.464
 5224POPC   D2A66412   1.247  11.306   6.764
 5224POPC   C3A66413   1.239  11.340   7.064
 5224POPC   C4A66414   1.175  11.339   7.364
 5224POPC   C1B66415   0.962  11.366   6.464
 5224POPC   C2B66416   0.994  11.447   6.764
 5224POPC   C3B66417   0.968  11.385   7.064
 5224POPC   C4B66418   0.943  11.416   7.364
 5225POPC   NC366419  15.976  18.272   5.564
 5225POPC   PO466420  15.960  18.292   5.864
 5225POPC   GL166421  15.939  18.313   6.164
 5225POPC   GL266422  15.826  18.394   6.164
 5225POPC   C1A66423  15.950  18.306   6.464
 5225POPC   D2A66424  15.981  18.271   6.764
 5225POPC   C3A66425  15.954  18.332   7.064
 5225POPC   C4A66426  15.926  18.320   7.364
 5225POPC   C1B66427  15.765  18.490   6.464
 5225POPC   C2B66428  15.776  18.453   6.764
 5225POPC   C3B66429  15.758  18.478   7.064
 5225POPC   C4B66430  15.746  18.450   7.364
 5226POPC   NC366431  26.079  20.594   5.564
 5226POPC   PO466432  26.056  20.568   5.864
 5226POPC   GL166433  26.015  20.589   6.164
 5226POPC   GL266434  25.915  20.580   6.164
 5226POPC   C1A66435  26.012  20.607   6.464
 5226POPC   D2A66436  26.079  20.624   6.764
 5226POPC   C3A66437  26.062  20.614   7.064
 5226POPC   C4A66438  26.054  20.580   7.364
 5226POPC   C1B66439  25.856  20.424   6.464
 5226POPC   C2B66440  25.859  20.479   6.764
 5226POPC   C3B66441  25.869  20.478   7.064
 5226POPC   C4B66442  25.884  20.415   7.364
 5227POPC   NC366443   8.223  42.302   5.564
 5227POPC   PO466444   8.201  42.373   5.864
 5227POPC   GL166445   8.212  42.356   6.164
 5227POPC   GL266446   8.218  42.406   6.164
 5227POPC   C1A66447   8.246  42.332   6.464
 5227POPC   D2A66448   8.176  42.291   6.764
 5227POPC   C3A66449   8.156  42.375   7.064
 5227POPC   C4A66450   8.172  42.369   7.364
 5227POPC   C1B66451   8.309  42.554   6.464
 5227POPC   C2B66452   8.369  42.531   6.764
 5227POPC   C3B66453   8.322  42.584   7.064
 5227POPC   C4B66454   8.332  42.495   7.364
 5228POPC   NC366455  42.343  40.053   5.564
 5228POPC   PO466456  42.344  39.995   5.864
 5228POPC   GL166457  42.375  40.042   6.164
 5228POPC   GL266458  42.238  40.113   6.164
 5228POPC   C1A66459  42.355  39.967   6.464
 5228POPC   D2A66460  42.359  40.018   6.764
 5228POPC   C3A66461  42.319  39.960   7.064
 5228POPC   C4A66462  42.375  40.050   7.364
 5228POPC   C1B66463  42.165  40.215   6.464
 5228POPC   C2B66464  42.144  40.258   6.764
 5228POPC   C3B66465  42.150  40.215   7.064
 5228POPC   C4B66466  42.187  40.171   7.364
 5229POPC   NC366467  19.845  40.803   5.564
 5229POPC   PO466468  19.787  40.813   5.864
 5229POPC   GL166469  19.880  40.735   6.164
 5229POPC   GL266470  19.961  40.667   6.164
 5229POPC   C1A66471  19.871  40.820   6.464
 5229POPC   D2A66472  19.793  40.829   6.764
 5229POPC   C3A66473  19.846  40.782   7.064
 5229POPC   C4A66474  19.825  40.798   7.364
 5229POPC   C1B66475  19.975  40.560   6.464
 5229POPC   C2B66476  20.007  40.591   6.764
 5229POPC   C3B66477  20.005  40.626   7.064
 5229POPC   C4B66478  19.986  40.659   7.364
 5230POPC   NC366479   0.470   8.999   5.564
 5230POPC   PO466480   0.432   8.991   5.864
 5230POPC   GL166481   0.427   9.006   6.164
 5230POPC   GL266482   0.338   8.997   6.164
 5230POPC   C1A66483   0.451   9.005   6.464
 5230POPC   D2A66484   0.435   8.947   6.764
 5230POPC   C3A66485   0.401   8.973   7.064
 5230POPC   C4A66486   0.437   8.953   7.364
 5230POPC   C1B66487   0.200   9.149   6.464
 5230POPC   C2B66488   0.236   9.089   6.764
 5230POPC   C3B66489   0.251   9.084   7.064
 5230POPC   C4B66490   0.217   9.110   7.364
 5231POPC   NC366491  24.537  29.102   5.564
 5231POPC   PO466492  24.506  29.144   5.864
 5231POPC   GL166493  24.493  29.191   6.164
 5231POPC   GL266494  24.449  29.276   6.164
 5231POPC   C1A66495  24.514  29.114   6.464
 5231POPC   D2A66496  24.519  29.161   6.764
 5231POPC   C3A66497  24.471  29.113   7.064
 5231POPC   C4A66498  24.486  29.118   7.364
 5231POPC   C1B66499  24.345  29.368   6.464
 5231POPC   C2B66500  24.354  29.314   6.764
 5231POPC   C3B66501  24.326  29.320   7.064
 5231POPC   C4B66502  24.407  29.331   7.364
 5232POPC   NC366503  26.020  36.917   5.564
 5232POPC   PO466504  26.081  36.932   5.864
 5232POPC   GL166505  26.001  36.935   6.164
 5232POPC   GL266506  26.015  37.070   6.164
 5232POPC   C1A66507  26.005  36.862   6.464
 5232POPC   D2A66508  26.037  36.938   6.764
 5232POPC   C3A66509  26.083  36.948   7.064
 5232POPC   C4A66510  26.020  36.936   7.364
 5232POPC   C1B66511  26.107  37.106   6.464
 5232POPC   C2B66512  26.066  37.158   6.764
 5232POPC   C3B66513  26.113  37.145   7.064
 5232POPC   C4B66514  26.074  37.130   7.364
 5233POPC   NC366515   6.599   5.863   5.564
 5233POPC   PO466516   6.598   5.911   5.864
 5233POPC   GL166517   6.639   5.890   6.164
 5233POPC   GL266518   6.542   5.844   6.164
 5233POPC   C1A66519   6.620   5.896   6.464
 5233POPC   D2A66520   6.680   5.835   6.764
 5233POPC   C3A66521   6.641   5.830   7.064
 5233POPC   C4A66522   6.637   5.831   7.364
 5233POPC   C1B66523   6.406   5.892   6.464
 5233POPC   C2B66524   6.397   5.851   6.764
 5233POPC   C3B66525   6.422   5.845   7.064
 5233POPC   C4B66526   6.358   5.883   7.364
 5234POPC   NC366527  19.025  20.624   5.564
 5234POPC   PO466528  19.040  20.601   5.864
 5234POPC   GL166529  19.048  20.657   6.164
 5234POPC   GL266530  18.985  20.697   6.164
 5234POPC   C1A66531  19.105  20.640   6.464
 5234POPC   D2A66532  19.023  20.626   6.764
 5234POPC   C3A66533  19.053  20.612   7.064
 5234POPC   C4A66534  19.079  20.586   7.364
 5234POPC   C1B66535  18.837  20.662   6.464
 5234POPC   C2B66536  18.869  20.706   6.764
 5234POPC   C3B66537  18.830  20.732   7.064
 5234POPC   C4B66538  18.847  20.674   7.364
 5235POPC   NC366539  40.021  43.899   5.564
 5235POPC   PO466540  39.993  43.893   5.864
 5235POPC   GL166541  39.975  43.918   6.164
 5235POPC   GL266542  40.002  43.979   6.164
 5235POPC   C1A66543  39.986  43.931   6.464
 5235POPC   D2A66544  39.971  43.866   6.764
 5235POPC   C3A66545  40.005  43.936   7.064
 5235POPC   C4A66546  40.005  43.879   7.364
 5235POPC   C1B66547  39.935  44.111   6.464
 5235POPC   C2B66548  39.947  44.148   6.764
 5235POPC   C3B66549  39.965  44.141   7.064
 5235POPC   C4B66550  39.922  44.169   7.364
 5236POPC   NC366551   2.027   2.791   5.564
 5236POPC   PO466552   1.970   2.738   5.864
 5236POPC   GL166553   2.016   2.722   6.164
 5236POPC   GL266554   1.883   2.636   6.164
 5236POPC   C1A66555   2.005   2.794   6.464
 5236POPC   D2A66556   2.025   2.722   6.764
 5236POPC   C3A66557   1.987   2.725   7.064
 5236POPC   C4A66558   1.990   2.758   7.364
 5236POPC   C1B66559   1.861   2.523   6.464
 5236POPC   C2B66560   1.907   2.586   6.764
 5236POPC   C3B66561   1.825   2.546   7.064
 5236POPC   C4B66562   1.904   2.566   7.364
 5237POPC   NC366563  19.052  26.016   5.564
 5237POPC   PO466564  19.091  26.070   5.864
 5237POPC   GL166565  19.053  26.039   6.164
 5237POPC   GL266566  19.133  26.125   6.164
 5237POPC   C1A66567  19.099  26.024   6.464
 5237POPC   D2A66568  19.090  26.087   6.764
 5237POPC   C3A66569  19.092  26.035   7.064
 5237POPC   C4A66570  19.099  26.080   7.364
 5237POPC   C1B66571  19.160  26.290   6.464
 5237POPC   C2B66572  19.136  26.209   6.764
 5237POPC   C3B66573  19.163  26.223   7.064
 5237POPC   C4B66574  19.161  26.211   7.364
 5238POPC   NC366575  41.597  38.500   5.564
 5238POPC   PO466576  41.511  38.417   5.864
 5238POPC   GL166577  41.539  38.466   6.164
 5238POPC   GL266578  41.558  38.598   6.164
 5238POPC   C1A66579  41.532  38.409   6.464
 5238POPC   D2A66580  41.594  38.456   6.764
 5238POPC   C3A66581  41.510  38.445   7.064
 5238POPC   C4A66582  41.518  38.406   7.364
 5238POPC   C1B66583  41.659  38.702   6.464
 5238POPC   C2B66584  41.617  38.735   6.764
 5238POPC   C3B66585  41.678  38.722   7.064
 5238POPC   C4B66586  41.599  38.693   7.364
 5239POPC   NC366587  28.355  22.150   5.564
 5239POPC   PO466588  28.389  22.134   5.864
 5239POPC   GL166589  28.367  22.172   6.164
 5239POPC   GL266590  28.316  22.316   6.164
 5239POPC   C1A66591  28.351  22.159   6.464
 5239POPC   D2A66592  28.365  22.211   6.764
 5239POPC   C3A66593  28.391  22.207   7.064
 5239POPC   C4A66594  28.339  22.193   7.364
 5239POPC   C1B66595  28.350  22.397   6.464
 5239POPC   C2B66596  28.376  22.446   6.764
 5239POPC   C3B66597  28.380  22.446   7.064
 5239POPC   C4B66598  28.332  22.414   7.364
 5240POPC   NC366599   1.194  34.599   5.564
 5240POPC   PO466600   1.232  34.544   5.864
 5240POPC   GL166601   1.211  34.604   6.164
 5240POPC   GL266602   1.145  34.674   6.164
 5240POPC   C1A66603   1.168  34.573   6.464
 5240POPC   D2A66604   1.237  34.574   6.764
 5240POPC   C3A66605   1.218  34.546   7.064
 5240POPC   C4A66606   1.213  34.547   7.364
 5240POPC   C1B66607   1.131  34.809   6.464
 5240POPC   C2B66608   1.077  34.798   6.764
 5240POPC   C3B66609   1.071  34.800   7.064
 5240POPC   C4B66610   1.036  34.764   7.364
 5241POPC   NC366611  33.831  22.178   5.564
 5241POPC   PO466612  33.793  22.137   5.864
 5241POPC   GL166613  33.841  22.153   6.164
 5241POPC   GL266614  33.776  22.248   6.164
 5241POPC   C1A66615  33.816  22.126   6.464
 5241POPC   D2A66616  33.805  22.183   6.764
 5241POPC   C3A66617  33.833  22.179   7.064
 5241POPC   C4A66618  33.795  22.136   7.364
 5241POPC   C1B66619  33.653  22.374   6.464
 5241POPC   C2B66620  33.688  22.353   6.764
 5241POPC   C3B66621  33.643  22.358   7.064
 5241POPC   C4B66622  33.623  22.384   7.364
 5242POPC   NC366623   8.968  43.088   5.564
 5242POPC   PO466624   9.016  43.134   5.864
 5242POPC   GL166625   8.971  43.107   6.164
 5242POPC   GL266626   9.031  43.043   6.164
 5242POPC   C1A66627   9.012  43.158   6.464
 5242POPC   D2A66628   9.013  43.100   6.764
 5242POPC   C3A66629   9.014  43.119   7.064
 5242POPC   C4A66630   8.972  43.116   7.364
 5242POPC   C1B66631   9.104  42.951   6.464
 5242POPC   C2B66632   9.151  42.911   6.764
 5242POPC   C3B66633   9.142  42.884   7.064
 5242POPC   C4B66634   9.167  42.947   7.364
 5243POPC   NC366635  40.016  18.301   5.564
 5243POPC   PO466636  40.038  18.297   5.864
 5243POPC   GL166637  40.005  18.251   6.164
 5243POPC   GL266638  39.973  18.439   6.164
 5243POPC   C1A66639  40.000  18.257   6.464
 5243POPC   D2A66640  40.050  18.317   6.764
 5243POPC   C3A66641  40.047  18.287   7.064
 5243POPC   C4A66642  39.963  18.270   7.364
 5243POPC   C1B66643  39.913  18.524   6.464
 5243POPC   C2B66644  39.994  18.533   6.764
 5243POPC   C3B66645  39.965  18.540   7.064
 5243POPC   C4B66646  39.909  18.564   7.364
 5244POPC   NC366647  32.244  33.041   5.564
 5244POPC   PO466648  32.282  33.053   5.864
 5244POPC   GL166649  32.275  33.007   6.164
 5244POPC   GL266650  32.155  33.169   6.164
 5244POPC   C1A66651  32.235  33.040   6.464
 5244POPC   D2A66652  32.295  33.057   6.764
 5244POPC   C3A66653  32.284  33.015   7.064
 5244POPC   C4A66654  32.282  33.070   7.364
 5244POPC   C1B66655  32.083  33.200   6.464
 5244POPC   C2B66656  32.068  33.254   6.764
 5244POPC   C3B66657  32.134  33.210   7.064
 5244POPC   C4B66658  32.086  33.206   7.364
 5245POPC   NC366659  37.710  14.375   5.564
 5245POPC   PO466660  37.707  14.409   5.864
 5245POPC   GL166661  37.640  14.416   6.164
 5245POPC   GL266662  37.767  14.483   6.164
 5245POPC   C1A66663  37.719  14.370   6.464
 5245POPC   D2A66664  37.704  14.355   6.764
 5245POPC   C3A66665  37.681  14.358   7.064
 5245POPC   C4A66666  37.677  14.447   7.364
 5245POPC   C1B66667  37.900  14.512   6.464
 5245POPC   C2B66668  37.876  14.456   6.764
 5245POPC   C3B66669  37.937  14.500   7.064
 5245POPC   C4B66670  37.922  14.489   7.364
 5246POPC   NC366671   1.990  24.539   5.564
 5246POPC   PO466672   2.005  24.489   5.864
 5246POPC   GL166673   2.000  24.447   6.164
 5246POPC   GL266674   1.877  24.473   6.164
 5246POPC   C1A66675   1.992  24.444   6.464
 5246POPC   D2A66676   2.009  24.529   6.764
 5246POPC   C3A66677   2.031  24.501   7.064
 5246POPC   C4A66678   1.951  24.464   7.364
 5246POPC   C1B66679   1.704  24.508   6.464
 5246POPC   C2B66680   1.709  24.512   6.764
 5246POPC   C3B66681   1.757  24.500   7.064
 5246POPC   C4B66682   1.731  24.424   7.364
 5247POPC   NC366683  27.560  14.432   5.564
 5247POPC   PO466684  27.621  14.418   5.864
 5247POPC   GL166685  27.559  14.422   6.164
 5247POPC   GL266686  27.549  14.291   6.164
 5247POPC   C1A66687  27.574  14.415   6.464
 5247POPC   D2A66688  27.602  14.428   6.764
 5247POPC   C3A66689  27.557  14.388   7.064
 5247POPC   C4A66690  27.590  14.448   7.364
 5247POPC   C1B66691  27.502  14.171   6.464
 5247POPC   C2B66692  27.527  14.173   6.764
 5247POPC   C3B66693  27.445  14.167   7.064
 5247POPC   C4B66694  27.445  14.151   7.364
 5248POPC   NC366695  19.802  35.401   5.564
 5248POPC   PO466696  19.803  35.345   5.864
 5248POPC   GL166697  19.808  35.350   6.164
 5248POPC   GL266698  19.981  35.318   6.164
 5248POPC   C1A66699  19.847  35.332   6.464
 5248POPC   D2A66700  19.881  35.365   6.764
 5248POPC   C3A66701  19.857  35.337   7.064
 5248POPC   C4A66702  19.879  35.314   7.364
 5248POPC   C1B66703  20.043  35.279   6.464
 5248POPC   C2B66704  20.089  35.366   6.764
 5248POPC   C3B66705  20.116  35.316   7.064
 5248POPC   C4B66706  20.118  35.348   7.364
 5249POPC   NC366707  23.671   7.445   5.564
 5249POPC   PO466708  23.755   7.384   5.864
 5249POPC   GL166709  23.749   7.423   6.164
 5249POPC   GL266710  23.805   7.539   6.164
 5249POPC   C1A66711  23.721   7.418   6.464
 5249POPC   D2A66712  23.743   7.468   6.764
 5249POPC   C3A66713  23.664   7.398   7.064
 5249POPC   C4A66714  23.707   7.452   7.364
 5249POPC   C1B66715  23.870   7.607   6.464
 5249POPC   C2B66716  23.867   7.668   6.764
 5249POPC   C3B66717  23.868   7.675   7.064
 5249POPC   C4B66718  23.850   7.676   7.364
 5250POPC   NC366719   4.274  31.471   5.564
 5250POPC   PO466720   4.277  31.482   5.864
 5250POPC   GL166721   4.342  31.437   6.164
 5250POPC   GL266722   4.407  31.356   6.164
 5250POPC   C1A66723   4.285  31.508   6.464
 5250POPC   D2A66724   4.289  31.497   6.764
 5250POPC   C3A66725   4.342  31.511   7.064
 5250POPC   C4A66726   4.311  31.505   7.364
 5250POPC   C1B66727   4.432  31.207   6.464
 5250POPC   C2B66728   4.390  31.266   6.764
 5250POPC   C3B66729   4.430  31.289   7.064
 5250POPC   C4B66730   4.379  31.252   7.364
 5251POPC   NC366731  19.848  39.185   5.564
 5251POPC   PO466732  19.862  39.183   5.864
 5251POPC   GL166733  19.826  39.258   6.164
 5251POPC   GL266734  19.704  39.305   6.164
 5251POPC   C1A66735  19.857  39.271   6.464
 5251POPC   D2A66736  19.863  39.273   6.764
 5251POPC   C3A66737  19.816  39.188   7.064
 5251POPC   C4A66738  19.848  39.214   7.364
 5251POPC   C1B66739  19.637  39.401   6.464
 5251POPC   C2B66740  19.650  39.337   6.764
 5251POPC   C3B66741  19.589  39.324   7.064
 5251POPC   C4B66742  19.600  39.397   7.364
 5252POPC   NC366743  36.146   6.634   5.564
 5252POPC   PO466744  36.126   6.631   5.864
 5252POPC   GL166745  36.099   6.622   6.164
 5252POPC   GL266746  36.236   6.639   6.164
 5252POPC   C1A66747  36.105   6.678   6.464
 5252POPC   D2A66748  36.159   6.647   6.764
 5252POPC   C3A66749  36.108   6.654   7.064
 5252POPC   C4A66750  36.109   6.645   7.364
 5252POPC   C1B66751  36.409   6.619   6.464
 5252POPC   C2B66752  36.336   6.619   6.764
 5252POPC   C3B66753  36.374   6.705   7.064
 5252POPC   C4B66754  36.399   6.690   7.364
 5253POPC   NC366755   4.360  36.945   5.564
 5253POPC   PO466756   4.345  36.930   5.864
 5253POPC   GL166757   4.296  36.862   6.164
 5253POPC   GL266758   4.451  36.794   6.164
 5253POPC   C1A66759   4.306  36.870   6.464
 5253POPC   D2A66760   4.298  36.900   6.764
 5253POPC   C3A66761   4.327  36.930   7.064
 5253POPC   C4A66762   4.293  36.914   7.364
 5253POPC   C1B66763   4.518  36.807   6.464
 5253POPC   C2B66764   4.496  36.750   6.764
 5253POPC   C3B66765   4.478  36.749   7.064
 5253POPC   C4B66766   4.497  36.734   7.364
 5254POPC   NC366767   5.115  15.911   5.564
 5254POPC   PO466768   5.054  15.966   5.864
 5254POPC   GL166769   5.095  15.906   6.164
 5254POPC   GL266770   5.025  15.964   6.164
 5254POPC   C1A66771   5.136  15.961   6.464
 5254POPC   D2A66772   5.047  15.914   6.764
 5254POPC   C3A66773   5.051  15.924   7.064
 5254POPC   C4A66774   5.088  15.905   7.364
 5254POPC   C1B66775   4.847  16.088   6.464
 5254POPC   C2B66776   4.898  16.084   6.764
 5254POPC   C3B66777   4.867  16.023   7.064
 5254POPC   C4B66778   4.842  16.009   7.364
 5255POPC   NC366779  19.858  17.483   5.564
 5255POPC   PO466780  19.822  17.519   5.864
 5255POPC   GL166781  19.813  17.544   6.164
 5255POPC   GL266782  19.944  17.405   6.164
 5255POPC   C1A66783  19.876  17.477   6.464
 5255POPC   D2A66784  19.809  17.479   6.764
 5255POPC   C3A66785  19.852  17.498   7.064
 5255POPC   C4A66786  19.882  17.504   7.364
 5255POPC   C1B66787  19.995  17.290   6.464
 5255POPC   C2B66788  20.007  17.341   6.764
 5255POPC   C3B66789  19.999  17.308   7.064
 5255POPC   C4B66790  19.991  17.302   7.364
 5256POPC   NC366791   4.324  28.409   5.564
 5256POPC   PO466792   4.355  28.377   5.864
 5256POPC   GL166793   4.351  28.383   6.164
 5256POPC   GL266794   4.429  28.403   6.164
 5256POPC   C1A66795   4.342  28.400   6.464
 5256POPC   D2A66796   4.358  28.392   6.764
 5256POPC   C3A66797   4.315  28.389   7.064
 5256POPC   C4A66798   4.303  28.401   7.364
 5256POPC   C1B66799   4.539  28.481   6.464
 5256POPC   C2B66800   4.503  28.515   6.764
 5256POPC   C3B66801   4.576  28.479   7.064
 5256POPC   C4B66802   4.542  28.506   7.364
 5257POPC   NC366803   7.413  30.666   5.564
 5257POPC   PO466804   7.392  30.740   5.864
 5257POPC   GL166805   7.434  30.730   6.164
 5257POPC   GL266806   7.385  30.577   6.164
 5257POPC   C1A66807   7.456  30.671   6.464
 5257POPC   D2A66808   7.463  30.689   6.764
 5257POPC   C3A66809   7.411  30.696   7.064
 5257POPC   C4A66810   7.467  30.670   7.364
 5257POPC   C1B66811   7.382  30.436   6.464
 5257POPC   C2B66812   7.309  30.427   6.764
 5257POPC   C3B66813   7.316  30.493   7.064
 5257POPC   C4B66814   7.295  30.478   7.364
 5258POPC   NC366815  24.537   4.351   5.564
 5258POPC   PO466816  24.504   4.312   5.864
 5258POPC   GL166817  24.454   4.268   6.164
 5258POPC   GL266818  24.592   4.362   6.164
 5258POPC   C1A66819  24.524   4.338   6.464
 5258POPC   D2A66820  24.530   4.309   6.764
 5258POPC   C3A66821  24.525   4.359   7.064
 5258POPC   C4A66822  24.500   4.337   7.364
 5258POPC   C1B66823  24.663   4.482   6.464
 5258POPC   C2B66824  24.719   4.461   6.764
 5258POPC   C3B66825  24.702   4.474   7.064
 5258POPC   C4B66826  24.688   4.513   7.364
 5259POPC   NC366827   1.960   1.167   5.564
 5259POPC   PO466828   1.986   1.186   5.864
 5259POPC   GL166829   1.959   1.250   6.164
 5259POPC   GL266830   1.895   1.256   6.164
 5259POPC   C1A66831   1.961   1.225   6.464
 5259POPC   D2A66832   2.025   1.165   6.764
 5259POPC   C3A66833   1.980   1.224   7.064
 5259POPC   C4A66834   2.010   1.250   7.364
 5259POPC   C1B66835   1.764   1.251   6.464
 5259POPC   C2B66836   1.761   1.256   6.764
 5259POPC   C3B66837   1.761   1.264   7.064
 5259POPC   C4B66838   1.763   1.237   7.364
 5260POPC   NC366839   2.018  21.414   5.564
 5260POPC   PO466840   2.034  21.339   5.864
 5260POPC   GL166841   2.008  21.397   6.164
 5260POPC   GL266842   1.896  21.351   6.164
 5260POPC   C1A66843   2.006  21.383   6.464
 5260POPC   D2A66844   1.969  21.426   6.764
 5260POPC   C3A66845   1.957  21.394   7.064
 5260POPC   C4A66846   1.964  21.391   7.364
 5260POPC   C1B66847   1.767  21.232   6.464
 5260POPC   C2B66848   1.803  21.256   6.764
 5260POPC   C3B66849   1.772  21.284   7.064
 5260POPC   C4B66850   1.748  21.269   7.364
 5261POPC   NC366851  11.269  43.895   5.564
 5261POPC   PO466852  11.319  43.866   5.864
 5261POPC   GL166853  11.347  43.924   6.164
 5261POPC   GL266854  11.344  43.729   6.164
 5261POPC   C1A66855  11.349  43.870   6.464
 5261POPC   D2A66856  11.322  43.922   6.764
 5261POPC   C3A66857  11.343  43.879   7.064
 5261POPC   C4A66858  11.290  43.902   7.364
 5261POPC   C1B66859  11.370  43.679   6.464
 5261POPC   C2B66860  11.321  43.590   6.764
 5261POPC   C3B66861  11.308  43.621   7.064
 5261POPC   C4B66862  11.307  43.661   7.364
 5262POPC   NC366863  36.143   4.268   5.564
 5262POPC   PO466864  36.090   4.286   5.864
 5262POPC   GL166865  36.119   4.282   6.164
 5262POPC   GL266866  36.122   4.172   6.164
 5262POPC   C1A66867  36.107   4.278   6.464
 5262POPC   D2A66868  36.146   4.297   6.764
 5262POPC   C3A66869  36.095   4.312   7.064
 5262POPC   C4A66870  36.124   4.330   7.364
 5262POPC   C1B66871  36.196   4.064   6.464
 5262POPC   C2B66872  36.123   4.025   6.764
 5262POPC   C3B66873  36.204   4.071   7.064
 5262POPC   C4B66874  36.125   4.043   7.364
 5263POPC   NC366875  34.539  17.533   5.564
 5263POPC   PO466876  34.620  17.462   5.864
 5263POPC   GL166877  34.616  17.497   6.164
 5263POPC   GL266878  34.498  17.471   6.164
 5263POPC   C1A66879  34.569  17.545   6.464
 5263POPC   D2A66880  34.589  17.504   6.764
 5263POPC   C3A66881  34.612  17.488   7.064
 5263POPC   C4A66882  34.563  17.529   7.364
 5263POPC   C1B66883  34.393  17.374   6.464
 5263POPC   C2B66884  34.342  17.392   6.764
 5263POPC   C3B66885  34.389  17.383   7.064
 5263POPC   C4B66886  34.378  17.328   7.364
 5264POPC   NC366887  12.860  36.113   5.564
 5264POPC   PO466888  12.847  36.100   5.864
 5264POPC   GL166889  12.848  36.156   6.164
 5264POPC   GL266890  12.699  36.182   6.164
 5264POPC   C1A66891  12.898  36.087   6.464
 5264POPC   D2A66892  12.859  36.110   6.764
 5264POPC   C3A66893  12.833  36.173   7.064
 5264POPC   C4A66894  12.841  36.143   7.364
 5264POPC   C1B66895  12.623  36.183   6.464
 5264POPC   C2B66896  12.573  36.184   6.764
 5264POPC   C3B66897  12.586  36.204   7.064
 5264POPC   C4B66898  12.620  36.187   7.364
 5265POPC   NC366899  22.207  36.884   5.564
 5265POPC   PO466900  22.132  36.901   5.864
 5265POPC   GL166901  22.136  36.930   6.164
 5265POPC   GL266902  22.103  36.961   6.164
 5265POPC   C1A66903  22.212  36.922   6.464
 5265POPC   D2A66904  22.126  36.900   6.764
 5265POPC   C3A66905  22.163  36.946   7.064
 5265POPC   C4A66906  22.129  36.861   7.364
 5265POPC   C1B66907  21.946  37.047   6.464
 5265POPC   C2B66908  21.919  37.032   6.764
 5265POPC   C3B66909  22.008  37.010   7.064
 5265POPC   C4B66910  21.981  37.030   7.364
 5266POPC   NC366911  41.531   5.838   5.564
 5266POPC   PO466912  41.540   5.848   5.864
 5266POPC   GL166913  41.582   5.873   6.164
 5266POPC   GL266914  41.502   5.779   6.164
 5266POPC   C1A66915  41.537   5.861   6.464
 5266POPC   D2A66916  41.534   5.854   6.764
 5266POPC   C3A66917  41.562   5.877   7.064
 5266POPC   C4A66918  41.589   5.908   7.364
 5266POPC   C1B66919  41.481   5.662   6.464
 5266POPC   C2B66920  41.556   5.662   6.764
 5266POPC   C3B66921  41.540   5.579   7.064
 5266POPC   C4B66922  41.487   5.633   7.364
 5267POPC   NC366923  27.579   5.890   5.564
 5267POPC   PO466924  27.599   5.839   5.864
 5267POPC   GL166925  27.551   5.917   6.164
 5267POPC   GL266926  27.503   5.772   6.164
 5267POPC   C1A66927  27.599   5.824   6.464
 5267POPC   D2A66928  27.614   5.891   6.764
 5267POPC   C3A66929  27.544   5.873   7.064
 5267POPC   C4A66930  27.612   5.848   7.364
 5267POPC   C1B66931  27.425   5.695   6.464
 5267POPC   C2B66932  27.414   5.630   6.764
 5267POPC   C3B66933  27.399   5.715   7.064
 5267POPC   C4B66934  27.445   5.643   7.364
 5268POPC   NC366935  29.872  15.950   5.564
 5268POPC   PO466936  29.874  15.944   5.864
 5268POPC   GL166937  29.962  15.992   6.164
 5268POPC   GL266938  30.002  16.032   6.164
 5268POPC   C1A66939  29.871  15.937   6.464
 5268POPC   D2A66940  29.967  15.935   6.764
 5268POPC   C3A66941  29.948  15.944   7.064
 5268POPC   C4A66942  29.933  16.002   7.364
 5268POPC   C1B66943  30.122  16.182   6.464
 5268POPC   C2B66944  30.114  16.185   6.764
 5268POPC   C3B66945  30.123  16.105   7.064
 5268POPC   C4B66946  30.118  16.106   7.364
 5269POPC   NC366947  24.516  36.099   5.564
 5269POPC   PO466948  24.487  36.165   5.864
 5269POPC   GL166949  24.475  36.099   6.164
 5269POPC   GL266950  24.629  36.131   6.164
 5269POPC   C1A66951  24.489  36.116   6.464
 5269POPC   D2A66952  24.538  36.125   6.764
 5269POPC   C3A66953  24.501  36.152   7.064
 5269POPC   C4A66954  24.460  36.159   7.364
 5269POPC   C1B66955  24.755  36.144   6.464
 5269POPC   C2B66956  24.758  36.151   6.764
 5269POPC   C3B66957  24.696  36.122   7.064
 5269POPC   C4B66958  24.772  36.110   7.364
 5270POPC   NC366959  42.316  30.654   5.564
 5270POPC   PO466960  42.378  30.743   5.864
 5270POPC   GL166961  42.315  30.707   6.164
 5270POPC   GL266962  42.473  30.781   6.164
 5270POPC   C1A66963  42.291  30.674   6.464
 5270POPC   D2A66964  42.345  30.700   6.764
 5270POPC   C3A66965  42.312  30.741   7.064
 5270POPC   C4A66966  42.379  30.676   7.364
 5270POPC   C1B66967  42.570  30.775   6.464
 5270POPC   C2B66968  42.541  30.747   6.764
 5270POPC   C3B66969  42.524  30.820   7.064
 5270POPC   C4B66970  42.535  30.813   7.364
 5271POPC   NC366971  34.597   5.834   5.564
 5271POPC   PO466972  34.584   5.847   5.864
 5271POPC   GL166973  34.623   5.842   6.164
 5271POPC   GL266974  34.708   5.778   6.164
 5271POPC   C1A66975  34.595   5.839   6.464
 5271POPC   D2A66976  34.530   5.884   6.764
 5271POPC   C3A66977  34.611   5.838   7.064
 5271POPC   C4A66978  34.620   5.845   7.364
 5271POPC   C1B66979  34.771   5.773   6.464
 5271POPC   C2B66980  34.805   5.782   6.764
 5271POPC   C3B66981  34.782   5.713   7.064
 5271POPC   C4B66982  34.829   5.719   7.364
 5272POPC   NC366983   0.412   8.169   5.564
 5272POPC   PO466984   0.477   8.242   5.864
 5272POPC   GL166985   0.400   8.163   6.164
 5272POPC   GL266986   0.481   8.052   6.164
 5272POPC   C1A66987   0.434   8.221   6.464
 5272POPC   D2A66988   0.389   8.196   6.764
 5272POPC   C3A66989   0.416   8.177   7.064
 5272POPC   C4A66990   0.397   8.189   7.364
 5272POPC   C1B66991   0.464   7.933   6.464
 5272POPC   C2B66992   0.554   7.955   6.764
 5272POPC   C3B66993   0.546   7.916   7.064
 5272POPC   C4B66994   0.459   7.954   7.364
 5273POPC   NC366995   6.607  39.216   5.564
 5273POPC   PO466996   6.635  39.189   5.864
 5273POPC   GL166997   6.695  39.242   6.164
 5273POPC   GL266998   6.695  39.328   6.164
 5273POPC   C1A66999   6.633  39.270   6.464
 5273POPC   D2A67000   6.632  39.280   6.764
 5273POPC   C3A67001   6.653  39.280   7.064
 5273POPC   C4A67002   6.693  39.234   7.364
 5273POPC   C1B67003   6.634  39.477   6.464
 5273POPC   C2B67004   6.639  39.495   6.764
 5273POPC   C3B67005   6.647  39.473   7.064
 5273POPC   C4B67006   6.634  39.487   7.364
 5274POPC   NC367007   8.165  43.918   5.564
 5274POPC   PO467008   8.230  43.878   5.864
 5274POPC   GL167009   8.174  43.859   6.164
 5274POPC   GL267010   8.124  43.848   6.164
 5274POPC   C1A67011   8.208  43.894   6.464
 5274POPC   D2A67012   8.232  43.932   6.764
 5274POPC   C3A67013   8.147  43.858   7.064
 5274POPC   C4A67014   8.188  43.877   7.364
 5274POPC   C1B67015   8.029  43.748   6.464
 5274POPC   C2B67016   7.964  43.672   6.764
 5274POPC   C3B67017   8.001  43.761   7.064
 5274POPC   C4B67018   8.013  43.699   7.364
 5275POPC   NC367019  10.572  19.085   5.564
 5275POPC   PO467020  10.533  19.088   5.864
 5275POPC   GL167021  10.567  19.052   6.164
 5275POPC   GL267022  10.655  19.136   6.164
 5275POPC   C1A67023  10.538  19.072   6.464
 5275POPC   D2A67024  10.567  19.100   6.764
 5275POPC   C3A67025  10.531  19.036   7.064
 5275POPC   C4A67026  10.538  19.099   7.364
 5275POPC   C1B67027  10.765  19.245   6.464
 5275POPC   C2B67028  10.705  19.166   6.764
 5275POPC   C3B67029  10.721  19.180   7.064
 5275POPC   C4B67030  10.771  19.200   7.364
 5276POPC   NC367031  24.452  43.909   5.564
 5276POPC   PO467032  24.455  43.919   5.864
 5276POPC   GL167033  24.460  43.847   6.164
 5276POPC   GL267034  24.549  43.965   6.164
 5276POPC   C1A67035  24.450  43.845   6.464
 5276POPC   D2A67036  24.446  43.910   6.764
 5276POPC   C3A67037  24.481  43.901   7.064
 5276POPC   C4A67038  24.526  43.876   7.364
 5276POPC   C1B67039  24.591  44.140   6.464
 5276POPC   C2B67040  24.578  44.117   6.764
 5276POPC   C3B67041  24.596  44.171   7.064
 5276POPC   C4B67042  24.613  44.163   7.364
 5277POPC   NC367043  26.776  29.101   5.564
 5277POPC   PO467044  26.858  29.155   5.864
 5277POPC   GL167045  26.800  29.132   6.164
 5277POPC   GL267046  26.675  29.119   6.164
 5277POPC   C1A67047  26.809  29.132   6.464
 5277POPC   D2A67048  26.799  29.182   6.764
 5277POPC   C3A67049  26.862  29.174   7.064
 5277POPC   C4A67050  26.861  29.114   7.364
 5277POPC   C1B67051  26.614  29.129   6.464
 5277POPC   C2B67052  26.545  29.190   6.764
 5277POPC   C3B67053  26.549  29.163   7.064
 5277POPC   C4B67054  26.546  29.191   7.364
 5278POPC   NC367055  36.898  29.902   5.564
 5278POPC   PO467056  36.930  29.908   5.864
 5278POPC   GL167057  36.930  29.940   6.164
 5278POPC   GL267058  37.000  29.918   6.164
 5278POPC   C1A67059  36.869  29.884   6.464
 5278POPC   D2A67060  36.900  29.905   6.764
 5278POPC   C3A67061  36.874  29.911   7.064
 5278POPC   C4A67062  36.950  29.939   7.364
 5278POPC   C1B67063  37.162  29.896   6.464
 5278POPC   C2B67064  37.125  29.894   6.764
 5278POPC   C3B67065  37.185  29.802   7.064
 5278POPC   C4B67066  37.119  29.828   7.364
 5279POPC   NC367067  29.896  41.522   5.564
 5279POPC   PO467068  29.897  41.537   5.864
 5279POPC   GL167069  29.887  41.583   6.164
 5279POPC   GL267070  29.988  41.610   6.164
 5279POPC   C1A67071  29.931  41.580   6.464
 5279POPC   D2A67072  29.941  41.556   6.764
 5279POPC   C3A67073  29.907  41.517   7.064
 5279POPC   C4A67074  29.969  41.536   7.364
 5279POPC   C1B67075  30.143  41.724   6.464
 5279POPC   C2B67076  30.180  41.728   6.764
 5279POPC   C3B67077  30.177  41.669   7.064
 5279POPC   C4B67078  30.095  41.695   7.364
 5280POPC   NC367079  17.475  12.810   5.564
 5280POPC   PO467080  17.503  12.896   5.864
 5280POPC   GL167081  17.478  12.866   6.164
 5280POPC   GL267082  17.367  12.887   6.164
 5280POPC   C1A67083  17.457  12.805   6.464
 5280POPC   D2A67084  17.457  12.865   6.764
 5280POPC   C3A67085  17.489  12.875   7.064
 5280POPC   C4A67086  17.498  12.877   7.364
 5280POPC   C1B67087  17.295  13.053   6.464
 5280POPC   C2B67088  17.274  13.046   6.764
 5280POPC   C3B67089  17.276  13.036   7.064
 5280POPC   C4B67090  17.310  13.058   7.364
 5281POPC   NC367091  27.568   8.942   5.564
 5281POPC   PO467092  27.627   8.937   5.864
 5281POPC   GL167093  27.643   8.957   6.164
 5281POPC   GL267094  27.654   9.057   6.164
 5281POPC   C1A67095  27.566   8.935   6.464
 5281POPC   D2A67096  27.600   8.955   6.764
 5281POPC   C3A67097  27.550   9.020   7.064
 5281POPC   C4A67098  27.599   8.976   7.364
 5281POPC   C1B67099  27.706   9.176   6.464
 5281POPC   C2B67100  27.708   9.209   6.764
 5281POPC   C3B67101  27.723   9.176   7.064
 5281POPC   C4B67102  27.674   9.213   7.364
 5282POPC   NC367103   1.253   0.478   5.564
 5282POPC   PO467104   1.201   0.404   5.864
 5282POPC   GL167105   1.259   0.433   6.164
 5282POPC   GL267106   1.311   0.573   6.164
 5282POPC   C1A67107   1.190   0.422   6.464
 5282POPC   D2A67108   1.225   0.422   6.764
 5282POPC   C3A67109   1.229   0.433   7.064
 5282POPC   C4A67110   1.202   0.391   7.364
 5282POPC   C1B67111   1.411   0.655   6.464
 5282POPC   C2B67112   1.382   0.622   6.764
 5282POPC   C3B67113   1.408   0.622   7.064
 5282POPC   C4B67114   1.427   0.631   7.364
 5283POPC   NC367115  31.502  15.985   5.564
 5283POPC   PO467116  31.429  15.983   5.864
 5283POPC   GL167117  31.436  15.955   6.164
 5283POPC   GL267118  31.298  15.980   6.164
 5283POPC   C1A67119  31.440  15.909   6.464
 5283POPC   D2A67120  31.431  15.977   6.764
 5283POPC   C3A67121  31.509  15.918   7.064
 5283POPC   C4A67122  31.424  15.950   7.364
 5283POPC   C1B67123  31.202  15.933   6.464
 5283POPC   C2B67124  31.175  15.937   6.764
 5283POPC   C3B67125  31.254  15.892   7.064
 5283POPC   C4B67126  31.183  15.941   7.364
 5284POPC   NC367127   5.901   5.090   5.564
 5284POPC   PO467128   5.913   5.064   5.864
 5284POPC   GL167129   5.859   5.046   6.164
 5284POPC   GL267130   6.027   5.032   6.164
 5284POPC   C1A67131   5.819   5.062   6.464
 5284POPC   D2A67132   5.833   5.046   6.764
 5284POPC   C3A67133   5.905   5.058   7.064
 5284POPC   C4A67134   5.839   5.064   7.364
 5284POPC   C1B67135   6.155   5.023   6.464
 5284POPC   C2B67136   6.068   5.058   6.764
 5284POPC   C3B67137   6.101   5.091   7.064
 5284POPC   C4B67138   6.085   5.070   7.364
 5285POPC   NC367139  36.133  36.855   5.564
 5285POPC   PO467140  36.099  36.885   5.864
 5285POPC   GL167141  36.171  36.928   6.164
 5285POPC   GL267142  35.999  36.945   6.164
 5285POPC   C1A67143  36.173  36.889   6.464
 5285POPC   D2A67144  36.151  36.921   6.764
 5285POPC   C3A67145  36.086  36.875   7.064
 5285POPC   C4A67146  36.133  36.936   7.364
 5285POPC   C1B67147  35.952  37.025   6.464
 5285POPC   C2B67148  35.884  37.074   6.764
 5285POPC   C3B67149  35.887  37.057   7.064
 5285POPC   C4B67150  35.885  36.996   7.364
 5286POPC   NC367151  20.649  30.679   5.564
 5286POPC   PO467152  20.630  30.667   5.864
 5286POPC   GL167153  20.581  30.710   6.164
 5286POPC   GL267154  20.712  30.798   6.164
 5286POPC   C1A67155  20.614  30.692   6.464
 5286POPC   D2A67156  20.631  30.700   6.764
 5286POPC   C3A67157  20.583  30.676   7.064
 5286POPC   C4A67158  20.592  30.697   7.364
 5286POPC   C1B67159  20.785  30.840   6.464
 5286POPC   C2B67160  20.803  30.778   6.764
 5286POPC   C3B67161  20.870  30.785   7.064
 5286POPC   C4B67162  20.858  30.794   7.364
 5287POPC   NC367163   5.914  33.783   5.564
 5287POPC   PO467164   5.828  33.829   5.864
 5287POPC   GL167165   5.826  33.798   6.164
 5287POPC   GL267166   5.963  33.820   6.164
 5287POPC   C1A67167   5.855  33.785   6.464
 5287POPC   D2A67168   5.883  33.806   6.764
 5287POPC   C3A67169   5.826  33.822   7.064
 5287POPC   C4A67170   5.888  33.797   7.364
 5287POPC   C1B67171   6.072  33.927   6.464
 5287POPC   C2B67172   6.061  33.931   6.764
 5287POPC   C3B67173   6.081  33.860   7.064
 5287POPC   C4B67174   6.100  33.850   7.364
 5288POPC   NC367175  12.076  19.030   5.564
 5288POPC   PO467176  12.069  19.010   5.864
 5288POPC   GL167177  12.032  19.029   6.164
 5288POPC   GL267178  11.998  19.037   6.164
 5288POPC   C1A67179  12.089  19.019   6.464
 5288POPC   D2A67180  12.034  19.022   6.764
 5288POPC   C3A67181  12.083  19.100   7.064
 5288POPC   C4A67182  12.057  19.031   7.364
 5288POPC   C1B67183  11.909  18.934   6.464
 5288POPC   C2B67184  11.869  18.941   6.764
 5288POPC   C3B67185  11.857  18.892   7.064
 5288POPC   C4B67186  11.819  18.929   7.364
 5289POPC   NC367187  44.668  19.820   5.564
 5289POPC   PO467188  44.688  19.785   5.864
 5289POPC   GL167189  44.646  19.852   6.164
 5289POPC   GL267190  44.580  19.756   6.164
 5289POPC   C1A67191  44.674  19.842   6.464
 5289POPC   D2A67192  44.687  19.802   6.764
 5289POPC   C3A67193  44.637  19.816   7.064
 5289POPC   C4A67194  44.642  19.795   7.364
 5289POPC   C1B67195  44.497  19.678   6.464
 5289POPC   C2B67196  44.464  19.623   6.764
 5289POPC   C3B67197  44.459  19.610   7.064
 5289POPC   C4B67198  44.466  19.644   7.364
 5290POPC   NC367199  16.750  22.158   5.564
 5290POPC   PO467200  16.756  22.137   5.864
 5290POPC   GL167201  16.708  22.159   6.164
 5290POPC   GL267202  16.816  22.078   6.164
 5290POPC   C1A67203  16.775  22.143   6.464
 5290POPC   D2A67204  16.755  22.167   6.764
 5290POPC   C3A67205  16.752  22.200   7.064
 5290POPC   C4A67206  16.778  22.197   7.364
 5290POPC   C1B67207  16.832  21.970   6.464
 5290POPC   C2B67208  16.826  21.940   6.764
 5290POPC   C3B67209  16.826  21.962   7.064
 5290POPC   C4B67210  16.853  21.944   7.364
 5291POPC   NC367211  36.894  30.661   5.564
 5291POPC   PO467212  36.904  30.663   5.864
 5291POPC   GL167213  36.858  30.696   6.164
 5291POPC   GL267214  36.976  30.774   6.164
 5291POPC   C1A67215  36.878  30.722   6.464
 5291POPC   D2A67216  36.891  30.674   6.764
 5291POPC   C3A67217  36.923  30.720   7.064
 5291POPC   C4A67218  36.857  30.710   7.364
 5291POPC   C1B67219  37.149  30.718   6.464
 5291POPC   C2B67220  37.191  30.744   6.764
 5291POPC   C3B67221  37.171  30.783   7.064
 5291POPC   C4B67222  37.138  30.717   7.364
 5292POPC   NC367223  43.097  15.983   5.564
 5292POPC   PO467224  43.159  15.968   5.864
 5292POPC   GL167225  43.093  16.004   6.164
 5292POPC   GL267226  43.086  15.819   6.164
 5292POPC   C1A67227  43.110  15.997   6.464
 5292POPC   D2A67228  43.148  15.988   6.764
 5292POPC   C3A67229  43.118  15.913   7.064
 5292POPC   C4A67230  43.077  15.954   7.364
 5292POPC   C1B67231  43.083  15.707   6.464
 5292POPC   C2B67232  43.087  15.751   6.764
 5292POPC   C3B67233  43.073  15.748   7.064
 5292POPC   C4B67234  43.105  15.749   7.364
 5293POPC   NC367235  43.863   9.756   5.564
 5293POPC   PO467236  43.889   9.798   5.864
 5293POPC   GL167237  43.894   9.760   6.164
 5293POPC   GL267238  43.803   9.700   6.164
 5293POPC   C1A67239  43.901   9.772   6.464
 5293POPC   D2A67240  43.837   9.732   6.764
 5293POPC   C3A67241  43.918   9.795   7.064
 5293POPC   C4A67242  43.851   9.772   7.364
 5293POPC   C1B67243  43.675   9.565   6.464
 5293POPC   C2B67244  43.674   9.634   6.764
 5293POPC   C3B67245  43.664   9.647   7.064
 5293POPC   C4B67246  43.649   9.560   7.364
 5294POPC   NC367247  35.342  43.075   5.564
 5294POPC   PO467248  35.391  43.072   5.864
 5294POPC   GL167249  35.337  43.101   6.164
 5294POPC   GL267250  35.410  43.151   6.164
 5294POPC   C1A67251  35.380  43.089   6.464
 5294POPC   D2A67252  35.307  43.119   6.764
 5294POPC   C3A67253  35.367  43.127   7.064
 5294POPC   C4A67254  35.370  43.143   7.364
 5294POPC   C1B67255  35.532  43.250   6.464
 5294POPC   C2B67256  35.572  43.303   6.764
 5294POPC   C3B67257  35.572  43.264   7.064
 5294POPC   C4B67258  35.549  43.324   7.364
 5295POPC   NC367259   7.384   0.443   5.564
 5295POPC   PO467260   7.440   0.447   5.864
 5295POPC   GL167261   7.444   0.453   6.164
 5295POPC   GL267262   7.270   0.384   6.164
 5295POPC   C1A67263   7.451   0.465   6.464
 5295POPC   D2A67264   7.432   0.438   6.764
 5295POPC   C3A67265   7.373   0.482   7.064
 5295POPC   C4A67266   7.382   0.442   7.364
 5295POPC   C1B67267   7.146   0.347   6.464
 5295POPC   C2B67268   7.224   0.421   6.764
 5295POPC   C3B67269   7.217   0.430   7.064
 5295POPC   C4B67270   7.204   0.408   7.364
 5296POPC   NC367271   1.998  29.887   5.564
 5296POPC   PO467272   1.950  29.898   5.864
 5296POPC   GL167273   1.974  29.941   6.164
 5296POPC   GL267274   1.924  30.048   6.164
 5296POPC   C1A67275   1.969  29.914   6.464
 5296POPC   D2A67276   2.007  29.960   6.764
 5296POPC   C3A67277   2.016  29.931   7.064
 5296POPC   C4A67278   2.037  29.960   7.364
 5296POPC   C1B67279   1.953  30.124   6.464
 5296POPC   C2B67280   1.906  30.118   6.764
 5296POPC   C3B67281   1.948  30.184   7.064
 5296POPC   C4B67282   1.904  30.196   7.364
 5297POPC   NC367283  40.000   5.842   5.564
 5297POPC   PO467284  39.981   5.892   5.864
 5297POPC   GL167285  40.017   5.845   6.164
 5297POPC   GL267286  39.932   5.864   6.164
 5297POPC   C1A67287  40.007   5.866   6.464
 5297POPC   D2A67288  40.025   5.836   6.764
 5297POPC   C3A67289  39.996   5.840   7.064
 5297POPC   C4A67290  39.997   5.908   7.364
 5297POPC   C1B67291  39.785   5.898   6.464
 5297POPC   C2B67292  39.742   5.899   6.764
 5297POPC   C3B67293  39.797   5.901   7.064
 5297POPC   C4B67294  39.729   5.887   7.364
 5298POPC   NC367295  32.229  43.881   5.564
 5298POPC   PO467296  32.230  43.906   5.864
 5298POPC   GL167297  32.241  43.934   6.164
 5298POPC   GL267298  32.272  44.021   6.164
 5298POPC   C1A67299  32.235  43.879   6.464
 5298POPC   D2A67300  32.226  43.841   6.764
 5298POPC   C3A67301  32.203  43.912   7.064
 5298POPC   C4A67302  32.221  43.910   7.364
 5298POPC   C1B67303  32.229  44.119   6.464
 5298POPC   C2B67304  32.240  44.105   6.764
 5298POPC   C3B67305  32.225  44.115   7.064
 5298POPC   C4B67306  32.255  44.170   7.364
 5299POPC   NC367307   0.448   0.458   5.564
 5299POPC   PO467308   0.487   0.436   5.864
 5299POPC   GL167309   0.447   0.394   6.164
 5299POPC   GL267310   0.465   0.347   6.164
 5299POPC   C1A67311   0.433   0.463   6.464
 5299POPC   D2A67312   0.438   0.393   6.764
 5299POPC   C3A67313   0.453   0.473   7.064
 5299POPC   C4A67314   0.418   0.458   7.364
 5299POPC   C1B67315   0.577   0.179   6.464
 5299POPC   C2B67316   0.524   0.188   6.764
 5299POPC   C3B67317   0.563   0.213   7.064
 5299POPC   C4B67318   0.580   0.196   7.364
 5300POPC   NC367319  10.478  37.706   5.564
 5300POPC   PO467320  10.499  37.639   5.864
 5300POPC   GL167321  10.545  37.693   6.164
 5300POPC   GL267322  10.466  37.787   6.164
 5300POPC   C1A67323  10.550  37.715   6.464
 5300POPC   D2A67324  10.528  37.685   6.764
 5300POPC   C3A67325  10.514  37.708   7.064
 5300POPC   C4A67326  10.489  37.643   7.364
 5300POPC   C1B67327  10.456  37.887   6.464
 5300POPC   C2B67328  10.506  37.938   6.764
 5300POPC   C3B67329  10.475  37.938   7.064
 5300POPC   C4B67330  10.445  37.878   7.364
 5301POPC   NC367331  20.580  37.650   5.564
 5301POPC   PO467332  20.572  37.654   5.864
 5301POPC   GL167333  20.643  37.655   6.164
 5301POPC   GL267334  20.769  37.684   6.164
 5301POPC   C1A67335  20.641  37.729   6.464
 5301POPC   D2A67336  20.632  37.659   6.764
 5301POPC   C3A67337  20.606  37.655   7.064
 5301POPC   C4A67338  20.577  37.677   7.364
 5301POPC   C1B67339  20.857  37.732   6.464
 5301POPC   C2B67340  20.868  37.758   6.764
 5301POPC   C3B67341  20.874  37.704   7.064
 5301POPC   C4B67342  20.816  37.715   7.364
 5302POPC   NC367343  31.456   5.906   5.564
 5302POPC   PO467344  31.499   5.851   5.864
 5302POPC   GL167345  31.432   5.901   6.164
 5302POPC   GL267346  31.572   5.859   6.164
 5302POPC   C1A67347  31.465   5.845   6.464
 5302POPC   D2A67348  31.451   5.822   6.764
 5302POPC   C3A67349  31.439   5.840   7.064
 5302POPC   C4A67350  31.468   5.888   7.364
 5302POPC   C1B67351  31.711   5.876   6.464
 5302POPC   C2B67352  31.673   5.892   6.764
 5302POPC   C3B67353  31.746   5.824   7.064
 5302POPC   C4B67354  31.766   5.808   7.364
 5303POPC   NC367355  37.720   1.216   5.564
 5303POPC   PO467356  37.663   1.209   5.864
 5303POPC   GL167357  37.728   1.181   6.164
 5303POPC   GL267358  37.834   1.163   6.164
 5303POPC   C1A67359  37.694   1.180   6.464
 5303POPC   D2A67360  37.637   1.256   6.764
 5303POPC   C3A67361  37.679   1.237   7.064
 5303POPC   C4A67362  37.721   1.183   7.364
 5303POPC   C1B67363  37.867   1.104   6.464
 5303POPC   C2B67364  37.921   1.128   6.764
 5303POPC   C3B67365  37.920   1.036   7.064
 5303POPC   C4B67366  37.849   1.074   7.364
 5304POPC   NC367367   1.174  30.745   5.564
 5304POPC   PO467368   1.203  30.652   5.864
 5304POPC   GL167369   1.186  30.714   6.164
 5304POPC   GL267370   1.101  30.748   6.164
 5304POPC   C1A67371   1.219  30.742   6.464
 5304POPC   D2A67372   1.261  30.673   6.764
 5304POPC   C3A67373   1.170  30.675   7.064
 5304POPC   C4A67374   1.183  30.710   7.364
 5304POPC   C1B67375   0.961  30.708   6.464
 5304POPC   C2B67376   0.983  30.677   6.764
 5304POPC   C3B67377   0.959  30.683   7.064
 5304POPC   C4B67378   0.978  30.670   7.364
 5305POPC   NC367379  30.692  42.322   5.564
 5305POPC   PO467380  30.726  42.338   5.864
 5305POPC   GL167381  30.732  42.347   6.164
 5305POPC   GL267382  30.571  42.235   6.164
 5305POPC   C1A67383  30.735  42.327   6.464
 5305POPC   D2A67384  30.712  42.370   6.764
 5305POPC   C3A67385  30.669  42.323   7.064
 5305POPC   C4A67386  30.742  42.365   7.364
 5305POPC   C1B67387  30.527  42.128   6.464
 5305POPC   C2B67388  30.561  42.129   6.764
 5305POPC   C3B67389  30.508  42.160   7.064
 5305POPC   C4B67390  30.551  42.149   7.364
 5306POPC   NC367391  36.939   1.213   5.564
 5306POPC   PO467392  36.938   1.251   5.864
 5306POPC   GL167393  36.869   1.171   6.164
 5306POPC   GL267394  36.883   1.072   6.164
 5306POPC   C1A67395  36.924   1.233   6.464
 5306POPC   D2A67396  36.857   1.187   6.764
 5306POPC   C3A67397  36.929   1.184   7.064
 5306POPC   C4A67398  36.924   1.241   7.364
 5306POPC   C1B67399  36.875   0.923   6.464
 5306POPC   C2B67400  36.911   0.960   6.764
 5306POPC   C3B67401  36.898   0.941   7.064
 5306POPC   C4B67402  36.879   0.951   7.364
 5307POPC   NC367403  12.083  37.685   5.564
 5307POPC   PO467404  12.059  37.669   5.864
 5307POPC   GL167405  12.043  37.662   6.164
 5307POPC   GL267406  12.093  37.532   6.164
 5307POPC   C1A67407  12.032  37.637   6.464
 5307POPC   D2A67408  12.122  37.721   6.764
 5307POPC   C3A67409  12.123  37.712   7.064
 5307POPC   C4A67410  12.090  37.637   7.364
 5307POPC   C1B67411  11.988  37.452   6.464
 5307POPC   C2B67412  11.999  37.425   6.764
 5307POPC   C3B67413  11.999  37.459   7.064
 5307POPC   C4B67414  11.971  37.416   7.364
 5308POPC   NC367415  34.527   5.085   5.564
 5308POPC   PO467416  34.580   5.065   5.864
 5308POPC   GL167417  34.579   5.066   6.164
 5308POPC   GL267418  34.593   5.246   6.164
 5308POPC   C1A67419  34.548   5.087   6.464
 5308POPC   D2A67420  34.562   5.110   6.764
 5308POPC   C3A67421  34.555   5.089   7.064
 5308POPC   C4A67422  34.592   5.089   7.364
 5308POPC   C1B67423  34.516   5.311   6.464
 5308POPC   C2B67424  34.539   5.324   6.764
 5308POPC   C3B67425  34.580   5.382   7.064
 5308POPC   C4B67426  34.550   5.342   7.364
 5309POPC   NC367427  22.907  31.456   5.564
 5309POPC   PO467428  22.982  31.479   5.864
 5309POPC   GL167429  22.919  31.513   6.164
 5309POPC   GL267430  22.835  31.466   6.164
 5309POPC   C1A67431  22.948  31.471   6.464
 5309POPC   D2A67432  22.924  31.460   6.764
 5309POPC   C3A67433  22.958  31.513   7.064
 5309POPC   C4A67434  22.891  31.489   7.364
 5309POPC   C1B67435  22.673  31.497   6.464
 5309POPC   C2B67436  22.681  31.449   6.764
 5309POPC   C3B67437  22.738  31.411   7.064
 5309POPC   C4B67438  22.690  31.484   7.364
 5310POPC   NC367439   3.497  13.593   5.564
 5310POPC   PO467440   3.498  13.654   5.864
 5310POPC   GL167441   3.547  13.623   6.164
 5310POPC   GL267442   3.378  13.588   6.164
 5310POPC   C1A67443   3.510  13.600   6.464
 5310POPC   D2A67444   3.582  13.646   6.764
 5310POPC   C3A67445   3.583  13.645   7.064
 5310POPC   C4A67446   3.556  13.638   7.364
 5310POPC   C1B67447   3.248  13.614   6.464
 5310POPC   C2B67448   3.260  13.641   6.764
 5310POPC   C3B67449   3.272  13.581   7.064
 5310POPC   C4B67450   3.265  13.558   7.364
 5311POPC   NC367451  14.414  37.690   5.564
 5311POPC   PO467452  14.366  37.633   5.864
 5311POPC   GL167453  14.424  37.699   6.164
 5311POPC   GL267454  14.401  37.753   6.164
 5311POPC   C1A67455  14.452  37.650   6.464
 5311POPC   D2A67456  14.399  37.694   6.764
 5311POPC   C3A67457  14.425  37.660   7.064
 5311POPC   C4A67458  14.383  37.645   7.364
 5311POPC   C1B67459  14.483  37.929   6.464
 5311POPC   C2B67460  14.488  37.949   6.764
 5311POPC   C3B67461  14.515  37.913   7.064
 5311POPC   C4B67462  14.524  37.897   7.364
 5312POPC   NC367463  22.204  11.332   5.564
 5312POPC   PO467464  22.159  11.257   5.864
 5312POPC   GL167465  22.163  11.334   6.164
 5312POPC   GL267466  22.086  11.367   6.164
 5312POPC   C1A67467  22.137  11.326   6.464
 5312POPC   D2A67468  22.182  11.254   6.764
 5312POPC   C3A67469  22.139  11.265   7.064
 5312POPC   C4A67470  22.132  11.325   7.364
 5312POPC   C1B67471  22.006  11.490   6.464
 5312POPC   C2B67472  22.046  11.461   6.764
 5312POPC   C3B67473  22.047  11.460   7.064
 5312POPC   C4B67474  21.992  11.506   7.364
 5313POPC   NC367475  29.096  33.760   5.564
 5313POPC   PO467476  29.173  33.753   5.864
 5313POPC   GL167477  29.181  33.843   6.164
 5313POPC   GL267478  29.091  33.903   6.164
 5313POPC   C1A67479  29.101  33.766   6.464
 5313POPC   D2A67480  29.132  33.772   6.764
 5313POPC   C3A67481  29.129  33.807   7.064
 5313POPC   C4A67482  29.122  33.776   7.364
 5313POPC   C1B67483  29.099  34.063   6.464
 5313POPC   C2B67484  29.094  34.045   6.764
 5313POPC   C3B67485  29.070  34.032   7.064
 5313POPC   C4B67486  29.135  34.084   7.364
 5314POPC   NC367487  21.338  29.952   5.564
 5314POPC   PO467488  21.414  29.911   5.864
 5314POPC   GL167489  21.434  29.917   6.164
 5314POPC   GL267490  21.498  29.956   6.164
 5314POPC   C1A67491  21.381  29.914   6.464
 5314POPC   D2A67492  21.407  29.925   6.764
 5314POPC   C3A67493  21.336  29.911   7.064
 5314POPC   C4A67494  21.354  29.898   7.364
 5314POPC   C1B67495  21.632  30.023   6.464
 5314POPC   C2B67496  21.610  29.986   6.764
 5314POPC   C3B67497  21.580  29.993   7.064
 5314POPC   C4B67498  21.604  30.050   7.364
 5315POPC   NC367499  19.076  24.464   5.564
 5315POPC   PO467500  19.079  24.451   5.864
 5315POPC   GL167501  19.073  24.528   6.164
 5315POPC   GL267502  19.216  24.537   6.164
 5315POPC   C1A67503  19.051  24.514   6.464
 5315POPC   D2A67504  19.079  24.478   6.764
 5315POPC   C3A67505  19.039  24.453   7.064
 5315POPC   C4A67506  19.077  24.530   7.364
 5315POPC   C1B67507  19.349  24.506   6.464
 5315POPC   C2B67508  19.298  24.533   6.764
 5315POPC   C3B67509  19.352  24.554   7.064
 5315POPC   C4B67510  19.324  24.544   7.364
 5316POPC   NC367511   1.215  10.477   5.564
 5316POPC   PO467512   1.262  10.545   5.864
 5316POPC   GL167513   1.224  10.483   6.164
 5316POPC   GL267514   1.144  10.469   6.164
 5316POPC   C1A67515   1.192  10.571   6.464
 5316POPC   D2A67516   1.181  10.555   6.764
 5316POPC   C3A67517   1.168  10.523   7.064
 5316POPC   C4A67518   1.251  10.562   7.364
 5316POPC   C1B67519   1.102  10.341   6.464
 5316POPC   C2B67520   1.056  10.313   6.764
 5316POPC   C3B67521   1.051  10.346   7.064
 5316POPC   C4B67522   1.052  10.303   7.364
 5317POPC   NC367523  37.728  20.597   5.564
 5317POPC   PO467524  37.681  20.634   5.864
 5317POPC   GL167525  37.671  20.655   6.164
 5317POPC   GL267526  37.831  20.657   6.164
 5317POPC   C1A67527  37.672  20.643   6.464
 5317POPC   D2A67528  37.706  20.617   6.764
 5317POPC   C3A67529  37.696  20.646   7.064
 5317POPC   C4A67530  37.671  20.607   7.364
 5317POPC   C1B67531  37.892  20.566   6.464
 5317POPC   C2B67532  37.898  20.608   6.764
 5317POPC   C3B67533  37.913  20.570   7.064
 5317POPC   C4B67534  37.896  20.601   7.364
 5318POPC   NC367535  40.783  16.707   5.564
 5318POPC   PO467536  40.827  16.714   5.864
 5318POPC   GL167537  40.781  16.772   6.164
 5318POPC   GL267538  40.850  16.688   6.164
 5318POPC   C1A67539  40.801  16.691   6.464
 5318POPC   D2A67540  40.737  16.693   6.764
 5318POPC   C3A67541  40.796  16.751   7.064
 5318POPC   C4A67542  40.740  16.754   7.364
 5318POPC   C1B67543  41.014  16.552   6.464
 5318POPC   C2B67544  40.966  16.580   6.764
 5318POPC   C3B67545  40.944  16.556   7.064
 5318POPC   C4B67546  40.970  16.620   7.364
 5319POPC   NC367547  15.954   0.441   5.564
 5319POPC   PO467548  15.907   0.482   5.864
 5319POPC   GL167549  15.923   0.476   6.164
 5319POPC   GL267550  16.054   0.476   6.164
 5319POPC   C1A67551  15.997   0.435   6.464
 5319POPC   D2A67552  15.985   0.438   6.764
 5319POPC   C3A67553  15.939   0.427   7.064
 5319POPC   C4A67554  16.005   0.423   7.364
 5319POPC   C1B67555  16.155   0.610   6.464
 5319POPC   C2B67556  16.122   0.582   6.764
 5319POPC   C3B67557  16.178   0.622   7.064
 5319POPC   C4B67558  16.115   0.546   7.364
 5320POPC   NC367559  13.646   0.440   5.564
 5320POPC   PO467560  13.637   0.409   5.864
 5320POPC   GL167561  13.619   0.445   6.164
 5320POPC   GL267562  13.480   0.476   6.164
 5320POPC   C1A67563  13.651   0.474   6.464
 5320POPC   D2A67564  13.621   0.390   6.764
 5320POPC   C3A67565  13.666   0.475   7.064
 5320POPC   C4A67566  13.635   0.463   7.364
 5320POPC   C1B67567  13.366   0.483   6.464
 5320POPC   C2B67568  13.384   0.471   6.764
 5320POPC   C3B67569  13.392   0.455   7.064
 5320POPC   C4B67570  13.337   0.469   7.364
 5321POPC   NC367571   9.002  25.228   5.564
 5321POPC   PO467572   8.924  25.260   5.864
 5321POPC   GL167573   8.952  25.221   6.164
 5321POPC   GL267574   9.090  25.132   6.164
 5321POPC   C1A67575   8.967  25.303   6.464
 5321POPC   D2A67576   8.939  25.238   6.764
 5321POPC   C3A67577   8.964  25.238   7.064
 5321POPC   C4A67578   9.009  25.224   7.364
 5321POPC   C1B67579   9.072  25.051   6.464
 5321POPC   C2B67580   9.106  25.087   6.764
 5321POPC   C3B67581   9.115  25.056   7.064
 5321POPC   C4B67582   9.143  25.073   7.364
 5322POPC   NC367583  25.274   2.029   5.564
 5322POPC   PO467584  25.226   1.959   5.864
 5322POPC   GL167585  25.236   1.969   6.164
 5322POPC   GL267586  25.206   2.136   6.164
 5322POPC   C1A67587  25.240   2.012   6.464
 5322POPC   D2A67588  25.232   1.984   6.764
 5322POPC   C3A67589  25.257   1.991   7.064
 5322POPC   C4A67590  25.233   2.024   7.364
 5322POPC   C1B67591  25.167   2.266   6.464
 5322POPC   C2B67592  25.152   2.277   6.764
 5322POPC   C3B67593  25.229   2.220   7.064
 5322POPC   C4B67594  25.215   2.263   7.364
 5323POPC   NC367595   9.751  24.466   5.564
 5323POPC   PO467596   9.771  24.448   5.864
 5323POPC   GL167597   9.759  24.487   6.164
 5323POPC   GL267598   9.740  24.610   6.164
 5323POPC   C1A67599   9.769  24.505   6.464
 5323POPC   D2A67600   9.738  24.465   6.764
 5323POPC   C3A67601   9.705  24.491   7.064
 5323POPC   C4A67602   9.731  24.516   7.364
 5323POPC   C1B67603   9.779  24.740   6.464
 5323POPC   C2B67604   9.800  24.763   6.764
 5323POPC   C3B67605   9.818  24.696   7.064
 5323POPC   C4B67606   9.784  24.731   7.364
 5324POPC   NC367607   6.597   5.115   5.564
 5324POPC   PO467608   6.673   5.091   5.864
 5324POPC   GL167609   6.609   5.131   6.164
 5324POPC   GL267610   6.477   5.125   6.164
 5324POPC   C1A67611   6.605   5.102   6.464
 5324POPC   D2A67612   6.653   5.078   6.764
 5324POPC   C3A67613   6.675   5.076   7.064
 5324POPC   C4A67614   6.632   5.130   7.364
 5324POPC   C1B67615   6.384   5.091   6.464
 5324POPC   C2B67616   6.365   5.054   6.764
 5324POPC   C3B67617   6.417   5.067   7.064
 5324POPC   C4B67618   6.353   5.050   7.364
 5325POPC   NC367619  27.554  33.014   5.564
 5325POPC   PO467620  27.611  33.007   5.864
 5325POPC   GL167621  27.584  33.008   6.164
 5325POPC   GL267622  27.526  32.941   6.164
 5325POPC   C1A67623  27.586  33.063   6.464
 5325POPC   D2A67624  27.579  33.002   6.764
 5325POPC   C3A67625  27.590  32.979   7.064
 5325POPC   C4A67626  27.556  33.059   7.364
 5325POPC   C1B67627  27.553  32.767   6.464
 5325POPC   C2B67628  27.496  32.753   6.764
 5325POPC   C3B67629  27.500  32.754   7.064
 5325POPC   C4B67630  27.487  32.781   7.364
 5326POPC   NC367631   7.408  37.729   5.564
 5326POPC   PO467632   7.459  37.700   5.864
 5326POPC   GL167633   7.454  37.681   6.164
 5326POPC   GL267634   7.248  37.654   6.164
 5326POPC   C1A67635   7.377  37.651   6.464
 5326POPC   D2A67636   7.382  37.637   6.764
 5326POPC   C3A67637   7.470  37.658   7.064
 5326POPC   C4A67638   7.425  37.655   7.364
 5326POPC   C1B67639   7.195  37.751   6.464
 5326POPC   C2B67640   7.147  37.677   6.764
 5326POPC   C3B67641   7.216  37.738   7.064
 5326POPC   C4B67642   7.192  37.706   7.364
 5327POPC   NC367643   2.743  43.919   5.564
 5327POPC   PO467644   2.751  43.932   5.864
 5327POPC   GL167645   2.726  43.875   6.164
 5327POPC   GL267646   2.712  44.024   6.164
 5327POPC   C1A67647   2.809  43.879   6.464
 5327POPC   D2A67648   2.731  43.878   6.764
 5327POPC   C3A67649   2.744  43.887   7.064
 5327POPC   C4A67650   2.798  43.864   7.364
 5327POPC   C1B67651   2.705  44.139   6.464
 5327POPC   C2B67652   2.701  44.143   6.764
 5327POPC   C3B67653   2.639  44.101   7.064
 5327POPC   C4B67654   2.671  44.107   7.364
 5328POPC   NC367655  32.216   6.603   5.564
 5328POPC   PO467656  32.267   6.625   5.864
 5328POPC   GL167657  32.283   6.669   6.164
 5328POPC   GL267658  32.085   6.691   6.164
 5328POPC   C1A67659  32.256   6.609   6.464
 5328POPC   D2A67660  32.242   6.604   6.764
 5328POPC   C3A67661  32.256   6.668   7.064
 5328POPC   C4A67662  32.215   6.652   7.364
 5328POPC   C1B67663  32.063   6.792   6.464
 5328POPC   C2B67664  32.025   6.750   6.764
 5328POPC   C3B67665  32.038   6.713   7.064
 5328POPC   C4B67666  32.005   6.742   7.364
 5329POPC   NC367667  36.926  31.442   5.564
 5329POPC   PO467668  36.898  31.430   5.864
 5329POPC   GL167669  36.933  31.453   6.164
 5329POPC   GL267670  36.784  31.508   6.164
 5329POPC   C1A67671  36.951  31.501   6.464
 5329POPC   D2A67672  36.925  31.489   6.764
 5329POPC   C3A67673  36.923  31.509   7.064
 5329POPC   C4A67674  36.937  31.426   7.364
 5329POPC   C1B67675  36.731  31.656   6.464
 5329POPC   C2B67676  36.727  31.582   6.764
 5329POPC   C3B67677  36.701  31.639   7.064
 5329POPC   C4B67678  36.677  31.588   7.364
 5330POPC   NC367679   2.754   3.495   5.564
 5330POPC   PO467680   2.758   3.509   5.864
 5330POPC   GL167681   2.792   3.510   6.164
 5330POPC   GL267682   2.657   3.546   6.164
 5330POPC   C1A67683   2.804   3.517   6.464
 5330POPC   D2A67684   2.777   3.560   6.764
 5330POPC   C3A67685   2.802   3.531   7.064
 5330POPC   C4A67686   2.766   3.529   7.364
 5330POPC   C1B67687   2.503   3.603   6.464
 5330POPC   C2B67688   2.488   3.643   6.764
 5330POPC   C3B67689   2.499   3.638   7.064
 5330POPC   C4B67690   2.546   3.630   7.364
 5331POPC   NC367691  12.123   1.240   5.564
 5331POPC   PO467692  12.054   1.176   5.864
 5331POPC   GL167693  12.088   1.255   6.164
 5331POPC   GL267694  11.976   1.300   6.164
 5331POPC   C1A67695  12.105   1.243   6.464
 5331POPC   D2A67696  12.055   1.167   6.764
 5331POPC   C3A67697  12.032   1.248   7.064
 5331POPC   C4A67698  12.066   1.241   7.364
 5331POPC   C1B67699  11.811   1.307   6.464
 5331POPC   C2B67700  11.819   1.335   6.764
 5331POPC   C3B67701  11.815   1.349   7.064
 5331POPC   C4B67702  11.819   1.278   7.364
 5332POPC   NC367703  12.088  10.532   5.564
 5332POPC   PO467704  12.118  10.557   5.864
 5332POPC   GL167705  12.094  10.517   6.164
 5332POPC   GL267706  12.027  10.387   6.164
 5332POPC   C1A67707  12.119  10.502   6.464
 5332POPC   D2A67708  12.057  10.478   6.764
 5332POPC   C3A67709  12.045  10.534   7.064
 5332POPC   C4A67710  12.050  10.518   7.364
 5332POPC   C1B67711  11.963  10.240   6.464
 5332POPC   C2B67712  11.985  10.235   6.764
 5332POPC   C3B67713  12.019  10.275   7.064
 5332POPC   C4B67714  12.023  10.304   7.364
 5333POPC   NC367715  38.445  30.695   5.564
 5333POPC   PO467716  38.435  30.742   5.864
 5333POPC   GL167717  38.455  30.715   6.164
 5333POPC   GL267718  38.303  30.663   6.164
 5333POPC   C1A67719  38.411  30.664   6.464
 5333POPC   D2A67720  38.466  30.689   6.764
 5333POPC   C3A67721  38.454  30.651   7.064
 5333POPC   C4A67722  38.485  30.731   7.364
 5333POPC   C1B67723  38.219  30.531   6.464
 5333POPC   C2B67724  38.246  30.538   6.764
 5333POPC   C3B67725  38.277  30.510   7.064
 5333POPC   C4B67726  38.274  30.548   7.364
 5334POPC   NC367727  38.449  15.946   5.564
 5334POPC   PO467728  38.407  15.923   5.864
 5334POPC   GL167729  38.492  15.984   6.164
 5334POPC   GL267730  38.627  16.025   6.164
 5334POPC   C1A67731  38.492  15.955   6.464
 5334POPC   D2A67732  38.477  15.926   6.764
 5334POPC   C3A67733  38.470  16.001   7.064
 5334POPC   C4A67734  38.498  15.996   7.364
 5334POPC   C1B67735  38.731  16.005   6.464
 5334POPC   C2B67736  38.670  16.060   6.764
 5334POPC   C3B67737  38.667  16.017   7.064
 5334POPC   C4B67738  38.703  15.997   7.364
 5335POPC   NC367739   5.843  23.686   5.564
 5335POPC   PO467740   5.908  23.732   5.864
 5335POPC   GL167741   5.899  23.700   6.164
 5335POPC   GL267742   5.954  23.659   6.164
 5335POPC   C1A67743   5.845  23.709   6.464
 5335POPC   D2A67744   5.838  23.674   6.764
 5335POPC   C3A67745   5.860  23.743   7.064
 5335POPC   C4A67746   5.901  23.762   7.364
 5335POPC   C1B67747   6.068  23.549   6.464
 5335POPC   C2B67748   5.994  23.520   6.764
 5335POPC   C3B67749   6.054  23.508   7.064
 5335POPC   C4B67750   6.058  23.489   7.364
 5336POPC   NC367751   2.762  36.929   5.564
 5336POPC   PO467752   2.777  36.912   5.864
 5336POPC   GL167753   2.811  36.888   6.164
 5336POPC   GL267754   2.725  36.755   6.164
 5336POPC   C1A67755   2.742  36.877   6.464
 5336POPC   D2A67756   2.802  36.930   6.764
 5336POPC   C3A67757   2.785  36.898   7.064
 5336POPC   C4A67758   2.756  36.855   7.364
 5336POPC   C1B67759   2.617  36.717   6.464
 5336POPC   C2B67760   2.626  36.717   6.764
 5336POPC   C3B67761   2.650  36.647   7.064
 5336POPC   C4B67762   2.663  36.645   7.364
 5337POPC   NC367763  43.898  22.176   5.564
 5337POPC   PO467764  43.852  22.204   5.864
 5337POPC   GL167765  43.924  22.191   6.164
 5337POPC   GL267766  43.767  22.276   6.164
 5337POPC   C1A67767  43.922  22.165   6.464
 5337POPC   D2A67768  43.845  22.153   6.764
 5337POPC   C3A67769  43.911  22.139   7.064
 5337POPC   C4A67770  43.860  22.206   7.364
 5337POPC   C1B67771  43.729  22.351   6.464
 5337POPC   C2B67772  43.641  22.337   6.764
 5337POPC   C3B67773  43.730  22.338   7.064
 5337POPC   C4B67774  43.675  22.328   7.364
 5338POPC   NC367775  26.837  44.651   5.564
 5338POPC   PO467776  26.828  44.614   5.864
 5338POPC   GL167777  26.831  44.662   6.164
 5338POPC   GL267778  26.791  44.774   6.164
 5338POPC   C1A67779  26.856  44.650   6.464
 5338POPC   D2A67780  26.835  44.678   6.764
 5338POPC   C3A67781  26.834  44.666   7.064
 5338POPC   C4A67782  26.848  44.617   7.364
 5338POPC   C1B67783  26.733  44.849   6.464
 5338POPC   C2B67784  26.760  44.861   6.764
 5338POPC   C3B67785  26.698  44.946   7.064
 5338POPC   C4B67786  26.778  44.909   7.364
 5339POPC   NC367787  11.332  31.425   5.564
 5339POPC   PO467788  11.305  31.508   5.864
 5339POPC   GL167789  11.318  31.434   6.164
 5339POPC   GL267790  11.324  31.569   6.164
 5339POPC   C1A67791  11.252  31.499   6.464
 5339POPC   D2A67792  11.345  31.441   6.764
 5339POPC   C3A67793  11.287  31.424   7.064
 5339POPC   C4A67794  11.255  31.498   7.364
 5339POPC   C1B67795  11.405  31.697   6.464
 5339POPC   C2B67796  11.387  31.647   6.764
 5339POPC   C3B67797  11.474  31.686   7.064
 5339POPC   C4B67798  11.417  31.644   7.364
 5340POPC   NC367799   9.006  22.153   5.564
 5340POPC   PO467800   8.984  22.175   5.864
 5340POPC   GL167801   9.017  22.208   6.164
 5340POPC   GL267802   8.934  22.049   6.164
 5340POPC   C1A67803   8.972  22.180   6.464
 5340POPC   D2A67804   8.945  22.152   6.764
 5340POPC   C3A67805   8.932  22.148   7.064
 5340POPC   C4A67806   8.965  22.134   7.364
 5340POPC   C1B67807   8.951  21.927   6.464
 5340POPC   C2B67808   8.930  21.919   6.764
 5340POPC   C3B67809   8.934  21.926   7.064
 5340POPC   C4B67810   8.934  21.928   7.364
 5341POPC   NC367811  41.526  40.046   5.564
 5341POPC   PO467812  41.584  39.969   5.864
 5341POPC   GL167813  41.514  40.032   6.164
 5341POPC   GL267814  41.464  40.012   6.164
 5341POPC   C1A67815  41.550  39.998   6.464
 5341POPC   D2A67816  41.515  39.980   6.764
 5341POPC   C3A67817  41.577  39.973   7.064
 5341POPC   C4A67818  41.586  39.960   7.364
 5341POPC   C1B67819  41.297  39.939   6.464
 5341POPC   C2B67820  41.280  39.895   6.764
 5341POPC   C3B67821  41.349  39.901   7.064
 5341POPC   C4B67822  41.322  39.979   7.364
 5342POPC   NC367823   1.170  39.210   5.564
 5342POPC   PO467824   1.263  39.237   5.864
 5342POPC   GL167825   1.245  39.205   6.164
 5342POPC   GL267826   1.138  39.070   6.164
 5342POPC   C1A67827   1.180  39.209   6.464
 5342POPC   D2A67828   1.242  39.193   6.764
 5342POPC   C3A67829   1.246  39.208   7.064
 5342POPC   C4A67830   1.173  39.272   7.364
 5342POPC   C1B67831   1.128  39.005   6.464
 5342POPC   C2B67832   1.099  38.947   6.764
 5342POPC   C3B67833   1.097  38.988   7.064
 5342POPC   C4B67834   1.162  39.042   7.364
 5343POPC   NC367835  22.909   1.216   5.564
 5343POPC   PO467836  22.975   1.243   5.864
 5343POPC   GL167837  22.979   1.174   6.164
 5343POPC   GL267838  23.094   1.216   6.164
 5343POPC   C1A67839  22.903   1.216   6.464
 5343POPC   D2A67840  22.956   1.228   6.764
 5343POPC   C3A67841  22.967   1.237   7.064
 5343POPC   C4A67842  22.936   1.236   7.364
 5343POPC   C1B67843  23.187   1.249   6.464
 5343POPC   C2B67844  23.178   1.244   6.764
 5343POPC   C3B67845  23.192   1.234   7.064
 5343POPC   C4B67846  23.140   1.268   7.364
 5344POPC   NC367847   1.164  14.450   5.564
 5344POPC   PO467848   1.225  14.393   5.864
 5344POPC   GL167849   1.232  14.426   6.164
 5344POPC   GL267850   1.140  14.339   6.164
 5344POPC   C1A67851   1.231  14.374   6.464
 5344POPC   D2A67852   1.228  14.367   6.764
 5344POPC   C3A67853   1.166  14.433   7.064
 5344POPC   C4A67854   1.264  14.439   7.364
 5344POPC   C1B67855   1.021  14.245   6.464
 5344POPC   C2B67856   1.099  14.227   6.764
 5344POPC   C3B67857   1.042  14.236   7.064
 5344POPC   C4B67858   1.079  14.230   7.364
 5345POPC   NC367859  44.702  12.084   5.564
 5345POPC   PO467860  44.645  12.113   5.864
 5345POPC   GL167861  44.619  12.109   6.164
 5345POPC   GL267862  44.503  12.086   6.164
 5345POPC   C1A67863  44.615  12.039   6.464
 5345POPC   D2A67864  44.697  12.094   6.764
 5345POPC   C3A67865  44.631  12.115   7.064
 5345POPC   C4A67866  44.702  12.116   7.364
 5345POPC   C1B67867  44.366  12.000   6.464
 5345POPC   C2B67868  44.386  12.048   6.764
 5345POPC   C3B67869  44.375  11.997   7.064
 5345POPC   C4B67870  44.462  12.075   7.364
 5346POPC   NC367871   4.334  23.725   5.564
 5346POPC   PO467872   4.335  23.740   5.864
 5346POPC   GL167873   4.324  23.763   6.164
 5346POPC   GL267874   4.460  23.704   6.164
 5346POPC   C1A67875   4.304  23.691   6.464
 5346POPC   D2A67876   4.276  23.758   6.764
 5346POPC   C3A67877   4.285  23.695   7.064
 5346POPC   C4A67878   4.325  23.719   7.364
 5346POPC   C1B67879   4.593  23.615   6.464
 5346POPC   C2B67880   4.528  23.670   6.764
 5346POPC   C3B67881   4.515  23.671   7.064
 5346POPC   C4B67882   4.553  23.660   7.364
 5347POPC   NC367883  33.793  43.903   5.564
 5347POPC   PO467884  33.825  43.842   5.864
 5347POPC   GL167885  33.841  43.844   6.164
 5347POPC   GL267886  33.643  43.888   6.164
 5347POPC   C1A67887  33.832  43.899   6.464
 5347POPC   D2A67888  33.793  43.864   6.764
 5347POPC   C3A67889  33.791  43.929   7.064
 5347POPC   C4A67890  33.836  43.881   7.364
 5347POPC   C1B67891  33.534  43.946   6.464
 5347POPC   C2B67892  33.518  43.912   6.764
 5347POPC   C3B67893  33.520  43.920   7.064
 5347POPC   C4B67894  33.554  43.973   7.364
 5348POPC   NC367895  35.335  25.281   5.564
 5348POPC   PO467896  35.363  25.221   5.864
 5348POPC   GL167897  35.397  25.300   6.164
 5348POPC   GL267898  35.233  25.186   6.164
 5348POPC   C1A67899  35.391  25.238   6.464
 5348POPC   D2A67900  35.322  25.241   6.764
 5348POPC   C3A67901  35.393  25.303   7.064
 5348POPC   C4A67902  35.387  25.282   7.364
 5348POPC   C1B67903  35.080  25.116   6.464
 5348POPC   C2B67904  35.141  25.207   6.764
 5348POPC   C3B67905  35.121  25.155   7.064
 5348POPC   C4B67906  35.104  25.116   7.364
 5349POPC   NC367907  25.246  33.030   5.564
 5349POPC   PO467908  25.311  33.007   5.864
 5349POPC   GL167909  25.236  33.027   6.164
 5349POPC   GL267910  25.188  32.985   6.164
 5349POPC   C1A67911  25.290  33.037   6.464
 5349POPC   D2A67912  25.305  33.068   6.764
 5349POPC   C3A67913  25.293  33.003   7.064
 5349POPC   C4A67914  25.234  33.016   7.364
 5349POPC   C1B67915  25.085  32.923   6.464
 5349POPC   C2B67916  24.995  32.864   6.764
 5349POPC   C3B67917  25.076  32.865   7.064
 5349POPC   C4B67918  25.012  32.885   7.364
 5350POPC   NC367919   2.761  20.656   5.564
 5350POPC   PO467920   2.790  20.590   5.864
 5350POPC   GL167921   2.757  20.628   6.164
 5350POPC   GL267922   2.894  20.577   6.164
 5350POPC   C1A67923   2.808  20.591   6.464
 5350POPC   D2A67924   2.781  20.633   6.764
 5350POPC   C3A67925   2.798  20.596   7.064
 5350POPC   C4A67926   2.756  20.607   7.364
 5350POPC   C1B67927   2.934  20.482   6.464
 5350POPC   C2B67928   2.916  20.467   6.764
 5350POPC   C3B67929   2.977  20.433   7.064
 5350POPC   C4B67930   2.964  20.435   7.364
 5351POPC   NC367931  27.562   4.322   5.564
 5351POPC   PO467932  27.545   4.348   5.864
 5351POPC   GL167933  27.578   4.303   6.164
 5351POPC   GL267934  27.528   4.418   6.164
 5351POPC   C1A67935  27.588   4.361   6.464
 5351POPC   D2A67936  27.639   4.302   6.764
 5351POPC   C3A67937  27.572   4.298   7.064
 5351POPC   C4A67938  27.619   4.344   7.364
 5351POPC   C1B67939  27.444   4.472   6.464
 5351POPC   C2B67940  27.443   4.433   6.764
 5351POPC   C3B67941  27.376   4.437   7.064
 5351POPC   C4B67942  27.432   4.439   7.364
 5352POPC   NC367943  15.996  26.816   5.564
 5352POPC   PO467944  15.936  26.815   5.864
 5352POPC   GL167945  15.969  26.855   6.164
 5352POPC   GL267946  15.984  26.679   6.164
 5352POPC   C1A67947  15.956  26.770   6.464
 5352POPC   D2A67948  15.948  26.783   6.764
 5352POPC   C3A67949  15.957  26.776   7.064
 5352POPC   C4A67950  15.970  26.825   7.364
 5352POPC   C1B67951  16.070  26.568   6.464
 5352POPC   C2B67952  16.062  26.549   6.764
 5352POPC   C3B67953  16.079  26.566   7.064
 5352POPC   C4B67954  16.006  26.633   7.364
 5353POPC   NC367955  31.451   1.970   5.564
 5353POPC   PO467956  31.456   1.970   5.864
 5353POPC   GL167957  31.508   1.945   6.164
 5353POPC   GL267958  31.592   1.952   6.164
 5353POPC   C1A67959  31.492   2.006   6.464
 5353POPC   D2A67960  31.425   1.970   6.764
 5353POPC   C3A67961  31.492   1.979   7.064
 5353POPC   C4A67962  31.520   2.009   7.364
 5353POPC   C1B67963  31.745   1.976   6.464
 5353POPC   C2B67964  31.724   1.997   6.764
 5353POPC   C3B67965  31.760   2.016   7.064
 5353POPC   C4B67966  31.726   1.949   7.364
 5354POPC   NC367967  33.808  12.848   5.564
 5354POPC   PO467968  33.817  12.831   5.864
 5354POPC   GL167969  33.846  12.866   6.164
 5354POPC   GL267970  33.814  13.016   6.164
 5354POPC   C1A67971  33.846  12.881   6.464
 5354POPC   D2A67972  33.843  12.838   6.764
 5354POPC   C3A67973  33.805  12.841   7.064
 5354POPC   C4A67974  33.822  12.870   7.364
 5354POPC   C1B67975  33.857  13.112   6.464
 5354POPC   C2B67976  33.904  13.120   6.764
 5354POPC   C3B67977  33.860  13.121   7.064
 5354POPC   C4B67978  33.843  13.085   7.364
 5355POPC   NC367979  42.344  13.593   5.564
 5355POPC   PO467980  42.355  13.663   5.864
 5355POPC   GL167981  42.341  13.648   6.164
 5355POPC   GL267982  42.228  13.557   6.164
 5355POPC   C1A67983  42.289  13.598   6.464
 5355POPC   D2A67984  42.296  13.650   6.764
 5355POPC   C3A67985  42.353  13.607   7.064
 5355POPC   C4A67986  42.317  13.659   7.364
 5355POPC   C1B67987  42.048  13.555   6.464
 5355POPC   C2B67988  42.101  13.550   6.764
 5355POPC   C3B67989  42.065  13.598   7.064
 5355POPC   C4B67990  42.111  13.588   7.364
 5356POPC   NC367991  18.283  39.985   5.564
 5356POPC   PO467992  18.267  40.003   5.864
 5356POPC   GL167993  18.256  40.046   6.164
 5356POPC   GL267994  18.391  39.969   6.164
 5356POPC   C1A67995  18.248  40.030   6.464
 5356POPC   D2A67996  18.240  40.052   6.764
 5356POPC   C3A67997  18.294  40.033   7.064
 5356POPC   C4A67998  18.263  40.034   7.364
 5356POPC   C1B67999  18.507  39.990   6.464
 5356POPC   C2B68000  18.488  39.953   6.764
 5356POPC   C3B68001  18.515  40.008   7.064
 5356POPC   C4B68002  18.530  39.952   7.364
 5357POPC   NC368003   5.121  44.646   5.564
 5357POPC   PO468004   5.073  44.699   5.864
 5357POPC   GL168005   5.074  44.671   6.164
 5357POPC   GL268006   5.182  44.723   6.164
 5357POPC   C1A68007   5.077  44.645   6.464
 5357POPC   D2A68008   5.044  44.688   6.764
 5357POPC   C3A68009   5.095  44.700   7.064
 5357POPC   C4A68010   5.102  44.676   7.364
 5357POPC   C1B68011   5.268  44.806   6.464
 5357POPC   C2B68012   5.331  44.844   6.764
 5357POPC   C3B68013   5.329  44.769   7.064
 5357POPC   C4B68014   5.259  44.827   7.364
 5358POPC   NC368015  24.527  33.026   5.564
 5358POPC   PO468016  24.462  32.998   5.864
 5358POPC   GL168017  24.463  33.024   6.164
 5358POPC   GL268018  24.429  32.924   6.164
 5358POPC   C1A68019  24.531  32.993   6.464
 5358POPC   D2A68020  24.506  32.987   6.764
 5358POPC   C3A68021  24.527  32.980   7.064
 5358POPC   C4A68022  24.441  32.989   7.364
 5358POPC   C1B68023  24.400  32.770   6.464
 5358POPC   C2B68024  24.385  32.800   6.764
 5358POPC   C3B68025  24.331  32.813   7.064
 5358POPC   C4B68026  24.369  32.801   7.364
 5359POPC   NC368027  21.398   2.766   5.564
 5359POPC   PO468028  21.435   2.788   5.864
 5359POPC   GL168029  21.380   2.717   6.164
 5359POPC   GL268030  21.339   2.833   6.164
 5359POPC   C1A68031  21.353   2.811   6.464
 5359POPC   D2A68032  21.412   2.805   6.764
 5359POPC   C3A68033  21.415   2.743   7.064
 5359POPC   C4A68034  21.344   2.797   7.364
 5359POPC   C1B68035  21.221   2.975   6.464
 5359POPC   C2B68036  21.270   2.984   6.764
 5359POPC   C3B68037  21.240   2.936   7.064
 5359POPC   C4B68038  21.218   2.971   7.364
 5360POPC   NC368039  29.149   9.796   5.564
 5360POPC   PO468040  29.189   9.774   5.864
 5360POPC   GL168041  29.142   9.791   6.164
 5360POPC   GL268042  29.203   9.628   6.164
 5360POPC   C1A68043  29.101   9.749   6.464
 5360POPC   D2A68044  29.144   9.779   6.764
 5360POPC   C3A68045  29.118   9.776   7.064
 5360POPC   C4A68046  29.163   9.699   7.364
 5360POPC   C1B68047  29.207   9.530   6.464
 5360POPC   C2B68048  29.219   9.536   6.764
 5360POPC   C3B68049  29.228   9.569   7.064
 5360POPC   C4B68050  29.260   9.511   7.364
 5361POPC   NC368051  12.826  41.577   5.564
 5361POPC   PO468052  12.852  41.588   5.864
 5361POPC   GL168053  12.833  41.534   6.164
 5361POPC   GL268054  12.795  41.494   6.164
 5361POPC   C1A68055  12.823  41.562   6.464
 5361POPC   D2A68056  12.861  41.593   6.764
 5361POPC   C3A68057  12.825  41.572   7.064
 5361POPC   C4A68058  12.843  41.578   7.364
 5361POPC   C1B68059  12.674  41.442   6.464
 5361POPC   C2B68060  12.635  41.366   6.764
 5361POPC   C3B68061  12.639  41.455   7.064
 5361POPC   C4B68062  12.677  41.448   7.364
 5362POPC   NC368063  37.705  27.610   5.564
 5362POPC   PO468064  37.646  27.606   5.864
 5362POPC   GL168065  37.685  27.613   6.164
 5362POPC   GL268066  37.706  27.716   6.164
 5362POPC   C1A68067  37.672  27.605   6.464
 5362POPC   D2A68068  37.680  27.551   6.764
 5362POPC   C3A68069  37.640  27.544   7.064
 5362POPC   C4A68070  37.677  27.544   7.364
 5362POPC   C1B68071  37.746  27.839   6.464
 5362POPC   C2B68072  37.740  27.826   6.764
 5362POPC   C3B68073  37.726  27.810   7.064
 5362POPC   C4B68074  37.706  27.846   7.364
 5363POPC   NC368075  10.499   8.995   5.564
 5363POPC   PO468076  10.570   8.968   5.864
 5363POPC   GL168077  10.491   8.951   6.164
 5363POPC   GL268078  10.625   8.949   6.164
 5363POPC   C1A68079  10.573   8.928   6.464
 5363POPC   D2A68080  10.489   8.981   6.764
 5363POPC   C3A68081  10.527   8.952   7.064
 5363POPC   C4A68082  10.488   8.927   7.364
 5363POPC   C1B68083  10.747   8.950   6.464
 5363POPC   C2B68084  10.750   8.897   6.764
 5363POPC   C3B68085  10.724   8.928   7.064
 5363POPC   C4B68086  10.774   8.866   7.364
 5364POPC   NC368087  41.519   0.483   5.564
 5364POPC   PO468088  41.525   0.486   5.864
 5364POPC   GL168089  41.554   0.445   6.164
 5364POPC   GL268090  41.463   0.512   6.164
 5364POPC   C1A68091  41.533   0.484   6.464
 5364POPC   D2A68092  41.596   0.449   6.764
 5364POPC   C3A68093  41.598   0.438   7.064
 5364POPC   C4A68094  41.554   0.434   7.364
 5364POPC   C1B68095  41.269   0.458   6.464
 5364POPC   C2B68096  41.271   0.467   6.764
 5364POPC   C3B68097  41.268   0.544   7.064
 5364POPC   C4B68098  41.327   0.529   7.364
 5365POPC   NC368099   5.827  15.933   5.564
 5365POPC   PO468100   5.898  15.959   5.864
 5365POPC   GL168101   5.858  15.966   6.164
 5365POPC   GL268102   5.932  16.046   6.164
 5365POPC   C1A68103   5.885  15.992   6.464
 5365POPC   D2A68104   5.839  15.916   6.764
 5365POPC   C3A68105   5.918  15.953   7.064
 5365POPC   C4A68106   5.893  15.943   7.364
 5365POPC   C1B68107   5.980  16.223   6.464
 5365POPC   C2B68108   5.956  16.163   6.764
 5365POPC   C3B68109   5.956  16.144   7.064
 5365POPC   C4B68110   6.025  16.186   7.364
 5366POPC   NC368111  18.287  29.944   5.564
 5366POPC   PO468112  18.291  29.953   5.864
 5366POPC   GL168113  18.332  29.950   6.164
 5366POPC   GL268114  18.412  29.909   6.164
 5366POPC   C1A68115  18.282  29.891   6.464
 5366POPC   D2A68116  18.240  29.886   6.764
 5366POPC   C3A68117  18.262  29.937   7.064
 5366POPC   C4A68118  18.327  29.934   7.364
 5366POPC   C1B68119  18.503  29.867   6.464
 5366POPC   C2B68120  18.515  29.898   6.764
 5366POPC   C3B68121  18.518  29.908   7.064
 5366POPC   C4B68122  18.534  29.924   7.364
 5367POPC   NC368123  19.090  43.084   5.564
 5367POPC   PO468124  19.083  43.071   5.864
 5367POPC   GL168125  19.065  43.160   6.164
 5367POPC   GL268126  19.139  43.001   6.164
 5367POPC   C1A68127  19.102  43.131   6.464
 5367POPC   D2A68128  19.093  43.118   6.764
 5367POPC   C3A68129  19.077  43.142   7.064
 5367POPC   C4A68130  19.108  43.100   7.364
 5367POPC   C1B68131  19.199  42.917   6.464
 5367POPC   C2B68132  19.140  42.893   6.764
 5367POPC   C3B68133  19.234  42.938   7.064
 5367POPC   C4B68134  19.159  42.936   7.364
 5368POPC   NC368135  29.915  40.752   5.564
 5368POPC   PO468136  29.885  40.750   5.864
 5368POPC   GL168137  29.966  40.791   6.164
 5368POPC   GL268138  29.835  40.830   6.164
 5368POPC   C1A68139  29.928  40.768   6.464
 5368POPC   D2A68140  29.930  40.746   6.764
 5368POPC   C3A68141  29.927  40.778   7.064
 5368POPC   C4A68142  29.947  40.813   7.364
 5368POPC   C1B68143  29.683  40.951   6.464
 5368POPC   C2B68144  29.744  40.909   6.764
 5368POPC   C3B68145  29.743  40.925   7.064
 5368POPC   C4B68146  29.718  40.958   7.364
 5369POPC   NC368147  16.731  26.798   5.564
 5369POPC   PO468148  16.706  26.819   5.864
 5369POPC   GL168149  16.767  26.789   6.164
 5369POPC   GL268150  16.826  26.926   6.164
 5369POPC   C1A68151  16.695  26.775   6.464
 5369POPC   D2A68152  16.764  26.819   6.764
 5369POPC   C3A68153  16.754  26.842   7.064
 5369POPC   C4A68154  16.711  26.866   7.364
 5369POPC   C1B68155  16.950  26.985   6.464
 5369POPC   C2B68156  16.997  26.925   6.764
 5369POPC   C3B68157  16.919  26.932   7.064
 5369POPC   C4B68158  16.960  26.928   7.364
 5370POPC   NC368159   8.998  32.284   5.564
 5370POPC   PO468160   8.933  32.272   5.864
 5370POPC   GL168161   8.969  32.225   6.164
 5370POPC   GL268162   9.094  32.297   6.164
 5370POPC   C1A68163   8.977  32.234   6.464
 5370POPC   D2A68164   8.925  32.250   6.764
 5370POPC   C3A68165   8.998  32.290   7.064
 5370POPC   C4A68166   8.937  32.221   7.364
 5370POPC   C1B68167   9.179  32.389   6.464
 5370POPC   C2B68168   9.239  32.363   6.764
 5370POPC   C3B68169   9.227  32.398   7.064
 5370POPC   C4B68170   9.168  32.324   7.364
 5371POPC   NC368171  10.511   5.911   5.564
 5371POPC   PO468172  10.538   5.860   5.864
 5371POPC   GL168173  10.484   5.867   6.164
 5371POPC   GL268174  10.446   5.745   6.164
 5371POPC   C1A68175  10.484   5.840   6.464
 5371POPC   D2A68176  10.549   5.882   6.764
 5371POPC   C3A68177  10.501   5.911   7.064
 5371POPC   C4A68178  10.531   5.891   7.364
 5371POPC   C1B68179  10.407   5.632   6.464
 5371POPC   C2B68180  10.399   5.630   6.764
 5371POPC   C3B68181  10.417   5.612   7.064
 5371POPC   C4B68182  10.468   5.617   7.364
 5372POPC   NC368183  12.106  14.444   5.564
 5372POPC   PO468184  12.082  14.372   5.864
 5372POPC   GL168185  12.028  14.380   6.164
 5372POPC   GL268186  12.008  14.289   6.164
 5372POPC   C1A68187  12.071  14.404   6.464
 5372POPC   D2A68188  12.104  14.389   6.764
 5372POPC   C3A68189  12.031  14.432   7.064
 5372POPC   C4A68190  12.100  14.397   7.364
 5372POPC   C1B68191  11.912  14.212   6.464
 5372POPC   C2B68192  11.973  14.237   6.764
 5372POPC   C3B68193  11.926  14.154   7.064
 5372POPC   C4B68194  11.958  14.176   7.364
 5373POPC   NC368195  31.504   5.081   5.564
 5373POPC   PO468196  31.518   5.090   5.864
 5373POPC   GL168197  31.499   5.088   6.164
 5373POPC   GL268198  31.360   5.221   6.164
 5373POPC   C1A68199  31.482   5.081   6.464
 5373POPC   D2A68200  31.486   5.048   6.764
 5373POPC   C3A68201  31.473   5.067   7.064
 5373POPC   C4A68202  31.510   5.130   7.364
 5373POPC   C1B68203  31.314   5.251   6.464
 5373POPC   C2B68204  31.288   5.227   6.764
 5373POPC   C3B68205  31.269   5.300   7.064
 5373POPC   C4B68206  31.334   5.307   7.364
 5374POPC   NC368207   2.785  35.362   5.564
 5374POPC   PO468208   2.736  35.346   5.864
 5374POPC   GL168209   2.814  35.330   6.164
 5374POPC   GL268210   2.908  35.293   6.164
 5374POPC   C1A68211   2.750  35.401   6.464
 5374POPC   D2A68212   2.767  35.321   6.764
 5374POPC   C3A68213   2.815  35.394   7.064
 5374POPC   C4A68214   2.768  35.401   7.364
 5374POPC   C1B68215   2.993  35.328   6.464
 5374POPC   C2B68216   2.995  35.313   6.764
 5374POPC   C3B68217   3.040  35.313   7.064
 5374POPC   C4B68218   2.979  35.267   7.364
 5375POPC   NC368219  28.343   1.232   5.564
 5375POPC   PO468220  28.414   1.166   5.864
 5375POPC   GL168221  28.342   1.220   6.164
 5375POPC   GL268222  28.262   1.114   6.164
 5375POPC   C1A68223  28.399   1.169   6.464
 5375POPC   D2A68224  28.396   1.184   6.764
 5375POPC   C3A68225  28.415   1.167   7.064
 5375POPC   C4A68226  28.394   1.226   7.364
 5375POPC   C1B68227  28.269   1.039   6.464
 5375POPC   C2B68228  28.273   0.975   6.764
 5375POPC   C3B68229  28.264   0.987   7.064
 5375POPC   C4B68230  28.214   1.007   7.364
 5376POPC   NC368231  42.309   2.037   5.564
 5376POPC   PO468232  42.372   1.973   5.864
 5376POPC   GL168233  42.364   1.998   6.164
 5376POPC   GL268234  42.298   1.910   6.164
 5376POPC   C1A68235  42.305   1.988   6.464
 5376POPC   D2A68236  42.377   1.960   6.764
 5376POPC   C3A68237  42.381   1.985   7.064
 5376POPC   C4A68238  42.320   2.025   7.364
 5376POPC   C1B68239  42.190   1.777   6.464
 5376POPC   C2B68240  42.185   1.759   6.764
 5376POPC   C3B68241  42.251   1.777   7.064
 5376POPC   C4B68242  42.253   1.786   7.364
 5377POPC   NC368243   1.203  33.769   5.564
 5377POPC   PO468244   1.169  33.839   5.864
 5377POPC   GL168245   1.224  33.818   6.164
 5377POPC   GL268246   1.317  33.907   6.164
 5377POPC   C1A68247   1.233  33.758   6.464
 5377POPC   D2A68248   1.168  33.814   6.764
 5377POPC   C3A68249   1.191  33.770   7.064
 5377POPC   C4A68250   1.196  33.774   7.364
 5377POPC   C1B68251   1.386  33.933   6.464
 5377POPC   C2B68252   1.364  33.934   6.764
 5377POPC   C3B68253   1.380  33.966   7.064
 5377POPC   C4B68254   1.457  33.979   7.364
 5378POPC   NC368255   6.638  31.442   5.564
 5378POPC   PO468256   6.670  31.517   5.864
 5378POPC   GL168257   6.687  31.429   6.164
 5378POPC   GL268258   6.565  31.517   6.164
 5378POPC   C1A68259   6.596  31.460   6.464
 5378POPC   D2A68260   6.679  31.431   6.764
 5378POPC   C3A68261   6.605  31.492   7.064
 5378POPC   C4A68262   6.614  31.425   7.364
 5378POPC   C1B68263   6.424  31.515   6.464
 5378POPC   C2B68264   6.437  31.466   6.764
 5378POPC   C3B68265   6.416  31.478   7.064
 5378POPC   C4B68266   6.409  31.458   7.364
 5379POPC   NC368267  40.751   8.217   5.564
 5379POPC   PO468268  40.802   8.207   5.864
 5379POPC   GL168269  40.778   8.174   6.164
 5379POPC   GL268270  40.909   8.122   6.164
 5379POPC   C1A68271  40.746   8.190   6.464
 5379POPC   D2A68272  40.771   8.162   6.764
 5379POPC   C3A68273  40.736   8.232   7.064
 5379POPC   C4A68274  40.782   8.188   7.364
 5379POPC   C1B68275  40.996   8.055   6.464
 5379POPC   C2B68276  40.948   8.037   6.764
 5379POPC   C3B68277  40.939   8.039   7.064
 5379POPC   C4B68278  40.963   8.059   7.364
 5380POPC   NC368279  16.741  12.078   5.564
 5380POPC   PO468280  16.723  12.080   5.864
 5380POPC   GL168281  16.702  12.059   6.164
 5380POPC   GL268282  16.831  11.958   6.164
 5380POPC   C1A68283  16.770  12.089   6.464
 5380POPC   D2A68284  16.690  12.057   6.764
 5380POPC   C3A68285  16.764  12.056   7.064
 5380POPC   C4A68286  16.710  12.080   7.364
 5380POPC   C1B68287  16.914  11.952   6.464
 5380POPC   C2B68288  16.892  11.867   6.764
 5380POPC   C3B68289  16.964  11.873   7.064
 5380POPC   C4B68290  16.958  11.903   7.364
 5381POPC   NC368291  16.780  25.255   5.564
 5381POPC   PO468292  16.755  25.295   5.864
 5381POPC   GL168293  16.718  25.240   6.164
 5381POPC   GL268294  16.657  25.413   6.164
 5381POPC   C1A68295  16.717  25.294   6.464
 5381POPC   D2A68296  16.737  25.240   6.764
 5381POPC   C3A68297  16.681  25.243   7.064
 5381POPC   C4A68298  16.745  25.315   7.364
 5381POPC   C1B68299  16.677  25.478   6.464
 5381POPC   C2B68300  16.719  25.537   6.764
 5381POPC   C3B68301  16.651  25.539   7.064
 5381POPC   C4B68302  16.696  25.515   7.364
 5382POPC   NC368303   4.311  30.671   5.564
 5382POPC   PO468304   4.323  30.687   5.864
 5382POPC   GL168305   4.295  30.685   6.164
 5382POPC   GL268306   4.359  30.857   6.164
 5382POPC   C1A68307   4.350  30.656   6.464
 5382POPC   D2A68308   4.287  30.682   6.764
 5382POPC   C3A68309   4.269  30.746   7.064
 5382POPC   C4A68310   4.321  30.707   7.364
 5382POPC   C1B68311   4.371  30.915   6.464
 5382POPC   C2B68312   4.369  30.897   6.764
 5382POPC   C3B68313   4.302  30.927   7.064
 5382POPC   C4B68314   4.323  30.989   7.364
 5383POPC   NC368315   9.726  30.691   5.564
 5383POPC   PO468316   9.788  30.734   5.864
 5383POPC   GL168317   9.793  30.698   6.164
 5383POPC   GL268318   9.801  30.768   6.164
 5383POPC   C1A68319   9.740  30.665   6.464
 5383POPC   D2A68320   9.771  30.687   6.764
 5383POPC   C3A68321   9.789  30.717   7.064
 5383POPC   C4A68322   9.699  30.681   7.364
 5383POPC   C1B68323   9.908  30.912   6.464
 5383POPC   C2B68324   9.835  30.902   6.764
 5383POPC   C3B68325   9.906  30.884   7.064
 5383POPC   C4B68326   9.897  30.964   7.364
 5384POPC   NC368327  30.734  28.376   5.564
 5384POPC   PO468328  30.666  28.330   5.864
 5384POPC   GL168329  30.665  28.388   6.164
 5384POPC   GL268330  30.777  28.343   6.164
 5384POPC   C1A68331  30.701  28.404   6.464
 5384POPC   D2A68332  30.677  28.355   6.764
 5384POPC   C3A68333  30.669  28.331   7.064
 5384POPC   C4A68334  30.739  28.379   7.364
 5384POPC   C1B68335  30.986  28.271   6.464
 5384POPC   C2B68336  30.983  28.277   6.764
 5384POPC   C3B68337  30.918  28.279   7.064
 5384POPC   C4B68338  30.982  28.343   7.364
 5385POPC   NC368339  17.548  37.645   5.564
 5385POPC   PO468340  17.490  37.665   5.864
 5385POPC   GL168341  17.517  37.670   6.164
 5385POPC   GL268342  17.649  37.771   6.164
 5385POPC   C1A68343  17.541  37.636   6.464
 5385POPC   D2A68344  17.481  37.653   6.764
 5385POPC   C3A68345  17.487  37.644   7.064
 5385POPC   C4A68346  17.525  37.652   7.364
 5385POPC   C1B68347  17.765  37.820   6.464
 5385POPC   C2B68348  17.715  37.768   6.764
 5385POPC   C3B68349  17.735  37.766   7.064
 5385POPC   C4B68350  17.676  37.806   7.364
 5386POPC   NC368351  43.929  36.900   5.564
 5386POPC   PO468352  43.887  36.943   5.864
 5386POPC   GL168353  43.909  36.901   6.164
 5386POPC   GL268354  43.811  36.751   6.164
 5386POPC   C1A68355  43.880  36.901   6.464
 5386POPC   D2A68356  43.913  36.926   6.764
 5386POPC   C3A68357  43.870  36.953   7.064
 5386POPC   C4A68358  43.901  36.874   7.364
 5386POPC   C1B68359  43.724  36.656   6.464
 5386POPC   C2B68360  43.819  36.632   6.764
 5386POPC   C3B68361  43.760  36.710   7.064
 5386POPC   C4B68362  43.739  36.692   7.364
 5387POPC   NC368363   6.636  29.103   5.564
 5387POPC   PO468364   6.636  29.138   5.864
 5387POPC   GL168365   6.695  29.109   6.164
 5387POPC   GL268366   6.558  29.226   6.164
 5387POPC   C1A68367   6.638  29.166   6.464
 5387POPC   D2A68368   6.630  29.186   6.764
 5387POPC   C3A68369   6.626  29.146   7.064
 5387POPC   C4A68370   6.679  29.131   7.364
 5387POPC   C1B68371   6.551  29.408   6.464
 5387POPC   C2B68372   6.531  29.346   6.764
 5387POPC   C3B68373   6.540  29.332   7.064
 5387POPC   C4B68374   6.498  29.353   7.364
 5388POPC   NC368375   9.778   8.983   5.564
 5388POPC   PO468376   9.775   9.016   5.864
 5388POPC   GL168377   9.704   8.976   6.164
 5388POPC   GL268378   9.633   9.049   6.164
 5388POPC   C1A68379   9.757   8.961   6.464
 5388POPC   D2A68380   9.707   8.945   6.764
 5388POPC   C3A68381   9.701   8.973   7.064
 5388POPC   C4A68382   9.777   9.010   7.364
 5388POPC   C1B68383   9.600   9.197   6.464
 5388POPC   C2B68384   9.635   9.181   6.764
 5388POPC   C3B68385   9.622   9.126   7.064
 5388POPC   C4B68386   9.557   9.175   7.364
 5389POPC   NC368387  19.836  12.897   5.564
 5389POPC   PO468388  19.794  12.861   5.864
 5389POPC   GL168389  19.873  12.826   6.164
 5389POPC   GL268390  19.780  12.770   6.164
 5389POPC   C1A68391  19.871  12.850   6.464
 5389POPC   D2A68392  19.864  12.832   6.764
 5389POPC   C3A68393  19.826  12.895   7.064
 5389POPC   C4A68394  19.856  12.871   7.364
 5389POPC   C1B68395  19.766  12.626   6.464
 5389POPC   C2B68396  19.733  12.652   6.764
 5389POPC   C3B68397  19.775  12.592   7.064
 5389POPC   C4B68398  19.756  12.609   7.364
 5390POPC   NC368399  22.177  42.354   5.564
 5390POPC   PO468400  22.136  42.349   5.864
 5390POPC   GL168401  22.137  42.327   6.164
 5390POPC   GL268402  22.324  42.303   6.164
 5390POPC   C1A68403  22.160  42.303   6.464
 5390POPC   D2A68404  22.155  42.336   6.764
 5390POPC   C3A68405  22.193  42.384   7.064
 5390POPC   C4A68406  22.114  42.309   7.364
 5390POPC   C1B68407  22.352  42.223   6.464
 5390POPC   C2B68408  22.352  42.276   6.764
 5390POPC   C3B68409  22.392  42.214   7.064
 5390POPC   C4B68410  22.408  42.302   7.364
 5391POPC   NC368411   1.167   5.876   5.564
 5391POPC   PO468412   1.225   5.855   5.864
 5391POPC   GL168413   1.164   5.879   6.164
 5391POPC   GL268414   1.191   5.769   6.164
 5391POPC   C1A68415   1.180   5.907   6.464
 5391POPC   D2A68416   1.220   5.867   6.764
 5391POPC   C3A68417   1.176   5.880   7.064
 5391POPC   C4A68418   1.254   5.841   7.364
 5391POPC   C1B68419   1.035   5.633   6.464
 5391POPC   C2B68420   1.054   5.700   6.764
 5391POPC   C3B68421   1.121   5.706   7.064
 5391POPC   C4B68422   1.095   5.674   7.364
 5392POPC   NC368423  34.610  33.802   5.564
 5392POPC   PO468424  34.615  33.786   5.864
 5392POPC   GL168425  34.593  33.757   6.164
 5392POPC   GL268426  34.620  33.704   6.164
 5392POPC   C1A68427  34.528  33.827   6.464
 5392POPC   D2A68428  34.575  33.753   6.764
 5392POPC   C3A68429  34.562  33.751   7.064
 5392POPC   C4A68430  34.580  33.768   7.364
 5392POPC   C1B68431  34.760  33.622   6.464
 5392POPC   C2B68432  34.754  33.599   6.764
 5392POPC   C3B68433  34.706  33.595   7.064
 5392POPC   C4B68434  34.787  33.626   7.364
 5393POPC   NC368435  12.820  36.953   5.564
 5393POPC   PO468436  12.864  36.940   5.864
 5393POPC   GL168437  12.822  36.909   6.164
 5393POPC   GL268438  12.947  36.834   6.164
 5393POPC   C1A68439  12.888  36.862   6.464
 5393POPC   D2A68440  12.879  36.906   6.764
 5393POPC   C3A68441  12.832  36.919   7.064
 5393POPC   C4A68442  12.847  36.886   7.364
 5393POPC   C1B68443  12.955  36.717   6.464
 5393POPC   C2B68444  12.976  36.657   6.764
 5393POPC   C3B68445  13.023  36.711   7.064
 5393POPC   C4B68446  12.965  36.715   7.364
 5394POPC   NC368447   0.446  39.967   5.564
 5394POPC   PO468448   0.440  40.034   5.864
 5394POPC   GL168449   0.450  40.047   6.164
 5394POPC   GL268450   0.366  40.082   6.164
 5394POPC   C1A68451   0.413  40.020   6.464
 5394POPC   D2A68452   0.435  40.018   6.764
 5394POPC   C3A68453   0.454  40.051   7.064
 5394POPC   C4A68454   0.419  39.987   7.364
 5394POPC   C1B68455   0.153  40.053   6.464
 5394POPC   C2B68456   0.162  40.069   6.764
 5394POPC   C3B68457   0.236  40.138   7.064
 5394POPC   C4B68458   0.207  40.121   7.364
 5395POPC   NC368459  20.562  18.280   5.564
 5395POPC   PO468460  20.573  18.239   5.864
 5395POPC   GL168461  20.579  18.240   6.164
 5395POPC   GL268462  20.713  18.426   6.164
 5395POPC   C1A68463  20.567  18.264   6.464
 5395POPC   D2A68464  20.657  18.326   6.764
 5395POPC   C3A68465  20.614  18.290   7.064
 5395POPC   C4A68466  20.649  18.331   7.364
 5395POPC   C1B68467  20.812  18.455   6.464
 5395POPC   C2B68468  20.766  18.448   6.764
 5395POPC   C3B68469  20.740  18.475   7.064
 5395POPC   C4B68470  20.789  18.495   7.364
 5396POPC   NC368471  40.811  33.059   5.564
 5396POPC   PO468472  40.758  33.018   5.864
 5396POPC   GL168473  40.790  33.060   6.164
 5396POPC   GL268474  40.776  32.942   6.164
 5396POPC   C1A68475  40.758  33.062   6.464
 5396POPC   D2A68476  40.789  33.054   6.764
 5396POPC   C3A68477  40.813  33.053   7.064
 5396POPC   C4A68478  40.827  33.065   7.364
 5396POPC   C1B68479  40.735  32.753   6.464
 5396POPC   C2B68480  40.742  32.820   6.764
 5396POPC   C3B68481  40.763  32.804   7.064
 5396POPC   C4B68482  40.775  32.808   7.364
 5397POPC   NC368483  43.881  40.812   5.564
 5397POPC   PO468484  43.868  40.806   5.864
 5397POPC   GL168485  43.880  40.756   6.164
 5397POPC   GL268486  43.721  40.697   6.164
 5397POPC   C1A68487  43.914  40.813   6.464
 5397POPC   D2A68488  43.843  40.817   6.764
 5397POPC   C3A68489  43.859  40.831   7.064
 5397POPC   C4A68490  43.927  40.775   7.364
 5397POPC   C1B68491  43.604  40.674   6.464
 5397POPC   C2B68492  43.692  40.729   6.764
 5397POPC   C3B68493  43.653  40.707   7.064
 5397POPC   C4B68494  43.613  40.675   7.364
 5398POPC   NC368495   1.972  27.636   5.564
 5398POPC   PO468496   1.975  27.619   5.864
 5398POPC   GL168497   2.035  27.621   6.164
 5398POPC   GL268498   2.095  27.525   6.164
 5398POPC   C1A68499   2.015  27.617   6.464
 5398POPC   D2A68500   1.976  27.594   6.764
 5398POPC   C3A68501   2.004  27.625   7.064
 5398POPC   C4A68502   1.988  27.600   7.364
 5398POPC   C1B68503   2.188  27.588   6.464
 5398POPC   C2B68504   2.246  27.599   6.764
 5398POPC   C3B68505   2.244  27.589   7.064
 5398POPC   C4B68506   2.267  27.544   7.364
 5399POPC   NC368507  38.415   5.837   5.564
 5399POPC   PO468508  38.407   5.910   5.864
 5399POPC   GL168509  38.466   5.828   6.164
 5399POPC   GL268510  38.506   5.794   6.164
 5399POPC   C1A68511  38.411   5.839   6.464
 5399POPC   D2A68512  38.504   5.905   6.764
 5399POPC   C3A68513  38.406   5.832   7.064
 5399POPC   C4A68514  38.415   5.888   7.364
 5399POPC   C1B68515  38.524   5.664   6.464
 5399POPC   C2B68516  38.523   5.657   6.764
 5399POPC   C3B68517  38.489   5.588   7.064
 5399POPC   C4B68518  38.528   5.641   7.364
 5400POPC   NC368519  22.195  35.363   5.564
 5400POPC   PO468520  22.127  35.327   5.864
 5400POPC   GL168521  22.194  35.304   6.164
 5400POPC   GL268522  22.079  35.226   6.164
 5400POPC   C1A68523  22.167  35.398   6.464
 5400POPC   D2A68524  22.196  35.384   6.764
 5400POPC   C3A68525  22.210  35.303   7.064
 5400POPC   C4A68526  22.169  35.391   7.364
 5400POPC   C1B68527  21.998  35.158   6.464
 5400POPC   C2B68528  22.006  35.168   6.764
 5400POPC   C3B68529  22.052  35.172   7.064
 5400POPC   C4B68530  22.006  35.133   7.364
 5401POPC   NC368531   5.852  22.964   5.564
 5401POPC   PO468532   5.838  22.911   5.864
 5401POPC   GL168533   5.869  22.980   6.164
 5401POPC   GL268534   5.973  22.919   6.164
 5401POPC   C1A68535   5.905  22.933   6.464
 5401POPC   D2A68536   5.821  22.920   6.764
 5401POPC   C3A68537   5.860  22.939   7.064
 5401POPC   C4A68538   5.837  22.968   7.364
 5401POPC   C1B68539   6.108  22.984   6.464
 5401POPC   C2B68540   6.087  22.994   6.764
 5401POPC   C3B68541   6.133  23.024   7.064
 5401POPC   C4B68542   6.079  22.956   7.364
 5402POPC   NC368543  24.487  12.027   5.564
 5402POPC   PO468544  24.518  12.104   5.864
 5402POPC   GL168545  24.508  12.084   6.164
 5402POPC   GL268546  24.596  12.074   6.164
 5402POPC   C1A68547  24.451  12.040   6.464
 5402POPC   D2A68548  24.458  12.088   6.764
 5402POPC   C3A68549  24.526  12.073   7.064
 5402POPC   C4A68550  24.452  12.110   7.364
 5402POPC   C1B68551  24.785  12.074   6.464
 5402POPC   C2B68552  24.708  12.100   6.764
 5402POPC   C3B68553  24.747  12.016   7.064
 5402POPC   C4B68554  24.771  12.027   7.364
 5403POPC   NC368555  41.532  30.737   5.564
 5403POPC   PO468556  41.554  30.741   5.864
 5403POPC   GL168557  41.530  30.665   6.164
 5403POPC   GL268558  41.416  30.676   6.164
 5403POPC   C1A68559  41.570  30.693   6.464
 5403POPC   D2A68560  41.589  30.679   6.764
 5403POPC   C3A68561  41.581  30.702   7.064
 5403POPC   C4A68562  41.596  30.654   7.364
 5403POPC   C1B68563  41.327  30.603   6.464
 5403POPC   C2B68564  41.308  30.606   6.764
 5403POPC   C3B68565  41.273  30.641   7.064
 5403POPC   C4B68566  41.354  30.657   7.364
 5404POPC   NC368567   6.599  12.114   5.564
 5404POPC   PO468568   6.605  12.030   5.864
 5404POPC   GL168569   6.600  12.086   6.164
 5404POPC   GL268570   6.588  11.973   6.164
 5404POPC   C1A68571   6.651  12.047   6.464
 5404POPC   D2A68572   6.694  12.075   6.764
 5404POPC   C3A68573   6.645  12.119   7.064
 5404POPC   C4A68574   6.673  12.111   7.364
 5404POPC   C1B68575   6.553  11.819   6.464
 5404POPC   C2B68576   6.507  11.801   6.764
 5404POPC   C3B68577   6.491  11.843   7.064
 5404POPC   C4B68578   6.545  11.831   7.364
 5405POPC   NC368579   6.644  34.568   5.564
 5405POPC   PO468580   6.605  34.608   5.864
 5405POPC   GL168581   6.687  34.616   6.164
 5405POPC   GL268582   6.574  34.653   6.164
 5405POPC   C1A68583   6.650  34.594   6.464
 5405POPC   D2A68584   6.642  34.625   6.764
 5405POPC   C3A68585   6.691  34.584   7.064
 5405POPC   C4A68586   6.661  34.528   7.364
 5405POPC   C1B68587   6.493  34.695   6.464
 5405POPC   C2B68588   6.445  34.783   6.764
 5405POPC   C3B68589   6.466  34.724   7.064
 5405POPC   C4B68590   6.426  34.764   7.364
 5406POPC   NC368591   8.165  40.790   5.564
 5406POPC   PO468592   8.173  40.790   5.864
 5406POPC   GL168593   8.194  40.816   6.164
 5406POPC   GL268594   8.324  40.715   6.164
 5406POPC   C1A68595   8.166  40.822   6.464
 5406POPC   D2A68596   8.233  40.787   6.764
 5406POPC   C3A68597   8.243  40.778   7.064
 5406POPC   C4A68598   8.198  40.761   7.364
 5406POPC   C1B68599   8.381  40.688   6.464
 5406POPC   C2B68600   8.421  40.677   6.764
 5406POPC   C3B68601   8.411  40.605   7.064
 5406POPC   C4B68602   8.375  40.697   7.364
 5407POPC   NC368603  22.890  22.163   5.564
 5407POPC   PO468604  22.969  22.133   5.864
 5407POPC   GL168605  22.934  22.115   6.164
 5407POPC   GL268606  22.958  22.256   6.164
 5407POPC   C1A68607  22.897  22.145   6.464
 5407POPC   D2A68608  22.952  22.168   6.764
 5407POPC   C3A68609  22.893  22.113   7.064
 5407POPC   C4A68610  22.975  22.194   7.364
 5407POPC   C1B68611  23.037  22.434   6.464
 5407POPC   C2B68612  22.997  22.433   6.764
 5407POPC   C3B68613  22.987  22.375   7.064
 5407POPC   C4B68614  22.985  22.442   7.364
 5408POPC   NC368615  13.620  22.198   5.564
 5408POPC   PO468616  13.667  22.209   5.864
 5408POPC   GL168617  13.630  22.192   6.164
 5408POPC   GL268618  13.751  22.228   6.164
 5408POPC   C1A68619  13.668  22.163   6.464
 5408POPC   D2A68620  13.628  22.206   6.764
 5408POPC   C3A68621  13.671  22.177   7.064
 5408POPC   C4A68622  13.624  22.166   7.364
 5408POPC   C1B68623  13.858  22.320   6.464
 5408POPC   C2B68624  13.831  22.316   6.764
 5408POPC   C3B68625  13.807  22.309   7.064
 5408POPC   C4B68626  13.887  22.266   7.364
 5409POPC   NC368627  44.671   9.738   5.564
 5409POPC   PO468628  44.619   9.702   5.864
 5409POPC   GL168629  44.626   9.749   6.164
 5409POPC   GL268630  44.598   9.704   6.164
 5409POPC   C1A68631  44.633   9.771   6.464
 5409POPC   D2A68632  44.640   9.754   6.764
 5409POPC   C3A68633  44.675   9.767   7.064
 5409POPC   C4A68634  44.666   9.794   7.364
 5409POPC   C1B68635  44.415   9.622   6.464
 5409POPC   C2B68636  44.448   9.679   6.764
 5409POPC   C3B68637  44.475   9.640   7.064
 5409POPC   C4B68638  44.470   9.644   7.364
 5410POPC   NC368639  22.987  33.791   5.564
 5410POPC   PO468640  22.923  33.780   5.864
 5410POPC   GL168641  22.950  33.770   6.164
 5410POPC   GL268642  22.782  33.844   6.164
 5410POPC   C1A68643  22.965  33.820   6.464
 5410POPC   D2A68644  22.948  33.793   6.764
 5410POPC   C3A68645  22.919  33.796   7.064
 5410POPC   C4A68646  22.927  33.754   7.364
 5410POPC   C1B68647  22.696  33.918   6.464
 5410POPC   C2B68648  22.678  33.906   6.764
 5410POPC   C3B68649  22.676  33.930   7.064
 5410POPC   C4B68650  22.710  33.907   7.364
 5411POPC   NC368651   1.979  36.085   5.564
 5411POPC   PO468652   2.013  36.136   5.864
 5411POPC   GL168653   1.966  36.161   6.164
 5411POPC   GL268654   1.865  36.186   6.164
 5411POPC   C1A68655   2.019  36.172   6.464
 5411POPC   D2A68656   2.025  36.084   6.764
 5411POPC   C3A68657   2.004  36.148   7.064
 5411POPC   C4A68658   1.943  36.094   7.364
 5411POPC   C1B68659   1.791  36.165   6.464
 5411POPC   C2B68660   1.723  36.144   6.764
 5411POPC   C3B68661   1.774  36.188   7.064
 5411POPC   C4B68662   1.750  36.151   7.364
 5412POPC   NC368663   0.396  18.316   5.564
 5412POPC   PO468664   0.419  18.267   5.864
 5412POPC   GL168665   0.424  18.277   6.164
 5412POPC   GL268666   0.528  18.363   6.164
 5412POPC   C1A68667   0.391  18.248   6.464
 5412POPC   D2A68668   0.422  18.298   6.764
 5412POPC   C3A68669   0.393  18.282   7.064
 5412POPC   C4A68670   0.408  18.246   7.364
 5412POPC   C1B68671   0.645  18.343   6.464
 5412POPC   C2B68672   0.684  18.367   6.764
 5412POPC   C3B68673   0.668  18.381   7.064
 5412POPC   C4B68674   0.705  18.363   7.364
 5413POPC   NC368675   8.156  10.528   5.564
 5413POPC   PO468676   8.173  10.559   5.864
 5413POPC   GL168677   8.157  10.535   6.164
 5413POPC   GL268678   8.351  10.526   6.164
 5413POPC   C1A68679   8.223  10.502   6.464
 5413POPC   D2A68680   8.217  10.509   6.764
 5413POPC   C3A68681   8.222  10.574   7.064
 5413POPC   C4A68682   8.219  10.487   7.364
 5413POPC   C1B68683   8.459  10.467   6.464
 5413POPC   C2B68684   8.461  10.442   6.764
 5413POPC   C3B68685   8.430  10.492   7.064
 5413POPC   C4B68686   8.462  10.444   7.364
 5414POPC   NC368687  21.432  31.472   5.564
 5414POPC   PO468688  21.413  31.469   5.864
 5414POPC   GL168689  21.433  31.430   6.164
 5414POPC   GL268690  21.393  31.343   6.164
 5414POPC   C1A68691  21.338  31.430   6.464
 5414POPC   D2A68692  21.383  31.447   6.764
 5414POPC   C3A68693  21.388  31.432   7.064
 5414POPC   C4A68694  21.425  31.490   7.364
 5414POPC   C1B68695  21.443  31.216   6.464
 5414POPC   C2B68696  21.400  31.202   6.764
 5414POPC   C3B68697  21.437  31.192   7.064
 5414POPC   C4B68698  21.495  31.245   7.364
 5415POPC   NC368699  29.969  19.871   5.564
 5415POPC   PO468700  29.916  19.862   5.864
 5415POPC   GL168701  29.908  19.829   6.164
 5415POPC   GL268702  29.817  19.834   6.164
 5415POPC   C1A68703  29.880  19.824   6.464
 5415POPC   D2A68704  29.947  19.794   6.764
 5415POPC   C3A68705  29.905  19.859   7.064
 5415POPC   C4A68706  29.902  19.853   7.364
 5415POPC   C1B68707  29.646  19.936   6.464
 5415POPC   C2B68708  29.715  19.917   6.764
 5415POPC   C3B68709  29.711  19.918   7.064
 5415POPC   C4B68710  29.720  19.842   7.364
 5416POPC   NC368711  29.171  20.632   5.564
 5416POPC   PO468712  29.194  20.618   5.864
 5416POPC   GL168713  29.170  20.587   6.164
 5416POPC   GL268714  29.054  20.754   6.164
 5416POPC   C1A68715  29.150  20.601   6.464
 5416POPC   D2A68716  29.115  20.646   6.764
 5416POPC   C3A68717  29.110  20.637   7.064
 5416POPC   C4A68718  29.129  20.620   7.364
 5416POPC   C1B68719  29.042  20.878   6.464
 5416POPC   C2B68720  28.998  20.816   6.764
 5416POPC   C3B68721  29.033  20.814   7.064
 5416POPC   C4B68722  29.080  20.880   7.364
 5417POPC   NC368723  20.618  24.468   5.564
 5417POPC   PO468724  20.562  24.445   5.864
 5417POPC   GL168725  20.608  24.467   6.164
 5417POPC   GL268726  20.732  24.428   6.164
 5417POPC   C1A68727  20.646  24.525   6.464
 5417POPC   D2A68728  20.606  24.538   6.764
 5417POPC   C3A68729  20.563  24.485   7.064
 5417POPC   C4A68730  20.575  24.465   7.364
 5417POPC   C1B68731  20.793  24.328   6.464
 5417POPC   C2B68732  20.807  24.271   6.764
 5417POPC   C3B68733  20.758  24.327   7.064
 5417POPC   C4B68734  20.768  24.331   7.364
 5418POPC   NC368735   9.772   2.780   5.564
 5418POPC   PO468736   9.798   2.756   5.864
 5418POPC   GL168737   9.768   2.752   6.164
 5418POPC   GL268738   9.845   2.692   6.164
 5418POPC   C1A68739   9.795   2.779   6.464
 5418POPC   D2A68740   9.740   2.808   6.764
 5418POPC   C3A68741   9.790   2.811   7.064
 5418POPC   C4A68742   9.717   2.788   7.364
 5418POPC   C1B68743   9.879   2.612   6.464
 5418POPC   C2B68744   9.870   2.609   6.764
 5418POPC   C3B68745   9.859   2.582   7.064
 5418POPC   C4B68746   9.925   2.583   7.364
 5419POPC   NC368747   8.209  26.860   5.564
 5419POPC   PO468748   8.183  26.833   5.864
 5419POPC   GL168749   8.242  26.808   6.164
 5419POPC   GL268750   8.135  26.949   6.164
 5419POPC   C1A68751   8.174  26.851   6.464
 5419POPC   D2A68752   8.200  26.774   6.764
 5419POPC   C3A68753   8.161  26.859   7.064
 5419POPC   C4A68754   8.223  26.777   7.364
 5419POPC   C1B68755   8.103  27.068   6.464
 5419POPC   C2B68756   8.114  27.063   6.764
 5419POPC   C3B68757   8.114  27.054   7.064
 5419POPC   C4B68758   8.121  27.018   7.364
 5420POPC   NC368759  15.985  25.299   5.564
 5420POPC   PO468760  15.958  25.287   5.864
 5420POPC   GL168761  15.962  25.253   6.164
 5420POPC   GL268762  16.108  25.269   6.164
 5420POPC   C1A68763  15.982  25.271   6.464
 5420POPC   D2A68764  15.988  25.309   6.764
 5420POPC   C3A68765  15.975  25.241   7.064
 5420POPC   C4A68766  15.999  25.251   7.364
 5420POPC   C1B68767  16.244  25.220   6.464
 5420POPC   C2B68768  16.197  25.302   6.764
 5420POPC   C3B68769  16.159  25.305   7.064
 5420POPC   C4B68770  16.193  25.308   7.364
 5421POPC   NC368771  19.013  10.570   5.564
 5421POPC   PO468772  19.062  10.528   5.864
 5421POPC   GL168773  19.030  10.547   6.164
 5421POPC   GL268774  19.019  10.603   6.164
 5421POPC   C1A68775  19.064  10.517   6.464
 5421POPC   D2A68776  19.033  10.520   6.764
 5421POPC   C3A68777  19.085  10.544   7.064
 5421POPC   C4A68778  19.104  10.520   7.364
 5421POPC   C1B68779  19.012  10.788   6.464
 5421POPC   C2B68780  19.008  10.763   6.764
 5421POPC   C3B68781  18.976  10.773   7.064
 5421POPC   C4B68782  18.951  10.712   7.364
 5422POPC   NC368783  39.976   3.578   5.564
 5422POPC   PO468784  40.046   3.511   5.864
 5422POPC   GL168785  39.985   3.559   6.164
 5422POPC   GL268786  39.897   3.567   6.164
 5422POPC   C1A68787  39.961   3.531   6.464
 5422POPC   D2A68788  39.989   3.520   6.764
 5422POPC   C3A68789  40.043   3.564   7.064
 5422POPC   C4A68790  39.965   3.511   7.364
 5422POPC   C1B68791  39.784   3.528   6.464
 5422POPC   C2B68792  39.793   3.519   6.764
 5422POPC   C3B68793  39.717   3.459   7.064
 5422POPC   C4B68794  39.743   3.468   7.364
 5423POPC   NC368795  24.508  33.837   5.564
 5423POPC   PO468796  24.479  33.845   5.864
 5423POPC   GL168797  24.452  33.771   6.164
 5423POPC   GL268798  24.345  33.770   6.164
 5423POPC   C1A68799  24.532  33.760   6.464
 5423POPC   D2A68800  24.510  33.831   6.764
 5423POPC   C3A68801  24.447  33.763   7.064
 5423POPC   C4A68802  24.519  33.786   7.364
 5423POPC   C1B68803  24.289  33.792   6.464
 5423POPC   C2B68804  24.232  33.769   6.764
 5423POPC   C3B68805  24.197  33.787   7.064
 5423POPC   C4B68806  24.220  33.783   7.364
 5424POPC   NC368807   5.823   2.001   5.564
 5424POPC   PO468808   5.871   2.019   5.864
 5424POPC   GL168809   5.886   1.978   6.164
 5424POPC   GL268810   5.823   2.121   6.164
 5424POPC   C1A68811   5.917   1.940   6.464
 5424POPC   D2A68812   5.901   1.947   6.764
 5424POPC   C3A68813   5.835   1.950   7.064
 5424POPC   C4A68814   5.912   1.972   7.364
 5424POPC   C1B68815   5.730   2.210   6.464
 5424POPC   C2B68816   5.764   2.170   6.764
 5424POPC   C3B68817   5.805   2.237   7.064
 5424POPC   C4B68818   5.760   2.200   7.364
 5425POPC   NC368819  33.045  31.431   5.564
 5425POPC   PO468820  32.999  31.485   5.864
 5425POPC   GL168821  33.000  31.468   6.164
 5425POPC   GL268822  32.929  31.558   6.164
 5425POPC   C1A68823  33.035  31.480   6.464
 5425POPC   D2A68824  33.040  31.445   6.764
 5425POPC   C3A68825  33.042  31.464   7.064
 5425POPC   C4A68826  33.025  31.494   7.364
 5425POPC   C1B68827  32.941  31.640   6.464
 5425POPC   C2B68828  32.856  31.668   6.764
 5425POPC   C3B68829  32.862  31.668   7.064
 5425POPC   C4B68830  32.910  31.732   7.364
 5426POPC   NC368831  17.506   8.937   5.564
 5426POPC   PO468832  17.500   9.012   5.864
 5426POPC   GL168833  17.469   8.958   6.164
 5426POPC   GL268834  17.652   8.910   6.164
 5426POPC   C1A68835  17.517   8.945   6.464
 5426POPC   D2A68836  17.552   8.946   6.764
 5426POPC   C3A68837  17.495   8.991   7.064
 5426POPC   C4A68838  17.549   8.967   7.364
 5426POPC   C1B68839  17.697   8.911   6.464
 5426POPC   C2B68840  17.712   8.882   6.764
 5426POPC   C3B68841  17.729   8.845   7.064
 5426POPC   C4B68842  17.722   8.844   7.364
 5427POPC   NC368843  14.423  21.358   5.564
 5427POPC   PO468844  14.451  21.352   5.864
 5427POPC   GL168845  14.448  21.340   6.164
 5427POPC   GL268846  14.485  21.384   6.164
 5427POPC   C1A68847  14.419  21.346   6.464
 5427POPC   D2A68848  14.415  21.427   6.764
 5427POPC   C3A68849  14.450  21.357   7.064
 5427POPC   C4A68850  14.396  21.421   7.364
 5427POPC   C1B68851  14.606  21.269   6.464
 5427POPC   C2B68852  14.636  21.335   6.764
 5427POPC   C3B68853  14.650  21.259   7.064
 5427POPC   C4B68854  14.591  21.304   7.364
 5428POPC   NC368855  40.784  10.496   5.564
 5428POPC   PO468856  40.755  10.546   5.864
 5428POPC   GL168857  40.798  10.521   6.164
 5428POPC   GL268858  40.654  10.542   6.164
 5428POPC   C1A68859  40.792  10.484   6.464
 5428POPC   D2A68860  40.793  10.481   6.764
 5428POPC   C3A68861  40.768  10.497   7.064
 5428POPC   C4A68862  40.736  10.516   7.364
 5428POPC   C1B68863  40.535  10.612   6.464
 5428POPC   C2B68864  40.545  10.610   6.764
 5428POPC   C3B68865  40.610  10.638   7.064
 5428POPC   C4B68866  40.537  10.640   7.364
 5429POPC   NC368867  33.820  36.141   5.564
 5429POPC   PO468868  33.794  36.140   5.864
 5429POPC   GL168869  33.813  36.109   6.164
 5429POPC   GL268870  33.801  36.209   6.164
 5429POPC   C1A68871  33.817  36.145   6.464
 5429POPC   D2A68872  33.797  36.149   6.764
 5429POPC   C3A68873  33.757  36.175   7.064
 5429POPC   C4A68874  33.850  36.165   7.364
 5429POPC   C1B68875  33.728  36.357   6.464
 5429POPC   C2B68876  33.680  36.395   6.764
 5429POPC   C3B68877  33.705  36.340   7.064
 5429POPC   C4B68878  33.698  36.336   7.364
 5430POPC   NC368879  35.391   8.997   5.564
 5430POPC   PO468880  35.332   8.970   5.864
 5430POPC   GL168881  35.357   8.996   6.164
 5430POPC   GL268882  35.393   8.848   6.164
 5430POPC   C1A68883  35.353   8.985   6.464
 5430POPC   D2A68884  35.332   9.011   6.764
 5430POPC   C3A68885  35.326   8.990   7.064
 5430POPC   C4A68886  35.334   8.959   7.364
 5430POPC   C1B68887  35.376   8.761   6.464
 5430POPC   C2B68888  35.413   8.761   6.764
 5430POPC   C3B68889  35.382   8.722   7.064
 5430POPC   C4B68890  35.320   8.770   7.364
 5431POPC   NC368891  26.799  17.507   5.564
 5431POPC   PO468892  26.793  17.533   5.864
 5431POPC   GL168893  26.805  17.518   6.164
 5431POPC   GL268894  26.918  17.422   6.164
 5431POPC   C1A68895  26.790  17.515   6.464
 5431POPC   D2A68896  26.842  17.528   6.764
 5431POPC   C3A68897  26.795  17.539   7.064
 5431POPC   C4A68898  26.826  17.461   7.364
 5431POPC   C1B68899  26.948  17.289   6.464
 5431POPC   C2B68900  26.937  17.289   6.764
 5431POPC   C3B68901  26.935  17.280   7.064
 5431POPC   C4B68902  26.939  17.331   7.364
 5432POPC   NC368903  42.367  19.811   5.564
 5432POPC   PO468904  42.382  19.862   5.864
 5432POPC   GL168905  42.286  19.785   6.164
 5432POPC   GL268906  42.244  19.863   6.164
 5432POPC   C1A68907  42.336  19.865   6.464
 5432POPC   D2A68908  42.365  19.806   6.764
 5432POPC   C3A68909  42.288  19.851   7.064
 5432POPC   C4A68910  42.315  19.811   7.364
 5432POPC   C1B68911  42.096  19.861   6.464
 5432POPC   C2B68912  42.086  19.862   6.764
 5432POPC   C3B68913  42.071  19.912   7.064
 5432POPC   C4B68914  42.137  19.849   7.364
 5433POPC   NC368915  10.497  40.818   5.564
 5433POPC   PO468916  10.476  40.763   5.864
 5433POPC   GL168917  10.484  40.758   6.164
 5433POPC   GL268918  10.513  40.945   6.164
 5433POPC   C1A68919  10.524  40.774   6.464
 5433POPC   D2A68920  10.547  40.821   6.764
 5433POPC   C3A68921  10.530  40.764   7.064
 5433POPC   C4A68922  10.479  40.779   7.364
 5433POPC   C1B68923  10.391  41.010   6.464
 5433POPC   C2B68924  10.472  41.042   6.764
 5433POPC   C3B68925  10.409  41.062   7.064
 5433POPC   C4B68926  10.404  41.001   7.364
 5434POPC   NC368927   2.733  19.100   5.564
 5434POPC   PO468928   2.814  19.088   5.864
 5434POPC   GL168929   2.728  19.079   6.164
 5434POPC   GL268930   2.606  19.002   6.164
 5434POPC   C1A68931   2.721  19.080   6.464
 5434POPC   D2A68932   2.789  19.027   6.764
 5434POPC   C3A68933   2.768  19.084   7.064
 5434POPC   C4A68934   2.765  19.063   7.364
 5434POPC   C1B68935   2.507  18.961   6.464
 5434POPC   C2B68936   2.533  18.945   6.764
 5434POPC   C3B68937   2.478  19.016   7.064
 5434POPC   C4B68938   2.558  18.939   7.364
 5435POPC   NC368939  26.019   7.395   5.564
 5435POPC   PO468940  25.998   7.465   5.864
 5435POPC   GL168941  26.065   7.403   6.164
 5435POPC   GL268942  25.925   7.522   6.164
 5435POPC   C1A68943  26.081   7.373   6.464
 5435POPC   D2A68944  26.088   7.393   6.764
 5435POPC   C3A68945  26.057   7.425   7.064
 5435POPC   C4A68946  26.050   7.457   7.364
 5435POPC   C1B68947  25.862   7.607   6.464
 5435POPC   C2B68948  25.874   7.574   6.764
 5435POPC   C3B68949  25.884   7.578   7.064
 5435POPC   C4B68950  25.856   7.557   7.364
 5436POPC   NC368951  21.421   3.576   5.564
 5436POPC   PO468952  21.365   3.543   5.864
 5436POPC   GL168953  21.396   3.500   6.164
 5436POPC   GL268954  21.301   3.608   6.164
 5436POPC   C1A68955  21.360   3.501   6.464
 5436POPC   D2A68956  21.424   3.548   6.764
 5436POPC   C3A68957  21.382   3.531   7.064
 5436POPC   C4A68958  21.356   3.531   7.364
 5436POPC   C1B68959  21.161   3.712   6.464
 5436POPC   C2B68960  21.208   3.724   6.764
 5436POPC   C3B68961  21.165   3.649   7.064
 5436POPC   C4B68962  21.150   3.713   7.364
 5437POPC   NC368963  22.899  34.536   5.564
 5437POPC   PO468964  22.970  34.587   5.864
 5437POPC   GL168965  22.949  34.625   6.164
 5437POPC   GL268966  23.048  34.576   6.164
 5437POPC   C1A68967  22.969  34.569   6.464
 5437POPC   D2A68968  22.971  34.620   6.764
 5437POPC   C3A68969  22.967  34.547   7.064
 5437POPC   C4A68970  22.985  34.582   7.364
 5437POPC   C1B68971  23.131  34.535   6.464
 5437POPC   C2B68972  23.154  34.479   6.764
 5437POPC   C3B68973  23.126  34.484   7.064
 5437POPC   C4B68974  23.158  34.456   7.364
 5438POPC   NC368975   8.981  26.062   5.564
 5438POPC   PO468976   8.969  26.066   5.864
 5438POPC   GL168977   8.974  26.050   6.164
 5438POPC   GL268978   9.016  25.878   6.164
 5438POPC   C1A68979   9.015  26.026   6.464
 5438POPC   D2A68980   9.011  26.086   6.764
 5438POPC   C3A68981   9.011  26.031   7.064
 5438POPC   C4A68982   8.954  26.016   7.364
 5438POPC   C1B68983   8.980  25.795   6.464
 5438POPC   C2B68984   8.986  25.789   6.764
 5438POPC   C3B68985   9.042  25.753   7.064
 5438POPC   C4B68986   9.066  25.772   7.364
 5439POPC   NC368987  14.431   4.291   5.564
 5439POPC   PO468988  14.417   4.308   5.864
 5439POPC   GL168989  14.402   4.314   6.164
 5439POPC   GL268990  14.432   4.417   6.164
 5439POPC   C1A68991  14.415   4.292   6.464
 5439POPC   D2A68992  14.403   4.330   6.764
 5439POPC   C3A68993  14.435   4.324   7.064
 5439POPC   C4A68994  14.410   4.365   7.364
 5439POPC   C1B68995  14.491   4.520   6.464
 5439POPC   C2B68996  14.478   4.599   6.764
 5439POPC   C3B68997  14.471   4.610   7.064
 5439POPC   C4B68998  14.414   4.609   7.364
 5440POPC   NC368999   8.188  24.446   5.564
 5440POPC   PO469000   8.187  24.483   5.864
 5440POPC   GL169001   8.179  24.467   6.164
 5440POPC   GL269002   8.297  24.346   6.164
 5440POPC   C1A69003   8.234  24.440   6.464
 5440POPC   D2A69004   8.232  24.530   6.764
 5440POPC   C3A69005   8.189  24.498   7.064
 5440POPC   C4A69006   8.155  24.497   7.364
 5440POPC   C1B69007   8.311  24.297   6.464
 5440POPC   C2B69008   8.285  24.259   6.764
 5440POPC   C3B69009   8.315  24.298   7.064
 5440POPC   C4B69010   8.291  24.257   7.364
 5441POPC   NC369011   1.960  12.894   5.564
 5441POPC   PO469012   2.007  12.802   5.864
 5441POPC   GL169013   2.005  12.857   6.164
 5441POPC   GL269014   2.040  12.886   6.164
 5441POPC   C1A69015   1.995  12.858   6.464
 5441POPC   D2A69016   1.948  12.845   6.764
 5441POPC   C3A69017   2.009  12.891   7.064
 5441POPC   C4A69018   1.989  12.863   7.364
 5441POPC   C1B69019   2.226  13.055   6.464
 5441POPC   C2B69020   2.182  13.058   6.764
 5441POPC   C3B69021   2.140  13.029   7.064
 5441POPC   C4B69022   2.133  12.979   7.364
 5442POPC   NC369023  22.951  44.636   5.564
 5442POPC   PO469024  22.890  44.637   5.864
 5442POPC   GL169025  22.937  44.710   6.164
 5442POPC   GL269026  22.805  44.639   6.164
 5442POPC   C1A69027  22.968  44.649   6.464
 5442POPC   D2A69028  22.966  44.613   6.764
 5442POPC   C3A69029  22.896  44.653   7.064
 5442POPC   C4A69030  22.976  44.619   7.364
 5442POPC   C1B69031  22.711  44.550   6.464
 5442POPC   C2B69032  22.694  44.575   6.764
 5442POPC   C3B69033  22.685  44.532   7.064
 5442POPC   C4B69034  22.727  44.513   7.364
 5443POPC   NC369035  17.547  19.021   5.564
 5443POPC   PO469036  17.531  19.036   5.864
 5443POPC   GL169037  17.470  19.035   6.164
 5443POPC   GL269038  17.514  18.959   6.164
 5443POPC   C1A69039  17.506  19.016   6.464
 5443POPC   D2A69040  17.516  19.072   6.764
 5443POPC   C3A69041  17.488  19.038   7.064
 5443POPC   C4A69042  17.486  19.099   7.364
 5443POPC   C1B69043  17.464  18.788   6.464
 5443POPC   C2B69044  17.489  18.812   6.764
 5443POPC   C3B69045  17.469  18.829   7.064
 5443POPC   C4B69046  17.444  18.858   7.364
 5444POPC   NC369047  13.595  38.486   5.564
 5444POPC   PO469048  13.642  38.418   5.864
 5444POPC   GL169049  13.630  38.454   6.164
 5444POPC   GL269050  13.548  38.351   6.164
 5444POPC   C1A69051  13.644  38.498   6.464
 5444POPC   D2A69052  13.595  38.500   6.764
 5444POPC   C3A69053  13.661  38.481   7.064
 5444POPC   C4A69054  13.610  38.426   7.364
 5444POPC   C1B69055  13.482  38.294   6.464
 5444POPC   C2B69056  13.489  38.221   6.764
 5444POPC   C3B69057  13.437  38.246   7.064
 5444POPC   C4B69058  13.482  38.261   7.364
 5445POPC   NC369059   3.494  42.311   5.564
 5445POPC   PO469060   3.521  42.347   5.864
 5445POPC   GL169061   3.509  42.285   6.164
 5445POPC   GL269062   3.572  42.434   6.164
 5445POPC   C1A69063   3.510  42.306   6.464
 5445POPC   D2A69064   3.531  42.297   6.764
 5445POPC   C3A69065   3.516  42.349   7.064
 5445POPC   C4A69066   3.560  42.381   7.364
 5445POPC   C1B69067   3.643  42.524   6.464
 5445POPC   C2B69068   3.592  42.600   6.764
 5445POPC   C3B69069   3.594  42.563   7.064
 5445POPC   C4B69070   3.676  42.613   7.364
 5446POPC   NC369071  39.989  44.688   5.564
 5446POPC   PO469072  40.048  44.672   5.864
 5446POPC   GL169073  40.039  44.669   6.164
 5446POPC   GL269074  39.874  44.637   6.164
 5446POPC   C1A69075  39.973  44.619   6.464
 5446POPC   D2A69076  39.977  44.667   6.764
 5446POPC   C3A69077  40.036  44.664   7.064
 5446POPC   C4A69078  39.968  44.700   7.364
 5446POPC   C1B69079  39.755  44.516   6.464
 5446POPC   C2B69080  39.827  44.595   6.764
 5446POPC   C3B69081  39.756  44.549   7.064
 5446POPC   C4B69082  39.764  44.531   7.364
 5447POPC   NC369083   7.411  14.409   5.564
 5447POPC   PO469084   7.448  14.438   5.864
 5447POPC   GL169085   7.411  14.377   6.164
 5447POPC   GL269086   7.289  14.364   6.164
 5447POPC   C1A69087   7.463  14.431   6.464
 5447POPC   D2A69088   7.456  14.396   6.764
 5447POPC   C3A69089   7.401  14.392   7.064
 5447POPC   C4A69090   7.462  14.407   7.364
 5447POPC   C1B69091   7.159  14.287   6.464
 5447POPC   C2B69092   7.203  14.277   6.764
 5447POPC   C3B69093   7.200  14.341   7.064
 5447POPC   C4B69094   7.146  14.374   7.364
 5448POPC   NC369095  43.856   0.470   5.564
 5448POPC   PO469096  43.910   0.467   5.864
 5448POPC   GL169097  43.903   0.465   6.164
 5448POPC   GL269098  44.049   0.426   6.164
 5448POPC   C1A69099  43.910   0.399   6.464
 5448POPC   D2A69100  43.901   0.396   6.764
 5448POPC   C3A69101  43.855   0.417   7.064
 5448POPC   C4A69102  43.859   0.447   7.364
 5448POPC   C1B69103  44.080   0.291   6.464
 5448POPC   C2B69104  44.123   0.340   6.764
 5448POPC   C3B69105  44.125   0.301   7.064
 5448POPC   C4B69106  44.074   0.358   7.364
 5449POPC   NC369107  29.914  43.856   5.564
 5449POPC   PO469108  29.920  43.860   5.864
 5449POPC   GL169109  29.960  43.864   6.164
 5449POPC   GL269110  29.967  43.801   6.164
 5449POPC   C1A69111  29.916  43.837   6.464
 5449POPC   D2A69112  29.876  43.893   6.764
 5449POPC   C3A69113  29.966  43.931   7.064
 5449POPC   C4A69114  29.945  43.852   7.364
 5449POPC   C1B69115  30.147  43.668   6.464
 5449POPC   C2B69116  30.105  43.679   6.764
 5449POPC   C3B69117  30.066  43.713   7.064
 5449POPC   C4B69118  30.081  43.748   7.364
 5450POPC   NC369119  41.596  39.193   5.564
 5450POPC   PO469120  41.576  39.222   5.864
 5450POPC   GL169121  41.510  39.269   6.164
 5450POPC   GL269122  41.464  39.246   6.164
 5450POPC   C1A69123  41.554  39.186   6.464
 5450POPC   D2A69124  41.568  39.223   6.764
 5450POPC   C3A69125  41.530  39.208   7.064
 5450POPC   C4A69126  41.598  39.268   7.364
 5450POPC   C1B69127  41.314  39.205   6.464
 5450POPC   C2B69128  41.292  39.212   6.764
 5450POPC   C3B69129  41.297  39.232   7.064
 5450POPC   C4B69130  41.326  39.244   7.364
 5451POPC   NC369131   6.639  29.882   5.564
 5451POPC   PO469132   6.622  29.957   5.864
 5451POPC   GL169133   6.693  29.920   6.164
 5451POPC   GL269134   6.751  29.929   6.164
 5451POPC   C1A69135   6.649  29.938   6.464
 5451POPC   D2A69136   6.669  29.910   6.764
 5451POPC   C3A69137   6.691  29.887   7.064
 5451POPC   C4A69138   6.640  29.936   7.364
 5451POPC   C1B69139   6.941  29.975   6.464
 5451POPC   C2B69140   6.934  29.959   6.764
 5451POPC   C3B69141   6.883  29.983   7.064
 5451POPC   C4B69142   6.844  29.989   7.364
 5452POPC   NC369143  36.858  36.939   5.564
 5452POPC   PO469144  36.919  36.873   5.864
 5452POPC   GL169145  36.929  36.906   6.164
 5452POPC   GL269146  37.022  36.972   6.164
 5452POPC   C1A69147  36.883  36.943   6.464
 5452POPC   D2A69148  36.862  36.929   6.764
 5452POPC   C3A69149  36.918  36.868   7.064
 5452POPC   C4A69150  36.862  36.942   7.364
 5452POPC   C1B69151  37.151  36.947   6.464
 5452POPC   C2B69152  37.187  37.008   6.764
 5452POPC   C3B69153  37.118  36.947   7.064
 5452POPC   C4B69154  37.134  36.978   7.364
 5453POPC   NC369155   4.326  22.936   5.564
 5453POPC   PO469156   4.296  22.905   5.864
 5453POPC   GL169157   4.347  22.916   6.164
 5453POPC   GL269158   4.277  23.075   6.164
 5453POPC   C1A69159   4.359  22.954   6.464
 5453POPC   D2A69160   4.347  22.986   6.764
 5453POPC   C3A69161   4.354  22.935   7.064
 5453POPC   C4A69162   4.294  22.940   7.364
 5453POPC   C1B69163   4.149  23.104   6.464
 5453POPC   C2B69164   4.197  23.138   6.764
 5453POPC   C3B69165   4.158  23.119   7.064
 5453POPC   C4B69166   4.139  23.091   7.364
 5454POPC   NC369167  33.762  29.911   5.564
 5454POPC   PO469168  33.842  29.954   5.864
 5454POPC   GL169169  33.780  29.955   6.164
 5454POPC   GL269170  33.771  29.762   6.164
 5454POPC   C1A69171  33.793  29.906   6.464
 5454POPC   D2A69172  33.774  29.877   6.764
 5454POPC   C3A69173  33.784  29.951   7.064
 5454POPC   C4A69174  33.756  29.896   7.364
 5454POPC   C1B69175  33.793  29.630   6.464
 5454POPC   C2B69176  33.805  29.706   6.764
 5454POPC   C3B69177  33.840  29.630   7.064
 5454POPC   C4B69178  33.805  29.678   7.364
 5455POPC   NC369179  24.476  21.347   5.564
 5455POPC   PO469180  24.523  21.406   5.864
 5455POPC   GL169181  24.469  21.411   6.164
 5455POPC   GL269182  24.363  21.309   6.164
 5455POPC   C1A69183  24.458  21.419   6.464
 5455POPC   D2A69184  24.507  21.349   6.764
 5455POPC   C3A69185  24.491  21.432   7.064
 5455POPC   C4A69186  24.483  21.405   7.364
 5455POPC   C1B69187  24.280  21.315   6.464
 5455POPC   C2B69188  24.260  21.224   6.764
 5455POPC   C3B69189  24.241  21.241   7.064
 5455POPC   C4B69190  24.238  21.265   7.364
 5456POPC   NC369191   5.068  12.086   5.564
 5456POPC   PO469192   5.128  12.067   5.864
 5456POPC   GL169193   5.079  12.064   6.164
 5456POPC   GL269194   5.142  12.023   6.164
 5456POPC   C1A69195   5.131  12.054   6.464
 5456POPC   D2A69196   5.071  12.029   6.764
 5456POPC   C3A69197   5.052  12.055   7.064
 5456POPC   C4A69198   5.100  12.067   7.364
 5456POPC   C1B69199   5.305  11.849   6.464
 5456POPC   C2B69200   5.290  11.898   6.764
 5456POPC   C3B69201   5.289  11.904   7.064
 5456POPC   C4B69202   5.247  11.895   7.364
 5457POPC   NC369203  41.567  29.901   5.564
 5457POPC   PO469204  41.565  29.917   5.864
 5457POPC   GL169205  41.556  29.964   6.164
 5457POPC   GL269206  41.561  30.036   6.164
 5457POPC   C1A69207  41.564  29.940   6.464
 5457POPC   D2A69208  41.566  29.954   6.764
 5457POPC   C3A69209  41.571  29.897   7.064
 5457POPC   C4A69210  41.588  29.871   7.364
 5457POPC   C1B69211  41.568  30.207   6.464
 5457POPC   C2B69212  41.595  30.139   6.764
 5457POPC   C3B69213  41.576  30.142   7.064
 5457POPC   C4B69214  41.531  30.133   7.364
 5458POPC   NC369215  38.425  38.441   5.564
 5458POPC   PO469216  38.457  38.449   5.864
 5458POPC   GL169217  38.440  38.462   6.164
 5458POPC   GL269218  38.424  38.391   6.164
 5458POPC   C1A69219  38.451  38.468   6.464
 5458POPC   D2A69220  38.485  38.465   6.764
 5458POPC   C3A69221  38.489  38.439   7.064
 5458POPC   C4A69222  38.471  38.424   7.364
 5458POPC   C1B69223  38.307  38.262   6.464
 5458POPC   C2B69224  38.385  38.243   6.764
 5458POPC   C3B69225  38.341  38.263   7.064
 5458POPC   C4B69226  38.341  38.184   7.364
 5459POPC   NC369227  20.653  40.017   5.564
 5459POPC   PO469228  20.601  39.997   5.864
 5459POPC   GL169229  20.568  40.031   6.164
 5459POPC   GL269230  20.730  40.063   6.164
 5459POPC   C1A69231  20.603  39.970   6.464
 5459POPC   D2A69232  20.607  39.999   6.764
 5459POPC   C3A69233  20.576  40.054   7.064
 5459POPC   C4A69234  20.563  40.051   7.364
 5459POPC   C1B69235  20.862  40.023   6.464
 5459POPC   C2B69236  20.890  40.067   6.764
 5459POPC   C3B69237  20.892  40.057   7.064
 5459POPC   C4B69238  20.900  40.054   7.364
 5460POPC   NC369239   3.536  40.734   5.564
 5460POPC   PO469240   3.527  40.812   5.864
 5460POPC   GL169241   3.546  40.823   6.164
 5460POPC   GL269242   3.442  40.926   6.164
 5460POPC   C1A69243   3.555  40.804   6.464
 5460POPC   D2A69244   3.541  40.773   6.764
 5460POPC   C3A69245   3.539  40.751   7.064
 5460POPC   C4A69246   3.587  40.801   7.364
 5460POPC   C1B69247   3.467  40.991   6.464
 5460POPC   C2B69248   3.396  41.000   6.764
 5460POPC   C3B69249   3.468  40.982   7.064
 5460POPC   C4B69250   3.433  40.980   7.364
 5461POPC   NC369251   5.897  41.523   5.564
 5461POPC   PO469252   5.841  41.582   5.864
 5461POPC   GL169253   5.848  41.572   6.164
 5461POPC   GL269254   5.934  41.668   6.164
 5461POPC   C1A69255   5.876  41.566   6.464
 5461POPC   D2A69256   5.831  41.553   6.764
 5461POPC   C3A69257   5.902  41.530   7.064
 5461POPC   C4A69258   5.866  41.515   7.364
 5461POPC   C1B69259   6.083  41.749   6.464
 5461POPC   C2B69260   6.038  41.784   6.764
 5461POPC   C3B69261   6.058  41.706   7.064
 5461POPC   C4B69262   6.064  41.725   7.364
 5462POPC   NC369263  37.671  13.587   5.564
 5462POPC   PO469264  37.634  13.599   5.864
 5462POPC   GL169265  37.664  13.629   6.164
 5462POPC   GL269266  37.634  13.530   6.164
 5462POPC   C1A69267  37.658  13.593   6.464
 5462POPC   D2A69268  37.698  13.671   6.764
 5462POPC   C3A69269  37.675  13.643   7.064
 5462POPC   C4A69270  37.692  13.643   7.364
 5462POPC   C1B69271  37.537  13.403   6.464
 5462POPC   C2B69272  37.510  13.473   6.764
 5462POPC   C3B69273  37.462  13.484   7.064
 5462POPC   C4B69274  37.463  13.425   7.364
 5463POPC   NC369275  30.712  40.017   5.564
 5463POPC   PO469276  30.664  40.030   5.864
 5463POPC   GL169277  30.728  39.980   6.164
 5463POPC   GL269278  30.678  39.905   6.164
 5463POPC   C1A69279  30.654  40.032   6.464
 5463POPC   D2A69280  30.697  39.962   6.764
 5463POPC   C3A69281  30.741  40.049   7.064
 5463POPC   C4A69282  30.707  40.028   7.364
 5463POPC   C1B69283  30.675  39.726   6.464
 5463POPC   C2B69284  30.662  39.735   6.764
 5463POPC   C3B69285  30.700  39.760   7.064
 5463POPC   C4B69286  30.692  39.720   7.364
 5464POPC   NC369287  22.952   3.530   5.564
 5464POPC   PO469288  22.986   3.508   5.864
 5464POPC   GL169289  22.890   3.587   6.164
 5464POPC   GL269290  22.802   3.544   6.164
 5464POPC   C1A69291  22.902   3.555   6.464
 5464POPC   D2A69292  22.984   3.549   6.764
 5464POPC   C3A69293  22.964   3.574   7.064
 5464POPC   C4A69294  22.968   3.503   7.364
 5464POPC   C1B69295  22.733   3.549   6.464
 5464POPC   C2B69296  22.703   3.605   6.764
 5464POPC   C3B69297  22.693   3.565   7.064
 5464POPC   C4B69298  22.697   3.537   7.364
 5465POPC   NC369299  37.672  32.291   5.564
 5465POPC   PO469300  37.709  32.245   5.864
 5465POPC   GL169301  37.696  32.231   6.164
 5465POPC   GL269302  37.543  32.204   6.164
 5465POPC   C1A69303  37.641  32.226   6.464
 5465POPC   D2A69304  37.637  32.294   6.764
 5465POPC   C3A69305  37.676  32.270   7.064
 5465POPC   C4A69306  37.640  32.260   7.364
 5465POPC   C1B69307  37.496  32.132   6.464
 5465POPC   C2B69308  37.465  32.078   6.764
 5465POPC   C3B69309  37.425  32.094   7.064
 5465POPC   C4B69310  37.488  32.146   7.364
 5466POPC   NC369311  28.324  27.638   5.564
 5466POPC   PO469312  28.367  27.568   5.864
 5466POPC   GL169313  28.419  27.550   6.164
 5466POPC   GL269314  28.248  27.605   6.164
 5466POPC   C1A69315  28.330  27.603   6.464
 5466POPC   D2A69316  28.369  27.605   6.764
 5466POPC   C3A69317  28.362  27.609   7.064
 5466POPC   C4A69318  28.328  27.561   7.364
 5466POPC   C1B69319  28.117  27.698   6.464
 5466POPC   C2B69320  28.086  27.672   6.764
 5466POPC   C3B69321  28.112  27.606   7.064
 5466POPC   C4B69322  28.164  27.656   7.364
 5467POPC   NC369323  26.843   1.982   5.564
 5467POPC   PO469324  26.818   2.015   5.864
 5467POPC   GL169325  26.782   1.958   6.164
 5467POPC   GL269326  26.663   1.991   6.164
 5467POPC   C1A69327  26.782   1.983   6.464
 5467POPC   D2A69328  26.789   1.950   6.764
 5467POPC   C3A69329  26.864   1.992   7.064
 5467POPC   C4A69330  26.806   1.940   7.364
 5467POPC   C1B69331  26.527   1.924   6.464
 5467POPC   C2B69332  26.547   1.923   6.764
 5467POPC   C3B69333  26.575   1.938   7.064
 5467POPC   C4B69334  26.585   1.977   7.364
 5468POPC   NC369335  20.638   0.441   5.564
 5468POPC   PO469336  20.650   0.431   5.864
 5468POPC   GL169337  20.609   0.425   6.164
 5468POPC   GL269338  20.508   0.431   6.164
 5468POPC   C1A69339  20.602   0.441   6.464
 5468POPC   D2A69340  20.610   0.428   6.764
 5468POPC   C3A69341  20.609   0.402   7.064
 5468POPC   C4A69342  20.562   0.430   7.364
 5468POPC   C1B69343  20.401   0.512   6.464
 5468POPC   C2B69344  20.396   0.478   6.764
 5468POPC   C3B69345  20.393   0.533   7.064
 5468POPC   C4B69346  20.412   0.471   7.364
 5469POPC   NC369347  37.662  42.370   5.564
 5469POPC   PO469348  37.687  42.368   5.864
 5469POPC   GL169349  37.647  42.329   6.164
 5469POPC   GL269350  37.744  42.359   6.164
 5469POPC   C1A69351  37.704  42.312   6.464
 5469POPC   D2A69352  37.684  42.322   6.764
 5469POPC   C3A69353  37.720  42.310   7.064
 5469POPC   C4A69354  37.717  42.315   7.364
 5469POPC   C1B69355  37.853  42.453   6.464
 5469POPC   C2B69356  37.887  42.465   6.764
 5469POPC   C3B69357  37.927  42.426   7.064
 5469POPC   C4B69358  37.849  42.489   7.364
 5470POPC   NC369359   0.457  31.512   5.564
 5470POPC   PO469360   0.466  31.483   5.864
 5470POPC   GL169361   0.482  31.425   6.164
 5470POPC   GL269362   0.518  31.336   6.164
 5470POPC   C1A69363   0.444  31.485   6.464
 5470POPC   D2A69364   0.466  31.522   6.764
 5470POPC   C3A69365   0.426  31.490   7.064
 5470POPC   C4A69366   0.392  31.450   7.364
 5470POPC   C1B69367   0.553  31.200   6.464
 5470POPC   C2B69368   0.541  31.200   6.764
 5470POPC   C3B69369   0.517  31.196   7.064
 5470POPC   C4B69370   0.502  31.216   7.364
 5471POPC   NC369371  19.091  36.131   5.564
 5471POPC   PO469372  19.058  36.108   5.864
 5471POPC   GL169373  19.069  36.132   6.164
 5471POPC   GL269374  18.981  36.042   6.164
 5471POPC   C1A69375  19.054  36.104   6.464
 5471POPC   D2A69376  19.024  36.098   6.764
 5471POPC   C3A69377  19.032  36.139   7.064
 5471POPC   C4A69378  19.047  36.149   7.364
 5471POPC   C1B69379  18.924  35.930   6.464
 5471POPC   C2B69380  18.863  35.979   6.764
 5471POPC   C3B69381  18.924  35.958   7.064
 5471POPC   C4B69382  18.858  35.950   7.364
 5472POPC   NC369383  24.442  43.143   5.564
 5472POPC   PO469384  24.539  43.089   5.864
 5472POPC   GL169385  24.488  43.153   6.164
 5472POPC   GL269386  24.542  43.049   6.164
 5472POPC   C1A69387  24.495  43.129   6.464
 5472POPC   D2A69388  24.467  43.081   6.764
 5472POPC   C3A69389  24.459  43.106   7.064
 5472POPC   C4A69390  24.486  43.095   7.364
 5472POPC   C1B69391  24.630  42.962   6.464
 5472POPC   C2B69392  24.675  42.948   6.764
 5472POPC   C3B69393  24.699  42.943   7.064
 5472POPC   C4B69394  24.643  42.874   7.364
 5473POPC   NC369395  22.931  16.717   5.564
 5473POPC   PO469396  22.910  16.761   5.864
 5473POPC   GL169397  22.961  16.770   6.164
 5473POPC   GL269398  22.817  16.849   6.164
 5473POPC   C1A69399  22.919  16.725   6.464
 5473POPC   D2A69400  22.984  16.714   6.764
 5473POPC   C3A69401  22.934  16.711   7.064
 5473POPC   C4A69402  22.924  16.695   7.364
 5473POPC   C1B69403  22.808  16.951   6.464
 5473POPC   C2B69404  22.766  16.882   6.764
 5473POPC   C3B69405  22.756  16.953   7.064
 5473POPC   C4B69406  22.721  16.928   7.364
 5474POPC   NC369407  41.526  36.107   5.564
 5474POPC   PO469408  41.565  36.112   5.864
 5474POPC   GL169409  41.550  36.120   6.164
 5474POPC   GL269410  41.720  36.065   6.164
 5474POPC   C1A69411  41.583  36.120   6.464
 5474POPC   D2A69412  41.523  36.140   6.764
 5474POPC   C3A69413  41.561  36.082   7.064
 5474POPC   C4A69414  41.513  36.161   7.364
 5474POPC   C1B69415  41.835  36.018   6.464
 5474POPC   C2B69416  41.793  36.028   6.764
 5474POPC   C3B69417  41.840  36.024   7.064
 5474POPC   C4B69418  41.785  36.029   7.364
 5475POPC   NC369419  32.248  30.713   5.564
 5475POPC   PO469420  32.229  30.710   5.864
 5475POPC   GL169421  32.220  30.719   6.164
 5475POPC   GL269422  32.168  30.665   6.164
 5475POPC   C1A69423  32.209  30.741   6.464
 5475POPC   D2A69424  32.230  30.678   6.764
 5475POPC   C3A69425  32.230  30.657   7.064
 5475POPC   C4A69426  32.283  30.694   7.364
 5475POPC   C1B69427  32.072  30.588   6.464
 5475POPC   C2B69428  32.048  30.601   6.764
 5475POPC   C3B69429  31.989  30.550   7.064
 5475POPC   C4B69430  32.054  30.622   7.364
 5476POPC   NC369431  30.669  44.613   5.564
 5476POPC   PO469432  30.662  44.629   5.864
 5476POPC   GL169433  30.665  44.635   6.164
 5476POPC   GL269434  30.764  44.585   6.164
 5476POPC   C1A69435  30.710  44.628   6.464
 5476POPC   D2A69436  30.721  44.648   6.764
 5476POPC   C3A69437  30.721  44.628   7.064
 5476POPC   C4A69438  30.677  44.622   7.364
 5476POPC   C1B69439  30.848  44.458   6.464
 5476POPC   C2B69440  30.914  44.507   6.764
 5476POPC   C3B69441  30.858  44.446   7.064
 5476POPC   C4B69442  30.818  44.515   7.364
 5477POPC   NC369443  19.846  16.749   5.564
 5477POPC   PO469444  19.839  16.687   5.864
 5477POPC   GL169445  19.876  16.726   6.164
 5477POPC   GL269446  19.971  16.644   6.164
 5477POPC   C1A69447  19.793  16.751   6.464
 5477POPC   D2A69448  19.818  16.724   6.764
 5477POPC   C3A69449  19.815  16.704   7.064
 5477POPC   C4A69450  19.855  16.739   7.364
 5477POPC   C1B69451  20.052  16.618   6.464
 5477POPC   C2B69452  20.052  16.647   6.764
 5477POPC   C3B69453  20.031  16.636   7.064
 5477POPC   C4B69454  20.061  16.608   7.364
 5478POPC   NC369455  12.071  25.258   5.564
 5478POPC   PO469456  12.088  25.284   5.864
 5478POPC   GL169457  12.030  25.305   6.164
 5478POPC   GL269458  12.029  25.423   6.164
 5478POPC   C1A69459  12.042  25.277   6.464
 5478POPC   D2A69460  12.124  25.293   6.764
 5478POPC   C3A69461  12.076  25.250   7.064
 5478POPC   C4A69462  12.027  25.297   7.364
 5478POPC   C1B69463  12.017  25.560   6.464
 5478POPC   C2B69464  12.064  25.533   6.764
 5478POPC   C3B69465  12.022  25.538   7.064
 5478POPC   C4B69466  12.070  25.489   7.364
 5479POPC   NC369467  35.401  27.591   5.564
 5479POPC   PO469468  35.309  27.596   5.864
 5479POPC   GL169469  35.331  27.601   6.164
 5479POPC   GL269470  35.245  27.580   6.164
 5479POPC   C1A69471  35.348  27.616   6.464
 5479POPC   D2A69472  35.336  27.635   6.764
 5479POPC   C3A69473  35.379  27.557   7.064
 5479POPC   C4A69474  35.397  27.556   7.364
 5479POPC   C1B69475  35.155  27.510   6.464
 5479POPC   C2B69476  35.158  27.563   6.764
 5479POPC   C3B69477  35.154  27.549   7.064
 5479POPC   C4B69478  35.122  27.555   7.364
 5480POPC   NC369479   7.467   2.739   5.564
 5480POPC   PO469480   7.434   2.779   5.864
 5480POPC   GL169481   7.464   2.789   6.164
 5480POPC   GL269482   7.579   2.712   6.164
 5480POPC   C1A69483   7.397   2.739   6.464
 5480POPC   D2A69484   7.416   2.784   6.764
 5480POPC   C3A69485   7.461   2.792   7.064
 5480POPC   C4A69486   7.405   2.759   7.364
 5480POPC   C1B69487   7.639   2.732   6.464
 5480POPC   C2B69488   7.616   2.653   6.764
 5480POPC   C3B69489   7.678   2.697   7.064
 5480POPC   C4B69490   7.649   2.674   7.364
 5481POPC   NC369491  40.766  22.203   5.564
 5481POPC   PO469492  40.754  22.169   5.864
 5481POPC   GL169493  40.815  22.191   6.164
 5481POPC   GL269494  40.743  22.231   6.164
 5481POPC   C1A69495  40.749  22.168   6.464
 5481POPC   D2A69496  40.748  22.189   6.764
 5481POPC   C3A69497  40.817  22.183   7.064
 5481POPC   C4A69498  40.779  22.128   7.364
 5481POPC   C1B69499  40.705  22.422   6.464
 5481POPC   C2B69500  40.714  22.428   6.764
 5481POPC   C3B69501  40.703  22.444   7.064
 5481POPC   C4B69502  40.648  22.350   7.364
 5482POPC   NC369503  37.720  22.170   5.564
 5482POPC   PO469504  37.644  22.192   5.864
 5482POPC   GL169505  37.678  22.153   6.164
 5482POPC   GL269506  37.600  22.219   6.164
 5482POPC   C1A69507  37.721  22.188   6.464
 5482POPC   D2A69508  37.679  22.194   6.764
 5482POPC   C3A69509  37.721  22.208   7.064
 5482POPC   C4A69510  37.657  22.212   7.364
 5482POPC   C1B69511  37.546  22.382   6.464
 5482POPC   C2B69512  37.538  22.371   6.764
 5482POPC   C3B69513  37.529  22.417   7.064
 5482POPC   C4B69514  37.571  22.413   7.364
 5483POPC   NC369515  26.830  24.455   5.564
 5483POPC   PO469516  26.837  24.484   5.864
 5483POPC   GL169517  26.798  24.509   6.164
 5483POPC   GL269518  26.706  24.427   6.164
 5483POPC   C1A69519  26.800  24.485   6.464
 5483POPC   D2A69520  26.821  24.497   6.764
 5483POPC   C3A69521  26.836  24.512   7.064
 5483POPC   C4A69522  26.803  24.496   7.364
 5483POPC   C1B69523  26.688  24.241   6.464
 5483POPC   C2B69524  26.715  24.324   6.764
 5483POPC   C3B69525  26.686  24.232   7.064
 5483POPC   C4B69526  26.649  24.296   7.364
 5484POPC   NC369527  29.969   3.563   5.564
 5484POPC   PO469528  29.963   3.509   5.864
 5484POPC   GL169529  29.906   3.506   6.164
 5484POPC   GL269530  29.834   3.398   6.164
 5484POPC   C1A69531  29.940   3.496   6.464
 5484POPC   D2A69532  29.904   3.556   6.764
 5484POPC   C3A69533  29.938   3.547   7.064
 5484POPC   C4A69534  29.924   3.501   7.364
 5484POPC   C1B69535  29.789   3.345   6.464
 5484POPC   C2B69536  29.735   3.300   6.764
 5484POPC   C3B69537  29.799   3.320   7.064
 5484POPC   C4B69538  29.737   3.299   7.364
 5485POPC   NC369539  25.299  12.054   5.564
 5485POPC   PO469540  25.223  12.125   5.864
 5485POPC   GL169541  25.300  12.083   6.164
 5485POPC   GL269542  25.200  11.946   6.164
 5485POPC   C1A69543  25.275  12.089   6.464
 5485POPC   D2A69544  25.253  12.093   6.764
 5485POPC   C3A69545  25.278  12.109   7.064
 5485POPC   C4A69546  25.240  12.087   7.364
 5485POPC   C1B69547  25.062  11.851   6.464
 5485POPC   C2B69548  25.140  11.910   6.764
 5485POPC   C3B69549  25.090  11.944   7.064
 5485POPC   C4B69550  25.104  11.857   7.364
 5486POPC   NC369551   4.319  36.176   5.564
 5486POPC   PO469552   4.301  36.147   5.864
 5486POPC   GL169553   4.320  36.134   6.164
 5486POPC   GL269554   4.482  36.106   6.164
 5486POPC   C1A69555   4.272  36.167   6.464
 5486POPC   D2A69556   4.286  36.146   6.764
 5486POPC   C3A69557   4.328  36.174   7.064
 5486POPC   C4A69558   4.299  36.159   7.364
 5486POPC   C1B69559   4.528  36.191   6.464
 5486POPC   C2B69560   4.549  36.146   6.764
 5486POPC   C3B69561   4.582  36.196   7.064
 5486POPC   C4B69562   4.591  36.213   7.364
 5487POPC   NC369563   2.036  40.005   5.564
 5487POPC   PO469564   1.996  40.000   5.864
 5487POPC   GL169565   2.009  39.995   6.164
 5487POPC   GL269566   1.939  40.089   6.164
 5487POPC   C1A69567   1.948  39.972   6.464
 5487POPC   D2A69568   2.001  39.967   6.764
 5487POPC   C3A69569   2.018  39.971   7.064
 5487POPC   C4A69570   1.940  40.000   7.364
 5487POPC   C1B69571   1.759  40.135   6.464
 5487POPC   C2B69572   1.766  40.121   6.764
 5487POPC   C3B69573   1.806  40.122   7.064
 5487POPC   C4B69574   1.826  40.176   7.364
 5488POPC   NC369575  10.489   9.745   5.564
 5488POPC   PO469576  10.547   9.774   5.864
 5488POPC   GL169577  10.569   9.764   6.164
 5488POPC   GL269578  10.423   9.882   6.164
 5488POPC   C1A69579  10.512   9.797   6.464
 5488POPC   D2A69580  10.480   9.781   6.764
 5488POPC   C3A69581  10.567   9.766   7.064
 5488POPC   C4A69582  10.515   9.751   7.364
 5488POPC   C1B69583  10.403   9.983   6.464
 5488POPC   C2B69584  10.419   9.935   6.764
 5488POPC   C3B69585  10.359   9.969   7.064
 5488POPC   C4B69586  10.374   9.953   7.364
 5489POPC   NC369587  27.643  43.919   5.564
 5489POPC   PO469588  27.634  43.840   5.864
 5489POPC   GL169589  27.620  43.861   6.164
 5489POPC   GL269590  27.597  43.743   6.164
 5489POPC   C1A69591  27.563  43.884   6.464
 5489POPC   D2A69592  27.571  43.848   6.764
 5489POPC   C3A69593  27.573  43.922   7.064
 5489POPC   C4A69594  27.593  43.917   7.364
 5489POPC   C1B69595  27.715  43.625   6.464
 5489POPC   C2B69596  27.642  43.612   6.764
 5489POPC   C3B69597  27.639  43.668   7.064
 5489POPC   C4B69598  27.667  43.663   7.364
 5490POPC   NC369599   6.643  23.689   5.564
 5490POPC   PO469600   6.639  23.730   5.864
 5490POPC   GL169601   6.607  23.739   6.164
 5490POPC   GL269602   6.603  23.818   6.164
 5490POPC   C1A69603   6.659  23.740   6.464
 5490POPC   D2A69604   6.601  23.719   6.764
 5490POPC   C3A69605   6.634  23.699   7.064
 5490POPC   C4A69606   6.620  23.752   7.364
 5490POPC   C1B69607   6.596  23.926   6.464
 5490POPC   C2B69608   6.544  23.924   6.764
 5490POPC   C3B69609   6.552  23.933   7.064
 5490POPC   C4B69610   6.598  23.974   7.364
 5491POPC   NC369611  33.835   3.540   5.564
 5491POPC   PO469612  33.834   3.533   5.864
 5491POPC   GL169613  33.759   3.570   6.164
 5491POPC   GL269614  33.810   3.375   6.164
 5491POPC   C1A69615  33.826   3.575   6.464
 5491POPC   D2A69616  33.832   3.502   6.764
 5491POPC   C3A69617  33.810   3.571   7.064
 5491POPC   C4A69618  33.770   3.518   7.364
 5491POPC   C1B69619  33.736   3.316   6.464
 5491POPC   C2B69620  33.775   3.326   6.764
 5491POPC   C3B69621  33.710   3.273   7.064
 5491POPC   C4B69622  33.727   3.324   7.364
 5492POPC   NC369623   8.975  36.170   5.564
 5492POPC   PO469624   9.019  36.134   5.864
 5492POPC   GL169625   8.943  36.153   6.164
 5492POPC   GL269626   9.071  36.098   6.164
 5492POPC   C1A69627   8.978  36.133   6.464
 5492POPC   D2A69628   8.968  36.177   6.764
 5492POPC   C3A69629   8.961  36.078   7.064
 5492POPC   C4A69630   8.960  36.125   7.364
 5492POPC   C1B69631   9.209  35.994   6.464
 5492POPC   C2B69632   9.124  36.018   6.764
 5492POPC   C3B69633   9.135  35.954   7.064
 5492POPC   C4B69634   9.122  35.934   7.364
 5493POPC   NC369635  10.495  40.053   5.564
 5493POPC   PO469636  10.482  40.029   5.864
 5493POPC   GL169637  10.572  40.020   6.164
 5493POPC   GL269638  10.443  40.028   6.164
 5493POPC   C1A69639  10.476  40.021   6.464
 5493POPC   D2A69640  10.553  39.982   6.764
 5493POPC   C3A69641  10.496  39.990   7.064
 5493POPC   C4A69642  10.527  39.983   7.364
 5493POPC   C1B69643  10.331  40.110   6.464
 5493POPC   C2B69644  10.285  40.106   6.764
 5493POPC   C3B69645  10.294  40.057   7.064
 5493POPC   C4B69646  10.302  40.056   7.364
 5494POPC   NC369647  31.486   8.209   5.564
 5494POPC   PO469648  31.443   8.208   5.864
 5494POPC   GL169649  31.510   8.216   6.164
 5494POPC   GL269650  31.573   8.322   6.164
 5494POPC   C1A69651  31.515   8.195   6.464
 5494POPC   D2A69652  31.496   8.246   6.764
 5494POPC   C3A69653  31.514   8.180   7.064
 5494POPC   C4A69654  31.504   8.166   7.364
 5494POPC   C1B69655  31.662   8.358   6.464
 5494POPC   C2B69656  31.680   8.397   6.764
 5494POPC   C3B69657  31.628   8.332   7.064
 5494POPC   C4B69658  31.710   8.385   7.364
 5495POPC   NC369659   2.780  18.283   5.564
 5495POPC   PO469660   2.798  18.288   5.864
 5495POPC   GL169661   2.810  18.249   6.164
 5495POPC   GL269662   2.812  18.376   6.164
 5495POPC   C1A69663   2.736  18.315   6.464
 5495POPC   D2A69664   2.743  18.317   6.764
 5495POPC   C3A69665   2.754  18.249   7.064
 5495POPC   C4A69666   2.762  18.249   7.364
 5495POPC   C1B69667   2.754  18.485   6.464
 5495POPC   C2B69668   2.747  18.500   6.764
 5495POPC   C3B69669   2.812  18.526   7.064
 5495POPC   C4B69670   2.831  18.554   7.364
 5496POPC   NC369671  33.036  24.533   5.564
 5496POPC   PO469672  33.044  24.512   5.864
 5496POPC   GL169673  33.058  24.533   6.164
 5496POPC   GL269674  33.022  24.605   6.164
 5496POPC   C1A69675  32.975  24.464   6.464
 5496POPC   D2A69676  33.053  24.465   6.764
 5496POPC   C3A69677  33.015  24.470   7.064
 5496POPC   C4A69678  33.010  24.471   7.364
 5496POPC   C1B69679  32.986  24.723   6.464
 5496POPC   C2B69680  33.008  24.714   6.764
 5496POPC   C3B69681  33.054  24.752   7.064
 5496POPC   C4B69682  32.988  24.716   7.364
 5497POPC   NC369683   7.433   9.798   5.564
 5497POPC   PO469684   7.400   9.777   5.864
 5497POPC   GL169685   7.415   9.730   6.164
 5497POPC   GL269686   7.344   9.800   6.164
 5497POPC   C1A69687   7.372   9.765   6.464
 5497POPC   D2A69688   7.403   9.709   6.764
 5497POPC   C3A69689   7.426   9.743   7.064
 5497POPC   C4A69690   7.471   9.755   7.364
 5497POPC   C1B69691   7.188   9.791   6.464
 5497POPC   C2B69692   7.142   9.791   6.764
 5497POPC   C3B69693   7.169   9.791   7.064
 5497POPC   C4B69694   7.207   9.861   7.364
 5498POPC   NC369695  39.999  12.891   5.564
 5498POPC   PO469696  39.966  12.809   5.864
 5498POPC   GL169697  39.990  12.848   6.164
 5498POPC   GL269698  40.109  12.759   6.164
 5498POPC   C1A69699  40.011  12.886   6.464
 5498POPC   D2A69700  40.040  12.885   6.764
 5498POPC   C3A69701  40.006  12.867   7.064
 5498POPC   C4A69702  40.032  12.870   7.364
 5498POPC   C1B69703  40.169  12.642   6.464
 5498POPC   C2B69704  40.140  12.685   6.764
 5498POPC   C3B69705  40.202  12.632   7.064
 5498POPC   C4B69706  40.140  12.614   7.364
 5499POPC   NC369707  16.760  40.046   5.564
 5499POPC   PO469708  16.731  39.994   5.864
 5499POPC   GL169709  16.726  40.026   6.164
 5499POPC   GL269710  16.739  40.139   6.164
 5499POPC   C1A69711  16.713  40.000   6.464
 5499POPC   D2A69712  16.748  40.002   6.764
 5499POPC   C3A69713  16.726  39.994   7.064
 5499POPC   C4A69714  16.710  40.022   7.364
 5499POPC   C1B69715  16.802  40.280   6.464
 5499POPC   C2B69716  16.804  40.284   6.764
 5499POPC   C3B69717  16.793  40.255   7.064
 5499POPC   C4B69718  16.793  40.209   7.364
 5500POPC   NC369719  17.537  26.867   5.564
 5500POPC   PO469720  17.484  26.864   5.864
 5500POPC   GL169721  17.507  26.821   6.164
 5500POPC   GL269722  17.659  26.791   6.164
 5500POPC   C1A69723  17.513  26.819   6.464
 5500POPC   D2A69724  17.503  26.847   6.764
 5500POPC   C3A69725  17.499  26.800   7.064
 5500POPC   C4A69726  17.535  26.785   7.364
 5500POPC   C1B69727  17.779  26.872   6.464
 5500POPC   C2B69728  17.789  26.868   6.764
 5500POPC   C3B69729  17.718  26.897   7.064
 5500POPC   C4B69730  17.780  26.811   7.364
 5501POPC   NC369731  34.550  42.311   5.564
 5501POPC   PO469732  34.605  42.369   5.864
 5501POPC   GL169733  34.620  42.293   6.164
 5501POPC   GL269734  34.637  42.447   6.164
 5501POPC   C1A69735  34.552  42.311   6.464
 5501POPC   D2A69736  34.622  42.366   6.764
 5501POPC   C3A69737  34.605  42.319   7.064
 5501POPC   C4A69738  34.536  42.314   7.364
 5501POPC   C1B69739  34.670  42.515   6.464
 5501POPC   C2B69740  34.696  42.532   6.764
 5501POPC   C3B69741  34.683  42.536   7.064
 5501POPC   C4B69742  34.652  42.550   7.364
 5502POPC   NC369743  14.425   6.680   5.564
 5502POPC   PO469744  14.384   6.605   5.864
 5502POPC   GL169745  14.441   6.688   6.164
 5502POPC   GL269746  14.345   6.491   6.164
 5502POPC   C1A69747  14.390   6.675   6.464
 5502POPC   D2A69748  14.420   6.620   6.764
 5502POPC   C3A69749  14.404   6.637   7.064
 5502POPC   C4A69750  14.425   6.636   7.364
 5502POPC   C1B69751  14.302   6.452   6.464
 5502POPC   C2B69752  14.344   6.451   6.764
 5502POPC   C3B69753  14.382   6.412   7.064
 5502POPC   C4B69754  14.382   6.373   7.364
 5503POPC   NC369755  20.602   2.722   5.564
 5503POPC   PO469756  20.588   2.744   5.864
 5503POPC   GL169757  20.626   2.743   6.164
 5503POPC   GL269758  20.647   2.718   6.164
 5503POPC   C1A69759  20.591   2.729   6.464
 5503POPC   D2A69760  20.632   2.807   6.764
 5503POPC   C3A69761  20.566   2.814   7.064
 5503POPC   C4A69762  20.568   2.778   7.364
 5503POPC   C1B69763  20.798   2.574   6.464
 5503POPC   C2B69764  20.730   2.609   6.764
 5503POPC   C3B69765  20.727   2.564   7.064
 5503POPC   C4B69766  20.736   2.590   7.364
 5504POPC   NC369767  39.232   5.115   5.564
 5504POPC   PO469768  39.228   5.092   5.864
 5504POPC   GL169769  39.193   5.109   6.164
 5504POPC   GL269770  39.317   5.225   6.164
 5504POPC   C1A69771  39.195   5.104   6.464
 5504POPC   D2A69772  39.247   5.140   6.764
 5504POPC   C3A69773  39.241   5.142   7.064
 5504POPC   C4A69774  39.249   5.081   7.364
 5504POPC   C1B69775  39.321   5.341   6.464
 5504POPC   C2B69776  39.321   5.331   6.764
 5504POPC   C3B69777  39.282   5.326   7.064
 5504POPC   C4B69778  39.358   5.321   7.364
 5505POPC   NC369779  42.294  44.706   5.564
 5505POPC   PO469780  42.358  44.652   5.864
 5505POPC   GL169781  42.342  44.630   6.164
 5505POPC   GL269782  42.396  44.759   6.164
 5505POPC   C1A69783  42.370  44.704   6.464
 5505POPC   D2A69784  42.377  44.688   6.764
 5505POPC   C3A69785  42.367  44.639   7.064
 5505POPC   C4A69786  42.328  44.647   7.364
 5505POPC   C1B69787  42.536  44.856   6.464
 5505POPC   C2B69788  42.516  44.882   6.764
 5505POPC   C3B69789  42.488  44.826   7.064
 5505POPC   C4B69790  42.547  44.862   7.364
 5506POPC   NC369791  29.116  38.427   5.564
 5506POPC   PO469792  29.142  38.428   5.864
 5506POPC   GL169793  29.140  38.463   6.164
 5506POPC   GL269794  29.151  38.537   6.164
 5506POPC   C1A69795  29.172  38.450   6.464
 5506POPC   D2A69796  29.105  38.483   6.764
 5506POPC   C3A69797  29.163  38.503   7.064
 5506POPC   C4A69798  29.144  38.467   7.364
 5506POPC   C1B69799  29.216  38.720   6.464
 5506POPC   C2B69800  29.166  38.716   6.764
 5506POPC   C3B69801  29.181  38.663   7.064
 5506POPC   C4B69802  29.139  38.728   7.364
 5507POPC   NC369803  36.943  14.450   5.564
 5507POPC   PO469804  36.859  14.412   5.864
 5507POPC   GL169805  36.908  14.432   6.164
 5507POPC   GL269806  36.833  14.407   6.164
 5507POPC   C1A69807  36.947  14.418   6.464
 5507POPC   D2A69808  36.880  14.413   6.764
 5507POPC   C3A69809  36.933  14.400   7.064
 5507POPC   C4A69810  36.890  14.417   7.364
 5507POPC   C1B69811  36.670  14.287   6.464
 5507POPC   C2B69812  36.651  14.309   6.764
 5507POPC   C3B69813  36.688  14.348   7.064
 5507POPC   C4B69814  36.688  14.309   7.364
 5508POPC   NC369815  12.875  38.414   5.564
 5508POPC   PO469816  12.819  38.488   5.864
 5508POPC   GL169817  12.855  38.474   6.164
 5508POPC   GL269818  12.923  38.579   6.164
 5508POPC   C1A69819  12.827  38.437   6.464
 5508POPC   D2A69820  12.825  38.465   6.764
 5508POPC   C3A69821  12.894  38.450   7.064
 5508POPC   C4A69822  12.896  38.458   7.364
 5508POPC   C1B69823  12.981  38.633   6.464
 5508POPC   C2B69824  13.038  38.682   6.764
 5508POPC   C3B69825  12.998  38.674   7.064
 5508POPC   C4B69826  13.028  38.699   7.364
 5509POPC   NC369827  26.017  15.184   5.564
 5509POPC   PO469828  26.070  15.155   5.864
 5509POPC   GL169829  26.049  15.214   6.164
 5509POPC   GL269830  25.937  15.266   6.164
 5509POPC   C1A69831  26.028  15.144   6.464
 5509POPC   D2A69832  26.046  15.152   6.764
 5509POPC   C3A69833  26.060  15.146   7.064
 5509POPC   C4A69834  26.026  15.169   7.364
 5509POPC   C1B69835  25.763  15.246   6.464
 5509POPC   C2B69836  25.855  15.267   6.764
 5509POPC   C3B69837  25.830  15.280   7.064
 5509POPC   C4B69838  25.782  15.228   7.364
 5510POPC   NC369839  15.149  36.096   5.564
 5510POPC   PO469840  15.165  36.151   5.864
 5510POPC   GL169841  15.165  36.108   6.164
 5510POPC   GL269842  15.245  36.225   6.164
 5510POPC   C1A69843  15.170  36.170   6.464
 5510POPC   D2A69844  15.222  36.100   6.764
 5510POPC   C3A69845  15.176  36.154   7.064
 5510POPC   C4A69846  15.229  36.090   7.364
 5510POPC   C1B69847  15.446  36.206   6.464
 5510POPC   C2B69848  15.374  36.217   6.764
 5510POPC   C3B69849  15.450  36.216   7.064
 5510POPC   C4B69850  15.391  36.197   7.364
 5511POPC   NC369851   0.388  16.701   5.564
 5511POPC   PO469852   0.434  16.696   5.864
 5511POPC   GL169853   0.462  16.773   6.164
 5511POPC   GL269854   0.547  16.640   6.164
 5511POPC   C1A69855   0.449  16.720   6.464
 5511POPC   D2A69856   0.429  16.742   6.764
 5511POPC   C3A69857   0.470  16.762   7.064
 5511POPC   C4A69858   0.402  16.696   7.364
 5511POPC   C1B69859   0.689  16.569   6.464
 5511POPC   C2B69860   0.693  16.602   6.764
 5511POPC   C3B69861   0.606  16.613   7.064
 5511POPC   C4B69862   0.608  16.590   7.364
 5512POPC   NC369863  37.683  39.209   5.564
 5512POPC   PO469864  37.663  39.266   5.864
 5512POPC   GL169865  37.672  39.202   6.164
 5512POPC   GL269866  37.806  39.215   6.164
 5512POPC   C1A69867  37.642  39.240   6.464
 5512POPC   D2A69868  37.652  39.190   6.764
 5512POPC   C3A69869  37.644  39.208   7.064
 5512POPC   C4A69870  37.656  39.251   7.364
 5512POPC   C1B69871  37.975  39.234   6.464
 5512POPC   C2B69872  37.972  39.182   6.764
 5512POPC   C3B69873  37.928  39.257   7.064
 5512POPC   C4B69874  37.942  39.193   7.364
 5513POPC   NC369875  26.864  15.142   5.564
 5513POPC   PO469876  26.791  15.222   5.864
 5513POPC   GL169877  26.859  15.132   6.164
 5513POPC   GL269878  26.652  15.218   6.164
 5513POPC   C1A69879  26.838  15.213   6.464
 5513POPC   D2A69880  26.785  15.192   6.764
 5513POPC   C3A69881  26.780  15.138   7.064
 5513POPC   C4A69882  26.774  15.174   7.364
 5513POPC   C1B69883  26.615  15.256   6.464
 5513POPC   C2B69884  26.610  15.242   6.764
 5513POPC   C3B69885  26.574  15.242   7.064
 5513POPC   C4B69886  26.534  15.223   7.364
 5514POPC   NC369887  21.415  12.026   5.564
 5514POPC   PO469888  21.349  12.113   5.864
 5514POPC   GL169889  21.400  12.044   6.164
 5514POPC   GL269890  21.524  11.993   6.164
 5514POPC   C1A69891  21.411  12.084   6.464
 5514POPC   D2A69892  21.403  12.095   6.764
 5514POPC   C3A69893  21.379  12.110   7.064
 5514POPC   C4A69894  21.348  12.092   7.364
 5514POPC   C1B69895  21.545  11.928   6.464
 5514POPC   C2B69896  21.548  11.873   6.764
 5514POPC   C3B69897  21.614  11.907   7.064
 5514POPC   C4B69898  21.613  11.956   7.364
 5515POPC   NC369899  12.851  23.698   5.564
 5515POPC   PO469900  12.860  23.725   5.864
 5515POPC   GL169901  12.837  23.761   6.164
 5515POPC   GL269902  12.757  23.687   6.164
 5515POPC   C1A69903  12.805  23.699   6.464
 5515POPC   D2A69904  12.832  23.718   6.764
 5515POPC   C3A69905  12.836  23.689   7.064
 5515POPC   C4A69906  12.895  23.720   7.364
 5515POPC   C1B69907  12.588  23.591   6.464
 5515POPC   C2B69908  12.613  23.547   6.764
 5515POPC   C3B69909  12.605  23.625   7.064
 5515POPC   C4B69910  12.647  23.550   7.364
 5516POPC   NC369911  17.509  34.609   5.564
 5516POPC   PO469912  17.534  34.564   5.864
 5516POPC   GL169913  17.477  34.587   6.164
 5516POPC   GL269914  17.375  34.513   6.164
 5516POPC   C1A69915  17.475  34.592   6.464
 5516POPC   D2A69916  17.549  34.526   6.764
 5516POPC   C3A69917  17.551  34.547   7.064
 5516POPC   C4A69918  17.533  34.568   7.364
 5516POPC   C1B69919  17.261  34.470   6.464
 5516POPC   C2B69920  17.342  34.403   6.764
 5516POPC   C3B69921  17.287  34.431   7.064
 5516POPC   C4B69922  17.258  34.468   7.364
 5517POPC   NC369923  34.589  39.206   5.564
 5517POPC   PO469924  34.553  39.188   5.864
 5517POPC   GL169925  34.546  39.281   6.164
 5517POPC   GL269926  34.732  39.183   6.164
 5517POPC   C1A69927  34.572  39.268   6.464
 5517POPC   D2A69928  34.576  39.203   6.764
 5517POPC   C3A69929  34.529  39.245   7.064
 5517POPC   C4A69930  34.566  39.274   7.364
 5517POPC   C1B69931  34.838  39.164   6.464
 5517POPC   C2B69932  34.863  39.149   6.764
 5517POPC   C3B69933  34.845  39.190   7.064
 5517POPC   C4B69934  34.820  39.152   7.364
 5518POPC   NC369935  19.024  33.053   5.564
 5518POPC   PO469936  19.076  33.005   5.864
 5518POPC   GL169937  19.086  33.021   6.164
 5518POPC   GL269938  18.930  33.099   6.164
 5518POPC   C1A69939  19.010  33.014   6.464
 5518POPC   D2A69940  19.071  32.994   6.764
 5518POPC   C3A69941  19.014  32.993   7.064
 5518POPC   C4A69942  19.091  33.017   7.364
 5518POPC   C1B69943  18.861  33.135   6.464
 5518POPC   C2B69944  18.900  33.181   6.764
 5518POPC   C3B69945  18.890  33.158   7.064
 5518POPC   C4B69946  18.891  33.148   7.364
 5519POPC   NC369947   5.063  15.185   5.564
 5519POPC   PO469948   5.143  15.203   5.864
 5519POPC   GL169949   5.051  15.160   6.164
 5519POPC   GL269950   5.042  15.101   6.164
 5519POPC   C1A69951   5.047  15.182   6.464
 5519POPC   D2A69952   5.103  15.197   6.764
 5519POPC   C3A69953   5.093  15.159   7.064
 5519POPC   C4A69954   5.098  15.189   7.364
 5519POPC   C1B69955   4.968  15.029   6.464
 5519POPC   C2B69956   4.940  14.975   6.764
 5519POPC   C3B69957   4.967  14.954   7.064
 5519POPC   C4B69958   4.904  15.038   7.364
 5520POPC   NC369959  36.120  15.934   5.564
 5520POPC   PO469960  36.082  15.997   5.864
 5520POPC   GL169961  36.126  15.999   6.164
 5520POPC   GL269962  36.236  16.099   6.164
 5520POPC   C1A69963  36.168  15.984   6.464
 5520POPC   D2A69964  36.086  15.906   6.764
 5520POPC   C3A69965  36.175  15.926   7.064
 5520POPC   C4A69966  36.165  15.942   7.364
 5520POPC   C1B69967  36.209  16.171   6.464
 5520POPC   C2B69968  36.237  16.182   6.764
 5520POPC   C3B69969  36.269  16.187   7.064
 5520POPC   C4B69970  36.231  16.206   7.364
 5521POPC   NC369971  36.953   0.397   5.564
 5521POPC   PO469972  36.884   0.400   5.864
 5521POPC   GL169973  36.862   0.469   6.164
 5521POPC   GL269974  36.820   0.285   6.164
 5521POPC   C1A69975  36.883   0.398   6.464
 5521POPC   D2A69976  36.916   0.439   6.764
 5521POPC   C3A69977  36.875   0.466   7.064
 5521POPC   C4A69978  36.888   0.451   7.364
 5521POPC   C1B69979  36.758   0.209   6.464
 5521POPC   C2B69980  36.855   0.237   6.764
 5521POPC   C3B69981  36.784   0.200   7.064
 5521POPC   C4B69982  36.780   0.252   7.364
 5522POPC   NC369983   2.731  15.182   5.564
 5522POPC   PO469984   2.758  15.138   5.864
 5522POPC   GL169985   2.803  15.225   6.164
 5522POPC   GL269986   2.871  15.153   6.164
 5522POPC   C1A69987   2.738  15.147   6.464
 5522POPC   D2A69988   2.777  15.141   6.764
 5522POPC   C3A69989   2.779  15.197   7.064
 5522POPC   C4A69990   2.779  15.206   7.364
 5522POPC   C1B69991   2.980  15.069   6.464
 5522POPC   C2B69992   2.968  15.033   6.764
 5522POPC   C3B69993   2.950  15.001   7.064
 5522POPC   C4B69994   2.942  15.037   7.364
 5523POPC   NC369995  19.851  28.363   5.564
 5523POPC   PO469996  19.860  28.407   5.864
 5523POPC   GL169997  19.878  28.366   6.164
 5523POPC   GL269998  19.979  28.429   6.164
 5523POPC   C1A69999  19.865  28.385   6.464
 5523POPC   D2A70000  19.872  28.386   6.764
 5523POPC   C3A70001  19.812  28.399   7.064
 5523POPC   C4A70002  19.851  28.352   7.364
 5523POPC   C1B70003  20.016  28.498   6.464
 5523POPC   C2B70004  20.024  28.472   6.764
 5523POPC   C3B70005  20.071  28.468   7.064
 5523POPC   C4B70006  20.040  28.558   7.364
 5524POPC   NC370007  44.645  16.683   5.564
 5524POPC   PO470008  44.658  16.776   5.864
 5524POPC   GL170009  44.698  16.705   6.164
 5524POPC   GL270010  44.598  16.857   6.164
 5524POPC   C1A70011  44.667  16.736   6.464
 5524POPC   D2A70012  44.705  16.732   6.764
 5524POPC   C3A70013  44.625  16.734   7.064
 5524POPC   C4A70014  44.618  16.745   7.364
 5524POPC   C1B70015  44.520  16.925   6.464
 5524POPC   C2B70016  44.460  16.935   6.764
 5524POPC   C3B70017  44.533  16.948   7.064
 5524POPC   C4B70018  44.491  16.892   7.364
 5525POPC   NC370019   9.742   7.444   5.564
 5525POPC   PO470020   9.770   7.423   5.864
 5525POPC   GL170021   9.764   7.423   6.164
 5525POPC   GL270022   9.842   7.312   6.164
 5525POPC   C1A70023   9.783   7.397   6.464
 5525POPC   D2A70024   9.765   7.373   6.764
 5525POPC   C3A70025   9.785   7.466   7.064
 5525POPC   C4A70026   9.760   7.429   7.364
 5525POPC   C1B70027   9.891   7.291   6.464
 5525POPC   C2B70028   9.915   7.226   6.764
 5525POPC   C3B70029   9.902   7.254   7.064
 5525POPC   C4B70030   9.949   7.238   7.364
 5526POPC   NC370031  23.748  21.337   5.564
 5526POPC   PO470032  23.672  21.354   5.864
 5526POPC   GL170033  23.711  21.344   6.164
 5526POPC   GL270034  23.701  21.252   6.164
 5526POPC   C1A70035  23.677  21.385   6.464
 5526POPC   D2A70036  23.745  21.348   6.764
 5526POPC   C3A70037  23.700  21.375   7.064
 5526POPC   C4A70038  23.738  21.344   7.364
 5526POPC   C1B70039  23.601  21.185   6.464
 5526POPC   C2B70040  23.586  21.180   6.764
 5526POPC   C3B70041  23.660  21.161   7.064
 5526POPC   C4B70042  23.595  21.105   7.364
 5527POPC   NC370043  37.644  21.377   5.564
 5527POPC   PO470044  37.675  21.340   5.864
 5527POPC   GL170045  37.645  21.369   6.164
 5527POPC   GL270046  37.613  21.551   6.164
 5527POPC   C1A70047  37.714  21.403   6.464
 5527POPC   D2A70048  37.705  21.407   6.764
 5527POPC   C3A70049  37.668  21.386   7.064
 5527POPC   C4A70050  37.724  21.435   7.364
 5527POPC   C1B70051  37.614  21.641   6.464
 5527POPC   C2B70052  37.622  21.653   6.764
 5527POPC   C3B70053  37.550  21.593   7.064
 5527POPC   C4B70054  37.635  21.607   7.364
 5528POPC   NC370055  14.428  13.586   5.564
 5528POPC   PO470056  14.368  13.592   5.864
 5528POPC   GL170057  14.359  13.606   6.164
 5528POPC   GL270058  14.339  13.528   6.164
 5528POPC   C1A70059  14.370  13.653   6.464
 5528POPC   D2A70060  14.417  13.616   6.764
 5528POPC   C3A70061  14.363  13.648   7.064
 5528POPC   C4A70062  14.423  13.659   7.364
 5528POPC   C1B70063  14.281  13.420   6.464
 5528POPC   C2B70064  14.310  13.393   6.764
 5528POPC   C3B70065  14.286  13.420   7.064
 5528POPC   C4B70066  14.263  13.403   7.364
 5529POPC   NC370067  19.825  18.249   5.564
 5529POPC   PO470068  19.854  18.240   5.864
 5529POPC   GL170069  19.796  18.330   6.164
 5529POPC   GL270070  19.743  18.211   6.164
 5529POPC   C1A70071  19.883  18.301   6.464
 5529POPC   D2A70072  19.794  18.303   6.764
 5529POPC   C3A70073  19.818  18.283   7.064
 5529POPC   C4A70074  19.834  18.241   7.364
 5529POPC   C1B70075  19.709  18.047   6.464
 5529POPC   C2B70076  19.693  18.044   6.764
 5529POPC   C3B70077  19.691  18.050   7.064
 5529POPC   C4B70078  19.759  18.097   7.364
 5530POPC   NC370079   2.022  17.475   5.564
 5530POPC   PO470080   1.958  17.525   5.864
 5530POPC   GL170081   1.947  17.528   6.164
 5530POPC   GL270082   1.891  17.486   6.164
 5530POPC   C1A70083   1.948  17.457   6.464
 5530POPC   D2A70084   1.994  17.534   6.764
 5530POPC   C3A70085   2.027  17.541   7.064
 5530POPC   C4A70086   1.982  17.512   7.364
 5530POPC   C1B70087   1.704  17.445   6.464
 5530POPC   C2B70088   1.756  17.391   6.764
 5530POPC   C3B70089   1.771  17.420   7.064
 5530POPC   C4B70090   1.790  17.392   7.364
 5531POPC   NC370091  26.834   1.219   5.564
 5531POPC   PO470092  26.858   1.181   5.864
 5531POPC   GL170093  26.847   1.178   6.164
 5531POPC   GL270094  26.862   1.312   6.164
 5531POPC   C1A70095  26.831   1.210   6.464
 5531POPC   D2A70096  26.849   1.203   6.764
 5531POPC   C3A70097  26.844   1.233   7.064
 5531POPC   C4A70098  26.775   1.166   7.364
 5531POPC   C1B70099  26.827   1.459   6.464
 5531POPC   C2B70100  26.859   1.448   6.764
 5531POPC   C3B70101  26.819   1.476   7.064
 5531POPC   C4B70102  26.846   1.427   7.364
 5532POPC   NC370103  34.602   2.021   5.564
 5532POPC   PO470104  34.580   1.944   5.864
 5532POPC   GL170105  34.611   1.975   6.164
 5532POPC   GL270106  34.630   1.863   6.164
 5532POPC   C1A70107  34.616   2.036   6.464
 5532POPC   D2A70108  34.573   1.976   6.764
 5532POPC   C3A70109  34.593   2.039   7.064
 5532POPC   C4A70110  34.619   1.983   7.364
 5532POPC   C1B70111  34.675   1.702   6.464
 5532POPC   C2B70112  34.609   1.714   6.764
 5532POPC   C3B70113  34.596   1.754   7.064
 5532POPC   C4B70114  34.625   1.783   7.364
 5533POPC   NC370115  34.571   0.423   5.564
 5533POPC   PO470116  34.609   0.388   5.864
 5533POPC   GL170117  34.591   0.412   6.164
 5533POPC   GL270118  34.554   0.277   6.164
 5533POPC   C1A70119  34.618   0.452   6.464
 5533POPC   D2A70120  34.616   0.458   6.764
 5533POPC   C3A70121  34.564   0.439   7.064
 5533POPC   C4A70122  34.536   0.404   7.364
 5533POPC   C1B70123  34.461   0.208   6.464
 5533POPC   C2B70124  34.508   0.178   6.764
 5533POPC   C3B70125  34.497   0.254   7.064
 5533POPC   C4B70126  34.515   0.226   7.364
 5534POPC   NC370127  34.623  38.490   5.564
 5534POPC   PO470128  34.574  38.452   5.864
 5534POPC   GL170129  34.527  38.486   6.164
 5534POPC   GL270130  34.496  38.393   6.164
 5534POPC   C1A70131  34.582  38.460   6.464
 5534POPC   D2A70132  34.616  38.476   6.764
 5534POPC   C3A70133  34.608  38.419   7.064
 5534POPC   C4A70134  34.616  38.455   7.364
 5534POPC   C1B70135  34.382  38.338   6.464
 5534POPC   C2B70136  34.397  38.316   6.764
 5534POPC   C3B70137  34.358  38.263   7.064
 5534POPC   C4B70138  34.432  38.338   7.364
 5535POPC   NC370139  44.673  12.829   5.564
 5535POPC   PO470140  44.616  12.837   5.864
 5535POPC   GL170141  44.702  12.804   6.164
 5535POPC   GL270142  44.608  12.977   6.164
 5535POPC   C1A70143  44.626  12.806   6.464
 5535POPC   D2A70144  44.659  12.814   6.764
 5535POPC   C3A70145  44.697  12.841   7.064
 5535POPC   C4A70146  44.622  12.824   7.364
 5535POPC   C1B70147  44.624  13.125   6.464
 5535POPC   C2B70148  44.606  13.081   6.764
 5535POPC   C3B70149  44.607  13.112   7.064
 5535POPC   C4B70150  44.658  13.135   7.364
 5536POPC   NC370151   9.757   1.968   5.564
 5536POPC   PO470152   9.760   2.036   5.864
 5536POPC   GL170153   9.736   1.991   6.164
 5536POPC   GL270154   9.815   1.918   6.164
 5536POPC   C1A70155   9.701   1.978   6.464
 5536POPC   D2A70156   9.730   1.985   6.764
 5536POPC   C3A70157   9.787   2.007   7.064
 5536POPC   C4A70158   9.722   2.022   7.364
 5536POPC   C1B70159   9.961   1.844   6.464
 5536POPC   C2B70160  10.017   1.902   6.764
 5536POPC   C3B70161   9.922   1.900   7.064
 5536POPC   C4B70162   9.952   1.874   7.364
 5537POPC   NC370163  22.912   4.333   5.564
 5537POPC   PO470164  22.931   4.358   5.864
 5537POPC   GL170165  22.937   4.367   6.164
 5537POPC   GL270166  22.999   4.385   6.164
 5537POPC   C1A70167  22.971   4.290   6.464
 5537POPC   D2A70168  22.919   4.272   6.764
 5537POPC   C3A70169  22.941   4.272   7.064
 5537POPC   C4A70170  22.893   4.295   7.364
 5537POPC   C1B70171  23.144   4.474   6.464
 5537POPC   C2B70172  23.105   4.446   6.764
 5537POPC   C3B70173  23.086   4.531   7.064
 5537POPC   C4B70174  23.141   4.477   7.364
 5538POPC   NC370175  23.719  36.124   5.564
 5538POPC   PO470176  23.696  36.128   5.864
 5538POPC   GL170177  23.719  36.130   6.164
 5538POPC   GL270178  23.845  36.155   6.164
 5538POPC   C1A70179  23.741  36.123   6.464
 5538POPC   D2A70180  23.690  36.097   6.764
 5538POPC   C3A70181  23.743  36.080   7.064
 5538POPC   C4A70182  23.674  36.132   7.364
 5538POPC   C1B70183  23.952  36.117   6.464
 5538POPC   C2B70184  23.914  36.173   6.764
 5538POPC   C3B70185  23.944  36.206   7.064
 5538POPC   C4B70186  24.001  36.158   7.364
 5539POPC   NC370187  19.841  37.701   5.564
 5539POPC   PO470188  19.849  37.632   5.864
 5539POPC   GL170189  19.872  37.729   6.164
 5539POPC   GL270190  19.787  37.596   6.164
 5539POPC   C1A70191  19.802  37.685   6.464
 5539POPC   D2A70192  19.834  37.718   6.764
 5539POPC   C3A70193  19.816  37.706   7.064
 5539POPC   C4A70194  19.817  37.726   7.364
 5539POPC   C1B70195  19.734  37.427   6.464
 5539POPC   C2B70196  19.693  37.486   6.764
 5539POPC   C3B70197  19.650  37.443   7.064
 5539POPC   C4B70198  19.701  37.438   7.364
 5540POPC   NC370199  19.802  23.743   5.564
 5540POPC   PO470200  19.787  23.761   5.864
 5540POPC   GL170201  19.845  23.761   6.164
 5540POPC   GL270202  19.919  23.769   6.164
 5540POPC   C1A70203  19.830  23.731   6.464
 5540POPC   D2A70204  19.849  23.683   6.764
 5540POPC   C3A70205  19.847  23.691   7.064
 5540POPC   C4A70206  19.842  23.732   7.364
 5540POPC   C1B70207  20.000  23.925   6.464
 5540POPC   C2B70208  20.041  23.926   6.764
 5540POPC   C3B70209  19.994  23.851   7.064
 5540POPC   C4B70210  19.980  23.841   7.364
 5541POPC   NC370211  15.183  22.173   5.564
 5541POPC   PO470212  15.228  22.207   5.864
 5541POPC   GL170213  15.162  22.191   6.164
 5541POPC   GL270214  15.347  22.112   6.164
 5541POPC   C1A70215  15.137  22.186   6.464
 5541POPC   D2A70216  15.168  22.183   6.764
 5541POPC   C3A70217  15.136  22.121   7.064
 5541POPC   C4A70218  15.135  22.176   7.364
 5541POPC   C1B70219  15.456  22.120   6.464
 5541POPC   C2B70220  15.379  22.047   6.764
 5541POPC   C3B70221  15.464  22.078   7.064
 5541POPC   C4B70222  15.440  22.095   7.364
 5542POPC   NC370223  29.102   5.069   5.564
 5542POPC   PO470224  29.099   5.115   5.864
 5542POPC   GL170225  29.100   5.139   6.164
 5542POPC   GL270226  29.041   5.089   6.164
 5542POPC   C1A70227  29.180   5.135   6.464
 5542POPC   D2A70228  29.099   5.095   6.764
 5542POPC   C3A70229  29.173   5.083   7.064
 5542POPC   C4A70230  29.150   5.089   7.364
 5542POPC   C1B70231  28.891   5.201   6.464
 5542POPC   C2B70232  28.873   5.128   6.764
 5542POPC   C3B70233  28.892   5.131   7.064
 5542POPC   C4B70234  28.942   5.187   7.364
 5543POPC   NC370235  12.045  17.488   5.564
 5543POPC   PO470236  12.099  17.530   5.864
 5543POPC   GL170237  12.027  17.474   6.164
 5543POPC   GL270238  12.180  17.600   6.164
 5543POPC   C1A70239  12.091  17.544   6.464
 5543POPC   D2A70240  12.054  17.483   6.764
 5543POPC   C3A70241  12.043  17.478   7.064
 5543POPC   C4A70242  12.060  17.554   7.364
 5543POPC   C1B70243  12.181  17.697   6.464
 5543POPC   C2B70244  12.165  17.697   6.764
 5543POPC   C3B70245  12.160  17.716   7.064
 5543POPC   C4B70246  12.242  17.700   7.364
 5544POPC   NC370247  38.423  40.734   5.564
 5544POPC   PO470248  38.493  40.733   5.864
 5544POPC   GL170249  38.411  40.734   6.164
 5544POPC   GL270250  38.341  40.710   6.164
 5544POPC   C1A70251  38.442  40.824   6.464
 5544POPC   D2A70252  38.434  40.829   6.764
 5544POPC   C3A70253  38.476  40.774   7.064
 5544POPC   C4A70254  38.447  40.781   7.364
 5544POPC   C1B70255  38.174  40.652   6.464
 5544POPC   C2B70256  38.190  40.656   6.764
 5544POPC   C3B70257  38.234  40.672   7.064
 5544POPC   C4B70258  38.222  40.688   7.364
 5545POPC   NC370259   5.917   2.800   5.564
 5545POPC   PO470260   5.845   2.739   5.864
 5545POPC   GL170261   5.899   2.721   6.164
 5545POPC   GL270262   5.894   2.888   6.164
 5545POPC   C1A70263   5.897   2.782   6.464
 5545POPC   D2A70264   5.888   2.762   6.764
 5545POPC   C3A70265   5.865   2.810   7.064
 5545POPC   C4A70266   5.823   2.813   7.364
 5545POPC   C1B70267   5.981   3.002   6.464
 5545POPC   C2B70268   5.943   3.033   6.764
 5545POPC   C3B70269   5.992   3.002   7.064
 5545POPC   C4B70270   5.965   2.962   7.364
 5546POPC   NC370271  15.192  26.041   5.564
 5546POPC   PO470272  15.149  26.048   5.864
 5546POPC   GL170273  15.192  26.081   6.164
 5546POPC   GL270274  15.303  26.012   6.164
 5546POPC   C1A70275  15.133  26.035   6.464
 5546POPC   D2A70276  15.220  26.038   6.764
 5546POPC   C3A70277  15.198  26.060   7.064
 5546POPC   C4A70278  15.217  26.000   7.364
 5546POPC   C1B70279  15.340  25.906   6.464
 5546POPC   C2B70280  15.343  25.882   6.764
 5546POPC   C3B70281  15.354  25.924   7.064
 5546POPC   C4B70282  15.422  25.905   7.364
 5547POPC   NC370283  33.791  15.908   5.564
 5547POPC   PO470284  33.830  15.974   5.864
 5547POPC   GL170285  33.783  15.926   6.164
 5547POPC   GL270286  33.838  16.054   6.164
 5547POPC   C1A70287  33.759  15.934   6.464
 5547POPC   D2A70288  33.794  15.952   6.764
 5547POPC   C3A70289  33.835  15.913   7.064
 5547POPC   C4A70290  33.751  15.972   7.364
 5547POPC   C1B70291  33.880  16.160   6.464
 5547POPC   C2B70292  33.957  16.140   6.764
 5547POPC   C3B70293  33.897  16.227   7.064
 5547POPC   C4B70294  33.898  16.191   7.364
 5548POPC   NC370295  39.970  25.264   5.564
 5548POPC   PO470296  40.015  25.310   5.864
 5548POPC   GL170297  40.040  25.265   6.164
 5548POPC   GL270298  40.124  25.132   6.164
 5548POPC   C1A70299  40.022  25.288   6.464
 5548POPC   D2A70300  39.992  25.281   6.764
 5548POPC   C3A70301  40.055  25.284   7.064
 5548POPC   C4A70302  39.987  25.227   7.364
 5548POPC   C1B70303  40.146  25.044   6.464
 5548POPC   C2B70304  40.210  25.127   6.764
 5548POPC   C3B70305  40.216  25.110   7.064
 5548POPC   C4B70306  40.182  25.047   7.364
 5549POPC   NC370307  10.491  29.144   5.564
 5549POPC   PO470308  10.507  29.174   5.864
 5549POPC   GL170309  10.516  29.178   6.164
 5549POPC   GL270310  10.515  28.998   6.164
 5549POPC   C1A70311  10.518  29.140   6.464
 5549POPC   D2A70312  10.532  29.148   6.764
 5549POPC   C3A70313  10.560  29.135   7.064
 5549POPC   C4A70314  10.498  29.148   7.364
 5549POPC   C1B70315  10.538  28.886   6.464
 5549POPC   C2B70316  10.540  28.904   6.764
 5549POPC   C3B70317  10.536  28.921   7.064
 5549POPC   C4B70318  10.595  28.871   7.364
 5550POPC   NC370319  22.181   7.375   5.564
 5550POPC   PO470320  22.173   7.409   5.864
 5550POPC   GL170321  22.130   7.371   6.164
 5550POPC   GL270322  22.169   7.553   6.164
 5550POPC   C1A70323  22.161   7.438   6.464
 5550POPC   D2A70324  22.144   7.375   6.764
 5550POPC   C3A70325  22.145   7.437   7.064
 5550POPC   C4A70326  22.151   7.418   7.364
 5550POPC   C1B70327  22.258   7.699   6.464
 5550POPC   C2B70328  22.222   7.676   6.764
 5550POPC   C3B70329  22.199   7.668   7.064
 5550POPC   C4B70330  22.266   7.632   7.364
 5551POPC   NC370331  36.869  23.688   5.564
 5551POPC   PO470332  36.857  23.710   5.864
 5551POPC   GL170333  36.935  23.714   6.164
 5551POPC   GL270334  36.792  23.825   6.164
 5551POPC   C1A70335  36.900  23.756   6.464
 5551POPC   D2A70336  36.916  23.692   6.764
 5551POPC   C3A70337  36.918  23.721   7.064
 5551POPC   C4A70338  36.948  23.727   7.364
 5551POPC   C1B70339  36.806  23.934   6.464
 5551POPC   C2B70340  36.795  23.927   6.764
 5551POPC   C3B70341  36.804  23.892   7.064
 5551POPC   C4B70342  36.712  23.915   7.364
 5552POPC   NC370343  25.248  15.909   5.564
 5552POPC   PO470344  25.259  15.931   5.864
 5552POPC   GL170345  25.239  15.954   6.164
 5552POPC   GL270346  25.179  16.082   6.164
 5552POPC   C1A70347  25.275  15.920   6.464
 5552POPC   D2A70348  25.222  15.971   6.764
 5552POPC   C3A70349  25.273  15.968   7.064
 5552POPC   C4A70350  25.224  15.958   7.364
 5552POPC   C1B70351  25.063  16.085   6.464
 5552POPC   C2B70352  25.035  16.136   6.764
 5552POPC   C3B70353  25.131  16.094   7.064
 5552POPC   C4B70354  25.120  16.104   7.364
 5553POPC   NC370355  15.965  26.042   5.564
 5553POPC   PO470356  15.956  26.015   5.864
 5553POPC   GL170357  15.951  26.088   6.164
 5553POPC   GL270358  16.052  26.106   6.164
 5553POPC   C1A70359  15.933  26.044   6.464
 5553POPC   D2A70360  15.989  26.079   6.764
 5553POPC   C3A70361  15.927  26.031   7.064
 5553POPC   C4A70362  15.989  26.061   7.364
 5553POPC   C1B70363  16.120  26.214   6.464
 5553POPC   C2B70364  16.100  26.217   6.764
 5553POPC   C3B70365  16.092  26.245   7.064
 5553POPC   C4B70366  16.095  26.230   7.364
 5554POPC   NC370367   3.498  33.843   5.564
 5554POPC   PO470368   3.526  33.844   5.864
 5554POPC   GL170369   3.559  33.753   6.164
 5554POPC   GL270370   3.407  33.782   6.164
 5554POPC   C1A70371   3.522  33.823   6.464
 5554POPC   D2A70372   3.513  33.842   6.764
 5554POPC   C3A70373   3.588  33.843   7.064
 5554POPC   C4A70374   3.547  33.801   7.364
 5554POPC   C1B70375   3.344  33.805   6.464
 5554POPC   C2B70376   3.250  33.884   6.764
 5554POPC   C3B70377   3.291  33.874   7.064
 5554POPC   C4B70378   3.336  33.873   7.364
 5555POPC   NC370379   7.402   3.515   5.564
 5555POPC   PO470380   7.453   3.554   5.864
 5555POPC   GL170381   7.415   3.531   6.164
 5555POPC   GL270382   7.342   3.409   6.164
 5555POPC   C1A70383   7.447   3.582   6.464
 5555POPC   D2A70384   7.416   3.586   6.764
 5555POPC   C3A70385   7.392   3.504   7.064
 5555POPC   C4A70386   7.371   3.540   7.364
 5555POPC   C1B70387   7.231   3.336   6.464
 5555POPC   C2B70388   7.274   3.356   6.764
 5555POPC   C3B70389   7.264   3.335   7.064
 5555POPC   C4B70390   7.217   3.325   7.364
 5556POPC   NC370391  40.773  19.794   5.564
 5556POPC   PO470392  40.813  19.828   5.864
 5556POPC   GL170393  40.748  19.846   6.164
 5556POPC   GL270394  40.681  19.927   6.164
 5556POPC   C1A70395  40.773  19.803   6.464
 5556POPC   D2A70396  40.771  19.859   6.764
 5556POPC   C3A70397  40.756  19.807   7.064
 5556POPC   C4A70398  40.744  19.785   7.364
 5556POPC   C1B70399  40.611  20.023   6.464
 5556POPC   C2B70400  40.655  20.070   6.764
 5556POPC   C3B70401  40.624  20.084   7.064
 5556POPC   C4B70402  40.603  20.035   7.364
 5557POPC   NC370403  17.463  20.604   5.564
 5557POPC   PO470404  17.477  20.580   5.864
 5557POPC   GL170405  17.503  20.612   6.164
 5557POPC   GL270406  17.483  20.518   6.164
 5557POPC   C1A70407  17.523  20.567   6.464
 5557POPC   D2A70408  17.522  20.637   6.764
 5557POPC   C3A70409  17.501  20.648   7.064
 5557POPC   C4A70410  17.515  20.627   7.364
 5557POPC   C1B70411  17.515  20.315   6.464
 5557POPC   C2B70412  17.511  20.400   6.764
 5557POPC   C3B70413  17.423  20.359   7.064
 5557POPC   C4B70414  17.469  20.377   7.364
 5558POPC   NC370415  19.848  29.173   5.564
 5558POPC   PO470416  19.877  29.118   5.864
 5558POPC   GL170417  19.849  29.106   6.164
 5558POPC   GL270418  19.723  29.201   6.164
 5558POPC   C1A70419  19.833  29.124   6.464
 5558POPC   D2A70420  19.883  29.181   6.764
 5558POPC   C3A70421  19.816  29.125   7.064
 5558POPC   C4A70422  19.836  29.192   7.364
 5558POPC   C1B70423  19.648  29.224   6.464
 5558POPC   C2B70424  19.630  29.306   6.764
 5558POPC   C3B70425  19.613  29.287   7.064
 5558POPC   C4B70426  19.629  29.225   7.364
 5559POPC   NC370427  18.278  44.703   5.564
 5559POPC   PO470428  18.323  44.669   5.864
 5559POPC   GL170429  18.249  44.665   6.164
 5559POPC   GL270430  18.159  44.758   6.164
 5559POPC   C1A70431  18.316  44.625   6.464
 5559POPC   D2A70432  18.329  44.614   6.764
 5559POPC   C3A70433  18.285  44.702   7.064
 5559POPC   C4A70434  18.314  44.642   7.364
 5559POPC   C1B70435  18.132  44.874   6.464
 5559POPC   C2B70436  18.137  44.861   6.764
 5559POPC   C3B70437  18.130  44.880   7.064
 5559POPC   C4B70438  18.143  44.868   7.364
 5560POPC   NC370439  10.504  27.584   5.564
 5560POPC   PO470440  10.569  27.608   5.864
 5560POPC   GL170441  10.572  27.638   6.164
 5560POPC   GL270442  10.381  27.524   6.164
 5560POPC   C1A70443  10.503  27.635   6.464
 5560POPC   D2A70444  10.566  27.610   6.764
 5560POPC   C3A70445  10.520  27.576   7.064
 5560POPC   C4A70446  10.484  27.612   7.364
 5560POPC   C1B70447  10.375  27.450   6.464
 5560POPC   C2B70448  10.327  27.448   6.764
 5560POPC   C3B70449  10.344  27.410   7.064
 5560POPC   C4B70450  10.364  27.445   7.364
 5561POPC   NC370451  36.128  12.118   5.564
 5561POPC   PO470452  36.097  12.043   5.864
 5561POPC   GL170453  36.120  12.111   6.164
 5561POPC   GL270454  36.018  12.070   6.164
 5561POPC   C1A70455  36.161  12.071   6.464
 5561POPC   D2A70456  36.169  12.098   6.764
 5561POPC   C3A70457  36.150  12.045   7.064
 5561POPC   C4A70458  36.131  12.107   7.364
 5561POPC   C1B70459  35.888  12.120   6.464
 5561POPC   C2B70460  35.935  12.106   6.764
 5561POPC   C3B70461  35.854  12.177   7.064
 5561POPC   C4B70462  35.881  12.174   7.364
 5562POPC   NC370463   6.671   9.708   5.564
 5562POPC   PO470464   6.625   9.781   5.864
 5562POPC   GL170465   6.625   9.731   6.164
 5562POPC   GL270466   6.488   9.825   6.164
 5562POPC   C1A70467   6.669   9.747   6.464
 5562POPC   D2A70468   6.650   9.779   6.764
 5562POPC   C3A70469   6.693   9.772   7.064
 5562POPC   C4A70470   6.636   9.705   7.364
 5562POPC   C1B70471   6.402   9.881   6.464
 5562POPC   C2B70472   6.396   9.920   6.764
 5562POPC   C3B70473   6.383   9.837   7.064
 5562POPC   C4B70474   6.471   9.826   7.364
 5563POPC   NC370475   1.955  38.412   5.564
 5563POPC   PO470476   1.994  38.409   5.864
 5563POPC   GL170477   1.961  38.437   6.164
 5563POPC   GL270478   2.048  38.353   6.164
 5563POPC   C1A70479   1.945  38.414   6.464
 5563POPC   D2A70480   1.951  38.444   6.764
 5563POPC   C3A70481   2.031  38.483   7.064
 5563POPC   C4A70482   2.021  38.503   7.364
 5563POPC   C1B70483   2.054  38.228   6.464
 5563POPC   C2B70484   2.122  38.263   6.764
 5563POPC   C3B70485   2.037  38.225   7.064
 5563POPC   C4B70486   2.031  38.193   7.364
 5564POPC   NC370487  23.690  38.500   5.564
 5564POPC   PO470488  23.735  38.433   5.864
 5564POPC   GL170489  23.729  38.434   6.164
 5564POPC   GL270490  23.788  38.546   6.164
 5564POPC   C1A70491  23.726  38.420   6.464
 5564POPC   D2A70492  23.744  38.495   6.764
 5564POPC   C3A70493  23.710  38.489   7.064
 5564POPC   C4A70494  23.671  38.502   7.364
 5564POPC   C1B70495  23.921  38.534   6.464
 5564POPC   C2B70496  23.985  38.547   6.764
 5564POPC   C3B70497  23.963  38.518   7.064
 5564POPC   C4B70498  23.899  38.582   7.364
 5565POPC   NC370499  29.927   7.461   5.564
 5565POPC   PO470500  29.931   7.389   5.864
 5565POPC   GL170501  29.879   7.447   6.164
 5565POPC   GL270502  30.031   7.545   6.164
 5565POPC   C1A70503  29.898   7.451   6.464
 5565POPC   D2A70504  29.956   7.449   6.764
 5565POPC   C3A70505  29.935   7.421   7.064
 5565POPC   C4A70506  29.956   7.392   7.364
 5565POPC   C1B70507  30.077   7.603   6.464
 5565POPC   C2B70508  30.044   7.564   6.764
 5565POPC   C3B70509  30.133   7.657   7.064
 5565POPC   C4B70510  30.114   7.642   7.364
 5566POPC   NC370511  15.222   7.447   5.564
 5566POPC   PO470512  15.218   7.376   5.864
 5566POPC   GL170513  15.193   7.376   6.164
 5566POPC   GL270514  15.249   7.519   6.164
 5566POPC   C1A70515  15.168   7.427   6.464
 5566POPC   D2A70516  15.181   7.444   6.764
 5566POPC   C3A70517  15.169   7.408   7.064
 5566POPC   C4A70518  15.160   7.442   7.364
 5566POPC   C1B70519  15.363   7.649   6.464
 5566POPC   C2B70520  15.331   7.662   6.764
 5566POPC   C3B70521  15.318   7.590   7.064
 5566POPC   C4B70522  15.292   7.656   7.364
 5567POPC   NC370523  15.132   3.493   5.564
 5567POPC   PO470524  15.148   3.544   5.864
 5567POPC   GL170525  15.199   3.496   6.164
 5567POPC   GL270526  15.117   3.661   6.164
 5567POPC   C1A70527  15.191   3.549   6.464
 5567POPC   D2A70528  15.140   3.533   6.764
 5567POPC   C3A70529  15.226   3.565   7.064
 5567POPC   C4A70530  15.164   3.569   7.364
 5567POPC   C1B70531  15.101   3.795   6.464
 5567POPC   C2B70532  15.130   3.727   6.764
 5567POPC   C3B70533  15.116   3.750   7.064
 5567POPC   C4B70534  15.056   3.800   7.364
 5568POPC   NC370535  22.163   6.683   5.564
 5568POPC   PO470536  22.166   6.664   5.864
 5568POPC   GL170537  22.135   6.661   6.164
 5568POPC   GL270538  22.023   6.580   6.164
 5568POPC   C1A70539  22.155   6.651   6.464
 5568POPC   D2A70540  22.131   6.673   6.764
 5568POPC   C3A70541  22.196   6.659   7.064
 5568POPC   C4A70542  22.132   6.616   7.364
 5568POPC   C1B70543  21.987   6.507   6.464
 5568POPC   C2B70544  21.938   6.456   6.764
 5568POPC   C3B70545  21.955   6.452   7.064
 5568POPC   C4B70546  21.964   6.473   7.364
 5569POPC   NC370547  43.927   3.533   5.564
 5569POPC   PO470548  43.899   3.523   5.864
 5569POPC   GL170549  43.870   3.514   6.164
 5569POPC   GL270550  44.037   3.502   6.164
 5569POPC   C1A70551  43.847   3.541   6.464
 5569POPC   D2A70552  43.866   3.517   6.764
 5569POPC   C3A70553  43.889   3.566   7.064
 5569POPC   C4A70554  43.849   3.492   7.364
 5569POPC   C1B70555  44.125   3.504   6.464
 5569POPC   C2B70556  44.153   3.529   6.764
 5569POPC   C3B70557  44.140   3.552   7.064
 5569POPC   C4B70558  44.130   3.558   7.364
 5570POPC   NC370559  44.640  14.367   5.564
 5570POPC   PO470560  44.624  14.401   5.864
 5570POPC   GL170561  44.653  14.359   6.164
 5570POPC   GL270562  44.514  14.448   6.164
 5570POPC   C1A70563  44.656  14.423   6.464
 5570POPC   D2A70564  44.622  14.427   6.764
 5570POPC   C3A70565  44.642  14.438   7.064
 5570POPC   C4A70566  44.616  14.389   7.364
 5570POPC   C1B70567  44.388  14.526   6.464
 5570POPC   C2B70568  44.458  14.456   6.764
 5570POPC   C3B70569  44.455  14.476   7.064
 5570POPC   C4B70570  44.422  14.537   7.364
 5571POPC   NC370571  33.841  39.197   5.564
 5571POPC   PO470572  33.850  39.248   5.864
 5571POPC   GL170573  33.810  39.208   6.164
 5571POPC   GL270574  33.920  39.231   6.164
 5571POPC   C1A70575  33.780  39.216   6.464
 5571POPC   D2A70576  33.791  39.252   6.764
 5571POPC   C3A70577  33.781  39.231   7.064
 5571POPC   C4A70578  33.805  39.257   7.364
 5571POPC   C1B70579  34.069  39.323   6.464
 5571POPC   C2B70580  34.022  39.297   6.764
 5571POPC   C3B70581  34.044  39.305   7.064
 5571POPC   C4B70582  34.081  39.282   7.364
 5572POPC   NC370583  12.113  33.002   5.564
 5572POPC   PO470584  12.098  33.070   5.864
 5572POPC   GL170585  12.122  33.012   6.164
 5572POPC   GL270586  12.187  33.013   6.164
 5572POPC   C1A70587  12.066  33.068   6.464
 5572POPC   D2A70588  12.058  33.005   6.764
 5572POPC   C3A70589  12.109  33.015   7.064
 5572POPC   C4A70590  12.083  33.023   7.364
 5572POPC   C1B70591  12.365  32.994   6.464
 5572POPC   C2B70592  12.334  33.010   6.764
 5572POPC   C3B70593  12.369  33.043   7.064
 5572POPC   C4B70594  12.315  33.020   7.364
 5573POPC   NC370595  12.043  11.277   5.564
 5573POPC   PO470596  12.107  11.288   5.864
 5573POPC   GL170597  12.123  11.286   6.164
 5573POPC   GL270598  12.009  11.164   6.164
 5573POPC   C1A70599  12.071  11.307   6.464
 5573POPC   D2A70600  12.109  11.259   6.764
 5573POPC   C3A70601  12.036  11.295   7.064
 5573POPC   C4A70602  12.061  11.309   7.364
 5573POPC   C1B70603  11.930  11.079   6.464
 5573POPC   C2B70604  11.948  11.046   6.764
 5573POPC   C3B70605  11.945  11.044   7.064
 5573POPC   C4B70606  11.902  11.080   7.364
 5574POPC   NC370607   6.616   8.167   5.564
 5574POPC   PO470608   6.648   8.233   5.864
 5574POPC   GL170609   6.662   8.223   6.164
 5574POPC   GL270610   6.653   8.359   6.164
 5574POPC   C1A70611   6.610   8.180   6.464
 5574POPC   D2A70612   6.689   8.230   6.764
 5574POPC   C3A70613   6.686   8.179   7.064
 5574POPC   C4A70614   6.595   8.210   7.364
 5574POPC   C1B70615   6.677   8.419   6.464
 5574POPC   C2B70616   6.735   8.441   6.764
 5574POPC   C3B70617   6.691   8.445   7.064
 5574POPC   C4B70618   6.728   8.484   7.364
 5575POPC   NC370619  28.384   8.981   5.564
 5575POPC   PO470620  28.347   9.011   5.864
 5575POPC   GL170621  28.356   8.979   6.164
 5575POPC   GL270622  28.507   8.959   6.164
 5575POPC   C1A70623  28.389   9.015   6.464
 5575POPC   D2A70624  28.355   8.976   6.764
 5575POPC   C3A70625  28.367   8.950   7.064
 5575POPC   C4A70626  28.332   8.927   7.364
 5575POPC   C1B70627  28.577   8.860   6.464
 5575POPC   C2B70628  28.604   8.850   6.764
 5575POPC   C3B70629  28.621   8.913   7.064
 5575POPC   C4B70630  28.612   8.864   7.364
 5576POPC   NC370631  18.275  28.348   5.564
 5576POPC   PO470632  18.324  28.352   5.864
 5576POPC   GL170633  18.283  28.402   6.164
 5576POPC   GL270634  18.267  28.279   6.164
 5576POPC   C1A70635  18.243  28.329   6.464
 5576POPC   D2A70636  18.253  28.337   6.764
 5576POPC   C3A70637  18.255  28.335   7.064
 5576POPC   C4A70638  18.323  28.379   7.364
 5576POPC   C1B70639  18.268  28.097   6.464
 5576POPC   C2B70640  18.282  28.078   6.764
 5576POPC   C3B70641  18.356  28.123   7.064
 5576POPC   C4B70642  18.279  28.150   7.364
 5577POPC   NC370643  11.260   8.993   5.564
 5577POPC   PO470644  11.268   9.016   5.864
 5577POPC   GL170645  11.331   8.943   6.164
 5577POPC   GL270646  11.447   8.994   6.164
 5577POPC   C1A70647  11.291   8.974   6.464
 5577POPC   D2A70648  11.300   8.970   6.764
 5577POPC   C3A70649  11.303   8.947   7.064
 5577POPC   C4A70650  11.327   8.975   7.364
 5577POPC   C1B70651  11.585   9.067   6.464
 5577POPC   C2B70652  11.506   9.008   6.764
 5577POPC   C3B70653  11.550   9.053   7.064
 5577POPC   C4B70654  11.585   8.994   7.364
 5578POPC   NC370655  23.707  36.936   5.564
 5578POPC   PO470656  23.714  36.938   5.864
 5578POPC   GL170657  23.689  36.924   6.164
 5578POPC   GL270658  23.757  37.065   6.164
 5578POPC   C1A70659  23.682  36.898   6.464
 5578POPC   D2A70660  23.674  36.898   6.764
 5578POPC   C3A70661  23.757  36.935   7.064
 5578POPC   C4A70662  23.729  36.864   7.364
 5578POPC   C1B70663  23.673  37.152   6.464
 5578POPC   C2B70664  23.666  37.153   6.764
 5578POPC   C3B70665  23.695  37.184   7.064
 5578POPC   C4B70666  23.716  37.199   7.364
 5579POPC   NC370667  11.277  12.098   5.564
 5579POPC   PO470668  11.340  12.049   5.864
 5579POPC   GL170669  11.252  12.065   6.164
 5579POPC   GL270670  11.184  11.968   6.164
 5579POPC   C1A70671  11.333  12.062   6.464
 5579POPC   D2A70672  11.341  12.040   6.764
 5579POPC   C3A70673  11.327  12.101   7.064
 5579POPC   C4A70674  11.347  12.060   7.364
 5579POPC   C1B70675  11.052  11.955   6.464
 5579POPC   C2B70676  11.105  11.883   6.764
 5579POPC   C3B70677  11.080  11.965   7.064
 5579POPC   C4B70678  11.088  11.933   7.364
 5580POPC   NC370679  32.999  10.543   5.564
 5580POPC   PO470680  33.031  10.541   5.864
 5580POPC   GL170681  32.989  10.512   6.164
 5580POPC   GL270682  32.931  10.550   6.164
 5580POPC   C1A70683  33.057  10.492   6.464
 5580POPC   D2A70684  32.993  10.555   6.764
 5580POPC   C3A70685  33.021  10.486   7.064
 5580POPC   C4A70686  33.053  10.477   7.364
 5580POPC   C1B70687  32.818  10.517   6.464
 5580POPC   C2B70688  32.738  10.490   6.764
 5580POPC   C3B70689  32.790  10.461   7.064
 5580POPC   C4B70690  32.733  10.508   7.364
 5581POPC   NC370691   9.701  26.835   5.564
 5581POPC   PO470692   9.749  26.772   5.864
 5581POPC   GL170693   9.741  26.826   6.164
 5581POPC   GL270694   9.845  26.755   6.164
 5581POPC   C1A70695   9.740  26.842   6.464
 5581POPC   D2A70696   9.717  26.850   6.764
 5581POPC   C3A70697   9.712  26.863   7.064
 5581POPC   C4A70698   9.750  26.860   7.364
 5581POPC   C1B70699   9.913  26.735   6.464
 5581POPC   C2B70700  10.010  26.682   6.764
 5581POPC   C3B70701   9.976  26.700   7.064
 5581POPC   C4B70702   9.949  26.655   7.364
 5582POPC   NC370703  16.741  37.727   5.564
 5582POPC   PO470704  16.728  37.710   5.864
 5582POPC   GL170705  16.717  37.649   6.164
 5582POPC   GL270706  16.646  37.664   6.164
 5582POPC   C1A70707  16.698  37.675   6.464
 5582POPC   D2A70708  16.745  37.665   6.764
 5582POPC   C3A70709  16.693  37.725   7.064
 5582POPC   C4A70710  16.759  37.687   7.364
 5582POPC   C1B70711  16.448  37.708   6.464
 5582POPC   C2B70712  16.435  37.659   6.764
 5582POPC   C3B70713  16.477  37.730   7.064
 5582POPC   C4B70714  16.495  37.716   7.364
 5583POPC   NC370715   5.091  29.113   5.564
 5583POPC   PO470716   5.067  29.191   5.864
 5583POPC   GL170717   5.122  29.109   6.164
 5583POPC   GL270718   4.963  29.146   6.164
 5583POPC   C1A70719   5.088  29.176   6.464
 5583POPC   D2A70720   5.086  29.115   6.764
 5583POPC   C3A70721   5.081  29.187   7.064
 5583POPC   C4A70722   5.141  29.170   7.364
 5583POPC   C1B70723   4.798  29.148   6.464
 5583POPC   C2B70724   4.858  29.080   6.764
 5583POPC   C3B70725   4.835  29.083   7.064
 5583POPC   C4B70726   4.838  29.062   7.364
 5584POPC   NC370727  21.391  13.619   5.564
 5584POPC   PO470728  21.385  13.634   5.864
 5584POPC   GL170729  21.350  13.580   6.164
 5584POPC   GL270730  21.475  13.544   6.164
 5584POPC   C1A70731  21.433  13.608   6.464
 5584POPC   D2A70732  21.428  13.605   6.764
 5584POPC   C3A70733  21.357  13.608   7.064
 5584POPC   C4A70734  21.360  13.614   7.364
 5584POPC   C1B70735  21.596  13.517   6.464
 5584POPC   C2B70736  21.655  13.514   6.764
 5584POPC   C3B70737  21.639  13.530   7.064
 5584POPC   C4B70738  21.583  13.550   7.364
 5585POPC   NC370739  15.137  27.562   5.564
 5585POPC   PO470740  15.159  27.555   5.864
 5585POPC   GL170741  15.208  27.563   6.164
 5585POPC   GL270742  15.080  27.657   6.164
 5585POPC   C1A70743  15.189  27.630   6.464
 5585POPC   D2A70744  15.206  27.572   6.764
 5585POPC   C3A70745  15.168  27.566   7.064
 5585POPC   C4A70746  15.227  27.612   7.364
 5585POPC   C1B70747  15.072  27.811   6.464
 5585POPC   C2B70748  15.041  27.765   6.764
 5585POPC   C3B70749  15.043  27.786   7.064
 5585POPC   C4B70750  15.026  27.781   7.364
 5586POPC   NC370751   2.791  32.295   5.564
 5586POPC   PO470752   2.736  32.256   5.864
 5586POPC   GL170753   2.745  32.278   6.164
 5586POPC   GL270754   2.745  32.139   6.164
 5586POPC   C1A70755   2.798  32.232   6.464
 5586POPC   D2A70756   2.751  32.237   6.764
 5586POPC   C3A70757   2.740  32.272   7.064
 5586POPC   C4A70758   2.800  32.207   7.364
 5586POPC   C1B70759   2.697  31.986   6.464
 5586POPC   C2B70760   2.710  31.955   6.764
 5586POPC   C3B70761   2.751  32.043   7.064
 5586POPC   C4B70762   2.719  31.965   7.364
 5587POPC   NC370763  36.945  38.501   5.564
 5587POPC   PO470764  36.899  38.433   5.864
 5587POPC   GL170765  36.948  38.491   6.164
 5587POPC   GL270766  36.773  38.574   6.164
 5587POPC   C1A70767  36.890  38.468   6.464
 5587POPC   D2A70768  36.934  38.474   6.764
 5587POPC   C3A70769  36.878  38.425   7.064
 5587POPC   C4A70770  36.935  38.415   7.364
 5587POPC   C1B70771  36.717  38.605   6.464
 5587POPC   C2B70772  36.708  38.662   6.764
 5587POPC   C3B70773  36.743  38.635   7.064
 5587POPC   C4B70774  36.746  38.624   7.364
 5588POPC   NC370775  14.425  35.304   5.564
 5588POPC   PO470776  14.363  35.323   5.864
 5588POPC   GL170777  14.390  35.337   6.164
 5588POPC   GL270778  14.337  35.437   6.164
 5588POPC   C1A70779  14.356  35.333   6.464
 5588POPC   D2A70780  14.425  35.365   6.764
 5588POPC   C3A70781  14.443  35.391   7.064
 5588POPC   C4A70782  14.445  35.304   7.364
 5588POPC   C1B70783  14.311  35.518   6.464
 5588POPC   C2B70784  14.228  35.513   6.764
 5588POPC   C3B70785  14.282  35.578   7.064
 5588POPC   C4B70786  14.293  35.583   7.364
 5589POPC   NC370787  43.081  38.488   5.564
 5589POPC   PO470788  43.111  38.467   5.864
 5589POPC   GL170789  43.135  38.436   6.164
 5589POPC   GL270790  43.254  38.390   6.164
 5589POPC   C1A70791  43.121  38.476   6.464
 5589POPC   D2A70792  43.116  38.498   6.764
 5589POPC   C3A70793  43.157  38.441   7.064
 5589POPC   C4A70794  43.091  38.412   7.364
 5589POPC   C1B70795  43.359  38.334   6.464
 5589POPC   C2B70796  43.358  38.361   6.764
 5589POPC   C3B70797  43.299  38.357   7.064
 5589POPC   C4B70798  43.372  38.352   7.364
 5590POPC   NC370799  33.793   9.769   5.564
 5590POPC   PO470800  33.760   9.784   5.864
 5590POPC   GL170801  33.793   9.715   6.164
 5590POPC   GL270802  33.911   9.683   6.164
 5590POPC   C1A70803  33.782   9.737   6.464
 5590POPC   D2A70804  33.805   9.725   6.764
 5590POPC   C3A70805  33.781   9.747   7.064
 5590POPC   C4A70806  33.760   9.720   7.364
 5590POPC   C1B70807  34.045   9.717   6.464
 5590POPC   C2B70808  33.999   9.645   6.764
 5590POPC   C3B70809  33.991   9.678   7.064
 5590POPC   C4B70810  34.045   9.696   7.364
 5591POPC   NC370811  43.108  33.802   5.564
 5591POPC   PO470812  43.150  33.814   5.864
 5591POPC   GL170813  43.092  33.848   6.164
 5591POPC   GL270814  43.038  33.840   6.164
 5591POPC   C1A70815  43.132  33.754   6.464
 5591POPC   D2A70816  43.101  33.754   6.764
 5591POPC   C3A70817  43.159  33.791   7.064
 5591POPC   C4A70818  43.108  33.794   7.364
 5591POPC   C1B70819  42.868  33.949   6.464
 5591POPC   C2B70820  42.870  33.929   6.764
 5591POPC   C3B70821  42.888  33.932   7.064
 5591POPC   C4B70822  42.892  33.914   7.364
 5592POPC   NC370823   7.430   8.991   5.564
 5592POPC   PO470824   7.470   8.933   5.864
 5592POPC   GL170825   7.467   8.976   6.164
 5592POPC   GL270826   7.511   9.084   6.164
 5592POPC   C1A70827   7.466   8.968   6.464
 5592POPC   D2A70828   7.375   8.994   6.764
 5592POPC   C3A70829   7.466   8.932   7.064
 5592POPC   C4A70830   7.428   8.991   7.364
 5592POPC   C1B70831   7.592   9.135   6.464
 5592POPC   C2B70832   7.654   9.164   6.764
 5592POPC   C3B70833   7.647   9.096   7.064
 5592POPC   C4B70834   7.603   9.126   7.364
 5593POPC   NC370835  17.470  33.849   5.564
 5593POPC   PO470836  17.505  33.842   5.864
 5593POPC   GL170837  17.485  33.802   6.164
 5593POPC   GL270838  17.616  33.795   6.164
 5593POPC   C1A70839  17.463  33.822   6.464
 5593POPC   D2A70840  17.532  33.754   6.764
 5593POPC   C3A70841  17.482  33.840   7.064
 5593POPC   C4A70842  17.524  33.816   7.364
 5593POPC   C1B70843  17.717  33.894   6.464
 5593POPC   C2B70844  17.780  33.893   6.764
 5593POPC   C3B70845  17.793  33.854   7.064
 5593POPC   C4B70846  17.764  33.877   7.364
 5594POPC   NC370847  38.455   1.177   5.564
 5594POPC   PO470848  38.441   1.264   5.864
 5594POPC   GL170849  38.416   1.183   6.164
 5594POPC   GL270850  38.599   1.216   6.164
 5594POPC   C1A70851  38.490   1.182   6.464
 5594POPC   D2A70852  38.406   1.210   6.764
 5594POPC   C3A70853  38.472   1.197   7.064
 5594POPC   C4A70854  38.498   1.246   7.364
 5594POPC   C1B70855  38.730   1.249   6.464
 5594POPC   C2B70856  38.719   1.260   6.764
 5594POPC   C3B70857  38.656   1.248   7.064
 5594POPC   C4B70858  38.682   1.216   7.364
 5595POPC   NC370859  24.445  19.055   5.564
 5595POPC   PO470860  24.495  19.031   5.864
 5595POPC   GL170861  24.523  19.063   6.164
 5595POPC   GL270862  24.550  19.155   6.164
 5595POPC   C1A70863  24.473  19.087   6.464
 5595POPC   D2A70864  24.443  19.032   6.764
 5595POPC   C3A70865  24.467  19.104   7.064
 5595POPC   C4A70866  24.515  19.052   7.364
 5595POPC   C1B70867  24.545  19.262   6.464
 5595POPC   C2B70868  24.588  19.305   6.764
 5595POPC   C3B70869  24.536  19.271   7.064
 5595POPC   C4B70870  24.549  19.268   7.364
 5596POPC   NC370871  38.429  19.827   5.564
 5596POPC   PO470872  38.464  19.854   5.864
 5596POPC   GL170873  38.480  19.831   6.164
 5596POPC   GL270874  38.391  19.758   6.164
 5596POPC   C1A70875  38.465  19.854   6.464
 5596POPC   D2A70876  38.409  19.808   6.764
 5596POPC   C3A70877  38.420  19.848   7.064
 5596POPC   C4A70878  38.410  19.840   7.364
 5596POPC   C1B70879  38.382  19.578   6.464
 5596POPC   C2B70880  38.376  19.636   6.764
 5596POPC   C3B70881  38.343  19.616   7.064
 5596POPC   C4B70882  38.366  19.620   7.364
 5597POPC   NC370883   6.613  12.857   5.564
 5597POPC   PO470884   6.647  12.886   5.864
 5597POPC   GL170885   6.632  12.890   6.164
 5597POPC   GL270886   6.522  12.888   6.164
 5597POPC   C1A70887   6.636  12.883   6.464
 5597POPC   D2A70888   6.617  12.809   6.764
 5597POPC   C3A70889   6.692  12.823   7.064
 5597POPC   C4A70890   6.621  12.859   7.364
 5597POPC   C1B70891   6.369  12.865   6.464
 5597POPC   C2B70892   6.409  12.877   6.764
 5597POPC   C3B70893   6.351  12.929   7.064
 5597POPC   C4B70894   6.424  12.922   7.364
 5598POPC   NC370895  35.309   0.435   5.564
 5598POPC   PO470896  35.333   0.466   5.864
 5598POPC   GL170897  35.358   0.449   6.164
 5598POPC   GL270898  35.459   0.531   6.164
 5598POPC   C1A70899  35.373   0.428   6.464
 5598POPC   D2A70900  35.326   0.448   6.764
 5598POPC   C3A70901  35.377   0.432   7.064
 5598POPC   C4A70902  35.345   0.469   7.364
 5598POPC   C1B70903  35.481   0.584   6.464
 5598POPC   C2B70904  35.560   0.669   6.764
 5598POPC   C3B70905  35.533   0.638   7.064
 5598POPC   C4B70906  35.552   0.672   7.364
 5599POPC   NC370907   1.239  40.000   5.564
 5599POPC   PO470908   1.249  39.980   5.864
 5599POPC   GL170909   1.223  40.025   6.164
 5599POPC   GL270910   1.053  40.028   6.164
 5599POPC   C1A70911   1.198  40.030   6.464
 5599POPC   D2A70912   1.176  39.976   6.764
 5599POPC   C3A70913   1.188  40.036   7.064
 5599POPC   C4A70914   1.242  39.978   7.364
 5599POPC   C1B70915   0.993  40.064   6.464
 5599POPC   C2B70916   0.938  40.057   6.764
 5599POPC   C3B70917   0.917  40.041   7.064
 5599POPC   C4B70918   0.971  40.063   7.364
 5600POPC   NC370919  29.873  44.634   5.564
 5600POPC   PO470920  29.890  44.683   5.864
 5600POPC   GL170921  29.875  44.661   6.164
 5600POPC   GL270922  29.924  44.819   6.164
 5600POPC   C1A70923  29.969  44.630   6.464
 5600POPC   D2A70924  29.948  44.677   6.764
 5600POPC   C3A70925  29.915  44.668   7.064
 5600POPC   C4A70926  29.894  44.631   7.364
 5600POPC   C1B70927  29.959  44.905   6.464
 5600POPC   C2B70928  29.935  44.957   6.764
 5600POPC   C3B70929  29.916  44.961   7.064
 5600POPC   C4B70930  29.926  44.947   7.364
 5601POPC   NC370931  33.800  16.766   5.564
 5601POPC   PO470932  33.754  16.769   5.864
 5601POPC   GL170933  33.758  16.704   6.164
 5601POPC   GL270934  33.841  16.683   6.164
 5601POPC   C1A70935  33.753  16.717   6.464
 5601POPC   D2A70936  33.777  16.707   6.764
 5601POPC   C3A70937  33.845  16.720   7.064
 5601POPC   C4A70938  33.822  16.772   7.364
 5601POPC   C1B70939  33.923  16.510   6.464
 5601POPC   C2B70940  33.979  16.572   6.764
 5601POPC   C3B70941  33.988  16.581   7.064
 5601POPC   C4B70942  34.015  16.549   7.364
 5602POPC   NC370943  29.882  10.502   5.564
 5602POPC   PO470944  29.879  10.484   5.864
 5602POPC   GL170945  29.942  10.532   6.164
 5602POPC   GL270946  29.974  10.627   6.164
 5602POPC   C1A70947  29.920  10.505   6.464
 5602POPC   D2A70948  29.950  10.548   6.764
 5602POPC   C3A70949  29.897  10.537   7.064
 5602POPC   C4A70950  29.888  10.475   7.364
 5602POPC   C1B70951  29.938  10.818   6.464
 5602POPC   C2B70952  29.972  10.818   6.764
 5602POPC   C3B70953  30.012  10.809   7.064
 5602POPC   C4B70954  29.990  10.759   7.364
 5603POPC   NC370955  35.348  40.036   5.564
 5603POPC   PO470956  35.333  39.962   5.864
 5603POPC   GL170957  35.354  39.959   6.164
 5603POPC   GL270958  35.244  39.882   6.164
 5603POPC   C1A70959  35.384  40.012   6.464
 5603POPC   D2A70960  35.350  40.026   6.764
 5603POPC   C3A70961  35.391  40.033   7.064
 5603POPC   C4A70962  35.328  40.021   7.364
 5603POPC   C1B70963  35.181  39.846   6.464
 5603POPC   C2B70964  35.149  39.834   6.764
 5603POPC   C3B70965  35.188  39.847   7.064
 5603POPC   C4B70966  35.147  39.804   7.364
 5604POPC   NC370967  41.552  31.437   5.564
 5604POPC   PO470968  41.518  31.427   5.864
 5604POPC   GL170969  41.512  31.490   6.164
 5604POPC   GL270970  41.545  31.610   6.164
 5604POPC   C1A70971  41.558  31.485   6.464
 5604POPC   D2A70972  41.592  31.437   6.764
 5604POPC   C3A70973  41.594  31.434   7.064
 5604POPC   C4A70974  41.528  31.463   7.364
 5604POPC   C1B70975  41.437  31.738   6.464
 5604POPC   C2B70976  41.473  31.741   6.764
 5604POPC   C3B70977  41.448  31.676   7.064
 5604POPC   C4B70978  41.414  31.692   7.364
 5605POPC   NC370979  40.002  29.950   5.564
 5605POPC   PO470980  40.031  29.913   5.864
 5605POPC   GL170981  39.973  29.916   6.164
 5605POPC   GL270982  40.026  29.819   6.164
 5605POPC   C1A70983  39.973  29.947   6.464
 5605POPC   D2A70984  40.039  29.912   6.764
 5605POPC   C3A70985  40.038  29.923   7.064
 5605POPC   C4A70986  39.979  29.966   7.364
 5605POPC   C1B70987  40.016  29.680   6.464
 5605POPC   C2B70988  40.071  29.684   6.764
 5605POPC   C3B70989  40.068  29.695   7.064
 5605POPC   C4B70990  40.089  29.695   7.364
 5606POPC   NC370991  42.292   4.269   5.564
 5606POPC   PO470992  42.291   4.272   5.864
 5606POPC   GL170993  42.338   4.366   6.164
 5606POPC   GL270994  42.369   4.414   6.164
 5606POPC   C1A70995  42.347   4.277   6.464
 5606POPC   D2A70996  42.351   4.334   6.764
 5606POPC   C3A70997  42.294   4.299   7.064
 5606POPC   C4A70998  42.346   4.316   7.364
 5606POPC   C1B70999  42.308   4.548   6.464
 5606POPC   C2B71000  42.347   4.600   6.764
 5606POPC   C3B71001  42.310   4.567   7.064
 5606POPC   C4B71002  42.338   4.585   7.364
 5607POPC   NC371003   7.445  19.863   5.564
 5607POPC   PO471004   7.433  19.800   5.864
 5607POPC   GL171005   7.398  19.792   6.164
 5607POPC   GL271006   7.338  19.745   6.164
 5607POPC   C1A71007   7.373  19.792   6.464
 5607POPC   D2A71008   7.392  19.845   6.764
 5607POPC   C3A71009   7.468  19.799   7.064
 5607POPC   C4A71010   7.375  19.796   7.364
 5607POPC   C1B71011   7.255  19.663   6.464
 5607POPC   C2B71012   7.251  19.660   6.764
 5607POPC   C3B71013   7.274  19.632   7.064
 5607POPC   C4B71014   7.278  19.679   7.364
 5608POPC   NC371015   9.701  36.890   5.564
 5608POPC   PO471016   9.730  36.916   5.864
 5608POPC   GL171017   9.711  36.858   6.164
 5608POPC   GL271018   9.718  36.848   6.164
 5608POPC   C1A71019   9.734  36.926   6.464
 5608POPC   D2A71020   9.761  36.880   6.764
 5608POPC   C3A71021   9.786  36.895   7.064
 5608POPC   C4A71022   9.706  36.913   7.364
 5608POPC   C1B71023   9.583  36.751   6.464
 5608POPC   C2B71024   9.590  36.659   6.764
 5608POPC   C3B71025   9.633  36.681   7.064
 5608POPC   C4B71026   9.574  36.712   7.364
 5609POPC   NC371027   2.012  10.482   5.564
 5609POPC   PO471028   1.946  10.513   5.864
 5609POPC   GL171029   1.969  10.531   6.164
 5609POPC   GL271030   1.856  10.625   6.164
 5609POPC   C1A71031   1.973  10.512   6.464
 5609POPC   D2A71032   1.991  10.565   6.764
 5609POPC   C3A71033   2.001  10.499   7.064
 5609POPC   C4A71034   2.010  10.564   7.364
 5609POPC   C1B71035   1.812  10.703   6.464
 5609POPC   C2B71036   1.796  10.675   6.764
 5609POPC   C3B71037   1.804  10.725   7.064
 5609POPC   C4B71038   1.819  10.726   7.364
 5610POPC   NC371039   5.869   4.323   5.564
 5610POPC   PO471040   5.830   4.365   5.864
 5610POPC   GL171041   5.860   4.302   6.164
 5610POPC   GL271042   5.747   4.249   6.164
 5610POPC   C1A71043   5.911   4.325   6.464
 5610POPC   D2A71044   5.891   4.328   6.764
 5610POPC   C3A71045   5.896   4.352   7.064
 5610POPC   C4A71046   5.858   4.312   7.364
 5610POPC   C1B71047   5.689   4.127   6.464
 5610POPC   C2B71048   5.747   4.151   6.764
 5610POPC   C3B71049   5.729   4.126   7.064
 5610POPC   C4B71050   5.730   4.087   7.364
 5611POPC   NC371051  30.653   3.569   5.564
 5611POPC   PO471052  30.657   3.515   5.864
 5611POPC   GL171053  30.706   3.545   6.164
 5611POPC   GL271054  30.585   3.437   6.164
 5611POPC   C1A71055  30.658   3.566   6.464
 5611POPC   D2A71056  30.710   3.534   6.764
 5611POPC   C3A71057  30.723   3.561   7.064
 5611POPC   C4A71058  30.680   3.578   7.364
 5611POPC   C1B71059  30.523   3.363   6.464
 5611POPC   C2B71060  30.514   3.313   6.764
 5611POPC   C3B71061  30.527   3.316   7.064
 5611POPC   C4B71062  30.518   3.312   7.364
 5612POPC   NC371063  39.968  35.332   5.564
 5612POPC   PO471064  39.960  35.367   5.864
 5612POPC   GL171065  39.975  35.374   6.164
 5612POPC   GL271066  39.893  35.289   6.164
 5612POPC   C1A71067  40.001  35.304   6.464
 5612POPC   D2A71068  39.983  35.357   6.764
 5612POPC   C3A71069  39.974  35.382   7.064
 5612POPC   C4A71070  39.987  35.379   7.364
 5612POPC   C1B71071  39.858  35.149   6.464
 5612POPC   C2B71072  39.845  35.138   6.764
 5612POPC   C3B71073  39.815  35.151   7.064
 5612POPC   C4B71074  39.875  35.200   7.364
 5613POPC   NC371075  34.527  36.103   5.564
 5613POPC   PO471076  34.549  36.078   5.864
 5613POPC   GL171077  34.580  36.112   6.164
 5613POPC   GL271078  34.722  36.221   6.164
 5613POPC   C1A71079  34.529  36.134   6.464
 5613POPC   D2A71080  34.526  36.175   6.764
 5613POPC   C3A71081  34.547  36.145   7.064
 5613POPC   C4A71082  34.605  36.101   7.364
 5613POPC   C1B71083  34.838  36.262   6.464
 5613POPC   C2B71084  34.827  36.265   6.764
 5613POPC   C3B71085  34.765  36.201   7.064
 5613POPC   C4B71086  34.760  36.225   7.364
 5614POPC   NC371087  43.913  42.349   5.564
 5614POPC   PO471088  43.841  42.294   5.864
 5614POPC   GL171089  43.893  42.311   6.164
 5614POPC   GL271090  43.924  42.171   6.164
 5614POPC   C1A71091  43.900  42.373   6.464
 5614POPC   D2A71092  43.895  42.310   6.764
 5614POPC   C3A71093  43.853  42.314   7.064
 5614POPC   C4A71094  43.839  42.330   7.364
 5614POPC   C1B71095  43.895  42.059   6.464
 5614POPC   C2B71096  43.933  42.111   6.764
 5614POPC   C3B71097  43.858  42.050   7.064
 5614POPC   C4B71098  43.903  42.048   7.364
 5615POPC   NC371099  14.442  33.041   5.564
 5615POPC   PO471100  14.449  32.987   5.864
 5615POPC   GL171101  14.416  33.019   6.164
 5615POPC   GL271102  14.328  32.998   6.164
 5615POPC   C1A71103  14.363  33.045   6.464
 5615POPC   D2A71104  14.369  32.998   6.764
 5615POPC   C3A71105  14.392  33.029   7.064
 5615POPC   C4A71106  14.381  32.995   7.364
 5615POPC   C1B71107  14.147  32.986   6.464
 5615POPC   C2B71108  14.150  33.025   6.764
 5615POPC   C3B71109  14.123  32.994   7.064
 5615POPC   C4B71110  14.130  32.991   7.364
 5616POPC   NC371111  17.488  39.986   5.564
 5616POPC   PO471112  17.546  40.050   5.864
 5616POPC   GL171113  17.460  40.014   6.164
 5616POPC   GL271114  17.461  40.074   6.164
 5616POPC   C1A71115  17.520  39.975   6.464
 5616POPC   D2A71116  17.533  40.025   6.764
 5616POPC   C3A71117  17.519  39.974   7.064
 5616POPC   C4A71118  17.546  39.996   7.364
 5616POPC   C1B71119  17.415  40.226   6.464
 5616POPC   C2B71120  17.409  40.282   6.764
 5616POPC   C3B71121  17.395  40.235   7.064
 5616POPC   C4B71122  17.455  40.246   7.364
 5617POPC   NC371123  43.132  30.688   5.564
 5617POPC   PO471124  43.068  30.740   5.864
 5617POPC   GL171125  43.083  30.684   6.164
 5617POPC   GL271126  43.033  30.742   6.164
 5617POPC   C1A71127  43.145  30.694   6.464
 5617POPC   D2A71128  43.113  30.703   6.764
 5617POPC   C3A71129  43.134  30.735   7.064
 5617POPC   C4A71130  43.143  30.675   7.364
 5617POPC   C1B71131  42.880  30.705   6.464
 5617POPC   C2B71132  42.874  30.659   6.764
 5617POPC   C3B71133  42.882  30.747   7.064
 5617POPC   C4B71134  42.885  30.678   7.364
 5618POPC   NC371135  25.304  20.623   5.564
 5618POPC   PO471136  25.262  20.597   5.864
 5618POPC   GL171137  25.297  20.628   6.164
 5618POPC   GL271138  25.256  20.775   6.164
 5618POPC   C1A71139  25.243  20.631   6.464
 5618POPC   D2A71140  25.221  20.564   6.764
 5618POPC   C3A71141  25.220  20.616   7.064
 5618POPC   C4A71142  25.264  20.613   7.364
 5618POPC   C1B71143  25.216  20.828   6.464
 5618POPC   C2B71144  25.215  20.896   6.764
 5618POPC   C3B71145  25.249  20.840   7.064
 5618POPC   C4B71146  25.231  20.851   7.364
 5619POPC   NC371147   5.085   9.782   5.564
 5619POPC   PO471148   5.100   9.774   5.864
 5619POPC   GL171149   5.085   9.701   6.164
 5619POPC   GL271150   5.108   9.586   6.164
 5619POPC   C1A71151   5.067   9.721   6.464
 5619POPC   D2A71152   5.069   9.766   6.764
 5619POPC   C3A71153   5.101   9.759   7.064
 5619POPC   C4A71154   5.118   9.781   7.364
 5619POPC   C1B71155   5.141   9.509   6.464
 5619POPC   C2B71156   5.103   9.458   6.764
 5619POPC   C3B71157   5.091   9.488   7.064
 5619POPC   C4B71158   5.131   9.539   7.364
 5620POPC   NC371159  10.484  12.106   5.564
 5620POPC   PO471160  10.573  12.112   5.864
 5620POPC   GL171161  10.559  12.088   6.164
 5620POPC   GL271162  10.444  12.227   6.164
 5620POPC   C1A71163  10.574  12.060   6.464
 5620POPC   D2A71164  10.541  12.113   6.764
 5620POPC   C3A71165  10.522  12.089   7.064
 5620POPC   C4A71166  10.498  12.123   7.364
 5620POPC   C1B71167  10.488  12.322   6.464
 5620POPC   C2B71168  10.490  12.332   6.764
 5620POPC   C3B71169  10.456  12.303   7.064
 5620POPC   C4B71170  10.479  12.318   7.364
 5621POPC   NC371171  32.252  26.796   5.564
 5621POPC   PO471172  32.290  26.776   5.864
 5621POPC   GL171173  32.293  26.768   6.164
 5621POPC   GL271174  32.314  26.927   6.164
 5621POPC   C1A71175  32.206  26.805   6.464
 5621POPC   D2A71176  32.293  26.819   6.764
 5621POPC   C3A71177  32.209  26.794   7.064
 5621POPC   C4A71178  32.220  26.816   7.364
 5621POPC   C1B71179  32.368  27.085   6.464
 5621POPC   C2B71180  32.309  27.064   6.764
 5621POPC   C3B71181  32.348  27.023   7.064
 5621POPC   C4B71182  32.305  27.095   7.364
 5622POPC   NC371183  38.451  35.322   5.564
 5622POPC   PO471184  38.467  35.373   5.864
 5622POPC   GL171185  38.487  35.331   6.164
 5622POPC   GL271186  38.302  35.390   6.164
 5622POPC   C1A71187  38.463  35.340   6.464
 5622POPC   D2A71188  38.451  35.329   6.764
 5622POPC   C3A71189  38.492  35.368   7.064
 5622POPC   C4A71190  38.471  35.385   7.364
 5622POPC   C1B71191  38.245  35.399   6.464
 5622POPC   C2B71192  38.157  35.345   6.764
 5622POPC   C3B71193  38.204  35.381   7.064
 5622POPC   C4B71194  38.202  35.408   7.364
 5623POPC   NC371195  41.567  33.774   5.564
 5623POPC   PO471196  41.531  33.782   5.864
 5623POPC   GL171197  41.587  33.842   6.164
 5623POPC   GL271198  41.695  33.779   6.164
 5623POPC   C1A71199  41.546  33.780   6.464
 5623POPC   D2A71200  41.521  33.809   6.764
 5623POPC   C3A71201  41.513  33.841   7.064
 5623POPC   C4A71202  41.510  33.820   7.364
 5623POPC   C1B71203  41.828  33.823   6.464
 5623POPC   C2B71204  41.770  33.818   6.764
 5623POPC   C3B71205  41.849  33.866   7.064
 5623POPC   C4B71206  41.827  33.867   7.364
 5624POPC   NC371207  43.927  13.588   5.564
 5624POPC   PO471208  43.879  13.600   5.864
 5624POPC   GL171209  43.917  13.640   6.164
 5624POPC   GL271210  43.793  13.547   6.164
 5624POPC   C1A71211  43.848  13.621   6.464
 5624POPC   D2A71212  43.906  13.592   6.764
 5624POPC   C3A71213  43.926  13.655   7.064
 5624POPC   C4A71214  43.905  13.590   7.364
 5624POPC   C1B71215  43.704  13.404   6.464
 5624POPC   C2B71216  43.718  13.404   6.764
 5624POPC   C3B71217  43.705  13.472   7.064
 5624POPC   C4B71218  43.701  13.478   7.364
 5625POPC   NC371219  32.200  19.864   5.564
 5625POPC   PO471220  32.260  19.864   5.864
 5625POPC   GL171221  32.247  19.870   6.164
 5625POPC   GL271222  32.311  19.914   6.164
 5625POPC   C1A71223  32.237  19.830   6.464
 5625POPC   D2A71224  32.228  19.801   6.764
 5625POPC   C3A71225  32.214  19.871   7.064
 5625POPC   C4A71226  32.292  19.863   7.364
 5625POPC   C1B71227  32.493  19.939   6.464
 5625POPC   C2B71228  32.440  20.002   6.764
 5625POPC   C3B71229  32.434  20.004   7.064
 5625POPC   C4B71230  32.411  20.024   7.364
 5626POPC   NC371231  22.944  30.714   5.564
 5626POPC   PO471232  22.949  30.679   5.864
 5626POPC   GL171233  22.940  30.649   6.164
 5626POPC   GL271234  23.002  30.748   6.164
 5626POPC   C1A71235  22.917  30.724   6.464
 5626POPC   D2A71236  22.919  30.697   6.764
 5626POPC   C3A71237  22.922  30.712   7.064
 5626POPC   C4A71238  22.896  30.713   7.364
 5626POPC   C1B71239  23.207  30.811   6.464
 5626POPC   C2B71240  23.124  30.814   6.764
 5626POPC   C3B71241  23.132  30.854   7.064
 5626POPC   C4B71242  23.150  30.800   7.364
 5627POPC   NC371243  31.508  22.169   5.564
 5627POPC   PO471244  31.451  22.199   5.864
 5627POPC   GL171245  31.435  22.166   6.164
 5627POPC   GL271246  31.411  22.288   6.164
 5627POPC   C1A71247  31.497  22.206   6.464
 5627POPC   D2A71248  31.476  22.122   6.764
 5627POPC   C3A71249  31.486  22.118   7.064
 5627POPC   C4A71250  31.451  22.182   7.364
 5627POPC   C1B71251  31.306  22.378   6.464
 5627POPC   C2B71252  31.301  22.351   6.764
 5627POPC   C3B71253  31.351  22.338   7.064
 5627POPC   C4B71254  31.270  22.366   7.364
 5628POPC   NC371255   7.456  40.022   5.564
 5628POPC   PO471256   7.378  40.033   5.864
 5628POPC   GL171257   7.397  40.034   6.164
 5628POPC   GL271258   7.517  40.156   6.164
 5628POPC   C1A71259   7.452  39.971   6.464
 5628POPC   D2A71260   7.377  40.021   6.764
 5628POPC   C3A71261   7.398  39.985   7.064
 5628POPC   C4A71262   7.439  39.983   7.364
 5628POPC   C1B71263   7.541  40.226   6.464
 5628POPC   C2B71264   7.611  40.184   6.764
 5628POPC   C3B71265   7.604  40.249   7.064
 5628POPC   C4B71266   7.544  40.175   7.364
 5629POPC   NC371267  34.541  22.940   5.564
 5629POPC   PO471268  34.528  22.949   5.864
 5629POPC   GL171269  34.610  22.905   6.164
 5629POPC   GL271270  34.604  22.801   6.164
 5629POPC   C1A71271  34.548  22.931   6.464
 5629POPC   D2A71272  34.592  22.979   6.764
 5629POPC   C3A71273  34.543  22.906   7.064
 5629POPC   C4A71274  34.566  22.908   7.364
 5629POPC   C1B71275  34.523  22.657   6.464
 5629POPC   C2B71276  34.518  22.678   6.764
 5629POPC   C3B71277  34.526  22.689   7.064
 5629POPC   C4B71278  34.538  22.694   7.364
 5630POPC   NC371279  11.255   3.529   5.564
 5630POPC   PO471280  11.279   3.498   5.864
 5630POPC   GL171281  11.289   3.529   6.164
 5630POPC   GL271282  11.400   3.499   6.164
 5630POPC   C1A71283  11.291   3.517   6.464
 5630POPC   D2A71284  11.345   3.542   6.764
 5630POPC   C3A71285  11.320   3.527   7.064
 5630POPC   C4A71286  11.313   3.585   7.364
 5630POPC   C1B71287  11.568   3.503   6.464
 5630POPC   C2B71288  11.520   3.521   6.764
 5630POPC   C3B71289  11.599   3.558   7.064
 5630POPC   C4B71290  11.513   3.526   7.364
 5631POPC   NC371291  18.251  37.678   5.564
 5631POPC   PO471292  18.273  37.716   5.864
 5631POPC   GL171293  18.285  37.695   6.164
 5631POPC   GL271294  18.244  37.586   6.164
 5631POPC   C1A71295  18.292  37.697   6.464
 5631POPC   D2A71296  18.327  37.635   6.764
 5631POPC   C3A71297  18.279  37.664   7.064
 5631POPC   C4A71298  18.248  37.646   7.364
 5631POPC   C1B71299  18.191  37.388   6.464
 5631POPC   C2B71300  18.181  37.474   6.764
 5631POPC   C3B71301  18.268  37.431   7.064
 5631POPC   C4B71302  18.188  37.434   7.364
 5632POPC   NC371303  31.441   9.791   5.564
 5632POPC   PO471304  31.492   9.718   5.864
 5632POPC   GL171305  31.439   9.732   6.164
 5632POPC   GL271306  31.382   9.623   6.164
 5632POPC   C1A71307  31.508   9.778   6.464
 5632POPC   D2A71308  31.509   9.715   6.764
 5632POPC   C3A71309  31.468   9.749   7.064
 5632POPC   C4A71310  31.493   9.732   7.364
 5632POPC   C1B71311  31.339   9.599   6.464
 5632POPC   C2B71312  31.332   9.585   6.764
 5632POPC   C3B71313  31.303   9.572   7.064
 5632POPC   C4B71314  31.263   9.613   7.364
 5633POPC   NC371315  16.758  39.187   5.564
 5633POPC   PO471316  16.775  39.199   5.864
 5633POPC   GL171317  16.774  39.248   6.164
 5633POPC   GL271318  16.568  39.188   6.164
 5633POPC   C1A71319  16.781  39.220   6.464
 5633POPC   D2A71320  16.777  39.255   6.764
 5633POPC   C3A71321  16.707  39.267   7.064
 5633POPC   C4A71322  16.714  39.213   7.364
 5633POPC   C1B71323  16.521  39.131   6.464
 5633POPC   C2B71324  16.530  39.200   6.764
 5633POPC   C3B71325  16.478  39.179   7.064
 5633POPC   C4B71326  16.478  39.177   7.364
 5634POPC   NC371327  12.101   2.017   5.564
 5634POPC   PO471328  12.040   2.026   5.864
 5634POPC   GL171329  12.049   1.962   6.164
 5634POPC   GL271330  12.167   2.023   6.164
 5634POPC   C1A71331  12.070   1.955   6.464
 5634POPC   D2A71332  12.077   2.010   6.764
 5634POPC   C3A71333  12.059   2.033   7.064
 5634POPC   C4A71334  12.059   1.958   7.364
 5634POPC   C1B71335  12.300   2.079   6.464
 5634POPC   C2B71336  12.328   2.080   6.764
 5634POPC   C3B71337  12.347   2.095   7.064
 5634POPC   C4B71338  12.339   2.030   7.364
 5635POPC   NC371339   8.169  31.436   5.564
 5635POPC   PO471340   8.241  31.471   5.864
 5635POPC   GL171341   8.163  31.436   6.164
 5635POPC   GL271342   8.275  31.448   6.164
 5635POPC   C1A71343   8.214  31.497   6.464
 5635POPC   D2A71344   8.205  31.468   6.764
 5635POPC   C3A71345   8.156  31.459   7.064
 5635POPC   C4A71346   8.167  31.438   7.364
 5635POPC   C1B71347   8.433  31.404   6.464
 5635POPC   C2B71348   8.456  31.465   6.764
 5635POPC   C3B71349   8.451  31.463   7.064
 5635POPC   C4B71350   8.449  31.471   7.364
 5636POPC   NC371351  27.588  18.327   5.564
 5636POPC   PO471352  27.630  18.255   5.864
 5636POPC   GL171353  27.618  18.245   6.164
 5636POPC   GL271354  27.597  18.118   6.164
 5636POPC   C1A71355  27.589  18.297   6.464
 5636POPC   D2A71356  27.573  18.321   6.764
 5636POPC   C3A71357  27.564  18.264   7.064
 5636POPC   C4A71358  27.580  18.307   7.364
 5636POPC   C1B71359  27.504  18.039   6.464
 5636POPC   C2B71360  27.466  18.041   6.764
 5636POPC   C3B71361  27.501  18.060   7.064
 5636POPC   C4B71362  27.498  18.067   7.364
 5637POPC   NC371363  30.671   7.458   5.564
 5637POPC   PO471364  30.681   7.380   5.864
 5637POPC   GL171365  30.713   7.411   6.164
 5637POPC   GL271366  30.718   7.584   6.164
 5637POPC   C1A71367  30.698   7.460   6.464
 5637POPC   D2A71368  30.681   7.465   6.764
 5637POPC   C3A71369  30.728   7.431   7.064
 5637POPC   C4A71370  30.744   7.402   7.364
 5637POPC   C1B71371  30.775   7.648   6.464
 5637POPC   C2B71372  30.749   7.682   6.764
 5637POPC   C3B71373  30.765   7.648   7.064
 5637POPC   C4B71374  30.755   7.631   7.364
 5638POPC   NC371375  44.699  39.207   5.564
 5638POPC   PO471376  44.625  39.215   5.864
 5638POPC   GL171377  44.700  39.222   6.164
 5638POPC   GL271378  44.508  39.232   6.164
 5638POPC   C1A71379  44.667  39.196   6.464
 5638POPC   D2A71380  44.687  39.230   6.764
 5638POPC   C3A71381  44.660  39.233   7.064
 5638POPC   C4A71382  44.630  39.220   7.364
 5638POPC   C1B71383  44.419  39.117   6.464
 5638POPC   C2B71384  44.415  39.198   6.764
 5638POPC   C3B71385  44.466  39.135   7.064
 5638POPC   C4B71386  44.416  39.196   7.364
 5639POPC   NC371387   6.626  24.449   5.564
 5639POPC   PO471388   6.602  24.533   5.864
 5639POPC   GL171389   6.608  24.531   6.164
 5639POPC   GL271390   6.754  24.510   6.164
 5639POPC   C1A71391   6.660  24.495   6.464
 5639POPC   D2A71392   6.625  24.514   6.764
 5639POPC   C3A71393   6.639  24.450   7.064
 5639POPC   C4A71394   6.677  24.493   7.364
 5639POPC   C1B71395   6.888  24.498   6.464
 5639POPC   C2B71396   6.932  24.560   6.764
 5639POPC   C3B71397   6.853  24.521   7.064
 5639POPC   C4B71398   6.928  24.462   7.364
 5640POPC   NC371399  44.679  34.566   5.564
 5640POPC   PO471400  44.707  34.535   5.864
 5640POPC   GL171401  44.618  34.528   6.164
 5640POPC   GL271402  44.827  34.659   6.164
 5640POPC   C1A71403  44.644  34.619   6.464
 5640POPC   D2A71404  44.631  34.618   6.764
 5640POPC   C3A71405  44.702  34.616   7.064
 5640POPC   C4A71406  44.621  34.531   7.364
 5640POPC   C1B71407  44.932  34.625   6.464
 5640POPC   C2B71408  44.926  34.629   6.764
 5640POPC   C3B71409  44.933  34.704   7.064
 5640POPC   C4B71410  44.940  34.683   7.364
 5641POPC   NC371411  26.820  12.839   5.564
 5641POPC   PO471412  26.819  12.860   5.864
 5641POPC   GL171413  26.866  12.853   6.164
 5641POPC   GL271414  26.899  13.015   6.164
 5641POPC   C1A71415  26.774  12.859   6.464
 5641POPC   D2A71416  26.778  12.834   6.764
 5641POPC   C3A71417  26.799  12.858   7.064
 5641POPC   C4A71418  26.772  12.845   7.364
 5641POPC   C1B71419  26.869  13.137   6.464
 5641POPC   C2B71420  26.901  13.049   6.764
 5641POPC   C3B71421  26.848  13.138   7.064
 5641POPC   C4B71422  26.925  13.045   7.364
 5642POPC   NC371423  15.949  21.435   5.564
 5642POPC   PO471424  15.927  21.358   5.864
 5642POPC   GL171425  15.975  21.359   6.164
 5642POPC   GL271426  15.987  21.522   6.164
 5642POPC   C1A71427  15.970  21.361   6.464
 5642POPC   D2A71428  15.950  21.384   6.764
 5642POPC   C3A71429  15.922  21.353   7.064
 5642POPC   C4A71430  15.926  21.340   7.364
 5642POPC   C1B71431  15.966  21.631   6.464
 5642POPC   C2B71432  15.983  21.598   6.764
 5642POPC   C3B71433  15.979  21.675   7.064
 5642POPC   C4B71434  15.969  21.611   7.364
 5643POPC   NC371435   1.248  32.236   5.564
 5643POPC   PO471436   1.243  32.228   5.864
 5643POPC   GL171437   1.216  32.206   6.164
 5643POPC   GL271438   1.198  32.111   6.164
 5643POPC   C1A71439   1.188  32.232   6.464
 5643POPC   D2A71440   1.174  32.237   6.764
 5643POPC   C3A71441   1.198  32.288   7.064
 5643POPC   C4A71442   1.214  32.293   7.364
 5643POPC   C1B71443   1.230  32.008   6.464
 5643POPC   C2B71444   1.237  31.955   6.764
 5643POPC   C3B71445   1.214  32.046   7.064
 5643POPC   C4B71446   1.186  32.023   7.364
 5644POPC   NC371447  30.677   0.403   5.564
 5644POPC   PO471448  30.724   0.417   5.864
 5644POPC   GL171449  30.724   0.442   6.164
 5644POPC   GL271450  30.598   0.529   6.164
 5644POPC   C1A71451  30.705   0.406   6.464
 5644POPC   D2A71452  30.735   0.446   6.764
 5644POPC   C3A71453  30.707   0.487   7.064
 5644POPC   C4A71454  30.733   0.455   7.364
 5644POPC   C1B71455  30.538   0.621   6.464
 5644POPC   C2B71456  30.504   0.585   6.764
 5644POPC   C3B71457  30.477   0.609   7.064
 5644POPC   C4B71458  30.500   0.627   7.364
 5645POPC   NC371459  14.437   1.943   5.564
 5645POPC   PO471460  14.373   2.018   5.864
 5645POPC   GL171461  14.434   2.008   6.164
 5645POPC   GL271462  14.319   2.015   6.164
 5645POPC   C1A71463  14.418   1.963   6.464
 5645POPC   D2A71464  14.388   1.953   6.764
 5645POPC   C3A71465  14.372   2.020   7.064
 5645POPC   C4A71466  14.453   1.989   7.364
 5645POPC   C1B71467  14.194   2.057   6.464
 5645POPC   C2B71468  14.195   2.074   6.764
 5645POPC   C3B71469  14.214   2.106   7.064
 5645POPC   C4B71470  14.149   2.145   7.364
 5646POPC   NC371471  44.688  43.074   5.564
 5646POPC   PO471472  44.618  43.098   5.864
 5646POPC   GL171473  44.619  43.159   6.164
 5646POPC   GL271474  44.732  42.979   6.164
 5646POPC   C1A71475  44.636  43.154   6.464
 5646POPC   D2A71476  44.692  43.087   6.764
 5646POPC   C3A71477  44.647  43.085   7.064
 5646POPC   C4A71478  44.635  43.134   7.364
 5646POPC   C1B71479  44.737  42.915   6.464
 5646POPC   C2B71480  44.769  42.888   6.764
 5646POPC   C3B71481  44.758  42.825   7.064
 5646POPC   C4B71482  44.759  42.871   7.364
 5647POPC   NC371483  44.703  41.573   5.564
 5647POPC   PO471484  44.692  41.562   5.864
 5647POPC   GL171485  44.634  41.593   6.164
 5647POPC   GL271486  44.624  41.675   6.164
 5647POPC   C1A71487  44.644  41.531   6.464
 5647POPC   D2A71488  44.614  41.550   6.764
 5647POPC   C3A71489  44.704  41.541   7.064
 5647POPC   C4A71490  44.709  41.573   7.364
 5647POPC   C1B71491  44.684  41.789   6.464
 5647POPC   C2B71492  44.713  41.786   6.764
 5647POPC   C3B71493  44.669  41.855   7.064
 5647POPC   C4B71494  44.650  41.760   7.364
 5648POPC   NC371495  24.504  30.679   5.564
 5648POPC   PO471496  24.501  30.649   5.864
 5648POPC   GL171497  24.460  30.670   6.164
 5648POPC   GL271498  24.509  30.577   6.164
 5648POPC   C1A71499  24.475  30.650   6.464
 5648POPC   D2A71500  24.492  30.663   6.764
 5648POPC   C3A71501  24.460  30.716   7.064
 5648POPC   C4A71502  24.472  30.713   7.364
 5648POPC   C1B71503  24.566  30.460   6.464
 5648POPC   C2B71504  24.620  30.500   6.764
 5648POPC   C3B71505  24.586  30.430   7.064
 5648POPC   C4B71506  24.545  30.486   7.364
 5649POPC   NC371507  36.084  36.161   5.564
 5649POPC   PO471508  36.107  36.112   5.864
 5649POPC   GL171509  36.078  36.135   6.164
 5649POPC   GL271510  36.180  36.226   6.164
 5649POPC   C1A71511  36.080  36.083   6.464
 5649POPC   D2A71512  36.127  36.174   6.764
 5649POPC   C3A71513  36.157  36.167   7.064
 5649POPC   C4A71514  36.080  36.080   7.364
 5649POPC   C1B71515  36.178  36.403   6.464
 5649POPC   C2B71516  36.158  36.415   6.764
 5649POPC   C3B71517  36.200  36.398   7.064
 5649POPC   C4B71518  36.138  36.375   7.364
 5650POPC   NC371519  25.228  14.432   5.564
 5650POPC   PO471520  25.267  14.373   5.864
 5650POPC   GL171521  25.224  14.416   6.164
 5650POPC   GL271522  25.254  14.515   6.164
 5650POPC   C1A71523  25.249  14.425   6.464
 5650POPC   D2A71524  25.217  14.400   6.764
 5650POPC   C3A71525  25.262  14.389   7.064
 5650POPC   C4A71526  25.263  14.449   7.364
 5650POPC   C1B71527  25.183  14.607   6.464
 5650POPC   C2B71528  25.181  14.619   6.764
 5650POPC   C3B71529  25.154  14.664   7.064
 5650POPC   C4B71530  25.133  14.674   7.364
 5651POPC   NC371531  24.464  15.945   5.564
 5651POPC   PO471532  24.494  15.956   5.864
 5651POPC   GL171533  24.511  15.958   6.164
 5651POPC   GL271534  24.635  15.900   6.164
 5651POPC   C1A71535  24.442  15.928   6.464
 5651POPC   D2A71536  24.538  15.941   6.764
 5651POPC   C3A71537  24.510  16.002   7.064
 5651POPC   C4A71538  24.504  15.957   7.364
 5651POPC   C1B71539  24.678  15.780   6.464
 5651POPC   C2B71540  24.650  15.817   6.764
 5651POPC   C3B71541  24.651  15.841   7.064
 5651POPC   C4B71542  24.728  15.776   7.364
 5652POPC   NC371543  16.729  21.367   5.564
 5652POPC   PO471544  16.756  21.369   5.864
 5652POPC   GL171545  16.704  21.360   6.164
 5652POPC   GL271546  16.634  21.352   6.164
 5652POPC   C1A71547  16.774  21.387   6.464
 5652POPC   D2A71548  16.746  21.346   6.764
 5652POPC   C3A71549  16.711  21.370   7.064
 5652POPC   C4A71550  16.761  21.345   7.364
 5652POPC   C1B71551  16.525  21.384   6.464
 5652POPC   C2B71552  16.501  21.355   6.764
 5652POPC   C3B71553  16.469  21.330   7.064
 5652POPC   C4B71554  16.510  21.368   7.364
 5653POPC   NC371555  38.432  12.066   5.564
 5653POPC   PO471556  38.434  12.101   5.864
 5653POPC   GL171557  38.459  12.058   6.164
 5653POPC   GL271558  38.365  11.963   6.164
 5653POPC   C1A71559  38.470  12.090   6.464
 5653POPC   D2A71560  38.475  12.086   6.764
 5653POPC   C3A71561  38.447  12.058   7.064
 5653POPC   C4A71562  38.481  12.087   7.364
 5653POPC   C1B71563  38.282  11.913   6.464
 5653POPC   C2B71564  38.282  11.886   6.764
 5653POPC   C3B71565  38.318  11.911   7.064
 5653POPC   C4B71566  38.290  11.880   7.364
 5654POPC   NC371567  32.981   5.864   5.564
 5654POPC   PO471568  33.067   5.843   5.864
 5654POPC   GL171569  32.975   5.871   6.164
 5654POPC   GL271570  33.182   5.927   6.164
 5654POPC   C1A71571  33.061   5.827   6.464
 5654POPC   D2A71572  32.981   5.879   6.764
 5654POPC   C3A71573  33.030   5.866   7.064
 5654POPC   C4A71574  33.072   5.874   7.364
 5654POPC   C1B71575  33.243   6.008   6.464
 5654POPC   C2B71576  33.299   5.951   6.764
 5654POPC   C3B71577  33.258   5.943   7.064
 5654POPC   C4B71578  33.222   5.949   7.364
 5655POPC   NC371579  32.283  42.296   5.564
 5655POPC   PO471580  32.208  42.364   5.864
 5655POPC   GL171581  32.226  42.328   6.164
 5655POPC   GL271582  32.338  42.435   6.164
 5655POPC   C1A71583  32.249  42.331   6.464
 5655POPC   D2A71584  32.270  42.317   6.764
 5655POPC   C3A71585  32.214  42.333   7.064
 5655POPC   C4A71586  32.199  42.323   7.364
 5655POPC   C1B71587  32.384  42.543   6.464
 5655POPC   C2B71588  32.407  42.499   6.764
 5655POPC   C3B71589  32.448  42.520   7.064
 5655POPC   C4B71590  32.397  42.487   7.364
 5656POPC   NC371591   8.211  41.522   5.564
 5656POPC   PO471592   8.231  41.525   5.864
 5656POPC   GL171593   8.156  41.607   6.164
 5656POPC   GL271594   8.091  41.672   6.164
 5656POPC   C1A71595   8.179  41.597   6.464
 5656POPC   D2A71596   8.239  41.525   6.764
 5656POPC   C3A71597   8.161  41.594   7.064
 5656POPC   C4A71598   8.234  41.575   7.364
 5656POPC   C1B71599   8.049  41.793   6.464
 5656POPC   C2B71600   8.018  41.746   6.764
 5656POPC   C3B71601   8.096  41.781   7.064
 5656POPC   C4B71602   8.090  41.723   7.364
 5657POPC   NC371603   1.242  36.100   5.564
 5657POPC   PO471604   1.229  36.131   5.864
 5657POPC   GL171605   1.201  36.158   6.164
 5657POPC   GL271606   1.152  35.982   6.164
 5657POPC   C1A71607   1.165  36.167   6.464
 5657POPC   D2A71608   1.261  36.086   6.764
 5657POPC   C3A71609   1.236  36.096   7.064
 5657POPC   C4A71610   1.195  36.163   7.364
 5657POPC   C1B71611   1.058  35.924   6.464
 5657POPC   C2B71612   1.121  35.936   6.764
 5657POPC   C3B71613   1.148  35.929   7.064
 5657POPC   C4B71614   1.129  35.896   7.364
 5658POPC   NC371615  12.889  32.266   5.564
 5658POPC   PO471616  12.807  32.271   5.864
 5658POPC   GL171617  12.902  32.212   6.164
 5658POPC   GL271618  12.824  32.109   6.164
 5658POPC   C1A71619  12.849  32.294   6.464
 5658POPC   D2A71620  12.862  32.213   6.764
 5658POPC   C3A71621  12.866  32.236   7.064
 5658POPC   C4A71622  12.804  32.286   7.364
 5658POPC   C1B71623  12.784  32.032   6.464
 5658POPC   C2B71624  12.748  32.008   6.764
 5658POPC   C3B71625  12.791  32.059   7.064
 5658POPC   C4B71626  12.761  32.016   7.364
 5659POPC   NC371627  19.847  15.198   5.564
 5659POPC   PO471628  19.786  15.214   5.864
 5659POPC   GL171629  19.800  15.199   6.164
 5659POPC   GL271630  19.933  15.308   6.164
 5659POPC   C1A71631  19.824  15.175   6.464
 5659POPC   D2A71632  19.853  15.220   6.764
 5659POPC   C3A71633  19.859  15.142   7.064
 5659POPC   C4A71634  19.873  15.178   7.364
 5659POPC   C1B71635  19.920  15.361   6.464
 5659POPC   C2B71636  19.989  15.360   6.764
 5659POPC   C3B71637  19.954  15.413   7.064
 5659POPC   C4B71638  19.918  15.379   7.364
 5660POPC   NC371639  33.015  40.052   5.564
 5660POPC   PO471640  33.018  40.039   5.864
 5660POPC   GL171641  32.998  40.033   6.164
 5660POPC   GL271642  32.908  39.981   6.164
 5660POPC   C1A71643  33.057  39.985   6.464
 5660POPC   D2A71644  32.996  39.998   6.764
 5660POPC   C3A71645  33.018  39.958   7.064
 5660POPC   C4A71646  33.002  39.983   7.364
 5660POPC   C1B71647  32.775  40.042   6.464
 5660POPC   C2B71648  32.771  40.043   6.764
 5660POPC   C3B71649  32.751  40.025   7.064
 5660POPC   C4B71650  32.755  40.039   7.364
 5661POPC   NC371651  17.537   9.784   5.564
 5661POPC   PO471652  17.483   9.721   5.864
 5661POPC   GL171653  17.505   9.742   6.164
 5661POPC   GL271654  17.485   9.603   6.164
 5661POPC   C1A71655  17.504   9.779   6.464
 5661POPC   D2A71656  17.524   9.747   6.764
 5661POPC   C3A71657  17.476   9.731   7.064
 5661POPC   C4A71658  17.535   9.778   7.364
 5661POPC   C1B71659  17.555   9.492   6.464
 5661POPC   C2B71660  17.586   9.475   6.764
 5661POPC   C3B71661  17.557   9.522   7.064
 5661POPC   C4B71662  17.535   9.497   7.364
 5662POPC   NC371663  39.270  43.155   5.564
 5662POPC   PO471664  39.207  43.158   5.864
 5662POPC   GL171665  39.257  43.154   6.164
 5662POPC   GL271666  39.142  43.153   6.164
 5662POPC   C1A71667  39.185  43.150   6.464
 5662POPC   D2A71668  39.244  43.083   6.764
 5662POPC   C3A71669  39.205  43.151   7.064
 5662POPC   C4A71670  39.209  43.144   7.364
 5662POPC   C1B71671  39.069  43.288   6.464
 5662POPC   C2B71672  39.054  43.317   6.764
 5662POPC   C3B71673  39.042  43.274   7.064
 5662POPC   C4B71674  39.059  43.272   7.364
 5663POPC   NC371675   0.414  30.660   5.564
 5663POPC   PO471676   0.469  30.703   5.864
 5663POPC   GL171677   0.453  30.679   6.164
 5663POPC   GL271678   0.385  30.812   6.164
 5663POPC   C1A71679   0.393  30.689   6.464
 5663POPC   D2A71680   0.395  30.700   6.764
 5663POPC   C3A71681   0.435  30.699   7.064
 5663POPC   C4A71682   0.483  30.731   7.364
 5663POPC   C1B71683   0.481  30.930   6.464
 5663POPC   C2B71684   0.477  30.900   6.764
 5663POPC   C3B71685   0.405  30.906   7.064
 5663POPC   C4B71686   0.436  30.987   7.364
 5664POPC   NC371687   8.977  30.732   5.564
 5664POPC   PO471688   9.021  30.647   5.864
 5664POPC   GL171689   9.022  30.706   6.164
 5664POPC   GL271690   9.032  30.642   6.164
 5664POPC   C1A71691   8.973  30.707   6.464
 5664POPC   D2A71692   9.000  30.692   6.764
 5664POPC   C3A71693   8.936  30.668   7.064
 5664POPC   C4A71694   9.002  30.735   7.364
 5664POPC   C1B71695   9.162  30.505   6.464
 5664POPC   C2B71696   9.177  30.522   6.764
 5664POPC   C3B71697   9.170  30.496   7.064
 5664POPC   C4B71698   9.205  30.540   7.364
 5665POPC   NC371699   3.556  15.985   5.564
 5665POPC   PO471700   3.574  16.000   5.864
 5665POPC   GL171701   3.553  15.976   6.164
 5665POPC   GL271702   3.695  15.945   6.164
 5665POPC   C1A71703   3.515  15.981   6.464
 5665POPC   D2A71704   3.563  15.982   6.764
 5665POPC   C3A71705   3.582  15.945   7.064
 5665POPC   C4A71706   3.516  15.932   7.364
 5665POPC   C1B71707   3.806  15.832   6.464
 5665POPC   C2B71708   3.730  15.827   6.764
 5665POPC   C3B71709   3.733  15.835   7.064
 5665POPC   C4B71710   3.769  15.896   7.364
 5666POPC   NC371711  19.813   2.733   5.564
 5666POPC   PO471712  19.829   2.801   5.864
 5666POPC   GL171713  19.880   2.813   6.164
 5666POPC   GL271714  19.914   2.631   6.164
 5666POPC   C1A71715  19.803   2.770   6.464
 5666POPC   D2A71716  19.836   2.793   6.764
 5666POPC   C3A71717  19.827   2.805   7.064
 5666POPC   C4A71718  19.787   2.733   7.364
 5666POPC   C1B71719  19.902   2.494   6.464
 5666POPC   C2B71720  19.974   2.570   6.764
 5666POPC   C3B71721  19.972   2.490   7.064
 5666POPC   C4B71722  19.888   2.497   7.364
 5667POPC   NC371723  12.818   6.662   5.564
 5667POPC   PO471724  12.879   6.602   5.864
 5667POPC   GL171725  12.887   6.671   6.164
 5667POPC   GL271726  13.019   6.688   6.164
 5667POPC   C1A71727  12.823   6.677   6.464
 5667POPC   D2A71728  12.808   6.674   6.764
 5667POPC   C3A71729  12.821   6.694   7.064
 5667POPC   C4A71730  12.823   6.610   7.364
 5667POPC   C1B71731  13.142   6.713   6.464
 5667POPC   C2B71732  13.089   6.693   6.764
 5667POPC   C3B71733  13.075   6.668   7.064
 5667POPC   C4B71734  13.094   6.692   7.364
 5668POPC   NC371735  17.468   2.002   5.564
 5668POPC   PO471736  17.522   2.029   5.864
 5668POPC   GL171737  17.480   1.981   6.164
 5668POPC   GL271738  17.409   1.887   6.164
 5668POPC   C1A71739  17.537   2.000   6.464
 5668POPC   D2A71740  17.519   2.007   6.764
 5668POPC   C3A71741  17.553   1.993   7.064
 5668POPC   C4A71742  17.497   2.027   7.364
 5668POPC   C1B71743  17.357   1.813   6.464
 5668POPC   C2B71744  17.363   1.868   6.764
 5668POPC   C3B71745  17.325   1.832   7.064
 5668POPC   C4B71746  17.308   1.814   7.364
 5669POPC   NC371747  10.502   2.729   5.564
 5669POPC   PO471748  10.532   2.750   5.864
 5669POPC   GL171749  10.507   2.772   6.164
 5669POPC   GL271750  10.420   2.730   6.164
 5669POPC   C1A71751  10.517   2.744   6.464
 5669POPC   D2A71752  10.499   2.765   6.764
 5669POPC   C3A71753  10.556   2.782   7.064
 5669POPC   C4A71754  10.542   2.803   7.364
 5669POPC   C1B71755  10.311   2.564   6.464
 5669POPC   C2B71756  10.364   2.592   6.764
 5669POPC   C3B71757  10.285   2.586   7.064
 5669POPC   C4B71758  10.341   2.566   7.364
 5670POPC   NC371759   2.033  15.144   5.564
 5670POPC   PO471760   1.997  15.226   5.864
 5670POPC   GL171761   2.014  15.140   6.164
 5670POPC   GL271762   2.085  15.203   6.164
 5670POPC   C1A71763   1.989  15.206   6.464
 5670POPC   D2A71764   1.945  15.209   6.764
 5670POPC   C3A71765   1.982  15.213   7.064
 5670POPC   C4A71766   1.948  15.224   7.364
 5670POPC   C1B71767   2.248  15.292   6.464
 5670POPC   C2B71768   2.214  15.264   6.764
 5670POPC   C3B71769   2.245  15.335   7.064
 5670POPC   C4B71770   2.178  15.326   7.364
 5671POPC   NC371771  28.400   5.133   5.564
 5671POPC   PO471772  28.404   5.069   5.864
 5671POPC   GL171773  28.365   5.052   6.164
 5671POPC   GL271774  28.304   5.179   6.164
 5671POPC   C1A71775  28.326   5.125   6.464
 5671POPC   D2A71776  28.396   5.064   6.764
 5671POPC   C3A71777  28.399   5.059   7.064
 5671POPC   C4A71778  28.401   5.059   7.364
 5671POPC   C1B71779  28.151   5.204   6.464
 5671POPC   C2B71780  28.133   5.189   6.764
 5671POPC   C3B71781  28.154   5.250   7.064
 5671POPC   C4B71782  28.196   5.207   7.364
 5672POPC   NC371783  24.443  32.238   5.564
 5672POPC   PO471784  24.475  32.252   5.864
 5672POPC   GL171785  24.490  32.231   6.164
 5672POPC   GL271786  24.398  32.212   6.164
 5672POPC   C1A71787  24.504  32.271   6.464
 5672POPC   D2A71788  24.506  32.270   6.764
 5672POPC   C3A71789  24.477  32.205   7.064
 5672POPC   C4A71790  24.485  32.254   7.364
 5672POPC   C1B71791  24.297  32.118   6.464
 5672POPC   C2B71792  24.300  32.079   6.764
 5672POPC   C3B71793  24.244  32.107   7.064
 5672POPC   C4B71794  24.236  32.134   7.364
 5673POPC   NC371795  32.295  10.531   5.564
 5673POPC   PO471796  32.231  10.550   5.864
 5673POPC   GL171797  32.247  10.544   6.164
 5673POPC   GL271798  32.231  10.418   6.164
 5673POPC   C1A71799  32.248  10.539   6.464
 5673POPC   D2A71800  32.273  10.501   6.764
 5673POPC   C3A71801  32.208  10.494   7.064
 5673POPC   C4A71802  32.289  10.499   7.364
 5673POPC   C1B71803  32.260  10.242   6.464
 5673POPC   C2B71804  32.290  10.320   6.764
 5673POPC   C3B71805  32.243  10.264   7.064
 5673POPC   C4B71806  32.255  10.232   7.364
 5674POPC   NC371807  29.918  21.383   5.564
 5674POPC   PO471808  29.906  21.391   5.864
 5674POPC   GL171809  29.938  21.413   6.164
 5674POPC   GL271810  29.836  21.542   6.164
 5674POPC   C1A71811  29.886  21.412   6.464
 5674POPC   D2A71812  29.966  21.406   6.764
 5674POPC   C3A71813  29.928  21.412   7.064
 5674POPC   C4A71814  29.897  21.406   7.364
 5674POPC   C1B71815  29.869  21.659   6.464
 5674POPC   C2B71816  29.827  21.568   6.764
 5674POPC   C3B71817  29.870  21.665   7.064
 5674POPC   C4B71818  29.842  21.622   7.364
 5675POPC   NC371819  19.105  37.709   5.564
 5675POPC   PO471820  19.107  37.674   5.864
 5675POPC   GL171821  19.106  37.708   6.164
 5675POPC   GL271822  18.966  37.746   6.164
 5675POPC   C1A71823  19.026  37.723   6.464
 5675POPC   D2A71824  19.078  37.681   6.764
 5675POPC   C3A71825  19.028  37.661   7.064
 5675POPC   C4A71826  19.038  37.646   7.364
 5675POPC   C1B71827  18.867  37.790   6.464
 5675POPC   C2B71828  18.898  37.818   6.764
 5675POPC   C3B71829  18.852  37.777   7.064
 5675POPC   C4B71830  18.872  37.861   7.364
 5676POPC   NC371831   8.960   3.580   5.564
 5676POPC   PO471832   8.964   3.491   5.864
 5676POPC   GL171833   8.932   3.548   6.164
 5676POPC   GL271834   9.075   3.477   6.164
 5676POPC   C1A71835   8.953   3.572   6.464
 5676POPC   D2A71836   8.959   3.492   6.764
 5676POPC   C3A71837   8.964   3.530   7.064
 5676POPC   C4A71838   8.952   3.563   7.364
 5676POPC   C1B71839   9.073   3.303   6.464
 5676POPC   C2B71840   9.038   3.341   6.764
 5676POPC   C3B71841   9.127   3.358   7.064
 5676POPC   C4B71842   9.116   3.298   7.364
 5677POPC   NC371843  23.712  41.523   5.564
 5677POPC   PO471844  23.739  41.511   5.864
 5677POPC   GL171845  23.750  41.525   6.164
 5677POPC   GL271846  23.638  41.643   6.164
 5677POPC   C1A71847  23.762  41.529   6.464
 5677POPC   D2A71848  23.759  41.570   6.764
 5677POPC   C3A71849  23.724  41.530   7.064
 5677POPC   C4A71850  23.739  41.602   7.364
 5677POPC   C1B71851  23.574  41.776   6.464
 5677POPC   C2B71852  23.574  41.709   6.764
 5677POPC   C3B71853  23.601  41.704   7.064
 5677POPC   C4B71854  23.544  41.752   7.364
 5678POPC   NC371855  11.311  27.637   5.564
 5678POPC   PO471856  11.268  27.594   5.864
 5678POPC   GL171857  11.312  27.559   6.164
 5678POPC   GL271858  11.182  27.547   6.164
 5678POPC   C1A71859  11.267  27.612   6.464
 5678POPC   D2A71860  11.257  27.544   6.764
 5678POPC   C3A71861  11.311  27.621   7.064
 5678POPC   C4A71862  11.324  27.578   7.364
 5678POPC   C1B71863  11.044  27.511   6.464
 5678POPC   C2B71864  11.004  27.578   6.764
 5678POPC   C3B71865  11.053  27.544   7.064
 5678POPC   C4B71866  11.076  27.554   7.364
 5679POPC   NC371867  44.704  26.066   5.564
 5679POPC   PO471868  44.634  26.090   5.864
 5679POPC   GL171869  44.682  26.016   6.164
 5679POPC   GL271870  44.607  25.968   6.164
 5679POPC   C1A71871  44.702  26.079   6.464
 5679POPC   D2A71872  44.642  25.995   6.764
 5679POPC   C3A71873  44.666  26.014   7.064
 5679POPC   C4A71874  44.651  26.001   7.364
 5679POPC   C1B71875  44.479  25.840   6.464
 5679POPC   C2B71876  44.463  25.850   6.764
 5679POPC   C3B71877  44.442  25.883   7.064
 5679POPC   C4B71878  44.523  25.913   7.364
 5680POPC   NC371879  12.899  20.579   5.564
 5680POPC   PO471880  12.813  20.628   5.864
 5680POPC   GL171881  12.869  20.596   6.164
 5680POPC   GL271882  12.943  20.599   6.164
 5680POPC   C1A71883  12.895  20.599   6.464
 5680POPC   D2A71884  12.893  20.643   6.764
 5680POPC   C3A71885  12.825  20.603   7.064
 5680POPC   C4A71886  12.827  20.601   7.364
 5680POPC   C1B71887  13.087  20.614   6.464
 5680POPC   C2B71888  13.113  20.602   6.764
 5680POPC   C3B71889  13.085  20.594   7.064
 5680POPC   C4B71890  13.061  20.564   7.364
 5681POPC   NC371891  31.481  27.625   5.564
 5681POPC   PO471892  31.511  27.586   5.864
 5681POPC   GL171893  31.426  27.549   6.164
 5681POPC   GL271894  31.428  27.445   6.164
 5681POPC   C1A71895  31.484  27.554   6.464
 5681POPC   D2A71896  31.457  27.552   6.764
 5681POPC   C3A71897  31.483  27.575   7.064
 5681POPC   C4A71898  31.430  27.570   7.364
 5681POPC   C1B71899  31.329  27.403   6.464
 5681POPC   C2B71900  31.288  27.367   6.764
 5681POPC   C3B71901  31.295  27.404   7.064
 5681POPC   C4B71902  31.373  27.440   7.364
 5682POPC   NC371903   9.727  21.364   5.564
 5682POPC   PO471904   9.736  21.340   5.864
 5682POPC   GL171905   9.782  21.368   6.164
 5682POPC   GL271906   9.708  21.309   6.164
 5682POPC   C1A71907   9.744  21.364   6.464
 5682POPC   D2A71908   9.731  21.392   6.764
 5682POPC   C3A71909   9.790  21.360   7.064
 5682POPC   C4A71910   9.780  21.423   7.364
 5682POPC   C1B71911   9.713  21.150   6.464
 5682POPC   C2B71912   9.745  21.167   6.764
 5682POPC   C3B71913   9.758  21.118   7.064
 5682POPC   C4B71914   9.798  21.142   7.364
 5683POPC   NC371915   5.052  24.522   5.564
 5683POPC   PO471916   5.056  24.486   5.864
 5683POPC   GL171917   5.081  24.481   6.164
 5683POPC   GL271918   4.972  24.442   6.164
 5683POPC   C1A71919   5.137  24.463   6.464
 5683POPC   D2A71920   5.080  24.452   6.764
 5683POPC   C3A71921   5.126  24.500   7.064
 5683POPC   C4A71922   5.053  24.521   7.364
 5683POPC   C1B71923   4.865  24.419   6.464
 5683POPC   C2B71924   4.840  24.499   6.764
 5683POPC   C3B71925   4.890  24.504   7.064
 5683POPC   C4B71926   4.810  24.470   7.364
 5684POPC   NC371927  23.683  10.548   5.564
 5684POPC   PO471928  23.722  10.542   5.864
 5684POPC   GL171929  23.720  10.490   6.164
 5684POPC   GL271930  23.852  10.576   6.164
 5684POPC   C1A71931  23.712  10.573   6.464
 5684POPC   D2A71932  23.706  10.520   6.764
 5684POPC   C3A71933  23.719  10.573   7.064
 5684POPC   C4A71934  23.668  10.543   7.364
 5684POPC   C1B71935  23.932  10.681   6.464
 5684POPC   C2B71936  23.919  10.669   6.764
 5684POPC   C3B71937  23.923  10.693   7.064
 5684POPC   C4B71938  23.882  10.662   7.364
 5685POPC   NC371939   6.644   8.925   5.564
 5685POPC   PO471940   6.596   9.014   5.864
 5685POPC   GL171941   6.634   8.958   6.164
 5685POPC   GL271942   6.722   8.891   6.164
 5685POPC   C1A71943   6.676   8.984   6.464
 5685POPC   D2A71944   6.691   8.955   6.764
 5685POPC   C3A71945   6.618   8.981   7.064
 5685POPC   C4A71946   6.680   8.998   7.364
 5685POPC   C1B71947   6.671   8.745   6.464
 5685POPC   C2B71948   6.666   8.700   6.764
 5685POPC   C3B71949   6.716   8.764   7.064
 5685POPC   C4B71950   6.713   8.700   7.364
 5686POPC   NC371951  22.124   5.900   5.564
 5686POPC   PO471952  22.134   5.912   5.864
 5686POPC   GL171953  22.161   5.902   6.164
 5686POPC   GL271954  22.104   5.799   6.164
 5686POPC   C1A71955  22.142   5.862   6.464
 5686POPC   D2A71956  22.201   5.881   6.764
 5686POPC   C3A71957  22.139   5.848   7.064
 5686POPC   C4A71958  22.124   5.844   7.364
 5686POPC   C1B71959  21.977   5.708   6.464
 5686POPC   C2B71960  21.942   5.738   6.764
 5686POPC   C3B71961  21.922   5.687   7.064
 5686POPC   C4B71962  21.998   5.687   7.364
 5687POPC   NC371963  43.102  26.812   5.564
 5687POPC   PO471964  43.133  26.824   5.864
 5687POPC   GL171965  43.062  26.859   6.164
 5687POPC   GL271966  43.051  26.954   6.164
 5687POPC   C1A71967  43.099  26.809   6.464
 5687POPC   D2A71968  43.114  26.776   6.764
 5687POPC   C3A71969  43.122  26.846   7.064
 5687POPC   C4A71970  43.102  26.848   7.364
 5687POPC   C1B71971  43.058  27.078   6.464
 5687POPC   C2B71972  43.076  27.037   6.764
 5687POPC   C3B71973  43.039  27.029   7.064
 5687POPC   C4B71974  43.086  27.015   7.364
 5688POPC   NC371975   8.222  12.862   5.564
 5688POPC   PO471976   8.164  12.829   5.864
 5688POPC   GL171977   8.208  12.869   6.164
 5688POPC   GL271978   8.203  12.706   6.164
 5688POPC   C1A71979   8.215  12.813   6.464
 5688POPC   D2A71980   8.217  12.867   6.764
 5688POPC   C3A71981   8.206  12.854   7.064
 5688POPC   C4A71982   8.185  12.884   7.364
 5688POPC   C1B71983   8.331  12.671   6.464
 5688POPC   C2B71984   8.251  12.582   6.764
 5688POPC   C3B71985   8.344  12.607   7.064
 5688POPC   C4B71986   8.337  12.673   7.364
 5689POPC   NC371987  22.950   2.012   5.564
 5689POPC   PO471988  22.913   2.014   5.864
 5689POPC   GL171989  22.976   1.986   6.164
 5689POPC   GL271990  23.017   2.075   6.164
 5689POPC   C1A71991  22.906   1.991   6.464
 5689POPC   D2A71992  22.965   2.025   6.764
 5689POPC   C3A71993  22.890   2.015   7.064
 5689POPC   C4A71994  22.949   2.014   7.364
 5689POPC   C1B71995  23.037   2.212   6.464
 5689POPC   C2B71996  23.051   2.239   6.764
 5689POPC   C3B71997  23.068   2.181   7.064
 5689POPC   C4B71998  23.039   2.214   7.364
 5690POPC   NC371999  36.902  36.156   5.564
 5690POPC   PO472000  36.931  36.098   5.864
 5690POPC   GL172001  36.908  36.083   6.164
 5690POPC   GL272002  36.967  36.247   6.164
 5690POPC   C1A72003  36.923  36.147   6.464
 5690POPC   D2A72004  36.949  36.177   6.764
 5690POPC   C3A72005  36.936  36.169   7.064
 5690POPC   C4A72006  36.908  36.079   7.364
 5690POPC   C1B72007  37.051  36.318   6.464
 5690POPC   C2B72008  37.018  36.316   6.764
 5690POPC   C3B72009  37.011  36.287   7.064
 5690POPC   C4B72010  37.041  36.359   7.364
 5691POPC   NC372011  40.824   0.431   5.564
 5691POPC   PO472012  40.790   0.455   5.864
 5691POPC   GL172013  40.799   0.447   6.164
 5691POPC   GL272014  40.889   0.440   6.164
 5691POPC   C1A72015  40.740   0.448   6.464
 5691POPC   D2A72016  40.782   0.392   6.764
 5691POPC   C3A72017  40.744   0.389   7.064
 5691POPC   C4A72018  40.780   0.448   7.364
 5691POPC   C1B72019  41.054   0.455   6.464
 5691POPC   C2B72020  41.077   0.414   6.764
 5691POPC   C3B72021  41.001   0.458   7.064
 5691POPC   C4B72022  40.990   0.456   7.364
 5692POPC   NC372023  28.405  11.345   5.564
 5692POPC   PO472024  28.402  11.318   5.864
 5692POPC   GL172025  28.358  11.313   6.164
 5692POPC   GL272026  28.367  11.204   6.164
 5692POPC   C1A72027  28.341  11.267   6.464
 5692POPC   D2A72028  28.356  11.284   6.764
 5692POPC   C3A72029  28.363  11.273   7.064
 5692POPC   C4A72030  28.343  11.318   7.364
 5692POPC   C1B72031  28.342  11.093   6.464
 5692POPC   C2B72032  28.339  11.051   6.764
 5692POPC   C3B72033  28.408  11.013   7.064
 5692POPC   C4B72034  28.370  11.047   7.364
 5693POPC   NC372035  18.250  39.259   5.564
 5693POPC   PO472036  18.284  39.263   5.864
 5693POPC   GL172037  18.285  39.272   6.164
 5693POPC   GL272038  18.453  39.218   6.164
 5693POPC   C1A72039  18.299  39.197   6.464
 5693POPC   D2A72040  18.299  39.258   6.764
 5693POPC   C3A72041  18.248  39.200   7.064
 5693POPC   C4A72042  18.300  39.253   7.364
 5693POPC   C1B72043  18.508  39.290   6.464
 5693POPC   C2B72044  18.561  39.234   6.764
 5693POPC   C3B72045  18.555  39.302   7.064
 5693POPC   C4B72046  18.576  39.283   7.364
 5694POPC   NC372047  43.882  39.225   5.564
 5694POPC   PO472048  43.924  39.202   5.864
 5694POPC   GL172049  43.911  39.249   6.164
 5694POPC   GL272050  43.774  39.301   6.164
 5694POPC   C1A72051  43.926  39.257   6.464
 5694POPC   D2A72052  43.848  39.225   6.764
 5694POPC   C3A72053  43.918  39.236   7.064
 5694POPC   C4A72054  43.921  39.264   7.364
 5694POPC   C1B72055  43.731  39.358   6.464
 5694POPC   C2B72056  43.730  39.369   6.764
 5694POPC   C3B72057  43.746  39.353   7.064
 5694POPC   C4B72058  43.698  39.354   7.364
 5695POPC   NC372059  37.680  23.733   5.564
 5695POPC   PO472060  37.630  23.726   5.864
 5695POPC   GL172061  37.683  23.728   6.164
 5695POPC   GL272062  37.835  23.647   6.164
 5695POPC   C1A72063  37.695  23.683   6.464
 5695POPC   D2A72064  37.657  23.753   6.764
 5695POPC   C3A72065  37.632  23.685   7.064
 5695POPC   C4A72066  37.659  23.672   7.364
 5695POPC   C1B72067  37.924  23.601   6.464
 5695POPC   C2B72068  37.931  23.655   6.764
 5695POPC   C3B72069  37.909  23.634   7.064
 5695POPC   C4B72070  37.897  23.649   7.364
 5696POPC   NC372071  39.968  12.083   5.564
 5696POPC   PO472072  39.991  12.084   5.864
 5696POPC   GL172073  39.968  12.100   6.164
 5696POPC   GL272074  40.129  12.183   6.164
 5696POPC   C1A72075  40.042  12.056   6.464
 5696POPC   D2A72076  39.987  12.086   6.764
 5696POPC   C3A72077  40.047  12.047   7.064
 5696POPC   C4A72078  40.044  12.096   7.364
 5696POPC   C1B72079  40.178  12.190   6.464
 5696POPC   C2B72080  40.232  12.214   6.764
 5696POPC   C3B72081  40.247  12.249   7.064
 5696POPC   C4B72082  40.241  12.270   7.364
 5697POPC   NC372083  20.610  17.533   5.564
 5697POPC   PO472084  20.568  17.481   5.864
 5697POPC   GL172085  20.637  17.537   6.164
 5697POPC   GL272086  20.508  17.438   6.164
 5697POPC   C1A72087  20.632  17.488   6.464
 5697POPC   D2A72088  20.589  17.471   6.764
 5697POPC   C3A72089  20.619  17.458   7.064
 5697POPC   C4A72090  20.619  17.544   7.364
 5697POPC   C1B72091  20.350  17.416   6.464
 5697POPC   C2B72092  20.369  17.393   6.764
 5697POPC   C3B72093  20.392  17.429   7.064
 5697POPC   C4B72094  20.375  17.397   7.364
 5698POPC   NC372095  25.266   6.628   5.564
 5698POPC   PO472096  25.229   6.662   5.864
 5698POPC   GL172097  25.314   6.671   6.164
 5698POPC   GL272098  25.154   6.730   6.164
 5698POPC   C1A72099  25.233   6.667   6.464
 5698POPC   D2A72100  25.277   6.610   6.764
 5698POPC   C3A72101  25.235   6.617   7.064
 5698POPC   C4A72102  25.250   6.611   7.364
 5698POPC   C1B72103  25.092   6.768   6.464
 5698POPC   C2B72104  25.095   6.746   6.764
 5698POPC   C3B72105  25.077   6.739   7.064
 5698POPC   C4B72106  25.045   6.747   7.364
 5699POPC   NC372107   4.310   8.187   5.564
 5699POPC   PO472108   4.356   8.215   5.864
 5699POPC   GL172109   4.350   8.229   6.164
 5699POPC   GL272110   4.482   8.127   6.164
 5699POPC   C1A72111   4.277   8.191   6.464
 5699POPC   D2A72112   4.309   8.150   6.764
 5699POPC   C3A72113   4.277   8.211   7.064
 5699POPC   C4A72114   4.364   8.192   7.364
 5699POPC   C1B72115   4.523   8.156   6.464
 5699POPC   C2B72116   4.570   8.176   6.764
 5699POPC   C3B72117   4.523   8.174   7.064
 5699POPC   C4B72118   4.555   8.108   7.364
 5700POPC   NC372119  29.871  35.373   5.564
 5700POPC   PO472120  29.887  35.398   5.864
 5700POPC   GL172121  29.888  35.380   6.164
 5700POPC   GL272122  29.811  35.260   6.164
 5700POPC   C1A72123  29.875  35.343   6.464
 5700POPC   D2A72124  29.928  35.378   6.764
 5700POPC   C3A72125  29.935  35.312   7.064
 5700POPC   C4A72126  29.954  35.350   7.364
 5700POPC   C1B72127  29.674  35.258   6.464
 5700POPC   C2B72128  29.743  35.180   6.764
 5700POPC   C3B72129  29.713  35.202   7.064
 5700POPC   C4B72130  29.727  35.208   7.364
 5701POPC   NC372131  30.688  14.412   5.564
 5701POPC   PO472132  30.730  14.445   5.864
 5701POPC   GL172133  30.738  14.405   6.164
 5701POPC   GL272134  30.544  14.415   6.164
 5701POPC   C1A72135  30.706  14.434   6.464
 5701POPC   D2A72136  30.724  14.453   6.764
 5701POPC   C3A72137  30.684  14.359   7.064
 5701POPC   C4A72138  30.737  14.433   7.364
 5701POPC   C1B72139  30.486  14.387   6.464
 5701POPC   C2B72140  30.485  14.417   6.764
 5701POPC   C3B72141  30.448  14.413   7.064
 5701POPC   C4B72142  30.414  14.448   7.364
 5702POPC   NC372143   7.403  44.694   5.564
 5702POPC   PO472144   7.461  44.700   5.864
 5702POPC   GL172145   7.371  44.620   6.164
 5702POPC   GL272146   7.378  44.797   6.164
 5702POPC   C1A72147   7.443  44.661   6.464
 5702POPC   D2A72148   7.437  44.664   6.764
 5702POPC   C3A72149   7.401  44.669   7.064
 5702POPC   C4A72150   7.416  44.693   7.364
 5702POPC   C1B72151   7.272  44.881   6.464
 5702POPC   C2B72152   7.296  44.907   6.764
 5702POPC   C3B72153   7.300  44.914   7.064
 5702POPC   C4B72154   7.282  44.838   7.364
 5703POPC   NC372155  40.033  28.332   5.564
 5703POPC   PO472156  39.958  28.343   5.864
 5703POPC   GL172157  40.029  28.410   6.164
 5703POPC   GL272158  40.080  28.424   6.164
 5703POPC   C1A72159  40.016  28.337   6.464
 5703POPC   D2A72160  40.012  28.398   6.764
 5703POPC   C3A72161  39.975  28.400   7.064
 5703POPC   C4A72162  40.029  28.327   7.364
 5703POPC   C1B72163  40.179  28.506   6.464
 5703POPC   C2B72164  40.223  28.514   6.764
 5703POPC   C3B72165  40.258  28.532   7.064
 5703POPC   C4B72166  40.189  28.475   7.364
 5704POPC   NC372167  31.478  25.245   5.564
 5704POPC   PO472168  31.480  25.225   5.864
 5704POPC   GL172169  31.463  25.265   6.164
 5704POPC   GL272170  31.455  25.148   6.164
 5704POPC   C1A72171  31.470  25.301   6.464
 5704POPC   D2A72172  31.460  25.294   6.764
 5704POPC   C3A72173  31.434  25.310   7.064
 5704POPC   C4A72174  31.430  25.263   7.364
 5704POPC   C1B72175  31.389  24.976   6.464
 5704POPC   C2B72176  31.451  25.012   6.764
 5704POPC   C3B72177  31.422  25.066   7.064
 5704POPC   C4B72178  31.423  25.040   7.364
 5705POPC   NC372179  43.867  15.131   5.564
 5705POPC   PO472180  43.931  15.222   5.864
 5705POPC   GL172181  43.935  15.188   6.164
 5705POPC   GL272182  44.039  15.169   6.164
 5705POPC   C1A72183  43.862  15.208   6.464
 5705POPC   D2A72184  43.932  15.171   6.764
 5705POPC   C3A72185  43.934  15.138   7.064
 5705POPC   C4A72186  43.913  15.189   7.364
 5705POPC   C1B72187  44.101  15.164   6.464
 5705POPC   C2B72188  44.085  15.162   6.764
 5705POPC   C3B72189  44.161  15.176   7.064
 5705POPC   C4B72190  44.157  15.253   7.364
 5706POPC   NC372191  18.329  12.840   5.564
 5706POPC   PO472192  18.244  12.853   5.864
 5706POPC   GL172193  18.290  12.858   6.164
 5706POPC   GL272194  18.247  13.001   6.164
 5706POPC   C1A72195  18.310  12.827   6.464
 5706POPC   D2A72196  18.242  12.824   6.764
 5706POPC   C3A72197  18.295  12.820   7.064
 5706POPC   C4A72198  18.329  12.855   7.364
 5706POPC   C1B72199  18.158  13.100   6.464
 5706POPC   C2B72200  18.217  13.078   6.764
 5706POPC   C3B72201  18.155  13.113   7.064
 5706POPC   C4B72202  18.214  13.044   7.364
 5707POPC   NC372203  29.146  26.047   5.564
 5707POPC   PO472204  29.171  25.996   5.864
 5707POPC   GL172205  29.145  26.056   6.164
 5707POPC   GL272206  29.145  25.886   6.164
 5707POPC   C1A72207  29.100  26.003   6.464
 5707POPC   D2A72208  29.154  26.069   6.764
 5707POPC   C3A72209  29.104  26.086   7.064
 5707POPC   C4A72210  29.139  26.060   7.364
 5707POPC   C1B72211  29.047  25.787   6.464
 5707POPC   C2B72212  29.130  25.811   6.764
 5707POPC   C3B72213  29.084  25.764   7.064
 5707POPC   C4B72214  29.065  25.822   7.364
 5708POPC   NC372215  12.817   8.208   5.564
 5708POPC   PO472216  12.863   8.178   5.864
 5708POPC   GL172217  12.822   8.219   6.164
 5708POPC   GL272218  13.009   8.187   6.164
 5708POPC   C1A72219  12.824   8.183   6.464
 5708POPC   D2A72220  12.887   8.185   6.764
 5708POPC   C3A72221  12.851   8.215   7.064
 5708POPC   C4A72222  12.847   8.214   7.364
 5708POPC   C1B72223  13.062   8.088   6.464
 5708POPC   C2B72224  13.083   8.093   6.764
 5708POPC   C3B72225  13.128   8.072   7.064
 5708POPC   C4B72226  13.082   8.165   7.364
 5709POPC   NC372227  16.736  43.886   5.564
 5709POPC   PO472228  16.703  43.904   5.864
 5709POPC   GL172229  16.740  43.856   6.164
 5709POPC   GL272230  16.843  43.834   6.164
 5709POPC   C1A72231  16.778  43.882   6.464
 5709POPC   D2A72232  16.705  43.932   6.764
 5709POPC   C3A72233  16.779  43.930   7.064
 5709POPC   C4A72234  16.726  43.859   7.364
 5709POPC   C1B72235  16.893  43.711   6.464
 5709POPC   C2B72236  16.947  43.719   6.764
 5709POPC   C3B72237  16.955  43.734   7.064
 5709POPC   C4B72238  16.956  43.761   7.364
 5710POPC   NC372239  36.922   1.968   5.564
 5710POPC   PO472240  36.951   1.986   5.864
 5710POPC   GL172241  36.903   2.001   6.164
 5710POPC   GL272242  37.011   2.110   6.164
 5710POPC   C1A72243  36.952   2.004   6.464
 5710POPC   D2A72244  36.861   2.034   6.764
 5710POPC   C3A72245  36.908   1.957   7.064
 5710POPC   C4A72246  36.927   1.967   7.364
 5710POPC   C1B72247  37.049   2.189   6.464
 5710POPC   C2B72248  37.071   2.147   6.764
 5710POPC   C3B72249  37.099   2.160   7.064
 5710POPC   C4B72250  37.101   2.113   7.364
 5711POPC   NC372251   9.710  39.207   5.564
 5711POPC   PO472252   9.705  39.240   5.864
 5711POPC   GL172253   9.735  39.269   6.164
 5711POPC   GL272254   9.838  39.310   6.164
 5711POPC   C1A72255   9.750  39.257   6.464
 5711POPC   D2A72256   9.743  39.266   6.764
 5711POPC   C3A72257   9.731  39.205   7.064
 5711POPC   C4A72258   9.787  39.276   7.364
 5711POPC   C1B72259   9.953  39.416   6.464
 5711POPC   C2B72260   9.938  39.395   6.764
 5711POPC   C3B72261   9.892  39.407   7.064
 5711POPC   C4B72262   9.897  39.417   7.364
 5712POPC   NC372263   3.536  11.267   5.564
 5712POPC   PO472264   3.589  11.345   5.864
 5712POPC   GL172265   3.502  11.277   6.164
 5712POPC   GL272266   3.522  11.198   6.164
 5712POPC   C1A72267   3.533  11.300   6.464
 5712POPC   D2A72268   3.503  11.261   6.764
 5712POPC   C3A72269   3.586  11.270   7.064
 5712POPC   C4A72270   3.507  11.328   7.364
 5712POPC   C1B72271   3.462  11.028   6.464
 5712POPC   C2B72272   3.449  11.057   6.764
 5712POPC   C3B72273   3.425  11.032   7.064
 5712POPC   C4B72274   3.449  11.103   7.364
 5713POPC   NC372275  11.339   9.747   5.564
 5713POPC   PO472276  11.284   9.763   5.864
 5713POPC   GL172277  11.314   9.787   6.164
 5713POPC   GL272278  11.389   9.721   6.164
 5713POPC   C1A72279  11.347   9.712   6.464
 5713POPC   D2A72280  11.299   9.788   6.764
 5713POPC   C3A72281  11.265   9.718   7.064
 5713POPC   C4A72282  11.291   9.778   7.364
 5713POPC   C1B72283  11.545   9.732   6.464
 5713POPC   C2B72284  11.540   9.750   6.764
 5713POPC   C3B72285  11.574   9.713   7.064
 5713POPC   C4B72286  11.544   9.733   7.364
 5714POPC   NC372287  26.004  11.255   5.564
 5714POPC   PO472288  26.040  11.305   5.864
 5714POPC   GL172289  25.996  11.266   6.164
 5714POPC   GL272290  26.120  11.324   6.164
 5714POPC   C1A72291  26.067  11.258   6.464
 5714POPC   D2A72292  26.087  11.341   6.764
 5714POPC   C3A72293  26.072  11.348   7.064
 5714POPC   C4A72294  26.064  11.251   7.364
 5714POPC   C1B72295  26.312  11.328   6.464
 5714POPC   C2B72296  26.279  11.283   6.764
 5714POPC   C3B72297  26.323  11.291   7.064
 5714POPC   C4B72298  26.333  11.251   7.364
 5715POPC   NC372299   0.406  39.255   5.564
 5715POPC   PO472300   0.479  39.243   5.864
 5715POPC   GL172301   0.468  39.215   6.164
 5715POPC   GL272302   0.488  39.393   6.164
 5715POPC   C1A72303   0.433  39.254   6.464
 5715POPC   D2A72304   0.471  39.272   6.764
 5715POPC   C3A72305   0.417  39.199   7.064
 5715POPC   C4A72306   0.390  39.209   7.364
 5715POPC   C1B72307   0.460  39.511   6.464
 5715POPC   C2B72308   0.494  39.433   6.764
 5715POPC   C3B72309   0.401  39.452   7.064
 5715POPC   C4B72310   0.410  39.469   7.364
 5716POPC   NC372311   1.195  15.993   5.564
 5716POPC   PO472312   1.177  15.915   5.864
 5716POPC   GL172313   1.175  15.907   6.164
 5716POPC   GL272314   1.350  15.919   6.164
 5716POPC   C1A72315   1.264  15.984   6.464
 5716POPC   D2A72316   1.202  15.967   6.764
 5716POPC   C3A72317   1.205  15.955   7.064
 5716POPC   C4A72318   1.228  15.978   7.364
 5716POPC   C1B72319   1.452  15.898   6.464
 5716POPC   C2B72320   1.493  15.960   6.764
 5716POPC   C3B72321   1.477  15.891   7.064
 5716POPC   C4B72322   1.453  15.920   7.364
 5717POPC   NC372323   7.397  36.901   5.564
 5717POPC   PO472324   7.422  36.873   5.864
 5717POPC   GL172325   7.403  36.932   6.164
 5717POPC   GL272326   7.278  36.951   6.164
 5717POPC   C1A72327   7.409  36.886   6.464
 5717POPC   D2A72328   7.446  36.936   6.764
 5717POPC   C3A72329   7.435  36.925   7.064
 5717POPC   C4A72330   7.448  36.932   7.364
 5717POPC   C1B72331   7.170  37.046   6.464
 5717POPC   C2B72332   7.167  37.010   6.764
 5717POPC   C3B72333   7.184  37.081   7.064
 5717POPC   C4B72334   7.219  37.026   7.364
 5718POPC   NC372335  10.474  28.418   5.564
 5718POPC   PO472336  10.481  28.349   5.864
 5718POPC   GL172337  10.493  28.386   6.164
 5718POPC   GL272338  10.387  28.346   6.164
 5718POPC   C1A72339  10.554  28.367   6.464
 5718POPC   D2A72340  10.561  28.357   6.764
 5718POPC   C3A72341  10.532  28.370   7.064
 5718POPC   C4A72342  10.475  28.388   7.364
 5718POPC   C1B72343  10.324  28.253   6.464
 5718POPC   C2B72344  10.284  28.335   6.764
 5718POPC   C3B72345  10.254  28.281   7.064
 5718POPC   C4B72346  10.249  28.245   7.364
 5719POPC   NC372347  44.680   1.966   5.564
 5719POPC   PO472348  44.705   1.985   5.864
 5719POPC   GL172349  44.675   1.980   6.164
 5719POPC   GL272350  44.650   2.098   6.164
 5719POPC   C1A72351  44.708   2.033   6.464
 5719POPC   D2A72352  44.677   1.962   6.764
 5719POPC   C3A72353  44.624   1.947   7.064
 5719POPC   C4A72354  44.619   2.037   7.364
 5719POPC   C1B72355  44.660   2.281   6.464
 5719POPC   C2B72356  44.660   2.271   6.764
 5719POPC   C3B72357  44.740   2.231   7.064
 5719POPC   C4B72358  44.699   2.189   7.364
 5720POPC   NC372359   5.877   0.396   5.564
 5720POPC   PO472360   5.852   0.466   5.864
 5720POPC   GL172361   5.917   0.421   6.164
 5720POPC   GL272362   5.781   0.506   6.164
 5720POPC   C1A72363   5.880   0.410   6.464
 5720POPC   D2A72364   5.862   0.393   6.764
 5720POPC   C3A72365   5.890   0.450   7.064
 5720POPC   C4A72366   5.828   0.484   7.364
 5720POPC   C1B72367   5.688   0.598   6.464
 5720POPC   C2B72368   5.624   0.589   6.764
 5720POPC   C3B72369   5.598   0.548   7.064
 5720POPC   C4B72370   5.672   0.558   7.364
 5721POPC   NC372371  26.835  19.102   5.564
 5721POPC   PO472372  26.862  19.069   5.864
 5721POPC   GL172373  26.855  19.031   6.164
 5721POPC   GL272374  26.915  18.940   6.164
 5721POPC   C1A72375  26.846  19.014   6.464
 5721POPC   D2A72376  26.824  19.018   6.764
 5721POPC   C3A72377  26.803  19.046   7.064
 5721POPC   C4A72378  26.860  19.018   7.364
 5721POPC   C1B72379  26.937  18.802   6.464
 5721POPC   C2B72380  26.903  18.831   6.764
 5721POPC   C3B72381  26.967  18.825   7.064
 5721POPC   C4B72382  26.971  18.864   7.364
 5722POPC   NC372383   8.223   1.977   5.564
 5722POPC   PO472384   8.171   1.962   5.864
 5722POPC   GL172385   8.159   2.005   6.164
 5722POPC   GL272386   8.293   1.958   6.164
 5722POPC   C1A72387   8.214   2.029   6.464
 5722POPC   D2A72388   8.149   1.942   6.764
 5722POPC   C3A72389   8.221   2.017   7.064
 5722POPC   C4A72390   8.150   1.943   7.364
 5722POPC   C1B72391   8.431   1.820   6.464
 5722POPC   C2B72392   8.416   1.804   6.764
 5722POPC   C3B72393   8.358   1.811   7.064
 5722POPC   C4B72394   8.412   1.804   7.364
 5723POPC   NC372395  12.883  34.584   5.564
 5723POPC   PO472396  12.827  34.602   5.864
 5723POPC   GL172397  12.898  34.531   6.164
 5723POPC   GL272398  12.795  34.499   6.164
 5723POPC   C1A72399  12.858  34.594   6.464
 5723POPC   D2A72400  12.865  34.573   6.764
 5723POPC   C3A72401  12.816  34.616   7.064
 5723POPC   C4A72402  12.845  34.600   7.364
 5723POPC   C1B72403  12.651  34.400   6.464
 5723POPC   C2B72404  12.680  34.343   6.764
 5723POPC   C3B72405  12.644  34.378   7.064
 5723POPC   C4B72406  12.664  34.403   7.364
 5724POPC   NC372407  37.652  33.839   5.564
 5724POPC   PO472408  37.718  33.838   5.864
 5724POPC   GL172409  37.724  33.764   6.164
 5724POPC   GL272410  37.830  33.850   6.164
 5724POPC   C1A72411  37.650  33.771   6.464
 5724POPC   D2A72412  37.663  33.778   6.764
 5724POPC   C3A72413  37.717  33.767   7.064
 5724POPC   C4A72414  37.707  33.754   7.364
 5724POPC   C1B72415  37.979  33.779   6.464
 5724POPC   C2B72416  37.937  33.790   6.764
 5724POPC   C3B72417  37.881  33.793   7.064
 5724POPC   C4B72418  37.957  33.770   7.364
 5725POPC   NC372419  19.033  35.393   5.564
 5725POPC   PO472420  19.044  35.355   5.864
 5725POPC   GL172421  19.078  35.378   6.164
 5725POPC   GL272422  19.106  35.440   6.164
 5725POPC   C1A72423  19.072  35.344   6.464
 5725POPC   D2A72424  19.070  35.360   6.764
 5725POPC   C3A72425  19.084  35.395   7.064
 5725POPC   C4A72426  19.103  35.306   7.364
 5725POPC   C1B72427  19.104  35.572   6.464
 5725POPC   C2B72428  19.068  35.591   6.764
 5725POPC   C3B72429  19.136  35.607   7.064
 5725POPC   C4B72430  19.125  35.638   7.364
 5726POPC   NC372431  25.243   9.761   5.564
 5726POPC   PO472432  25.219   9.769   5.864
 5726POPC   GL172433  25.261   9.796   6.164
 5726POPC   GL272434  25.364   9.802   6.164
 5726POPC   C1A72435  25.281   9.716   6.464
 5726POPC   D2A72436  25.258   9.742   6.764
 5726POPC   C3A72437  25.234   9.725   7.064
 5726POPC   C4A72438  25.295   9.766   7.364
 5726POPC   C1B72439  25.421   9.952   6.464
 5726POPC   C2B72440  25.435   9.967   6.764
 5726POPC   C3B72441  25.406   9.953   7.064
 5726POPC   C4B72442  25.492   9.923   7.364
 5727POPC   NC372443   2.038  11.253   5.564
 5727POPC   PO472444   1.946  11.348   5.864
 5727POPC   GL172445   1.994  11.318   6.164
 5727POPC   GL272446   1.960  11.433   6.164
 5727POPC   C1A72447   2.019  11.348   6.464
 5727POPC   D2A72448   2.033  11.254   6.764
 5727POPC   C3A72449   1.983  11.286   7.064
 5727POPC   C4A72450   1.961  11.265   7.364
 5727POPC   C1B72451   1.978  11.507   6.464
 5727POPC   C2B72452   2.026  11.582   6.764
 5727POPC   C3B72453   2.020  11.517   7.064
 5727POPC   C4B72454   2.000  11.596   7.364
 5728POPC   NC372455  11.254  12.895   5.564
 5728POPC   PO472456  11.276  12.807   5.864
 5728POPC   GL172457  11.311  12.805   6.164
 5728POPC   GL272458  11.139  12.830   6.164
 5728POPC   C1A72459  11.334  12.830   6.464
 5728POPC   D2A72460  11.337  12.844   6.764
 5728POPC   C3A72461  11.339  12.861   7.064
 5728POPC   C4A72462  11.350  12.880   7.364
 5728POPC   C1B72463  11.088  12.726   6.464
 5728POPC   C2B72464  11.019  12.761   6.764
 5728POPC   C3B72465  11.111  12.809   7.064
 5728POPC   C4B72466  11.033  12.736   7.364
 5729POPC   NC372467  32.264  20.600   5.564
 5729POPC   PO472468  32.290  20.576   5.864
 5729POPC   GL172469  32.264  20.655   6.164
 5729POPC   GL272470  32.374  20.738   6.164
 5729POPC   C1A72471  32.291  20.645   6.464
 5729POPC   D2A72472  32.289  20.628   6.764
 5729POPC   C3A72473  32.209  20.641   7.064
 5729POPC   C4A72474  32.231  20.564   7.364
 5729POPC   C1B72475  32.418  20.805   6.464
 5729POPC   C2B72476  32.383  20.837   6.764
 5729POPC   C3B72477  32.354  20.811   7.064
 5729POPC   C4B72478  32.384  20.838   7.364
 5730POPC   NC372479   9.752  10.542   5.564
 5730POPC   PO472480   9.790  10.529   5.864
 5730POPC   GL172481   9.738  10.514   6.164
 5730POPC   GL272482   9.764  10.647   6.164
 5730POPC   C1A72483   9.766  10.511   6.464
 5730POPC   D2A72484   9.719  10.507   6.764
 5730POPC   C3A72485   9.736  10.544   7.064
 5730POPC   C4A72486   9.743  10.544   7.364
 5730POPC   C1B72487   9.715  10.770   6.464
 5730POPC   C2B72488   9.796  10.754   6.764
 5730POPC   C3B72489   9.743  10.774   7.064
 5730POPC   C4B72490   9.783  10.758   7.364
 5731POPC   NC372491  40.826  30.737   5.564
 5731POPC   PO472492  40.792  30.665   5.864
 5731POPC   GL172493  40.756  30.679   6.164
 5731POPC   GL272494  40.658  30.637   6.164
 5731POPC   C1A72495  40.760  30.675   6.464
 5731POPC   D2A72496  40.787  30.697   6.764
 5731POPC   C3A72497  40.757  30.672   7.064
 5731POPC   C4A72498  40.781  30.674   7.364
 5731POPC   C1B72499  40.510  30.635   6.464
 5731POPC   C2B72500  40.506  30.668   6.764
 5731POPC   C3B72501  40.587  30.644   7.064
 5731POPC   C4B72502  40.569  30.660   7.364
 5732POPC   NC372503   1.253  33.021   5.564
 5732POPC   PO472504   1.223  32.996   5.864
 5732POPC   GL172505   1.196  32.976   6.164
 5732POPC   GL272506   1.133  32.985   6.164
 5732POPC   C1A72507   1.167  33.073   6.464
 5732POPC   D2A72508   1.242  32.980   6.764
 5732POPC   C3A72509   1.250  32.992   7.064
 5732POPC   C4A72510   1.211  33.059   7.364
 5732POPC   C1B72511   0.932  32.989   6.464
 5732POPC   C2B72512   0.927  32.976   6.764
 5732POPC   C3B72513   0.996  32.928   7.064
 5732POPC   C4B72514   0.972  33.019   7.364
 5733POPC   NC372515   1.221  36.909   5.564
 5733POPC   PO472516   1.229  36.860   5.864
 5733POPC   GL172517   1.232  36.932   6.164
 5733POPC   GL272518   1.101  36.802   6.164
 5733POPC   C1A72519   1.191  36.867   6.464
 5733POPC   D2A72520   1.232  36.857   6.764
 5733POPC   C3A72521   1.216  36.930   7.064
 5733POPC   C4A72522   1.236  36.887   7.364
 5733POPC   C1B72523   0.953  36.806   6.464
 5733POPC   C2B72524   0.968  36.783   6.764
 5733POPC   C3B72525   0.962  36.761   7.064
 5733POPC   C4B72526   1.028  36.745   7.364
 5734POPC   NC372527  23.717  13.627   5.564
 5734POPC   PO472528  23.679  13.602   5.864
 5734POPC   GL172529  23.689  13.632   6.164
 5734POPC   GL272530  23.587  13.625   6.164
 5734POPC   C1A72531  23.709  13.670   6.464
 5734POPC   D2A72532  23.714  13.606   6.764
 5734POPC   C3A72533  23.714  13.608   7.064
 5734POPC   C4A72534  23.725  13.636   7.364
 5734POPC   C1B72535  23.503  13.550   6.464
 5734POPC   C2B72536  23.491  13.632   6.764
 5734POPC   C3B72537  23.459  13.610   7.064
 5734POPC   C4B72538  23.455  13.623   7.364
 5735POPC   NC372539  13.627  39.211   5.564
 5735POPC   PO472540  13.660  39.255   5.864
 5735POPC   GL172541  13.618  39.218   6.164
 5735POPC   GL272542  13.474  39.188   6.164
 5735POPC   C1A72543  13.622  39.248   6.464
 5735POPC   D2A72544  13.616  39.245   6.764
 5735POPC   C3A72545  13.641  39.218   7.064
 5735POPC   C4A72546  13.604  39.194   7.364
 5735POPC   C1B72547  13.399  39.115   6.464
 5735POPC   C2B72548  13.451  39.105   6.764
 5735POPC   C3B72549  13.441  39.090   7.064
 5735POPC   C4B72550  13.444  39.066   7.364
 5736POPC   NC372551  37.715   5.095   5.564
 5736POPC   PO472552  37.674   5.049   5.864
 5736POPC   GL172553  37.650   5.142   6.164
 5736POPC   GL272554  37.504   5.136   6.164
 5736POPC   C1A72555  37.687   5.047   6.464
 5736POPC   D2A72556  37.702   5.111   6.764
 5736POPC   C3A72557  37.647   5.107   7.064
 5736POPC   C4A72558  37.678   5.097   7.364
 5736POPC   C1B72559  37.419   5.124   6.464
 5736POPC   C2B72560  37.426   5.063   6.764
 5736POPC   C3B72561  37.454   5.094   7.064
 5736POPC   C4B72562  37.453   5.095   7.364
 5737POPC   NC372563   7.380   5.843   5.564
 5737POPC   PO472564   7.440   5.902   5.864
 5737POPC   GL172565   7.458   5.829   6.164
 5737POPC   GL272566   7.292   5.815   6.164
 5737POPC   C1A72567   7.442   5.910   6.464
 5737POPC   D2A72568   7.469   5.839   6.764
 5737POPC   C3A72569   7.385   5.858   7.064
 5737POPC   C4A72570   7.395   5.910   7.364
 5737POPC   C1B72571   7.249   5.655   6.464
 5737POPC   C2B72572   7.273   5.719   6.764
 5737POPC   C3B72573   7.205   5.680   7.064
 5737POPC   C4B72574   7.253   5.637   7.364
 5738POPC   NC372575  30.713   4.293   5.564
 5738POPC   PO472576  30.742   4.349   5.864
 5738POPC   GL172577  30.740   4.288   6.164
 5738POPC   GL272578  30.754   4.218   6.164
 5738POPC   C1A72579  30.733   4.280   6.464
 5738POPC   D2A72580  30.668   4.337   6.764
 5738POPC   C3A72581  30.740   4.271   7.064
 5738POPC   C4A72582  30.699   4.333   7.364
 5738POPC   C1B72583  30.868   4.140   6.464
 5738POPC   C2B72584  30.858   4.172   6.764
 5738POPC   C3B72585  30.842   4.117   7.064
 5738POPC   C4B72586  30.861   4.194   7.364
 5739POPC   NC372587  11.304  16.683   5.564
 5739POPC   PO472588  11.251  16.725   5.864
 5739POPC   GL172589  11.261  16.745   6.164
 5739POPC   GL272590  11.311  16.801   6.164
 5739POPC   C1A72591  11.267  16.736   6.464
 5739POPC   D2A72592  11.328  16.734   6.764
 5739POPC   C3A72593  11.274  16.770   7.064
 5739POPC   C4A72594  11.334  16.777   7.364
 5739POPC   C1B72595  11.405  16.943   6.464
 5739POPC   C2B72596  11.386  17.002   6.764
 5739POPC   C3B72597  11.372  16.992   7.064
 5739POPC   C4B72598  11.377  16.957   7.364
 5740POPC   NC372599   6.684   3.552   5.564
 5740POPC   PO472600   6.605   3.570   5.864
 5740POPC   GL172601   6.604   3.539   6.164
 5740POPC   GL272602   6.671   3.409   6.164
 5740POPC   C1A72603   6.660   3.504   6.464
 5740POPC   D2A72604   6.598   3.511   6.764
 5740POPC   C3A72605   6.665   3.578   7.064
 5740POPC   C4A72606   6.667   3.508   7.364
 5740POPC   C1B72607   6.797   3.290   6.464
 5740POPC   C2B72608   6.777   3.322   6.764
 5740POPC   C3B72609   6.785   3.346   7.064
 5740POPC   C4B72610   6.765   3.274   7.364
 5741POPC   NC372611  33.074  32.224   5.564
 5741POPC   PO472612  32.981  32.231   5.864
 5741POPC   GL172613  32.998  32.216   6.164
 5741POPC   GL272614  33.047  32.391   6.164
 5741POPC   C1A72615  33.017  32.224   6.464
 5741POPC   D2A72616  32.999  32.250   6.764
 5741POPC   C3A72617  33.013  32.280   7.064
 5741POPC   C4A72618  33.065  32.240   7.364
 5741POPC   C1B72619  32.970  32.464   6.464
 5741POPC   C2B72620  32.957  32.518   6.764
 5741POPC   C3B72621  33.050  32.489   7.064
 5741POPC   C4B72622  33.030  32.527   7.364
 5742POPC   NC372623  39.972  24.488   5.564
 5742POPC   PO472624  39.976  24.470   5.864
 5742POPC   GL172625  39.976  24.498   6.164
 5742POPC   GL272626  40.000  24.377   6.164
 5742POPC   C1A72627  40.040  24.514   6.464
 5742POPC   D2A72628  39.979  24.518   6.764
 5742POPC   C3A72629  39.994  24.539   7.064
 5742POPC   C4A72630  39.958  24.496   7.364
 5742POPC   C1B72631  40.040  24.275   6.464
 5742POPC   C2B72632  40.040  24.202   6.764
 5742POPC   C3B72633  40.054  24.223   7.064
 5742POPC   C4B72634  40.035  24.204   7.364
 5743POPC   NC372635  37.726  30.717   5.564
 5743POPC   PO472636  37.710  30.651   5.864
 5743POPC   GL172637  37.710  30.701   6.164
 5743POPC   GL272638  37.515  30.693   6.164
 5743POPC   C1A72639  37.689  30.688   6.464
 5743POPC   D2A72640  37.676  30.682   6.764
 5743POPC   C3A72641  37.667  30.706   7.064
 5743POPC   C4A72642  37.689  30.675   7.364
 5743POPC   C1B72643  37.424  30.558   6.464
 5743POPC   C2B72644  37.408  30.609   6.764
 5743POPC   C3B72645  37.473  30.571   7.064
 5743POPC   C4B72646  37.469  30.652   7.364
 5744POPC   NC372647  34.616  10.541   5.564
 5744POPC   PO472648  34.581  10.497   5.864
 5744POPC   GL172649  34.609  10.500   6.164
 5744POPC   GL272650  34.430  10.439   6.164
 5744POPC   C1A72651  34.617  10.499   6.464
 5744POPC   D2A72652  34.575  10.538   6.764
 5744POPC   C3A72653  34.527  10.535   7.064
 5744POPC   C4A72654  34.534  10.527   7.364
 5744POPC   C1B72655  34.391  10.468   6.464
 5744POPC   C2B72656  34.346  10.457   6.764
 5744POPC   C3B72657  34.369  10.407   7.064
 5744POPC   C4B72658  34.310  10.385   7.364
 5745POPC   NC372659  15.226  39.213   5.564
 5745POPC   PO472660  15.133  39.186   5.864
 5745POPC   GL172661  15.140  39.250   6.164
 5745POPC   GL272662  15.335  39.249   6.164
 5745POPC   C1A72663  15.160  39.202   6.464
 5745POPC   D2A72664  15.146  39.183   6.764
 5745POPC   C3A72665  15.193  39.246   7.064
 5745POPC   C4A72666  15.188  39.220   7.364
 5745POPC   C1B72667  15.388  39.271   6.464
 5745POPC   C2B72668  15.473  39.235   6.764
 5745POPC   C3B72669  15.468  39.230   7.064
 5745POPC   C4B72670  15.460  39.263   7.364
 5746POPC   NC372671  23.723  37.692   5.564
 5746POPC   PO472672  23.742  37.700   5.864
 5746POPC   GL172673  23.671  37.689   6.164
 5746POPC   GL272674  23.729  37.571   6.164
 5746POPC   C1A72675  23.708  37.668   6.464
 5746POPC   D2A72676  23.737  37.713   6.764
 5746POPC   C3A72677  23.755  37.653   7.064
 5746POPC   C4A72678  23.686  37.643   7.364
 5746POPC   C1B72679  23.848  37.482   6.464
 5746POPC   C2B72680  23.822  37.475   6.764
 5746POPC   C3B72681  23.846  37.435   7.064
 5746POPC   C4B72682  23.809  37.438   7.364
 5747POPC   NC372683  31.517  33.772   5.564
 5747POPC   PO472684  31.476  33.845   5.864
 5747POPC   GL172685  31.499  33.772   6.164
 5747POPC   GL272686  31.481  33.939   6.164
 5747POPC   C1A72687  31.496  33.795   6.464
 5747POPC   D2A72688  31.482  33.763   6.764
 5747POPC   C3A72689  31.514  33.781   7.064
 5747POPC   C4A72690  31.465  33.830   7.364
 5747POPC   C1B72691  31.471  34.099   6.464
 5747POPC   C2B72692  31.427  34.019   6.764
 5747POPC   C3B72693  31.498  34.056   7.064
 5747POPC   C4B72694  31.440  34.058   7.364
 5748POPC   NC372695  36.858  10.502   5.564
 5748POPC   PO472696  36.860  10.562   5.864
 5748POPC   GL172697  36.912  10.563   6.164
 5748POPC   GL272698  36.802  10.514   6.164
 5748POPC   C1A72699  36.892  10.504   6.464
 5748POPC   D2A72700  36.856  10.480   6.764
 5748POPC   C3A72701  36.860  10.522   7.064
 5748POPC   C4A72702  36.892  10.569   7.364
 5748POPC   C1B72703  36.674  10.505   6.464
 5748POPC   C2B72704  36.694  10.495   6.764
 5748POPC   C3B72705  36.703  10.558   7.064
 5748POPC   C4B72706  36.608  10.542   7.364
 5749POPC   NC372707  38.475  24.512   5.564
 5749POPC   PO472708  38.487  24.483   5.864
 5749POPC   GL172709  38.443  24.444   6.164
 5749POPC   GL272710  38.411  24.542   6.164
 5749POPC   C1A72711  38.469  24.442   6.464
 5749POPC   D2A72712  38.434  24.455   6.764
 5749POPC   C3A72713  38.504  24.453   7.064
 5749POPC   C4A72714  38.491  24.527   7.364
 5749POPC   C1B72715  38.264  24.688   6.464
 5749POPC   C2B72716  38.339  24.709   6.764
 5749POPC   C3B72717  38.278  24.698   7.064
 5749POPC   C4B72718  38.316  24.701   7.364
 5750POPC   NC372719  20.623  13.642   5.564
 5750POPC   PO472720  20.636  13.653   5.864
 5750POPC   GL172721  20.620  13.602   6.164
 5750POPC   GL272722  20.557  13.794   6.164
 5750POPC   C1A72723  20.620  13.645   6.464
 5750POPC   D2A72724  20.652  13.616   6.764
 5750POPC   C3A72725  20.654  13.612   7.064
 5750POPC   C4A72726  20.590  13.620   7.364
 5750POPC   C1B72727  20.492  13.891   6.464
 5750POPC   C2B72728  20.484  13.829   6.764
 5750POPC   C3B72729  20.516  13.855   7.064
 5750POPC   C4B72730  20.482  13.859   7.364
 5751POPC   NC372731  26.789   5.853   5.564
 5751POPC   PO472732  26.847   5.911   5.864
 5751POPC   GL172733  26.805   5.848   6.164
 5751POPC   GL272734  26.742   5.936   6.164
 5751POPC   C1A72735  26.852   5.825   6.464
 5751POPC   D2A72736  26.855   5.916   6.764
 5751POPC   C3A72737  26.772   5.893   7.064
 5751POPC   C4A72738  26.847   5.890   7.364
 5751POPC   C1B72739  26.698   6.078   6.464
 5751POPC   C2B72740  26.743   6.079   6.764
 5751POPC   C3B72741  26.729   6.048   7.064
 5751POPC   C4B72742  26.667   6.137   7.364
 5752POPC   NC372743  25.254  31.482   5.564
 5752POPC   PO472744  25.309  31.512   5.864
 5752POPC   GL172745  25.256  31.455   6.164
 5752POPC   GL272746  25.158  31.467   6.164
 5752POPC   C1A72747  25.283  31.460   6.464
 5752POPC   D2A72748  25.235  31.446   6.764
 5752POPC   C3A72749  25.286  31.480   7.064
 5752POPC   C4A72750  25.225  31.517   7.364
 5752POPC   C1B72751  24.985  31.372   6.464
 5752POPC   C2B72752  25.026  31.407   6.764
 5752POPC   C3B72753  24.995  31.413   7.064
 5752POPC   C4B72754  25.025  31.359   7.364
 5753POPC   NC372755  39.276  36.863   5.564
 5753POPC   PO472756  39.200  36.878   5.864
 5753POPC   GL172757  39.202  36.894   6.164
 5753POPC   GL272758  39.237  37.050   6.164
 5753POPC   C1A72759  39.197  36.859   6.464
 5753POPC   D2A72760  39.201  36.905   6.764
 5753POPC   C3A72761  39.264  36.935   7.064
 5753POPC   C4A72762  39.235  36.950   7.364
 5753POPC   C1B72763  39.246  37.102   6.464
 5753POPC   C2B72764  39.274  37.100   6.764
 5753POPC   C3B72765  39.295  37.118   7.064
 5753POPC   C4B72766  39.311  37.130   7.364
 5754POPC   NC372767  34.617  25.303   5.564
 5754POPC   PO472768  34.558  25.242   5.864
 5754POPC   GL172769  34.542  25.229   6.164
 5754POPC   GL272770  34.479  25.352   6.164
 5754POPC   C1A72771  34.568  25.256   6.464
 5754POPC   D2A72772  34.557  25.285   6.764
 5754POPC   C3A72773  34.586  25.277   7.064
 5754POPC   C4A72774  34.582  25.287   7.364
 5754POPC   C1B72775  34.403  25.467   6.464
 5754POPC   C2B72776  34.445  25.447   6.764
 5754POPC   C3B72777  34.396  25.425   7.064
 5754POPC   C4B72778  34.455  25.475   7.364
 5755POPC   NC372779  22.168  31.507   5.564
 5755POPC   PO472780  22.181  31.478   5.864
 5755POPC   GL172781  22.175  31.432   6.164
 5755POPC   GL272782  22.225  31.542   6.164
 5755POPC   C1A72783  22.188  31.447   6.464
 5755POPC   D2A72784  22.190  31.481   6.764
 5755POPC   C3A72785  22.117  31.432   7.064
 5755POPC   C4A72786  22.140  31.522   7.364
 5755POPC   C1B72787  22.366  31.646   6.464
 5755POPC   C2B72788  22.332  31.641   6.764
 5755POPC   C3B72789  22.318  31.660   7.064
 5755POPC   C4B72790  22.351  31.634   7.364
 5756POPC   NC372791  41.561  12.030   5.564
 5756POPC   PO472792  41.524  12.120   5.864
 5756POPC   GL172793  41.596  12.101   6.164
 5756POPC   GL272794  41.441  12.017   6.164
 5756POPC   C1A72795  41.596  12.102   6.464
 5756POPC   D2A72796  41.554  12.043   6.764
 5756POPC   C3A72797  41.557  12.078   7.064
 5756POPC   C4A72798  41.600  12.079   7.364
 5756POPC   C1B72799  41.355  12.028   6.464
 5756POPC   C2B72800  41.278  12.084   6.764
 5756POPC   C3B72801  41.326  12.081   7.064
 5756POPC   C4B72802  41.355  12.006   7.364
 5757POPC   NC372803  13.607   1.980   5.564
 5757POPC   PO472804  13.660   1.968   5.864
 5757POPC   GL172805  13.658   1.987   6.164
 5757POPC   GL272806  13.749   1.937   6.164
 5757POPC   C1A72807  13.625   2.032   6.464
 5757POPC   D2A72808  13.615   2.017   6.764
 5757POPC   C3A72809  13.648   2.000   7.064
 5757POPC   C4A72810  13.600   2.023   7.364
 5757POPC   C1B72811  13.798   1.779   6.464
 5757POPC   C2B72812  13.820   1.812   6.764
 5757POPC   C3B72813  13.838   1.859   7.064
 5757POPC   C4B72814  13.836   1.851   7.364
 5758POPC   NC372815  19.871  15.971   5.564
 5758POPC   PO472816  19.786  15.940   5.864
 5758POPC   GL172817  19.882  15.949   6.164
 5758POPC   GL272818  19.888  15.806   6.164
 5758POPC   C1A72819  19.865  15.927   6.464
 5758POPC   D2A72820  19.789  15.971   6.764
 5758POPC   C3A72821  19.851  15.970   7.064
 5758POPC   C4A72822  19.839  15.925   7.364
 5758POPC   C1B72823  19.949  15.698   6.464
 5758POPC   C2B72824  19.976  15.695   6.764
 5758POPC   C3B72825  19.922  15.780   7.064
 5758POPC   C4B72826  19.905  15.758   7.364
 5759POPC   NC372827  35.362  22.925   5.564
 5759POPC   PO472828  35.305  22.953   5.864
 5759POPC   GL172829  35.340  22.985   6.164
 5759POPC   GL272830  35.238  22.924   6.164
 5759POPC   C1A72831  35.377  22.966   6.464
 5759POPC   D2A72832  35.304  22.954   6.764
 5759POPC   C3A72833  35.397  22.936   7.064
 5759POPC   C4A72834  35.321  22.939   7.364
 5759POPC   C1B72835  35.130  22.991   6.464
 5759POPC   C2B72836  35.075  23.018   6.764
 5759POPC   C3B72837  35.062  22.941   7.064
 5759POPC   C4B72838  35.067  22.986   7.364
 5760POPC   NC372839  38.483   4.284   5.564
 5760POPC   PO472840  38.440   4.363   5.864
 5760POPC   GL172841  38.423   4.359   6.164
 5760POPC   GL272842  38.470   4.443   6.164
 5760POPC   C1A72843  38.443   4.346   6.464
 5760POPC   D2A72844  38.469   4.339   6.764
 5760POPC   C3A72845  38.475   4.338   7.064
 5760POPC   C4A72846  38.482   4.307   7.364
 5760POPC   C1B72847  38.390   4.554   6.464
 5760POPC   C2B72848  38.403   4.589   6.764
 5760POPC   C3B72849  38.372   4.597   7.064
 5760POPC   C4B72850  38.429   4.549   7.364
 5761POPC   NC372851  15.909  36.097   5.564
 5761POPC   PO472852  15.932  36.114   5.864
 5761POPC   GL172853  15.909  36.173   6.164
 5761POPC   GL272854  16.058  36.252   6.164
 5761POPC   C1A72855  15.912  36.087   6.464
 5761POPC   D2A72856  15.935  36.111   6.764
 5761POPC   C3A72857  15.961  36.129   7.064
 5761POPC   C4A72858  15.950  36.116   7.364
 5761POPC   C1B72859  16.167  36.257   6.464
 5761POPC   C2B72860  16.166  36.334   6.764
 5761POPC   C3B72861  16.101  36.247   7.064
 5761POPC   C4B72862  16.151  36.294   7.364
 5762POPC   NC372863  42.352  12.069   5.564
 5762POPC   PO472864  42.348  12.117   5.864
 5762POPC   GL172865  42.300  12.037   6.164
 5762POPC   GL272866  42.416  12.222   6.164
 5762POPC   C1A72867  42.307  12.100   6.464
 5762POPC   D2A72868  42.303  12.046   6.764
 5762POPC   C3A72869  42.340  12.081   7.064
 5762POPC   C4A72870  42.296  12.045   7.364
 5762POPC   C1B72871  42.517  12.324   6.464
 5762POPC   C2B72872  42.466  12.297   6.764
 5762POPC   C3B72873  42.485  12.238   7.064
 5762POPC   C4B72874  42.466  12.269   7.364
 5763POPC   NC372875  44.686  44.644   5.564
 5763POPC   PO472876  44.693  44.667   5.864
 5763POPC   GL172877  44.644  44.613   6.164
 5763POPC   GL272878  44.571  44.729   6.164
 5763POPC   C1A72879  44.659  44.638   6.464
 5763POPC   D2A72880  44.630  44.676   6.764
 5763POPC   C3A72881  44.660  44.632   7.064
 5763POPC   C4A72882  44.668  44.618   7.364
 5763POPC   C1B72883  44.541  44.868   6.464
 5763POPC   C2B72884  44.597  44.906   6.764
 5763POPC   C3B72885  44.577  44.847   7.064
 5763POPC   C4B72886  44.524  44.862   7.364
 5764POPC   NC372887   2.809  12.885   5.564
 5764POPC   PO472888   2.800  12.841   5.864
 5764POPC   GL172889   2.772  12.848   6.164
 5764POPC   GL272890   2.698  12.760   6.164
 5764POPC   C1A72891   2.726  12.879   6.464
 5764POPC   D2A72892   2.786  12.876   6.764
 5764POPC   C3A72893   2.799  12.891   7.064
 5764POPC   C4A72894   2.768  12.829   7.364
 5764POPC   C1B72895   2.637  12.599   6.464
 5764POPC   C2B72896   2.662  12.624   6.764
 5764POPC   C3B72897   2.664  12.609   7.064
 5764POPC   C4B72898   2.648  12.636   7.364
 5765POPC   NC372899   2.761  22.153   5.564
 5765POPC   PO472900   2.750  22.159   5.864
 5765POPC   GL172901   2.815  22.141   6.164
 5765POPC   GL272902   2.679  22.146   6.164
 5765POPC   C1A72903   2.809  22.196   6.464
 5765POPC   D2A72904   2.751  22.169   6.764
 5765POPC   C3A72905   2.805  22.199   7.064
 5765POPC   C4A72906   2.745  22.155   7.364
 5765POPC   C1B72907   2.558  22.059   6.464
 5765POPC   C2B72908   2.531  22.033   6.764
 5765POPC   C3B72909   2.501  22.098   7.064
 5765POPC   C4B72910   2.562  22.103   7.364
 5766POPC   NC372911  19.785   8.953   5.564
 5766POPC   PO472912  19.878   8.991   5.864
 5766POPC   GL172913  19.794   9.010   6.164
 5766POPC   GL272914  19.995   9.037   6.164
 5766POPC   C1A72915  19.811   8.960   6.464
 5766POPC   D2A72916  19.846   9.001   6.764
 5766POPC   C3A72917  19.868   8.987   7.064
 5766POPC   C4A72918  19.789   8.969   7.364
 5766POPC   C1B72919  20.093   9.093   6.464
 5766POPC   C2B72920  20.059   9.086   6.764
 5766POPC   C3B72921  20.111   9.094   7.064
 5766POPC   C4B72922  20.093   9.073   7.364
 5767POPC   NC372923   9.019  15.941   5.564
 5767POPC   PO472924   8.968  15.964   5.864
 5767POPC   GL172925   9.022  15.934   6.164
 5767POPC   GL272926   8.985  15.871   6.164
 5767POPC   C1A72927   8.963  16.003   6.464
 5767POPC   D2A72928   9.019  15.910   6.764
 5767POPC   C3A72929   8.945  15.999   7.064
 5767POPC   C4A72930   8.994  15.987   7.364
 5767POPC   C1B72931   9.025  15.706   6.464
 5767POPC   C2B72932   9.064  15.737   6.764
 5767POPC   C3B72933   9.067  15.753   7.064
 5767POPC   C4B72934   9.117  15.680   7.364
 5768POPC   NC372935  39.232  31.441   5.564
 5768POPC   PO472936  39.222  31.445   5.864
 5768POPC   GL172937  39.233  31.522   6.164
 5768POPC   GL272938  39.162  31.372   6.164
 5768POPC   C1A72939  39.186  31.482   6.464
 5768POPC   D2A72940  39.193  31.521   6.764
 5768POPC   C3A72941  39.280  31.502   7.064
 5768POPC   C4A72942  39.280  31.493   7.364
 5768POPC   C1B72943  39.079  31.313   6.464
 5768POPC   C2B72944  39.025  31.329   6.764
 5768POPC   C3B72945  39.080  31.267   7.064
 5768POPC   C4B72946  39.104  31.247   7.364
 5769POPC   NC372947  37.637  12.805   5.564
 5769POPC   PO472948  37.654  12.851   5.864
 5769POPC   GL172949  37.642  12.878   6.164
 5769POPC   GL272950  37.584  12.957   6.164
 5769POPC   C1A72951  37.697  12.856   6.464
 5769POPC   D2A72952  37.666  12.853   6.764
 5769POPC   C3A72953  37.683  12.835   7.064
 5769POPC   C4A72954  37.714  12.900   7.364
 5769POPC   C1B72955  37.541  13.015   6.464
 5769POPC   C2B72956  37.508  13.073   6.764
 5769POPC   C3B72957  37.528  13.010   7.064
 5769POPC   C4B72958  37.501  13.024   7.364
 5770POPC   NC372959  12.070  24.537   5.564
 5770POPC   PO472960  12.090  24.466   5.864
 5770POPC   GL172961  12.124  24.490   6.164
 5770POPC   GL272962  12.027  24.334   6.164
 5770POPC   C1A72963  12.110  24.500   6.464
 5770POPC   D2A72964  12.125  24.516   6.764
 5770POPC   C3A72965  12.093  24.483   7.064
 5770POPC   C4A72966  12.103  24.511   7.364
 5770POPC   C1B72967  11.931  24.237   6.464
 5770POPC   C2B72968  11.974  24.311   6.764
 5770POPC   C3B72969  11.923  24.290   7.064
 5770POPC   C4B72970  12.012  24.248   7.364
 5771POPC   NC372971  30.648  15.910   5.564
 5771POPC   PO472972  30.688  15.998   5.864
 5771POPC   GL172973  30.707  15.938   6.164
 5771POPC   GL272974  30.555  15.957   6.164
 5771POPC   C1A72975  30.718  15.936   6.464
 5771POPC   D2A72976  30.706  15.955   6.764
 5771POPC   C3A72977  30.670  15.948   7.064
 5771POPC   C4A72978  30.720  15.983   7.364
 5771POPC   C1B72979  30.511  15.842   6.464
 5771POPC   C2B72980  30.486  15.848   6.764
 5771POPC   C3B72981  30.462  15.910   7.064
 5771POPC   C4B72982  30.506  15.839   7.364
 5772POPC   NC372983  12.086  15.185   5.564
 5772POPC   PO472984  12.086  15.211   5.864
 5772POPC   GL172985  12.055  15.165   6.164
 5772POPC   GL272986  12.163  15.315   6.164
 5772POPC   C1A72987  12.116  15.169   6.464
 5772POPC   D2A72988  12.030  15.220   6.764
 5772POPC   C3A72989  12.053  15.194   7.064
 5772POPC   C4A72990  12.092  15.215   7.364
 5772POPC   C1B72991  12.217  15.429   6.464
 5772POPC   C2B72992  12.249  15.413   6.764
 5772POPC   C3B72993  12.247  15.384   7.064
 5772POPC   C4B72994  12.211  15.347   7.364
 5773POPC   NC372995  26.014   6.654   5.564
 5773POPC   PO472996  25.994   6.597   5.864
 5773POPC   GL172997  26.076   6.689   6.164
 5773POPC   GL272998  25.999   6.756   6.164
 5773POPC   C1A72999  26.046   6.618   6.464
 5773POPC   D2A73000  26.061   6.632   6.764
 5773POPC   C3A73001  26.077   6.615   7.064
 5773POPC   C4A73002  26.078   6.656   7.364
 5773POPC   C1B73003  25.850   6.772   6.464
 5773POPC   C2B73004  25.882   6.811   6.764
 5773POPC   C3B73005  25.836   6.828   7.064
 5773POPC   C4B73006  25.907   6.769   7.364
 5774POPC   NC373007  33.074   1.181   5.564
 5774POPC   PO473008  33.017   1.210   5.864
 5774POPC   GL173009  33.012   1.214   6.164
 5774POPC   GL273010  33.027   1.314   6.164
 5774POPC   C1A73011  33.007   1.244   6.464
 5774POPC   D2A73012  33.037   1.167   6.764
 5774POPC   C3A73013  33.058   1.220   7.064
 5774POPC   C4A73014  32.983   1.229   7.364
 5774POPC   C1B73015  32.952   1.474   6.464
 5774POPC   C2B73016  32.909   1.473   6.764
 5774POPC   C3B73017  32.979   1.500   7.064
 5774POPC   C4B73018  32.958   1.488   7.364
 5775POPC   NC373019  11.340  18.247   5.564
 5775POPC   PO473020  11.333  18.297   5.864
 5775POPC   GL173021  11.254  18.333   6.164
 5775POPC   GL273022  11.422  18.409   6.164
 5775POPC   C1A73023  11.320  18.307   6.464
 5775POPC   D2A73024  11.252  18.315   6.764
 5775POPC   C3A73025  11.294  18.237   7.064
 5775POPC   C4A73026  11.290  18.267   7.364
 5775POPC   C1B73027  11.506  18.417   6.464
 5775POPC   C2B73028  11.452  18.505   6.764
 5775POPC   C3B73029  11.499  18.483   7.064
 5775POPC   C4B73030  11.449  18.426   7.364
 5776POPC   NC373031  26.052  12.900   5.564
 5776POPC   PO473032  26.072  12.886   5.864
 5776POPC   GL173033  26.091  12.831   6.164
 5776POPC   GL273034  26.200  12.861   6.164
 5776POPC   C1A73035  26.070  12.884   6.464
 5776POPC   D2A73036  26.031  12.861   6.764
 5776POPC   C3A73037  26.029  12.878   7.064
 5776POPC   C4A73038  26.091  12.871   7.364
 5776POPC   C1B73039  26.244  12.913   6.464
 5776POPC   C2B73040  26.295  12.979   6.764
 5776POPC   C3B73041  26.287  12.943   7.064
 5776POPC   C4B73042  26.229  12.892   7.364
 5777POPC   NC373043  33.046   3.543   5.564
 5777POPC   PO473044  33.038   3.574   5.864
 5777POPC   GL173045  33.031   3.501   6.164
 5777POPC   GL273046  32.922   3.532   6.164
 5777POPC   C1A73047  32.975   3.492   6.464
 5777POPC   D2A73048  33.066   3.541   6.764
 5777POPC   C3A73049  33.066   3.522   7.064
 5777POPC   C4A73050  33.004   3.577   7.364
 5777POPC   C1B73051  32.782   3.424   6.464
 5777POPC   C2B73052  32.837   3.422   6.764
 5777POPC   C3B73053  32.773   3.491   7.064
 5777POPC   C4B73054  32.762   3.448   7.364
 5778POPC   NC373055  43.874  35.336   5.564
 5778POPC   PO473056  43.837  35.389   5.864
 5778POPC   GL173057  43.875  35.312   6.164
 5778POPC   GL273058  43.796  35.383   6.164
 5778POPC   C1A73059  43.904  35.323   6.464
 5778POPC   D2A73060  43.891  35.313   6.764
 5778POPC   C3A73061  43.886  35.321   7.064
 5778POPC   C4A73062  43.860  35.379   7.364
 5778POPC   C1B73063  43.722  35.549   6.464
 5778POPC   C2B73064  43.654  35.486   6.764
 5778POPC   C3B73065  43.740  35.474   7.064
 5778POPC   C4B73066  43.680  35.468   7.364
 5779POPC   NC373067   8.225  35.347   5.564
 5779POPC   PO473068   8.164  35.380   5.864
 5779POPC   GL173069   8.228  35.316   6.164
 5779POPC   GL273070   8.065  35.260   6.164
 5779POPC   C1A73071   8.211  35.392   6.464
 5779POPC   D2A73072   8.221  35.312   6.764
 5779POPC   C3A73073   8.222  35.305   7.064
 5779POPC   C4A73074   8.196  35.371   7.364
 5779POPC   C1B73075   7.945  35.234   6.464
 5779POPC   C2B73076   8.009  35.200   6.764
 5779POPC   C3B73077   8.005  35.281   7.064
 5779POPC   C4B73078   7.934  35.196   7.364
 5780POPC   NC373079  20.637  31.455   5.564
 5780POPC   PO473080  20.606  31.465   5.864
 5780POPC   GL173081  20.620  31.465   6.164
 5780POPC   GL273082  20.612  31.340   6.164
 5780POPC   C1A73083  20.649  31.467   6.464
 5780POPC   D2A73084  20.610  31.483   6.764
 5780POPC   C3A73085  20.581  31.439   7.064
 5780POPC   C4A73086  20.655  31.457   7.364
 5780POPC   C1B73087  20.576  31.267   6.464
 5780POPC   C2B73088  20.547  31.229   6.764
 5780POPC   C3B73089  20.596  31.222   7.064
 5780POPC   C4B73090  20.535  31.203   7.364
 5781POPC   NC373091   2.035  19.851   5.564
 5781POPC   PO473092   2.014  19.847   5.864
 5781POPC   GL173093   2.021  19.829   6.164
 5781POPC   GL273094   1.917  19.734   6.164
 5781POPC   C1A73095   2.003  19.873   6.464
 5781POPC   D2A73096   2.015  19.848   6.764
 5781POPC   C3A73097   2.010  19.797   7.064
 5781POPC   C4A73098   1.960  19.826   7.364
 5781POPC   C1B73099   1.822  19.709   6.464
 5781POPC   C2B73100   1.754  19.730   6.764
 5781POPC   C3B73101   1.798  19.651   7.064
 5781POPC   C4B73102   1.755  19.705   7.364
 5782POPC   NC373103  15.907  29.116   5.564
 5782POPC   PO473104  15.922  29.108   5.864
 5782POPC   GL173105  15.949  29.191   6.164
 5782POPC   GL273106  16.014  29.191   6.164
 5782POPC   C1A73107  15.989  29.179   6.464
 5782POPC   D2A73108  15.960  29.184   6.764
 5782POPC   C3A73109  15.973  29.116   7.064
 5782POPC   C4A73110  15.961  29.123   7.364
 5782POPC   C1B73111  16.132  29.308   6.464
 5782POPC   C2B73112  16.201  29.259   6.764
 5782POPC   C3B73113  16.129  29.312   7.064
 5782POPC   C4B73114  16.168  29.296   7.364
 5783POPC   NC373115  13.677  23.716   5.564
 5783POPC   PO473116  13.596  23.702   5.864
 5783POPC   GL173117  13.613  23.695   6.164
 5783POPC   GL273118  13.629  23.620   6.164
 5783POPC   C1A73119  13.639  23.697   6.464
 5783POPC   D2A73120  13.665  23.704   6.764
 5783POPC   C3A73121  13.675  23.678   7.064
 5783POPC   C4A73122  13.585  23.698   7.364
 5783POPC   C1B73123  13.549  23.496   6.464
 5783POPC   C2B73124  13.525  23.474   6.764
 5783POPC   C3B73125  13.554  23.482   7.064
 5783POPC   C4B73126  13.586  23.492   7.364
 5784POPC   NC373127  31.518  18.244   5.564
 5784POPC   PO473128  31.507  18.296   5.864
 5784POPC   GL173129  31.457  18.301   6.164
 5784POPC   GL273130  31.570  18.353   6.164
 5784POPC   C1A73131  31.447  18.256   6.464
 5784POPC   D2A73132  31.489  18.326   6.764
 5784POPC   C3A73133  31.441  18.245   7.064
 5784POPC   C4A73134  31.474  18.289   7.364
 5784POPC   C1B73135  31.659  18.447   6.464
 5784POPC   C2B73136  31.715  18.430   6.764
 5784POPC   C3B73137  31.650  18.380   7.064
 5784POPC   C4B73138  31.648  18.431   7.364
 5785POPC   NC373139  28.385  24.514   5.564
 5785POPC   PO473140  28.356  24.533   5.864
 5785POPC   GL173141  28.391  24.539   6.164
 5785POPC   GL273142  28.468  24.393   6.164
 5785POPC   C1A73143  28.343  24.484   6.464
 5785POPC   D2A73144  28.397  24.492   6.764
 5785POPC   C3A73145  28.380  24.487   7.064
 5785POPC   C4A73146  28.373  24.444   7.364
 5785POPC   C1B73147  28.540  24.337   6.464
 5785POPC   C2B73148  28.509  24.268   6.764
 5785POPC   C3B73149  28.548  24.271   7.064
 5785POPC   C4B73150  28.511  24.284   7.364
 5786POPC   NC373151   5.917  10.537   5.564
 5786POPC   PO473152   5.848  10.490   5.864
 5786POPC   GL173153   5.902  10.501   6.164
 5786POPC   GL273154   5.785  10.450   6.164
 5786POPC   C1A73155   5.861  10.501   6.464
 5786POPC   D2A73156   5.865  10.488   6.764
 5786POPC   C3A73157   5.822  10.537   7.064
 5786POPC   C4A73158   5.908  10.479   7.364
 5786POPC   C1B73159   5.723  10.379   6.464
 5786POPC   C2B73160   5.752  10.343   6.764
 5786POPC   C3B73161   5.692  10.314   7.064
 5786POPC   C4B73162   5.694  10.345   7.364
 5787POPC   NC373163   2.017   9.758   5.564
 5787POPC   PO473164   2.000   9.726   5.864
 5787POPC   GL173165   1.968   9.749   6.164
 5787POPC   GL273166   2.078   9.846   6.164
 5787POPC   C1A73167   2.038   9.739   6.464
 5787POPC   D2A73168   1.994   9.714   6.764
 5787POPC   C3A73169   1.959   9.730   7.064
 5787POPC   C4A73170   2.031   9.708   7.364
 5787POPC   C1B73171   2.208   9.883   6.464
 5787POPC   C2B73172   2.160   9.870   6.764
 5787POPC   C3B73173   2.168   9.930   7.064
 5787POPC   C4B73174   2.214   9.952   7.364
 5788POPC   NC373175   8.206  25.275   5.564
 5788POPC   PO473176   8.157  25.249   5.864
 5788POPC   GL173177   8.210  25.218   6.164
 5788POPC   GL273178   8.146  25.427   6.164
 5788POPC   C1A73179   8.234  25.233   6.464
 5788POPC   D2A73180   8.222  25.239   6.764
 5788POPC   C3A73181   8.196  25.274   7.064
 5788POPC   C4A73182   8.234  25.285   7.364
 5788POPC   C1B73183   8.149  25.484   6.464
 5788POPC   C2B73184   8.222  25.499   6.764
 5788POPC   C3B73185   8.219  25.537   7.064
 5788POPC   C4B73186   8.165  25.478   7.364
 5789POPC   NC373187  24.518  26.855   5.564
 5789POPC   PO473188  24.476  26.776   5.864
 5789POPC   GL173189  24.457  26.841   6.164
 5789POPC   GL273190  24.539  26.743   6.164
 5789POPC   C1A73191  24.511  26.849   6.464
 5789POPC   D2A73192  24.502  26.840   6.764
 5789POPC   C3A73193  24.465  26.818   7.064
 5789POPC   C4A73194  24.492  26.779   7.364
 5789POPC   C1B73195  24.529  26.553   6.464
 5789POPC   C2B73196  24.498  26.597   6.764
 5789POPC   C3B73197  24.564  26.531   7.064
 5789POPC   C4B73198  24.494  26.523   7.364
 5790POPC   NC373199  33.022  44.617   5.564
 5790POPC   PO473200  33.040  44.639   5.864
 5790POPC   GL173201  33.017  44.690   6.164
 5790POPC   GL273202  32.915  44.771   6.164
 5790POPC   C1A73203  33.020  44.702   6.464
 5790POPC   D2A73204  33.027  44.648   6.764
 5790POPC   C3A73205  33.021  44.639   7.064
 5790POPC   C4A73206  33.040  44.675   7.364
 5790POPC   C1B73207  32.809  44.876   6.464
 5790POPC   C2B73208  32.891  44.826   6.764
 5790POPC   C3B73209  32.876  44.832   7.064
 5790POPC   C4B73210  32.867  44.807   7.364
 5791POPC   NC373211  19.791   9.749   5.564
 5791POPC   PO473212  19.869   9.751   5.864
 5791POPC   GL173213  19.787   9.772   6.164
 5791POPC   GL273214  19.810   9.677   6.164
 5791POPC   C1A73215  19.815   9.790   6.464
 5791POPC   D2A73216  19.784   9.730   6.764
 5791POPC   C3A73217  19.815   9.755   7.064
 5791POPC   C4A73218  19.847   9.719   7.364
 5791POPC   C1B73219  19.671   9.546   6.464
 5791POPC   C2B73220  19.700   9.550   6.764
 5791POPC   C3B73221  19.682   9.533   7.064
 5791POPC   C4B73222  19.722   9.525   7.364
 5792POPC   NC373223  16.727  31.453   5.564
 5792POPC   PO473224  16.689  31.454   5.864
 5792POPC   GL173225  16.738  31.437   6.164
 5792POPC   GL273226  16.866  31.522   6.164
 5792POPC   C1A73227  16.700  31.456   6.464
 5792POPC   D2A73228  16.731  31.457   6.764
 5792POPC   C3A73229  16.709  31.427   7.064
 5792POPC   C4A73230  16.729  31.470   7.364
 5792POPC   C1B73231  17.025  31.542   6.464
 5792POPC   C2B73232  17.027  31.541   6.764
 5792POPC   C3B73233  17.028  31.555   7.064
 5792POPC   C4B73234  17.006  31.475   7.364
 5793POPC   NC373235  16.686  24.472   5.564
 5793POPC   PO473236  16.734  24.489   5.864
 5793POPC   GL173237  16.705  24.501   6.164
 5793POPC   GL273238  16.825  24.404   6.164
 5793POPC   C1A73239  16.685  24.466   6.464
 5793POPC   D2A73240  16.688  24.446   6.764
 5793POPC   C3A73241  16.696  24.455   7.064
 5793POPC   C4A73242  16.685  24.536   7.364
 5793POPC   C1B73243  16.933  24.373   6.464
 5793POPC   C2B73244  16.980  24.373   6.764
 5793POPC   C3B73245  16.943  24.372   7.064
 5793POPC   C4B73246  16.977  24.462   7.364
 5794POPC   NC373247   7.456  19.062   5.564
 5794POPC   PO473248   7.426  19.048   5.864
 5794POPC   GL173249   7.405  19.016   6.164
 5794POPC   GL273250   7.514  19.000   6.164
 5794POPC   C1A73251   7.430  19.090   6.464
 5794POPC   D2A73252   7.467  19.017   6.764
 5794POPC   C3A73253   7.420  19.012   7.064
 5794POPC   C4A73254   7.376  19.027   7.364
 5794POPC   C1B73255   7.688  19.023   6.464
 5794POPC   C2B73256   7.659  19.015   6.764
 5794POPC   C3B73257   7.702  19.045   7.064
 5794POPC   C4B73258   7.713  19.048   7.364
 5795POPC   NC373259  13.669  42.313   5.564
 5795POPC   PO473260  13.662  42.319   5.864
 5795POPC   GL173261  13.641  42.328   6.164
 5795POPC   GL273262  13.536  42.282   6.164
 5795POPC   C1A73263  13.600  42.321   6.464
 5795POPC   D2A73264  13.658  42.340   6.764
 5795POPC   C3A73265  13.675  42.294   7.064
 5795POPC   C4A73266  13.580  42.323   7.364
 5795POPC   C1B73267  13.411  42.223   6.464
 5795POPC   C2B73268  13.473  42.223   6.764
 5795POPC   C3B73269  13.445  42.131   7.064
 5795POPC   C4B73270  13.463  42.166   7.364
 5796POPC   NC373271  25.285   4.282   5.564
 5796POPC   PO473272  25.287   4.327   5.864
 5796POPC   GL173273  25.224   4.298   6.164
 5796POPC   GL273274  25.127   4.317   6.164
 5796POPC   C1A73275  25.280   4.331   6.464
 5796POPC   D2A73276  25.304   4.296   6.764
 5796POPC   C3A73277  25.260   4.341   7.064
 5796POPC   C4A73278  25.253   4.298   7.364
 5796POPC   C1B73279  25.069   4.184   6.464
 5796POPC   C2B73280  25.060   4.277   6.764
 5796POPC   C3B73281  25.018   4.275   7.064
 5796POPC   C4B73282  25.002   4.179   7.364
 5797POPC   NC373283  42.304  10.502   5.564
 5797POPC   PO473284  42.342  10.482   5.864
 5797POPC   GL173285  42.323  10.545   6.164
 5797POPC   GL273286  42.399  10.463   6.164
 5797POPC   C1A73287  42.343  10.574   6.464
 5797POPC   D2A73288  42.287  10.543   6.764
 5797POPC   C3A73289  42.384  10.516   7.064
 5797POPC   C4A73290  42.339  10.475   7.364
 5797POPC   C1B73291  42.479  10.345   6.464
 5797POPC   C2B73292  42.503  10.370   6.764
 5797POPC   C3B73293  42.547  10.372   7.064
 5797POPC   C4B73294  42.562  10.323   7.364
 5798POPC   NC373295  34.617  22.149   5.564
 5798POPC   PO473296  34.594  22.170   5.864
 5798POPC   GL173297  34.547  22.149   6.164
 5798POPC   GL273298  34.545  22.235   6.164
 5798POPC   C1A73299  34.564  22.209   6.464
 5798POPC   D2A73300  34.569  22.175   6.764
 5798POPC   C3A73301  34.616  22.178   7.064
 5798POPC   C4A73302  34.531  22.134   7.364
 5798POPC   C1B73303  34.447  22.344   6.464
 5798POPC   C2B73304  34.521  22.420   6.764
 5798POPC   C3B73305  34.492  22.426   7.064
 5798POPC   C4B73306  34.526  22.411   7.364
 5799POPC   NC373307  40.770   2.773   5.564
 5799POPC   PO473308  40.774   2.812   5.864
 5799POPC   GL173309  40.791   2.753   6.164
 5799POPC   GL273310  40.935   2.789   6.164
 5799POPC   C1A73311  40.757   2.806   6.464
 5799POPC   D2A73312  40.795   2.784   6.764
 5799POPC   C3A73313  40.785   2.778   7.064
 5799POPC   C4A73314  40.777   2.770   7.364
 5799POPC   C1B73315  40.992   2.784   6.464
 5799POPC   C2B73316  41.026   2.751   6.764
 5799POPC   C3B73317  41.008   2.761   7.064
 5799POPC   C4B73318  41.081   2.827   7.364
 5800POPC   NC373319   7.418  40.776   5.564
 5800POPC   PO473320   7.452  40.774   5.864
 5800POPC   GL173321   7.408  40.767   6.164
 5800POPC   GL273322   7.446  40.672   6.164
 5800POPC   C1A73323   7.429  40.821   6.464
 5800POPC   D2A73324   7.459  40.799   6.764
 5800POPC   C3A73325   7.407  40.781   7.064
 5800POPC   C4A73326   7.412  40.747   7.364
 5800POPC   C1B73327   7.440  40.558   6.464
 5800POPC   C2B73328   7.425  40.551   6.764
 5800POPC   C3B73329   7.407  40.548   7.064
 5800POPC   C4B73330   7.413  40.514   7.364
 5801POPC   NC373331  16.758  33.825   5.564
 5801POPC   PO473332  16.708  33.834   5.864
 5801POPC   GL173333  16.705  33.777   6.164
 5801POPC   GL273334  16.851  33.845   6.164
 5801POPC   C1A73335  16.769  33.825   6.464
 5801POPC   D2A73336  16.713  33.800   6.764
 5801POPC   C3A73337  16.721  33.836   7.064
 5801POPC   C4A73338  16.712  33.842   7.364
 5801POPC   C1B73339  16.957  33.813   6.464
 5801POPC   C2B73340  16.928  33.881   6.764
 5801POPC   C3B73341  16.992  33.802   7.064
 5801POPC   C4B73342  16.971  33.843   7.364
 5802POPC   NC373343  18.317  30.682   5.564
 5802POPC   PO473344  18.291  30.746   5.864
 5802POPC   GL173345  18.321  30.670   6.164
 5802POPC   GL273346  18.125  30.649   6.164
 5802POPC   C1A73347  18.299  30.667   6.464
 5802POPC   D2A73348  18.312  30.737   6.764
 5802POPC   C3A73349  18.293  30.746   7.064
 5802POPC   C4A73350  18.310  30.687   7.364
 5802POPC   C1B73351  18.023  30.663   6.464
 5802POPC   C2B73352  17.985  30.711   6.764
 5802POPC   C3B73353  18.023  30.644   7.064
 5802POPC   C4B73354  18.065  30.631   7.364
 5803POPC   NC373355  29.888  39.200   5.564
 5803POPC   PO473356  29.964  39.271   5.864
 5803POPC   GL173357  29.939  39.260   6.164
 5803POPC   GL273358  30.087  39.266   6.164
 5803POPC   C1A73359  29.949  39.269   6.464
 5803POPC   D2A73360  29.874  39.210   6.764
 5803POPC   C3A73361  29.871  39.187   7.064
 5803POPC   C4A73362  29.883  39.274   7.364
 5803POPC   C1B73363  30.148  39.254   6.464
 5803POPC   C2B73364  30.205  39.271   6.764
 5803POPC   C3B73365  30.134  39.271   7.064
 5803POPC   C4B73366  30.169  39.267   7.364
 5804POPC   NC373367  21.414  29.142   5.564
 5804POPC   PO473368  21.426  29.183   5.864
 5804POPC   GL173369  21.362  29.119   6.164
 5804POPC   GL273370  21.464  29.078   6.164
 5804POPC   C1A73371  21.429  29.155   6.464
 5804POPC   D2A73372  21.385  29.152   6.764
 5804POPC   C3A73373  21.396  29.111   7.064
 5804POPC   C4A73374  21.432  29.169   7.364
 5804POPC   C1B73375  21.480  28.911   6.464
 5804POPC   C2B73376  21.547  28.912   6.764
 5804POPC   C3B73377  21.460  28.931   7.064
 5804POPC   C4B73378  21.533  28.915   7.364
 5805POPC   NC373379  28.386   7.458   5.564
 5805POPC   PO473380  28.396   7.384   5.864
 5805POPC   GL173381  28.330   7.443   6.164
 5805POPC   GL273382  28.408   7.564   6.164
 5805POPC   C1A73383  28.368   7.440   6.464
 5805POPC   D2A73384  28.417   7.416   6.764
 5805POPC   C3A73385  28.389   7.377   7.064
 5805POPC   C4A73386  28.415   7.388   7.364
 5805POPC   C1B73387  28.409   7.624   6.464
 5805POPC   C2B73388  28.352   7.662   6.764
 5805POPC   C3B73389  28.430   7.656   7.064
 5805POPC   C4B73390  28.400   7.688   7.364
 5806POPC   NC373391  17.525  31.424   5.564
 5806POPC   PO473392  17.464  31.457   5.864
 5806POPC   GL173393  17.464  31.443   6.164
 5806POPC   GL273394  17.436  31.584   6.164
 5806POPC   C1A73395  17.532  31.485   6.464
 5806POPC   D2A73396  17.463  31.494   6.764
 5806POPC   C3A73397  17.551  31.517   7.064
 5806POPC   C4A73398  17.477  31.488   7.364
 5806POPC   C1B73399  17.380  31.617   6.464
 5806POPC   C2B73400  17.379  31.664   6.764
 5806POPC   C3B73401  17.387  31.697   7.064
 5806POPC   C4B73402  17.351  31.698   7.364
 5807POPC   NC373403  23.711  32.275   5.564
 5807POPC   PO473404  23.745  32.293   5.864
 5807POPC   GL173405  23.689  32.230   6.164
 5807POPC   GL273406  23.601  32.215   6.164
 5807POPC   C1A73407  23.682  32.252   6.464
 5807POPC   D2A73408  23.728  32.267   6.764
 5807POPC   C3A73409  23.672  32.261   7.064
 5807POPC   C4A73410  23.685  32.296   7.364
 5807POPC   C1B73411  23.415  32.200   6.464
 5807POPC   C2B73412  23.434  32.238   6.764
 5807POPC   C3B73413  23.508  32.260   7.064
 5807POPC   C4B73414  23.425  32.196   7.364
 5808POPC   NC373415  22.138  16.778   5.564
 5808POPC   PO473416  22.197  16.724   5.864
 5808POPC   GL173417  22.121  16.763   6.164
 5808POPC   GL273418  22.075  16.667   6.164
 5808POPC   C1A73419  22.180  16.691   6.464
 5808POPC   D2A73420  22.164  16.699   6.764
 5808POPC   C3A73421  22.190  16.733   7.064
 5808POPC   C4A73422  22.163  16.731   7.364
 5808POPC   C1B73423  22.009  16.473   6.464
 5808POPC   C2B73424  22.042  16.507   6.764
 5808POPC   C3B73425  21.996  16.477   7.064
 5808POPC   C4B73426  22.006  16.498   7.364
 5809POPC   NC373427  44.622  42.320   5.564
 5809POPC   PO473428  44.681  42.322   5.864
 5809POPC   GL173429  44.638  42.369   6.164
 5809POPC   GL273430  44.660  42.251   6.164
 5809POPC   C1A73431  44.682  42.312   6.464
 5809POPC   D2A73432  44.695  42.349   6.764
 5809POPC   C3A73433  44.681  42.378   7.064
 5809POPC   C4A73434  44.635  42.363   7.364
 5809POPC   C1B73435  44.653  42.057   6.464
 5809POPC   C2B73436  44.660  42.049   6.764
 5809POPC   C3B73437  44.715  42.106   7.064
 5809POPC   C4B73438  44.665  42.067   7.364
 5810POPC   NC373439   5.128  17.522   5.564
 5810POPC   PO473440   5.092  17.486   5.864
 5810POPC   GL173441   5.094  17.460   6.164
 5810POPC   GL273442   5.006  17.602   6.164
 5810POPC   C1A73443   5.094  17.556   6.464
 5810POPC   D2A73444   5.094  17.477   6.764
 5810POPC   C3A73445   5.048  17.458   7.064
 5810POPC   C4A73446   5.078  17.482   7.364
 5810POPC   C1B73447   4.941  17.763   6.464
 5810POPC   C2B73448   4.920  17.754   6.764
 5810POPC   C3B73449   4.965  17.744   7.064
 5810POPC   C4B73450   4.998  17.748   7.364
 5811POPC   NC373451   7.409  25.248   5.564
 5811POPC   PO473452   7.396  25.314   5.864
 5811POPC   GL173453   7.438  25.246   6.164
 5811POPC   GL273454   7.439  25.132   6.164
 5811POPC   C1A73455   7.420  25.216   6.464
 5811POPC   D2A73456   7.432  25.299   6.764
 5811POPC   C3A73457   7.444  25.242   7.064
 5811POPC   C4A73458   7.389  25.240   7.364
 5811POPC   C1B73459   7.401  24.989   6.464
 5811POPC   C2B73460   7.368  25.019   6.764
 5811POPC   C3B73461   7.429  25.052   7.064
 5811POPC   C4B73462   7.428  25.026   7.364
 5812POPC   NC373463   1.235   1.228   5.564
 5812POPC   PO473464   1.186   1.244   5.864
 5812POPC   GL173465   1.255   1.178   6.164
 5812POPC   GL273466   1.145   1.280   6.164
 5812POPC   C1A73467   1.210   1.218   6.464
 5812POPC   D2A73468   1.220   1.249   6.764
 5812POPC   C3A73469   1.260   1.165   7.064
 5812POPC   C4A73470   1.238   1.236   7.364
 5812POPC   C1B73471   0.983   1.382   6.464
 5812POPC   C2B73472   0.992   1.322   6.764
 5812POPC   C3B73473   1.046   1.311   7.064
 5812POPC   C4B73474   1.047   1.309   7.364
 5813POPC   NC373475  29.164   1.979   5.564
 5813POPC   PO473476  29.182   1.942   5.864
 5813POPC   GL173477  29.184   2.028   6.164
 5813POPC   GL273478  29.215   2.069   6.164
 5813POPC   C1A73479  29.148   2.033   6.464
 5813POPC   D2A73480  29.111   1.955   6.764
 5813POPC   C3A73481  29.116   2.008   7.064
 5813POPC   C4A73482  29.192   2.001   7.364
 5813POPC   C1B73483  29.314   2.130   6.464
 5813POPC   C2B73484  29.351   2.140   6.764
 5813POPC   C3B73485  29.304   2.095   7.064
 5813POPC   C4B73486  29.352   2.174   7.364
 5814POPC   NC373487  15.155  38.434   5.564
 5814POPC   PO473488  15.166  38.486   5.864
 5814POPC   GL173489  15.142  38.465   6.164
 5814POPC   GL273490  15.282  38.479   6.164
 5814POPC   C1A73491  15.192  38.504   6.464
 5814POPC   D2A73492  15.134  38.452   6.764
 5814POPC   C3A73493  15.152  38.482   7.064
 5814POPC   C4A73494  15.194  38.462   7.364
 5814POPC   C1B73495  15.430  38.530   6.464
 5814POPC   C2B73496  15.384  38.522   6.764
 5814POPC   C3B73497  15.455  38.499   7.064
 5814POPC   C4B73498  15.420  38.470   7.364
 5815POPC   NC373499  36.910  41.524   5.564
 5815POPC   PO473500  36.902  41.554   5.864
 5815POPC   GL173501  36.936  41.531   6.164
 5815POPC   GL273502  36.989  41.524   6.164
 5815POPC   C1A73503  36.891  41.589   6.464
 5815POPC   D2A73504  36.877  41.593   6.764
 5815POPC   C3A73505  36.908  41.574   7.064
 5815POPC   C4A73506  36.925  41.571   7.364
 5815POPC   C1B73507  37.173  41.595   6.464
 5815POPC   C2B73508  37.188  41.587   6.764
 5815POPC   C3B73509  37.186  41.558   7.064
 5815POPC   C4B73510  37.179  41.615   7.364
 5816POPC   NC373511   5.094  33.058   5.564
 5816POPC   PO473512   5.129  32.975   5.864
 5816POPC   GL173513   5.056  33.031   6.164
 5816POPC   GL273514   5.166  32.936   6.164
 5816POPC   C1A73515   5.081  33.038   6.464
 5816POPC   D2A73516   5.059  32.982   6.764
 5816POPC   C3A73517   5.101  33.064   7.064
 5816POPC   C4A73518   5.097  33.003   7.364
 5816POPC   C1B73519   5.258  32.808   6.464
 5816POPC   C2B73520   5.258  32.825   6.764
 5816POPC   C3B73521   5.200  32.846   7.064
 5816POPC   C4B73522   5.279  32.792   7.364
 5817POPC   NC373523  27.585   1.194   5.564
 5817POPC   PO473524  27.563   1.231   5.864
 5817POPC   GL173525  27.626   1.190   6.164
 5817POPC   GL273526  27.434   1.223   6.164
 5817POPC   C1A73527  27.615   1.234   6.464
 5817POPC   D2A73528  27.584   1.192   6.764
 5817POPC   C3A73529  27.599   1.193   7.064
 5817POPC   C4A73530  27.556   1.254   7.364
 5817POPC   C1B73531  27.366   1.223   6.464
 5817POPC   C2B73532  27.388   1.254   6.764
 5817POPC   C3B73533  27.393   1.232   7.064
 5817POPC   C4B73534  27.333   1.176   7.364
 5818POPC   NC373535  23.716  29.880   5.564
 5818POPC   PO473536  23.679  29.950   5.864
 5818POPC   GL173537  23.724  29.896   6.164
 5818POPC   GL273538  23.686  30.043   6.164
 5818POPC   C1A73539  23.760  29.960   6.464
 5818POPC   D2A73540  23.679  29.906   6.764
 5818POPC   C3A73541  23.688  29.935   7.064
 5818POPC   C4A73542  23.721  29.944   7.364
 5818POPC   C1B73543  23.576  30.092   6.464
 5818POPC   C2B73544  23.581  30.162   6.764
 5818POPC   C3B73545  23.563  30.109   7.064
 5818POPC   C4B73546  23.594  30.132   7.364
 5819POPC   NC373547   6.600   2.794   5.564
 5819POPC   PO473548   6.648   2.793   5.864
 5819POPC   GL173549   6.616   2.787   6.164
 5819POPC   GL273550   6.486   2.776   6.164
 5819POPC   C1A73551   6.682   2.800   6.464
 5819POPC   D2A73552   6.694   2.761   6.764
 5819POPC   C3A73553   6.623   2.782   7.064
 5819POPC   C4A73554   6.638   2.783   7.364
 5819POPC   C1B73555   6.393   2.928   6.464
 5819POPC   C2B73556   6.380   2.918   6.764
 5819POPC   C3B73557   6.435   2.930   7.064
 5819POPC   C4B73558   6.405   2.909   7.364
 5820POPC   NC373559  13.598  40.779   5.564
 5820POPC   PO473560  13.672  40.733   5.864
 5820POPC   GL173561  13.604  40.827   6.164
 5820POPC   GL273562  13.537  40.909   6.164
 5820POPC   C1A73563  13.661  40.823   6.464
 5820POPC   D2A73564  13.677  40.810   6.764
 5820POPC   C3A73565  13.618  40.782   7.064
 5820POPC   C4A73566  13.604  40.821   7.364
 5820POPC   C1B73567  13.526  40.992   6.464
 5820POPC   C2B73568  13.556  41.023   6.764
 5820POPC   C3B73569  13.516  40.980   7.064
 5820POPC   C4B73570  13.530  40.969   7.364
 5821POPC   NC373571  34.595  11.261   5.564
 5821POPC   PO473572  34.577  11.255   5.864
 5821POPC   GL173573  34.621  11.349   6.164
 5821POPC   GL273574  34.517  11.386   6.164
 5821POPC   C1A73575  34.608  11.298   6.464
 5821POPC   D2A73576  34.578  11.335   6.764
 5821POPC   C3A73577  34.562  11.282   7.064
 5821POPC   C4A73578  34.562  11.281   7.364
 5821POPC   C1B73579  34.323  11.431   6.464
 5821POPC   C2B73580  34.398  11.449   6.764
 5821POPC   C3B73581  34.311  11.396   7.064
 5821POPC   C4B73582  34.326  11.387   7.364
 5822POPC   NC373583  24.485  16.769   5.564
 5822POPC   PO473584  24.481  16.728   5.864
 5822POPC   GL173585  24.455  16.724   6.164
 5822POPC   GL273586  24.483  16.562   6.164
 5822POPC   C1A73587  24.507  16.723   6.464
 5822POPC   D2A73588  24.469  16.726   6.764
 5822POPC   C3A73589  24.484  16.684   7.064
 5822POPC   C4A73590  24.453  16.700   7.364
 5822POPC   C1B73591  24.447  16.529   6.464
 5822POPC   C2B73592  24.427  16.445   6.764
 5822POPC   C3B73593  24.425  16.435   7.064
 5822POPC   C4B73594  24.444  16.484   7.364
 5823POPC   NC373595  16.739  19.035   5.564
 5823POPC   PO473596  16.703  19.038   5.864
 5823POPC   GL173597  16.743  19.053   6.164
 5823POPC   GL273598  16.602  19.043   6.164
 5823POPC   C1A73599  16.729  19.063   6.464
 5823POPC   D2A73600  16.766  19.037   6.764
 5823POPC   C3A73601  16.726  19.015   7.064
 5823POPC   C4A73602  16.760  19.096   7.364
 5823POPC   C1B73603  16.449  18.976   6.464
 5823POPC   C2B73604  16.491  19.019   6.764
 5823POPC   C3B73605  16.537  18.958   7.064
 5823POPC   C4B73606  16.454  19.016   7.364
 5824POPC   NC373607  30.652  19.803   5.564
 5824POPC   PO473608  30.705  19.881   5.864
 5824POPC   GL173609  30.729  19.851   6.164
 5824POPC   GL273610  30.762  19.987   6.164
 5824POPC   C1A73611  30.745  19.866   6.464
 5824POPC   D2A73612  30.734  19.813   6.764
 5824POPC   C3A73613  30.696  19.821   7.064
 5824POPC   C4A73614  30.725  19.791   7.364
 5824POPC   C1B73615  30.800  20.100   6.464
 5824POPC   C2B73616  30.830  20.071   6.764
 5824POPC   C3B73617  30.771  20.025   7.064
 5824POPC   C4B73618  30.759  20.109   7.364
 5825POPC   NC373619  41.595  22.909   5.564
 5825POPC   PO473620  41.540  22.888   5.864
 5825POPC   GL173621  41.607  22.966   6.164
 5825POPC   GL273622  41.569  23.059   6.164
 5825POPC   C1A73623  41.607  22.912   6.464
 5825POPC   D2A73624  41.563  22.920   6.764
 5825POPC   C3A73625  41.536  22.939   7.064
 5825POPC   C4A73626  41.596  22.929   7.364
 5825POPC   C1B73627  41.559  23.168   6.464
 5825POPC   C2B73628  41.524  23.188   6.764
 5825POPC   C3B73629  41.553  23.228   7.064
 5825POPC   C4B73630  41.526  23.198   7.364
 5826POPC   NC373631  42.343  23.719   5.564
 5826POPC   PO473632  42.336  23.671   5.864
 5826POPC   GL173633  42.317  23.756   6.164
 5826POPC   GL273634  42.443  23.642   6.164
 5826POPC   C1A73635  42.298  23.705   6.464
 5826POPC   D2A73636  42.359  23.694   6.764
 5826POPC   C3A73637  42.369  23.680   7.064
 5826POPC   C4A73638  42.299  23.709   7.364
 5826POPC   C1B73639  42.557  23.602   6.464
 5826POPC   C2B73640  42.547  23.578   6.764
 5826POPC   C3B73641  42.549  23.629   7.064
 5826POPC   C4B73642  42.512  23.595   7.364
 5827POPC   NC373643   9.760  12.809   5.564
 5827POPC   PO473644   9.763  12.855   5.864
 5827POPC   GL173645   9.748  12.857   6.164
 5827POPC   GL273646   9.773  12.784   6.164
 5827POPC   C1A73647   9.711  12.870   6.464
 5827POPC   D2A73648   9.797  12.825   6.764
 5827POPC   C3A73649   9.774  12.851   7.064
 5827POPC   C4A73650   9.711  12.870   7.364
 5827POPC   C1B73651   9.877  12.608   6.464
 5827POPC   C2B73652   9.903  12.598   6.764
 5827POPC   C3B73653   9.886  12.643   7.064
 5827POPC   C4B73654   9.847  12.639   7.364
 5828POPC   NC373655  18.292  18.235   5.564
 5828POPC   PO473656  18.284  18.259   5.864
 5828POPC   GL173657  18.234  18.322   6.164
 5828POPC   GL273658  18.237  18.145   6.164
 5828POPC   C1A73659  18.318  18.300   6.464
 5828POPC   D2A73660  18.312  18.275   6.764
 5828POPC   C3A73661  18.307  18.314   7.064
 5828POPC   C4A73662  18.295  18.310   7.364
 5828POPC   C1B73663  18.215  17.990   6.464
 5828POPC   C2B73664  18.255  18.047   6.764
 5828POPC   C3B73665  18.293  18.003   7.064
 5828POPC   C4B73666  18.210  18.021   7.364
 5829POPC   NC373667  32.230  40.831   5.564
 5829POPC   PO473668  32.202  40.817   5.864
 5829POPC   GL173669  32.265  40.777   6.164
 5829POPC   GL273670  32.107  40.762   6.164
 5829POPC   C1A73671  32.286  40.808   6.464
 5829POPC   D2A73672  32.265  40.826   6.764
 5829POPC   C3A73673  32.215  40.810   7.064
 5829POPC   C4A73674  32.260  40.751   7.364
 5829POPC   C1B73675  31.983  40.726   6.464
 5829POPC   C2B73676  32.001  40.739   6.764
 5829POPC   C3B73677  32.005  40.719   7.064
 5829POPC   C4B73678  31.959  40.770   7.364
 5830POPC   NC373679  17.544  16.723   5.564
 5830POPC   PO473680  17.458  16.745   5.864
 5830POPC   GL173681  17.473  16.732   6.164
 5830POPC   GL273682  17.419  16.727   6.164
 5830POPC   C1A73683  17.505  16.779   6.464
 5830POPC   D2A73684  17.510  16.725   6.764
 5830POPC   C3A73685  17.464  16.713   7.064
 5830POPC   C4A73686  17.544  16.728   7.364
 5830POPC   C1B73687  17.299  16.729   6.464
 5830POPC   C2B73688  17.216  16.800   6.764
 5830POPC   C3B73689  17.306  16.788   7.064
 5830POPC   C4B73690  17.240  16.742   7.364
 5831POPC   NC373691  16.720  32.198   5.564
 5831POPC   PO473692  16.759  32.275   5.864
 5831POPC   GL173693  16.772  32.259   6.164
 5831POPC   GL273694  16.596  32.282   6.164
 5831POPC   C1A73695  16.695  32.201   6.464
 5831POPC   D2A73696  16.736  32.280   6.764
 5831POPC   C3A73697  16.705  32.283   7.064
 5831POPC   C4A73698  16.766  32.277   7.364
 5831POPC   C1B73699  16.528  32.248   6.464
 5831POPC   C2B73700  16.459  32.199   6.764
 5831POPC   C3B73701  16.481  32.251   7.064
 5831POPC   C4B73702  16.502  32.173   7.364
 5832POPC   NC373703  31.519  29.951   5.564
 5832POPC   PO473704  31.485  29.886   5.864
 5832POPC   GL173705  31.446  29.931   6.164
 5832POPC   GL273706  31.529  30.017   6.164
 5832POPC   C1A73707  31.426  29.906   6.464
 5832POPC   D2A73708  31.455  29.922   6.764
 5832POPC   C3A73709  31.482  29.947   7.064
 5832POPC   C4A73710  31.446  29.900   7.364
 5832POPC   C1B73711  31.680  30.016   6.464
 5832POPC   C2B73712  31.728  30.090   6.764
 5832POPC   C3B73713  31.693  30.080   7.064
 5832POPC   C4B73714  31.635  30.062   7.364
 5833POPC   NC373715  40.811  26.807   5.564
 5833POPC   PO473716  40.811  26.771   5.864
 5833POPC   GL173717  40.759  26.798   6.164
 5833POPC   GL273718  40.912  26.890   6.164
 5833POPC   C1A73719  40.768  26.832   6.464
 5833POPC   D2A73720  40.785  26.834   6.764
 5833POPC   C3A73721  40.804  26.824   7.064
 5833POPC   C4A73722  40.759  26.818   7.364
 5833POPC   C1B73723  41.035  26.897   6.464
 5833POPC   C2B73724  40.973  26.906   6.764
 5833POPC   C3B73725  41.070  26.877   7.064
 5833POPC   C4B73726  41.057  26.881   7.364
 5834POPC   NC373727   1.199  29.102   5.564
 5834POPC   PO473728   1.195  29.097   5.864
 5834POPC   GL173729   1.171  29.123   6.164
 5834POPC   GL273730   1.355  29.093   6.164
 5834POPC   C1A73731   1.181  29.166   6.464
 5834POPC   D2A73732   1.181  29.170   6.764
 5834POPC   C3A73733   1.175  29.148   7.064
 5834POPC   C4A73734   1.207  29.097   7.364
 5834POPC   C1B73735   1.453  29.106   6.464
 5834POPC   C2B73736   1.432  29.129   6.764
 5834POPC   C3B73737   1.415  29.067   7.064
 5834POPC   C4B73738   1.409  29.047   7.364
 5835POPC   NC373739  22.212  17.509   5.564
 5835POPC   PO473740  22.176  17.488   5.864
 5835POPC   GL173741  22.169  17.507   6.164
 5835POPC   GL273742  22.119  17.409   6.164
 5835POPC   C1A73743  22.130  17.487   6.464
 5835POPC   D2A73744  22.188  17.525   6.764
 5835POPC   C3A73745  22.165  17.471   7.064
 5835POPC   C4A73746  22.129  17.509   7.364
 5835POPC   C1B73747  22.164  17.224   6.464
 5835POPC   C2B73748  22.085  17.216   6.764
 5835POPC   C3B73749  22.101  17.247   7.064
 5835POPC   C4B73750  22.093  17.240   7.364
 5836POPC   NC373751  26.070  43.874   5.564
 5836POPC   PO473752  26.040  43.859   5.864
 5836POPC   GL173753  26.047  43.888   6.164
 5836POPC   GL273754  25.933  43.833   6.164
 5836POPC   C1A73755  26.029  43.936   6.464
 5836POPC   D2A73756  25.996  43.876   6.764
 5836POPC   C3A73757  26.043  43.887   7.064
 5836POPC   C4A73758  26.043  43.845   7.364
 5836POPC   C1B73759  25.806  43.814   6.464
 5836POPC   C2B73760  25.746  43.868   6.764
 5836POPC   C3B73761  25.774  43.826   7.064
 5836POPC   C4B73762  25.780  43.829   7.364
 5837POPC   NC373763  18.278  19.102   5.564
 5837POPC   PO473764  18.282  19.046   5.864
 5837POPC   GL173765  18.273  19.068   6.164
 5837POPC   GL273766  18.123  19.030   6.164
 5837POPC   C1A73767  18.314  19.065   6.464
 5837POPC   D2A73768  18.244  19.044   6.764
 5837POPC   C3A73769  18.292  19.057   7.064
 5837POPC   C4A73770  18.256  19.041   7.364
 5837POPC   C1B73771  18.041  19.054   6.464
 5837POPC   C2B73772  18.032  19.057   6.764
 5837POPC   C3B73773  18.006  19.103   7.064
 5837POPC   C4B73774  18.042  19.092   7.364
 5838POPC   NC373775   8.164  33.844   5.564
 5838POPC   PO473776   8.232  33.830   5.864
 5838POPC   GL173777   8.226  33.825   6.164
 5838POPC   GL273778   8.191  33.914   6.164
 5838POPC   C1A73779   8.240  33.789   6.464
 5838POPC   D2A73780   8.217  33.816   6.764
 5838POPC   C3A73781   8.238  33.751   7.064
 5838POPC   C4A73782   8.198  33.819   7.364
 5838POPC   C1B73783   8.122  34.079   6.464
 5838POPC   C2B73784   8.126  34.073   6.764
 5838POPC   C3B73785   8.187  34.061   7.064
 5838POPC   C4B73786   8.099  34.058   7.364
 5839POPC   NC373787  15.947  31.455   5.564
 5839POPC   PO473788  16.004  31.517   5.864
 5839POPC   GL173789  15.917  31.503   6.164
 5839POPC   GL273790  15.953  31.373   6.164
 5839POPC   C1A73791  15.945  31.507   6.464
 5839POPC   D2A73792  15.919  31.450   6.764
 5839POPC   C3A73793  16.004  31.498   7.064
 5839POPC   C4A73794  15.921  31.460   7.364
 5839POPC   C1B73795  16.044  31.250   6.464
 5839POPC   C2B73796  16.042  31.179   6.764
 5839POPC   C3B73797  16.003  31.273   7.064
 5839POPC   C4B73798  16.030  31.182   7.364
 5840POPC   NC373799  27.636  32.242   5.564
 5840POPC   PO473800  27.548  32.203   5.864
 5840POPC   GL173801  27.559  32.267   6.164
 5840POPC   GL273802  27.438  32.204   6.164
 5840POPC   C1A73803  27.613  32.221   6.464
 5840POPC   D2A73804  27.559  32.228   6.764
 5840POPC   C3A73805  27.567  32.283   7.064
 5840POPC   C4A73806  27.569  32.206   7.364
 5840POPC   C1B73807  27.321  32.162   6.464
 5840POPC   C2B73808  27.399  32.199   6.764
 5840POPC   C3B73809  27.321  32.177   7.064
 5840POPC   C4B73810  27.402  32.205   7.364
 5841POPC   NC373811  15.947   3.566   5.564
 5841POPC   PO473812  15.937   3.493   5.864
 5841POPC   GL173813  15.976   3.589   6.164
 5841POPC   GL273814  16.069   3.478   6.164
 5841POPC   C1A73815  15.980   3.493   6.464
 5841POPC   D2A73816  15.927   3.571   6.764
 5841POPC   C3A73817  15.947   3.500   7.064
 5841POPC   C4A73818  15.992   3.574   7.364
 5841POPC   C1B73819  16.162   3.513   6.464
 5841POPC   C2B73820  16.225   3.439   6.764
 5841POPC   C3B73821  16.192   3.519   7.064
 5841POPC   C4B73822  16.180   3.494   7.364
 5842POPC   NC373823  39.973  19.786   5.564
 5842POPC   PO473824  40.036  19.793   5.864
 5842POPC   GL173825  40.027  19.800   6.164
 5842POPC   GL273826  40.070  19.932   6.164
 5842POPC   C1A73827  40.052  19.850   6.464
 5842POPC   D2A73828  39.987  19.862   6.764
 5842POPC   C3A73829  39.967  19.810   7.064
 5842POPC   C4A73830  39.959  19.822   7.364
 5842POPC   C1B73831  40.212  20.001   6.464
 5842POPC   C2B73832  40.148  19.971   6.764
 5842POPC   C3B73833  40.243  19.973   7.064
 5842POPC   C4B73834  40.149  20.039   7.364
 5843POPC   NC373835  24.446  36.860   5.564
 5843POPC   PO473836  24.499  36.933   5.864
 5843POPC   GL173837  24.529  36.895   6.164
 5843POPC   GL273838  24.512  36.961   6.164
 5843POPC   C1A73839  24.509  36.880   6.464
 5843POPC   D2A73840  24.505  36.916   6.764
 5843POPC   C3A73841  24.442  36.921   7.064
 5843POPC   C4A73842  24.482  36.863   7.364
 5843POPC   C1B73843  24.652  37.150   6.464
 5843POPC   C2B73844  24.617  37.065   6.764
 5843POPC   C3B73845  24.602  37.065   7.064
 5843POPC   C4B73846  24.612  37.067   7.364
 5844POPC   NC373847  36.082  22.896   5.564
 5844POPC   PO473848  36.142  22.891   5.864
 5844POPC   GL173849  36.122  22.950   6.164
 5844POPC   GL273850  36.001  22.891   6.164
 5844POPC   C1A73851  36.108  22.894   6.464
 5844POPC   D2A73852  36.173  22.968   6.764
 5844POPC   C3A73853  36.136  22.889   7.064
 5844POPC   C4A73854  36.172  22.912   7.364
 5844POPC   C1B73855  35.924  22.737   6.464
 5844POPC   C2B73856  35.984  22.752   6.764
 5844POPC   C3B73857  35.955  22.769   7.064
 5844POPC   C4B73858  35.962  22.747   7.364
 5845POPC   NC373859  34.591  43.895   5.564
 5845POPC   PO473860  34.554  43.876   5.864
 5845POPC   GL173861  34.612  43.856   6.164
 5845POPC   GL273862  34.551  43.964   6.164
 5845POPC   C1A73863  34.615  43.923   6.464
 5845POPC   D2A73864  34.615  43.881   6.764
 5845POPC   C3A73865  34.545  43.844   7.064
 5845POPC   C4A73866  34.580  43.856   7.364
 5845POPC   C1B73867  34.555  44.157   6.464
 5845POPC   C2B73868  34.507  44.164   6.764
 5845POPC   C3B73869  34.510  44.148   7.064
 5845POPC   C4B73870  34.557  44.174   7.364
 5846POPC   NC373871  40.028  43.117   5.564
 5846POPC   PO473872  40.039  43.157   5.864
 5846POPC   GL173873  39.983  43.131   6.164
 5846POPC   GL273874  40.148  43.152   6.164
 5846POPC   C1A73875  40.053  43.114   6.464
 5846POPC   D2A73876  39.985  43.080   6.764
 5846POPC   C3A73877  39.966  43.136   7.064
 5846POPC   C4A73878  39.967  43.111   7.364
 5846POPC   C1B73879  40.269  43.091   6.464
 5846POPC   C2B73880  40.242  43.139   6.764
 5846POPC   C3B73881  40.298  43.124   7.064
 5846POPC   C4B73882  40.248  43.095   7.364
 5847POPC   NC373883  10.537  35.369   5.564
 5847POPC   PO473884  10.517  35.395   5.864
 5847POPC   GL173885  10.498  35.348   6.164
 5847POPC   GL273886  10.373  35.290   6.164
 5847POPC   C1A73887  10.548  35.401   6.464
 5847POPC   D2A73888  10.492  35.318   6.764
 5847POPC   C3A73889  10.505  35.381   7.064
 5847POPC   C4A73890  10.569  35.345   7.364
 5847POPC   C1B73891  10.242  35.329   6.464
 5847POPC   C2B73892  10.229  35.291   6.764
 5847POPC   C3B73893  10.226  35.372   7.064
 5847POPC   C4B73894  10.291  35.298   7.364
 5848POPC   NC373895  12.113  12.858   5.564
 5848POPC   PO473896  12.066  12.854   5.864
 5848POPC   GL173897  12.064  12.855   6.164
 5848POPC   GL273898  12.008  12.691   6.164
 5848POPC   C1A73899  12.071  12.842   6.464
 5848POPC   D2A73900  12.068  12.815   6.764
 5848POPC   C3A73901  12.054  12.807   7.064
 5848POPC   C4A73902  12.095  12.805   7.364
 5848POPC   C1B73903  12.013  12.656   6.464
 5848POPC   C2B73904  11.982  12.568   6.764
 5848POPC   C3B73905  12.000  12.657   7.064
 5848POPC   C4B73906  12.043  12.601   7.364
 5849POPC   NC373907   5.085   4.346   5.564
 5849POPC   PO473908   5.065   4.274   5.864
 5849POPC   GL173909   5.083   4.292   6.164
 5849POPC   GL273910   5.167   4.407   6.164
 5849POPC   C1A73911   5.056   4.354   6.464
 5849POPC   D2A73912   5.056   4.356   6.764
 5849POPC   C3A73913   5.131   4.355   7.064
 5849POPC   C4A73914   5.051   4.331   7.364
 5849POPC   C1B73915   5.281   4.418   6.464
 5849POPC   C2B73916   5.302   4.422   6.764
 5849POPC   C3B73917   5.250   4.413   7.064
 5849POPC   C4B73918   5.264   4.435   7.364
 5850POPC   NC373919  26.039  28.396   5.564
 5850POPC   PO473920  26.043  28.347   5.864
 5850POPC   GL173921  26.084  28.390   6.164
 5850POPC   GL273922  26.155  28.421   6.164
 5850POPC   C1A73923  26.034  28.339   6.464
 5850POPC   D2A73924  26.061  28.403   6.764
 5850POPC   C3A73925  26.062  28.366   7.064
 5850POPC   C4A73926  26.031  28.354   7.364
 5850POPC   C1B73927  26.310  28.489   6.464
 5850POPC   C2B73928  26.241  28.474   6.764
 5850POPC   C3B73929  26.314  28.416   7.064
 5850POPC   C4B73930  26.298  28.475   7.364
 5851POPC   NC373931  43.916  24.456   5.564
 5851POPC   PO473932  43.889  24.449   5.864
 5851POPC   GL173933  43.881  24.504   6.164
 5851POPC   GL273934  43.895  24.576   6.164
 5851POPC   C1A73935  43.870  24.508   6.464
 5851POPC   D2A73936  43.880  24.444   6.764
 5851POPC   C3A73937  43.853  24.449   7.064
 5851POPC   C4A73938  43.868  24.455   7.364
 5851POPC   C1B73939  43.875  24.705   6.464
 5851POPC   C2B73940  43.836  24.781   6.764
 5851POPC   C3B73941  43.871  24.692   7.064
 5851POPC   C4B73942  43.912  24.785   7.364
 5852POPC   NC373943  43.063  41.559   5.564
 5852POPC   PO473944  43.142  41.559   5.864
 5852POPC   GL173945  43.143  41.595   6.164
 5852POPC   GL273946  43.067  41.600   6.164
 5852POPC   C1A73947  43.102  41.597   6.464
 5852POPC   D2A73948  43.133  41.513   6.764
 5852POPC   C3A73949  43.072  41.601   7.064
 5852POPC   C4A73950  43.126  41.567   7.364
 5852POPC   C1B73951  42.909  41.730   6.464
 5852POPC   C2B73952  42.964  41.780   6.764
 5852POPC   C3B73953  42.887  41.770   7.064
 5852POPC   C4B73954  42.959  41.717   7.364
 5853POPC   NC373955   7.430  43.122   5.564
 5853POPC   PO473956   7.424  43.070   5.864
 5853POPC   GL173957   7.464  43.144   6.164
 5853POPC   GL273958   7.495  43.220   6.164
 5853POPC   C1A73959   7.386  43.125   6.464
 5853POPC   D2A73960   7.440  43.152   6.764
 5853POPC   C3A73961   7.388  43.131   7.064
 5853POPC   C4A73962   7.449  43.107   7.364
 5853POPC   C1B73963   7.588  43.334   6.464
 5853POPC   C2B73964   7.565  43.293   6.764
 5853POPC   C3B73965   7.558  43.243   7.064
 5853POPC   C4B73966   7.623  43.256   7.364
 5854POPC   NC373967   4.297   9.731   5.564
 5854POPC   PO473968   4.326   9.735   5.864
 5854POPC   GL173969   4.343   9.725   6.164
 5854POPC   GL273970   4.277   9.657   6.164
 5854POPC   C1A73971   4.270   9.796   6.464
 5854POPC   D2A73972   4.319   9.772   6.764
 5854POPC   C3A73973   4.331   9.757   7.064
 5854POPC   C4A73974   4.318   9.707   7.364
 5854POPC   C1B73975   4.289   9.486   6.464
 5854POPC   C2B73976   4.290   9.480   6.764
 5854POPC   C3B73977   4.352   9.517   7.064
 5854POPC   C4B73978   4.324   9.518   7.364
 5855POPC   NC373979   7.416  12.808   5.564
 5855POPC   PO473980   7.419  12.895   5.864
 5855POPC   GL173981   7.422  12.884   6.164
 5855POPC   GL273982   7.367  12.754   6.164
 5855POPC   C1A73983   7.458  12.891   6.464
 5855POPC   D2A73984   7.467  12.876   6.764
 5855POPC   C3A73985   7.396  12.838   7.064
 5855POPC   C4A73986   7.421  12.866   7.364
 5855POPC   C1B73987   7.318  12.603   6.464
 5855POPC   C2B73988   7.327  12.587   6.764
 5855POPC   C3B73989   7.335  12.677   7.064
 5855POPC   C4B73990   7.292  12.587   7.364
 5856POPC   NC373991  18.241  41.565   5.564
 5856POPC   PO473992  18.274  41.525   5.864
 5856POPC   GL173993  18.319  41.542   6.164
 5856POPC   GL273994  18.181  41.548   6.164
 5856POPC   C1A73995  18.277  41.581   6.464
 5856POPC   D2A73996  18.282  41.537   6.764
 5856POPC   C3A73997  18.316  41.515   7.064
 5856POPC   C4A73998  18.288  41.546   7.364
 5856POPC   C1B73999  18.011  41.580   6.464
 5856POPC   C2B74000  18.062  41.517   6.764
 5856POPC   C3B74001  18.069  41.595   7.064
 5856POPC   C4B74002  18.076  41.573   7.364
 5857POPC   NC374003  14.403  44.655   5.564
 5857POPC   PO474004  14.448  44.706   5.864
 5857POPC   GL174005  14.448  44.710   6.164
 5857POPC   GL274006  14.376  44.739   6.164
 5857POPC   C1A74007  14.428  44.621   6.464
 5857POPC   D2A74008  14.417  44.617   6.764
 5857POPC   C3A74009  14.379  44.638   7.064
 5857POPC   C4A74010  14.366  44.699   7.364
 5857POPC   C1B74011  14.456  44.926   6.464
 5857POPC   C2B74012  14.409  44.933   6.764
 5857POPC   C3B74013  14.443  44.878   7.064
 5857POPC   C4B74014  14.417  44.869   7.364
 5858POPC   NC374015  10.535   1.203   5.564
 5858POPC   PO474016  10.542   1.198   5.864
 5858POPC   GL174017  10.499   1.202   6.164
 5858POPC   GL274018  10.640   1.250   6.164
 5858POPC   C1A74019  10.543   1.250   6.464
 5858POPC   D2A74020  10.548   1.187   6.764
 5858POPC   C3A74021  10.552   1.194   7.064
 5858POPC   C4A74022  10.511   1.236   7.364
 5858POPC   C1B74023  10.738   1.176   6.464
 5858POPC   C2B74024  10.799   1.229   6.764
 5858POPC   C3B74025  10.758   1.244   7.064
 5858POPC   C4B74026  10.776   1.263   7.364
 5859POPC   NC374027  22.135  29.873   5.564
 5859POPC   PO474028  22.164  29.878   5.864
 5859POPC   GL174029  22.156  29.932   6.164
 5859POPC   GL274030  22.234  29.957   6.164
 5859POPC   C1A74031  22.168  29.875   6.464
 5859POPC   D2A74032  22.188  29.873   6.764
 5859POPC   C3A74033  22.122  29.929   7.064
 5859POPC   C4A74034  22.210  29.949   7.364
 5859POPC   C1B74035  22.318  30.079   6.464
 5859POPC   C2B74036  22.321  30.063   6.764
 5859POPC   C3B74037  22.372  30.123   7.064
 5859POPC   C4B74038  22.315  30.110   7.364
 5860POPC   NC374039  38.494  17.490   5.564
 5860POPC   PO474040  38.418  17.557   5.864
 5860POPC   GL174041  38.473  17.497   6.164
 5860POPC   GL274042  38.482  17.372   6.164
 5860POPC   C1A74043  38.487  17.531   6.464
 5860POPC   D2A74044  38.440  17.487   6.764
 5860POPC   C3A74045  38.419  17.550   7.064
 5860POPC   C4A74046  38.479  17.464   7.364
 5860POPC   C1B74047  38.544  17.261   6.464
 5860POPC   C2B74048  38.493  17.276   6.764
 5860POPC   C3B74049  38.509  17.265   7.064
 5860POPC   C4B74050  38.546  17.253   7.364
 5861POPC   NC374051  34.549  39.994   5.564
 5861POPC   PO474052  34.600  39.975   5.864
 5861POPC   GL174053  34.599  40.017   6.164
 5861POPC   GL274054  34.449  40.083   6.164
 5861POPC   C1A74055  34.571  40.037   6.464
 5861POPC   D2A74056  34.613  39.993   6.764
 5861POPC   C3A74057  34.591  39.979   7.064
 5861POPC   C4A74058  34.543  39.991   7.364
 5861POPC   C1B74059  34.346  40.143   6.464
 5861POPC   C2B74060  34.353  40.049   6.764
 5861POPC   C3B74061  34.393  40.138   7.064
 5861POPC   C4B74062  34.392  40.139   7.364
 5862POPC   NC374063   2.801   2.792   5.564
 5862POPC   PO474064   2.728   2.760   5.864
 5862POPC   GL174065   2.744   2.740   6.164
 5862POPC   GL274066   2.898   2.715   6.164
 5862POPC   C1A74067   2.794   2.800   6.464
 5862POPC   D2A74068   2.731   2.813   6.764
 5862POPC   C3A74069   2.757   2.792   7.064
 5862POPC   C4A74070   2.729   2.746   7.364
 5862POPC   C1B74071   2.991   2.661   6.464
 5862POPC   C2B74072   2.998   2.734   6.764
 5862POPC   C3B74073   3.009   2.727   7.064
 5862POPC   C4B74074   3.004   2.676   7.364
 5863POPC   NC374075   0.395  36.892   5.564
 5863POPC   PO474076   0.476  36.907   5.864
 5863POPC   GL174077   0.478  36.931   6.164
 5863POPC   GL274078   0.479  36.793   6.164
 5863POPC   C1A74079   0.435  36.951   6.464
 5863POPC   D2A74080   0.401  36.939   6.764
 5863POPC   C3A74081   0.457  36.863   7.064
 5863POPC   C4A74082   0.472  36.894   7.364
 5863POPC   C1B74083   0.619  36.662   6.464
 5863POPC   C2B74084   0.614  36.716   6.764
 5863POPC   C3B74085   0.577  36.715   7.064
 5863POPC   C4B74086   0.583  36.684   7.364
 5864POPC   NC374087  10.508   0.394   5.564
 5864POPC   PO474088  10.561   0.411   5.864
 5864POPC   GL174089  10.556   0.476   6.164
 5864POPC   GL274090  10.665   0.540   6.164
 5864POPC   C1A74091  10.551   0.476   6.464
 5864POPC   D2A74092  10.483   0.446   6.764
 5864POPC   C3A74093  10.565   0.457   7.064
 5864POPC   C4A74094  10.517   0.403   7.364
 5864POPC   C1B74095  10.772   0.570   6.464
 5864POPC   C2B74096  10.695   0.606   6.764
 5864POPC   C3B74097  10.738   0.603   7.064
 5864POPC   C4B74098  10.742   0.517   7.364
 5865POPC   NC374099   3.516   7.457   5.564
 5865POPC   PO474100   3.517   7.459   5.864
 5865POPC   GL174101   3.571   7.427   6.164
 5865POPC   GL274102   3.562   7.526   6.164
 5865POPC   C1A74103   3.565   7.409   6.464
 5865POPC   D2A74104   3.568   7.413   6.764
 5865POPC   C3A74105   3.528   7.374   7.064
 5865POPC   C4A74106   3.585   7.373   7.364
 5865POPC   C1B74107   3.587   7.650   6.464
 5865POPC   C2B74108   3.605   7.671   6.764
 5865POPC   C3B74109   3.590   7.643   7.064
 5865POPC   C4B74110   3.593   7.682   7.364
 5866POPC   NC374111  39.260  44.652   5.564
 5866POPC   PO474112  39.276  44.667   5.864
 5866POPC   GL174113  39.246  44.691   6.164
 5866POPC   GL274114  39.326  44.722   6.164
 5866POPC   C1A74115  39.278  44.700   6.464
 5866POPC   D2A74116  39.242  44.681   6.764
 5866POPC   C3A74117  39.215  44.633   7.064
 5866POPC   C4A74118  39.255  44.694   7.364
 5866POPC   C1B74119  39.372  44.830   6.464
 5866POPC   C2B74120  39.400  44.850   6.764
 5866POPC   C3B74121  39.360  44.849   7.064
 5866POPC   C4B74122  39.393  44.860   7.364
 5867POPC   NC374123  22.144  14.400   5.564
 5867POPC   PO474124  22.201  14.412   5.864
 5867POPC   GL174125  22.127  14.434   6.164
 5867POPC   GL274126  22.291  14.407   6.164
 5867POPC   C1A74127  22.116  14.361   6.464
 5867POPC   D2A74128  22.159  14.428   6.764
 5867POPC   C3A74129  22.167  14.446   7.064
 5867POPC   C4A74130  22.118  14.379   7.364
 5867POPC   C1B74131  22.388  14.392   6.464
 5867POPC   C2B74132  22.358  14.328   6.764
 5867POPC   C3B74133  22.405  14.383   7.064
 5867POPC   C4B74134  22.437  14.372   7.364
 5868POPC   NC374135   4.312  29.116   5.564
 5868POPC   PO474136   4.332  29.129   5.864
 5868POPC   GL174137   4.366  29.117   6.164
 5868POPC   GL274138   4.364  29.078   6.164
 5868POPC   C1A74139   4.345  29.159   6.464
 5868POPC   D2A74140   4.269  29.097   6.764
 5868POPC   C3A74141   4.287  29.194   7.064
 5868POPC   C4A74142   4.352  29.172   7.364
 5868POPC   C1B74143   4.444  28.894   6.464
 5868POPC   C2B74144   4.447  28.891   6.764
 5868POPC   C3B74145   4.441  28.972   7.064
 5868POPC   C4B74146   4.439  28.959   7.364
 5869POPC   NC374147  19.802  12.053   5.564
 5869POPC   PO474148  19.803  12.082   5.864
 5869POPC   GL174149  19.864  12.124   6.164
 5869POPC   GL274150  19.741  12.022   6.164
 5869POPC   C1A74151  19.831  12.108   6.464
 5869POPC   D2A74152  19.798  12.070   6.764
 5869POPC   C3A74153  19.799  12.029   7.064
 5869POPC   C4A74154  19.846  12.084   7.364
 5869POPC   C1B74155  19.661  11.881   6.464
 5869POPC   C2B74156  19.658  11.875   6.764
 5869POPC   C3B74157  19.698  11.943   7.064
 5869POPC   C4B74158  19.668  11.911   7.364
 5870POPC   NC374159  39.960  32.225   5.564
 5870POPC   PO474160  39.990  32.212   5.864
 5870POPC   GL174161  39.959  32.210   6.164
 5870POPC   GL274162  40.079  32.317   6.164
 5870POPC   C1A74163  40.034  32.289   6.464
 5870POPC   D2A74164  39.964  32.296   6.764
 5870POPC   C3A74165  40.035  32.234   7.064
 5870POPC   C4A74166  40.037  32.253   7.364
 5870POPC   C1B74167  40.186  32.389   6.464
 5870POPC   C2B74168  40.226  32.382   6.764
 5870POPC   C3B74169  40.211  32.447   7.064
 5870POPC   C4B74170  40.229  32.360   7.364
 5871POPC   NC374171  27.623   0.421   5.564
 5871POPC   PO474172  27.643   0.457   5.864
 5871POPC   GL174173  27.561   0.414   6.164
 5871POPC   GL274174  27.547   0.542   6.164
 5871POPC   C1A74175  27.565   0.486   6.464
 5871POPC   D2A74176  27.552   0.467   6.764
 5871POPC   C3A74177  27.612   0.487   7.064
 5871POPC   C4A74178  27.641   0.479   7.364
 5871POPC   C1B74179  27.530   0.612   6.464
 5871POPC   C2B74180  27.528   0.648   6.764
 5871POPC   C3B74181  27.471   0.685   7.064
 5871POPC   C4B74182  27.464   0.641   7.364
 5872POPC   NC374183  42.365  36.855   5.564
 5872POPC   PO474184  42.368  36.876   5.864
 5872POPC   GL174185  42.375  36.904   6.164
 5872POPC   GL274186  42.276  36.836   6.164
 5872POPC   C1A74187  42.342  36.930   6.464
 5872POPC   D2A74188  42.298  36.906   6.764
 5872POPC   C3A74189  42.327  36.907   7.064
 5872POPC   C4A74190  42.326  36.922   7.364
 5872POPC   C1B74191  42.224  36.728   6.464
 5872POPC   C2B74192  42.216  36.710   6.764
 5872POPC   C3B74193  42.144  36.749   7.064
 5872POPC   C4B74194  42.167  36.756   7.364
 5873POPC   NC374195  36.855  37.704   5.564
 5873POPC   PO474196  36.884  37.685   5.864
 5873POPC   GL174197  36.929  37.724   6.164
 5873POPC   GL274198  37.020  37.661   6.164
 5873POPC   C1A74199  36.932  37.695   6.464
 5873POPC   D2A74200  36.951  37.642   6.764
 5873POPC   C3A74201  36.883  37.662   7.064
 5873POPC   C4A74202  36.914  37.709   7.364
 5873POPC   C1B74203  37.168  37.661   6.464
 5873POPC   C2B74204  37.127  37.676   6.764
 5873POPC   C3B74205  37.106  37.655   7.064
 5873POPC   C4B74206  37.116  37.652   7.364
 5874POPC   NC374207  29.908  37.679   5.564
 5874POPC   PO474208  29.913  37.727   5.864
 5874POPC   GL174209  29.935  37.728   6.164
 5874POPC   GL274210  30.037  37.610   6.164
 5874POPC   C1A74211  29.927  37.654   6.464
 5874POPC   D2A74212  29.970  37.655   6.764
 5874POPC   C3A74213  29.953  37.635   7.064
 5874POPC   C4A74214  29.914  37.712   7.364
 5874POPC   C1B74215  30.209  37.669   6.464
 5874POPC   C2B74216  30.175  37.674   6.764
 5874POPC   C3B74217  30.158  37.667   7.064
 5874POPC   C4B74218  30.146  37.602   7.364
 5875POPC   NC374219  44.690  15.911   5.564
 5875POPC   PO474220  44.664  15.947   5.864
 5875POPC   GL174221  44.617  15.913   6.164
 5875POPC   GL274222  44.587  16.113   6.164
 5875POPC   C1A74223  44.710  15.989   6.464
 5875POPC   D2A74224  44.625  15.915   6.764
 5875POPC   C3A74225  44.671  15.996   7.064
 5875POPC   C4A74226  44.684  15.934   7.364
 5875POPC   C1B74227  44.584  16.158   6.464
 5875POPC   C2B74228  44.602  16.220   6.764
 5875POPC   C3B74229  44.537  16.203   7.064
 5875POPC   C4B74230  44.569  16.146   7.364
 5876POPC   NC374231   5.099  42.345   5.564
 5876POPC   PO474232   5.096  42.382   5.864
 5876POPC   GL174233   5.101  42.355   6.164
 5876POPC   GL274234   5.084  42.426   6.164
 5876POPC   C1A74235   5.100  42.303   6.464
 5876POPC   D2A74236   5.126  42.374   6.764
 5876POPC   C3A74237   5.052  42.354   7.064
 5876POPC   C4A74238   5.123  42.310   7.364
 5876POPC   C1B74239   5.102  42.583   6.464
 5876POPC   C2B74240   5.064  42.580   6.764
 5876POPC   C3B74241   5.093  42.590   7.064
 5876POPC   C4B74242   5.075  42.576   7.364
 5877POPC   NC374243   0.433  33.778   5.564
 5877POPC   PO474244   0.400  33.800   5.864
 5877POPC   GL174245   0.439  33.826   6.164
 5877POPC   GL274246   0.359  33.648   6.164
 5877POPC   C1A74247   0.471  33.777   6.464
 5877POPC   D2A74248   0.459  33.774   6.764
 5877POPC   C3A74249   0.419  33.792   7.064
 5877POPC   C4A74250   0.484  33.811   7.364
 5877POPC   C1B74251   0.266  33.551   6.464
 5877POPC   C2B74252   0.336  33.586   6.764
 5877POPC   C3B74253   0.348  33.577   7.064
 5877POPC   C4B74254   0.286  33.615   7.364
 5878POPC   NC374255   5.049  12.858   5.564
 5878POPC   PO474256   5.056  12.851   5.864
 5878POPC   GL174257   5.067  12.843   6.164
 5878POPC   GL274258   5.234  12.952   6.164
 5878POPC   C1A74259   5.052  12.817   6.464
 5878POPC   D2A74260   5.057  12.852   6.764
 5878POPC   C3A74261   5.109  12.897   7.064
 5878POPC   C4A74262   5.123  12.826   7.364
 5878POPC   C1B74263   5.301  12.986   6.464
 5878POPC   C2B74264   5.342  12.999   6.764
 5878POPC   C3B74265   5.347  12.999   7.064
 5878POPC   C4B74266   5.325  12.982   7.364
 5879POPC   NC374267  29.903  23.743   5.564
 5879POPC   PO474268  29.903  23.697   5.864
 5879POPC   GL174269  29.964  23.728   6.164
 5879POPC   GL274270  29.943  23.555   6.164
 5879POPC   C1A74271  29.943  23.749   6.464
 5879POPC   D2A74272  29.917  23.755   6.764
 5879POPC   C3A74273  29.938  23.694   7.064
 5879POPC   C4A74274  29.887  23.678   7.364
 5879POPC   C1B74275  29.994  23.514   6.464
 5879POPC   C2B74276  30.016  23.445   6.764
 5879POPC   C3B74277  30.021  23.442   7.064
 5879POPC   C4B74278  29.983  23.494   7.364
 5880POPC   NC374279  19.027  25.218   5.564
 5880POPC   PO474280  19.103  25.235   5.864
 5880POPC   GL174281  19.017  25.283   6.164
 5880POPC   GL274282  19.055  25.383   6.164
 5880POPC   C1A74283  19.020  25.297   6.464
 5880POPC   D2A74284  19.073  25.277   6.764
 5880POPC   C3A74285  19.090  25.258   7.064
 5880POPC   C4A74286  19.062  25.238   7.364
 5880POPC   C1B74287  18.955  25.507   6.464
 5880POPC   C2B74288  18.960  25.548   6.764
 5880POPC   C3B74289  18.978  25.504   7.064
 5880POPC   C4B74290  18.966  25.475   7.364
 5881POPC   NC374291  38.421  18.262   5.564
 5881POPC   PO474292  38.449  18.297   5.864
 5881POPC   GL174293  38.459  18.268   6.164
 5881POPC   GL274294  38.444  18.442   6.164
 5881POPC   C1A74295  38.445  18.244   6.464
 5881POPC   D2A74296  38.502  18.249   6.764
 5881POPC   C3A74297  38.454  18.324   7.064
 5881POPC   C4A74298  38.500  18.264   7.364
 5881POPC   C1B74299  38.548  18.564   6.464
 5881POPC   C2B74300  38.478  18.564   6.764
 5881POPC   C3B74301  38.555  18.552   7.064
 5881POPC   C4B74302  38.500  18.505   7.364
 5882POPC   NC374303  17.488  19.799   5.564
 5882POPC   PO474304  17.481  19.870   5.864
 5882POPC   GL174305  17.538  19.815   6.164
 5882POPC   GL274306  17.652  19.801   6.164
 5882POPC   C1A74307  17.519  19.819   6.464
 5882POPC   D2A74308  17.536  19.854   6.764
 5882POPC   C3A74309  17.505  19.791   7.064
 5882POPC   C4A74310  17.513  19.873   7.364
 5882POPC   C1B74311  17.788  19.860   6.464
 5882POPC   C2B74312  17.751  19.820   6.764
 5882POPC   C3B74313  17.787  19.832   7.064
 5882POPC   C4B74314  17.752  19.830   7.364
 5883POPC   NC374315   3.550  26.831   5.564
 5883POPC   PO474316   3.494  26.777   5.864
 5883POPC   GL174317   3.537  26.822   6.164
 5883POPC   GL274318   3.663  26.733   6.164
 5883POPC   C1A74319   3.542  26.780   6.464
 5883POPC   D2A74320   3.516  26.826   6.764
 5883POPC   C3A74321   3.512  26.830   7.064
 5883POPC   C4A74322   3.574  26.773   7.364
 5883POPC   C1B74323   3.783  26.713   6.464
 5883POPC   C2B74324   3.731  26.694   6.764
 5883POPC   C3B74325   3.737  26.637   7.064
 5883POPC   C4B74326   3.760  26.711   7.364
 5884POPC   NC374327  43.146  20.655   5.564
 5884POPC   PO474328  43.144  20.638   5.864
 5884POPC   GL174329  43.158  20.628   6.164
 5884POPC   GL274330  43.046  20.743   6.164
 5884POPC   C1A74331  43.109  20.638   6.464
 5884POPC   D2A74332  43.150  20.654   6.764
 5884POPC   C3A74333  43.148  20.654   7.064
 5884POPC   C4A74334  43.082  20.611   7.364
 5884POPC   C1B74335  42.925  20.799   6.464
 5884POPC   C2B74336  42.926  20.824   6.764
 5884POPC   C3B74337  43.000  20.861   7.064
 5884POPC   C4B74338  42.956  20.798   7.364
 5885POPC   NC374339   4.272  25.248   5.564
 5885POPC   PO474340   4.282  25.247   5.864
 5885POPC   GL174341   4.285  25.262   6.164
 5885POPC   GL274342   4.479  25.325   6.164
 5885POPC   C1A74343   4.281  25.302   6.464
 5885POPC   D2A74344   4.363  25.223   6.764
 5885POPC   C3A74345   4.348  25.225   7.064
 5885POPC   C4A74346   4.311  25.297   7.364
 5885POPC   C1B74347   4.548  25.276   6.464
 5885POPC   C2B74348   4.556  25.278   6.764
 5885POPC   C3B74349   4.583  25.272   7.064
 5885POPC   C4B74350   4.607  25.351   7.364
 5886POPC   NC374351   9.715  19.104   5.564
 5886POPC   PO474352   9.780  19.062   5.864
 5886POPC   GL174353   9.728  19.065   6.164
 5886POPC   GL274354   9.667  18.936   6.164
 5886POPC   C1A74355   9.738  19.046   6.464
 5886POPC   D2A74356   9.700  19.053   6.764
 5886POPC   C3A74357   9.750  19.066   7.064
 5886POPC   C4A74358   9.719  19.087   7.364
 5886POPC   C1B74359   9.614  18.869   6.464
 5886POPC   C2B74360   9.622  18.879   6.764
 5886POPC   C3B74361   9.631  18.888   7.064
 5886POPC   C4B74362   9.578  18.824   7.364
 5887POPC   NC374363  10.525  23.736   5.564
 5887POPC   PO474364  10.553  23.738   5.864
 5887POPC   GL174365  10.532  23.716   6.164
 5887POPC   GL274366  10.434  23.579   6.164
 5887POPC   C1A74367  10.573  23.696   6.464
 5887POPC   D2A74368  10.558  23.695   6.764
 5887POPC   C3A74369  10.518  23.702   7.064
 5887POPC   C4A74370  10.536  23.677   7.364
 5887POPC   C1B74371  10.322  23.576   6.464
 5887POPC   C2B74372  10.379  23.556   6.764
 5887POPC   C3B74373  10.371  23.576   7.064
 5887POPC   C4B74374  10.374  23.528   7.364
 5888POPC   NC374375   5.083  32.290   5.564
 5888POPC   PO474376   5.129  32.218   5.864
 5888POPC   GL174377   5.100  32.251   6.164
 5888POPC   GL274378   5.146  32.104   6.164
 5888POPC   C1A74379   5.081  32.273   6.464
 5888POPC   D2A74380   5.123  32.236   6.764
 5888POPC   C3A74381   5.054  32.261   7.064
 5888POPC   C4A74382   5.123  32.294   7.364
 5888POPC   C1B74383   5.119  32.052   6.464
 5888POPC   C2B74384   5.131  32.003   6.764
 5888POPC   C3B74385   5.179  31.965   7.064
 5888POPC   C4B74386   5.182  32.043   7.364
 5889POPC   NC374387  29.192   8.998   5.564
 5889POPC   PO474388  29.131   8.983   5.864
 5889POPC   GL174389  29.140   8.945   6.164
 5889POPC   GL274390  29.073   8.905   6.164
 5889POPC   C1A74391  29.183   9.009   6.464
 5889POPC   D2A74392  29.178   8.995   6.764
 5889POPC   C3A74393  29.154   8.945   7.064
 5889POPC   C4A74394  29.138   9.004   7.364
 5889POPC   C1B74395  28.960   8.768   6.464
 5889POPC   C2B74396  29.002   8.819   6.764
 5889POPC   C3B74397  29.033   8.818   7.064
 5889POPC   C4B74398  28.953   8.775   7.364
 5890POPC   NC374399  17.501  18.268   5.564
 5890POPC   PO474400  17.458  18.323   5.864
 5890POPC   GL174401  17.540  18.290   6.164
 5890POPC   GL274402  17.641  18.275   6.164
 5890POPC   C1A74403  17.511  18.236   6.464
 5890POPC   D2A74404  17.536  18.249   6.764
 5890POPC   C3A74405  17.525  18.272   7.064
 5890POPC   C4A74406  17.533  18.303   7.364
 5890POPC   C1B74407  17.770  18.274   6.464
 5890POPC   C2B74408  17.765  18.355   6.764
 5890POPC   C3B74409  17.738  18.347   7.064
 5890POPC   C4B74410  17.755  18.276   7.364
 5891POPC   NC374411   4.299  35.368   5.564
 5891POPC   PO474412   4.298  35.339   5.864
 5891POPC   GL174413   4.358  35.327   6.164
 5891POPC   GL274414   4.222  35.358   6.164
 5891POPC   C1A74415   4.327  35.340   6.464
 5891POPC   D2A74416   4.281  35.321   6.764
 5891POPC   C3A74417   4.271  35.360   7.064
 5891POPC   C4A74418   4.319  35.305   7.364
 5891POPC   C1B74419   4.036  35.363   6.464
 5891POPC   C2B74420   4.019  35.282   6.764
 5891POPC   C3B74421   4.096  35.291   7.064
 5891POPC   C4B74422   4.089  35.368   7.364
 5892POPC   NC374423   8.989  19.871   5.564
 5892POPC   PO474424   8.972  19.881   5.864
 5892POPC   GL174425   8.923  19.858   6.164
 5892POPC   GL274426   9.031  19.747   6.164
 5892POPC   C1A74427   9.008  19.829   6.464
 5892POPC   D2A74428   8.982  19.831   6.764
 5892POPC   C3A74429   8.960  19.801   7.064
 5892POPC   C4A74430   8.976  19.866   7.364
 5892POPC   C1B74431   9.027  19.573   6.464
 5892POPC   C2B74432   8.952  19.584   6.764
 5892POPC   C3B74433   8.958  19.594   7.064
 5892POPC   C4B74434   8.975  19.564   7.364
 5893POPC   NC374435  24.518  29.964   5.564
 5893POPC   PO474436  24.462  29.947   5.864
 5893POPC   GL174437  24.455  29.951   6.164
 5893POPC   GL274438  24.328  29.987   6.164
 5893POPC   C1A74439  24.500  29.880   6.464
 5893POPC   D2A74440  24.515  29.961   6.764
 5893POPC   C3A74441  24.492  29.918   7.064
 5893POPC   C4A74442  24.471  29.929   7.364
 5893POPC   C1B74443  24.224  29.984   6.464
 5893POPC   C2B74444  24.244  30.045   6.764
 5893POPC   C3B74445  24.311  30.058   7.064
 5893POPC   C4B74446  24.266  30.025   7.364
 5894POPC   NC374447  15.988  43.854   5.564
 5894POPC   PO474448  15.926  43.845   5.864
 5894POPC   GL174449  15.931  43.908   6.164
 5894POPC   GL274450  15.935  43.748   6.164
 5894POPC   C1A74451  15.962  43.930   6.464
 5894POPC   D2A74452  15.965  43.868   6.764
 5894POPC   C3A74453  15.980  43.883   7.064
 5894POPC   C4A74454  16.000  43.888   7.364
 5894POPC   C1B74455  15.938  43.603   6.464
 5894POPC   C2B74456  15.968  43.649   6.764
 5894POPC   C3B74457  15.991  43.597   7.064
 5894POPC   C4B74458  15.981  43.653   7.364
 5895POPC   NC374459  15.142  43.847   5.564
 5895POPC   PO474460  15.222  43.927   5.864
 5895POPC   GL174461  15.200  43.935   6.164
 5895POPC   GL274462  15.251  43.765   6.164
 5895POPC   C1A74463  15.172  43.897   6.464
 5895POPC   D2A74464  15.157  43.897   6.764
 5895POPC   C3A74465  15.205  43.865   7.064
 5895POPC   C4A74466  15.153  43.929   7.364
 5895POPC   C1B74467  15.387  43.695   6.464
 5895POPC   C2B74468  15.316  43.741   6.764
 5895POPC   C3B74469  15.369  43.656   7.064
 5895POPC   C4B74470  15.330  43.665   7.364
 5896POPC   NC374471  10.546  14.357   5.564
 5896POPC   PO474472  10.542  14.412   5.864
 5896POPC   GL174473  10.569  14.424   6.164
 5896POPC   GL274474  10.395  14.455   6.164
 5896POPC   C1A74475  10.536  14.388   6.464
 5896POPC   D2A74476  10.498  14.374   6.764
 5896POPC   C3A74477  10.569  14.429   7.064
 5896POPC   C4A74478  10.573  14.406   7.364
 5896POPC   C1B74479  10.326  14.545   6.464
 5896POPC   C2B74480  10.367  14.581   6.764
 5896POPC   C3B74481  10.376  14.588   7.064
 5896POPC   C4B74482  10.373  14.593   7.364
 5897POPC   NC374483  29.952  25.275   5.564
 5897POPC   PO474484  29.940  25.274   5.864
 5897POPC   GL174485  29.882  25.228   6.164
 5897POPC   GL274486  30.011  25.168   6.164
 5897POPC   C1A74487  29.970  25.217   6.464
 5897POPC   D2A74488  29.871  25.216   6.764
 5897POPC   C3A74489  29.876  25.237   7.064
 5897POPC   C4A74490  29.958  25.269   7.364
 5897POPC   C1B74491  30.151  25.122   6.464
 5897POPC   C2B74492  30.132  25.095   6.764
 5897POPC   C3B74493  30.088  25.082   7.064
 5897POPC   C4B74494  30.085  25.116   7.364
 5898POPC   NC374495  25.315  17.526   5.564
 5898POPC   PO474496  25.230  17.547   5.864
 5898POPC   GL174497  25.281  17.553   6.164
 5898POPC   GL274498  25.229  17.623   6.164
 5898POPC   C1A74499  25.306  17.498   6.464
 5898POPC   D2A74500  25.303  17.467   6.764
 5898POPC   C3A74501  25.233  17.486   7.064
 5898POPC   C4A74502  25.285  17.546   7.364
 5898POPC   C1B74503  25.104  17.727   6.464
 5898POPC   C2B74504  25.136  17.742   6.764
 5898POPC   C3B74505  25.133  17.700   7.064
 5898POPC   C4B74506  25.130  17.692   7.364
 5899POPC   NC374507  15.142  44.656   5.564
 5899POPC   PO474508  15.221  44.654   5.864
 5899POPC   GL174509  15.224  44.617   6.164
 5899POPC   GL274510  15.196  44.554   6.164
 5899POPC   C1A74511  15.213  44.618   6.464
 5899POPC   D2A74512  15.160  44.635   6.764
 5899POPC   C3A74513  15.146  44.707   7.064
 5899POPC   C4A74514  15.198  44.666   7.364
 5899POPC   C1B74515  15.207  44.390   6.464
 5899POPC   C2B74516  15.173  44.456   6.764
 5899POPC   C3B74517  15.180  44.411   7.064
 5899POPC   C4B74518  15.129  44.442   7.364
 5900POPC   NC374519  39.253  22.898   5.564
 5900POPC   PO474520  39.194  22.968   5.864
 5900POPC   GL174521  39.263  22.942   6.164
 5900POPC   GL274522  39.137  23.015   6.164
 5900POPC   C1A74523  39.263  22.975   6.464
 5900POPC   D2A74524  39.270  22.902   6.764
 5900POPC   C3A74525  39.202  22.939   7.064
 5900POPC   C4A74526  39.223  22.932   7.364
 5900POPC   C1B74527  39.084  23.116   6.464
 5900POPC   C2B74528  39.033  23.087   6.764
 5900POPC   C3B74529  39.039  23.149   7.064
 5900POPC   C4B74530  39.051  23.152   7.364
 5901POPC   NC374531  23.724  33.041   5.564
 5901POPC   PO474532  23.672  33.015   5.864
 5901POPC   GL174533  23.696  33.015   6.164
 5901POPC   GL274534  23.854  33.066   6.164
 5901POPC   C1A74535  23.715  33.029   6.464
 5901POPC   D2A74536  23.694  33.058   6.764
 5901POPC   C3A74537  23.754  33.044   7.064
 5901POPC   C4A74538  23.748  32.976   7.364
 5901POPC   C1B74539  23.917  33.007   6.464
 5901POPC   C2B74540  23.952  33.011   6.764
 5901POPC   C3B74541  23.977  33.006   7.064
 5901POPC   C4B74542  23.952  33.033   7.364
 5902POPC   NC374543   3.560  24.504   5.564
 5902POPC   PO474544   3.557  24.465   5.864
 5902POPC   GL174545   3.542  24.450   6.164
 5902POPC   GL274546   3.553  24.353   6.164
 5902POPC   C1A74547   3.552  24.495   6.464
 5902POPC   D2A74548   3.500  24.518   6.764
 5902POPC   C3A74549   3.535  24.444   7.064
 5902POPC   C4A74550   3.554  24.534   7.364
 5902POPC   C1B74551   3.501  24.193   6.464
 5902POPC   C2B74552   3.586  24.231   6.764
 5902POPC   C3B74553   3.582  24.245   7.064
 5902POPC   C4B74554   3.509  24.229   7.364
 5903POPC   NC374555  39.248  39.237   5.564
 5903POPC   PO474556  39.258  39.218   5.864
 5903POPC   GL174557  39.202  39.266   6.164
 5903POPC   GL274558  39.192  39.107   6.164
 5903POPC   C1A74559  39.190  39.267   6.464
 5903POPC   D2A74560  39.228  39.233   6.764
 5903POPC   C3A74561  39.190  39.208   7.064
 5903POPC   C4A74562  39.244  39.245   7.364
 5903POPC   C1B74563  39.219  39.028   6.464
 5903POPC   C2B74564  39.144  38.941   6.764
 5903POPC   C3B74565  39.230  38.955   7.064
 5903POPC   C4B74566  39.191  38.974   7.364
 5904POPC   NC374567  39.220  29.916   5.564
 5904POPC   PO474568  39.274  29.892   5.864
 5904POPC   GL174569  39.257  29.935   6.164
 5904POPC   GL274570  39.337  29.938   6.164
 5904POPC   C1A74571  39.192  29.942   6.464
 5904POPC   D2A74572  39.275  29.914   6.764
 5904POPC   C3A74573  39.185  29.899   7.064
 5904POPC   C4A74574  39.259  29.938   7.364
 5904POPC   C1B74575  39.415  30.034   6.464
 5904POPC   C2B74576  39.423  30.003   6.764
 5904POPC   C3B74577  39.465  30.074   7.064
 5904POPC   C4B74578  39.411  30.081   7.364
 5905POPC   NC374579   1.987  25.297   5.564
 5905POPC   PO474580   2.024  25.251   5.864
 5905POPC   GL174581   2.013  25.263   6.164
 5905POPC   GL274582   2.036  25.343   6.164
 5905POPC   C1A74583   1.942  25.258   6.464
 5905POPC   D2A74584   2.013  25.217   6.764
 5905POPC   C3A74585   2.034  25.258   7.064
 5905POPC   C4A74586   1.960  25.235   7.364
 5905POPC   C1B74587   2.143  25.442   6.464
 5905POPC   C2B74588   2.103  25.472   6.764
 5905POPC   C3B74589   2.095  25.488   7.064
 5905POPC   C4B74590   2.128  25.436   7.364
 5906POPC   NC374591  18.234  26.078   5.564
 5906POPC   PO474592  18.260  26.013   5.864
 5906POPC   GL174593  18.271  26.054   6.164
 5906POPC   GL274594  18.250  25.877   6.164
 5906POPC   C1A74595  18.310  26.039   6.464
 5906POPC   D2A74596  18.270  26.048   6.764
 5906POPC   C3A74597  18.328  26.000   7.064
 5906POPC   C4A74598  18.244  26.076   7.364
 5906POPC   C1B74599  18.217  25.838   6.464
 5906POPC   C2B74600  18.193  25.853   6.764
 5906POPC   C3B74601  18.249  25.805   7.064
 5906POPC   C4B74602  18.187  25.756   7.364
 5907POPC   NC374603  12.043  33.823   5.564
 5907POPC   PO474604  12.047  33.824   5.864
 5907POPC   GL174605  12.114  33.769   6.164
 5907POPC   GL274606  12.178  33.870   6.164
 5907POPC   C1A74607  12.116  33.802   6.464
 5907POPC   D2A74608  12.105  33.770   6.764
 5907POPC   C3A74609  12.049  33.788   7.064
 5907POPC   C4A74610  12.036  33.832   7.364
 5907POPC   C1B74611  12.272  33.894   6.464
 5907POPC   C2B74612  12.331  33.901   6.764
 5907POPC   C3B74613  12.297  33.895   7.064
 5907POPC   C4B74614  12.360  33.923   7.364
 5908POPC   NC374615  44.641  17.502   5.564
 5908POPC   PO474616  44.675  17.491   5.864
 5908POPC   GL174617  44.676  17.494   6.164
 5908POPC   GL274618  44.711  17.603   6.164
 5908POPC   C1A74619  44.687  17.523   6.464
 5908POPC   D2A74620  44.619  17.519   6.764
 5908POPC   C3A74621  44.686  17.460   7.064
 5908POPC   C4A74622  44.657  17.534   7.364
 5908POPC   C1B74623  44.857  17.644   6.464
 5908POPC   C2B74624  44.897  17.641   6.764
 5908POPC   C3B74625  44.895  17.639   7.064
 5908POPC   C4B74626  44.899  17.670   7.364
 5909POPC   NC374627  41.566   7.398   5.564
 5909POPC   PO474628  41.575   7.390   5.864
 5909POPC   GL174629  41.591   7.390   6.164
 5909POPC   GL274630  41.597   7.302   6.164
 5909POPC   C1A74631  41.516   7.405   6.464
 5909POPC   D2A74632  41.570   7.397   6.764
 5909POPC   C3A74633  41.540   7.391   7.064
 5909POPC   C4A74634  41.513   7.390   7.364
 5909POPC   C1B74635  41.623   7.229   6.464
 5909POPC   C2B74636  41.646   7.186   6.764
 5909POPC   C3B74637  41.645   7.149   7.064
 5909POPC   C4B74638  41.666   7.208   7.364
 5910POPC   NC374639   2.770  24.492   5.564
 5910POPC   PO474640   2.769  24.454   5.864
 5910POPC   GL174641   2.790  24.448   6.164
 5910POPC   GL274642   2.878  24.472   6.164
 5910POPC   C1A74643   2.731  24.504   6.464
 5910POPC   D2A74644   2.762  24.500   6.764
 5910POPC   C3A74645   2.738  24.462   7.064
 5910POPC   C4A74646   2.727  24.480   7.364
 5910POPC   C1B74647   3.035  24.390   6.464
 5910POPC   C2B74648   2.974  24.446   6.764
 5910POPC   C3B74649   2.969  24.466   7.064
 5910POPC   C4B74650   2.992  24.409   7.364
 5911POPC   NC374651  13.656  33.838   5.564
 5911POPC   PO474652  13.613  33.759   5.864
 5911POPC   GL174653  13.610  33.824   6.164
 5911POPC   GL274654  13.627  33.883   6.164
 5911POPC   C1A74655  13.627  33.769   6.464
 5911POPC   D2A74656  13.626  33.793   6.764
 5911POPC   C3A74657  13.674  33.777   7.064
 5911POPC   C4A74658  13.659  33.847   7.364
 5911POPC   C1B74659  13.538  34.084   6.464
 5911POPC   C2B74660  13.624  34.091   6.764
 5911POPC   C3B74661  13.615  34.033   7.064
 5911POPC   C4B74662  13.561  34.039   7.364
 5912POPC   NC374663   6.643  13.580   5.564
 5912POPC   PO474664   6.599  13.586   5.864
 5912POPC   GL174665   6.658  13.647   6.164
 5912POPC   GL274666   6.702  13.743   6.164
 5912POPC   C1A74667   6.609  13.657   6.464
 5912POPC   D2A74668   6.645  13.597   6.764
 5912POPC   C3A74669   6.633  13.603   7.064
 5912POPC   C4A74670   6.684  13.660   7.364
 5912POPC   C1B74671   6.851  13.846   6.464
 5912POPC   C2B74672   6.820  13.785   6.764
 5912POPC   C3B74673   6.854  13.801   7.064
 5912POPC   C4B74674   6.780  13.843   7.364
 5913POPC   NC374675  34.535  44.662   5.564
 5913POPC   PO474676  34.605  44.652   5.864
 5913POPC   GL174677  34.566  44.633   6.164
 5913POPC   GL274678  34.695  44.773   6.164
 5913POPC   C1A74679  34.536  44.642   6.464
 5913POPC   D2A74680  34.601  44.619   6.764
 5913POPC   C3A74681  34.530  44.615   7.064
 5913POPC   C4A74682  34.560  44.694   7.364
 5913POPC   C1B74683  34.726  44.808   6.464
 5913POPC   C2B74684  34.799  44.791   6.764
 5913POPC   C3B74685  34.720  44.791   7.064
 5913POPC   C4B74686  34.793  44.845   7.364
 5914POPC   NC374687  22.170  15.222   5.564
 5914POPC   PO474688  22.160  15.172   5.864
 5914POPC   GL174689  22.129  15.153   6.164
 5914POPC   GL274690  22.081  15.129   6.164
 5914POPC   C1A74691  22.182  15.157   6.464
 5914POPC   D2A74692  22.159  15.172   6.764
 5914POPC   C3A74693  22.146  15.199   7.064
 5914POPC   C4A74694  22.144  15.221   7.364
 5914POPC   C1B74695  22.012  14.987   6.464
 5914POPC   C2B74696  21.971  15.048   6.764
 5914POPC   C3B74697  21.999  14.983   7.064
 5914POPC   C4B74698  21.994  14.981   7.364
 5915POPC   NC374699  29.163  34.568   5.564
 5915POPC   PO474700  29.179  34.586   5.864
 5915POPC   GL174701  29.151  34.561   6.164
 5915POPC   GL274702  29.283  34.603   6.164
 5915POPC   C1A74703  29.176  34.543   6.464
 5915POPC   D2A74704  29.194  34.610   6.764
 5915POPC   C3A74705  29.134  34.611   7.064
 5915POPC   C4A74706  29.170  34.557   7.364
 5915POPC   C1B74707  29.365  34.674   6.464
 5915POPC   C2B74708  29.410  34.613   6.764
 5915POPC   C3B74709  29.368  34.676   7.064
 5915POPC   C4B74710  29.399  34.600   7.364
 5916POPC   NC374711  19.043  11.282   5.564
 5916POPC   PO474712  19.105  11.339   5.864
 5916POPC   GL174713  19.030  11.282   6.164
 5916POPC   GL274714  19.077  11.125   6.164
 5916POPC   C1A74715  19.050  11.349   6.464
 5916POPC   D2A74716  19.027  11.346   6.764
 5916POPC   C3A74717  19.064  11.280   7.064
 5916POPC   C4A74718  19.096  11.255   7.364
 5916POPC   C1B74719  19.067  11.024   6.464
 5916POPC   C2B74720  19.099  11.042   6.764
 5916POPC   C3B74721  19.021  11.017   7.064
 5916POPC   C4B74722  19.038  11.018   7.364
 5917POPC   NC374723  26.083  21.383   5.564
 5917POPC   PO474724  26.078  21.367   5.864
 5917POPC   GL174725  26.082  21.421   6.164
 5917POPC   GL274726  26.050  21.523   6.164
 5917POPC   C1A74727  26.071  21.409   6.464
 5917POPC   D2A74728  26.069  21.404   6.764
 5917POPC   C3A74729  26.033  21.371   7.064
 5917POPC   C4A74730  26.060  21.340   7.364
 5917POPC   C1B74731  25.982  21.627   6.464
 5917POPC   C2B74732  25.972  21.601   6.764
 5917POPC   C3B74733  26.013  21.602   7.064
 5917POPC   C4B74734  25.977  21.586   7.364
 5918POPC   NC374735  30.704  24.511   5.564
 5918POPC   PO474736  30.732  24.530   5.864
 5918POPC   GL174737  30.696  24.525   6.164
 5918POPC   GL274738  30.837  24.399   6.164
 5918POPC   C1A74739  30.652  24.492   6.464
 5918POPC   D2A74740  30.687  24.468   6.764
 5918POPC   C3A74741  30.654  24.472   7.064
 5918POPC   C4A74742  30.654  24.514   7.364
 5918POPC   C1B74743  30.900  24.417   6.464
 5918POPC   C2B74744  30.968  24.371   6.764
 5918POPC   C3B74745  30.904  24.382   7.064
 5918POPC   C4B74746  30.898  24.403   7.364
 5919POPC   NC374747  40.793  12.864   5.564
 5919POPC   PO474748  40.810  12.890   5.864
 5919POPC   GL174749  40.802  12.883   6.164
 5919POPC   GL274750  40.886  12.719   6.164
 5919POPC   C1A74751  40.830  12.875   6.464
 5919POPC   D2A74752  40.746  12.855   6.764
 5919POPC   C3A74753  40.736  12.895   7.064
 5919POPC   C4A74754  40.780  12.855   7.364
 5919POPC   C1B74755  40.922  12.616   6.464
 5919POPC   C2B74756  40.926  12.668   6.764
 5919POPC   C3B74757  40.850  12.657   7.064
 5919POPC   C4B74758  40.886  12.672   7.364
 5920POPC   NC374759  38.439  33.817   5.564
 5920POPC   PO474760  38.501  33.795   5.864
 5920POPC   GL174761  38.467  33.753   6.164
 5920POPC   GL274762  38.340  33.755   6.164
 5920POPC   C1A74763  38.445  33.781   6.464
 5920POPC   D2A74764  38.429  33.828   6.764
 5920POPC   C3A74765  38.417  33.841   7.064
 5920POPC   C4A74766  38.478  33.762   7.364
 5920POPC   C1B74767  38.276  33.707   6.464
 5920POPC   C2B74768  38.218  33.662   6.764
 5920POPC   C3B74769  38.238  33.701   7.064
 5920POPC   C4B74770  38.289  33.681   7.364
 5921POPC   NC374771   1.235   2.793   5.564
 5921POPC   PO474772   1.223   2.815   5.864
 5921POPC   GL174773   1.229   2.794   6.164
 5921POPC   GL274774   1.248   2.920   6.164
 5921POPC   C1A74775   1.207   2.766   6.464
 5921POPC   D2A74776   1.231   2.740   6.764
 5921POPC   C3A74777   1.243   2.801   7.064
 5921POPC   C4A74778   1.244   2.731   7.364
 5921POPC   C1B74779   1.289   2.965   6.464
 5921POPC   C2B74780   1.358   2.948   6.764
 5921POPC   C3B74781   1.294   2.973   7.064
 5921POPC   C4B74782   1.285   3.037   7.364
 5922POPC   NC374783  33.751  36.931   5.564
 5922POPC   PO474784  33.832  36.948   5.864
 5922POPC   GL174785  33.807  36.932   6.164
 5922POPC   GL274786  33.944  36.815   6.164
 5922POPC   C1A74787  33.838  36.927   6.464
 5922POPC   D2A74788  33.791  36.895   6.764
 5922POPC   C3A74789  33.815  36.936   7.064
 5922POPC   C4A74790  33.815  36.860   7.364
 5922POPC   C1B74791  33.994  36.777   6.464
 5922POPC   C2B74792  33.969  36.741   6.764
 5922POPC   C3B74793  33.994  36.822   7.064
 5922POPC   C4B74794  34.004  36.797   7.364
 5923POPC   NC374795  22.168  44.644   5.564
 5923POPC   PO474796  22.195  44.635   5.864
 5923POPC   GL174797  22.127  44.650   6.164
 5923POPC   GL274798  22.146  44.836   6.164
 5923POPC   C1A74799  22.198  44.707   6.464
 5923POPC   D2A74800  22.176  44.634   6.764
 5923POPC   C3A74801  22.149  44.695   7.064
 5923POPC   C4A74802  22.161  44.663   7.364
 5923POPC   C1B74803  22.188  44.919   6.464
 5923POPC   C2B74804  22.170  44.896   6.764
 5923POPC   C3B74805  22.186  44.924   7.064
 5923POPC   C4B74806  22.203  44.895   7.364
 5924POPC   NC374807  41.571  29.193   5.564
 5924POPC   PO474808  41.513  29.192   5.864
 5924POPC   GL174809  41.540  29.139   6.164
 5924POPC   GL274810  41.474  29.143   6.164
 5924POPC   C1A74811  41.550  29.156   6.464
 5924POPC   D2A74812  41.586  29.144   6.764
 5924POPC   C3A74813  41.602  29.113   7.064
 5924POPC   C4A74814  41.585  29.183   7.364
 5924POPC   C1B74815  41.344  29.107   6.464
 5924POPC   C2B74816  41.289  29.109   6.764
 5924POPC   C3B74817  41.325  29.090   7.064
 5924POPC   C4B74818  41.362  29.049   7.364
 5925POPC   NC374819  21.340  41.567   5.564
 5925POPC   PO474820  21.419  41.563   5.864
 5925POPC   GL174821  21.346  41.545   6.164
 5925POPC   GL274822  21.461  41.691   6.164
 5925POPC   C1A74823  21.352  41.558   6.464
 5925POPC   D2A74824  21.392  41.607   6.764
 5925POPC   C3A74825  21.386  41.578   7.064
 5925POPC   C4A74826  21.355  41.574   7.364
 5925POPC   C1B74827  21.564  41.802   6.464
 5925POPC   C2B74828  21.522  41.735   6.764
 5925POPC   C3B74829  21.529  41.737   7.064
 5925POPC   C4B74830  21.546  41.795   7.364
 5926POPC   NC374831  22.903  24.528   5.564
 5926POPC   PO474832  22.936  24.517   5.864
 5926POPC   GL174833  22.907  24.513   6.164
 5926POPC   GL274834  23.104  24.549   6.164
 5926POPC   C1A74835  22.937  24.488   6.464
 5926POPC   D2A74836  22.911  24.443   6.764
 5926POPC   C3A74837  22.977  24.488   7.064
 5926POPC   C4A74838  22.975  24.513   7.364
 5926POPC   C1B74839  23.188  24.519   6.464
 5926POPC   C2B74840  23.180  24.596   6.764
 5926POPC   C3B74841  23.150  24.572   7.064
 5926POPC   C4B74842  23.212  24.600   7.364
 5927POPC   NC374843  40.736  43.077   5.564
 5927POPC   PO474844  40.765  43.092   5.864
 5927POPC   GL174845  40.814  43.074   6.164
 5927POPC   GL274846  40.847  43.241   6.164
 5927POPC   C1A74847  40.768  43.085   6.464
 5927POPC   D2A74848  40.815  43.135   6.764
 5927POPC   C3A74849  40.747  43.096   7.064
 5927POPC   C4A74850  40.791  43.135   7.364
 5927POPC   C1B74851  40.888  43.398   6.464
 5927POPC   C2B74852  40.865  43.304   6.764
 5927POPC   C3B74853  40.895  43.335   7.064
 5927POPC   C4B74854  40.858  43.329   7.364
 5928POPC   NC374855  33.830  25.228   5.564
 5928POPC   PO474856  33.805  25.251   5.864
 5928POPC   GL174857  33.778  25.298   6.164
 5928POPC   GL274858  33.787  25.435   6.164
 5928POPC   C1A74859  33.777  25.259   6.464
 5928POPC   D2A74860  33.796  25.235   6.764
 5928POPC   C3A74861  33.759  25.219   7.064
 5928POPC   C4A74862  33.766  25.234   7.364
 5928POPC   C1B74863  33.824  25.504   6.464
 5928POPC   C2B74864  33.800  25.512   6.764
 5928POPC   C3B74865  33.785  25.492   7.064
 5928POPC   C4B74866  33.769  25.503   7.364
 5929POPC   NC374867  38.463  36.901   5.564
 5929POPC   PO474868  38.425  36.856   5.864
 5929POPC   GL174869  38.446  36.863   6.164
 5929POPC   GL274870  38.463  37.068   6.164
 5929POPC   C1A74871  38.442  36.942   6.464
 5929POPC   D2A74872  38.471  36.933   6.764
 5929POPC   C3A74873  38.497  36.903   7.064
 5929POPC   C4A74874  38.452  36.948   7.364
 5929POPC   C1B74875  38.587  37.171   6.464
 5929POPC   C2B74876  38.510  37.097   6.764
 5929POPC   C3B74877  38.524  37.177   7.064
 5929POPC   C4B74878  38.596  37.162   7.364
 5930POPC   NC374879   9.792  40.790   5.564
 5930POPC   PO474880   9.707  40.782   5.864
 5930POPC   GL174881   9.756  40.828   6.164
 5930POPC   GL274882   9.890  40.848   6.164
 5930POPC   C1A74883   9.740  40.740   6.464
 5930POPC   D2A74884   9.786  40.764   6.764
 5930POPC   C3A74885   9.710  40.811   7.064
 5930POPC   C4A74886   9.735  40.805   7.364
 5930POPC   C1B74887   9.984  40.913   6.464
 5930POPC   C2B74888   9.947  40.960   6.764
 5930POPC   C3B74889   9.937  40.942   7.064
 5930POPC   C4B74890   9.942  40.952   7.364
 5931POPC   NC374891  43.838   1.984   5.564
 5931POPC   PO474892  43.919   2.020   5.864
 5931POPC   GL174893  43.853   1.987   6.164
 5931POPC   GL274894  44.012   2.002   6.164
 5931POPC   C1A74895  43.867   1.999   6.464
 5931POPC   D2A74896  43.932   2.025   6.764
 5931POPC   C3A74897  43.931   1.947   7.064
 5931POPC   C4A74898  43.894   2.006   7.364
 5931POPC   C1B74899  44.135   2.102   6.464
 5931POPC   C2B74900  44.094   2.136   6.764
 5931POPC   C3B74901  44.074   2.112   7.064
 5931POPC   C4B74902  44.084   2.061   7.364
 5932POPC   NC374903  26.087  32.219   5.564
 5932POPC   PO474904  26.054  32.282   5.864
 5932POPC   GL174905  26.063  32.295   6.164
 5932POPC   GL274906  26.024  32.094   6.164
 5932POPC   C1A74907  26.055  32.252   6.464
 5932POPC   D2A74908  26.041  32.276   6.764
 5932POPC   C3A74909  26.019  32.273   7.064
 5932POPC   C4A74910  26.039  32.274   7.364
 5932POPC   C1B74911  25.905  32.061   6.464
 5932POPC   C2B74912  25.990  32.027   6.764
 5932POPC   C3B74913  25.924  31.991   7.064
 5932POPC   C4B74914  25.966  32.025   7.364
 5933POPC   NC374915  36.920  29.125   5.564
 5933POPC   PO474916  36.921  29.117   5.864
 5933POPC   GL174917  36.952  29.151   6.164
 5933POPC   GL274918  36.960  29.246   6.164
 5933POPC   C1A74919  36.855  29.117   6.464
 5933POPC   D2A74920  36.950  29.141   6.764
 5933POPC   C3A74921  36.948  29.185   7.064
 5933POPC   C4A74922  36.903  29.103   7.364
 5933POPC   C1B74923  37.076  29.256   6.464
 5933POPC   C2B74924  37.082  29.257   6.764
 5933POPC   C3B74925  37.072  29.260   7.064
 5933POPC   C4B74926  37.134  29.295   7.364
 5934POPC   NC374927   8.239   9.779   5.564
 5934POPC   PO474928   8.212   9.747   5.864
 5934POPC   GL174929   8.209   9.783   6.164
 5934POPC   GL274930   8.335   9.804   6.164
 5934POPC   C1A74931   8.240   9.759   6.464
 5934POPC   D2A74932   8.179   9.748   6.764
 5934POPC   C3A74933   8.192   9.771   7.064
 5934POPC   C4A74934   8.203   9.734   7.364
 5934POPC   C1B74935   8.343   9.895   6.464
 5934POPC   C2B74936   8.349   9.898   6.764
 5934POPC   C3B74937   8.362   9.939   7.064
 5934POPC   C4B74938   8.388   9.904   7.364
 5935POPC   NC374939  38.496   3.516   5.564
 5935POPC   PO474940  38.435   3.581   5.864
 5935POPC   GL174941  38.444   3.577   6.164
 5935POPC   GL274942  38.602   3.464   6.164
 5935POPC   C1A74943  38.471   3.528   6.464
 5935POPC   D2A74944  38.466   3.577   6.764
 5935POPC   C3A74945  38.426   3.587   7.064
 5935POPC   C4A74946  38.475   3.590   7.364
 5935POPC   C1B74947  38.621   3.355   6.464
 5935POPC   C2B74948  38.646   3.362   6.764
 5935POPC   C3B74949  38.624   3.405   7.064
 5935POPC   C4B74950  38.649   3.424   7.364
 5936POPC   NC374951   4.288  40.790   5.564
 5936POPC   PO474952   4.322  40.778   5.864
 5936POPC   GL174953   4.295  40.829   6.164
 5936POPC   GL274954   4.426  40.759   6.164
 5936POPC   C1A74955   4.299  40.757   6.464
 5936POPC   D2A74956   4.287  40.787   6.764
 5936POPC   C3A74957   4.307  40.804   7.064
 5936POPC   C4A74958   4.342  40.749   7.364
 5936POPC   C1B74959   4.548  40.823   6.464
 5936POPC   C2B74960   4.572  40.775   6.764
 5936POPC   C3B74961   4.539  40.838   7.064
 5936POPC   C4B74962   4.524  40.774   7.364
 5937POPC   NC374963  26.000  24.501   5.564
 5937POPC   PO474964  26.068  24.471   5.864
 5937POPC   GL174965  26.014  24.489   6.164
 5937POPC   GL274966  25.885  24.564   6.164
 5937POPC   C1A74967  26.022  24.455   6.464
 5937POPC   D2A74968  26.008  24.512   6.764
 5937POPC   C3A74969  26.091  24.516   7.064
 5937POPC   C4A74970  26.074  24.532   7.364
 5937POPC   C1B74971  25.790  24.531   6.464
 5937POPC   C2B74972  25.783  24.613   6.764
 5937POPC   C3B74973  25.790  24.578   7.064
 5937POPC   C4B74974  25.799  24.592   7.364
 5938POPC   NC374975  38.440  22.173   5.564
 5938POPC   PO474976  38.469  22.173   5.864
 5938POPC   GL174977  38.436  22.171   6.164
 5938POPC   GL274978  38.350  22.249   6.164
 5938POPC   C1A74979  38.481  22.192   6.464
 5938POPC   D2A74980  38.418  22.190   6.764
 5938POPC   C3A74981  38.460  22.168   7.064
 5938POPC   C4A74982  38.502  22.123   7.364
 5938POPC   C1B74983  38.281  22.332   6.464
 5938POPC   C2B74984  38.291  22.316   6.764
 5938POPC   C3B74985  38.248  22.349   7.064
 5938POPC   C4B74986  38.282  22.296   7.364
 5939POPC   NC374987  24.534  12.812   5.564
 5939POPC   PO474988  24.517  12.821   5.864
 5939POPC   GL174989  24.473  12.899   6.164
 5939POPC   GL274990  24.367  12.833   6.164
 5939POPC   C1A74991  24.507  12.818   6.464
 5939POPC   D2A74992  24.516  12.806   6.764
 5939POPC   C3A74993  24.519  12.896   7.064
 5939POPC   C4A74994  24.475  12.891   7.364
 5939POPC   C1B74995  24.226  12.783   6.464
 5939POPC   C2B74996  24.240  12.797   6.764
 5939POPC   C3B74997  24.235  12.780   7.064
 5939POPC   C4B74998  24.308  12.733   7.364
 5940POPC   NC374999   3.567  32.982   5.564
 5940POPC   PO475000   3.561  33.007   5.864
 5940POPC   GL175001   3.493  32.979   6.164
 5940POPC   GL275002   3.607  33.155   6.164
 5940POPC   C1A75003   3.575  32.987   6.464
 5940POPC   D2A75004   3.534  32.976   6.764
 5940POPC   C3A75005   3.543  33.046   7.064
 5940POPC   C4A75006   3.571  33.025   7.364
 5940POPC   C1B75007   3.620  33.227   6.464
 5940POPC   C2B75008   3.590  33.292   6.764
 5940POPC   C3B75009   3.589  33.291   7.064
 5940POPC   C4B75010   3.615  33.245   7.364
 5941POPC   NC375011  14.422   2.796   5.564
 5941POPC   PO475012  14.398   2.717   5.864
 5941POPC   GL175013  14.432   2.807   6.164
 5941POPC   GL275014  14.472   2.650   6.164
 5941POPC   C1A75015  14.387   2.752   6.464
 5941POPC   D2A75016  14.432   2.741   6.764
 5941POPC   C3A75017  14.433   2.790   7.064
 5941POPC   C4A75018  14.406   2.771   7.364
 5941POPC   C1B75019  14.507   2.501   6.464
 5941POPC   C2B75020  14.485   2.502   6.764
 5941POPC   C3B75021  14.487   2.568   7.064
 5941POPC   C4B75022  14.493   2.552   7.364
 5942POPC   NC375023   5.130  36.141   5.564
 5942POPC   PO475024   5.087  36.165   5.864
 5942POPC   GL175025   5.137  36.095   6.164
 5942POPC   GL275026   5.014  36.113   6.164
 5942POPC   C1A75027   5.118  36.097   6.464
 5942POPC   D2A75028   5.057  36.140   6.764
 5942POPC   C3A75029   5.117  36.153   7.064
 5942POPC   C4A75030   5.122  36.115   7.364
 5942POPC   C1B75031   4.895  36.169   6.464
 5942POPC   C2B75032   4.816  36.145   6.764
 5942POPC   C3B75033   4.805  36.188   7.064
 5942POPC   C4B75034   4.885  36.160   7.364
 5943POPC   NC375035  26.850   6.642   5.564
 5943POPC   PO475036  26.780   6.610   5.864
 5943POPC   GL175037  26.822   6.663   6.164
 5943POPC   GL275038  26.913   6.615   6.164
 5943POPC   C1A75039  26.832   6.673   6.464
 5943POPC   D2A75040  26.864   6.658   6.764
 5943POPC   C3A75041  26.840   6.628   7.064
 5943POPC   C4A75042  26.788   6.606   7.364
 5943POPC   C1B75043  27.057   6.635   6.464
 5943POPC   C2B75044  27.114   6.612   6.764
 5943POPC   C3B75045  27.109   6.598   7.064
 5943POPC   C4B75046  27.094   6.589   7.364
 5944POPC   NC375047  31.464  42.332   5.564
 5944POPC   PO475048  31.502  42.350   5.864
 5944POPC   GL175049  31.499  42.312   6.164
 5944POPC   GL275050  31.492  42.448   6.164
 5944POPC   C1A75051  31.428  42.347   6.464
 5944POPC   D2A75052  31.518  42.374   6.764
 5944POPC   C3A75053  31.471  42.291   7.064
 5944POPC   C4A75054  31.510  42.358   7.364
 5944POPC   C1B75055  31.497  42.597   6.464
 5944POPC   C2B75056  31.454  42.633   6.764
 5944POPC   C3B75057  31.510  42.630   7.064
 5944POPC   C4B75058  31.543  42.569   7.364
 5945POPC   NC375059  40.769  36.161   5.564
 5945POPC   PO475060  40.749  36.107   5.864
 5945POPC   GL175061  40.737  36.081   6.164
 5945POPC   GL275062  40.717  36.084   6.164
 5945POPC   C1A75063  40.830  36.083   6.464
 5945POPC   D2A75064  40.788  36.122   6.764
 5945POPC   C3A75065  40.739  36.143   7.064
 5945POPC   C4A75066  40.737  36.121   7.364
 5945POPC   C1B75067  40.547  35.989   6.464
 5945POPC   C2B75068  40.550  36.004   6.764
 5945POPC   C3B75069  40.520  35.986   7.064
 5945POPC   C4B75070  40.558  35.988   7.364
 5946POPC   NC375071  36.172  44.685   5.564
 5946POPC   PO475072  36.161  44.641   5.864
 5946POPC   GL175073  36.108  44.641   6.164
 5946POPC   GL275074  36.058  44.626   6.164
 5946POPC   C1A75075  36.082  44.633   6.464
 5946POPC   D2A75076  36.102  44.632   6.764
 5946POPC   C3A75077  36.081  44.648   7.064
 5946POPC   C4A75078  36.155  44.682   7.364
 5946POPC   C1B75079  35.882  44.603   6.464
 5946POPC   C2B75080  35.889  44.549   6.764
 5946POPC   C3B75081  35.909  44.617   7.064
 5946POPC   C4B75082  35.845  44.609   7.364
 5947POPC   NC375083  44.709  40.034   5.564
 5947POPC   PO475084  44.701  39.977   5.864
 5947POPC   GL175085  44.671  39.982   6.164
 5947POPC   GL275086  44.581  39.937   6.164
 5947POPC   C1A75087  44.620  40.018   6.464
 5947POPC   D2A75088  44.709  39.997   6.764
 5947POPC   C3A75089  44.694  40.001   7.064
 5947POPC   C4A75090  44.707  39.993   7.364
 5947POPC   C1B75091  44.445  39.844   6.464
 5947POPC   C2B75092  44.470  39.832   6.764
 5947POPC   C3B75093  44.451  39.901   7.064
 5947POPC   C4B75094  44.487  39.847   7.364
 5948POPC   NC375095  19.811  30.676   5.564
 5948POPC   PO475096  19.793  30.708   5.864
 5948POPC   GL175097  19.845  30.647   6.164
 5948POPC   GL275098  19.859  30.859   6.164
 5948POPC   C1A75099  19.836  30.676   6.464
 5948POPC   D2A75100  19.807  30.738   6.764
 5948POPC   C3A75101  19.878  30.740   7.064
 5948POPC   C4A75102  19.805  30.735   7.364
 5948POPC   C1B75103  19.883  30.988   6.464
 5948POPC   C2B75104  19.846  30.942   6.764
 5948POPC   C3B75105  19.884  30.931   7.064
 5948POPC   C4B75106  19.899  30.937   7.364
 5949POPC   NC375107  26.827   5.072   5.564
 5949POPC   PO475108  26.853   5.094   5.864
 5949POPC   GL175109  26.854   5.093   6.164
 5949POPC   GL275110  26.679   5.020   6.164
 5949POPC   C1A75111  26.845   5.103   6.464
 5949POPC   D2A75112  26.838   5.090   6.764
 5949POPC   C3A75113  26.825   5.115   7.064
 5949POPC   C4A75114  26.814   5.095   7.364
 5949POPC   C1B75115  26.634   4.963   6.464
 5949POPC   C2B75116  26.565   4.930   6.764
 5949POPC   C3B75117  26.639   5.003   7.064
 5949POPC   C4B75118  26.617   4.938   7.364
 5950POPC   NC375119  26.805   8.996   5.564
 5950POPC   PO475120  26.857   8.940   5.864
 5950POPC   GL175121  26.810   8.940   6.164
 5950POPC   GL275122  26.856   8.817   6.164
 5950POPC   C1A75123  26.830   8.981   6.464
 5950POPC   D2A75124  26.851   8.977   6.764
 5950POPC   C3A75125  26.828   8.925   7.064
 5950POPC   C4A75126  26.825   9.009   7.364
 5950POPC   C1B75127  26.849   8.764   6.464
 5950POPC   C2B75128  26.824   8.750   6.764
 5950POPC   C3B75129  26.782   8.766   7.064
 5950POPC   C4B75130  26.839   8.690   7.364
 5951POPC   NC375131  41.537   3.563   5.564
 5951POPC   PO475132  41.605   3.525   5.864
 5951POPC   GL175133  41.564   3.540   6.164
 5951POPC   GL275134  41.438   3.565   6.164
 5951POPC   C1A75135  41.542   3.537   6.464
 5951POPC   D2A75136  41.528   3.510   6.764
 5951POPC   C3A75137  41.548   3.548   7.064
 5951POPC   C4A75138  41.585   3.569   7.364
 5951POPC   C1B75139  41.314   3.618   6.464
 5951POPC   C2B75140  41.379   3.695   6.764
 5951POPC   C3B75141  41.312   3.619   7.064
 5951POPC   C4B75142  41.386   3.656   7.364
 5952POPC   NC375143  20.601  22.175   5.564
 5952POPC   PO475144  20.633  22.208   5.864
 5952POPC   GL175145  20.653  22.116   6.164
 5952POPC   GL275146  20.663  22.004   6.164
 5952POPC   C1A75147  20.648  22.153   6.464
 5952POPC   D2A75148  20.650  22.178   6.764
 5952POPC   C3A75149  20.653  22.193   7.064
 5952POPC   C4A75150  20.562  22.149   7.364
 5952POPC   C1B75151  20.660  21.933   6.464
 5952POPC   C2B75152  20.645  21.891   6.764
 5952POPC   C3B75153  20.640  21.952   7.064
 5952POPC   C4B75154  20.670  21.896   7.364
 5953POPC   NC375155  12.088  41.589   5.564
 5953POPC   PO475156  12.080  41.570   5.864
 5953POPC   GL175157  12.032  41.527   6.164
 5953POPC   GL275158  12.166  41.622   6.164
 5953POPC   C1A75159  12.066  41.554   6.464
 5953POPC   D2A75160  12.100  41.596   6.764
 5953POPC   C3A75161  12.112  41.536   7.064
 5953POPC   C4A75162  12.087  41.572   7.364
 5953POPC   C1B75163  12.272  41.640   6.464
 5953POPC   C2B75164  12.287  41.601   6.764
 5953POPC   C3B75165  12.288  41.554   7.064
 5953POPC   C4B75166  12.370  41.650   7.364
 5954POPC   NC375167  19.844  39.962   5.564
 5954POPC   PO475168  19.819  39.993   5.864
 5954POPC   GL175169  19.881  40.011   6.164
 5954POPC   GL275170  19.716  40.052   6.164
 5954POPC   C1A75171  19.860  40.032   6.464
 5954POPC   D2A75172  19.817  40.006   6.764
 5954POPC   C3A75173  19.839  40.019   7.064
 5954POPC   C4A75174  19.866  40.006   7.364
 5954POPC   C1B75175  19.628  40.178   6.464
 5954POPC   C2B75176  19.635  40.144   6.764
 5954POPC   C3B75177  19.686  40.140   7.064
 5954POPC   C4B75178  19.623  40.165   7.364
 5955POPC   NC375179   4.337  11.285   5.564
 5955POPC   PO475180   4.336  11.273   5.864
 5955POPC   GL175181   4.314  11.309   6.164
 5955POPC   GL275182   4.216  11.243   6.164
 5955POPC   C1A75183   4.329  11.268   6.464
 5955POPC   D2A75184   4.269  11.315   6.764
 5955POPC   C3A75185   4.364  11.269   7.064
 5955POPC   C4A75186   4.333  11.295   7.364
 5955POPC   C1B75187   4.140  11.145   6.464
 5955POPC   C2B75188   4.199  11.076   6.764
 5955POPC   C3B75189   4.163  11.149   7.064
 5955POPC   C4B75190   4.204  11.140   7.364
 5956POPC   NC375191  25.281  33.780   5.564
 5956POPC   PO475192  25.248  33.801   5.864
 5956POPC   GL175193  25.288  33.750   6.164
 5956POPC   GL275194  25.378  33.890   6.164
 5956POPC   C1A75195  25.312  33.797   6.464
 5956POPC   D2A75196  25.260  33.777   6.764
 5956POPC   C3A75197  25.274  33.783   7.064
 5956POPC   C4A75198  25.223  33.799   7.364
 5956POPC   C1B75199  25.441  33.980   6.464
 5956POPC   C2B75200  25.425  33.948   6.764
 5956POPC   C3B75201  25.474  33.898   7.064
 5956POPC   C4B75202  25.482  33.973   7.364
 5957POPC   NC375203   8.170  30.664   5.564
 5957POPC   PO475204   8.155  30.722   5.864
 5957POPC   GL175205   8.210  30.718   6.164
 5957POPC   GL275206   8.153  30.862   6.164
 5957POPC   C1A75207   8.150  30.688   6.464
 5957POPC   D2A75208   8.148  30.740   6.764
 5957POPC   C3A75209   8.171  30.656   7.064
 5957POPC   C4A75210   8.155  30.673   7.364
 5957POPC   C1B75211   8.166  30.949   6.464
 5957POPC   C2B75212   8.110  30.965   6.764
 5957POPC   C3B75213   8.128  30.914   7.064
 5957POPC   C4B75214   8.116  30.918   7.364
 5958POPC   NC375215  41.562   1.211   5.564
 5958POPC   PO475216  41.532   1.256   5.864
 5958POPC   GL175217  41.600   1.181   6.164
 5958POPC   GL275218  41.615   1.127   6.164
 5958POPC   C1A75219  41.525   1.176   6.464
 5958POPC   D2A75220  41.543   1.198   6.764
 5958POPC   C3A75221  41.536   1.242   7.064
 5958POPC   C4A75222  41.599   1.251   7.364
 5958POPC   C1B75223  41.674   1.001   6.464
 5958POPC   C2B75224  41.653   0.965   6.764
 5958POPC   C3B75225  41.668   0.992   7.064
 5958POPC   C4B75226  41.594   0.967   7.364
 5959POPC   NC375227  15.209  18.245   5.564
 5959POPC   PO475228  15.194  18.333   5.864
 5959POPC   GL175229  15.142  18.301   6.164
 5959POPC   GL275230  15.203  18.212   6.164
 5959POPC   C1A75231  15.145  18.299   6.464
 5959POPC   D2A75232  15.188  18.309   6.764
 5959POPC   C3A75233  15.202  18.284   7.064
 5959POPC   C4A75234  15.224  18.276   7.364
 5959POPC   C1B75235  15.208  17.997   6.464
 5959POPC   C2B75236  15.218  18.052   6.764
 5959POPC   C3B75237  15.196  17.997   7.064
 5959POPC   C4B75238  15.275  18.072   7.364
 5960POPC   NC375239  35.328  42.333   5.564
 5960POPC   PO475240  35.358  42.341   5.864
 5960POPC   GL175241  35.333  42.367   6.164
 5960POPC   GL275242  35.387  42.465   6.164
 5960POPC   C1A75243  35.389  42.296   6.464
 5960POPC   D2A75244  35.334  42.322   6.764
 5960POPC   C3A75245  35.346  42.303   7.064
 5960POPC   C4A75246  35.366  42.290   7.364
 5960POPC   C1B75247  35.399  42.540   6.464
 5960POPC   C2B75248  35.448  42.530   6.764
 5960POPC   C3B75249  35.443  42.574   7.064
 5960POPC   C4B75250  35.410  42.543   7.364
 5961POPC   NC375251  29.919  15.165   5.564
 5961POPC   PO475252  29.871  15.138   5.864
 5961POPC   GL175253  29.963  15.209   6.164
 5961POPC   GL275254  29.953  15.044   6.164
 5961POPC   C1A75255  29.965  15.135   6.464
 5961POPC   D2A75256  29.897  15.226   6.764
 5961POPC   C3A75257  29.966  15.144   7.064
 5961POPC   C4A75258  29.904  15.162   7.364
 5961POPC   C1B75259  30.056  14.988   6.464
 5961POPC   C2B75260  30.095  14.942   6.764
 5961POPC   C3B75261  30.062  14.995   7.064
 5961POPC   C4B75262  30.093  14.982   7.364
 5962POPC   NC375263  21.408   1.961   5.564
 5962POPC   PO475264  21.354   1.959   5.864
 5962POPC   GL175265  21.419   1.941   6.164
 5962POPC   GL275266  21.523   1.977   6.164
 5962POPC   C1A75267  21.406   2.019   6.464
 5962POPC   D2A75268  21.361   1.960   6.764
 5962POPC   C3A75269  21.353   1.957   7.064
 5962POPC   C4A75270  21.401   2.036   7.364
 5962POPC   C1B75271  21.663   2.012   6.464
 5962POPC   C2B75272  21.660   2.026   6.764
 5962POPC   C3B75273  21.615   2.070   7.064
 5962POPC   C4B75274  21.625   2.035   7.364
 5963POPC   NC375275  27.575  11.260   5.564
 5963POPC   PO475276  27.625  11.293   5.864
 5963POPC   GL175277  27.593  11.309   6.164
 5963POPC   GL275278  27.541  11.405   6.164
 5963POPC   C1A75279  27.603  11.342   6.464
 5963POPC   D2A75280  27.600  11.279   6.764
 5963POPC   C3A75281  27.589  11.271   7.064
 5963POPC   C4A75282  27.586  11.258   7.364
 5963POPC   C1B75283  27.599  11.516   6.464
 5963POPC   C2B75284  27.573  11.544   6.764
 5963POPC   C3B75285  27.557  11.576   7.064
 5963POPC   C4B75286  27.591  11.506   7.364
 5964POPC   NC375287  23.763  17.496   5.564
 5964POPC   PO475288  23.681  17.521   5.864
 5964POPC   GL175289  23.733  17.473   6.164
 5964POPC   GL275290  23.587  17.553   6.164
 5964POPC   C1A75291  23.746  17.537   6.464
 5964POPC   D2A75292  23.702  17.514   6.764
 5964POPC   C3A75293  23.744  17.478   7.064
 5964POPC   C4A75294  23.689  17.474   7.364
 5964POPC   C1B75295  23.450  17.588   6.464
 5964POPC   C2B75296  23.523  17.598   6.764
 5964POPC   C3B75297  23.434  17.546   7.064
 5964POPC   C4B75298  23.433  17.573   7.364
 5965POPC   NC375299  33.047  14.374   5.564
 5965POPC   PO475300  33.019  14.448   5.864
 5965POPC   GL175301  33.033  14.398   6.164
 5965POPC   GL275302  32.940  14.521   6.164
 5965POPC   C1A75303  33.053  14.369   6.464
 5965POPC   D2A75304  33.002  14.371   6.764
 5965POPC   C3A75305  33.021  14.387   7.064
 5965POPC   C4A75306  33.037  14.377   7.364
 5965POPC   C1B75307  32.977  14.663   6.464
 5965POPC   C2B75308  32.982  14.611   6.764
 5965POPC   C3B75309  32.955  14.600   7.064
 5965POPC   C4B75310  32.968  14.670   7.364
 5966POPC   NC375311  35.362  35.398   5.564
 5966POPC   PO475312  35.359  35.334   5.864
 5966POPC   GL175313  35.387  35.371   6.164
 5966POPC   GL275314  35.208  35.471   6.164
 5966POPC   C1A75315  35.364  35.373   6.464
 5966POPC   D2A75316  35.354  35.328   6.764
 5966POPC   C3A75317  35.390  35.380   7.064
 5966POPC   C4A75318  35.318  35.308   7.364
 5966POPC   C1B75319  35.113  35.541   6.464
 5966POPC   C2B75320  35.109  35.508   6.764
 5966POPC   C3B75321  35.151  35.524   7.064
 5966POPC   C4B75322  35.165  35.508   7.364
 5967POPC   NC375323   8.999   1.979   5.564
 5967POPC   PO475324   8.997   2.015   5.864
 5967POPC   GL175325   8.996   2.012   6.164
 5967POPC   GL275326   8.923   2.054   6.164
 5967POPC   C1A75327   8.987   1.961   6.464
 5967POPC   D2A75328   9.022   2.035   6.764
 5967POPC   C3A75329   8.997   1.993   7.064
 5967POPC   C4A75330   8.972   1.979   7.364
 5967POPC   C1B75331   8.752   2.172   6.464
 5967POPC   C2B75332   8.768   2.166   6.764
 5967POPC   C3B75333   8.762   2.130   7.064
 5967POPC   C4B75334   8.795   2.147   7.364
 5968POPC   NC375335  39.227  19.798   5.564
 5968POPC   PO475336  39.218  19.844   5.864
 5968POPC   GL175337  39.199  19.787   6.164
 5968POPC   GL275338  39.361  19.959   6.164
 5968POPC   C1A75339  39.280  19.801   6.464
 5968POPC   D2A75340  39.224  19.846   6.764
 5968POPC   C3A75341  39.215  19.850   7.064
 5968POPC   C4A75342  39.279  19.797   7.364
 5968POPC   C1B75343  39.430  19.950   6.464
 5968POPC   C2B75344  39.389  20.015   6.764
 5968POPC   C3B75345  39.409  19.942   7.064
 5968POPC   C4B75346  39.399  19.994   7.364
 5969POPC   NC375347  41.598  20.592   5.564
 5969POPC   PO475348  41.570  20.626   5.864
 5969POPC   GL175349  41.563  20.561   6.164
 5969POPC   GL275350  41.583  20.479   6.164
 5969POPC   C1A75351  41.528  20.659   6.464
 5969POPC   D2A75352  41.541  20.568   6.764
 5969POPC   C3A75353  41.554  20.646   7.064
 5969POPC   C4A75354  41.510  20.604   7.364
 5969POPC   C1B75355  41.565  20.358   6.464
 5969POPC   C2B75356  41.573  20.381   6.764
 5969POPC   C3B75357  41.621  20.372   7.064
 5969POPC   C4B75358  41.601  20.311   7.364
 5970POPC   NC375359  17.504  22.924   5.564
 5970POPC   PO475360  17.480  22.888   5.864
 5970POPC   GL175361  17.520  22.987   6.164
 5970POPC   GL275362  17.463  23.024   6.164
 5970POPC   C1A75363  17.489  22.957   6.464
 5970POPC   D2A75364  17.479  22.912   6.764
 5970POPC   C3A75365  17.478  22.930   7.064
 5970POPC   C4A75366  17.508  22.923   7.364
 5970POPC   C1B75367  17.324  23.113   6.464
 5970POPC   C2B75368  17.340  23.093   6.764
 5970POPC   C3B75369  17.375  23.098   7.064
 5970POPC   C4B75370  17.291  23.155   7.364
 5971POPC   NC375371  43.887   5.881   5.564
 5971POPC   PO475372  43.839   5.885   5.864
 5971POPC   GL175373  43.884   5.882   6.164
 5971POPC   GL275374  43.737   5.859   6.164
 5971POPC   C1A75375  43.906   5.820   6.464
 5971POPC   D2A75376  43.918   5.876   6.764
 5971POPC   C3A75377  43.871   5.838   7.064
 5971POPC   C4A75378  43.837   5.909   7.364
 5971POPC   C1B75379  43.589   5.874   6.464
 5971POPC   C2B75380  43.677   5.813   6.764
 5971POPC   C3B75381  43.664   5.847   7.064
 5971POPC   C4B75382  43.589   5.875   7.364
 5972POPC   NC375383  31.477  11.272   5.564
 5972POPC   PO475384  31.503  11.260   5.864
 5972POPC   GL175385  31.498  11.258   6.164
 5972POPC   GL275386  31.474  11.173   6.164
 5972POPC   C1A75387  31.486  11.330   6.464
 5972POPC   D2A75388  31.471  11.252   6.764
 5972POPC   C3A75389  31.437  11.260   7.064
 5972POPC   C4A75390  31.505  11.337   7.364
 5972POPC   C1B75391  31.481  11.100   6.464
 5972POPC   C2B75392  31.515  11.082   6.764
 5972POPC   C3B75393  31.480  11.041   7.064
 5972POPC   C4B75394  31.490  11.061   7.364
 5973POPC   NC375395   1.180  41.509   5.564
 5973POPC   PO475396   1.178  41.552   5.864
 5973POPC   GL175397   1.204  41.540   6.164
 5973POPC   GL275398   1.098  41.448   6.164
 5973POPC   C1A75399   1.198  41.515   6.464
 5973POPC   D2A75400   1.217  41.529   6.764
 5973POPC   C3A75401   1.200  41.582   7.064
 5973POPC   C4A75402   1.197  41.549   7.364
 5973POPC   C1B75403   1.049  41.391   6.464
 5973POPC   C2B75404   0.989  41.423   6.764
 5973POPC   C3B75405   1.017  41.383   7.064
 5973POPC   C4B75406   1.019  41.383   7.364
 5974POPC   NC375407   1.944  14.405   5.564
 5974POPC   PO475408   1.967  14.357   5.864
 5974POPC   GL175409   2.007  14.450   6.164
 5974POPC   GL275410   1.867  14.420   6.164
 5974POPC   C1A75411   1.997  14.373   6.464
 5974POPC   D2A75412   1.962  14.370   6.764
 5974POPC   C3A75413   1.959  14.383   7.064
 5974POPC   C4A75414   2.039  14.401   7.364
 5974POPC   C1B75415   1.761  14.557   6.464
 5974POPC   C2B75416   1.794  14.499   6.764
 5974POPC   C3B75417   1.795  14.530   7.064
 5974POPC   C4B75418   1.726  14.555   7.364
 5975POPC   NC375419  20.579  14.407   5.564
 5975POPC   PO475420  20.636  14.448   5.864
 5975POPC   GL175421  20.629  14.444   6.164
 5975POPC   GL275422  20.673  14.477   6.164
 5975POPC   C1A75423  20.660  14.392   6.464
 5975POPC   D2A75424  20.564  14.387   6.764
 5975POPC   C3A75425  20.574  14.433   7.064
 5975POPC   C4A75426  20.654  14.446   7.364
 5975POPC   C1B75427  20.771  14.650   6.464
 5975POPC   C2B75428  20.743  14.661   6.764
 5975POPC   C3B75429  20.743  14.609   7.064
 5975POPC   C4B75430  20.753  14.610   7.364
 5976POPC   NC375431  17.510   0.460   5.564
 5976POPC   PO475432  17.544   0.414   5.864
 5976POPC   GL175433  17.529   0.472   6.164
 5976POPC   GL275434  17.627   0.492   6.164
 5976POPC   C1A75435  17.518   0.438   6.464
 5976POPC   D2A75436  17.543   0.455   6.764
 5976POPC   C3A75437  17.507   0.413   7.064
 5976POPC   C4A75438  17.497   0.472   7.364
 5976POPC   C1B75439  17.712   0.480   6.464
 5976POPC   C2B75440  17.735   0.492   6.764
 5976POPC   C3B75441  17.787   0.460   7.064
 5976POPC   C4B75442  17.753   0.483   7.364
 5977POPC   NC375443   7.403  38.476   5.564
 5977POPC   PO475444   7.371  38.407   5.864
 5977POPC   GL175445   7.395  38.433   6.164
 5977POPC   GL275446   7.468  38.603   6.164
 5977POPC   C1A75447   7.451  38.417   6.464
 5977POPC   D2A75448   7.420  38.441   6.764
 5977POPC   C3A75449   7.460  38.449   7.064
 5977POPC   C4A75450   7.414  38.480   7.364
 5977POPC   C1B75451   7.410  38.678   6.464
 5977POPC   C2B75452   7.479  38.682   6.764
 5977POPC   C3B75453   7.415  38.681   7.064
 5977POPC   C4B75454   7.445  38.732   7.364
 5978POPC   NC375455  43.079  15.214   5.564
 5978POPC   PO475456  43.135  15.155   5.864
 5978POPC   GL175457  43.156  15.161   6.164
 5978POPC   GL275458  43.086  15.307   6.164
 5978POPC   C1A75459  43.104  15.192   6.464
 5978POPC   D2A75460  43.084  15.214   6.764
 5978POPC   C3A75461  43.106  15.150   7.064
 5978POPC   C4A75462  43.061  15.145   7.364
 5978POPC   C1B75463  43.191  15.431   6.464
 5978POPC   C2B75464  43.196  15.433   6.764
 5978POPC   C3B75465  43.168  15.422   7.064
 5978POPC   C4B75466  43.136  15.452   7.364
 5979POPC   NC375467  32.218  34.570   5.564
 5979POPC   PO475468  32.284  34.567   5.864
 5979POPC   GL175469  32.275  34.610   6.164
 5979POPC   GL275470  32.251  34.443   6.164
 5979POPC   C1A75471  32.247  34.596   6.464
 5979POPC   D2A75472  32.243  34.584   6.764
 5979POPC   C3A75473  32.227  34.593   7.064
 5979POPC   C4A75474  32.279  34.573   7.364
 5979POPC   C1B75475  32.309  34.378   6.464
 5979POPC   C2B75476  32.332  34.326   6.764
 5979POPC   C3B75477  32.286  34.375   7.064
 5979POPC   C4B75478  32.325  34.303   7.364
 5980POPC   NC375479   0.477   6.670   5.564
 5980POPC   PO475480   0.420   6.614   5.864
 5980POPC   GL175481   0.450   6.634   6.164
 5980POPC   GL275482   0.337   6.730   6.164
 5980POPC   C1A75483   0.468   6.677   6.464
 5980POPC   D2A75484   0.479   6.681   6.764
 5980POPC   C3A75485   0.405   6.650   7.064
 5980POPC   C4A75486   0.475   6.617   7.364
 5980POPC   C1B75487   0.239   6.763   6.464
 5980POPC   C2B75488   0.221   6.745   6.764
 5980POPC   C3B75489   0.181   6.750   7.064
 5980POPC   C4B75490   0.170   6.703   7.364
 5981POPC   NC375491  34.585   4.268   5.564
 5981POPC   PO475492  34.527   4.271   5.864
 5981POPC   GL175493  34.620   4.318   6.164
 5981POPC   GL275494  34.492   4.219   6.164
 5981POPC   C1A75495  34.599   4.316   6.464
 5981POPC   D2A75496  34.532   4.327   6.764
 5981POPC   C3A75497  34.526   4.289   7.064
 5981POPC   C4A75498  34.557   4.292   7.364
 5981POPC   C1B75499  34.523   4.040   6.464
 5981POPC   C2B75500  34.503   4.085   6.764
 5981POPC   C3B75501  34.461   4.104   7.064
 5981POPC   C4B75502  34.480   4.115   7.364
 5982POPC   NC375503  19.090  17.547   5.564
 5982POPC   PO475504  19.082  17.526   5.864
 5982POPC   GL175505  19.059  17.511   6.164
 5982POPC   GL275506  19.170  17.494   6.164
 5982POPC   C1A75507  19.009  17.537   6.464
 5982POPC   D2A75508  19.085  17.523   6.764
 5982POPC   C3A75509  19.085  17.544   7.064
 5982POPC   C4A75510  19.053  17.534   7.364
 5982POPC   C1B75511  19.293  17.427   6.464
 5982POPC   C2B75512  19.305  17.521   6.764
 5982POPC   C3B75513  19.331  17.484   7.064
 5982POPC   C4B75514  19.322  17.442   7.364
 5983POPC   NC375515  25.228   8.990   5.564
 5983POPC   PO475516  25.308   8.956   5.864
 5983POPC   GL175517  25.225   8.962   6.164
 5983POPC   GL275518  25.120   9.029   6.164
 5983POPC   C1A75519  25.251   8.989   6.464
 5983POPC   D2A75520  25.252   8.926   6.764
 5983POPC   C3A75521  25.224   8.952   7.064
 5983POPC   C4A75522  25.238   8.980   7.364
 5983POPC   C1B75523  25.018   9.091   6.464
 5983POPC   C2B75524  25.079   9.079   6.764
 5983POPC   C3B75525  24.989   9.079   7.064
 5983POPC   C4B75526  25.050   9.021   7.364
 5984POPC   NC375527  27.611  38.452   5.564
 5984POPC   PO475528  27.619  38.411   5.864
 5984POPC   GL175529  27.591  38.478   6.164
 5984POPC   GL275530  27.683  38.585   6.164
 5984POPC   C1A75531  27.557  38.469   6.464
 5984POPC   D2A75532  27.604  38.408   6.764
 5984POPC   C3A75533  27.616  38.496   7.064
 5984POPC   C4A75534  27.604  38.442   7.364
 5984POPC   C1B75535  27.724  38.658   6.464
 5984POPC   C2B75536  27.721  38.711   6.764
 5984POPC   C3B75537  27.670  38.704   7.064
 5984POPC   C4B75538  27.665  38.694   7.364
 5985POPC   NC375539  40.827  39.182   5.564
 5985POPC   PO475540  40.809  39.245   5.864
 5985POPC   GL175541  40.798  39.277   6.164
 5985POPC   GL275542  40.787  39.097   6.164
 5985POPC   C1A75543  40.749  39.262   6.464
 5985POPC   D2A75544  40.742  39.252   6.764
 5985POPC   C3A75545  40.794  39.270   7.064
 5985POPC   C4A75546  40.801  39.267   7.364
 5985POPC   C1B75547  40.854  38.975   6.464
 5985POPC   C2B75548  40.898  38.976   6.764
 5985POPC   C3B75549  40.913  39.035   7.064
 5985POPC   C4B75550  40.841  39.002   7.364
 5986POPC   NC375551  29.942   9.703   5.564
 5986POPC   PO475552  29.905   9.791   5.864
 5986POPC   GL175553  29.905   9.789   6.164
 5986POPC   GL275554  29.967   9.915   6.164
 5986POPC   C1A75555  29.888   9.762   6.464
 5986POPC   D2A75556  29.957   9.718   6.764
 5986POPC   C3A75557  29.894   9.793   7.064
 5986POPC   C4A75558  29.945   9.741   7.364
 5986POPC   C1B75559  29.924   9.994   6.464
 5986POPC   C2B75560  29.995  10.010   6.764
 5986POPC   C3B75561  29.979   9.957   7.064
 5986POPC   C4B75562  29.966  10.030   7.364
 5987POPC   NC375563   2.767   4.367   5.564
 5987POPC   PO475564   2.721   4.359   5.864
 5987POPC   GL175565   2.753   4.303   6.164
 5987POPC   GL275566   2.732   4.404   6.164
 5987POPC   C1A75567   2.782   4.326   6.464
 5987POPC   D2A75568   2.787   4.354   6.764
 5987POPC   C3A75569   2.810   4.330   7.064
 5987POPC   C4A75570   2.802   4.326   7.364
 5987POPC   C1B75571   2.746   4.611   6.464
 5987POPC   C2B75572   2.699   4.524   6.764
 5987POPC   C3B75573   2.744   4.516   7.064
 5987POPC   C4B75574   2.734   4.593   7.364
 5988POPC   NC375575  13.604   6.683   5.564
 5988POPC   PO475576  13.603   6.665   5.864
 5988POPC   GL175577  13.664   6.671   6.164
 5988POPC   GL275578  13.614   6.488   6.164
 5988POPC   C1A75579  13.616   6.680   6.464
 5988POPC   D2A75580  13.614   6.688   6.764
 5988POPC   C3A75581  13.611   6.616   7.064
 5988POPC   C4A75582  13.586   6.686   7.364
 5988POPC   C1B75583  13.600   6.438   6.464
 5988POPC   C2B75584  13.570   6.402   6.764
 5988POPC   C3B75585  13.553   6.441   7.064
 5988POPC   C4B75586  13.592   6.376   7.364
 5989POPC   NC375587  17.539  39.210   5.564
 5989POPC   PO475588  17.475  39.190   5.864
 5989POPC   GL175589  17.483  39.270   6.164
 5989POPC   GL275590  17.475  39.109   6.164
 5989POPC   C1A75591  17.511  39.219   6.464
 5989POPC   D2A75592  17.481  39.269   6.764
 5989POPC   C3A75593  17.496  39.185   7.064
 5989POPC   C4A75594  17.520  39.250   7.364
 5989POPC   C1B75595  17.485  38.987   6.464
 5989POPC   C2B75596  17.538  38.968   6.764
 5989POPC   C3B75597  17.555  39.017   7.064
 5989POPC   C4B75598  17.518  38.973   7.364
 5990POPC   NC375599  36.111  34.586   5.564
 5990POPC   PO475600  36.107  34.608   5.864
 5990POPC   GL175601  36.155  34.597   6.164
 5990POPC   GL275602  36.214  34.477   6.164
 5990POPC   C1A75603  36.090  34.541   6.464
 5990POPC   D2A75604  36.170  34.586   6.764
 5990POPC   C3A75605  36.086  34.547   7.064
 5990POPC   C4A75606  36.113  34.581   7.364
 5990POPC   C1B75607  36.267  34.326   6.464
 5990POPC   C2B75608  36.194  34.322   6.764
 5990POPC   C3B75609  36.215  34.364   7.064
 5990POPC   C4B75610  36.270  34.379   7.364
 5991POPC   NC375611  15.225  35.356   5.564
 5991POPC   PO475612  15.198  35.310   5.864
 5991POPC   GL175613  15.162  35.393   6.164
 5991POPC   GL275614  15.071  35.292   6.164
 5991POPC   C1A75615  15.209  35.371   6.464
 5991POPC   D2A75616  15.167  35.390   6.764
 5991POPC   C3A75617  15.220  35.331   7.064
 5991POPC   C4A75618  15.160  35.396   7.364
 5991POPC   C1B75619  15.049  35.223   6.464
 5991POPC   C2B75620  14.974  35.221   6.764
 5991POPC   C3B75621  15.022  35.144   7.064
 5991POPC   C4B75622  14.997  35.186   7.364
 5992POPC   NC375623  22.140   2.797   5.564
 5992POPC   PO475624  22.187   2.775   5.864
 5992POPC   GL175625  22.140   2.790   6.164
 5992POPC   GL275626  22.320   2.831   6.164
 5992POPC   C1A75627  22.171   2.809   6.464
 5992POPC   D2A75628  22.119   2.808   6.764
 5992POPC   C3A75629  22.145   2.770   7.064
 5992POPC   C4A75630  22.205   2.739   7.364
 5992POPC   C1B75631  22.376   2.857   6.464
 5992POPC   C2B75632  22.433   2.868   6.764
 5992POPC   C3B75633  22.428   2.859   7.064
 5992POPC   C4B75634  22.393   2.860   7.364
 5993POPC   NC375635  37.637  22.929   5.564
 5993POPC   PO475636  37.638  22.987   5.864
 5993POPC   GL175637  37.658  22.960   6.164
 5993POPC   GL275638  37.643  22.808   6.164
 5993POPC   C1A75639  37.662  22.899   6.464
 5993POPC   D2A75640  37.639  22.943   6.764
 5993POPC   C3A75641  37.681  22.958   7.064
 5993POPC   C4A75642  37.693  22.908   7.364
 5993POPC   C1B75643  37.619  22.732   6.464
 5993POPC   C2B75644  37.575  22.688   6.764
 5993POPC   C3B75645  37.638  22.732   7.064
 5993POPC   C4B75646  37.554  22.651   7.364
 5994POPC   NC375647   9.743  41.608   5.564
 5994POPC   PO475648   9.757  41.560   5.864
 5994POPC   GL175649   9.767  41.513   6.164
 5994POPC   GL275650   9.682  41.570   6.164
 5994POPC   C1A75651   9.719  41.567   6.464
 5994POPC   D2A75652   9.754  41.600   6.764
 5994POPC   C3A75653   9.765  41.557   7.064
 5994POPC   C4A75654   9.789  41.532   7.364
 5994POPC   C1B75655   9.574  41.687   6.464
 5994POPC   C2B75656   9.491  41.672   6.764
 5994POPC   C3B75657   9.507  41.661   7.064
 5994POPC   C4B75658   9.536  41.698   7.364
 5995POPC   NC375659  13.615  34.579   5.564
 5995POPC   PO475660  13.661  34.542   5.864
 5995POPC   GL175661  13.645  34.540   6.164
 5995POPC   GL275662  13.557  34.652   6.164
 5995POPC   C1A75663  13.668  34.548   6.464
 5995POPC   D2A75664  13.582  34.621   6.764
 5995POPC   C3A75665  13.592  34.612   7.064
 5995POPC   C4A75666  13.592  34.527   7.364
 5995POPC   C1B75667  13.488  34.797   6.464
 5995POPC   C2B75668  13.475  34.768   6.764
 5995POPC   C3B75669  13.501  34.794   7.064
 5995POPC   C4B75670  13.464  34.758   7.364
 5996POPC   NC375671  22.133  22.915   5.564
 5996POPC   PO475672  22.118  22.973   5.864
 5996POPC   GL175673  22.195  22.935   6.164
 5996POPC   GL275674  22.067  22.892   6.164
 5996POPC   C1A75675  22.141  22.941   6.464
 5996POPC   D2A75676  22.163  22.924   6.764
 5996POPC   C3A75677  22.196  22.955   7.064
 5996POPC   C4A75678  22.186  22.985   7.364
 5996POPC   C1B75679  21.987  22.753   6.464
 5996POPC   C2B75680  21.962  22.796   6.764
 5996POPC   C3B75681  21.925  22.809   7.064
 5996POPC   C4B75682  22.001  22.827   7.364
 5997POPC   NC375683   0.440   1.180   5.564
 5997POPC   PO475684   0.436   1.244   5.864
 5997POPC   GL175685   0.421   1.178   6.164
 5997POPC   GL275686   0.390   1.287   6.164
 5997POPC   C1A75687   0.400   1.192   6.464
 5997POPC   D2A75688   0.488   1.191   6.764
 5997POPC   C3A75689   0.411   1.230   7.064
 5997POPC   C4A75690   0.465   1.220   7.364
 5997POPC   C1B75691   0.318   1.376   6.464
 5997POPC   C2B75692   0.230   1.413   6.764
 5997POPC   C3B75693   0.290   1.434   7.064
 5997POPC   C4B75694   0.247   1.430   7.364
 5998POPC   NC375695  24.531   0.481   5.564
 5998POPC   PO475696  24.462   0.425   5.864
 5998POPC   GL175697  24.483   0.410   6.164
 5998POPC   GL275698  24.550   0.563   6.164
 5998POPC   C1A75699  24.526   0.439   6.464
 5998POPC   D2A75700  24.505   0.441   6.764
 5998POPC   C3A75701  24.484   0.390   7.064
 5998POPC   C4A75702  24.528   0.474   7.364
 5998POPC   C1B75703  24.545   0.662   6.464
 5998POPC   C2B75704  24.570   0.698   6.764
 5998POPC   C3B75705  24.574   0.635   7.064
 5998POPC   C4B75706  24.583   0.688   7.364
 5999POPC   NC375707   9.735  17.498   5.564
 5999POPC   PO475708   9.762  17.462   5.864
 5999POPC   GL175709   9.705  17.512   6.164
 5999POPC   GL275710   9.783  17.623   6.164
 5999POPC   C1A75711   9.786  17.508   6.464
 5999POPC   D2A75712   9.766  17.461   6.764
 5999POPC   C3A75713   9.772  17.495   7.064
 5999POPC   C4A75714   9.708  17.512   7.364
 5999POPC   C1B75715   9.873  17.717   6.464
 5999POPC   C2B75716   9.861  17.734   6.764
 5999POPC   C3B75717   9.831  17.719   7.064
 5999POPC   C4B75718   9.847  17.726   7.364
 6000POPC   NC375719  19.015  12.844   5.564
 6000POPC   PO475720  19.012  12.811   5.864
 6000POPC   GL175721  19.050  12.813   6.164
 6000POPC   GL275722  19.000  12.870   6.164
 6000POPC   C1A75723  19.090  12.892   6.464
 6000POPC   D2A75724  19.098  12.873   6.764
 6000POPC   C3A75725  19.048  12.895   7.064
 6000POPC   C4A75726  19.048  12.895   7.364
 6000POPC   C1B75727  18.884  12.989   6.464
 6000POPC   C2B75728  18.821  12.998   6.764
 6000POPC   C3B75729  18.842  12.974   7.064
 6000POPC   C4B75730  18.795  12.946   7.364
 6001POPC   NC375731  18.284  32.219   5.564
 6001POPC   PO475732  18.233  32.222   5.864
 6001POPC   GL175733  18.288  32.296   6.164
 6001POPC   GL275734  18.453  32.315   6.164
 6001POPC   C1A75735  18.255  32.262   6.464
 6001POPC   D2A75736  18.264  32.205   6.764
 6001POPC   C3A75737  18.295  32.286   7.064
 6001POPC   C4A75738  18.331  32.206   7.364
 6001POPC   C1B75739  18.483  32.344   6.464
 6001POPC   C2B75740  18.514  32.274   6.764
 6001POPC   C3B75741  18.478  32.345   7.064
 6001POPC   C4B75742  18.559  32.295   7.364
 6002POPC   NC375743  11.296  23.732   5.564
 6002POPC   PO475744  11.303  23.704   5.864
 6002POPC   GL175745  11.252  23.728   6.164
 6002POPC   GL275746  11.200  23.702   6.164
 6002POPC   C1A75747  11.271  23.725   6.464
 6002POPC   D2A75748  11.311  23.679   6.764
 6002POPC   C3A75749  11.331  23.689   7.064
 6002POPC   C4A75750  11.285  23.699   7.364
 6002POPC   C1B75751  11.079  23.672   6.464
 6002POPC   C2B75752  11.044  23.665   6.764
 6002POPC   C3B75753  11.094  23.636   7.064
 6002POPC   C4B75754  11.092  23.655   7.364
 6003POPC   NC375755  40.749  42.336   5.564
 6003POPC   PO475756  40.736  42.289   5.864
 6003POPC   GL175757  40.753  42.302   6.164
 6003POPC   GL275758  40.694  42.189   6.164
 6003POPC   C1A75759  40.733  42.335   6.464
 6003POPC   D2A75760  40.811  42.328   6.764
 6003POPC   C3A75761  40.826  42.346   7.064
 6003POPC   C4A75762  40.768  42.365   7.364
 6003POPC   C1B75763  40.615  42.091   6.464
 6003POPC   C2B75764  40.608  42.124   6.764
 6003POPC   C3B75765  40.607  42.140   7.064
 6003POPC   C4B75766  40.625  42.155   7.364
 6004POPC   NC375767  21.359  44.709   5.564
 6004POPC   PO475768  21.397  44.695   5.864
 6004POPC   GL175769  21.427  44.648   6.164
 6004POPC   GL275770  21.460  44.692   6.164
 6004POPC   C1A75771  21.362  44.636   6.464
 6004POPC   D2A75772  21.368  44.629   6.764
 6004POPC   C3A75773  21.352  44.644   7.064
 6004POPC   C4A75774  21.412  44.682   7.364
 6004POPC   C1B75775  21.674  44.601   6.464
 6004POPC   C2B75776  21.650  44.583   6.764
 6004POPC   C3B75777  21.624  44.590   7.064
 6004POPC   C4B75778  21.645  44.592   7.364
 6005POPC   NC375779  35.393   7.405   5.564
 6005POPC   PO475780  35.319   7.470   5.864
 6005POPC   GL175781  35.321   7.381   6.164
 6005POPC   GL275782  35.488   7.416   6.164
 6005POPC   C1A75783  35.332   7.377   6.464
 6005POPC   D2A75784  35.305   7.431   6.764
 6005POPC   C3A75785  35.379   7.469   7.064
 6005POPC   C4A75786  35.318   7.382   7.364
 6005POPC   C1B75787  35.592   7.327   6.464
 6005POPC   C2B75788  35.581   7.333   6.764
 6005POPC   C3B75789  35.602   7.365   7.064
 6005POPC   C4B75790  35.588   7.339   7.364
 6006POPC   NC375791  22.893   7.436   5.564
 6006POPC   PO475792  22.946   7.445   5.864
 6006POPC   GL175793  22.916   7.389   6.164
 6006POPC   GL275794  22.957   7.266   6.164
 6006POPC   C1A75795  22.974   7.404   6.464
 6006POPC   D2A75796  22.900   7.372   6.764
 6006POPC   C3A75797  22.952   7.428   7.064
 6006POPC   C4A75798  22.918   7.375   7.364
 6006POPC   C1B75799  23.044   7.158   6.464
 6006POPC   C2B75800  23.003   7.145   6.764
 6006POPC   C3B75801  22.973   7.190   7.064
 6006POPC   C4B75802  22.962   7.157   7.364
 6007POPC   NC375803  33.061  21.362   5.564
 6007POPC   PO475804  33.070  21.381   5.864
 6007POPC   GL175805  33.049  21.416   6.164
 6007POPC   GL275806  33.173  21.376   6.164
 6007POPC   C1A75807  33.027  21.395   6.464
 6007POPC   D2A75808  33.051  21.382   6.764
 6007POPC   C3A75809  32.992  21.372   7.064
 6007POPC   C4A75810  33.014  21.347   7.364
 6007POPC   C1B75811  33.284  21.276   6.464
 6007POPC   C2B75812  33.203  21.262   6.764
 6007POPC   C3B75813  33.296  21.251   7.064
 6007POPC   C4B75814  33.225  21.252   7.364
 6008POPC   NC375815  40.749  13.603   5.564
 6008POPC   PO475816  40.826  13.665   5.864
 6008POPC   GL175817  40.738  13.656   6.164
 6008POPC   GL275818  40.888  13.693   6.164
 6008POPC   C1A75819  40.808  13.660   6.464
 6008POPC   D2A75820  40.830  13.662   6.764
 6008POPC   C3A75821  40.766  13.660   7.064
 6008POPC   C4A75822  40.755  13.579   7.364
 6008POPC   C1B75823  41.049  13.730   6.464
 6008POPC   C2B75824  41.014  13.646   6.764
 6008POPC   C3B75825  40.998  13.647   7.064
 6008POPC   C4B75826  40.996  13.713   7.364
 6009POPC   NC375827  23.726  35.347   5.564
 6009POPC   PO475828  23.686  35.331   5.864
 6009POPC   GL175829  23.759  35.321   6.164
 6009POPC   GL275830  23.583  35.412   6.164
 6009POPC   C1A75831  23.697  35.365   6.464
 6009POPC   D2A75832  23.746  35.376   6.764
 6009POPC   C3A75833  23.666  35.393   7.064
 6009POPC   C4A75834  23.728  35.320   7.364
 6009POPC   C1B75835  23.484  35.479   6.464
 6009POPC   C2B75836  23.522  35.482   6.764
 6009POPC   C3B75837  23.478  35.521   7.064
 6009POPC   C4B75838  23.490  35.510   7.364
 6010POPC   NC375839  42.331  18.329   5.564
 6010POPC   PO475840  42.292  18.259   5.864
 6010POPC   GL175841  42.351  18.269   6.164
 6010POPC   GL275842  42.450  18.355   6.164
 6010POPC   C1A75843  42.341  18.316   6.464
 6010POPC   D2A75844  42.348  18.283   6.764
 6010POPC   C3A75845  42.338  18.234   7.064
 6010POPC   C4A75846  42.329  18.285   7.364
 6010POPC   C1B75847  42.579  18.396   6.464
 6010POPC   C2B75848  42.608  18.347   6.764
 6010POPC   C3B75849  42.601  18.391   7.064
 6010POPC   C4B75850  42.605  18.378   7.364
 6011POPC   NC375851  32.225  13.660   5.564
 6011POPC   PO475852  32.253  13.613   5.864
 6011POPC   GL175853  32.208  13.674   6.164
 6011POPC   GL275854  32.390  13.673   6.164
 6011POPC   C1A75855  32.247  13.640   6.464
 6011POPC   D2A75856  32.242  13.616   6.764
 6011POPC   C3A75857  32.292  13.597   7.064
 6011POPC   C4A75858  32.203  13.586   7.364
 6011POPC   C1B75859  32.511  13.661   6.464
 6011POPC   C2B75860  32.448  13.677   6.764
 6011POPC   C3B75861  32.457  13.615   7.064
 6011POPC   C4B75862  32.485  13.687   7.364
 6012POPC   NC375863  42.365  33.072   5.564
 6012POPC   PO475864  42.302  32.997   5.864
 6012POPC   GL175865  42.372  33.047   6.164
 6012POPC   GL275866  42.454  33.127   6.164
 6012POPC   C1A75867  42.369  33.072   6.464
 6012POPC   D2A75868  42.318  33.002   6.764
 6012POPC   C3A75869  42.334  33.037   7.064
 6012POPC   C4A75870  42.327  32.998   7.364
 6012POPC   C1B75871  42.457  33.215   6.464
 6012POPC   C2B75872  42.471  33.273   6.764
 6012POPC   C3B75873  42.462  33.223   7.064
 6012POPC   C4B75874  42.452  33.184   7.364
 6013POPC   NC375875   7.440  43.910   5.564
 6013POPC   PO475876   7.412  43.887   5.864
 6013POPC   GL175877   7.409  43.863   6.164
 6013POPC   GL275878   7.327  43.951   6.164
 6013POPC   C1A75879   7.397  43.865   6.464
 6013POPC   D2A75880   7.418  43.920   6.764
 6013POPC   C3A75881   7.397  43.847   7.064
 6013POPC   C4A75882   7.427  43.925   7.364
 6013POPC   C1B75883   7.310  44.097   6.464
 6013POPC   C2B75884   7.325  44.091   6.764
 6013POPC   C3B75885   7.278  44.093   7.064
 6013POPC   C4B75886   7.248  44.081   7.364
 6014POPC   NC375887  22.962  12.041   5.564
 6014POPC   PO475888  22.968  12.096   5.864
 6014POPC   GL175889  22.962  12.093   6.164
 6014POPC   GL275890  22.982  12.174   6.164
 6014POPC   C1A75891  22.968  12.090   6.464
 6014POPC   D2A75892  22.890  12.098   6.764
 6014POPC   C3A75893  22.961  12.059   7.064
 6014POPC   C4A75894  22.949  12.061   7.364
 6014POPC   C1B75895  23.036  12.332   6.464
 6014POPC   C2B75896  23.025  12.309   6.764
 6014POPC   C3B75897  23.062  12.258   7.064
 6014POPC   C4B75898  23.071  12.293   7.364
 6015POPC   NC375899  44.682  37.712   5.564
 6015POPC   PO475900  44.642  37.719   5.864
 6015POPC   GL175901  44.634  37.711   6.164
 6015POPC   GL275902  44.623  37.749   6.164
 6015POPC   C1A75903  44.706  37.716   6.464
 6015POPC   D2A75904  44.629  37.644   6.764
 6015POPC   C3A75905  44.648  37.630   7.064
 6015POPC   C4A75906  44.616  37.707   7.364
 6015POPC   C1B75907  44.488  37.845   6.464
 6015POPC   C2B75908  44.505  37.868   6.764
 6015POPC   C3B75909  44.456  37.916   7.064
 6015POPC   C4B75910  44.509  37.899   7.364
 6016POPC   NC375911  43.132   4.279   5.564
 6016POPC   PO475912  43.160   4.277   5.864
 6016POPC   GL175913  43.081   4.314   6.164
 6016POPC   GL275914  43.023   4.257   6.164
 6016POPC   C1A75915  43.151   4.304   6.464
 6016POPC   D2A75916  43.061   4.320   6.764
 6016POPC   C3A75917  43.061   4.275   7.064
 6016POPC   C4A75918  43.080   4.306   7.364
 6016POPC   C1B75919  42.954   4.128   6.464
 6016POPC   C2B75920  42.968   4.105   6.764
 6016POPC   C3B75921  43.009   4.099   7.064
 6016POPC   C4B75922  42.944   4.081   7.364
 6017POPC   NC375923  22.121   8.999   5.564
 6017POPC   PO475924  22.149   8.971   5.864
 6017POPC   GL175925  22.115   9.002   6.164
 6017POPC   GL275926  22.067   9.027   6.164
 6017POPC   C1A75927  22.187   8.936   6.464
 6017POPC   D2A75928  22.123   8.985   6.764
 6017POPC   C3A75929  22.127   8.954   7.064
 6017POPC   C4A75930  22.147   8.950   7.364
 6017POPC   C1B75931  21.985   9.159   6.464
 6017POPC   C2B75932  21.962   9.169   6.764
 6017POPC   C3B75933  21.929   9.121   7.064
 6017POPC   C4B75934  21.988   9.163   7.364
 6018POPC   NC375935  26.085   4.311   5.564
 6018POPC   PO475936  26.031   4.364   5.864
 6018POPC   GL175937  26.057   4.349   6.164
 6018POPC   GL275938  25.880   4.370   6.164
 6018POPC   C1A75939  25.999   4.295   6.464
 6018POPC   D2A75940  26.070   4.337   6.764
 6018POPC   C3A75941  26.019   4.366   7.064
 6018POPC   C4A75942  26.054   4.295   7.364
 6018POPC   C1B75943  25.776   4.405   6.464
 6018POPC   C2B75944  25.806   4.440   6.764
 6018POPC   C3B75945  25.792   4.390   7.064
 6018POPC   C4B75946  25.790   4.385   7.364
 6019POPC   NC375947  41.558  23.692   5.564
 6019POPC   PO475948  41.599  23.691   5.864
 6019POPC   GL175949  41.561  23.755   6.164
 6019POPC   GL275950  41.452  23.588   6.164
 6019POPC   C1A75951  41.568  23.682   6.464
 6019POPC   D2A75952  41.564  23.740   6.764
 6019POPC   C3A75953  41.579  23.750   7.064
 6019POPC   C4A75954  41.511  23.666   7.364
 6019POPC   C1B75955  41.377  23.559   6.464
 6019POPC   C2B75956  41.371  23.549   6.764
 6019POPC   C3B75957  41.344  23.530   7.064
 6019POPC   C4B75958  41.418  23.481   7.364
 6020POPC   NC375959  41.516   4.321   5.564
 6020POPC   PO475960  41.550   4.337   5.864
 6020POPC   GL175961  41.597   4.299   6.164
 6020POPC   GL275962  41.565   4.195   6.164
 6020POPC   C1A75963  41.537   4.298   6.464
 6020POPC   D2A75964  41.602   4.306   6.764
 6020POPC   C3A75965  41.533   4.322   7.064
 6020POPC   C4A75966  41.513   4.355   7.364
 6020POPC   C1B75967  41.661   4.080   6.464
 6020POPC   C2B75968  41.691   4.100   6.764
 6020POPC   C3B75969  41.677   4.080   7.064
 6020POPC   C4B75970  41.618   4.101   7.364
 6021POPC   NC375971  18.302   2.007   5.564
 6021POPC   PO475972  18.294   2.025   5.864
 6021POPC   GL175973  18.322   2.013   6.164
 6021POPC   GL275974  18.160   2.083   6.164
 6021POPC   C1A75975  18.311   2.039   6.464
 6021POPC   D2A75976  18.320   1.983   6.764
 6021POPC   C3A75977  18.274   2.001   7.064
 6021POPC   C4A75978  18.258   2.008   7.364
 6021POPC   C1B75979  18.095   2.138   6.464
 6021POPC   C2B75980  18.089   2.151   6.764
 6021POPC   C3B75981  18.121   2.146   7.064
 6021POPC   C4B75982  18.144   2.188   7.364
 6022POPC   NC375983  19.808  42.303   5.564
 6022POPC   PO475984  19.850  42.303   5.864
 6022POPC   GL175985  19.827  42.329   6.164
 6022POPC   GL275986  19.943  42.425   6.164
 6022POPC   C1A75987  19.866  42.324   6.464
 6022POPC   D2A75988  19.874  42.295   6.764
 6022POPC   C3A75989  19.799  42.384   7.064
 6022POPC   C4A75990  19.814  42.337   7.364
 6022POPC   C1B75991  20.014  42.486   6.464
 6022POPC   C2B75992  19.993  42.527   6.764
 6022POPC   C3B75993  20.046  42.484   7.064
 6022POPC   C4B75994  20.032  42.565   7.364
 6023POPC   NC375995   0.395  15.209   5.564
 6023POPC   PO475996   0.461  15.189   5.864
 6023POPC   GL175997   0.473  15.196   6.164
 6023POPC   GL275998   0.325  15.101   6.164
 6023POPC   C1A75999   0.442  15.155   6.464
 6023POPC   D2A76000   0.446  15.211   6.764
 6023POPC   C3A76001   0.467  15.169   7.064
 6023POPC   C4A76002   0.438  15.229   7.364
 6023POPC   C1B76003   0.194  15.099   6.464
 6023POPC   C2B76004   0.174  15.044   6.764
 6023POPC   C3B76005   0.219  15.125   7.064
 6023POPC   C4B76006   0.194  15.121   7.364
 6024POPC   NC376007  27.566   7.455   5.564
 6024POPC   PO476008  27.594   7.451   5.864
 6024POPC   GL176009  27.641   7.458   6.164
 6024POPC   GL276010  27.687   7.421   6.164
 6024POPC   C1A76011  27.570   7.471   6.464
 6024POPC   D2A76012  27.559   7.405   6.764
 6024POPC   C3A76013  27.595   7.403   7.064
 6024POPC   C4A76014  27.546   7.438   7.364
 6024POPC   C1B76015  27.814   7.345   6.464
 6024POPC   C2B76016  27.806   7.407   6.764
 6024POPC   C3B76017  27.886   7.346   7.064
 6024POPC   C4B76018  27.848   7.440   7.364
 6025POPC   NC376019   2.795  28.354   5.564
 6025POPC   PO476020   2.732  28.368   5.864
 6025POPC   GL176021   2.780  28.328   6.164
 6025POPC   GL276022   2.719  28.422   6.164
 6025POPC   C1A76023   2.804  28.365   6.464
 6025POPC   D2A76024   2.765  28.328   6.764
 6025POPC   C3A76025   2.759  28.333   7.064
 6025POPC   C4A76026   2.778  28.401   7.364
 6025POPC   C1B76027   2.650  28.603   6.464
 6025POPC   C2B76028   2.621  28.612   6.764
 6025POPC   C3B76029   2.644  28.610   7.064
 6025POPC   C4B76030   2.646  28.567   7.364
 6026POPC   NC376031  30.717  40.820   5.564
 6026POPC   PO476032  30.668  40.811   5.864
 6026POPC   GL176033  30.683  40.749   6.164
 6026POPC   GL276034  30.569  40.777   6.164
 6026POPC   C1A76035  30.669  40.773   6.464
 6026POPC   D2A76036  30.719  40.807   6.764
 6026POPC   C3A76037  30.724  40.800   7.064
 6026POPC   C4A76038  30.706  40.776   7.364
 6026POPC   C1B76039  30.418  40.835   6.464
 6026POPC   C2B76040  30.424  40.858   6.764
 6026POPC   C3B76041  30.435  40.884   7.064
 6026POPC   C4B76042  30.437  40.811   7.364
 6027POPC   NC376043  13.646  36.146   5.564
 6027POPC   PO476044  13.655  36.162   5.864
 6027POPC   GL176045  13.620  36.132   6.164
 6027POPC   GL276046  13.684  36.076   6.164
 6027POPC   C1A76047  13.652  36.115   6.464
 6027POPC   D2A76048  13.659  36.099   6.764
 6027POPC   C3A76049  13.600  36.163   7.064
 6027POPC   C4A76050  13.614  36.177   7.364
 6027POPC   C1B76051  13.770  35.961   6.464
 6027POPC   C2B76052  13.762  35.996   6.764
 6027POPC   C3B76053  13.757  35.925   7.064
 6027POPC   C4B76054  13.849  35.952   7.364
 6028POPC   NC376055  35.322  15.181   5.564
 6028POPC   PO476056  35.365  15.163   5.864
 6028POPC   GL176057  35.372  15.182   6.164
 6028POPC   GL276058  35.279  15.278   6.164
 6028POPC   C1A76059  35.344  15.133   6.464
 6028POPC   D2A76060  35.374  15.139   6.764
 6028POPC   C3A76061  35.382  15.168   7.064
 6028POPC   C4A76062  35.361  15.155   7.364
 6028POPC   C1B76063  35.284  15.442   6.464
 6028POPC   C2B76064  35.319  15.442   6.764
 6028POPC   C3B76065  35.250  15.440   7.064
 6028POPC   C4B76066  35.248  15.453   7.364
 6029POPC   NC376067  15.186   5.114   5.564
 6029POPC   PO476068  15.196   5.128   5.864
 6029POPC   GL176069  15.140   5.114   6.164
 6029POPC   GL276070  15.204   5.175   6.164
 6029POPC   C1A76071  15.203   5.139   6.464
 6029POPC   D2A76072  15.142   5.058   6.764
 6029POPC   C3A76073  15.184   5.091   7.064
 6029POPC   C4A76074  15.209   5.094   7.364
 6029POPC   C1B76075  15.268   5.313   6.464
 6029POPC   C2B76076  15.254   5.279   6.764
 6029POPC   C3B76077  15.324   5.345   7.064
 6029POPC   C4B76078  15.313   5.296   7.364
 6030POPC   NC376079   8.202  19.806   5.564
 6030POPC   PO476080   8.232  19.792   5.864
 6030POPC   GL176081   8.165  19.829   6.164
 6030POPC   GL276082   8.287  19.743   6.164
 6030POPC   C1A76083   8.180  19.877   6.464
 6030POPC   D2A76084   8.222  19.856   6.764
 6030POPC   C3A76085   8.227  19.816   7.064
 6030POPC   C4A76086   8.160  19.870   7.364
 6030POPC   C1B76087   8.377  19.647   6.464
 6030POPC   C2B76088   8.336  19.647   6.764
 6030POPC   C3B76089   8.335  19.619   7.064
 6030POPC   C4B76090   8.318  19.646   7.364
 6031POPC   NC376091   2.035  13.590   5.564
 6031POPC   PO476092   1.991  13.578   5.864
 6031POPC   GL176093   1.989  13.613   6.164
 6031POPC   GL276094   2.006  13.773   6.164
 6031POPC   C1A76095   1.982  13.621   6.464
 6031POPC   D2A76096   2.038  13.641   6.764
 6031POPC   C3A76097   1.948  13.624   7.064
 6031POPC   C4A76098   1.991  13.664   7.364
 6031POPC   C1B76099   2.029  13.915   6.464
 6031POPC   C2B76100   2.043  13.898   6.764
 6031POPC   C3B76101   2.026  13.825   7.064
 6031POPC   C4B76102   2.010  13.871   7.364
 6032POPC   NC376103  40.780  29.902   5.564
 6032POPC   PO476104  40.784  29.932   5.864
 6032POPC   GL176105  40.813  29.883   6.164
 6032POPC   GL276106  40.646  29.852   6.164
 6032POPC   C1A76107  40.754  29.936   6.464
 6032POPC   D2A76108  40.779  29.959   6.764
 6032POPC   C3A76109  40.806  29.947   7.064
 6032POPC   C4A76110  40.812  29.937   7.364
 6032POPC   C1B76111  40.587  29.832   6.464
 6032POPC   C2B76112  40.566  29.743   6.764
 6032POPC   C3B76113  40.594  29.815   7.064
 6032POPC   C4B76114  40.620  29.787   7.364
 6033POPC   NC376115  28.379  28.320   5.564
 6033POPC   PO476116  28.334  28.410   5.864
 6033POPC   GL176117  28.351  28.373   6.164
 6033POPC   GL276118  28.502  28.315   6.164
 6033POPC   C1A76119  28.372  28.324   6.464
 6033POPC   D2A76120  28.403  28.335   6.764
 6033POPC   C3A76121  28.415  28.349   7.064
 6033POPC   C4A76122  28.414  28.353   7.364
 6033POPC   C1B76123  28.600  28.301   6.464
 6033POPC   C2B76124  28.584  28.341   6.764
 6033POPC   C3B76125  28.596  28.269   7.064
 6033POPC   C4B76126  28.659  28.302   7.364
 6034POPC   NC376127  32.298  41.532   5.564
 6034POPC   PO476128  32.204  41.521   5.864
 6034POPC   GL176129  32.257  41.585   6.164
 6034POPC   GL276130  32.163  41.615   6.164
 6034POPC   C1A76131  32.222  41.527   6.464
 6034POPC   D2A76132  32.294  41.574   6.764
 6034POPC   C3A76133  32.202  41.563   7.064
 6034POPC   C4A76134  32.286  41.540   7.364
 6034POPC   C1B76135  32.001  41.669   6.464
 6034POPC   C2B76136  32.023  41.698   6.764
 6034POPC   C3B76137  31.975  41.633   7.064
 6034POPC   C4B76138  31.978  41.652   7.364
 6035POPC   NC376139  40.778  17.463   5.564
 6035POPC   PO476140  40.740  17.492   5.864
 6035POPC   GL176141  40.755  17.485   6.164
 6035POPC   GL276142  40.684  17.402   6.164
 6035POPC   C1A76143  40.739  17.503   6.464
 6035POPC   D2A76144  40.815  17.514   6.764
 6035POPC   C3A76145  40.751  17.524   7.064
 6035POPC   C4A76146  40.790  17.467   7.364
 6035POPC   C1B76147  40.576  17.435   6.464
 6035POPC   C2B76148  40.596  17.406   6.764
 6035POPC   C3B76149  40.573  17.351   7.064
 6035POPC   C4B76150  40.519  17.353   7.364
 6036POPC   NC376151  32.994  33.837   5.564
 6036POPC   PO476152  33.047  33.780   5.864
 6036POPC   GL176153  33.039  33.785   6.164
 6036POPC   GL276154  33.158  33.713   6.164
 6036POPC   C1A76155  33.039  33.845   6.464
 6036POPC   D2A76156  33.072  33.765   6.764
 6036POPC   C3A76157  33.029  33.779   7.064
 6036POPC   C4A76158  33.031  33.766   7.364
 6036POPC   C1B76159  33.268  33.730   6.464
 6036POPC   C2B76160  33.239  33.693   6.764
 6036POPC   C3B76161  33.264  33.729   7.064
 6036POPC   C4B76162  33.232  33.693   7.364
 6037POPC   NC376163   0.418   3.574   5.564
 6037POPC   PO476164   0.479   3.535   5.864
 6037POPC   GL176165   0.404   3.553   6.164
 6037POPC   GL276166   0.351   3.473   6.164
 6037POPC   C1A76167   0.404   3.576   6.464
 6037POPC   D2A76168   0.391   3.556   6.764
 6037POPC   C3A76169   0.458   3.549   7.064
 6037POPC   C4A76170   0.448   3.561   7.364
 6037POPC   C1B76171   0.239   3.520   6.464
 6037POPC   C2B76172   0.150   3.451   6.764
 6037POPC   C3B76173   0.189   3.442   7.064
 6037POPC   C4B76174   0.232   3.451   7.364
 6038POPC   NC376175  32.285  14.411   5.564
 6038POPC   PO476176  32.260  14.431   5.864
 6038POPC   GL176177  32.226  14.445   6.164
 6038POPC   GL276178  32.327  14.485   6.164
 6038POPC   C1A76179  32.222  14.382   6.464
 6038POPC   D2A76180  32.211  14.391   6.764
 6038POPC   C3A76181  32.267  14.411   7.064
 6038POPC   C4A76182  32.209  14.360   7.364
 6038POPC   C1B76183  32.393  14.628   6.464
 6038POPC   C2B76184  32.423  14.601   6.764
 6038POPC   C3B76185  32.394  14.627   7.064
 6038POPC   C4B76186  32.355  14.648   7.364
 6039POPC   NC376187  43.919  19.829   5.564
 6039POPC   PO476188  43.844  19.808   5.864
 6039POPC   GL176189  43.923  19.821   6.164
 6039POPC   GL276190  43.867  19.988   6.164
 6039POPC   C1A76191  43.932  19.826   6.464
 6039POPC   D2A76192  43.902  19.826   6.764
 6039POPC   C3A76193  43.924  19.791   7.064
 6039POPC   C4A76194  43.915  19.846   7.364
 6039POPC   C1B76195  43.760  20.027   6.464
 6039POPC   C2B76196  43.797  20.104   6.764
 6039POPC   C3B76197  43.836  20.088   7.064
 6039POPC   C4B76198  43.804  20.081   7.364
 6040POPC   NC376199   9.791  44.615   5.564
 6040POPC   PO476200   9.749  44.708   5.864
 6040POPC   GL176201   9.705  44.635   6.164
 6040POPC   GL276202   9.673  44.621   6.164
 6040POPC   C1A76203   9.731  44.665   6.464
 6040POPC   D2A76204   9.711  44.678   6.764
 6040POPC   C3A76205   9.767  44.703   7.064
 6040POPC   C4A76206   9.775  44.644   7.364
 6040POPC   C1B76207   9.517  44.634   6.464
 6040POPC   C2B76208   9.527  44.661   6.764
 6040POPC   C3B76209   9.478  44.637   7.064
 6040POPC   C4B76210   9.534  44.622   7.364
 6041POPC   NC376211  18.238   3.524   5.564
 6041POPC   PO476212  18.252   3.514   5.864
 6041POPC   GL176213  18.298   3.526   6.164
 6041POPC   GL276214  18.429   3.626   6.164
 6041POPC   C1A76215  18.330   3.530   6.464
 6041POPC   D2A76216  18.251   3.581   6.764
 6041POPC   C3A76217  18.327   3.508   7.064
 6041POPC   C4A76218  18.318   3.549   7.364
 6041POPC   C1B76219  18.543   3.675   6.464
 6041POPC   C2B76220  18.516   3.626   6.764
 6041POPC   C3B76221  18.461   3.688   7.064
 6041POPC   C4B76222  18.505   3.616   7.364
 6042POPC   NC376223  19.813   4.336   5.564
 6042POPC   PO476224  19.817   4.356   5.864
 6042POPC   GL176225  19.807   4.298   6.164
 6042POPC   GL276226  19.864   4.448   6.164
 6042POPC   C1A76227  19.796   4.336   6.464
 6042POPC   D2A76228  19.858   4.340   6.764
 6042POPC   C3A76229  19.815   4.280   7.064
 6042POPC   C4A76230  19.802   4.298   7.364
 6042POPC   C1B76231  19.935   4.542   6.464
 6042POPC   C2B76232  19.929   4.536   6.764
 6042POPC   C3B76233  19.875   4.516   7.064
 6042POPC   C4B76234  19.900   4.508   7.364
 6043POPC   NC376235  29.151   5.910   5.564
 6043POPC   PO476236  29.139   5.840   5.864
 6043POPC   GL176237  29.105   5.839   6.164
 6043POPC   GL276238  29.049   5.966   6.164
 6043POPC   C1A76239  29.150   5.887   6.464
 6043POPC   D2A76240  29.166   5.842   6.764
 6043POPC   C3A76241  29.156   5.894   7.064
 6043POPC   C4A76242  29.098   5.895   7.364
 6043POPC   C1B76243  28.963   6.056   6.464
 6043POPC   C2B76244  28.974   6.003   6.764
 6043POPC   C3B76245  28.928   6.025   7.064
 6043POPC   C4B76246  28.987   6.036   7.364
 6044POPC   NC376247  28.341   6.692   5.564
 6044POPC   PO476248  28.333   6.670   5.864
 6044POPC   GL176249  28.414   6.661   6.164
 6044POPC   GL276250  28.378   6.760   6.164
 6044POPC   C1A76251  28.405   6.612   6.464
 6044POPC   D2A76252  28.339   6.625   6.764
 6044POPC   C3A76253  28.398   6.672   7.064
 6044POPC   C4A76254  28.391   6.643   7.364
 6044POPC   C1B76255  28.480   6.903   6.464
 6044POPC   C2B76256  28.450   6.855   6.764
 6044POPC   C3B76257  28.454   6.890   7.064
 6044POPC   C4B76258  28.406   6.887   7.364
 6045POPC   NC376259  38.479  14.379   5.564
 6045POPC   PO476260  38.436  14.412   5.864
 6045POPC   GL176261  38.464  14.434   6.164
 6045POPC   GL276262  38.357  14.443   6.164
 6045POPC   C1A76263  38.419  14.437   6.464
 6045POPC   D2A76264  38.410  14.431   6.764
 6045POPC   C3A76265  38.496  14.440   7.064
 6045POPC   C4A76266  38.424  14.413   7.364
 6045POPC   C1B76267  38.277  14.604   6.464
 6045POPC   C2B76268  38.257  14.591   6.764
 6045POPC   C3B76269  38.237  14.538   7.064
 6045POPC   C4B76270  38.278  14.550   7.364
 6046POPC   NC376271  32.980  35.383   5.564
 6046POPC   PO476272  32.996  35.328   5.864
 6046POPC   GL176273  33.065  35.352   6.164
 6046POPC   GL276274  32.936  35.279   6.164
 6046POPC   C1A76275  33.035  35.352   6.464
 6046POPC   D2A76276  33.046  35.368   6.764
 6046POPC   C3A76277  33.070  35.373   7.064
 6046POPC   C4A76278  33.068  35.339   7.364
 6046POPC   C1B76279  32.950  35.118   6.464
 6046POPC   C2B76280  32.935  35.098   6.764
 6046POPC   C3B76281  32.892  35.110   7.064
 6046POPC   C4B76282  32.877  35.160   7.364
 6047POPC   NC376283   3.558  38.428   5.564
 6047POPC   PO476284   3.535  38.449   5.864
 6047POPC   GL176285   3.540  38.482   6.164
 6047POPC   GL276286   3.576  38.549   6.164
 6047POPC   C1A76287   3.564  38.481   6.464
 6047POPC   D2A76288   3.567  38.420   6.764
 6047POPC   C3A76289   3.576  38.452   7.064
 6047POPC   C4A76290   3.585  38.488   7.364
 6047POPC   C1B76291   3.716  38.640   6.464
 6047POPC   C2B76292   3.650  38.640   6.764
 6047POPC   C3B76293   3.733  38.672   7.064
 6047POPC   C4B76294   3.720  38.626   7.364
 6048POPC   NC376295  15.963  35.314   5.564
 6048POPC   PO476296  15.981  35.374   5.864
 6048POPC   GL176297  15.917  35.308   6.164
 6048POPC   GL276298  15.907  35.261   6.164
 6048POPC   C1A76299  15.926  35.328   6.464
 6048POPC   D2A76300  15.936  35.324   6.764
 6048POPC   C3A76301  15.982  35.324   7.064
 6048POPC   C4A76302  15.974  35.335   7.364
 6048POPC   C1B76303  15.776  35.145   6.464
 6048POPC   C2B76304  15.799  35.147   6.764
 6048POPC   C3B76305  15.812  35.120   7.064
 6048POPC   C4B76306  15.762  35.118   7.364
 6049POPC   NC376307  32.249   1.212   5.564
 6049POPC   PO476308  32.227   1.170   5.864
 6049POPC   GL176309  32.251   1.244   6.164
 6049POPC   GL276310  32.158   1.309   6.164
 6049POPC   C1A76311  32.249   1.257   6.464
 6049POPC   D2A76312  32.246   1.227   6.764
 6049POPC   C3A76313  32.267   1.168   7.064
 6049POPC   C4A76314  32.242   1.244   7.364
 6049POPC   C1B76315  31.987   1.337   6.464
 6049POPC   C2B76316  31.990   1.340   6.764
 6049POPC   C3B76317  32.042   1.295   7.064
 6049POPC   C4B76318  32.032   1.361   7.364
 6050POPC   NC376319  44.703  20.618   5.564
 6050POPC   PO476320  44.657  20.619   5.864
 6050POPC   GL176321  44.626  20.607   6.164
 6050POPC   GL276322  44.652  20.713   6.164
 6050POPC   C1A76323  44.619  20.633   6.464
 6050POPC   D2A76324  44.636  20.641   6.764
 6050POPC   C3A76325  44.621  20.623   7.064
 6050POPC   C4A76326  44.628  20.606   7.364
 6050POPC   C1B76327  44.608  20.814   6.464
 6050POPC   C2B76328  44.656  20.830   6.764
 6050POPC   C3B76329  44.630  20.827   7.064
 6050POPC   C4B76330  44.641  20.824   7.364
 6051POPC   NC376331   2.017  18.331   5.564
 6051POPC   PO476332   1.985  18.248   5.864
 6051POPC   GL176333   2.002  18.245   6.164
 6051POPC   GL276334   2.101  18.203   6.164
 6051POPC   C1A76335   2.004  18.238   6.464
 6051POPC   D2A76336   1.979  18.244   6.764
 6051POPC   C3A76337   2.007  18.324   7.064
 6051POPC   C4A76338   1.968  18.298   7.364
 6051POPC   C1B76339   2.106  18.081   6.464
 6051POPC   C2B76340   2.193  18.118   6.764
 6051POPC   C3B76341   2.100  18.127   7.064
 6051POPC   C4B76342   2.144  18.107   7.364
 6052POPC   NC376343   7.428  42.379   5.564
 6052POPC   PO476344   7.435  42.285   5.864
 6052POPC   GL176345   7.371  42.342   6.164
 6052POPC   GL276346   7.291  42.381   6.164
 6052POPC   C1A76347   7.465  42.349   6.464
 6052POPC   D2A76348   7.388  42.339   6.764
 6052POPC   C3A76349   7.396  42.357   7.064
 6052POPC   C4A76350   7.470  42.346   7.364
 6052POPC   C1B76351   7.162  42.315   6.464
 6052POPC   C2B76352   7.219  42.321   6.764
 6052POPC   C3B76353   7.219  42.377   7.064
 6052POPC   C4B76354   7.139  42.317   7.364
 6053POPC   NC376355  32.283  24.440   5.564
 6053POPC   PO476356  32.288  24.470   5.864
 6053POPC   GL176357  32.275  24.505   6.164
 6053POPC   GL276358  32.246  24.593   6.164
 6053POPC   C1A76359  32.238  24.480   6.464
 6053POPC   D2A76360  32.253  24.490   6.764
 6053POPC   C3A76361  32.229  24.471   7.064
 6053POPC   C4A76362  32.254  24.539   7.364
 6053POPC   C1B76363  32.102  24.760   6.464
 6053POPC   C2B76364  32.127  24.705   6.764
 6053POPC   C3B76365  32.100  24.712   7.064
 6053POPC   C4B76366  32.172  24.676   7.364
 6054POPC   NC376367  12.802  21.374   5.564
 6054POPC   PO476368  12.863  21.345   5.864
 6054POPC   GL176369  12.891  21.411   6.164
 6054POPC   GL276370  12.748  21.301   6.164
 6054POPC   C1A76371  12.816  21.363   6.464
 6054POPC   D2A76372  12.837  21.415   6.764
 6054POPC   C3A76373  12.888  21.393   7.064
 6054POPC   C4A76374  12.848  21.435   7.364
 6054POPC   C1B76375  12.661  21.263   6.464
 6054POPC   C2B76376  12.621  21.328   6.764
 6054POPC   C3B76377  12.616  21.285   7.064
 6054POPC   C4B76378  12.625  21.265   7.364
 6055POPC   NC376379   1.229  15.146   5.564
 6055POPC   PO476380   1.175  15.209   5.864
 6055POPC   GL176381   1.236  15.191   6.164
 6055POPC   GL276382   1.303  15.270   6.164
 6055POPC   C1A76383   1.200  15.220   6.464
 6055POPC   D2A76384   1.259  15.141   6.764
 6055POPC   C3A76385   1.226  15.202   7.064
 6055POPC   C4A76386   1.208  15.133   7.364
 6055POPC   C1B76387   1.393  15.396   6.464
 6055POPC   C2B76388   1.316  15.336   6.764
 6055POPC   C3B76389   1.339  15.368   7.064
 6055POPC   C4B76390   1.311  15.399   7.364
 6056POPC   NC376391   1.219  16.750   5.564
 6056POPC   PO476392   1.182  16.761   5.864
 6056POPC   GL176393   1.233  16.711   6.164
 6056POPC   GL276394   1.293  16.788   6.164
 6056POPC   C1A76395   1.262  16.769   6.464
 6056POPC   D2A76396   1.167  16.741   6.764
 6056POPC   C3A76397   1.251  16.702   7.064
 6056POPC   C4A76398   1.186  16.741   7.364
 6056POPC   C1B76399   1.425  16.827   6.464
 6056POPC   C2B76400   1.498  16.763   6.764
 6056POPC   C3B76401   1.491  16.839   7.064
 6056POPC   C4B76402   1.452  16.815   7.364
 6057POPC   NC376403  19.788   0.427   5.564
 6057POPC   PO476404  19.841   0.418   5.864
 6057POPC   GL176405  19.874   0.467   6.164
 6057POPC   GL276406  19.890   0.552   6.164
 6057POPC   C1A76407  19.873   0.432   6.464
 6057POPC   D2A76408  19.873   0.398   6.764
 6057POPC   C3A76409  19.855   0.479   7.064
 6057POPC   C4A76410  19.882   0.461   7.364
 6057POPC   C1B76411  20.012   0.670   6.464
 6057POPC   C2B76412  20.029   0.640   6.764
 6057POPC   C3B76413  19.995   0.675   7.064
 6057POPC   C4B76414  20.021   0.619   7.364
 6058POPC   NC376415  11.278  26.844   5.564
 6058POPC   PO476416  11.291  26.818   5.864
 6058POPC   GL176417  11.265  26.823   6.164
 6058POPC   GL276418  11.410  26.790   6.164
 6058POPC   C1A76419  11.250  26.782   6.464
 6058POPC   D2A76420  11.276  26.822   6.764
 6058POPC   C3A76421  11.310  26.840   7.064
 6058POPC   C4A76422  11.283  26.829   7.364
 6058POPC   C1B76423  11.521  26.738   6.464
 6058POPC   C2B76424  11.485  26.741   6.764
 6058POPC   C3B76425  11.478  26.665   7.064
 6058POPC   C4B76426  11.538  26.705   7.364
 6059POPC   NC376427  43.112   3.586   5.564
 6059POPC   PO476428  43.116   3.543   5.864
 6059POPC   GL176429  43.088   3.559   6.164
 6059POPC   GL276430  43.107   3.367   6.164
 6059POPC   C1A76431  43.136   3.589   6.464
 6059POPC   D2A76432  43.079   3.519   6.764
 6059POPC   C3A76433  43.153   3.514   7.064
 6059POPC   C4A76434  43.106   3.511   7.364
 6059POPC   C1B76435  43.116   3.288   6.464
 6059POPC   C2B76436  43.068   3.293   6.764
 6059POPC   C3B76437  43.061   3.267   7.064
 6059POPC   C4B76438  43.062   3.270   7.364
 6060POPC   NC376439  23.737  18.289   5.564
 6060POPC   PO476440  23.703  18.311   5.864
 6060POPC   GL176441  23.680  18.262   6.164
 6060POPC   GL276442  23.646  18.223   6.164
 6060POPC   C1A76443  23.719  18.296   6.464
 6060POPC   D2A76444  23.725  18.234   6.764
 6060POPC   C3A76445  23.707  18.253   7.064
 6060POPC   C4A76446  23.731  18.273   7.364
 6060POPC   C1B76447  23.545  18.090   6.464
 6060POPC   C2B76448  23.541  18.151   6.764
 6060POPC   C3B76449  23.485  18.156   7.064
 6060POPC   C4B76450  23.563  18.075   7.364
 6061POPC   NC376451  33.801  26.820   5.564
 6061POPC   PO476452  33.815  26.832   5.864
 6061POPC   GL176453  33.843  26.785   6.164
 6061POPC   GL276454  33.698  26.715   6.164
 6061POPC   C1A76455  33.846  26.807   6.464
 6061POPC   D2A76456  33.781  26.830   6.764
 6061POPC   C3A76457  33.830  26.865   7.064
 6061POPC   C4A76458  33.843  26.821   7.364
 6061POPC   C1B76459  33.658  26.603   6.464
 6061POPC   C2B76460  33.732  26.630   6.764
 6061POPC   C3B76461  33.725  26.597   7.064
 6061POPC   C4B76462  33.711  26.570   7.364
 6062POPC   NC376463  38.480  29.181   5.564
 6062POPC   PO476464  38.496  29.183   5.864
 6062POPC   GL176465  38.481  29.102   6.164
 6062POPC   GL276466  38.551  29.033   6.164
 6062POPC   C1A76467  38.482  29.119   6.464
 6062POPC   D2A76468  38.428  29.187   6.764
 6062POPC   C3A76469  38.497  29.131   7.064
 6062POPC   C4A76470  38.502  29.124   7.364
 6062POPC   C1B76471  38.662  28.967   6.464
 6062POPC   C2B76472  38.673  28.994   6.764
 6062POPC   C3B76473  38.700  29.006   7.064
 6062POPC   C4B76474  38.620  28.964   7.364
 6063POPC   NC376475  12.086   9.730   5.564
 6063POPC   PO476476  12.036   9.710   5.864
 6063POPC   GL176477  12.108   9.760   6.164
 6063POPC   GL276478  12.037   9.861   6.164
 6063POPC   C1A76479  12.120   9.771   6.464
 6063POPC   D2A76480  12.053   9.774   6.764
 6063POPC   C3A76481  12.092   9.712   7.064
 6063POPC   C4A76482  12.056   9.749   7.364
 6063POPC   C1B76483  12.044  10.042   6.464
 6063POPC   C2B76484  12.119  10.029   6.764
 6063POPC   C3B76485  12.122  10.040   7.064
 6063POPC   C4B76486  12.031  10.002   7.364
 6064POPC   NC376487  26.025  19.857   5.564
 6064POPC   PO476488  26.084  19.789   5.864
 6064POPC   GL176489  26.047  19.854   6.164
 6064POPC   GL276490  26.020  19.994   6.164
 6064POPC   C1A76491  26.042  19.794   6.464
 6064POPC   D2A76492  26.017  19.785   6.764
 6064POPC   C3A76493  25.994  19.864   7.064
 6064POPC   C4A76494  26.063  19.794   7.364
 6064POPC   C1B76495  26.114  20.070   6.464
 6064POPC   C2B76496  26.111  20.119   6.764
 6064POPC   C3B76497  26.116  20.051   7.064
 6064POPC   C4B76498  26.056  20.056   7.364
 6065POPC   NC376499  43.852   2.750   5.564
 6065POPC   PO476500  43.855   2.805   5.864
 6065POPC   GL176501  43.907   2.776   6.164
 6065POPC   GL276502  43.825   2.671   6.164
 6065POPC   C1A76503  43.868   2.763   6.464
 6065POPC   D2A76504  43.893   2.739   6.764
 6065POPC   C3A76505  43.888   2.718   7.064
 6065POPC   C4A76506  43.894   2.774   7.364
 6065POPC   C1B76507  43.741   2.542   6.464
 6065POPC   C2B76508  43.683   2.545   6.764
 6065POPC   C3B76509  43.695   2.553   7.064
 6065POPC   C4B76510  43.766   2.571   7.364
 6066POPC   NC376511  38.409  33.007   5.564
 6066POPC   PO476512  38.476  33.051   5.864
 6066POPC   GL176513  38.416  33.040   6.164
 6066POPC   GL276514  38.488  33.105   6.164
 6066POPC   C1A76515  38.480  33.039   6.464
 6066POPC   D2A76516  38.452  32.983   6.764
 6066POPC   C3A76517  38.494  33.065   7.064
 6066POPC   C4A76518  38.411  33.068   7.364
 6066POPC   C1B76519  38.565  33.179   6.464
 6066POPC   C2B76520  38.611  33.202   6.764
 6066POPC   C3B76521  38.561  33.243   7.064
 6066POPC   C4B76522  38.589  33.265   7.364
 6067POPC   NC376523  23.761   3.569   5.564
 6067POPC   PO476524  23.761   3.516   5.864
 6067POPC   GL176525  23.698   3.570   6.164
 6067POPC   GL276526  23.782   3.588   6.164
 6067POPC   C1A76527  23.762   3.531   6.464
 6067POPC   D2A76528  23.696   3.584   6.764
 6067POPC   C3A76529  23.729   3.566   7.064
 6067POPC   C4A76530  23.727   3.566   7.364
 6067POPC   C1B76531  23.934   3.623   6.464
 6067POPC   C2B76532  23.980   3.687   6.764
 6067POPC   C3B76533  23.950   3.630   7.064
 6067POPC   C4B76534  23.914   3.611   7.364
 6068POPC   NC376535  17.465   5.074   5.564
 6068POPC   PO476536  17.472   5.110   5.864
 6068POPC   GL176537  17.473   5.090   6.164
 6068POPC   GL276538  17.552   5.235   6.164
 6068POPC   C1A76539  17.493   5.080   6.464
 6068POPC   D2A76540  17.550   5.085   6.764
 6068POPC   C3A76541  17.516   5.053   7.064
 6068POPC   C4A76542  17.483   5.087   7.364
 6068POPC   C1B76543  17.511   5.371   6.464
 6068POPC   C2B76544  17.498   5.379   6.764
 6068POPC   C3B76545  17.461   5.380   7.064
 6068POPC   C4B76546  17.496   5.389   7.364
 6069POPC   NC376547  24.450  22.173   5.564
 6069POPC   PO476548  24.464  22.136   5.864
 6069POPC   GL176549  24.520  22.198   6.164
 6069POPC   GL276550  24.576  22.026   6.164
 6069POPC   C1A76551  24.461  22.189   6.464
 6069POPC   D2A76552  24.538  22.162   6.764
 6069POPC   C3A76553  24.509  22.178   7.064
 6069POPC   C4A76554  24.454  22.202   7.364
 6069POPC   C1B76555  24.642  21.946   6.464
 6069POPC   C2B76556  24.685  21.934   6.764
 6069POPC   C3B76557  24.685  21.978   7.064
 6069POPC   C4B76558  24.633  21.970   7.364
 6070POPC   NC376559   8.943  12.880   5.564
 6070POPC   PO476560   8.974  12.858   5.864
 6070POPC   GL176561   8.988  12.896   6.164
 6070POPC   GL276562   8.885  12.708   6.164
 6070POPC   C1A76563   8.970  12.847   6.464
 6070POPC   D2A76564   9.006  12.825   6.764
 6070POPC   C3A76565   8.925  12.806   7.064
 6070POPC   C4A76566   8.933  12.819   7.364
 6070POPC   C1B76567   8.816  12.622   6.464
 6070POPC   C2B76568   8.782  12.692   6.764
 6070POPC   C3B76569   8.833  12.640   7.064
 6070POPC   C4B76570   8.861  12.661   7.364
 6071POPC   NC376571  33.763  40.738   5.564
 6071POPC   PO476572  33.847  40.809   5.864
 6071POPC   GL176573  33.764  40.788   6.164
 6071POPC   GL276574  33.741  40.678   6.164
 6071POPC   C1A76575  33.772  40.776   6.464
 6071POPC   D2A76576  33.805  40.752   6.764
 6071POPC   C3A76577  33.752  40.821   7.064
 6071POPC   C4A76578  33.751  40.765   7.364
 6071POPC   C1B76579  33.818  40.539   6.464
 6071POPC   C2B76580  33.779  40.581   6.764
 6071POPC   C3B76581  33.774  40.561   7.064
 6071POPC   C4B76582  33.770  40.491   7.364
 6072POPC   NC376583  30.714  16.704   5.564
 6072POPC   PO476584  30.731  16.745   5.864
 6072POPC   GL176585  30.713  16.710   6.164
 6072POPC   GL276586  30.586  16.600   6.164
 6072POPC   C1A76587  30.657  16.741   6.464
 6072POPC   D2A76588  30.673  16.689   6.764
 6072POPC   C3A76589  30.712  16.693   7.064
 6072POPC   C4A76590  30.711  16.757   7.364
 6072POPC   C1B76591  30.536  16.550   6.464
 6072POPC   C2B76592  30.564  16.515   6.764
 6072POPC   C3B76593  30.569  16.575   7.064
 6072POPC   C4B76594  30.529  16.532   7.364
 6073POPC   NC376595  15.972  40.827   5.564
 6073POPC   PO476596  15.923  40.830   5.864
 6073POPC   GL176597  15.966  40.811   6.164
 6073POPC   GL276598  15.900  40.835   6.164
 6073POPC   C1A76599  15.923  40.807   6.464
 6073POPC   D2A76600  15.906  40.764   6.764
 6073POPC   C3A76601  15.983  40.824   7.064
 6073POPC   C4A76602  15.976  40.779   7.364
 6073POPC   C1B76603  15.772  40.943   6.464
 6073POPC   C2B76604  15.775  40.957   6.764
 6073POPC   C3B76605  15.778  41.002   7.064
 6073POPC   C4B76606  15.804  40.984   7.364
 6074POPC   NC376607  39.264   0.435   5.564
 6074POPC   PO476608  39.230   0.475   5.864
 6074POPC   GL176609  39.270   0.445   6.164
 6074POPC   GL276610  39.312   0.570   6.164
 6074POPC   C1A76611  39.210   0.472   6.464
 6074POPC   D2A76612  39.246   0.481   6.764
 6074POPC   C3A76613  39.186   0.465   7.064
 6074POPC   C4A76614  39.258   0.401   7.364
 6074POPC   C1B76615  39.362   0.616   6.464
 6074POPC   C2B76616  39.371   0.639   6.764
 6074POPC   C3B76617  39.388   0.666   7.064
 6074POPC   C4B76618  39.401   0.651   7.364
 6075POPC   NC376619  33.024  41.521   5.564
 6075POPC   PO476620  33.018  41.546   5.864
 6075POPC   GL176621  33.035  41.569   6.164
 6075POPC   GL276622  32.895  41.534   6.164
 6075POPC   C1A76623  33.031  41.607   6.464
 6075POPC   D2A76624  33.016  41.534   6.764
 6075POPC   C3A76625  32.993  41.528   7.064
 6075POPC   C4A76626  33.006  41.509   7.364
 6075POPC   C1B76627  32.799  41.450   6.464
 6075POPC   C2B76628  32.795  41.502   6.764
 6075POPC   C3B76629  32.826  41.522   7.064
 6075POPC   C4B76630  32.771  41.515   7.364
 6076POPC   NC376631   1.192  13.592   5.564
 6076POPC   PO476632   1.187  13.661   5.864
 6076POPC   GL176633   1.264  13.615   6.164
 6076POPC   GL276634   1.073  13.612   6.164
 6076POPC   C1A76635   1.251  13.671   6.464
 6076POPC   D2A76636   1.245  13.634   6.764
 6076POPC   C3A76637   1.233  13.607   7.064
 6076POPC   C4A76638   1.183  13.646   7.364
 6076POPC   C1B76639   0.939  13.624   6.464
 6076POPC   C2B76640   1.007  13.608   6.764
 6076POPC   C3B76641   0.968  13.613   7.064
 6076POPC   C4B76642   1.011  13.657   7.364
 6077POPC   NC376643  31.462  43.127   5.564
 6077POPC   PO476644  31.490  43.097   5.864
 6077POPC   GL176645  31.514  43.138   6.164
 6077POPC   GL276646  31.570  43.061   6.164
 6077POPC   C1A76647  31.493  43.129   6.464
 6077POPC   D2A76648  31.499  43.061   6.764
 6077POPC   C3A76649  31.493  43.124   7.064
 6077POPC   C4A76650  31.429  43.114   7.364
 6077POPC   C1B76651  31.708  42.973   6.464
 6077POPC   C2B76652  31.696  43.009   6.764
 6077POPC   C3B76653  31.648  42.921   7.064
 6077POPC   C4B76654  31.625  42.959   7.364
 6078POPC   NC376655  26.035  17.460   5.564
 6078POPC   PO476656  26.015  17.489   5.864
 6078POPC   GL176657  25.997  17.462   6.164
 6078POPC   GL276658  25.917  17.592   6.164
 6078POPC   C1A76659  26.043  17.512   6.464
 6078POPC   D2A76660  26.045  17.484   6.764
 6078POPC   C3A76661  26.065  17.459   7.064
 6078POPC   C4A76662  26.003  17.458   7.364
 6078POPC   C1B76663  25.804  17.685   6.464
 6078POPC   C2B76664  25.803  17.667   6.764
 6078POPC   C3B76665  25.831  17.691   7.064
 6078POPC   C4B76666  25.789  17.624   7.364
 6079POPC   NC376667  18.264  22.201   5.564
 6079POPC   PO476668  18.246  22.132   5.864
 6079POPC   GL176669  18.320  22.136   6.164
 6079POPC   GL276670  18.238  22.242   6.164
 6079POPC   C1A76671  18.268  22.134   6.464
 6079POPC   D2A76672  18.270  22.116   6.764
 6079POPC   C3A76673  18.332  22.179   7.064
 6079POPC   C4A76674  18.319  22.148   7.364
 6079POPC   C1B76675  18.183  22.357   6.464
 6079POPC   C2B76676  18.164  22.325   6.764
 6079POPC   C3B76677  18.105  22.374   7.064
 6079POPC   C4B76678  18.169  22.367   7.364
 6080POPC   NC376679  15.171  12.091   5.564
 6080POPC   PO476680  15.141  12.061   5.864
 6080POPC   GL176681  15.176  12.078   6.164
 6080POPC   GL276682  15.075  12.069   6.164
 6080POPC   C1A76683  15.188  12.039   6.464
 6080POPC   D2A76684  15.196  12.087   6.764
 6080POPC   C3A76685  15.155  12.033   7.064
 6080POPC   C4A76686  15.147  12.059   7.364
 6080POPC   C1B76687  14.899  12.125   6.464
 6080POPC   C2B76688  14.880  12.045   6.764
 6080POPC   C3B76689  14.934  12.134   7.064
 6080POPC   C4B76690  14.922  12.048   7.364
 6081POPC   NC376691  39.978  19.009   5.564
 6081POPC   PO476692  39.984  19.062   5.864
 6081POPC   GL176693  40.012  19.098   6.164
 6081POPC   GL276694  39.999  19.135   6.164
 6081POPC   C1A76695  39.994  19.044   6.464
 6081POPC   D2A76696  39.981  19.072   6.764
 6081POPC   C3A76697  40.045  19.051   7.064
 6081POPC   C4A76698  39.981  19.059   7.364
 6081POPC   C1B76699  40.017  19.257   6.464
 6081POPC   C2B76700  39.930  19.341   6.764
 6081POPC   C3B76701  39.989  19.284   7.064
 6081POPC   C4B76702  39.935  19.277   7.364
 6082POPC   NC376703   7.468  31.466   5.564
 6082POPC   PO476704   7.400  31.522   5.864
 6082POPC   GL176705   7.427  31.473   6.164
 6082POPC   GL276706   7.394  31.361   6.164
 6082POPC   C1A76707   7.420  31.427   6.464
 6082POPC   D2A76708   7.437  31.520   6.764
 6082POPC   C3A76709   7.397  31.512   7.064
 6082POPC   C4A76710   7.388  31.449   7.364
 6082POPC   C1B76711   7.356  31.204   6.464
 6082POPC   C2B76712   7.321  31.206   6.764
 6082POPC   C3B76713   7.305  31.185   7.064
 6082POPC   C4B76714   7.345  31.247   7.364
 6083POPC   NC376715  20.616  22.924   5.564
 6083POPC   PO476716  20.646  22.942   5.864
 6083POPC   GL176717  20.563  22.911   6.164
 6083POPC   GL276718  20.541  22.812   6.164
 6083POPC   C1A76719  20.575  22.927   6.464
 6083POPC   D2A76720  20.652  22.933   6.764
 6083POPC   C3A76721  20.590  22.987   7.064
 6083POPC   C4A76722  20.641  22.978   7.364
 6083POPC   C1B76723  20.528  22.710   6.464
 6083POPC   C2B76724  20.481  22.675   6.764
 6083POPC   C3B76725  20.559  22.753   7.064
 6083POPC   C4B76726  20.504  22.727   7.364
 6084POPC   NC376727   5.140  43.845   5.564
 6084POPC   PO476728   5.093  43.859   5.864
 6084POPC   GL176729   5.136  43.864   6.164
 6084POPC   GL276730   5.029  43.983   6.164
 6084POPC   C1A76731   5.049  43.898   6.464
 6084POPC   D2A76732   5.109  43.846   6.764
 6084POPC   C3A76733   5.135  43.921   7.064
 6084POPC   C4A76734   5.122  43.923   7.364
 6084POPC   C1B76735   4.964  44.056   6.464
 6084POPC   C2B76736   5.012  44.075   6.764
 6084POPC   C3B76737   4.934  44.059   7.064
 6084POPC   C4B76738   5.012  44.144   7.364
 6085POPC   NC376739   5.876   1.224   5.564
 6085POPC   PO476740   5.855   1.184   5.864
 6085POPC   GL176741   5.908   1.197   6.164
 6085POPC   GL276742   5.792   1.284   6.164
 6085POPC   C1A76743   5.825   1.188   6.464
 6085POPC   D2A76744   5.830   1.238   6.764
 6085POPC   C3A76745   5.855   1.256   7.064
 6085POPC   C4A76746   5.837   1.196   7.364
 6085POPC   C1B76747   5.696   1.404   6.464
 6085POPC   C2B76748   5.719   1.377   6.764
 6085POPC   C3B76749   5.674   1.369   7.064
 6085POPC   C4B76750   5.633   1.329   7.364
 6086POPC   NC376751  27.621  19.863   5.564
 6086POPC   PO476752  27.587  19.854   5.864
 6086POPC   GL176753  27.625  19.838   6.164
 6086POPC   GL276754  27.566  19.676   6.164
 6086POPC   C1A76755  27.604  19.795   6.464
 6086POPC   D2A76756  27.630  19.807   6.764
 6086POPC   C3A76757  27.604  19.872   7.064
 6086POPC   C4A76758  27.554  19.857   7.364
 6086POPC   C1B76759  27.673  19.538   6.464
 6086POPC   C2B76760  27.624  19.571   6.764
 6086POPC   C3B76761  27.644  19.584   7.064
 6086POPC   C4B76762  27.646  19.591   7.364
 6087POPC   NC376763  40.808  43.934   5.564
 6087POPC   PO476764  40.831  43.839   5.864
 6087POPC   GL176765  40.733  43.933   6.164
 6087POPC   GL276766  40.663  43.852   6.164
 6087POPC   C1A76767  40.827  43.897   6.464
 6087POPC   D2A76768  40.812  43.862   6.764
 6087POPC   C3A76769  40.786  43.902   7.064
 6087POPC   C4A76770  40.745  43.918   7.364
 6087POPC   C1B76771  40.517  43.895   6.464
 6087POPC   C2B76772  40.554  43.915   6.764
 6087POPC   C3B76773  40.567  43.885   7.064
 6087POPC   C4B76774  40.516  43.886   7.364
 6088POPC   NC376775  40.053  30.653   5.564
 6088POPC   PO476776  39.985  30.734   5.864
 6088POPC   GL176777  40.020  30.653   6.164
 6088POPC   GL276778  39.937  30.763   6.164
 6088POPC   C1A76779  39.978  30.687   6.464
 6088POPC   D2A76780  40.038  30.675   6.764
 6088POPC   C3A76781  39.968  30.693   7.064
 6088POPC   C4A76782  40.028  30.685   7.364
 6088POPC   C1B76783  39.769  30.830   6.464
 6088POPC   C2B76784  39.802  30.830   6.764
 6088POPC   C3B76785  39.749  30.835   7.064
 6088POPC   C4B76786  39.810  30.830   7.364
 6089POPC   NC376787  33.064  13.665   5.564
 6089POPC   PO476788  33.052  13.642   5.864
 6089POPC   GL176789  33.067  13.661   6.164
 6089POPC   GL276790  33.185  13.588   6.164
 6089POPC   C1A76791  33.003  13.658   6.464
 6089POPC   D2A76792  33.054  13.596   6.764
 6089POPC   C3A76793  33.004  13.672   7.064
 6089POPC   C4A76794  33.061  13.597   7.364
 6089POPC   C1B76795  33.237  13.508   6.464
 6089POPC   C2B76796  33.213  13.596   6.764
 6089POPC   C3B76797  33.280  13.537   7.064
 6089POPC   C4B76798  33.259  13.527   7.364
 6090POPC   NC376799  42.300  35.310   5.564
 6090POPC   PO476800  42.317  35.332   5.864
 6090POPC   GL176801  42.310  35.321   6.164
 6090POPC   GL276802  42.467  35.398   6.164
 6090POPC   C1A76803  42.352  35.352   6.464
 6090POPC   D2A76804  42.374  35.317   6.764
 6090POPC   C3A76805  42.362  35.399   7.064
 6090POPC   C4A76806  42.343  35.365   7.364
 6090POPC   C1B76807  42.596  35.396   6.464
 6090POPC   C2B76808  42.573  35.416   6.764
 6090POPC   C3B76809  42.567  35.415   7.064
 6090POPC   C4B76810  42.533  35.434   7.364
 6091POPC   NC376811  18.275  19.876   5.564
 6091POPC   PO476812  18.272  19.849   5.864
 6091POPC   GL176813  18.300  19.854   6.164
 6091POPC   GL276814  18.317  19.695   6.164
 6091POPC   C1A76815  18.248  19.877   6.464
 6091POPC   D2A76816  18.276  19.834   6.764
 6091POPC   C3A76817  18.236  19.843   7.064
 6091POPC   C4A76818  18.235  19.812   7.364
 6091POPC   C1B76819  18.425  19.598   6.464
 6091POPC   C2B76820  18.406  19.666   6.764
 6091POPC   C3B76821  18.471  19.664   7.064
 6091POPC   C4B76822  18.384  19.616   7.364
 6092POPC   NC376823  38.410  34.528   5.564
 6092POPC   PO476824  38.435  34.588   5.864
 6092POPC   GL176825  38.435  34.591   6.164
 6092POPC   GL276826  38.365  34.547   6.164
 6092POPC   C1A76827  38.432  34.620   6.464
 6092POPC   D2A76828  38.472  34.573   6.764
 6092POPC   C3A76829  38.473  34.575   7.064
 6092POPC   C4A76830  38.476  34.577   7.364
 6092POPC   C1B76831  38.293  34.392   6.464
 6092POPC   C2B76832  38.216  34.442   6.764
 6092POPC   C3B76833  38.249  34.403   7.064
 6092POPC   C4B76834  38.211  34.457   7.364
 6093POPC   NC376835  38.488  20.646   5.564
 6093POPC   PO476836  38.405  20.606   5.864
 6093POPC   GL176837  38.461  20.641   6.164
 6093POPC   GL276838  38.445  20.689   6.164
 6093POPC   C1A76839  38.440  20.640   6.464
 6093POPC   D2A76840  38.438  20.632   6.764
 6093POPC   C3A76841  38.454  20.644   7.064
 6093POPC   C4A76842  38.410  20.607   7.364
 6093POPC   C1B76843  38.337  20.866   6.464
 6093POPC   C2B76844  38.327  20.824   6.764
 6093POPC   C3B76845  38.382  20.825   7.064
 6093POPC   C4B76846  38.326  20.836   7.364
 6094POPC   NC376847   9.006  42.345   5.564
 6094POPC   PO476848   9.017  42.352   5.864
 6094POPC   GL176849   8.997  42.350   6.164
 6094POPC   GL276850   8.898  42.226   6.164
 6094POPC   C1A76851   8.977  42.362   6.464
 6094POPC   D2A76852   8.927  42.333   6.764
 6094POPC   C3A76853   8.947  42.304   7.064
 6094POPC   C4A76854   8.990  42.356   7.364
 6094POPC   C1B76855   8.733  42.185   6.464
 6094POPC   C2B76856   8.788  42.206   6.764
 6094POPC   C3B76857   8.801  42.212   7.064
 6094POPC   C4B76858   8.785  42.202   7.364
 6095POPC   NC376859  42.351  22.208   5.564
 6095POPC   PO476860  42.352  22.180   5.864
 6095POPC   GL176861  42.302  22.163   6.164
 6095POPC   GL276862  42.305  22.075   6.164
 6095POPC   C1A76863  42.342  22.135   6.464
 6095POPC   D2A76864  42.344  22.124   6.764
 6095POPC   C3A76865  42.312  22.113   7.064
 6095POPC   C4A76866  42.324  22.183   7.364
 6095POPC   C1B76867  42.364  21.928   6.464
 6095POPC   C2B76868  42.385  21.907   6.764
 6095POPC   C3B76869  42.333  21.870   7.064
 6095POPC   C4B76870  42.323  21.890   7.364
 6096POPC   NC376871  22.160  13.657   5.564
 6096POPC   PO476872  22.115  13.581   5.864
 6096POPC   GL176873  22.142  13.621   6.164
 6096POPC   GL276874  22.050  13.559   6.164
 6096POPC   C1A76875  22.153  13.640   6.464
 6096POPC   D2A76876  22.184  13.658   6.764
 6096POPC   C3A76877  22.123  13.664   7.064
 6096POPC   C4A76878  22.172  13.618   7.364
 6096POPC   C1B76879  21.954  13.574   6.464
 6096POPC   C2B76880  21.936  13.529   6.764
 6096POPC   C3B76881  21.945  13.561   7.064
 6096POPC   C4B76882  21.899  13.580   7.364
 6097POPC   NC376883   8.181  32.250   5.564
 6097POPC   PO476884   8.211  32.269   5.864
 6097POPC   GL176885   8.208  32.286   6.164
 6097POPC   GL276886   8.129  32.370   6.164
 6097POPC   C1A76887   8.198  32.225   6.464
 6097POPC   D2A76888   8.177  32.215   6.764
 6097POPC   C3A76889   8.226  32.229   7.064
 6097POPC   C4A76890   8.236  32.297   7.364
 6097POPC   C1B76891   8.127  32.507   6.464
 6097POPC   C2B76892   8.053  32.468   6.764
 6097POPC   C3B76893   8.137  32.483   7.064
 6097POPC   C4B76894   8.087  32.513   7.364
 6098POPC   NC376895  27.598  21.378   5.564
 6098POPC   PO476896  27.597  21.375   5.864
 6098POPC   GL176897  27.566  21.374   6.164
 6098POPC   GL276898  27.502  21.452   6.164
 6098POPC   C1A76899  27.602  21.399   6.464
 6098POPC   D2A76900  27.594  21.397   6.764
 6098POPC   C3A76901  27.575  21.349   7.064
 6098POPC   C4A76902  27.601  21.402   7.364
 6098POPC   C1B76903  27.392  21.493   6.464
 6098POPC   C2B76904  27.380  21.508   6.764
 6098POPC   C3B76905  27.406  21.472   7.064
 6098POPC   C4B76906  27.362  21.443   7.364
 6099POPC   NC376907  34.606  16.743   5.564
 6099POPC   PO476908  34.581  16.778   5.864
 6099POPC   GL176909  34.558  16.779   6.164
 6099POPC   GL276910  34.497  16.586   6.164
 6099POPC   C1A76911  34.536  16.781   6.464
 6099POPC   D2A76912  34.592  16.752   6.764
 6099POPC   C3A76913  34.558  16.738   7.064
 6099POPC   C4A76914  34.567  16.729   7.364
 6099POPC   C1B76915  34.405  16.487   6.464
 6099POPC   C2B76916  34.414  16.569   6.764
 6099POPC   C3B76917  34.430  16.533   7.064
 6099POPC   C4B76918  34.418  16.533   7.364
 6100POPC   NC376919  35.311  29.114   5.564
 6100POPC   PO476920  35.397  29.119   5.864
 6100POPC   GL176921  35.395  29.132   6.164
 6100POPC   GL276922  35.296  29.084   6.164
 6100POPC   C1A76923  35.367  29.166   6.464
 6100POPC   D2A76924  35.356  29.124   6.764
 6100POPC   C3A76925  35.365  29.154   7.064
 6100POPC   C4A76926  35.340  29.157   7.364
 6100POPC   C1B76927  35.236  28.937   6.464
 6100POPC   C2B76928  35.266  28.976   6.764
 6100POPC   C3B76929  35.231  28.942   7.064
 6100POPC   C4B76930  35.177  28.976   7.364
 6101POPC   NC376931  17.482  15.207   5.564
 6101POPC   PO476932  17.508  15.191   5.864
 6101POPC   GL176933  17.473  15.179   6.164
 6101POPC   GL276934  17.623  15.216   6.164
 6101POPC   C1A76935  17.532  15.187   6.464
 6101POPC   D2A76936  17.533  15.138   6.764
 6101POPC   C3A76937  17.506  15.198   7.064
 6101POPC   C4A76938  17.546  15.185   7.364
 6101POPC   C1B76939  17.786  15.227   6.464
 6101POPC   C2B76940  17.758  15.184   6.764
 6101POPC   C3B76941  17.755  15.213   7.064
 6101POPC   C4B76942  17.771  15.210   7.364
 6102POPC   NC376943  29.118   3.510   5.564
 6102POPC   PO476944  29.135   3.500   5.864
 6102POPC   GL176945  29.132   3.575   6.164
 6102POPC   GL276946  29.198   3.395   6.164
 6102POPC   C1A76947  29.152   3.538   6.464
 6102POPC   D2A76948  29.105   3.572   6.764
 6102POPC   C3A76949  29.149   3.536   7.064
 6102POPC   C4A76950  29.155   3.566   7.364
 6102POPC   C1B76951  29.257   3.352   6.464
 6102POPC   C2B76952  29.226   3.342   6.764
 6102POPC   C3B76953  29.315   3.314   7.064
 6102POPC   C4B76954  29.324   3.341   7.364
 6103POPC   NC376955  28.415  26.042   5.564
 6103POPC   PO476956  28.418  26.067   5.864
 6103POPC   GL176957  28.381  26.091   6.164
 6103POPC   GL276958  28.330  25.938   6.164
 6103POPC   C1A76959  28.344  26.020   6.464
 6103POPC   D2A76960  28.409  26.088   6.764
 6103POPC   C3A76961  28.403  26.053   7.064
 6103POPC   C4A76962  28.376  26.027   7.364
 6103POPC   C1B76963  28.346  25.830   6.464
 6103POPC   C2B76964  28.351  25.808   6.764
 6103POPC   C3B76965  28.326  25.795   7.064
 6103POPC   C4B76966  28.350  25.831   7.364
 6104POPC   NC376967  19.799  14.418   5.564
 6104POPC   PO476968  19.844  14.404   5.864
 6104POPC   GL176969  19.850  14.452   6.164
 6104POPC   GL276970  19.807  14.311   6.164
 6104POPC   C1A76971  19.853  14.426   6.464
 6104POPC   D2A76972  19.822  14.381   6.764
 6104POPC   C3A76973  19.789  14.365   7.064
 6104POPC   C4A76974  19.861  14.389   7.364
 6104POPC   C1B76975  19.749  14.229   6.464
 6104POPC   C2B76976  19.750  14.132   6.764
 6104POPC   C3B76977  19.741  14.140   7.064
 6104POPC   C4B76978  19.730  14.196   7.364
 6105POPC   NC376979  40.047  15.190   5.564
 6105POPC   PO476980  39.996  15.191   5.864
 6105POPC   GL176981  39.984  15.184   6.164
 6105POPC   GL276982  40.128  15.256   6.164
 6105POPC   C1A76983  40.018  15.163   6.464
 6105POPC   D2A76984  40.039  15.157   6.764
 6105POPC   C3A76985  40.047  15.170   7.064
 6105POPC   C4A76986  40.024  15.204   7.364
 6105POPC   C1B76987  40.240  15.328   6.464
 6105POPC   C2B76988  40.213  15.322   6.764
 6105POPC   C3B76989  40.157  15.367   7.064
 6105POPC   C4B76990  40.223  15.367   7.364
 6106POPC   NC376991  15.975   2.729   5.564
 6106POPC   PO476992  15.976   2.737   5.864
 6106POPC   GL176993  16.002   2.720   6.164
 6106POPC   GL276994  15.996   2.825   6.164
 6106POPC   C1A76995  15.971   2.744   6.464
 6106POPC   D2A76996  15.983   2.772   6.764
 6106POPC   C3A76997  15.972   2.801   7.064
 6106POPC   C4A76998  15.959   2.813   7.364
 6106POPC   C1B76999  16.129   2.903   6.464
 6106POPC   C2B77000  16.176   2.952   6.764
 6106POPC   C3B77001  16.118   2.978   7.064
 6106POPC   C4B77002  16.174   2.921   7.364
 6107POPC   NC377003   0.414  43.063   5.564
 6107POPC   PO477004   0.440  43.130   5.864
 6107POPC   GL177005   0.461  43.132   6.164
 6107POPC   GL277006   0.444  43.193   6.164
 6107POPC   C1A77007   0.391  43.108   6.464
 6107POPC   D2A77008   0.448  43.136   6.764
 6107POPC   C3A77009   0.391  43.115   7.064
 6107POPC   C4A77010   0.469  43.090   7.364
 6107POPC   C1B77011   0.546  43.358   6.464
 6107POPC   C2B77012   0.560  43.321   6.764
 6107POPC   C3B77013   0.555  43.291   7.064
 6107POPC   C4B77014   0.536  43.324   7.364
 6108POPC   NC377015   4.331  16.686   5.564
 6108POPC   PO477016   4.301  16.760   5.864
 6108POPC   GL177017   4.298  16.748   6.164
 6108POPC   GL277018   4.246  16.759   6.164
 6108POPC   C1A77019   4.290  16.725   6.464
 6108POPC   D2A77020   4.296  16.775   6.764
 6108POPC   C3A77021   4.289  16.737   7.064
 6108POPC   C4A77022   4.301  16.696   7.364
 6108POPC   C1B77023   4.072  16.844   6.464
 6108POPC   C2B77024   4.065  16.876   6.764
 6108POPC   C3B77025   4.080  16.882   7.064
 6108POPC   C4B77026   4.101  16.869   7.364
 6109POPC   NC377027  19.882  22.184   5.564
 6109POPC   PO477028  19.806  22.210   5.864
 6109POPC   GL177029  19.827  22.189   6.164
 6109POPC   GL277030  19.949  22.262   6.164
 6109POPC   C1A77031  19.865  22.187   6.464
 6109POPC   D2A77032  19.799  22.169   6.764
 6109POPC   C3A77033  19.811  22.154   7.064
 6109POPC   C4A77034  19.806  22.129   7.364
 6109POPC   C1B77035  20.066  22.298   6.464
 6109POPC   C2B77036  20.053  22.253   6.764
 6109POPC   C3B77037  20.021  22.311   7.064
 6109POPC   C4B77038  20.071  22.243   7.364
 6110POPC   NC377039   2.034  16.732   5.564
 6110POPC   PO477040   1.950  16.706   5.864
 6110POPC   GL177041   2.008  16.688   6.164
 6110POPC   GL277042   2.162  16.740   6.164
 6110POPC   C1A77043   1.993  16.712   6.464
 6110POPC   D2A77044   2.018  16.762   6.764
 6110POPC   C3A77045   1.967  16.733   7.064
 6110POPC   C4A77046   2.007  16.730   7.364
 6110POPC   C1B77047   2.265  16.734   6.464
 6110POPC   C2B77048   2.206  16.689   6.764
 6110POPC   C3B77049   2.250  16.662   7.064
 6110POPC   C4B77050   2.203  16.721   7.364
 6111POPC   NC377051  39.195   2.766   5.564
 6111POPC   PO477052  39.198   2.759   5.864
 6111POPC   GL177053  39.277   2.755   6.164
 6111POPC   GL277054  39.319   2.714   6.164
 6111POPC   C1A77055  39.275   2.752   6.464
 6111POPC   D2A77056  39.213   2.772   6.764
 6111POPC   C3A77057  39.208   2.739   7.064
 6111POPC   C4A77058  39.203   2.749   7.364
 6111POPC   C1B77059  39.485   2.638   6.464
 6111POPC   C2B77060  39.472   2.650   6.764
 6111POPC   C3B77061  39.499   2.662   7.064
 6111POPC   C4B77062  39.496   2.714   7.364
 6112POPC   NC377063  31.465  19.070   5.564
 6112POPC   PO477064  31.473  19.089   5.864
 6112POPC   GL177065  31.483  19.044   6.164
 6112POPC   GL277066  31.584  19.019   6.164
 6112POPC   C1A77067  31.479  19.082   6.464
 6112POPC   D2A77068  31.470  19.092   6.764
 6112POPC   C3A77069  31.443  19.038   7.064
 6112POPC   C4A77070  31.513  19.107   7.364
 6112POPC   C1B77071  31.750  18.957   6.464
 6112POPC   C2B77072  31.707  19.013   6.764
 6112POPC   C3B77073  31.737  18.954   7.064
 6112POPC   C4B77074  31.679  19.020   7.364
 6113POPC   NC377075   1.989  32.985   5.564
 6113POPC   PO477076   2.011  33.060   5.864
 6113POPC   GL177077   1.972  33.028   6.164
 6113POPC   GL277078   1.860  33.065   6.164
 6113POPC   C1A77079   1.964  32.983   6.464
 6113POPC   D2A77080   1.997  33.041   6.764
 6113POPC   C3A77081   2.024  33.029   7.064
 6113POPC   C4A77082   1.992  32.999   7.364
 6113POPC   C1B77083   1.781  33.004   6.464
 6113POPC   C2B77084   1.734  33.034   6.764
 6113POPC   C3B77085   1.749  33.036   7.064
 6113POPC   C4B77086   1.737  33.038   7.364
 6114POPC   NC377087  22.952  43.843   5.564
 6114POPC   PO477088  22.914  43.855   5.864
 6114POPC   GL177089  22.915  43.847   6.164
 6114POPC   GL277090  22.855  43.795   6.164
 6114POPC   C1A77091  22.924  43.871   6.464
 6114POPC   D2A77092  22.924  43.902   6.764
 6114POPC   C3A77093  22.974  43.838   7.064
 6114POPC   C4A77094  22.937  43.895   7.364
 6114POPC   C1B77095  22.725  43.679   6.464
 6114POPC   C2B77096  22.756  43.756   6.764
 6114POPC   C3B77097  22.709  43.740   7.064
 6114POPC   C4B77098  22.713  43.743   7.364
 6115POPC   NC377099  12.083  39.971   5.564
 6115POPC   PO477100  12.040  40.054   5.864
 6115POPC   GL177101  12.095  40.056   6.164
 6115POPC   GL277102  12.070  40.175   6.164
 6115POPC   C1A77103  12.052  40.017   6.464
 6115POPC   D2A77104  12.064  40.006   6.764
 6115POPC   C3A77105  12.109  39.991   7.064
 6115POPC   C4A77106  12.056  40.044   7.364
 6115POPC   C1B77107  12.124  40.220   6.464
 6115POPC   C2B77108  12.045  40.223   6.764
 6115POPC   C3B77109  12.079  40.288   7.064
 6115POPC   C4B77110  12.110  40.224   7.364
 6116POPC   NC377111   6.613  37.643   5.564
 6116POPC   PO477112   6.685  37.722   5.864
 6116POPC   GL177113   6.656  37.667   6.164
 6116POPC   GL277114   6.477  37.668   6.164
 6116POPC   C1A77115   6.678  37.639   6.464
 6116POPC   D2A77116   6.676  37.667   6.764
 6116POPC   C3A77117   6.691  37.640   7.064
 6116POPC   C4A77118   6.668  37.690   7.364
 6116POPC   C1B77119   6.403  37.718   6.464
 6116POPC   C2B77120   6.415  37.773   6.764
 6116POPC   C3B77121   6.375  37.728   7.064
 6116POPC   C4B77122   6.400  37.753   7.364
 6117POPC   NC377123   0.422  35.309   5.564
 6117POPC   PO477124   0.397  35.370   5.864
 6117POPC   GL177125   0.398  35.336   6.164
 6117POPC   GL277126   0.402  35.263   6.164
 6117POPC   C1A77127   0.443  35.311   6.464
 6117POPC   D2A77128   0.402  35.338   6.764
 6117POPC   C3A77129   0.424  35.332   7.064
 6117POPC   C4A77130   0.453  35.362   7.364
 6117POPC   C1B77131   0.497  35.058   6.464
 6117POPC   C2B77132   0.433  35.132   6.764
 6117POPC   C3B77133   0.444  35.089   7.064
 6117POPC   C4B77134   0.448  35.107   7.364
 6118POPC   NC377135  39.958   9.779   5.564
 6118POPC   PO477136  39.979   9.724   5.864
 6118POPC   GL177137  40.047   9.786   6.164
 6118POPC   GL277138  39.893   9.797   6.164
 6118POPC   C1A77139  39.969   9.730   6.464
 6118POPC   D2A77140  39.990   9.759   6.764
 6118POPC   C3A77141  39.999   9.705   7.064
 6118POPC   C4A77142  40.014   9.798   7.364
 6118POPC   C1B77143  39.767   9.878   6.464
 6118POPC   C2B77144  39.787   9.861   6.764
 6118POPC   C3B77145  39.740   9.820   7.064
 6118POPC   C4B77146  39.781   9.880   7.364
 6119POPC   NC377147  21.427  36.882   5.564
 6119POPC   PO477148  21.411  36.906   5.864
 6119POPC   GL177149  21.368  36.939   6.164
 6119POPC   GL277150  21.249  37.002   6.164
 6119POPC   C1A77151  21.412  36.907   6.464
 6119POPC   D2A77152  21.350  36.941   6.764
 6119POPC   C3A77153  21.411  36.945   7.064
 6119POPC   C4A77154  21.419  36.882   7.364
 6119POPC   C1B77155  21.181  37.109   6.464
 6119POPC   C2B77156  21.234  37.031   6.764
 6119POPC   C3B77157  21.216  37.073   7.064
 6119POPC   C4B77158  21.231  37.108   7.364
 6120POPC   NC377159  36.175  31.444   5.564
 6120POPC   PO477160  36.079  31.434   5.864
 6120POPC   GL177161  36.123  31.444   6.164
 6120POPC   GL277162  36.032  31.487   6.164
 6120POPC   C1A77163  36.127  31.454   6.464
 6120POPC   D2A77164  36.133  31.465   6.764
 6120POPC   C3A77165  36.083  31.458   7.064
 6120POPC   C4A77166  36.101  31.425   7.364
 6120POPC   C1B77167  35.843  31.449   6.464
 6120POPC   C2B77168  35.838  31.379   6.764
 6120POPC   C3B77169  35.857  31.364   7.064
 6120POPC   C4B77170  35.836  31.382   7.364
 6121POPC   NC377171  29.118  22.934   5.564
 6121POPC   PO477172  29.168  22.970   5.864
 6121POPC   GL177173  29.130  22.904   6.164
 6121POPC   GL277174  29.234  23.026   6.164
 6121POPC   C1A77175  29.099  22.967   6.464
 6121POPC   D2A77176  29.170  22.929   6.764
 6121POPC   C3A77177  29.124  22.909   7.064
 6121POPC   C4A77178  29.134  22.891   7.364
 6121POPC   C1B77179  29.339  23.037   6.464
 6121POPC   C2B77180  29.380  23.043   6.764
 6121POPC   C3B77181  29.407  22.996   7.064
 6121POPC   C4B77182  29.412  23.032   7.364
 6122POPC   NC377183  40.744   9.711   5.564
 6122POPC   PO477184  40.745   9.784   5.864
 6122POPC   GL177185  40.756   9.700   6.164
 6122POPC   GL277186  40.747   9.586   6.164
 6122POPC   C1A77187  40.822   9.712   6.464
 6122POPC   D2A77188  40.821   9.731   6.764
 6122POPC   C3A77189  40.801   9.797   7.064
 6122POPC   C4A77190  40.817   9.761   7.364
 6122POPC   C1B77191  40.684   9.466   6.464
 6122POPC   C2B77192  40.694   9.486   6.764
 6122POPC   C3B77193  40.692   9.471   7.064
 6122POPC   C4B77194  40.708   9.555   7.364
 6123POPC   NC377195  41.552   5.063   5.564
 6123POPC   PO477196  41.581   5.075   5.864
 6123POPC   GL177197  41.563   5.050   6.164
 6123POPC   GL277198  41.400   5.118   6.164
 6123POPC   C1A77199  41.558   5.092   6.464
 6123POPC   D2A77200  41.560   5.115   6.764
 6123POPC   C3A77201  41.553   5.133   7.064
 6123POPC   C4A77202  41.584   5.075   7.364
 6123POPC   C1B77203  41.349   5.160   6.464
 6123POPC   C2B77204  41.342   5.178   6.764
 6123POPC   C3B77205  41.304   5.157   7.064
 6123POPC   C4B77206  41.321   5.133   7.364
 6124POPC   NC377207   5.095  16.735   5.564
 6124POPC   PO477208   5.088  16.690   5.864
 6124POPC   GL177209   5.089  16.707   6.164
 6124POPC   GL277210   5.088  16.821   6.164
 6124POPC   C1A77211   5.129  16.683   6.464
 6124POPC   D2A77212   5.130  16.701   6.764
 6124POPC   C3A77213   5.059  16.758   7.064
 6124POPC   C4A77214   5.109  16.750   7.364
 6124POPC   C1B77215   5.004  17.017   6.464
 6124POPC   C2B77216   5.006  16.990   6.764
 6124POPC   C3B77217   5.088  16.997   7.064
 6124POPC   C4B77218   5.023  16.939   7.364
 6125POPC   NC377219   2.720  36.174   5.564
 6125POPC   PO477220   2.748  36.090   5.864
 6125POPC   GL177221   2.760  36.174   6.164
 6125POPC   GL277222   2.795  36.203   6.164
 6125POPC   C1A77223   2.801  36.083   6.464
 6125POPC   D2A77224   2.738  36.177   6.764
 6125POPC   C3A77225   2.771  36.147   7.064
 6125POPC   C4A77226   2.776  36.129   7.364
 6125POPC   C1B77227   2.881  36.315   6.464
 6125POPC   C2B77228   2.967  36.312   6.764
 6125POPC   C3B77229   2.943  36.317   7.064
 6125POPC   C4B77230   2.913  36.278   7.364
 6126POPC   NC377231  24.504   5.860   5.564
 6126POPC   PO477232  24.440   5.909   5.864
 6126POPC   GL177233  24.506   5.888   6.164
 6126POPC   GL277234  24.554   5.805   6.164
 6126POPC   C1A77235  24.445   5.843   6.464
 6126POPC   D2A77236  24.475   5.866   6.764
 6126POPC   C3A77237  24.457   5.899   7.064
 6126POPC   C4A77238  24.473   5.820   7.364
 6126POPC   C1B77239  24.625   5.644   6.464
 6126POPC   C2B77240  24.641   5.708   6.764
 6126POPC   C3B77241  24.580   5.677   7.064
 6126POPC   C4B77242  24.603   5.644   7.364
 6127POPC   NC377243   2.019  30.693   5.564
 6127POPC   PO477244   1.959  30.664   5.864
 6127POPC   GL177245   1.979  30.701   6.164
 6127POPC   GL277246   2.067  30.749   6.164
 6127POPC   C1A77247   1.966  30.720   6.464
 6127POPC   D2A77248   1.976  30.695   6.764
 6127POPC   C3A77249   1.947  30.660   7.064
 6127POPC   C4A77250   2.021  30.725   7.364
 6127POPC   C1B77251   2.187  30.854   6.464
 6127POPC   C2B77252   2.187  30.842   6.764
 6127POPC   C3B77253   2.183  30.929   7.064
 6127POPC   C4B77254   2.192  30.921   7.364
 6128POPC   NC377255  16.685  30.728   5.564
 6128POPC   PO477256  16.723  30.712   5.864
 6128POPC   GL177257  16.749  30.661   6.164
 6128POPC   GL277258  16.597  30.635   6.164
 6128POPC   C1A77259  16.701  30.725   6.464
 6128POPC   D2A77260  16.732  30.692   6.764
 6128POPC   C3A77261  16.709  30.709   7.064
 6128POPC   C4A77262  16.758  30.652   7.364
 6128POPC   C1B77263  16.501  30.605   6.464
 6128POPC   C2B77264  16.563  30.543   6.764
 6128POPC   C3B77265  16.520  30.532   7.064
 6128POPC   C4B77266  16.549  30.597   7.364
 6129POPC   NC377267  21.422  38.504   5.564
 6129POPC   PO477268  21.387  38.438   5.864
 6129POPC   GL177269  21.395  38.409   6.164
 6129POPC   GL277270  21.286  38.429   6.164
 6129POPC   C1A77271  21.396  38.465   6.464
 6129POPC   D2A77272  21.400  38.423   6.764
 6129POPC   C3A77273  21.382  38.409   7.064
 6129POPC   C4A77274  21.345  38.477   7.364
 6129POPC   C1B77275  21.131  38.449   6.464
 6129POPC   C2B77276  21.103  38.454   6.764
 6129POPC   C3B77277  21.126  38.387   7.064
 6129POPC   C4B77278  21.103  38.432   7.364
 6130POPC   NC377279  16.697  26.041   5.564
 6130POPC   PO477280  16.744  26.050   5.864
 6130POPC   GL177281  16.729  26.051   6.164
 6130POPC   GL277282  16.870  25.991   6.164
 6130POPC   C1A77283  16.747  26.056   6.464
 6130POPC   D2A77284  16.726  26.069   6.764
 6130POPC   C3A77285  16.730  26.067   7.064
 6130POPC   C4A77286  16.750  25.995   7.364
 6130POPC   C1B77287  16.964  25.981   6.464
 6130POPC   C2B77288  16.934  26.073   6.764
 6130POPC   C3B77289  16.970  25.998   7.064
 6130POPC   C4B77290  16.982  26.079   7.364
 6131POPC   NC377291  26.833  22.964   5.564
 6131POPC   PO477292  26.866  22.982   5.864
 6131POPC   GL177293  26.861  22.899   6.164
 6131POPC   GL277294  26.677  22.944   6.164
 6131POPC   C1A77295  26.854  22.980   6.464
 6131POPC   D2A77296  26.864  22.932   6.764
 6131POPC   C3A77297  26.829  22.895   7.064
 6131POPC   C4A77298  26.844  22.970   7.364
 6131POPC   C1B77299  26.537  23.021   6.464
 6131POPC   C2B77300  26.622  23.041   6.764
 6131POPC   C3B77301  26.604  23.048   7.064
 6131POPC   C4B77302  26.543  22.993   7.364
 6132POPC   NC377303  34.558   8.213   5.564
 6132POPC   PO477304  34.586   8.161   5.864
 6132POPC   GL177305  34.583   8.186   6.164
 6132POPC   GL277306  34.481   8.157   6.164
 6132POPC   C1A77307  34.583   8.152   6.464
 6132POPC   D2A77308  34.592   8.234   6.764
 6132POPC   C3A77309  34.534   8.234   7.064
 6132POPC   C4A77310  34.549   8.174   7.364
 6132POPC   C1B77311  34.373   7.989   6.464
 6132POPC   C2B77312  34.409   7.989   6.764
 6132POPC   C3B77313  34.346   8.054   7.064
 6132POPC   C4B77314  34.387   7.993   7.364
 6133POPC   NC377315  23.725  30.678   5.564
 6133POPC   PO477316  23.684  30.686   5.864
 6133POPC   GL177317  23.721  30.737   6.164
 6133POPC   GL277318  23.831  30.782   6.164
 6133POPC   C1A77319  23.745  30.741   6.464
 6133POPC   D2A77320  23.670  30.656   6.764
 6133POPC   C3A77321  23.715  30.647   7.064
 6133POPC   C4A77322  23.749  30.681   7.364
 6133POPC   C1B77323  23.900  30.811   6.464
 6133POPC   C2B77324  23.975  30.786   6.764
 6133POPC   C3B77325  23.909  30.799   7.064
 6133POPC   C4B77326  23.930  30.774   7.364
 6134POPC   NC377327  23.757  22.193   5.564
 6134POPC   PO477328  23.682  22.114   5.864
 6134POPC   GL177329  23.705  22.144   6.164
 6134POPC   GL277330  23.790  22.283   6.164
 6134POPC   C1A77331  23.689  22.131   6.464
 6134POPC   D2A77332  23.740  22.114   6.764
 6134POPC   C3A77333  23.760  22.147   7.064
 6134POPC   C4A77334  23.686  22.199   7.364
 6134POPC   C1B77335  23.822  22.341   6.464
 6134POPC   C2B77336  23.858  22.386   6.764
 6134POPC   C3B77337  23.793  22.361   7.064
 6134POPC   C4B77338  23.838  22.372   7.364
 6135POPC   NC377339  42.366   3.590   5.564
 6135POPC   PO477340  42.321   3.554   5.864
 6135POPC   GL177341  42.313   3.538   6.164
 6135POPC   GL277342  42.492   3.513   6.164
 6135POPC   C1A77343  42.297   3.561   6.464
 6135POPC   D2A77344  42.371   3.495   6.764
 6135POPC   C3A77345  42.338   3.591   7.064
 6135POPC   C4A77346  42.370   3.494   7.364
 6135POPC   C1B77347  42.615   3.566   6.464
 6135POPC   C2B77348  42.632   3.521   6.764
 6135POPC   C3B77349  42.554   3.517   7.064
 6135POPC   C4B77350  42.541   3.558   7.364
 6136POPC   NC377351   3.545  15.206   5.564
 6136POPC   PO477352   3.504  15.158   5.864
 6136POPC   GL177353   3.524  15.151   6.164
 6136POPC   GL277354   3.691  15.250   6.164
 6136POPC   C1A77355   3.579  15.150   6.464
 6136POPC   D2A77356   3.498  15.143   6.764
 6136POPC   C3A77357   3.505  15.227   7.064
 6136POPC   C4A77358   3.578  15.166   7.364
 6136POPC   C1B77359   3.827  15.228   6.464
 6136POPC   C2B77360   3.749  15.190   6.764
 6136POPC   C3B77361   3.742  15.234   7.064
 6136POPC   C4B77362   3.806  15.200   7.364
 6137POPC   NC377363  15.956  32.277   5.564
 6137POPC   PO477364  15.957  32.270   5.864
 6137POPC   GL177365  15.932  32.264   6.164
 6137POPC   GL277366  16.058  32.291   6.164
 6137POPC   C1A77367  15.980  32.201   6.464
 6137POPC   D2A77368  15.941  32.215   6.764
 6137POPC   C3A77369  15.943  32.213   7.064
 6137POPC   C4A77370  15.955  32.286   7.364
 6137POPC   C1B77371  16.157  32.331   6.464
 6137POPC   C2B77372  16.192  32.372   6.764
 6137POPC   C3B77373  16.144  32.353   7.064
 6137POPC   C4B77374  16.165  32.405   7.364
 6138POPC   NC377375  44.686  27.573   5.564
 6138POPC   PO477376  44.676  27.639   5.864
 6138POPC   GL177377  44.695  27.621   6.164
 6138POPC   GL277378  44.742  27.612   6.164
 6138POPC   C1A77379  44.642  27.547   6.464
 6138POPC   D2A77380  44.628  27.563   6.764
 6138POPC   C3A77381  44.685  27.603   7.064
 6138POPC   C4A77382  44.638  27.612   7.364
 6138POPC   C1B77383  44.937  27.663   6.464
 6138POPC   C2B77384  44.902  27.615   6.764
 6138POPC   C3B77385  44.880  27.633   7.064
 6138POPC   C4B77386  44.911  27.603   7.364
 6139POPC   NC377387  19.065  13.624   5.564
 6139POPC   PO477388  19.089  13.633   5.864
 6139POPC   GL177389  19.034  13.662   6.164
 6139POPC   GL277390  19.218  13.574   6.164
 6139POPC   C1A77391  19.065  13.584   6.464
 6139POPC   D2A77392  19.087  13.594   6.764
 6139POPC   C3A77393  19.103  13.596   7.064
 6139POPC   C4A77394  19.056  13.583   7.364
 6139POPC   C1B77395  19.321  13.560   6.464
 6139POPC   C2B77396  19.272  13.579   6.764
 6139POPC   C3B77397  19.355  13.538   7.064
 6139POPC   C4B77398  19.320  13.593   7.364
 6140POPC   NC377399  26.844  37.636   5.564
 6140POPC   PO477400  26.821  37.678   5.864
 6140POPC   GL177401  26.854  37.701   6.164
 6140POPC   GL277402  26.711  37.595   6.164
 6140POPC   C1A77403  26.815  37.688   6.464
 6140POPC   D2A77404  26.804  37.676   6.764
 6140POPC   C3A77405  26.796  37.705   7.064
 6140POPC   C4A77406  26.835  37.682   7.364
 6140POPC   C1B77407  26.632  37.574   6.464
 6140POPC   C2B77408  26.641  37.581   6.764
 6140POPC   C3B77409  26.581  37.571   7.064
 6140POPC   C4B77410  26.592  37.538   7.364
 6141POPC   NC377411  43.112  12.061   5.564
 6141POPC   PO477412  43.159  12.099   5.864
 6141POPC   GL177413  43.144  12.085   6.164
 6141POPC   GL277414  42.978  12.105   6.164
 6141POPC   C1A77415  43.131  12.038   6.464
 6141POPC   D2A77416  43.099  12.108   6.764
 6141POPC   C3A77417  43.087  12.044   7.064
 6141POPC   C4A77418  43.083  12.045   7.364
 6141POPC   C1B77419  42.834  12.150   6.464
 6141POPC   C2B77420  42.898  12.153   6.764
 6141POPC   C3B77421  42.816  12.115   7.064
 6141POPC   C4B77422  42.852  12.092   7.364
 6142POPC   NC377423  33.816   6.601   5.564
 6142POPC   PO477424  33.837   6.665   5.864
 6142POPC   GL177425  33.812   6.605   6.164
 6142POPC   GL277426  33.886   6.801   6.164
 6142POPC   C1A77427  33.781   6.616   6.464
 6142POPC   D2A77428  33.801   6.626   6.764
 6142POPC   C3A77429  33.850   6.694   7.064
 6142POPC   C4A77430  33.768   6.638   7.364
 6142POPC   C1B77431  33.893   6.883   6.464
 6142POPC   C2B77432  33.951   6.831   6.764
 6142POPC   C3B77433  33.874   6.908   7.064
 6142POPC   C4B77434  33.914   6.883   7.364
 6143POPC   NC377435  36.875  22.913   5.564
 6143POPC   PO477436  36.878  22.979   5.864
 6143POPC   GL177437  36.894  22.939   6.164
 6143POPC   GL277438  36.766  23.063   6.164
 6143POPC   C1A77439  36.949  22.926   6.464
 6143POPC   D2A77440  36.872  22.978   6.764
 6143POPC   C3A77441  36.898  22.977   7.064
 6143POPC   C4A77442  36.895  22.928   7.364
 6143POPC   C1B77443  36.722  23.098   6.464
 6143POPC   C2B77444  36.688  23.076   6.764
 6143POPC   C3B77445  36.751  23.057   7.064
 6143POPC   C4B77446  36.739  23.059   7.364
 6144POPC   NC377447   5.065  20.631   5.564
 6144POPC   PO477448   5.053  20.598   5.864
 6144POPC   GL177449   5.095  20.629   6.164
 6144POPC   GL277450   4.980  20.599   6.164
 6144POPC   C1A77451   5.110  20.645   6.464
 6144POPC   D2A77452   5.105  20.627   6.764
 6144POPC   C3A77453   5.123  20.602   7.064
 6144POPC   C4A77454   5.064  20.592   7.364
 6144POPC   C1B77455   4.899  20.503   6.464
 6144POPC   C2B77456   4.829  20.563   6.764
 6144POPC   C3B77457   4.882  20.492   7.064
 6144POPC   C4B77458   4.878  20.554   7.364
 6145POPC   NC377459  11.274  35.327   5.564
 6145POPC   PO477460  11.286  35.392   5.864
 6145POPC   GL177461  11.261  35.320   6.164
 6145POPC   GL277462  11.189  35.250   6.164
 6145POPC   C1A77463  11.256  35.344   6.464
 6145POPC   D2A77464  11.338  35.336   6.764
 6145POPC   C3A77465  11.266  35.328   7.064
 6145POPC   C4A77466  11.253  35.305   7.364
 6145POPC   C1B77467  11.152  35.164   6.464
 6145POPC   C2B77468  11.103  35.189   6.764
 6145POPC   C3B77469  11.154  35.132   7.064
 6145POPC   C4B77470  11.177  35.174   7.364
 6146POPC   NC377471  41.542  26.063   5.564
 6146POPC   PO477472  41.523  26.023   5.864
 6146POPC   GL177473  41.574  26.037   6.164
 6146POPC   GL277474  41.619  26.172   6.164
 6146POPC   C1A77475  41.554  26.060   6.464
 6146POPC   D2A77476  41.595  26.032   6.764
 6146POPC   C3A77477  41.568  26.042   7.064
 6146POPC   C4A77478  41.563  26.065   7.364
 6146POPC   C1B77479  41.703  26.277   6.464
 6146POPC   C2B77480  41.666  26.265   6.764
 6146POPC   C3B77481  41.640  26.234   7.064
 6146POPC   C4B77482  41.698  26.305   7.364
 6147POPC   NC377483  41.578  42.366   5.564
 6147POPC   PO477484  41.533  42.330   5.864
 6147POPC   GL177485  41.521  42.327   6.164
 6147POPC   GL277486  41.592  42.408   6.164
 6147POPC   C1A77487  41.516  42.350   6.464
 6147POPC   D2A77488  41.549  42.318   6.764
 6147POPC   C3A77489  41.525  42.382   7.064
 6147POPC   C4A77490  41.532  42.321   7.364
 6147POPC   C1B77491  41.622  42.576   6.464
 6147POPC   C2B77492  41.623  42.566   6.764
 6147POPC   C3B77493  41.591  42.541   7.064
 6147POPC   C4B77494  41.656  42.565   7.364
 6148POPC   NC377495  20.598  11.252   5.564
 6148POPC   PO477496  20.602  11.282   5.864
 6148POPC   GL177497  20.581  11.280   6.164
 6148POPC   GL277498  20.617  11.441   6.164
 6148POPC   C1A77499  20.593  11.273   6.464
 6148POPC   D2A77500  20.658  11.285   6.764
 6148POPC   C3A77501  20.653  11.279   7.064
 6148POPC   C4A77502  20.598  11.261   7.364
 6148POPC   C1B77503  20.691  11.508   6.464
 6148POPC   C2B77504  20.666  11.525   6.764
 6148POPC   C3B77505  20.640  11.492   7.064
 6148POPC   C4B77506  20.696  11.558   7.364
 6149POPC   NC377507  10.547   5.064   5.564
 6149POPC   PO477508  10.559   5.071   5.864
 6149POPC   GL177509  10.540   5.103   6.164
 6149POPC   GL277510  10.480   4.985   6.164
 6149POPC   C1A77511  10.519   5.059   6.464
 6149POPC   D2A77512  10.574   5.137   6.764
 6149POPC   C3A77513  10.565   5.064   7.064
 6149POPC   C4A77514  10.499   5.073   7.364
 6149POPC   C1B77515  10.447   4.811   6.464
 6149POPC   C2B77516  10.506   4.867   6.764
 6149POPC   C3B77517  10.435   4.836   7.064
 6149POPC   C4B77518  10.507   4.821   7.364
 6150POPC   NC377519   8.971   0.457   5.564
 6150POPC   PO477520   8.927   0.469   5.864
 6150POPC   GL177521   9.014   0.394   6.164
 6150POPC   GL277522   8.924   0.538   6.164
 6150POPC   C1A77523   8.958   0.465   6.464
 6150POPC   D2A77524   8.925   0.468   6.764
 6150POPC   C3A77525   8.925   0.483   7.064
 6150POPC   C4A77526   8.944   0.430   7.364
 6150POPC   C1B77527   8.752   0.609   6.464
 6150POPC   C2B77528   8.813   0.559   6.764
 6150POPC   C3B77529   8.792   0.583   7.064
 6150POPC   C4B77530   8.737   0.625   7.364
 6151POPC   NC377531  11.310  15.186   5.564
 6151POPC   PO477532  11.290  15.226   5.864
 6151POPC   GL177533  11.338  15.223   6.164
 6151POPC   GL277534  11.215  15.249   6.164
 6151POPC   C1A77535  11.309  15.145   6.464
 6151POPC   D2A77536  11.278  15.135   6.764
 6151POPC   C3A77537  11.285  15.177   7.064
 6151POPC   C4A77538  11.322  15.173   7.364
 6151POPC   C1B77539  11.205  15.355   6.464
 6151POPC   C2B77540  11.180  15.427   6.764
 6151POPC   C3B77541  11.226  15.375   7.064
 6151POPC   C4B77542  11.174  15.379   7.364
 6152POPC   NC377543   8.960  24.494   5.564
 6152POPC   PO477544   9.004  24.514   5.864
 6152POPC   GL177545   9.018  24.483   6.164
 6152POPC   GL277546   8.849  24.430   6.164
 6152POPC   C1A77547   8.924  24.532   6.464
 6152POPC   D2A77548   8.999  24.494   6.764
 6152POPC   C3A77549   8.945  24.476   7.064
 6152POPC   C4A77550   8.979  24.537   7.364
 6152POPC   C1B77551   8.747  24.286   6.464
 6152POPC   C2B77552   8.784  24.303   6.764
 6152POPC   C3B77553   8.740  24.297   7.064
 6152POPC   C4B77554   8.800  24.315   7.364
 6153POPC   NC377555  17.539  22.207   5.564
 6153POPC   PO477556  17.501  22.137   5.864
 6153POPC   GL177557  17.537  22.147   6.164
 6153POPC   GL277558  17.569  22.094   6.164
 6153POPC   C1A77559  17.514  22.162   6.464
 6153POPC   D2A77560  17.523  22.146   6.764
 6153POPC   C3A77561  17.512  22.142   7.064
 6153POPC   C4A77562  17.458  22.136   7.364
 6153POPC   C1B77563  17.671  21.967   6.464
 6153POPC   C2B77564  17.587  21.896   6.764
 6153POPC   C3B77565  17.631  21.918   7.064
 6153POPC   C4B77566  17.674  21.894   7.364
 6154POPC   NC377567  43.923   4.326   5.564
 6154POPC   PO477568  43.863   4.268   5.864
 6154POPC   GL177569  43.837   4.356   6.164
 6154POPC   GL277570  43.983   4.397   6.164
 6154POPC   C1A77571  43.873   4.354   6.464
 6154POPC   D2A77572  43.925   4.309   6.764
 6154POPC   C3A77573  43.857   4.283   7.064
 6154POPC   C4A77574  43.854   4.363   7.364
 6154POPC   C1B77575  43.967   4.507   6.464
 6154POPC   C2B77576  43.997   4.580   6.764
 6154POPC   C3B77577  43.947   4.508   7.064
 6154POPC   C4B77578  43.953   4.552   7.364
 6155POPC   NC377579  43.884  23.720   5.564
 6155POPC   PO477580  43.852  23.763   5.864
 6155POPC   GL177581  43.879  23.691   6.164
 6155POPC   GL277582  43.804  23.785   6.164
 6155POPC   C1A77583  43.914  23.756   6.464
 6155POPC   D2A77584  43.847  23.716   6.764
 6155POPC   C3A77585  43.862  23.717   7.064
 6155POPC   C4A77586  43.915  23.680   7.364
 6155POPC   C1B77587  43.680  23.781   6.464
 6155POPC   C2B77588  43.634  23.746   6.764
 6155POPC   C3B77589  43.635  23.800   7.064
 6155POPC   C4B77590  43.677  23.738   7.364
 6156POPC   NC377591  26.022   5.107   5.564
 6156POPC   PO477592  26.050   5.050   5.864
 6156POPC   GL177593  26.031   5.130   6.164
 6156POPC   GL277594  26.159   5.030   6.164
 6156POPC   C1A77595  26.024   5.052   6.464
 6156POPC   D2A77596  26.029   5.112   6.764
 6156POPC   C3A77597  26.027   5.096   7.064
 6156POPC   C4A77598  26.014   5.044   7.364
 6156POPC   C1B77599  26.227   4.994   6.464
 6156POPC   C2B77600  26.272   4.959   6.764
 6156POPC   C3B77601  26.302   4.965   7.064
 6156POPC   C4B77602  26.243   4.955   7.364
 6157POPC   NC377603  27.594  15.942   5.564
 6157POPC   PO477604  27.554  15.927   5.864
 6157POPC   GL177605  27.608  15.983   6.164
 6157POPC   GL277606  27.657  15.898   6.164
 6157POPC   C1A77607  27.583  15.923   6.464
 6157POPC   D2A77608  27.603  15.977   6.764
 6157POPC   C3A77609  27.550  15.943   7.064
 6157POPC   C4A77610  27.637  15.999   7.364
 6157POPC   C1B77611  27.764  15.715   6.464
 6157POPC   C2B77612  27.734  15.741   6.764
 6157POPC   C3B77613  27.756  15.772   7.064
 6157POPC   C4B77614  27.701  15.798   7.364
 6158POPC   NC377615  36.883  39.265   5.564
 6158POPC   PO477616  36.864  39.247   5.864
 6158POPC   GL177617  36.867  39.229   6.164
 6158POPC   GL277618  36.815  39.239   6.164
 6158POPC   C1A77619  36.920  39.228   6.464
 6158POPC   D2A77620  36.902  39.250   6.764
 6158POPC   C3A77621  36.902  39.237   7.064
 6158POPC   C4A77622  36.933  39.205   7.364
 6158POPC   C1B77623  36.701  39.173   6.464
 6158POPC   C2B77624  36.670  39.184   6.764
 6158POPC   C3B77625  36.634  39.197   7.064
 6158POPC   C4B77626  36.665  39.167   7.364
 6159POPC   NC377627  25.226  21.395   5.564
 6159POPC   PO477628  25.275  21.349   5.864
 6159POPC   GL177629  25.240  21.371   6.164
 6159POPC   GL277630  25.310  21.312   6.164
 6159POPC   C1A77631  25.307  21.375   6.464
 6159POPC   D2A77632  25.222  21.358   6.764
 6159POPC   C3A77633  25.287  21.396   7.064
 6159POPC   C4A77634  25.248  21.418   7.364
 6159POPC   C1B77635  25.330  21.134   6.464
 6159POPC   C2B77636  25.386  21.190   6.764
 6159POPC   C3B77637  25.369  21.195   7.064
 6159POPC   C4B77638  25.356  21.172   7.364
 6160POPC   NC377639  11.310  41.572   5.564
 6160POPC   PO477640  11.255  41.597   5.864
 6160POPC   GL177641  11.275  41.562   6.164
 6160POPC   GL277642  11.310  41.480   6.164
 6160POPC   C1A77643  11.328  41.541   6.464
 6160POPC   D2A77644  11.311  41.570   6.764
 6160POPC   C3A77645  11.262  41.602   7.064
 6160POPC   C4A77646  11.269  41.525   7.364
 6160POPC   C1B77647  11.187  41.271   6.464
 6160POPC   C2B77648  11.213  41.318   6.764
 6160POPC   C3B77649  11.259  41.320   7.064
 6160POPC   C4B77650  11.267  41.281   7.364
 6161POPC   NC377651  12.822  24.470   5.564
 6161POPC   PO477652  12.802  24.453   5.864
 6161POPC   GL177653  12.824  24.498   6.164
 6161POPC   GL277654  12.731  24.588   6.164
 6161POPC   C1A77655  12.802  24.467   6.464
 6161POPC   D2A77656  12.824  24.473   6.764
 6161POPC   C3A77657  12.894  24.536   7.064
 6161POPC   C4A77658  12.865  24.443   7.364
 6161POPC   C1B77659  12.622  24.615   6.464
 6161POPC   C2B77660  12.619  24.615   6.764
 6161POPC   C3B77661  12.685  24.587   7.064
 6161POPC   C4B77662  12.632  24.602   7.364
 6162POPC   NC377663  36.943   2.787   5.564
 6162POPC   PO477664  36.891   2.740   5.864
 6162POPC   GL177665  36.878   2.793   6.164
 6162POPC   GL277666  36.855   2.653   6.164
 6162POPC   C1A77667  36.919   2.749   6.464
 6162POPC   D2A77668  36.898   2.756   6.764
 6162POPC   C3A77669  36.859   2.738   7.064
 6162POPC   C4A77670  36.855   2.737   7.364
 6162POPC   C1B77671  36.784   2.509   6.464
 6162POPC   C2B77672  36.739   2.518   6.764
 6162POPC   C3B77673  36.784   2.555   7.064
 6162POPC   C4B77674  36.755   2.527   7.364
 6163POPC   NC377675  40.763  26.068   5.564
 6163POPC   PO477676  40.769  26.060   5.864
 6163POPC   GL177677  40.747  26.014   6.164
 6163POPC   GL277678  40.943  26.031   6.164
 6163POPC   C1A77679  40.748  26.033   6.464
 6163POPC   D2A77680  40.793  26.057   6.764
 6163POPC   C3A77681  40.825  26.086   7.064
 6163POPC   C4A77682  40.764  26.035   7.364
 6163POPC   C1B77683  41.006  25.931   6.464
 6163POPC   C2B77684  40.985  25.936   6.764
 6163POPC   C3B77685  40.989  25.913   7.064
 6163POPC   C4B77686  40.982  25.921   7.364
 6164POPC   NC377687  25.258   0.483   5.564
 6164POPC   PO477688  25.255   0.471   5.864
 6164POPC   GL177689  25.305   0.438   6.164
 6164POPC   GL277690  25.270   0.538   6.164
 6164POPC   C1A77691  25.231   0.484   6.464
 6164POPC   D2A77692  25.251   0.449   6.764
 6164POPC   C3A77693  25.313   0.434   7.064
 6164POPC   C4A77694  25.299   0.444   7.364
 6164POPC   C1B77695  25.300   0.648   6.464
 6164POPC   C2B77696  25.245   0.650   6.764
 6164POPC   C3B77697  25.229   0.642   7.064
 6164POPC   C4B77698  25.226   0.717   7.364
 6165POPC   NC377699  22.183  36.161   5.564
 6165POPC   PO477700  22.163  36.162   5.864
 6165POPC   GL177701  22.150  36.165   6.164
 6165POPC   GL277702  22.070  36.123   6.164
 6165POPC   C1A77703  22.142  36.162   6.464
 6165POPC   D2A77704  22.195  36.079   6.764
 6165POPC   C3A77705  22.126  36.125   7.064
 6165POPC   C4A77706  22.115  36.107   7.364
 6165POPC   C1B77707  21.953  36.178   6.464
 6165POPC   C2B77708  21.869  36.167   6.764
 6165POPC   C3B77709  21.870  36.158   7.064
 6165POPC   C4B77710  21.924  36.155   7.364
 6166POPC   NC377711  17.506  35.377   5.564
 6166POPC   PO477712  17.501  35.398   5.864
 6166POPC   GL177713  17.536  35.325   6.164
 6166POPC   GL277714  17.390  35.347   6.164
 6166POPC   C1A77715  17.458  35.361   6.464
 6166POPC   D2A77716  17.549  35.315   6.764
 6166POPC   C3A77717  17.523  35.382   7.064
 6166POPC   C4A77718  17.521  35.345   7.364
 6166POPC   C1B77719  17.303  35.358   6.464
 6166POPC   C2B77720  17.258  35.358   6.764
 6166POPC   C3B77721  17.218  35.368   7.064
 6166POPC   C4B77722  17.230  35.306   7.364
 6167POPC   NC377723  17.482  30.742   5.564
 6167POPC   PO477724  17.467  30.690   5.864
 6167POPC   GL177725  17.541  30.706   6.164
 6167POPC   GL277726  17.344  30.710   6.164
 6167POPC   C1A77727  17.507  30.707   6.464
 6167POPC   D2A77728  17.490  30.731   6.764
 6167POPC   C3A77729  17.515  30.739   7.064
 6167POPC   C4A77730  17.503  30.706   7.364
 6167POPC   C1B77731  17.247  30.702   6.464
 6167POPC   C2B77732  17.292  30.749   6.764
 6167POPC   C3B77733  17.243  30.668   7.064
 6167POPC   C4B77734  17.297  30.759   7.364
 6168POPC   NC377735  44.656  31.496   5.564
 6168POPC   PO477736  44.706  31.470   5.864
 6168POPC   GL177737  44.698  31.441   6.164
 6168POPC   GL277738  44.744  31.479   6.164
 6168POPC   C1A77739  44.660  31.467   6.464
 6168POPC   D2A77740  44.623  31.453   6.764
 6168POPC   C3A77741  44.670  31.470   7.064
 6168POPC   C4A77742  44.642  31.480   7.364
 6168POPC   C1B77743  44.932  31.430   6.464
 6168POPC   C2B77744  44.936  31.465   6.764
 6168POPC   C3B77745  44.952  31.407   7.064
 6168POPC   C4B77746  44.952  31.456   7.364
 6169POPC   NC377747   7.411  17.513   5.564
 6169POPC   PO477748   7.463  17.531   5.864
 6169POPC   GL177749   7.381  17.556   6.164
 6169POPC   GL277750   7.499  17.387   6.164
 6169POPC   C1A77751   7.383  17.478   6.464
 6169POPC   D2A77752   7.386  17.546   6.764
 6169POPC   C3A77753   7.422  17.511   7.064
 6169POPC   C4A77754   7.465  17.494   7.364
 6169POPC   C1B77755   7.486  17.299   6.464
 6169POPC   C2B77756   7.517  17.275   6.764
 6169POPC   C3B77757   7.475  17.262   7.064
 6169POPC   C4B77758   7.501  17.269   7.364
 6170POPC   NC377759  36.938  12.861   5.564
 6170POPC   PO477760  36.886  12.818   5.864
 6170POPC   GL177761  36.913  12.826   6.164
 6170POPC   GL277762  36.997  12.878   6.164
 6170POPC   C1A77763  36.867  12.851   6.464
 6170POPC   D2A77764  36.946  12.804   6.764
 6170POPC   C3A77765  36.907  12.896   7.064
 6170POPC   C4A77766  36.926  12.804   7.364
 6170POPC   C1B77767  37.133  12.844   6.464
 6170POPC   C2B77768  37.116  12.843   6.764
 6170POPC   C3B77769  37.188  12.845   7.064
 6170POPC   C4B77770  37.163  12.859   7.364
 6171POPC   NC377771   1.978  42.360   5.564
 6171POPC   PO477772   2.031  42.333   5.864
 6171POPC   GL177773   1.987  42.348   6.164
 6171POPC   GL277774   2.000  42.404   6.164
 6171POPC   C1A77775   1.959  42.368   6.464
 6171POPC   D2A77776   1.994  42.334   6.764
 6171POPC   C3A77777   1.947  42.372   7.064
 6171POPC   C4A77778   2.030  42.352   7.364
 6171POPC   C1B77779   2.120  42.551   6.464
 6171POPC   C2B77780   2.062  42.594   6.764
 6171POPC   C3B77781   2.063  42.566   7.064
 6171POPC   C4B77782   2.101  42.520   7.364
 6172POPC   NC377783   5.066  18.290   5.564
 6172POPC   PO477784   5.071  18.243   5.864
 6172POPC   GL177785   5.087  18.301   6.164
 6172POPC   GL277786   5.242  18.309   6.164
 6172POPC   C1A77787   5.059  18.285   6.464
 6172POPC   D2A77788   5.081  18.288   6.764
 6172POPC   C3A77789   5.088  18.327   7.064
 6172POPC   C4A77790   5.077  18.297   7.364
 6172POPC   C1B77791   5.378  18.378   6.464
 6172POPC   C2B77792   5.321  18.312   6.764
 6172POPC   C3B77793   5.293  18.312   7.064
 6172POPC   C4B77794   5.337  18.290   7.364
 6173POPC   NC377795  22.957  32.218   5.564
 6173POPC   PO477796  22.933  32.209   5.864
 6173POPC   GL177797  22.959  32.258   6.164
 6173POPC   GL277798  23.063  32.173   6.164
 6173POPC   C1A77799  22.896  32.211   6.464
 6173POPC   D2A77800  22.935  32.264   6.764
 6173POPC   C3A77801  22.898  32.200   7.064
 6173POPC   C4A77802  22.954  32.232   7.364
 6173POPC   C1B77803  23.114  32.084   6.464
 6173POPC   C2B77804  23.129  32.115   6.764
 6173POPC   C3B77805  23.186  32.124   7.064
 6173POPC   C4B77806  23.165  32.133   7.364
 6174POPC   NC377807  29.962  12.837   5.564
 6174POPC   PO477808  29.887  12.896   5.864
 6174POPC   GL177809  29.919  12.861   6.164
 6174POPC   GL277810  29.847  13.001   6.164
 6174POPC   C1A77811  29.911  12.874   6.464
 6174POPC   D2A77812  29.906  12.851   6.764
 6174POPC   C3A77813  29.947  12.836   7.064
 6174POPC   C4A77814  29.885  12.846   7.364
 6174POPC   C1B77815  29.860  13.061   6.464
 6174POPC   C2B77816  29.828  13.132   6.764
 6174POPC   C3B77817  29.874  13.127   7.064
 6174POPC   C4B77818  29.906  13.137   7.364
 6175POPC   NC377819  37.708  16.728   5.564
 6175POPC   PO477820  37.726  16.717   5.864
 6175POPC   GL177821  37.704  16.685   6.164
 6175POPC   GL277822  37.677  16.643   6.164
 6175POPC   C1A77823  37.643  16.702   6.464
 6175POPC   D2A77824  37.631  16.722   6.764
 6175POPC   C3A77825  37.717  16.720   7.064
 6175POPC   C4A77826  37.660  16.700   7.364
 6175POPC   C1B77827  37.571  16.512   6.464
 6175POPC   C2B77828  37.634  16.515   6.764
 6175POPC   C3B77829  37.581  16.479   7.064
 6175POPC   C4B77830  37.569  16.526   7.364
 6176POPC   NC377831  26.052  13.660   5.564
 6176POPC   PO477832  26.059  13.647   5.864
 6176POPC   GL177833  26.064  13.676   6.164
 6176POPC   GL277834  26.158  13.768   6.164
 6176POPC   C1A77835  26.077  13.624   6.464
 6176POPC   D2A77836  26.091  13.672   6.764
 6176POPC   C3A77837  26.027  13.635   7.064
 6176POPC   C4A77838  26.012  13.630   7.364
 6176POPC   C1B77839  26.183  13.840   6.464
 6176POPC   C2B77840  26.214  13.814   6.764
 6176POPC   C3B77841  26.207  13.820   7.064
 6176POPC   C4B77842  26.257  13.795   7.364
 6177POPC   NC377843  27.599  13.611   5.564
 6177POPC   PO477844  27.544  13.606   5.864
 6177POPC   GL177845  27.574  13.632   6.164
 6177POPC   GL277846  27.545  13.757   6.164
 6177POPC   C1A77847  27.548  13.603   6.464
 6177POPC   D2A77848  27.610  13.636   6.764
 6177POPC   C3A77849  27.600  13.622   7.064
 6177POPC   C4A77850  27.577  13.626   7.364
 6177POPC   C1B77851  27.515  13.822   6.464
 6177POPC   C2B77852  27.518  13.838   6.764
 6177POPC   C3B77853  27.494  13.812   7.064
 6177POPC   C4B77854  27.510  13.832   7.364
 6178POPC   NC377855  15.961  11.259   5.564
 6178POPC   PO477856  16.000  11.259   5.864
 6178POPC   GL177857  15.935  11.257   6.164
 6178POPC   GL277858  15.925  11.383   6.164
 6178POPC   C1A77859  15.951  11.325   6.464
 6178POPC   D2A77860  15.984  11.289   6.764
 6178POPC   C3A77861  15.996  11.302   7.064
 6178POPC   C4A77862  15.940  11.304   7.364
 6178POPC   C1B77863  15.969  11.560   6.464
 6178POPC   C2B77864  15.944  11.575   6.764
 6178POPC   C3B77865  16.009  11.517   7.064
 6178POPC   C4B77866  15.943  11.521   7.364
 6179POPC   NC377867  12.878   1.167   5.564
 6179POPC   PO477868  12.860   1.174   5.864
 6179POPC   GL177869  12.816   1.199   6.164
 6179POPC   GL277870  12.746   1.218   6.164
 6179POPC   C1A77871  12.876   1.216   6.464
 6179POPC   D2A77872  12.827   1.219   6.764
 6179POPC   C3A77873  12.901   1.222   7.064
 6179POPC   C4A77874  12.844   1.171   7.364
 6179POPC   C1B77875  12.579   1.261   6.464
 6179POPC   C2B77876  12.632   1.268   6.764
 6179POPC   C3B77877  12.608   1.225   7.064
 6179POPC   C4B77878  12.646   1.229   7.364
 6180POPC   NC377879  38.449   5.120   5.564
 6180POPC   PO477880  38.439   5.050   5.864
 6180POPC   GL177881  38.502   5.081   6.164
 6180POPC   GL277882  38.433   5.231   6.164
 6180POPC   C1A77883  38.432   5.045   6.464
 6180POPC   D2A77884  38.490   5.092   6.764
 6180POPC   C3A77885  38.465   5.085   7.064
 6180POPC   C4A77886  38.452   5.044   7.364
 6180POPC   C1B77887  38.470   5.379   6.464
 6180POPC   C2B77888  38.488   5.345   6.764
 6180POPC   C3B77889  38.459   5.323   7.064
 6180POPC   C4B77890  38.449   5.339   7.364
 6181POPC   NC377891  36.887   4.305   5.564
 6181POPC   PO477892  36.907   4.278   5.864
 6181POPC   GL177893  36.873   4.352   6.164
 6181POPC   GL277894  37.006   4.396   6.164
 6181POPC   C1A77895  36.941   4.297   6.464
 6181POPC   D2A77896  36.880   4.313   6.764
 6181POPC   C3A77897  36.864   4.279   7.064
 6181POPC   C4A77898  36.953   4.280   7.364
 6181POPC   C1B77899  37.062   4.485   6.464
 6181POPC   C2B77900  36.999   4.528   6.764
 6181POPC   C3B77901  37.007   4.529   7.064
 6181POPC   C4B77902  36.999   4.536   7.364
 6182POPC   NC377903   2.786  37.709   5.564
 6182POPC   PO477904   2.718  37.729   5.864
 6182POPC   GL177905   2.727  37.707   6.164
 6182POPC   GL277906   2.758  37.761   6.164
 6182POPC   C1A77907   2.810  37.667   6.464
 6182POPC   D2A77908   2.756  37.643   6.764
 6182POPC   C3A77909   2.791  37.666   7.064
 6182POPC   C4A77910   2.758  37.711   7.364
 6182POPC   C1B77911   2.723  37.905   6.464
 6182POPC   C2B77912   2.735  37.912   6.764
 6182POPC   C3B77913   2.770  37.915   7.064
 6182POPC   C4B77914   2.803  37.942   7.364
 6183POPC   NC377915  26.075   2.728   5.564
 6183POPC   PO477916  26.090   2.815   5.864
 6183POPC   GL177917  26.050   2.774   6.164
 6183POPC   GL277918  26.083   2.614   6.164
 6183POPC   C1A77919  26.012   2.791   6.464
 6183POPC   D2A77920  26.013   2.760   6.764
 6183POPC   C3A77921  26.064   2.810   7.064
 6183POPC   C4A77922  26.068   2.814   7.364
 6183POPC   C1B77923  26.078   2.544   6.464
 6183POPC   C2B77924  26.122   2.528   6.764
 6183POPC   C3B77925  26.167   2.564   7.064
 6183POPC   C4B77926  26.092   2.518   7.364
 6184POPC   NC377927  11.255   7.440   5.564
 6184POPC   PO477928  11.274   7.433   5.864
 6184POPC   GL177929  11.342   7.420   6.164
 6184POPC   GL277930  11.230   7.311   6.164
 6184POPC   C1A77931  11.301   7.375   6.464
 6184POPC   D2A77932  11.311   7.407   6.764
 6184POPC   C3A77933  11.306   7.450   7.064
 6184POPC   C4A77934  11.283   7.428   7.364
 6184POPC   C1B77935  11.235   7.192   6.464
 6184POPC   C2B77936  11.149   7.163   6.764
 6184POPC   C3B77937  11.195   7.237   7.064
 6184POPC   C4B77938  11.236   7.170   7.364
 6185POPC   NC377939  13.652   5.061   5.564
 6185POPC   PO477940  13.646   5.121   5.864
 6185POPC   GL177941  13.619   5.085   6.164
 6185POPC   GL277942  13.492   5.162   6.164
 6185POPC   C1A77943  13.647   5.075   6.464
 6185POPC   D2A77944  13.677   5.121   6.764
 6185POPC   C3A77945  13.640   5.115   7.064
 6185POPC   C4A77946  13.633   5.126   7.364
 6185POPC   C1B77947  13.366   5.174   6.464
 6185POPC   C2B77948  13.400   5.198   6.764
 6185POPC   C3B77949  13.428   5.153   7.064
 6185POPC   C4B77950  13.403   5.208   7.364
 6186POPC   NC377951  32.214  29.958   5.564
 6186POPC   PO477952  32.232  29.920   5.864
 6186POPC   GL177953  32.239  29.970   6.164
 6186POPC   GL277954  32.209  29.841   6.164
 6186POPC   C1A77955  32.249  29.894   6.464
 6186POPC   D2A77956  32.278  29.891   6.764
 6186POPC   C3A77957  32.271  29.910   7.064
 6186POPC   C4A77958  32.207  29.961   7.364
 6186POPC   C1B77959  32.082  29.714   6.464
 6186POPC   C2B77960  32.037  29.785   6.764
 6186POPC   C3B77961  32.049  29.771   7.064
 6186POPC   C4B77962  32.066  29.776   7.364
 6187POPC   NC377963  28.346  36.868   5.564
 6187POPC   PO477964  28.370  36.880   5.864
 6187POPC   GL177965  28.341  36.917   6.164
 6187POPC   GL277966  28.260  36.944   6.164
 6187POPC   C1A77967  28.397  36.901   6.464
 6187POPC   D2A77968  28.415  36.925   6.764
 6187POPC   C3A77969  28.368  36.878   7.064
 6187POPC   C4A77970  28.389  36.858   7.364
 6187POPC   C1B77971  28.179  37.017   6.464
 6187POPC   C2B77972  28.105  36.937   6.764
 6187POPC   C3B77973  28.141  36.956   7.064
 6187POPC   C4B77974  28.168  37.009   7.364
 6188POPC   NC377975  32.223  33.815   5.564
 6188POPC   PO477976  32.286  33.793   5.864
 6188POPC   GL177977  32.279  33.771   6.164
 6188POPC   GL277978  32.153  33.779   6.164
 6188POPC   C1A77979  32.242  33.764   6.464
 6188POPC   D2A77980  32.246  33.825   6.764
 6188POPC   C3A77981  32.261  33.760   7.064
 6188POPC   C4A77982  32.209  33.833   7.364
 6188POPC   C1B77983  31.951  33.798   6.464
 6188POPC   C2B77984  31.981  33.789   6.764
 6188POPC   C3B77985  31.998  33.772   7.064
 6188POPC   C4B77986  31.961  33.815   7.364
 6189POPC   NC377987  13.596  11.327   5.564
 6189POPC   PO477988  13.594  11.306   5.864
 6189POPC   GL177989  13.592  11.267   6.164
 6189POPC   GL277990  13.551  11.310   6.164
 6189POPC   C1A77991  13.587  11.350   6.464
 6189POPC   D2A77992  13.670  11.314   6.764
 6189POPC   C3A77993  13.607  11.300   7.064
 6189POPC   C4A77994  13.666  11.349   7.364
 6189POPC   C1B77995  13.366  11.197   6.464
 6189POPC   C2B77996  13.433  11.192   6.764
 6189POPC   C3B77997  13.378  11.227   7.064
 6189POPC   C4B77998  13.357  11.229   7.364
 6190POPC   NC377999  32.229  40.032   5.564
 6190POPC   PO478000  32.292  40.016   5.864
 6190POPC   GL178001  32.253  39.993   6.164
 6190POPC   GL278002  32.210  39.842   6.164
 6190POPC   C1A78003  32.288  39.982   6.464
 6190POPC   D2A78004  32.234  39.961   6.764
 6190POPC   C3A78005  32.206  40.003   7.064
 6190POPC   C4A78006  32.233  40.043   7.364
 6190POPC   C1B78007  32.195  39.814   6.464
 6190POPC   C2B78008  32.150  39.794   6.764
 6190POPC   C3B78009  32.208  39.749   7.064
 6190POPC   C4B78010  32.158  39.793   7.364
 6191POPC   NC378011  32.298   0.456   5.564
 6191POPC   PO478012  32.208   0.456   5.864
 6191POPC   GL178013  32.238   0.486   6.164
 6191POPC   GL278014  32.262   0.301   6.164
 6191POPC   C1A78015  32.271   0.482   6.464
 6191POPC   D2A78016  32.244   0.468   6.764
 6191POPC   C3A78017  32.213   0.444   7.064
 6191POPC   C4A78018  32.209   0.468   7.364
 6191POPC   C1B78019  32.304   0.233   6.464
 6191POPC   C2B78020  32.323   0.171   6.764
 6191POPC   C3B78021  32.331   0.191   7.064
 6191POPC   C4B78022  32.327   0.244   7.364
 6192POPC   NC378023   4.304  43.857   5.564
 6192POPC   PO478024   4.277  43.877   5.864
 6192POPC   GL178025   4.350  43.843   6.164
 6192POPC   GL278026   4.181  43.876   6.164
 6192POPC   C1A78027   4.296  43.885   6.464
 6192POPC   D2A78028   4.351  43.891   6.764
 6192POPC   C3A78029   4.279  43.927   7.064
 6192POPC   C4A78030   4.326  43.933   7.364
 6192POPC   C1B78031   4.097  43.847   6.464
 6192POPC   C2B78032   4.051  43.870   6.764
 6192POPC   C3B78033   4.114  43.841   7.064
 6192POPC   C4B78034   4.058  43.821   7.364
 6193POPC   NC378035   3.563  12.831   5.564
 6193POPC   PO478036   3.567  12.812   5.864
 6193POPC   GL178037   3.557  12.877   6.164
 6193POPC   GL278038   3.663  12.845   6.164
 6193POPC   C1A78039   3.523  12.861   6.464
 6193POPC   D2A78040   3.555  12.889   6.764
 6193POPC   C3A78041   3.569  12.901   7.064
 6193POPC   C4A78042   3.587  12.873   7.364
 6193POPC   C1B78043   3.813  12.736   6.464
 6193POPC   C2B78044   3.800  12.752   6.764
 6193POPC   C3B78045   3.758  12.814   7.064
 6193POPC   C4B78046   3.751  12.792   7.364
 6194POPC   NC378047  20.613  34.560   5.564
 6194POPC   PO478048  20.574  34.595   5.864
 6194POPC   GL178049  20.585  34.553   6.164
 6194POPC   GL278050  20.665  34.440   6.164
 6194POPC   C1A78051  20.637  34.531   6.464
 6194POPC   D2A78052  20.576  34.606   6.764
 6194POPC   C3A78053  20.622  34.618   7.064
 6194POPC   C4A78054  20.649  34.551   7.364
 6194POPC   C1B78055  20.683  34.333   6.464
 6194POPC   C2B78056  20.690  34.372   6.764
 6194POPC   C3B78057  20.687  34.307   7.064
 6194POPC   C4B78058  20.658  34.323   7.364
 6195POPC   NC378059  19.103   0.464   5.564
 6195POPC   PO478060  19.047   0.453   5.864
 6195POPC   GL178061  19.065   0.432   6.164
 6195POPC   GL278062  19.032   0.331   6.164
 6195POPC   C1A78063  19.044   0.388   6.464
 6195POPC   D2A78064  19.012   0.434   6.764
 6195POPC   C3A78065  19.096   0.424   7.064
 6195POPC   C4A78066  19.094   0.445   7.364
 6195POPC   C1B78067  19.108   0.220   6.464
 6195POPC   C2B78068  19.056   0.181   6.764
 6195POPC   C3B78069  19.072   0.187   7.064
 6195POPC   C4B78070  19.037   0.227   7.364
 6196POPC   NC378071  29.150  12.855   5.564
 6196POPC   PO478072  29.113  12.854   5.864
 6196POPC   GL178073  29.118  12.834   6.164
 6196POPC   GL278074  29.229  12.725   6.164
 6196POPC   C1A78075  29.171  12.899   6.464
 6196POPC   D2A78076  29.134  12.802   6.764
 6196POPC   C3A78077  29.187  12.850   7.064
 6196POPC   C4A78078  29.146  12.844   7.364
 6196POPC   C1B78079  29.274  12.670   6.464
 6196POPC   C2B78080  29.275  12.706   6.764
 6196POPC   C3B78081  29.276  12.682   7.064
 6196POPC   C4B78082  29.285  12.686   7.364
 6197POPC   NC378083  38.449  16.694   5.564
 6197POPC   PO478084  38.433  16.770   5.864
 6197POPC   GL178085  38.445  16.704   6.164
 6197POPC   GL278086  38.400  16.616   6.164
 6197POPC   C1A78087  38.430  16.752   6.464
 6197POPC   D2A78088  38.491  16.780   6.764
 6197POPC   C3A78089  38.486  16.765   7.064
 6197POPC   C4A78090  38.468  16.761   7.364
 6197POPC   C1B78091  38.243  16.596   6.464
 6197POPC   C2B78092  38.212  16.616   6.764
 6197POPC   C3B78093  38.243  16.556   7.064
 6197POPC   C4B78094  38.227  16.556   7.364
 6198POPC   NC378095   9.012  27.603   5.564
 6198POPC   PO478096   8.925  27.608   5.864
 6198POPC   GL178097   8.989  27.613   6.164
 6198POPC   GL278098   8.973  27.459   6.164
 6198POPC   C1A78099   8.940  27.599   6.464
 6198POPC   D2A78100   8.977  27.638   6.764
 6198POPC   C3A78101   8.984  27.581   7.064
 6198POPC   C4A78102   8.973  27.633   7.364
 6198POPC   C1B78103   9.030  27.314   6.464
 6198POPC   C2B78104   9.029  27.375   6.764
 6198POPC   C3B78105   9.055  27.391   7.064
 6198POPC   C4B78106   9.108  27.401   7.364
 6199POPC   NC378107  39.992  17.479   5.564
 6199POPC   PO478108  40.014  17.485   5.864
 6199POPC   GL178109  39.977  17.521   6.164
 6199POPC   GL278110  39.904  17.524   6.164
 6199POPC   C1A78111  39.964  17.462   6.464
 6199POPC   D2A78112  40.046  17.535   6.764
 6199POPC   C3A78113  40.033  17.483   7.064
 6199POPC   C4A78114  40.010  17.507   7.364
 6199POPC   C1B78115  39.764  17.536   6.464
 6199POPC   C2B78116  39.801  17.567   6.764
 6199POPC   C3B78117  39.807  17.498   7.064
 6199POPC   C4B78118  39.793  17.534   7.364
 6200POPC   NC378119  15.211  36.898   5.564
 6200POPC   PO478120  15.221  36.900   5.864
 6200POPC   GL178121  15.177  36.927   6.164
 6200POPC   GL278122  15.127  37.006   6.164
 6200POPC   C1A78123  15.183  36.859   6.464
 6200POPC   D2A78124  15.130  36.857   6.764
 6200POPC   C3A78125  15.198  36.945   7.064
 6200POPC   C4A78126  15.166  36.908   7.364
 6200POPC   C1B78127  14.957  37.072   6.464
 6200POPC   C2B78128  15.017  37.095   6.764
 6200POPC   C3B78129  15.013  37.049   7.064
 6200POPC   C4B78130  14.981  37.106   7.364
 6201POPC   NC378131  12.059  19.802   5.564
 6201POPC   PO478132  12.086  19.804   5.864
 6201POPC   GL178133  12.106  19.865   6.164
 6201POPC   GL278134  12.084  19.937   6.164
 6201POPC   C1A78135  12.082  19.830   6.464
 6201POPC   D2A78136  12.093  19.838   6.764
 6201POPC   C3A78137  12.036  19.864   7.064
 6201POPC   C4A78138  12.040  19.858   7.364
 6201POPC   C1B78139  12.100  20.072   6.464
 6201POPC   C2B78140  12.126  20.104   6.764
 6201POPC   C3B78141  12.093  20.035   7.064
 6201POPC   C4B78142  12.095  20.033   7.364
 6202POPC   NC378143   7.411  36.106   5.564
 6202POPC   PO478144   7.407  36.093   5.864
 6202POPC   GL178145   7.457  36.139   6.164
 6202POPC   GL278146   7.441  36.221   6.164
 6202POPC   C1A78147   7.449  36.149   6.464
 6202POPC   D2A78148   7.443  36.086   6.764
 6202POPC   C3A78149   7.434  36.080   7.064
 6202POPC   C4A78150   7.427  36.102   7.364
 6202POPC   C1B78151   7.366  36.332   6.464
 6202POPC   C2B78152   7.427  36.364   6.764
 6202POPC   C3B78153   7.399  36.345   7.064
 6202POPC   C4B78154   7.384  36.403   7.364
 6203POPC   NC378155  37.705  18.236   5.564
 6203POPC   PO478156  37.691  18.245   5.864
 6203POPC   GL178157  37.729  18.276   6.164
 6203POPC   GL278158  37.700  18.141   6.164
 6203POPC   C1A78159  37.726  18.288   6.464
 6203POPC   D2A78160  37.647  18.294   6.764
 6203POPC   C3A78161  37.720  18.315   7.064
 6203POPC   C4A78162  37.660  18.275   7.364
 6203POPC   C1B78163  37.805  18.082   6.464
 6203POPC   C2B78164  37.829  18.087   6.764
 6203POPC   C3B78165  37.756  18.068   7.064
 6203POPC   C4B78166  37.831  18.030   7.364
 6204POPC   NC378167   0.451  27.574   5.564
 6204POPC   PO478168   0.482  27.632   5.864
 6204POPC   GL178169   0.416  27.578   6.164
 6204POPC   GL278170   0.531  27.706   6.164
 6204POPC   C1A78171   0.431  27.543   6.464
 6204POPC   D2A78172   0.397  27.572   6.764
 6204POPC   C3A78173   0.469  27.609   7.064
 6204POPC   C4A78174   0.389  27.597   7.364
 6204POPC   C1B78175   0.620  27.673   6.464
 6204POPC   C2B78176   0.605  27.719   6.764
 6204POPC   C3B78177   0.697  27.754   7.064
 6204POPC   C4B78178   0.644  27.677   7.364
 6205POPC   NC378179  10.514  15.980   5.564
 6205POPC   PO478180  10.482  15.906   5.864
 6205POPC   GL178181  10.549  15.981   6.164
 6205POPC   GL278182  10.458  15.857   6.164
 6205POPC   C1A78183  10.534  15.960   6.464
 6205POPC   D2A78184  10.501  15.915   6.764
 6205POPC   C3A78185  10.498  16.003   7.064
 6205POPC   C4A78186  10.477  15.990   7.364
 6205POPC   C1B78187  10.467  15.663   6.464
 6205POPC   C2B78188  10.459  15.719   6.764
 6205POPC   C3B78189  10.510  15.687   7.064
 6205POPC   C4B78190  10.501  15.749   7.364
 6206POPC   NC378191  14.392  22.890   5.564
 6206POPC   PO478192  14.416  22.961   5.864
 6206POPC   GL178193  14.373  22.963   6.164
 6206POPC   GL278194  14.497  23.051   6.164
 6206POPC   C1A78195  14.367  22.987   6.464
 6206POPC   D2A78196  14.409  22.945   6.764
 6206POPC   C3A78197  14.355  22.898   7.064
 6206POPC   C4A78198  14.415  22.902   7.364
 6206POPC   C1B78199  14.605  23.072   6.464
 6206POPC   C2B78200  14.567  23.152   6.764
 6206POPC   C3B78201  14.579  23.107   7.064
 6206POPC   C4B78202  14.613  23.152   7.364
 6207POPC   NC378203  43.867  38.435   5.564
 6207POPC   PO478204  43.901  38.488   5.864
 6207POPC   GL178205  43.839  38.431   6.164
 6207POPC   GL278206  43.947  38.545   6.164
 6207POPC   C1A78207  43.914  38.423   6.464
 6207POPC   D2A78208  43.911  38.445   6.764
 6207POPC   C3A78209  43.914  38.488   7.064
 6207POPC   C4A78210  43.837  38.505   7.364
 6207POPC   C1B78211  44.073  38.592   6.464
 6207POPC   C2B78212  44.039  38.569   6.764
 6207POPC   C3B78213  44.053  38.591   7.064
 6207POPC   C4B78214  44.092  38.602   7.364
 6208POPC   NC378215   5.140  41.595   5.564
 6208POPC   PO478216   5.059  41.578   5.864
 6208POPC   GL178217   5.082  41.522   6.164
 6208POPC   GL278218   5.033  41.498   6.164
 6208POPC   C1A78219   5.051  41.599   6.464
 6208POPC   D2A78220   5.091  41.521   6.764
 6208POPC   C3A78221   5.097  41.590   7.064
 6208POPC   C4A78222   5.095  41.586   7.364
 6208POPC   C1B78223   4.945  41.437   6.464
 6208POPC   C2B78224   4.864  41.407   6.764
 6208POPC   C3B78225   4.868  41.385   7.064
 6208POPC   C4B78226   4.941  41.384   7.364
 6209POPC   NC378227  11.312  20.571   5.564
 6209POPC   PO478228  11.304  20.584   5.864
 6209POPC   GL178229  11.349  20.618   6.164
 6209POPC   GL278230  11.274  20.439   6.164
 6209POPC   C1A78231  11.296  20.604   6.464
 6209POPC   D2A78232  11.295  20.625   6.764
 6209POPC   C3A78233  11.274  20.656   7.064
 6209POPC   C4A78234  11.348  20.576   7.364
 6209POPC   C1B78235  11.302  20.362   6.464
 6209POPC   C2B78236  11.336  20.315   6.764
 6209POPC   C3B78237  11.338  20.406   7.064
 6209POPC   C4B78238  11.307  20.403   7.364
 6210POPC   NC378239  38.463  28.391   5.564
 6210POPC   PO478240  38.465  28.323   5.864
 6210POPC   GL178241  38.463  28.323   6.164
 6210POPC   GL278242  38.345  28.288   6.164
 6210POPC   C1A78243  38.437  28.376   6.464
 6210POPC   D2A78244  38.446  28.341   6.764
 6210POPC   C3A78245  38.453  28.367   7.064
 6210POPC   C4A78246  38.487  28.386   7.364
 6210POPC   C1B78247  38.233  28.233   6.464
 6210POPC   C2B78248  38.206  28.294   6.764
 6210POPC   C3B78249  38.255  28.309   7.064
 6210POPC   C4B78250  38.219  28.285   7.364
 6211POPC   NC378251  24.470  14.421   5.564
 6211POPC   PO478252  24.476  14.412   5.864
 6211POPC   GL178253  24.446  14.443   6.164
 6211POPC   GL278254  24.356  14.392   6.164
 6211POPC   C1A78255  24.471  14.448   6.464
 6211POPC   D2A78256  24.474  14.356   6.764
 6211POPC   C3A78257  24.472  14.425   7.064
 6211POPC   C4A78258  24.495  14.396   7.364
 6211POPC   C1B78259  24.198  14.499   6.464
 6211POPC   C2B78260  24.293  14.456   6.764
 6211POPC   C3B78261  24.200  14.480   7.064
 6211POPC   C4B78262  24.223  14.453   7.364
 6212POPC   NC378263  15.167  42.378   5.564
 6212POPC   PO478264  15.213  42.299   5.864
 6212POPC   GL178265  15.158  42.354   6.164
 6212POPC   GL278266  15.336  42.261   6.164
 6212POPC   C1A78267  15.166  42.304   6.464
 6212POPC   D2A78268  15.216  42.359   6.764
 6212POPC   C3A78269  15.186  42.299   7.064
 6212POPC   C4A78270  15.201  42.355   7.364
 6212POPC   C1B78271  15.407  42.187   6.464
 6212POPC   C2B78272  15.447  42.186   6.764
 6212POPC   C3B78273  15.412  42.169   7.064
 6212POPC   C4B78274  15.378  42.226   7.364
 6213POPC   NC378275  41.570  28.375   5.564
 6213POPC   PO478276  41.563  28.389   5.864
 6213POPC   GL178277  41.520  28.398   6.164
 6213POPC   GL278278  41.496  28.285   6.164
 6213POPC   C1A78279  41.577  28.327   6.464
 6213POPC   D2A78280  41.573  28.325   6.764
 6213POPC   C3A78281  41.551  28.384   7.064
 6213POPC   C4A78282  41.574  28.322   7.364
 6213POPC   C1B78283  41.438  28.187   6.464
 6213POPC   C2B78284  41.426  28.152   6.764
 6213POPC   C3B78285  41.462  28.137   7.064
 6213POPC   C4B78286  41.460  28.104   7.364
 6214POPC   NC378287  15.197   0.439   5.564
 6214POPC   PO478288  15.218   0.394   5.864
 6214POPC   GL178289  15.189   0.465   6.164
 6214POPC   GL278290  15.082   0.360   6.164
 6214POPC   C1A78291  15.164   0.448   6.464
 6214POPC   D2A78292  15.155   0.397   6.764
 6214POPC   C3A78293  15.206   0.395   7.064
 6214POPC   C4A78294  15.155   0.484   7.364
 6214POPC   C1B78295  15.028   0.240   6.464
 6214POPC   C2B78296  15.115   0.218   6.764
 6214POPC   C3B78297  15.085   0.232   7.064
 6214POPC   C4B78298  15.087   0.187   7.364
 6215POPC   NC378299  26.811  33.058   5.564
 6215POPC   PO478300  26.809  33.023   5.864
 6215POPC   GL178301  26.792  33.054   6.164
 6215POPC   GL278302  26.854  33.117   6.164
 6215POPC   C1A78303  26.793  33.001   6.464
 6215POPC   D2A78304  26.831  33.061   6.764
 6215POPC   C3A78305  26.843  33.025   7.064
 6215POPC   C4A78306  26.854  32.982   7.364
 6215POPC   C1B78307  27.009  33.256   6.464
 6215POPC   C2B78308  26.942  33.254   6.764
 6215POPC   C3B78309  26.932  33.216   7.064
 6215POPC   C4B78310  26.988  33.276   7.364
 6216POPC   NC378311   3.502  31.486   5.564
 6216POPC   PO478312   3.572  31.481   5.864
 6216POPC   GL178313   3.548  31.433   6.164
 6216POPC   GL278314   3.386  31.488   6.164
 6216POPC   C1A78315   3.549  31.439   6.464
 6216POPC   D2A78316   3.499  31.423   6.764
 6216POPC   C3A78317   3.581  31.430   7.064
 6216POPC   C4A78318   3.559  31.493   7.364
 6216POPC   C1B78319   3.274  31.546   6.464
 6216POPC   C2B78320   3.322  31.592   6.764
 6216POPC   C3B78321   3.343  31.515   7.064
 6216POPC   C4B78322   3.336  31.574   7.364
 6217POPC   NC378323  33.046  37.684   5.564
 6217POPC   PO478324  33.041  37.691   5.864
 6217POPC   GL178325  32.985  37.666   6.164
 6217POPC   GL278326  33.133  37.612   6.164
 6217POPC   C1A78327  33.048  37.644   6.464
 6217POPC   D2A78328  32.982  37.677   6.764
 6217POPC   C3A78329  33.009  37.689   7.064
 6217POPC   C4A78330  32.982  37.698   7.364
 6217POPC   C1B78331  33.213  37.555   6.464
 6217POPC   C2B78332  33.209  37.576   6.764
 6217POPC   C3B78333  33.254  37.505   7.064
 6217POPC   C4B78334  33.198  37.504   7.364
 6218POPC   NC378335   1.989   5.090   5.564
 6218POPC   PO478336   2.019   5.084   5.864
 6218POPC   GL178337   1.989   5.120   6.164
 6218POPC   GL278338   1.819   5.118   6.164
 6218POPC   C1A78339   2.026   5.078   6.464
 6218POPC   D2A78340   1.990   5.098   6.764
 6218POPC   C3A78341   2.000   5.078   7.064
 6218POPC   C4A78342   1.940   5.092   7.364
 6218POPC   C1B78343   1.729   5.029   6.464
 6218POPC   C2B78344   1.705   5.016   6.764
 6218POPC   C3B78345   1.715   5.028   7.064
 6218POPC   C4B78346   1.695   5.093   7.364
 6219POPC   NC378347  38.446  43.874   5.564
 6219POPC   PO478348  38.467  43.927   5.864
 6219POPC   GL178349  38.413  43.880   6.164
 6219POPC   GL278350  38.476  43.803   6.164
 6219POPC   C1A78351  38.456  43.898   6.464
 6219POPC   D2A78352  38.480  43.864   6.764
 6219POPC   C3A78353  38.442  43.912   7.064
 6219POPC   C4A78354  38.494  43.915   7.364
 6219POPC   C1B78355  38.633  43.687   6.464
 6219POPC   C2B78356  38.599  43.655   6.764
 6219POPC   C3B78357  38.590  43.659   7.064
 6219POPC   C4B78358  38.552  43.642   7.364
 6220POPC   NC378359   8.232  13.663   5.564
 6220POPC   PO478360   8.190  13.591   5.864
 6220POPC   GL178361   8.173  13.647   6.164
 6220POPC   GL278362   8.249  13.723   6.164
 6220POPC   C1A78363   8.198  13.649   6.464
 6220POPC   D2A78364   8.172  13.664   6.764
 6220POPC   C3A78365   8.245  13.609   7.064
 6220POPC   C4A78366   8.195  13.646   7.364
 6220POPC   C1B78367   8.269  13.864   6.464
 6220POPC   C2B78368   8.179  13.920   6.764
 6220POPC   C3B78369   8.248  13.843   7.064
 6220POPC   C4B78370   8.187  13.839   7.364
 6221POPC   NC378371  39.269  22.113   5.564
 6221POPC   PO478372  39.188  22.205   5.864
 6221POPC   GL178373  39.241  22.125   6.164
 6221POPC   GL278374  39.307  22.042   6.164
 6221POPC   C1A78375  39.236  22.162   6.464
 6221POPC   D2A78376  39.212  22.197   6.764
 6221POPC   C3A78377  39.248  22.183   7.064
 6221POPC   C4A78378  39.228  22.162   7.364
 6221POPC   C1B78379  39.389  21.926   6.464
 6221POPC   C2B78380  39.355  21.986   6.764
 6221POPC   C3B78381  39.384  22.000   7.064
 6221POPC   C4B78382  39.374  22.005   7.364
 6222POPC   NC378383  40.738  37.692   5.564
 6222POPC   PO478384  40.739  37.664   5.864
 6222POPC   GL178385  40.805  37.714   6.164
 6222POPC   GL278386  40.851  37.820   6.164
 6222POPC   C1A78387  40.793  37.694   6.464
 6222POPC   D2A78388  40.798  37.678   6.764
 6222POPC   C3A78389  40.792  37.681   7.064
 6222POPC   C4A78390  40.779  37.636   7.364
 6222POPC   C1B78391  40.869  37.903   6.464
 6222POPC   C2B78392  40.854  37.871   6.764
 6222POPC   C3B78393  40.883  37.906   7.064
 6222POPC   C4B78394  40.905  37.960   7.364
 6223POPC   NC378395   5.059  39.994   5.564
 6223POPC   PO478396   5.143  39.964   5.864
 6223POPC   GL178397   5.128  39.975   6.164
 6223POPC   GL278398   4.979  39.886   6.164
 6223POPC   C1A78399   5.092  40.042   6.464
 6223POPC   D2A78400   5.101  39.962   6.764
 6223POPC   C3A78401   5.132  40.040   7.064
 6223POPC   C4A78402   5.143  39.967   7.364
 6223POPC   C1B78403   4.886  39.860   6.464
 6223POPC   C2B78404   4.932  39.882   6.764
 6223POPC   C3B78405   4.941  39.805   7.064
 6223POPC   C4B78406   4.928  39.804   7.364
 6224POPC   NC378407  12.065  13.618   5.564
 6224POPC   PO478408  12.113  13.634   5.864
 6224POPC   GL178409  12.118  13.579   6.164
 6224POPC   GL278410  11.988  13.656   6.164
 6224POPC   C1A78411  12.098  13.595   6.464
 6224POPC   D2A78412  12.042  13.583   6.764
 6224POPC   C3A78413  12.044  13.583   7.064
 6224POPC   C4A78414  12.081  13.603   7.364
 6224POPC   C1B78415  11.833  13.567   6.464
 6224POPC   C2B78416  11.782  13.568   6.764
 6224POPC   C3B78417  11.862  13.595   7.064
 6224POPC   C4B78418  11.849  13.575   7.364
 6225POPC   NC378419  22.897  14.449   5.564
 6225POPC   PO478420  22.945  14.433   5.864
 6225POPC   GL178421  22.918  14.376   6.164
 6225POPC   GL278422  22.788  14.366   6.164
 6225POPC   C1A78423  22.940  14.414   6.464
 6225POPC   D2A78424  22.934  14.405   6.764
 6225POPC   C3A78425  22.935  14.453   7.064
 6225POPC   C4A78426  22.982  14.358   7.364
 6225POPC   C1B78427  22.710  14.296   6.464
 6225POPC   C2B78428  22.697  14.281   6.764
 6225POPC   C3B78429  22.704  14.246   7.064
 6225POPC   C4B78430  22.698  14.317   7.364
 6226POPC   NC378431   5.860  31.488   5.564
 6226POPC   PO478432   5.864  31.467   5.864
 6226POPC   GL178433   5.864  31.516   6.164
 6226POPC   GL278434   5.736  31.552   6.164
 6226POPC   C1A78435   5.840  31.498   6.464
 6226POPC   D2A78436   5.854  31.455   6.764
 6226POPC   C3A78437   5.878  31.478   7.064
 6226POPC   C4A78438   5.870  31.510   7.364
 6226POPC   C1B78439   5.672  31.604   6.464
 6226POPC   C2B78440   5.716  31.646   6.764
 6226POPC   C3B78441   5.687  31.602   7.064
 6226POPC   C4B78442   5.731  31.629   7.364
 6227POPC   NC378443  24.538  44.710   5.564
 6227POPC   PO478444  24.494  44.618   5.864
 6227POPC   GL178445  24.530  44.709   6.164
 6227POPC   GL278446  24.541  44.735   6.164
 6227POPC   C1A78447  24.464  44.687   6.464
 6227POPC   D2A78448  24.465  44.628   6.764
 6227POPC   C3A78449  24.448  44.692   7.064
 6227POPC   C4A78450  24.477  44.642   7.364
 6227POPC   C1B78451  24.533  44.880   6.464
 6227POPC   C2B78452  24.547  44.900   6.764
 6227POPC   C3B78453  24.561  44.902   7.064
 6227POPC   C4B78454  24.559  44.867   7.364
 6228POPC   NC378455  14.385  40.781   5.564
 6228POPC   PO478456  14.437  40.801   5.864
 6228POPC   GL178457  14.371  40.750   6.164
 6228POPC   GL278458  14.338  40.891   6.164
 6228POPC   C1A78459  14.421  40.821   6.464
 6228POPC   D2A78460  14.363  40.738   6.764
 6228POPC   C3A78461  14.376  40.742   7.064
 6228POPC   C4A78462  14.441  40.810   7.364
 6228POPC   C1B78463  14.284  40.933   6.464
 6228POPC   C2B78464  14.262  40.976   6.764
 6228POPC   C3B78465  14.231  40.989   7.064
 6228POPC   C4B78466  14.242  40.959   7.364
 6229POPC   NC378467  41.531  36.865   5.564
 6229POPC   PO478468  41.580  36.883   5.864
 6229POPC   GL178469  41.531  36.933   6.164
 6229POPC   GL278470  41.535  36.822   6.164
 6229POPC   C1A78471  41.534  36.866   6.464
 6229POPC   D2A78472  41.526  36.872   6.764
 6229POPC   C3A78473  41.581  36.872   7.064
 6229POPC   C4A78474  41.565  36.873   7.364
 6229POPC   C1B78475  41.466  36.698   6.464
 6229POPC   C2B78476  41.444  36.651   6.764
 6229POPC   C3B78477  41.466  36.684   7.064
 6229POPC   C4B78478  41.497  36.657   7.364
 6230POPC   NC378479  35.308  40.771   5.564
 6230POPC   PO478480  35.311  40.792   5.864
 6230POPC   GL178481  35.394  40.823   6.164
 6230POPC   GL278482  35.236  40.730   6.164
 6230POPC   C1A78483  35.334  40.813   6.464
 6230POPC   D2A78484  35.330  40.795   6.764
 6230POPC   C3A78485  35.371  40.753   7.064
 6230POPC   C4A78486  35.387  40.805   7.364
 6230POPC   C1B78487  35.133  40.650   6.464
 6230POPC   C2B78488  35.154  40.573   6.764
 6230POPC   C3B78489  35.140  40.646   7.064
 6230POPC   C4B78490  35.212  40.636   7.364
 6231W        W78491  10.236  36.449   1.776
 6232W        W78492  41.492  19.128  13.916
 6233W        W78493   0.399  10.744  13.462
 6234W        W78494   5.436  27.005   0.755
 6235W        W78495  12.644  32.396  11.116
 6236W        W78496  30.091  13.112  13.503
 6237W        W78497  17.161   3.941  13.810
 6238W        W78498  32.983  30.048  11.415
 6239W        W78499  40.312  32.900  14.386
 6240W        W78500  44.981  22.092  13.546
 6241W        W78501  26.134  23.681   4.308
 6242W        W78502  28.447  42.022  11.974
 6243W        W78503   8.250  15.604  14.869
 6244W        W78504  19.574  22.737   5.114
 6245W        W78505   7.203  43.960  11.025
 6246W        W78506   2.240  20.267   0.850
 6247W        W78507  29.462  15.268  12.874
 6248W        W78508   3.441  13.320  11.977
 6249W        W78509  25.182  32.525  12.863
 6250W        W78510   5.781  21.752  12.020
 6251W        W78511  15.650  44.766   4.178
 6252W        W78512  18.557  33.467  12.974
 6253W        W78513  18.184   7.909   3.199
 6254W        W78514  22.528  36.967   3.663
 6255W        W78515  26.084  41.411  12.842
 6256W        W78516  33.028   5.912   1.225
 6257W        W78517  31.102   1.481   2.204
 6258W        W78518  33.454   7.331   2.223
 6259W        W78519  27.052  15.823   0.813
 6260W        W78520  34.879  17.721   2.317
 6261W        W78521  18.240  31.540  12.492
 6262W        W78522  22.669   3.773  14.454
 6263W        W78523  15.802  31.502  12.998
 6264W        W78524  42.803  26.161  12.563
 6265W        W78525  37.474  12.665  13.485
 6266W        W78526  15.162  35.405   4.185
 6267W        W78527  44.927   9.210  12.024
 6268W        W78528  42.877  16.138  11.927
 6269W        W78529   8.276   3.825   3.353
 6270W        W78530  43.322  37.405  10.935
 6271W        W78531  44.980  42.899  13.377
 6272W        W78532  33.428  17.675   3.323
 6273W        W78533  16.631  41.338  11.107
 6274W        W78534  27.459  14.098  14.408
 6275W        W78535  28.997  22.570   0.871
 6276W        W78536  43.938  20.096  10.579
 6277W        W78537  28.538  23.002   2.680
 6278W        W78538  17.695  38.550  11.106
 6279W        W78539  18.755  37.455   4.820
 6280W        W78540  24.125  29.971   4.305
 6281W        W78541  27.656  39.972  12.446
 6282W        W78542   7.217  44.410   3.780
 6283W        W78543  22.087  17.620  13.000
 6284W        W78544  28.457  44.382   0.933
 6285W        W78545  38.874   8.816  11.112
 6286W        W78546  38.407  37.963  12.832
 6287W        W78547  32.121  23.045   4.234
 6288W        W78548  35.004  44.294  12.560
 6289W        W78549  23.646  24.485   4.303
 6290W        W78550  32.416  31.608  13.486
 6291W        W78551  16.609  40.995  12.526
 6292W        W78552  10.721   6.302  14.468
 6293W        W78553  37.508   9.157  11.095
 6294W        W78554  22.539  16.245  11.863
 6295W        W78555  24.052  16.594   3.180
 6296W        W78556  25.530  20.755  10.570
 6297W        W78557  10.339  42.521  11.859
 6298W        W78558  40.016  22.119  13.378
 6299W        W78559  17.270  26.034   2.716
 6300W        W78560  26.092  39.441  10.002
 6301W        W78561  19.131   1.363   0.414
 6302W        W78562  32.524  38.905   2.412
 6303W        W78563  28.940  34.984  13.984
 6304W        W78564  11.203  20.087   2.318
 6305W        W78565  25.594   6.341   1.933
 6306W        W78566  26.464   5.933  14.031
 6307W        W78567  44.921  19.048   0.328
 6308W        W78568   4.716  14.816   3.857
 6309W        W78569  42.349  41.863   4.768
 6310W        W78570  28.586  43.767   2.858
 6311W        W78571  20.587  17.587  10.474
 6312W        W78572   7.842  15.643   0.737
 6313W        W78573  28.117  33.970   0.481
 6314W        W78574   7.387  30.953   3.180
 6315W        W78575  27.157  12.632  11.035
 6316W        W78576  38.907  19.708   1.767
 6317W        W78577  40.320  44.326  10.619
 6318W        W78578  26.616  32.004  11.894
 6319W        W78579  29.975  27.477  10.460
 6320W        W78580  23.147   8.301   2.364
 6321W        W78581   3.866  43.948   3.748
 6322W        W78582  33.907  29.431  12.445
 6323W        W78583   4.351  11.818  14.496
 6324W        W78584  20.199  18.634   2.319
 6325W        W78585  41.343  12.266  10.896
 6326W        W78586   1.948  40.993  14.453
 6327W        W78587  42.026  11.675   4.682
 6328W        W78588  32.040  33.487   3.684
 6329W        W78589   3.435  34.575   3.654
 6330W        W78590  26.022  25.115   1.884
 6331W        W78591  13.145  17.799  12.022
 6332W        W78592   9.305  25.688  11.107
 6333W        W78593  27.551  22.067  11.123
 6334W        W78594  17.275   9.679  13.014
 6335W        W78595  42.395  39.986  11.034
 6336W        W78596  32.890  24.526  13.325
 6337W        W78597  27.687  43.389   4.643
 6338W        W78598  23.651  15.313   0.901
 6339W        W78599  29.922  19.633   3.196
 6340W        W78600  21.106  25.529  12.362
 6341W        W78601  40.919   8.244  10.578
 6342W        W78602  20.727  26.167   1.890
 6343W        W78603   8.341  28.530  10.510
 6344W        W78604  44.987  22.566  10.019
 6345W        W78605   0.936  21.022  13.349
 6346W        W78606  42.418  29.453  11.474
 6347W        W78607  24.691   4.702   1.884
 6348W        W78608  25.168  14.741   3.677
 6349W        W78609  26.696  31.002  13.912
 6350W        W78610  41.874   3.780   4.829
 6351W        W78611  21.222  41.445   3.636
 6352W        W78612  35.383   8.866   5.134
 6353W        W78613  21.157  42.408  12.980
 6354W        W78614  29.603  31.556  13.819
 6355W        W78615  19.634  35.063   1.409
 6356W        W78616  23.045  13.175   4.759
 6357W        W78617   1.365  44.496   4.796
 6358W        W78618  33.077  35.445   0.458
 6359W        W78619  37.900  35.445   0.324
 6360W        W78620  24.480  15.601  10.914
 6361W        W78621  26.555  39.523   5.301
 6362W        W78622   3.902  30.511  14.509
 6363W        W78623  16.752  10.852  12.842
 6364W        W78624  22.173  35.473  13.004
 6365W        W78625  27.628   7.898   3.809
 6366W        W78626   3.823  18.567  11.039
 6367W        W78627  21.136  42.015   2.224
 6368W        W78628  14.765  29.970  13.835
 6369W        W78629   3.261  12.275   3.278
 6370W        W78630  34.952  23.155   1.801
 6371W        W78631  22.685   8.878  10.071
 6372W        W78632  41.504   4.813   4.799
 6373W        W78633  13.165   7.227   2.232
 6374W        W78634  38.980  20.130   2.359
 6375W        W78635   5.780  15.251  13.806
 6376W        W78636  25.101   4.335   2.233
 6377W        W78637   9.192  37.068  10.935
 6378W        W78638  31.919   4.899   5.109
 6379W        W78639  15.608  31.941  14.786
 6380W        W78640  44.954  23.648  13.886
 6381W        W78641  39.515  34.978   0.929
 6382W        W78642  37.371  28.647  13.332
 6383W        W78643  28.437  42.461  13.047
 6384W        W78644  11.290   6.727  13.433
 6385W        W78645  36.043  29.951  11.612
 6386W        W78646  26.164  33.419   4.116
 6387W        W78647  13.237  11.676   0.751
 6388W        W78648  26.172  41.414  10.085
 6389W        W78649  14.227  31.150   3.725
 6390W        W78650  44.291  11.173   4.830
 6391W        W78651  26.574  25.092  11.082
 6392W        W78652  17.098  14.167   2.328
 6393W        W78653  17.799  20.032   0.747
 6394W        W78654  25.560  31.079  14.473
 6395W        W78655   6.894  44.397  14.357
 6396W        W78656  13.772  18.225  11.952
 6397W        W78657  25.104  25.040  13.037
 6398W        W78658  14.625  42.954  14.342
 6399W        W78659  29.122  19.630   0.957
 6400W        W78660  13.711  10.698   3.731
 6401W        W78661  14.739  20.611  11.436
 6402W        W78662  36.091  11.761  11.910
 6403W        W78663  32.993  26.543  12.573
 6404W        W78664  10.783  22.055  11.021
 6405W        W78665  15.147  20.576  11.092
 6406W        W78666  32.024  37.358  13.010
 6407W        W78667   0.290  12.840  14.770
 6408W        W78668  28.488  28.591   2.228
 6409W        W78669   3.285  11.722  13.002
 6410W        W78670  25.022  28.521   3.861
 6411W        W78671  10.340  27.141   4.711
 6412W        W78672  14.798  37.367  10.496
 6413W        W78673   9.778  20.233  12.030
 6414W        W78674  36.957  39.407   0.388
 6415W        W78675  23.681  21.517  14.435
 6416W        W78676  43.303  29.944   0.291
 6417W        W78677  15.111  16.208   1.822
 6418W        W78678  43.769  42.875   2.881
 6419W        W78679   8.735  43.858   1.915
 6420W        W78680  26.048  39.060  10.410
 6421W        W78681   4.222   1.752  13.847
 6422W        W78682  21.548  35.922  12.459
 6423W        W78683   4.400  33.486  11.425
 6424W        W78684  34.539   8.900   2.228
 6425W        W78685  23.063  14.791  14.999
 6426W        W78686  39.399  44.386   2.776
 6427W        W78687  13.737  17.741   5.151
 6428W        W78688  20.545   7.699  10.922
 6429W        W78689  20.200  28.147   4.675
 6430W        W78690  30.630  14.717   4.184
 6431W        W78691  28.030   4.339   2.724
 6432W        W78692  40.491  27.463   0.787
 6433W        W78693   9.680  30.653  10.418
 6434W        W78694  39.341  14.658  14.313
 6435W        W78695  11.822  12.784   5.306
 6436W        W78696  22.203  15.683  14.797
 6437W        W78697  27.182   1.280  11.383
 6438W        W78698  28.024  37.467   4.816
 6439W        W78699  13.827  18.562   2.402
 6440W        W78700  12.746   4.846   4.153
 6441W        W78701  20.078  30.077   4.682
 6442W        W78702  24.573  13.335   0.342
 6443W        W78703  16.243  30.916   3.651
 6444W        W78704  29.623  13.253   2.893
 6445W        W78705  23.496  41.035   4.210
 6446W        W78706  15.099  34.518  13.954
 6447W        W78707  42.822  34.049   1.726
 6448W        W78708  19.193   2.424   1.777
 6449W        W78709  39.382  20.575   2.316
 6450W        W78710  10.697   7.221   2.235
 6451W        W78711  17.116  43.998  12.004
 6452W        W78712  16.307  28.081   3.362
 6453W        W78713  34.116   4.893  11.878
 6454W        W78714   2.912  29.474   1.837
 6455W        W78715   7.910  20.626  10.524
 6456W        W78716   0.774  25.200   1.865
 6457W        W78717  12.616  18.667  13.434
 6458W        W78718  44.312   6.421   4.833
 6459W        W78719  14.673  12.773   5.134
 6460W        W78720  23.146   2.255   1.234
 6461W        W78721   5.929  11.667   4.171
 6462W        W78722  15.305  27.495   0.803
 6463W        W78723  44.845  40.889  11.109
 6464W        W78724  37.934  33.943   0.331
 6465W        W78725  31.498  31.493  13.904
 6466W        W78726   3.880   0.790   1.828
 6467W        W78727  28.618  25.525   3.707
 6468W        W78728  33.384  26.005  12.967
 6469W        W78729   1.380  44.841   0.947
 6470W        W78730  42.860  41.404   4.164
 6471W        W78731  43.867  14.269  11.889
 6472W        W78732   3.264   4.823  10.944
 6473W        W78733  40.806  33.960   2.364
 6474W        W78734   1.949   2.738  11.961
 6475W        W78735  30.535  22.047   1.253
 6476W        W78736  41.425  42.818  10.442
 6477W        W78737   8.334  18.200  10.419
 6478W        W78738  12.275  14.174  10.620
 6479W        W78739  14.802  38.913   2.392
 6480W        W78740  23.151  28.532   4.789
 6481W        W78741  27.456  39.361   9.647
 6482W        W78742  15.098  43.292   0.460
 6483W        W78743  21.021   8.668   4.130
 6484W        W78744  19.656   4.718   3.354
 6485W        W78745   5.342  22.182  11.450
 6486W        W78746  30.549  28.543   4.654
 6487W        W78747  38.499  38.933  12.380
 6488W        W78748   2.885  10.323  12.964
 6489W        W78749  32.506  15.581   1.850
 6490W        W78750   0.263  33.538   4.786
 6491W        W78751  15.308  15.195  13.427
 6492W        W78752  34.502  35.106  14.980
 6493W        W78753  20.246  13.261  11.066
 6494W        W78754   8.326  26.109  11.479
 6495W        W78755  37.959  27.091   3.654
 6496W        W78756   5.881  38.452   4.222
 6497W        W78757  14.712  13.208  12.468
 6498W        W78758  21.166  43.312   4.746
 6499W        W78759   2.388  34.512   4.608
 6500W        W78760  31.469  41.536  10.515
 6501W        W78761  29.038  28.049  12.392
 6502W        W78762  20.151   5.841   2.772
 6503W        W78763  32.549  41.821  12.545
 6504W        W78764  18.699  27.072   0.840
 6505W        W78765  35.531  23.167  10.588
 6506W        W78766   1.363  34.448   4.659
 6507W        W78767   9.805  14.106  12.440
 6508W        W78768  25.178  42.789  10.939
 6509W        W78769  33.513   5.930  14.927
 6510W        W78770  15.162   1.829  14.377
 6511W        W78771  22.175   0.767   3.678
 6512W        W78772  13.260  11.687  11.970
 6513W        W78773  32.586   3.285  12.969
 6514W        W78774  10.372  38.391  12.525
 6515W        W78775  21.656   5.285   1.893
 6516W        W78776  35.477   1.734  11.413
 6517W        W78777  12.717  19.610  14.292
 6518W        W78778   2.341  13.187   1.929
 6519W        W78779  40.387   1.772  14.471
 6520W        W78780  35.947  40.348   4.181
 6521W        W78781  35.050  38.333  13.434
 6522W        W78782  32.996  14.715   2.734
 6523W        W78783   2.347   0.891   4.819
 6524W        W78784  42.023  44.844  12.095
 6525W        W78785  12.298  26.184   0.796
 6526W        W78786   9.740  41.860   3.648
 6527W        W78787  21.653  41.386  10.566
 6528W        W78788  16.093   2.327  10.551
 6529W        W78789  17.702   0.918   1.442
 6530W        W78790  42.428  35.062   1.750
 6531W        W78791   1.279  14.216   1.319
 6532W        W78792  36.003  44.360  12.396
 6533W        W78793  26.016  41.516   0.389
 6534W        W78794  35.870  30.029   4.628
 6535W        W78795  40.862  32.918  13.389
 6536W        W78796   0.258  26.516  11.090
 6537W        W78797   1.339  15.169  10.543
 6538W        W78798   2.917  21.189   4.707
 6539W        W78799  17.086  16.189   3.833
 6540W        W78800  12.130   0.769  12.389
 6541W        W78801  41.828  15.606   1.285
 6542W        W78802  33.945  36.564  10.623
 6543W        W78803  23.236  29.066  14.902
 6544W        W78804  30.924  35.854  11.447
 6545W        W78805  21.730  26.564  12.097
 6546W        W78806  18.060  19.546   4.780
 6547W        W78807   3.741  20.720   2.219
 6548W        W78808   8.855  39.899   2.782
 6549W        W78809  30.916  39.511   2.403
 6550W        W78810   6.427  19.549  13.465
 6551W        W78811  33.380  31.556  10.433
 6552W        W78812   5.870  25.189  13.853
 6553W        W78813  29.137  32.406   0.447
 6554W        W78814  19.040  42.471   1.271
 6555W        W78815  25.552  38.957   2.314
 6556W        W78816   7.793   2.940   4.829
 6557W        W78817  21.672  12.121   0.264
 6558W        W78818  12.219  37.929   4.162
 6559W        W78819   6.691  39.424   1.857
 6560W        W78820   9.192  20.588  11.918
 6561W        W78821  25.124  32.554  11.550
 6562W        W78822  15.712   4.299   1.830
 6563W        W78823  21.539   7.193   0.276
 6564W        W78824  14.159   4.312   0.821
 6565W        W78825  12.153  24.626  11.067
 6566W        W78826  20.067   4.277  11.495
 6567W        W78827  42.022  14.096  14.840
 6568W        W78828  25.106  37.545  14.894
 6569W        W78829  21.621  30.065   4.645
 6570W        W78830  23.240  19.284   4.748
 6571W        W78831   4.905  24.006  12.445
 6572W        W78832  29.451  23.014  11.042
 6573W        W78833  28.556  16.189   0.320
 6574W        W78834  17.571  29.561   1.915
 6575W        W78835  29.513  40.898   1.292
 6576W        W78836   1.260  42.032  14.382
 6577W        W78837  21.734   9.806   3.740
 6578W        W78838  27.055   7.174  13.949
 6579W        W78839  18.215  12.145   2.795
 6580W        W78840  13.788  27.656   4.330
 6581W        W78841  38.003  18.115   3.631
 6582W        W78842  41.971  26.675   0.458
 6583W        W78843  40.530  39.439   3.182
 6584W        W78844  31.421   2.326   4.344
 6585W        W78845  17.765  25.593  14.343
 6586W        W78846   2.297  23.661   1.831
 6587W        W78847  32.996  11.197  13.349
 6588W        W78848  27.161  35.073  10.995
 6589W        W78849  18.637  31.050  11.898
 6590W        W78850   5.878   8.706  10.434
 6591W        W78851  42.298  39.462  11.075
 6592W        W78852  32.586  23.083   2.898
 6593W        W78853  33.115  36.968   3.320
 6594W        W78854   2.900  42.396  13.907
 6595W        W78855  17.701  44.329  11.039
 6596W        W78856  39.399  44.445   3.663
 6597W        W78857  33.553  29.551   3.811
 6598W        W78858  28.939  39.451  13.461
 6599W        W78859  30.625   3.233  10.053
 6600W        W78860   3.323  11.842  11.118
 6601W        W78861   6.390   8.280  12.017
 6602W        W78862  15.135  33.433   3.217
 6603W        W78863  24.487  37.027  13.387
 6604W        W78864  19.144  12.313  10.441
 6605W        W78865   0.304  38.075  11.861
 6606W        W78866   0.805  30.608   3.824
 6607W        W78867  35.875  16.247  14.430
 6608W        W78868   4.879   8.270   2.751
 6609W        W78869  26.992  39.868  10.046
 6610W        W78870   7.253  22.099   4.274
 6611W        W78871   8.272  34.919  14.335
 6612W        W78872   4.760  36.384   0.438
 6613W        W78873  37.471   7.348  11.503
 6614W        W78874  22.124  17.669   0.279
 6615W        W78875  36.453  10.647  13.806
 6616W        W78876   8.314  30.995  11.484
 6617W        W78877   7.824  13.172   2.784
 6618W        W78878  22.545   7.827  13.498
 6619W        W78879  43.977  42.959   1.930
 6620W        W78880  39.560  44.930  14.385
 6621W        W78881  27.512  29.664  10.469
 6622W        W78882  16.781  12.741   3.188
 6623W        W78883  27.122  42.301  10.494
 6624W        W78884  40.962  20.528   4.786
 6625W        W78885  37.348   8.660  10.475
 6626W        W78886  28.489  30.116  14.843
 6627W        W78887   7.869  20.080   0.372
 6628W        W78888  30.576  17.635   2.843
 6629W        W78889   5.922  10.706  13.325
 6630W        W78890  34.024  11.630  13.829
 6631W        W78891   0.752  28.086   0.310
 6632W        W78892  19.235  14.794   4.725
 6633W        W78893   1.391  36.446   3.362
 6634W        W78894  25.053   1.444   0.357
 6635W        W78895   8.316  23.657   4.786
 6636W        W78896  42.868  42.347  12.926
 6637W        W78897  38.496  29.489   4.744
 6638W        W78898  30.574  42.804   4.304
 6639W        W78899  21.720  41.798   0.925
 6640W        W78900  30.422  27.477  11.052
 6641W        W78901  21.171   2.805   2.407
 6642W        W78902  12.730  15.653   0.299
 6643W        W78903  44.922  37.040   2.256
 6644W        W78904  39.011  23.723   3.646
 6645W        W78905  10.227  31.445  12.953
 6646W        W78906  36.580  18.602   5.615
 6647W        W78907  29.645  16.112  12.872
 6648W        W78908  11.314  38.047  12.379
 6649W        W78909  41.799  35.494   2.394
 6650W        W78910  26.161  21.246  14.446
 6651W        W78911   9.759   3.413  13.534
 6652W        W78912  24.007  40.493   2.253
 6653W        W78913  27.608  17.789  13.879
 6654W        W78914  29.632  33.415  13.812
 6655W        W78915  30.425  19.617  12.967
 6656W        W78916   6.322   0.474   4.215
 6657W        W78917   7.702  29.426   1.822
 6658W        W78918  23.098  40.029   2.380
 6659W        W78919  13.350  10.667   3.177
 6660W        W78920  21.741  40.931  13.832
 6661W        W78921   2.285   3.311   3.656
 6662W        W78922  33.925  29.946  14.900
 6663W        W78923  37.552   2.860   1.382
 6664W        W78924  42.524  29.018   3.752
 6665W        W78925  24.204   3.862   0.434
 6666W        W78926  15.286  24.609   4.183
 6667W        W78927   6.837  23.052   2.691
 6668W        W78928  36.887  16.724   1.258
 6669W        W78929  39.334   0.753  11.456
 6670W        W78930   1.854  18.567  11.389
 6671W        W78931   7.208  43.890  14.953
 6672W        W78932   7.335  33.946  11.542
 6673W        W78933   9.258  10.306  13.442
 6674W        W78934  20.678  35.408  14.902
 6675W        W78935  31.076  14.156   2.303
 6676W        W78936  14.127  26.506  11.865
 6677W        W78937   4.923  27.652   9.466
 6678W        W78938  26.012  22.162   4.242
 6679W        W78939   9.757  24.680  13.452
 6680W        W78940  30.160  35.951   0.395
 6681W        W78941   1.767  32.472  12.019
 6682W        W78942   0.774  32.057  11.044
 6683W        W78943   2.230  26.565   0.448
 6684W        W78944  23.496   5.426  12.558
 6685W        W78945  10.694   2.879   1.231
 6686W        W78946  22.743  18.679   2.308
 6687W        W78947  38.826   2.751  13.544
 6688W        W78948   8.273   0.308  14.971
 6689W        W78949   3.889  19.534   2.669
 6690W        W78950  14.670  38.353   3.292
 6691W        W78951   0.749  30.987  10.967
 6692W        W78952  13.235  16.309  12.575
 6693W        W78953  27.186  36.478  10.432
 6694W        W78954   3.391  26.621  14.004
 6695W        W78955  27.581  19.142  10.445
 6696W        W78956  32.575   1.813   0.446
 6697W        W78957  37.034  36.066  12.488
 6698W        W78958  14.187  14.693   2.887
 6699W        W78959  18.660  38.867   5.131
 6700W        W78960  43.835  13.217  12.017
 6701W        W78961  16.803   6.418   2.218
 6702W        W78962  39.552  38.480  12.520
 6703W        W78963  27.138  42.953  12.508
 6704W        W78964  10.834  20.562  13.856
 6705W        W78965  23.539  39.477  10.549
 6706W        W78966  41.932   1.306  13.047
 6707W        W78967   6.894  14.768   3.651
 6708W        W78968   0.468  10.273   2.343
 6709W        W78969  43.429  41.985  14.021
 6710W        W78970  16.313  39.843  10.473
 6711W        W78971   0.408  34.082  13.339
 6712W        W78972   1.935  40.547   1.251
 6713W        W78973  27.666  41.448  11.391
 6714W        W78974   9.701  30.508   1.863
 6715W        W78975  25.537  19.211  11.940
 6716W        W78976  39.909   5.708   4.683
 6717W        W78977  17.763  20.175   3.342
 6718W        W78978  10.668  41.968   3.317
 6719W        W78979  20.191   6.829   2.252
 6720W        W78980  40.395  26.995  14.966
 6721W        W78981  44.353  38.334  14.917
 6722W        W78982  40.982  26.695   1.343
 6723W        W78983   8.201  26.187  13.548
 6724W        W78984  26.031  29.520  10.578
 6725W        W78985   1.837  21.684   0.952
 6726W        W78986  24.997   4.352   3.863
 6727W        W78987  13.819  37.368   4.132
 6728W        W78988  36.501  21.165   1.888
 6729W        W78989  21.231  25.196   5.296
 6730W        W78990  12.290  41.010   2.676
 6731W        W78991   0.914  26.159  14.896
 6732W        W78992   8.729  27.031  12.965
 6733W        W78993  24.709  29.143  13.039
 6734W        W78994   2.386   3.757  11.427
 6735W        W78995  28.556   2.885   3.324
 6736W        W78996   0.343  23.552   1.857
 6737W        W78997  34.474  31.547   1.263
 6738W        W78998  43.935  24.585   1.831
 6739W        W78999  30.572  30.037   1.774
 6740W        W79000  12.649   3.407   4.296
 6741W        W79001  43.977  41.987  12.087
 6742W        W79002  33.426  27.690  11.968
 6743W        W79003  30.573  28.564  14.388
 6744W        W79004  22.683  32.398   2.739
 6745W        W79005  22.187  28.933   1.437
 6746W        W79006  12.629  21.073   0.813
 6747W        W79007  41.000  32.473   1.369
 6748W        W79008  43.309  21.212  14.841
 6749W        W79009  38.570   9.660   0.302
 6750W        W79010   9.223  39.434   4.605
 6751W        W79011  40.441  24.710   0.294
 6752W        W79012  14.635  39.350   0.754
 6753W        W79013  32.563  34.539   0.833
 6754W        W79014  10.729   2.898   3.755
 6755W        W79015  21.186  15.707  13.025
 6756W        W79016   2.229  15.161  10.499
 6757W        W79017   7.787  33.034   2.794
 6758W        W79018  24.509   6.343   2.746
 6759W        W79019  34.919  13.337   4.315
 6760W        W79020  16.128  20.112  13.441
 6761W        W79021  28.078  11.652  12.035
 6762W        W79022   8.702  41.448  10.619
 6763W        W79023  34.061   6.868   2.818
 6764W        W79024  20.068   9.213  14.024
 6765W        W79025  21.612  44.434  11.081
 6766W        W79026   1.785  44.941  11.484
 6767W        W79027  21.567  24.160  11.923
 6768W        W79028  16.609  10.867   4.200
 6769W        W79029  44.870  11.319   4.325
 6770W        W79030  29.553   2.940  11.056
 6771W        W79031  24.589   6.903   0.856
 6772W        W79032  29.436  11.348  11.974
 6773W        W79033   9.692  40.453  11.087
 6774W        W79034  26.152  38.444  12.560
 6775W        W79035  22.151   6.872  11.605
 6776W        W79036  26.140  42.935  12.986
 6777W        W79037  32.888  42.832   2.260
 6778W        W79038   3.956  20.755   4.152
 6779W        W79039  43.323  24.114   2.238
 6780W        W79040   1.771  18.274  14.294
 6781W        W79041   6.226  38.419  14.866
 6782W        W79042  36.875  39.490   0.938
 6783W        W79043  28.669  12.756   2.412
 6784W        W79044   4.705  35.915   4.660
 6785W        W79045  19.755   2.927  12.962
 6786W        W79046   6.358  32.980  13.479
 6787W        W79047  40.399  18.153  14.307
 6788W        W79048  10.172  17.231   1.774
 6789W        W79049  30.959  31.613   9.445
 6790W        W79050  36.866  15.213  14.010
 6791W        W79051  35.969  30.528  14.335
 6792W        W79052  24.505  40.815   9.949
 6793W        W79053   1.321  40.990   3.741
 6794W        W79054   6.241  29.438   2.406
 6795W        W79055  15.139  31.027   4.138
 6796W        W79056  12.628  43.438   0.893
 6797W        W79057  40.316  34.053  10.493
 6798W        W79058  41.924  26.044  14.765
 6799W        W79059  24.141  30.039   3.246
 6800W        W79060  42.287  20.719   0.851
 6801W        W79061  16.072  22.122  12.402
 6802W        W79062  40.986  27.073  10.465
 6803W        W79063  14.312  10.664   3.347
 6804W        W79064  19.717  41.000  13.380
 6805W        W79065  36.550   7.228  14.413
 6806W        W79066   1.765  16.692   1.234
 6807W        W79067  34.946  37.058   4.304
 6808W        W79068   2.729  41.373   1.849
 6809W        W79069   3.448  31.993  14.002
 6810W        W79070  32.122   2.439   5.187
 6811W        W79071   5.884  10.218   1.391
 6812W        W79072  42.027   0.467  11.401
 6813W        W79073   5.248  27.988  11.504
 6814W        W79074   8.737  37.860  11.997
 6815W        W79075  20.200  23.190   2.367
 6816W        W79076  14.221  22.188   2.842
 6817W        W79077   7.799  28.606   1.325
 6818W        W79078   9.721  17.660   1.356
 6819W        W79079   9.269  25.036  13.816
 6820W        W79080   9.707  44.789  12.954
 6821W        W79081  34.490  12.734   2.250
 6822W        W79082  29.077  15.764   3.213
 6823W        W79083  31.034  13.687  12.066
 6824W        W79084  12.732  27.966   3.164
 6825W        W79085   7.865   4.321  11.576
 6826W        W79086  26.164  34.106   1.354
 6827W        W79087  27.132  31.526   4.333
 6828W        W79088   8.796  30.973   0.461
 6829W        W79089  37.978   9.265  13.496
 6830W        W79090  10.369  27.506  10.119
 6831W        W79091  33.945  23.577   3.359
 6832W        W79092   3.821  17.209   1.359
 6833W        W79093  36.029  33.616   2.390
 6834W        W79094   4.754   9.775  13.378
 6835W        W79095   7.392  29.590   1.227
 6836W        W79096  13.159  24.673   3.193
 6837W        W79097  30.084  38.480   2.883
 6838W        W79098  43.346  36.559  13.954
 6839W        W79099  22.597  12.775   3.279
 6840W        W79100   0.854   7.864   4.784
 6841W        W79101  15.606  37.898  13.442
 6842W        W79102  36.519  43.401  12.079
 6843W        W79103  14.171  39.450  12.912
 6844W        W79104  42.822  28.679  11.042
 6845W        W79105  21.652  10.305  14.435
 6846W        W79106  16.756  36.515  13.390
 6847W        W79107  16.246  35.522  11.426
 6848W        W79108  19.648  36.978  14.904
 6849W        W79109   6.293  29.520   0.422
 6850W        W79110   2.366  22.646  10.468
 6851W        W79111  31.485   7.857   4.617
 6852W        W79112  43.933  44.405   2.782
 6853W        W79113  29.016   5.818  14.449
 6854W        W79114  10.703  12.748   3.266
 6855W        W79115  44.287  38.002  10.519
 6856W        W79116  10.738  24.100   2.399
 6857W        W79117  38.536  34.914   2.863
 6858W        W79118  39.944  38.553   0.882
 6859W        W79119   5.879  32.468  14.338
 6860W        W79120  39.486  16.813   0.326
 6861W        W79121  44.919  18.191   4.769
 6862W        W79122   2.872  20.759  14.304
 6863W        W79123  34.072  41.497   2.796
 6864W        W79124  20.767  16.188  11.571
 6865W        W79125  23.100  16.109   0.290
 6866W        W79126  40.916  16.711   4.797
 6867W        W79127  36.986  33.881  11.578
 6868W        W79128  17.701   9.250  13.954
 6869W        W79129  13.144  27.492  12.504
 6870W        W79130  34.615   1.968  12.997
 6871W        W79131  26.026  34.381   3.657
 6872W        W79132  18.705  14.247   1.327
 6873W        W79133   4.379  12.158  13.977
 6874W        W79134  26.631  17.710   0.250
 6875W        W79135   8.861  40.419   0.414
 6876W        W79136  26.154  16.648  11.401
 6877W        W79137  43.349  27.189   1.436
 6878W        W79138  13.204  39.442  12.860
 6879W        W79139  27.488  32.593  13.533
 6880W        W79140  25.555  18.581   0.271
 6881W        W79141  15.096  21.606  12.398
 6882W        W79142  41.905  38.925   4.254
 6883W        W79143  30.005  40.426   1.228
 6884W        W79144  33.896  38.415  13.363
 6885W        W79145  33.449  26.683   1.855
 6886W        W79146  30.563  12.234   0.736
 6887W        W79147  35.865   0.774  13.866
 6888W        W79148   7.792  37.960   2.663
 6889W        W79149   4.447  10.179  11.006
 6890W        W79150  28.440  10.191   2.274
 6891W        W79151   5.344  10.196  14.859
 6892W        W79152  11.207   8.270  10.433
 6893W        W79153  37.925  18.665   1.782
 6894W        W79154  20.601  17.217   3.174
 6895W        W79155  14.826  33.485  14.348
 6896W        W79156  10.261   5.253  11.098
 6897W        W79157  13.831  11.702   3.691
 6898W        W79158  23.709  14.255   1.727
 6899W        W79159  18.103  22.526   0.421
 6900W        W79160  16.108  13.776   2.276
 6901W        W79161   1.973  23.684  13.438
 6902W        W79162  13.754  34.388   4.704
 6903W        W79163  38.069   5.405   0.875
 6904W        W79164   1.916  36.367   3.362
 6905W        W79165  10.157  35.866   3.385
 6906W        W79166   8.735  13.155  10.892
 6907W        W79167  22.711  20.538   0.428
 6908W        W79168  26.967  43.822  11.387
 6909W        W79169  14.144  24.022   4.121
 6910W        W79170   0.959   9.376   2.712
 6911W        W79171  17.559  29.084  13.809
 6912W        W79172  16.698  13.121   3.869
 6913W        W79173  27.028  27.608  11.882
 6914W        W79174  35.962  31.492   4.244
 6915W        W79175  32.897  10.280  11.423
 6916W        W79176  27.093  20.255   4.652
 6917W        W79177  28.053  19.279   2.201
 6918W        W79178  29.973   6.890   0.905
 6919W        W79179  13.111  21.709   1.365
 6920W        W79180  28.101  19.065   9.940
 6921W        W79181  39.429   9.755   4.177
 6922W        W79182   6.764  41.920   4.156
 6923W        W79183  37.005   9.187  14.887
 6924W        W79184   8.834   3.936   3.146
 6925W        W79185  29.056  30.011  14.955
 6926W        W79186   6.824   0.270  11.533
 6927W        W79187  24.602   9.378  13.460
 6928W        W79188   3.372  34.883   1.306
 6929W        W79189   9.660  35.454   4.774
 6930W        W79190   7.791  32.005   9.983
 6931W        W79191  10.744  26.996   3.649
 6932W        W79192   4.860  19.237   5.261
 6933W        W79193  39.414  37.016  13.891
 6934W        W79194  29.169  15.744  13.999
 6935W        W79195  33.086  33.002   1.229
 6936W        W79196  19.688  12.242   3.266
 6937W        W79197  37.838  15.311  10.597
 6938W        W79198  30.044  33.909  14.503
 6939W        W79199  25.694  20.730  10.949
 6940W        W79200   4.284  20.086  11.372
 6941W        W79201  26.096  43.799  12.386
 6942W        W79202  42.423  13.124   1.245
 6943W        W79203  23.502  40.995   3.317
 6944W        W79204   1.761  10.803   2.371
 6945W        W79205  15.661  18.289  12.533
 6946W        W79206  24.118  28.070   9.967
 6947W        W79207  24.075   9.795  13.972
 6948W        W79208   5.740   8.160   4.251
 6949W        W79209  24.030   9.886  14.329
 6950W        W79210  37.071  17.250  14.386
 6951W        W79211  20.208  15.761   3.764
 6952W        W79212  42.838  13.233  10.462
 6953W        W79213  12.804  15.316   4.779
 6954W        W79214  42.479  44.336   0.343
 6955W        W79215  20.593  36.854   4.685
 6956W        W79216  41.452  29.665  11.441
 6957W        W79217  28.966   5.836  13.054
 6958W        W79218  21.653  28.652   5.790
 6959W        W79219  29.589  28.020   1.907
 6960W        W79220  26.485  14.183   2.693
 6961W        W79221  30.643  38.893   4.820
 6962W        W79222  14.334   5.407  12.002
 6963W        W79223  24.192  30.497   0.858
 6964W        W79224   2.323   9.299  13.432
 6965W        W79225   3.401  19.279   4.666
 6966W        W79226  33.540  15.768   1.273
 6967W        W79227  22.519  40.928   4.227
 6968W        W79228   1.456   4.386  10.447
 6969W        W79229  22.165  11.674  10.913
 6970W        W79230   4.365  21.230   4.704
 6971W        W79231  28.525  31.458   3.681
 6972W        W79232  29.996  34.578  14.349
 6973W        W79233  33.094  21.071  12.362
 6974W        W79234   4.281  41.968   2.288
 6975W        W79235  39.970   5.743  14.988
 6976W        W79236   9.282  26.056  10.607
 6977W        W79237  29.956  34.609   1.748
 6978W        W79238  20.625   6.369  14.914
 6979W        W79239   2.285  15.276  11.580
 6980W        W79240  17.709  36.055  11.057
 6981W        W79241  26.645  33.570   2.778
 6982W        W79242   0.836   1.310   0.433
 6983W        W79243  13.754  25.591   0.765
 6984W        W79244  28.627  28.657   2.665
 6985W        W79245  29.570  15.104   1.337
 6986W        W79246  25.525  22.226  10.603
 6987W        W79247   3.448   5.904  11.416
 6988W        W79248  38.933  25.054  12.933
 6989W        W79249  39.870   1.906  12.986
 6990W        W79250  33.608  11.647  11.495
 6991W        W79251  22.671  36.589  13.521
 6992W        W79252  12.145  41.919  10.499
 6993W        W79253  16.729   1.778  10.416
 6994W        W79254  18.733  34.457   3.173
 6995W        W79255  14.605  43.893   3.223
 6996W        W79256   7.188  44.761   2.341
 6997W        W79257  38.917  22.207   0.432
 6998W        W79258  40.468  37.459   5.103
 6999W        W79259  29.525  15.167  14.454
 7000W        W79260  16.797  28.024   3.248
 7001W        W79261  12.218  44.793   3.663
 7002W        W79262  21.741  26.601  13.928
 7003W        W79263  41.825  41.302   5.144
 7004W        W79264  34.453  43.426   0.353
 7005W        W79265   7.329  25.094  11.867
 7006W        W79266  24.701   7.751  12.404
 7007W        W79267  33.605  37.438   5.228
 7008W        W79268  34.098  32.076   1.286
 7009W        W79269  23.121  11.853  13.936
 7010W        W79270   9.756  31.525  13.805
 7011W        W79271  13.155  28.485   3.757
 7012W        W79272  20.593   5.916  10.480
 7013W        W79273   4.807   4.372   1.248
 7014W        W79274  38.352   4.792  10.424
 7015W        W79275  18.111  28.499   1.757
 7016W        W79276  20.567  42.395  10.520
 7017W        W79277  35.549  12.804  12.953
 7018W        W79278  40.488   5.404   0.333
 7019W        W79279   3.810  44.860  10.461
 7020W        W79280   4.896   0.407  10.468
 7021W        W79281  12.673  18.635  13.975
 7022W        W79282  35.534  23.579   0.949
 7023W        W79283  29.933   4.393  12.074
 7024W        W79284  14.264  43.418  12.422
 7025W        W79285  20.210  20.146  12.850
 7026W        W79286  12.768  30.635  11.016
 7027W        W79287  12.842   5.918  11.076
 7028W        W79288  32.427   4.823   3.825
 7029W        W79289   6.683  31.942   4.194
 7030W        W79290  17.106  27.558  14.391
 7031W        W79291   7.368  33.583  10.466
 7032W        W79292  38.376   9.679   3.665
 7033W        W79293   1.311  39.374  12.947
 7034W        W79294  26.953  17.636  14.921
 7035W        W79295  22.023   5.437   4.296
 7036W        W79296  24.617  19.254  14.028
 7037W        W79297   9.744  43.976  10.543
 7038W        W79298   5.436  33.116  13.485
 7039W        W79299  41.989  26.095  13.937
 7040W        W79300  11.235   6.202   4.757
 7041W        W79301  39.442   9.148   0.913
 7042W        W79302  21.021  44.333  10.410
 7043W        W79303  38.829  26.618   4.627
 7044W        W79304  24.578   3.760   0.308
 7045W        W79305   7.863  42.428   4.300
 7046W        W79306  15.256  34.500  12.531
 7047W        W79307  44.800   0.460  11.907
 7048W        W79308  38.382   2.327  14.981
 7049W        W79309  29.509  15.760  10.415
 7050W        W79310  42.897  22.714  13.026
 7051W        W79311  12.725  16.091  11.011
 7052W        W79312  11.681  17.231  12.857
 7053W        W79313   8.683  39.370  14.510
 7054W        W79314  33.937  16.316   4.189
 7055W        W79315   0.924   0.256  12.973
 7056W        W79316  37.888  28.668   4.240
 7057W        W79317  34.037  32.407  12.563
 7058W        W79318  21.062  20.645  13.900
 7059W        W79319  36.064  28.151   1.821
 7060W        W79320  11.167  17.612   0.964
 7061W        W79321  25.060  30.935  13.490
 7062W        W79322  39.373  28.092  11.463
 7063W        W79323   1.427  35.462  11.871
 7064W        W79324  27.551  38.449   3.847
 7065W        W79325  10.255   4.346   1.323
 7066W        W79326  34.398   3.304  12.577
 7067W        W79327   6.893   1.854  14.456
 7068W        W79328  43.903  40.036  13.896
 7069W        W79329   4.899  40.984   0.299
 7070W        W79330  44.986  12.825  12.945
 7071W        W79331  31.467  36.083  11.435
 7072W        W79332  38.324  39.538   4.805
 7073W        W79333  13.687  34.881  13.856
 7074W        W79334  32.059  24.204   0.728
 7075W        W79335  31.465  15.727   0.841
 7076W        W79336  13.177  20.259  10.419
 7077W        W79337   0.257  30.647  13.051
 7078W        W79338  37.519  18.071  12.369
 7079W        W79339  15.707  13.673   0.436
 7080W        W79340  35.360  44.261  14.942
 7081W        W79341  37.438   5.827   0.288
 7082W        W79342  25.573  27.994  13.888
 7083W        W79343  34.557  15.705   4.721
 7084W        W79344  16.077   4.896   4.164
 7085W        W79345  34.444   4.439  12.035
 7086W        W79346  40.045  26.473  13.995
 7087W        W79347  13.692  11.126   4.818
 7088W        W79348  30.534   2.405  14.334
 7089W        W79349  10.766  39.812   5.129
 7090W        W79350  10.862  20.675  13.391
 7091W        W79351   4.440  10.720   4.212
 7092W        W79352   1.823  12.786   1.783
 7093W        W79353  16.106  27.571  14.982
 7094W        W79354  31.010  41.475  12.475
 7095W        W79355  23.702  26.457   4.207
 7096W        W79356  24.156   0.470   3.712
 7097W        W79357  32.022  44.310  13.426
 7098W        W79358  11.371  21.059   4.778
 7099W        W79359  44.876   0.479   3.686
 7100W        W79360  21.153  36.391  13.368
 7101W        W79361  32.444  14.152   5.256
 7102W        W79362  29.045   6.279  13.969
 7103W        W79363   3.710  33.522   0.864
 7104W        W79364  21.034  40.904   4.608
 7105W        W79365   8.883  24.709   2.316
 7106W        W79366  33.938  36.513  11.053
 7107W        W79367  32.046  20.550   3.371
 7108W        W79368  12.780   3.824  10.930
 7109W        W79369  34.373  31.627   4.269
 7110W        W79370  41.883   3.329  12.849
 7111W        W79371  21.103  32.013  12.414
 7112W        W79372  25.656  33.005  10.575
 7113W        W79373  37.992  38.919   0.891
 7114W        W79374  41.307  27.538  14.516
 7115W        W79375   7.903  40.307   0.254
 7116W        W79376   6.900  37.540  13.508
 7117W        W79377  13.108  34.416  14.994
 7118W        W79378  19.151  44.985  14.918
 7119W        W79379  41.396  20.228  11.977
 7120W        W79380  40.402  25.483  14.291
 7121W        W79381  22.160  20.744  12.373
 7122W        W79382  29.477   8.259  12.950
 7123W        W79383  18.788  21.083   4.252
 7124W        W79384  32.106   1.422  12.081
 7125W        W79385  38.950  17.765   2.880
 7126W        W79386  19.095  19.601  14.776
 7127W        W79387  19.585   3.861   0.777
 7128W        W79388  21.656   0.451   1.906
 7129W        W79389   8.888  39.895  13.541
 7130W        W79390  36.371  35.510   1.268
 7131W        W79391   9.170  12.846  11.533
 7132W        W79392  38.332  24.503   2.880
 7133W        W79393   6.782   4.345   1.708
 7134W        W79394  27.449  31.626   4.799
 7135W        W79395  28.157  42.870   5.158
 7136W        W79396  35.994  18.604   2.264
 7137W        W79397  31.404  18.575  12.870
 7138W        W79398  23.543  41.800   2.221
 7139W        W79399  32.428  41.023   3.775
 7140W        W79400  42.982   6.825   4.328
 7141W        W79401  17.109  21.697  11.445
 7142W        W79402  29.946   9.838  14.360
 7143W        W79403   6.214  32.927   4.747
 7144W        W79404  11.327  20.098   1.764
 7145W        W79405  29.517  24.692   0.339
 7146W        W79406  38.449  11.711   4.263
 7147W        W79407  22.129  12.709   4.274
 7148W        W79408  32.993  42.436   4.604
 7149W        W79409  16.091  44.000  13.844
 7150W        W79410   6.853  28.177  11.580
 7151W        W79411  40.892  32.903  13.909
 7152W        W79412  41.480  36.969   0.807
 7153W        W79413  41.328  24.137  14.824
 7154W        W79414  29.434  34.469   0.845
 7155W        W79415  37.552  36.989   4.681
 7156W        W79416  26.034  41.796   5.209
 7157W        W79417  30.022  43.930  13.826
 7158W        W79418  20.243  28.985  11.092
 7159W        W79419  38.916  21.055   1.311
 7160W        W79420  27.043  28.995  12.931
 7161W        W79421   1.332  31.636   2.889
 7162W        W79422  30.537  41.927   1.389
 7163W        W79423   4.760   9.391   3.169
 7164W        W79424  43.511  28.102  12.353
 7165W        W79425  35.949  11.765  10.406
 7166W        W79426  12.119  21.087   2.712
 7167W        W79427  38.025  35.501   4.762
 7168W        W79428  16.105  30.956   4.349
 7169W        W79429  29.028  32.549  14.774
 7170W        W79430  29.963  12.146  12.083
 7171W        W79431  18.209   1.446  12.906
 7172W        W79432  26.999  24.027   1.304
 7173W        W79433  23.536  19.231   3.684
 7174W        W79434  20.533  33.970  10.975
 7175W        W79435  40.848  16.246   3.237
 7176W        W79436   6.683  33.052   1.337
 7177W        W79437  33.880   8.174   1.246
 7178W        W79438  23.234  14.243   4.197
 7179W        W79439   4.779  31.602  11.909
 7180W        W79440   3.241  40.922   1.229
 7181W        W79441  15.139  36.460   2.799
 7182W        W79442  22.741  39.988  12.446
 7183W        W79443   7.393   3.733  13.031
 7184W        W79444  25.527  37.973   0.959
 7185W        W79445  43.770  43.928  12.932
 7186W        W79446  27.598  21.694  13.506
 7187W        W79447  12.343  15.308   2.831
 7188W        W79448  27.618  31.068   9.463
 7189W        W79449  15.119   9.711   2.795
 7190W        W79450  28.639  11.235  14.325
 7191W        W79451  42.917  27.104  10.409
 7192W        W79452  26.979  24.003   4.213
 7193W        W79453  30.052  35.055   2.346
 7194W        W79454  35.457  27.457   1.700
 7195W        W79455   7.319  26.960  14.419
 7196W        W79456  24.104  39.992   0.942
 7197W        W79457   4.900  23.202   1.361
 7198W        W79458  22.644   9.344   0.773
 7199W        W79459  14.248  41.866   0.355
 7200W        W79460  28.507  37.836  14.355
 7201W        W79461  31.915  39.433  14.829
 7202W        W79462  41.437  42.338   3.724
 7203W        W79463  28.172   0.448   0.330
 7204W        W79464  39.872   3.740   2.807
 7205W        W79465  37.427  24.101   4.771
 7206W        W79466   5.841  42.467  14.501
 7207W        W79467  34.999   8.817  10.103
 7208W        W79468   2.394   4.259  11.010
 7209W        W79469  34.384  32.026  14.817
 7210W        W79470   8.241  28.504   2.405
 7211W        W79471  17.557   3.868  11.012
 7212W        W79472  23.240   1.955   1.817
 7213W        W79473  25.545  33.425   2.181
 7214W        W79474  17.677   5.389  13.061
 7215W        W79475  13.252   7.911   2.710
 7216W        W79476  19.260  21.229   0.272
 7217W        W79477  31.915  37.954   0.925
 7218W        W79478   0.434  11.161  14.861
 7219W        W79479  18.618  33.042  11.607
 7220W        W79480  28.441  25.605  12.919
 7221W        W79481  23.048   2.359   0.284
 7222W        W79482  29.429  37.421   4.828
 7223W        W79483   8.700  12.192  12.466
 7224W        W79484  14.681  17.606  13.957
 7225W        W79485  13.836   7.283  13.893
 7226W        W79486  14.751  25.540  10.610
 7227W        W79487  44.399  33.017  13.336
 7228W        W79488   6.798   3.723  10.975
 7229W        W79489  28.010  33.566   2.903
 7230W        W79490  12.224  34.435   3.312
 7231W        W79491  30.049  13.180   1.769
 7232W        W79492  22.658  26.682   3.182
 7233W        W79493  15.733   4.220   3.701
 7234W        W79494  11.326   5.805   3.366
 7235W        W79495   7.274   1.972  12.027
 7236W        W79496  20.700  23.072  11.935
 7237W        W79497  38.475  44.272  13.483
 7238W        W79498  10.153  36.360   3.290
 7239W        W79499   6.865  29.132  10.895
 7240W        W79500  28.631  25.134  11.105
 7241W        W79501  27.013  33.948  12.554
 7242W        W79502  14.628  40.456  14.337
 7243W        W79503  20.137  27.977   3.321
 7244W        W79504   3.883  29.567   4.834
 7245W        W79505   1.345  23.010   2.827
 7246W        W79506  15.239   2.858   0.862
 7247W        W79507   0.868   0.308  14.426
 7248W        W79508  12.784  21.158  12.357
 7249W        W79509   1.340   0.921  14.875
 7250W        W79510   7.277  41.975  12.400
 7251W        W79511  13.644  30.086  10.001
 7252W        W79512  32.930  28.009  10.575
 7253W        W79513  19.198  35.109   4.181
 7254W        W79514  30.129  11.730   4.324
 7255W        W79515  37.991   3.890  12.497
 7256W        W79516  22.642  33.898  13.455
 7257W        W79517  41.954  16.722   4.724
 7258W        W79518  23.607  21.090  11.932
 7259W        W79519  34.879  11.845  12.359
 7260W        W79520  17.785   7.264  12.556
 7261W        W79521  33.997   9.846   1.706
 7262W        W79522  23.078  26.474  14.353
 7263W        W79523  37.392   0.465  13.837
 7264W        W79524   9.231  43.440   4.814
 7265W        W79525  14.834  44.431  14.515
 7266W        W79526  26.458  43.309  12.373
 7267W        W79527  27.503  14.756   3.253
 7268W        W79528  42.873  20.704  11.085
 7269W        W79529   5.919   0.367  10.945
 7270W        W79530  23.240  24.068  13.318
 7271W        W79531  11.713  24.170   3.748
 7272W        W79532  15.665  35.435   1.806
 7273W        W79533   6.370  40.009  13.855
 7274W        W79534  27.539  15.174  12.053
 7275W        W79535  29.485   8.251   4.650
 7276W        W79536  42.832  23.597   0.306
 7277W        W79537   9.845  29.664  11.910
 7278W        W79538  31.524  31.151  12.053
 7279W        W79539  32.566  30.015  10.527
 7280W        W79540  10.219  41.814  11.093
 7281W        W79541  16.079   0.386  10.968
 7282W        W79542  14.611  31.477  14.784
 7283W        W79543  22.515  39.392   0.747
 7284W        W79544   8.765  32.004  13.511
 7285W        W79545  14.118  37.525   1.886
 7286W        W79546  17.207  20.041   3.317
 7287W        W79547  41.297  40.380   4.599
 7288W        W79548   9.221  39.007  10.954
 7289W        W79549  38.470  30.611   3.269
 7290W        W79550  24.593  38.979  13.056
 7291W        W79551  24.638  35.593   1.863
 7292W        W79552  40.005  22.236  14.932
 7293W        W79553  23.018  17.704  13.822
 7294W        W79554  43.824  10.381   2.330
 7295W        W79555  25.132  41.393   3.363
 7296W        W79556  24.535  21.229  13.857
 7297W        W79557  34.990  27.098  14.897
 7298W        W79558  34.961  35.580  12.431
 7299W        W79559   3.913  20.738  14.370
 7300W        W79560  11.355  35.091   0.836
 7301W        W79561   9.339  42.416  14.428
 7302W        W79562   3.745  32.038  11.574
 7303W        W79563   7.398  23.087  11.121
 7304W        W79564  44.470  16.662  14.915
 7305W        W79565  25.066  41.502   4.165
 7306W        W79566  22.190  16.720  13.828
 7307W        W79567  29.003  27.004  11.986
 7308W        W79568   9.865  40.345  12.981
 7309W        W79569  18.221  28.524  14.940
 7310W        W79570  17.206  18.067   1.748
 7311W        W79571  34.561  27.682   0.849
 7312W        W79572   9.279  37.436   1.450
 7313W        W79573  32.531  23.607  14.431
 7314W        W79574  20.550  36.587  14.333
 7315W        W79575  18.664   2.322   4.161
 7316W        W79576  29.591  36.009  14.350
 7317W        W79577   2.762  42.359   2.863
 7318W        W79578  33.893  24.712   1.349
 7319W        W79579   4.933  35.520   1.245
 7320W        W79580  24.649  16.151   4.198
 7321W        W79581  43.409  19.678   1.859
 7322W        W79582  15.234   3.776   1.425
 7323W        W79583  17.789  29.002  12.834
 7324W        W79584  36.482  40.473  13.489
 7325W        W79585  12.307   5.211   2.232
 7326W        W79586   2.408  33.424  14.954
 7327W        W79587  28.609   8.182  12.387
 7328W        W79588  12.619   8.752  13.891
 7329W        W79589  14.143  15.088   1.930
 7330W        W79590  31.609  24.040  13.918
 7331W        W79591  10.642  41.457   1.349
 7332W        W79592  17.225  16.684  14.413
 7333W        W79593  15.778  21.168  11.579
 7334W        W79594  13.697   9.261  10.984
 7335W        W79595  33.536  25.015   0.826
 7336W        W79596  42.510   2.967  13.474
 7337W        W79597  22.523   1.390  14.831
 7338W        W79598  36.434  28.441   4.308
 7339W        W79599   8.299  41.360  14.021
 7340W        W79600  42.463  17.694   0.307
 7341W        W79601  34.399  41.437  11.575
 7342W        W79602  28.997  33.979   0.282
 7343W        W79603  15.224  12.238  11.395
 7344W        W79604   2.926   8.695   3.373
 7345W        W79605  25.155  28.170   4.132
 7346W        W79606   9.193  23.147  10.637
 7347W        W79607  40.469  41.462   1.805
 7348W        W79608  23.136  19.111  13.350
 7349W        W79609   6.244  22.071   3.268
 7350W        W79610  40.821  29.608   3.760
 7351W        W79611  19.243   5.437  14.780
 7352W        W79612  37.485  16.161  12.082
 7353W        W79613  30.987  25.679  14.461
 7354W        W79614  31.550  12.361  12.391
 7355W        W79615   2.829  39.425  11.611
 7356W        W79616  16.631  20.095   2.838
 7357W        W79617  17.695   0.845  10.917
 7358W        W79618  43.307  41.842   0.280
 7359W        W79619  38.558  26.652  11.038
 7360W        W79620   4.934  40.833   0.967
 7361W        W79621  29.080  37.476   2.250
 7362W        W79622  24.176  10.357  13.447
 7363W        W79623   6.722  22.040  12.067
 7364W        W79624  22.053  29.035  13.038
 7365W        W79625   1.413  40.408  12.090
 7366W        W79626  23.122   5.268  14.330
 7367W        W79627  32.546  30.075  14.003
 7368W        W79628  25.573   8.714  14.408
 7369W        W79629  41.535  20.246   3.304
 7370W        W79630   0.263  23.064   0.435
 7371W        W79631   9.292  15.802   4.342
 7372W        W79632  37.844   7.903  13.895
 7373W        W79633   4.314   1.318  13.008
 7374W        W79634  35.368  32.934   0.758
 7375W        W79635  23.631   1.831   3.306
 7376W        W79636  36.369   5.309   1.269
 7377W        W79637  38.893  28.027  11.022
 7378W        W79638  38.342  19.058   2.419
 7379W        W79639  37.420  22.645  12.006
 7380W        W79640  29.079  38.957   3.788
 7381W        W79641  36.408  30.941   3.170
 7382W        W79642  42.506  39.991  12.409
 7383W        W79643  21.650   2.856   0.961
 7384W        W79644  34.018  40.836   0.772
 7385W        W79645  35.550  26.087   3.720
 7386W        W79646  31.418  27.466  14.337
 7387W        W79647  44.264  30.533  14.275
 7388W        W79648   6.864  16.696  12.014
 7389W        W79649  37.395  33.462  11.397
 7390W        W79650  26.956  36.080   4.197
 7391W        W79651  34.903   0.279  13.837
 7392W        W79652  27.013   6.393   4.265
 7393W        W79653  30.019  13.759  14.867
 7394W        W79654  33.034   0.896   0.899
 7395W        W79655  30.484  32.577   4.324
 7396W        W79656   9.243  15.791  10.409
 7397W        W79657   0.923  10.298   3.834
 7398W        W79658  15.267  36.571   1.270
 7399W        W79659  22.506  22.252  14.480
 7400W        W79660  10.317  35.039  11.982
 7401W        W79661  21.035   5.352  12.449
 7402W        W79662  26.060  13.710   0.376
 7403W        W79663  41.034  12.740  11.510
 7404W        W79664  18.151  33.581  11.544
 7405W        W79665  43.018  33.995   3.228
 7406W        W79666  11.216  24.186  12.372
 7407W        W79667   2.469  33.507  12.480
 7408W        W79668  23.225  18.728  10.469
 7409W        W79669  13.630  42.859   1.262
 7410W        W79670  19.763  38.417   3.715
 7411W        W79671  10.186  11.788   1.290
 7412W        W79672   9.251  22.143   2.808
 7413W        W79673   4.773  34.887   4.654
 7414W        W79674   4.255  21.153   3.200
 7415W        W79675  10.711   1.303  12.840
 7416W        W79676  29.109  28.061   4.226
 7417W        W79677  18.708  12.198   4.767
 7418W        W79678  28.453   8.225   3.254
 7419W        W79679  42.379  41.295  12.945
 7420W        W79680  38.511   2.439  12.573
 7421W        W79681  18.140  28.182  10.500
 7422W        W79682  17.084  24.161   0.476
 7423W        W79683  29.554   4.429   2.261
 7424W        W79684  26.495  31.423  10.908
 7425W        W79685   7.757  34.388  14.440
 7426W        W79686  14.282  44.477  11.038
 7427W        W79687  38.476  29.457   4.328
 7428W        W79688   3.316  38.474   2.863
 7429W        W79689  12.694  23.618   3.153
 7430W        W79690  17.630  40.498   0.921
 7431W        W79691  40.973  23.575   2.730
 7432W        W79692  26.003   1.409   2.742
 7433W        W79693  44.912  24.977   0.360
 7434W        W79694  18.637  17.751   3.223
 7435W        W79695  43.807  35.107   4.267
 7436W        W79696  12.149   2.777  11.479
 7437W        W79697  15.785   2.909   4.287
 7438W        W79698  14.694  41.787  13.992
 7439W        W79699  39.475   1.418   1.210
 7440W        W79700   5.273  16.731  14.451
 7441W        W79701  37.490  16.803   3.742
 7442W        W79702  43.419  31.504  11.978
 7443W        W79703   9.748  31.137   2.697
 7444W        W79704   4.837  10.350   3.251
 7445W        W79705   2.243  16.717   1.921
 7446W        W79706  14.101  11.128   2.720
 7447W        W79707   9.773  17.631   2.875
 7448W        W79708  30.953  14.707  14.320
 7449W        W79709  12.849   1.331  13.045
 7450W        W79710  33.614   7.209  13.838
 7451W        W79711  19.130  40.480  11.489
 7452W        W79712  31.476  28.128  10.489
 7453W        W79713  11.238  41.474   1.391
 7454W        W79714  14.787   3.239  14.823
 7455W        W79715  17.207  16.121  10.585
 7456W        W79716  36.991  18.206  11.498
 7457W        W79717  37.048  13.675  11.510
 7458W        W79718  12.321   6.193  12.435
 7459W        W79719  42.423  42.894   1.374
 7460W        W79720  17.285  10.358   3.868
 7461W        W79721   8.358   2.249  12.881
 7462W        W79722  24.095   4.840  11.947
 7463W        W79723  28.101   6.283  14.406
 7464W        W79724  27.484  12.146  13.376
 7465W        W79725  25.610  20.552  12.967
 7466W        W79726  43.445  36.888  11.448
 7467W        W79727  21.193   3.441  12.958
 7468W        W79728  23.717  37.899  10.566
 7469W        W79729  10.710   9.394  14.983
 7470W        W79730  22.091  19.692  14.899
 7471W        W79731  44.282  19.159  11.447
 7472W        W79732  44.974  16.638  14.377
 7473W        W79733  44.973  14.143  11.493
 7474W        W79734  17.140  40.443  11.534
 7475W        W79735  38.850  15.239  11.443
 7476W        W79736   6.274   5.422   2.301
 7477W        W79737   7.371   6.285  11.458
 7478W        W79738  39.819  26.985  12.562
 7479W        W79739  10.636   6.684  12.502
 7480W        W79740  10.354  37.985  14.460
 7481W        W79741  42.029  23.557  11.525
 7482W        W79742  32.424  11.662   4.722
 7483W        W79743  21.143   3.736   1.375
 7484W        W79744   3.448  10.875   1.287
 7485W        W79745  16.291  13.688   1.826
 7486W        W79746  28.655   9.208   3.787
 7487W        W79747  39.356   7.714   2.196
 7488W        W79748   1.748  15.108  11.995
 7489W        W79749  38.930   8.253  12.448
 7490W        W79750  39.343  25.164  11.881
 7491W        W79751  41.786  41.977  10.576
 7492W        W79752  13.263  29.129   1.890
 7493W        W79753  36.364  27.180  10.563
 7494W        W79754  36.050  42.825  14.319
 7495W        W79755  19.678  27.522  10.603
 7496W        W79756  25.523  30.044   4.646
 7497W        W79757  18.559  33.625  13.986
 7498W        W79758   9.338   5.216  11.055
 7499W        W79759   0.302  34.531  12.542
 7500W        W79760  38.364  11.693  14.910
 7501W        W79761   7.304   0.887   2.318
 7502W        W79762  32.482  32.531   0.285
 7503W        W79763  36.950   8.286   1.915
 7504W        W79764   4.388  14.209  12.371
 7505W        W79765  11.170  29.526   0.369
 7506W        W79766  26.479  22.224  12.416
 7507W        W79767  28.574  21.074  12.866
 7508W        W79768  33.962  20.718  11.060
 7509W        W79769  10.866  44.793  12.870
 7510W        W79770  29.095  38.416   1.819
 7511W        W79771  21.646  24.078  10.071
 7512W        W79772  37.537  38.883   2.417
 7513W        W79773  25.573  33.064   2.229
 7514W        W79774  38.463  24.645  13.497
 7515W        W79775   2.769  25.628   4.765
 7516W        W79776  31.027  32.455   0.731
 7517W        W79777  37.076  22.189   3.152
 7518W        W79778  11.697  32.522  12.387
 7519W        W79779   3.811  26.610  14.823
 7520W        W79780  41.792  39.376   0.286
 7521W        W79781   3.440  29.584   5.236
 7522W        W79782  42.348  27.657  14.459
 7523W        W79783   8.362  31.609   4.803
 7524W        W79784  18.145  29.637  14.967
 7525W        W79785  34.998  30.655   5.227
 7526W        W79786  43.885  25.576   2.860
 7527W        W79787  11.821  41.962  10.605
 7528W        W79788  20.169  18.293  11.507
 7529W        W79789   6.709   9.826   0.754
 7530W        W79790  30.431   8.739   3.671
 7531W        W79791  29.133  28.566   0.816
 7532W        W79792  21.178  35.870  10.520
 7533W        W79793  22.656  14.105  11.430
 7534W        W79794  30.971  23.653   1.318
 7535W        W79795   9.276   1.959   5.200
 7536W        W79796  15.584  18.128  12.070
 7537W        W79797  19.101   3.362   1.757
 7538W        W79798  12.353  44.287  14.799
 7539W        W79799  18.235  23.615  13.390
 7540W        W79800  35.014  37.555  10.569
 7541W        W79801  32.971  21.160  12.843
 7542W        W79802  25.147  36.927   3.319
 7543W        W79803   5.323  41.884  11.601
 7544W        W79804  23.583   4.358   1.863
 7545W        W79805  16.772  25.503   3.662
 7546W        W79806  43.291   8.357   4.734
 7547W        W79807  25.640   8.882   9.980
 7548W        W79808  32.592  10.751  12.839
 7549W        W79809   7.320  37.840  12.825
 7550W        W79810  30.560   1.280   4.247
 7551W        W79811   4.788   3.218  10.920
 7552W        W79812  33.890  19.132  13.883
 7553W        W79813  11.684  34.965   2.338
 7554W        W79814   8.854  25.986   3.244
 7555W        W79815  43.891  11.366   0.789
 7556W        W79816  13.129  23.213   2.899
 7557W        W79817  11.676  20.546   3.792
 7558W        W79818  13.313  15.785  11.119
 7559W        W79819  20.611   9.244  13.315
 7560W        W79820  23.131  12.222  12.988
 7561W        W79821  41.476  22.232  14.001
 7562W        W79822   6.732  38.831   3.195
 7563W        W79823  15.803  29.667   4.237
 7564W        W79824  34.456  44.872   0.736
 7565W        W79825  22.035  37.998  13.541
 7566W        W79826  27.196  41.326   4.290
 7567W        W79827  21.120  19.612  10.968
 7568W        W79828   0.969   3.765  13.329
 7569W        W79829  26.056   2.250   2.744
 7570W        W79830  33.888  35.386   2.322
 7571W        W79831  12.690   5.282  10.949
 7572W        W79832  44.443  23.660   0.793
 7573W        W79833   6.681   8.272  10.415
 7574W        W79834  16.698  25.116   1.834
 7575W        W79835  11.264  42.431   0.359
 7576W        W79836  32.589  23.690   3.649
 7577W        W79837  12.169  21.735  13.411
 7578W        W79838  14.758  34.594  11.431
 7579W        W79839  11.170  26.987  14.379
 7580W        W79840  43.430  25.173  12.062
 7581W        W79841  34.466  30.546   1.917
 7582W        W79842  35.533   6.326  10.639
 7583W        W79843  30.601   6.193   0.250
 7584W        W79844  28.978  37.513   2.750
 7585W        W79845  20.099  28.494   0.313
 7586W        W79846  12.669  28.521   2.304
 7587W        W79847  13.651  15.167   2.263
 7588W        W79848  23.709  44.853  13.456
 7589W        W79849  21.072  41.843   1.326
 7590W        W79850  25.537  28.127   2.205
 7591W        W79851   4.879  17.121   3.178
 7592W        W79852  17.263   3.437   0.417
 7593W        W79853  44.390  22.637  13.958
 7594W        W79854  17.306  18.700   3.802
 7595W        W79855   7.673  31.022  14.429
 7596W        W79856   6.203  20.526   3.239
 7597W        W79857   7.791   6.861  11.120
 7598W        W79858  25.970  44.327  10.407
 7599W        W79859   0.334  16.284  10.633
 7600W        W79860  11.829  10.654  12.942
 7601W        W79861  16.219  44.845   3.227
 7602W        W79862  12.839  28.975   2.317
 7603W        W79863  15.662  43.345  11.422
 7604W        W79864   8.712   3.356   2.716
 7605W        W79865  30.443  17.798   4.257
 7606W        W79866  36.980  37.903  13.833
 7607W        W79867  32.434   9.748  11.046
 7608W        W79868  31.552  28.459   3.176
 7609W        W79869  35.868  12.831   4.181
 7610W        W79870  25.048  34.889  13.359
 7611W        W79871  32.512  32.530   2.415
 7612W        W79872  43.392  41.026  12.837
 7613W        W79873   1.348  44.927  11.535
 7614W        W79874  39.970   5.365  14.968
 7615W        W79875  20.182  19.629   2.822
 7616W        W79876  13.705  42.389   3.648
 7617W        W79877  22.668  26.672   1.435
 7618W        W79878  37.043   4.775   0.806
 7619W        W79879  22.743  15.084  13.931
 7620W        W79880   2.960   9.382   2.351
 7621W        W79881  42.873   0.797   1.756
 7622W        W79882  32.608  31.129   3.216
 7623W        W79883   3.860   2.904  11.558
 7624W        W79884  19.634  18.198  12.405
 7625W        W79885  17.275  16.112  12.840
 7626W        W79886  35.447  22.084   0.269
 7627W        W79887   9.247  33.005   2.694
 7628W        W79888  16.727  22.111   3.195
 7629W        W79889  22.746  23.570  14.420
 7630W        W79890   5.797  38.851   3.242
 7631W        W79891  18.262  42.013   1.242
 7632W        W79892  44.426  20.030   4.259
 7633W        W79893   4.335  32.898   0.372
 7634W        W79894  29.440  41.502  13.939
 7635W        W79895  16.088  18.608  13.968
 7636W        W79896  23.700   2.963  12.492
 7637W        W79897  19.740  12.802  12.923
 7638W        W79898  38.392   5.745   2.356
 7639W        W79899   3.393  15.726  10.486
 7640W        W79900   9.155  22.152  13.399
 7641W        W79901  22.161  37.534   1.831
 7642W        W79902  14.736   2.960   2.778
 7643W        W79903   9.803  10.185   4.819
 7644W        W79904  29.523  41.930   2.847
 7645W        W79905  30.992  17.258   4.783
 7646W        W79906   7.399  14.196  14.434
 7647W        W79907  43.311  25.060  12.990
 7648W        W79908  32.046  33.078   0.758
 7649W        W79909   7.851  34.089   0.389
 7650W        W79910   0.816   4.216  13.830
 7651W        W79911   2.335  27.102  12.055
 7652W        W79912  38.951  26.045   0.960
 7653W        W79913  22.016   8.897   3.726
 7654W        W79914  17.288  30.956  12.443
 7655W        W79915  20.244  24.179   0.928
 7656W        W79916  16.138  11.152   0.431
 7657W        W79917  44.276   2.372   3.368
 7658W        W79918  37.842  13.142  12.570
 7659W        W79919   2.924   4.916  11.019
 7660W        W79920  38.958  17.616  14.921
 7661W        W79921  42.920  40.331   4.222
 7662W        W79922   8.758  40.535   4.714
 7663W        W79923  17.753  19.272  14.809
 7664W        W79924   4.278  42.401   4.135
 7665W        W79925  44.499  40.336   0.822
 7666W        W79926  38.490   5.332   2.358
 7667W        W79927  44.886  42.888   4.353
 7668W        W79928   9.204  40.045   3.723
 7669W        W79929  34.869  11.311   3.375
 7670W        W79930  11.176  12.626  14.812
 7671W        W79931  37.509   1.445   4.800
 7672W        W79932   6.684  36.066  14.398
 7673W        W79933  36.913  36.392  12.467
 7674W        W79934  26.027   6.418   2.284
 7675W        W79935  24.019   2.318  13.412
 7676W        W79936  43.881  17.693   1.389
 7677W        W79937  35.579  43.417   2.238
 7678W        W79938   6.390  33.924   3.274
 7679W        W79939  38.989   5.352   2.736
 7680W        W79940  13.239  36.044   2.767
 7681W        W79941  20.209   3.719  13.503
 7682W        W79942  27.149   5.874  13.966
 7683W        W79943  40.431  12.853  13.002
 7684W        W79944  13.659  35.894  11.384
 7685W        W79945  40.373  24.628   2.799
 7686W        W79946  33.097   7.850   4.682
 7687W        W79947  23.048  28.062  11.563
 7688W        W79948   7.338   6.733  11.562
 7689W        W79949  31.987  41.321   1.733
 7690W        W79950   0.386  42.455   4.651
 7691W        W79951  10.695  26.150   1.242
 7692W        W79952   4.733  26.167   5.300
 7693W        W79953  16.592  20.129  13.049
 7694W        W79954  33.594  16.169   0.247
 7695W        W79955  41.530  42.928   2.341
 7696W        W79956   3.813   0.765   0.948
 7697W        W79957  14.764  13.677   4.141
 7698W        W79958  44.338  15.805   1.389
 7699W        W79959  40.514  25.636  13.954
 7700W        W79960   5.746   1.855   0.797
 7701W        W79961  35.869  11.285  10.920
 7702W        W79962  26.019  43.438  14.335
 7703W        W79963  30.915   8.269   3.638
 7704W        W79964  19.690   9.199   1.386
 7705W        W79965  39.481  16.696  11.865
 7706W        W79966  11.700  10.222  11.397
 7707W        W79967   4.936  38.549  10.138
 7708W        W79968  27.975  28.178  12.021
 7709W        W79969   4.913   9.835   0.328
 7710W        W79970  22.672  36.031  12.457
 7711W        W79971  19.206  43.007   1.376
 7712W        W79972  41.375  29.670   3.858
 7713W        W79973   9.679  23.545  11.097
 7714W        W79974  22.689  29.060   2.817
 7715W        W79975   1.833  19.613  11.581
 7716W        W79976  13.309  31.024  14.470
 7717W        W79977  19.123  13.270  11.517
 7718W        W79978  39.822  42.360  12.536
 7719W        W79979  11.284  28.648   0.371
 7720W        W79980   2.760  38.916   0.899
 7721W        W79981   4.813  37.474  13.030
 7722W        W79982  44.892  11.861  12.424
 7723W        W79983  33.997  19.641   4.719
 7724W        W79984   3.952  22.695   1.298
 7725W        W79985  31.548   7.261   1.351
 7726W        W79986   1.787  23.135  11.542
 7727W        W79987  13.665  32.034  11.884
 7728W        W79988  25.598  10.708   1.247
 7729W        W79989  26.967  30.018  13.058
 7730W        W79990  17.175  22.208   0.782
 7731W        W79991  30.428  37.877   4.768
 7732W        W79992   0.386  41.815  11.946
 7733W        W79993  28.527  44.260  12.567
 7734W        W79994  31.542  34.027  12.040
 7735W        W79995  13.160  12.801  13.030
 7736W        W79996   8.898   2.260  14.400
 7737W        W79997  10.378  42.318   9.950
 7738W        W79998  27.482  25.969   0.377
 7739W        W79999   1.464   3.343  13.005
 7740W        W80000  13.252  26.581  14.328
 7741W        W80001  30.093  37.581   2.712
 7742W        W80002  16.236   9.387   1.229
 7743W        W80003  22.012  20.560   1.695
 7744W        W80004   7.398   0.326  11.941
 7745W        W80005   7.745  27.089   3.272
 7746W        W80006   9.232  42.417   4.174
 7747W        W80007  44.360  41.902   3.218
 7748W        W80008  23.540  18.624  14.864
 7749W        W80009   6.768  30.602   3.781
 7750W        W80010  12.653  20.166   4.209
 7751W        W80011  29.153  34.994  10.512
 7752W        W80012  28.109   7.829   0.904
 7753W        W80013   8.741  27.527   2.386
 7754W        W80014  19.602  12.751  10.644
 7755W        W80015  14.339  11.264   2.284
 7756W        W80016   3.299  17.167  10.418
 7757W        W80017  20.658  39.421  11.454
 7758W        W80018  22.516   1.739   2.209
 7759W        W80019  43.836  39.821   4.612
 7760W        W80020  11.317  26.044  10.600
 7761W        W80021  22.081  35.442  14.778
 7762W        W80022  24.648  41.436   0.293
 7763W        W80023  12.272   9.317  14.280
 7764W        W80024  26.087   3.954   1.342
 7765W        W80025   2.877   1.814   1.345
 7766W        W80026   9.643  41.812   1.794
 7767W        W80027  12.634   2.841   3.800
 7768W        W80028  15.214  25.588  12.406
 7769W        W80029  11.734  13.108  10.558
 7770W        W80030  28.629  41.039  14.365
 7771W        W80031   2.341   6.895   0.753
 7772W        W80032  11.635   5.431   4.114
 7773W        W80033  21.623  28.983  11.053
 7774W        W80034  35.374  19.693  10.936
 7775W        W80035  32.080  29.583   3.758
 7776W        W80036  42.885  20.549   0.729
 7777W        W80037  33.558  36.347  13.006
 7778W        W80038  22.587  13.305  14.907
 7779W        W80039   4.381  25.524  10.413
 7780W        W80040   8.294  30.554   3.687
 7781W        W80041  12.670   7.305  10.958
 7782W        W80042  31.461  41.026   2.694
 7783W        W80043  37.976   1.469   3.234
 7784W        W80044   2.760  12.650  11.905
 7785W        W80045  17.219  26.016  13.044
 7786W        W80046   6.347  11.308   2.353
 7787W        W80047  41.978  16.601   0.882
 7788W        W80048  22.159  36.449   1.842
 7789W        W80049  28.678  11.634  13.859
 7790W        W80050  40.313  37.871  14.426
 7791W        W80051  31.507  41.529  11.968
 7792W        W80052   7.233  37.974  14.369
 7793W        W80053  17.584  43.465   4.149
 7794W        W80054  42.404  14.237  12.860
 7795W        W80055  14.689  30.033   3.857
 7796W        W80056  29.140  27.042   1.908
 7797W        W80057  39.853  34.115   1.276
 7798W        W80058  43.348  31.604  13.449
 7799W        W80059  28.526   8.746   3.811
 7800W        W80060  23.173  44.930  10.992
 7801W        W80061  44.281   7.694  12.574
 7802W        W80062  18.720  36.590   4.692
 7803W        W80063  16.670  34.591   0.266
 7804W        W80064   0.755  24.499   3.244
 7805W        W80065  27.692  21.259   4.222
 7806W        W80066  36.419  16.180  11.488
 7807W        W80067  39.879  39.024   4.208
 7808W        W80068  32.098   0.345   2.380
 7809W        W80069   1.801  32.631  10.560
 7810W        W80070   4.718   7.395  13.861
 7811W        W80071  23.713   9.312   1.779
 7812W        W80072  12.340  34.443  10.977
 7813W        W80073  43.945  32.630  11.045
 7814W        W80074  31.129  40.496  14.911
 7815W        W80075   3.261  12.244  14.278
 7816W        W80076   2.422  12.805   1.364
 7817W        W80077   4.934  40.516  11.914
 7818W        W80078   4.750  29.079  13.510
 7819W        W80079  16.689  34.902   2.832
 7820W        W80080   9.372   0.919  11.518
 7821W        W80081   1.968   4.907   2.899
 7822W        W80082   8.217  32.130  12.362
 7823W        W80083  24.016  39.461  10.985
 7824W        W80084   3.755   1.968   3.746
 7825W        W80085  40.441  16.206  14.779
 7826W        W80086  21.069  31.947   4.260
 7827W        W80087   2.835  12.319   4.282
 7828W        W80088  26.162  10.243   1.384
 7829W        W80089  10.312   2.742  12.521
 7830W        W80090  13.184  17.658  13.904
 7831W        W80091  37.023  20.536  11.510
 7832W        W80092  31.080  27.094  11.912
 7833W        W80093  34.080  16.608   3.654
 7834W        W80094   1.749  34.427   1.812
 7835W        W80095   7.197   1.876  13.443
 7836W        W80096  43.781  33.483  10.514
 7837W        W80097  15.157   8.274   1.763
 7838W        W80098  29.010  25.005  12.038
 7839W        W80099  25.986  19.277  12.996
 7840W        W80100   7.411  40.015  13.468
 7841W        W80101  17.747  43.484   2.834
 7842W        W80102  19.148  33.505  13.370
 7843W        W80103  10.183  34.443  14.916
 7844W        W80104  27.025  15.618  10.005
 7845W        W80105  13.709  31.977   1.738
 7846W        W80106   7.669   7.373   2.691
 7847W        W80107  28.437  41.947  12.852
 7848W        W80108   3.247   8.175   4.244
 7849W        W80109  19.133  40.399   1.769
 7850W        W80110   0.772  26.988   1.221
 7851W        W80111  26.075  30.525   4.243
 7852W        W80112   6.853  36.869  12.946
 7853W        W80113  39.344   0.938  14.366
 7854W        W80114   0.342  26.142   3.768
 7855W        W80115   1.404  18.588  14.385
 7856W        W80116  20.049  15.777   0.927
 7857W        W80117   8.252  23.674   4.263
 7858W        W80118  34.398  44.360  13.874
 7859W        W80119  30.117   4.935   3.862
 7860W        W80120  44.484  14.761   5.244
 7861W        W80121   1.407  20.534   2.792
 7862W        W80122  42.005  36.496   1.314
 7863W        W80123   1.342  26.003  11.858
 7864W        W80124  40.025  35.362   4.125
 7865W        W80125  28.471   1.298   1.764
 7866W        W80126   0.327   4.756  10.614
 7867W        W80127  28.662   4.372  14.912
 7868W        W80128  32.395  19.755  13.974
 7869W        W80129   1.474  38.561   2.225
 7870W        W80130  17.247  42.965  14.000
 7871W        W80131  37.470  43.509  13.980
 7872W        W80132   3.808   9.304  14.768
 7873W        W80133  10.247  42.998  11.535
 7874W        W80134  35.987   5.230   0.442
 7875W        W80135   3.885  20.257   4.649
 7876W        W80136  34.027  25.111   1.269
 7877W        W80137  44.352   4.399  12.472
 7878W        W80138  43.787   8.341  10.959
 7879W        W80139  24.091  41.922  10.114
 7880W        W80140  23.022  12.673  11.478
 7881W        W80141  31.475  19.554  14.415
 7882W        W80142   5.768   8.771   3.328
 7883W        W80143  34.429  38.929   1.781
 7884W        W80144  35.475  19.718  12.505
 7885W        W80145  37.909  41.022  12.902
 7886W        W80146   3.943  37.483   1.783
 7887W        W80147  40.346  13.680  13.467
 7888W        W80148  30.928  34.105   0.400
 7889W        W80149  36.552   8.899   5.615
 7890W        W80150  14.290   4.896  13.511
 7891W        W80151  29.528   3.360   2.836
 7892W        W80152  26.125  37.907  11.865
 7893W        W80153   5.905  21.656   4.651
 7894W        W80154   2.855   0.415   2.760
 7895W        W80155  28.639  17.647   3.273
 7896W        W80156  11.627  17.174   5.145
 7897W        W80157  35.088  10.808   2.902
 7898W        W80158  25.118  38.997  12.853
 7899W        W80159   3.460   8.269   1.808
 7900W        W80160  26.595   9.839  13.400
 7901W        W80161  13.242  14.613  14.935
 7902W        W80162  32.532  36.436   3.833
 7903W        W80163   2.941  43.274  10.637
 7904W        W80164  26.667  41.804   3.164
 7905W        W80165  12.637   8.166   2.774
 7906W        W80166  38.451  33.053  13.799
 7907W        W80167  43.299   0.785  10.578
 7908W        W80168  23.037  29.485   4.113
 7909W        W80169  41.027  36.355   2.190
 7910W        W80170  38.449  43.304   4.185
 7911W        W80171  44.299  34.424   1.915
 7912W        W80172   3.364  34.489  11.515
 7913W        W80173   1.762  36.471   1.364
 7914W        W80174  28.496  43.910   1.302
 7915W        W80175   5.385  14.220   2.775
 7916W        W80176  35.489  24.170   0.249
 7917W        W80177   3.446  16.768  13.458
 7918W        W80178  42.323   6.747  14.996
 7919W        W80179  22.741   3.777  13.974
 7920W        W80180   1.809   1.350  12.829
 7921W        W80181  26.192  21.251  13.346
 7922W        W80182  44.841   0.494  13.344
 7923W        W80183   8.329  27.101  14.286
 7924W        W80184  34.380  40.803   4.229
 7925W        W80185   0.837  30.987   4.810
 7926W        W80186  17.715  16.273  12.475
 7927W        W80187  15.693  36.085   1.260
 7928W        W80188  19.726  16.318  10.479
 7929W        W80189  37.486  39.473  11.039
 7930W        W80190   6.189   6.322   3.663
 7931W        W80191  34.998  18.096  10.158
 7932W        W80192   0.345   0.904   4.716
 7933W        W80193   9.351   4.425   4.644
 7934W        W80194  24.644  39.822  11.025
 7935W        W80195  23.706  13.678  10.983
 7936W        W80196  41.310  14.815  10.641
 7937W        W80197  39.512  23.565   2.677
 7938W        W80198  40.906  25.029   1.840
 7939W        W80199  40.820  13.667  12.954
 7940W        W80200  42.366   5.691  10.460
 7941W        W80201  27.568  35.486  12.348
 7942W        W80202  40.541  38.503   1.212
 7943W        W80203  11.673  32.972   1.342
 7944W        W80204  33.882  31.529  13.435
 7945W        W80205  23.997   2.876   2.218
 7946W        W80206   1.342  18.252  10.573
 7947W        W80207  19.577  13.162  11.540
 7948W        W80208  16.652  28.639  11.575
 7949W        W80209  12.824   7.310  13.866
 7950W        W80210   3.814  20.033   3.155
 7951W        W80211  37.379  31.920  12.525
 7952W        W80212  20.075  43.836   2.737
 7953W        W80213  33.078  15.127  11.884
 7954W        W80214  25.028  34.936   2.813
 7955W        W80215  12.329  38.370   0.275
 7956W        W80216  31.968  29.937   0.784
 7957W        W80217  26.555  31.583  13.946
 7958W        W80218  41.892  11.292  11.563
 7959W        W80219   2.934  32.006  10.473
 7960W        W80220  21.518  42.504  14.870
 7961W        W80221  28.613  42.523  13.338
 7962W        W80222  22.524  32.133  11.090
 7963W        W80223  39.351   4.371   0.463
 7964W        W80224  41.013  21.207  12.489
 7965W        W80225  20.185  33.406  14.476
 7966W        W80226   4.805  34.869   2.184
 7967W        W80227  36.016   6.295   4.311
 7968W        W80228  18.599   6.404  13.543
 7969W        W80229  30.652  14.796  14.004
 7970W        W80230  27.609  41.341  12.903
 7971W        W80231  26.116  16.109  14.425
 7972W        W80232  25.205   9.795  11.966
 7973W        W80233   1.441   9.218  12.955
 7974W        W80234  15.256   2.466   4.192
 7975W        W80235  29.637   2.797   3.372
 7976W        W80236  20.543  40.391  11.053
 7977W        W80237   8.319  24.619  13.958
 7978W        W80238  25.481  21.683   1.295
 7979W        W80239  25.541  44.800  14.337
 7980W        W80240  37.487   5.925   1.717
 7981W        W80241  23.993   6.185  10.919
 7982W        W80242  37.439  40.038  12.027
 7983W        W80243   2.358  27.056  11.541
 7984W        W80244   8.865   8.202  11.393
 7985W        W80245  19.652  30.960  13.426
 7986W        W80246  26.457  42.358   0.296
 7987W        W80247   9.842  12.288   4.243
 7988W        W80248  39.476   9.232   3.189
 7989W        W80249  14.238  16.118  11.954
 7990W        W80250  31.964  20.068   4.737
 7991W        W80251  31.151  43.942  14.007
 7992W        W80252  17.093  25.665  13.858
 7993W        W80253  11.228  14.693  14.930
 7994W        W80254  26.466  36.363  12.510
 7995W        W80255  24.705  11.760   2.810
 7996W        W80256  36.081  19.714   3.845
 7997W        W80257   1.766  11.671  11.412
 7998W        W80258  11.151  18.645  14.433
 7999W        W80259  44.808   9.687   0.948
 8000W        W80260  34.067  26.148   4.824
 8001W        W80261   5.360  32.042  12.856
 8002W        W80262  14.664   0.967   4.160
 8003W        W80263  14.741  30.447   0.776
 8004W        W80264  29.525   3.331  13.436
 8005W        W80265  33.904   8.179  13.968
 8006W        W80266  11.205   2.755  11.421
 8007W        W80267  35.406  32.898  14.822
 8008W        W80268  16.710  29.148  13.021
 8009W        W80269  36.384   3.279  14.863
 8010W        W80270  11.758  32.463   4.803
 8011W        W80271  25.477  41.029  10.522
 8012W        W80272  39.466  38.408   0.757
 8013W        W80273  26.695  29.074  13.974
 8014W        W80274  44.465  29.126   3.239
 8015W        W80275  17.286  14.332  10.122
 8016W        W80276  31.621  23.521  12.941
 8017W        W80277  30.463  33.066   4.126
 8018W        W80278  30.649  22.673  12.866
 8019W        W80279   3.905  24.006  13.456
 8020W        W80280   7.312   0.941  14.027
 8021W        W80281   9.823  29.563   4.601
 8022W        W80282  36.009  35.986   3.252
 8023W        W80283   1.430   1.880  10.421
 8024W        W80284  22.591  15.109  11.087
 8025W        W80285  37.830   9.729  12.983
 8026W        W80286  44.874  24.168  14.407
 8027W        W80287  10.250   8.677   3.688
 8028W        W80288  15.111  34.081  11.481
 8029W        W80289  35.427  35.852  14.797
 8030W        W80290  22.642  25.568   2.696
 8031W        W80291  11.215  24.700   4.675
 8032W        W80292  10.857  38.938  12.040
 8033W        W80293   5.700  39.879  10.955
 8034W        W80294  35.910  10.853   1.237
 8035W        W80295  41.968  21.559  14.990
 8036W        W80296  36.068   7.852   4.213
 8037W        W80297  11.792  12.204  14.796
 8038W        W80298  34.907  40.368  13.041
 8039W        W80299  34.474   0.974  11.399
 8040W        W80300  17.217  19.236  12.941
 8041W        W80301  25.125  15.234   3.338
 8042W        W80302  21.263   8.278   4.220
 8043W        W80303  18.629  14.658  14.947
 8044W        W80304  18.594  33.896  12.889
 8045W        W80305  37.412   0.799   2.211
 8046W        W80306   3.359  31.544   3.173
 8047W        W80307  22.123  13.324  14.945
 8048W        W80308  15.297  10.276   1.847
 8049W        W80309  21.168  20.043   4.635
 8050W        W80310  28.460  24.638   3.709
 8051W        W80311  40.932  21.598  11.050
 8052W        W80312  25.713  39.844   4.267
 8053W        W80313  23.066  40.313   3.782
 8054W        W80314  24.171  24.033  10.575
 8055W        W80315  31.541   2.832   2.867
 8056W        W80316   3.254   4.400   2.386
 8057W        W80317  37.946  30.628   4.250
 8058W        W80318   6.895  27.073  11.464
 8059W        W80319   5.424  33.521   3.655
 8060W        W80320  27.577  44.828  14.904
 8061W        W80321   7.727  22.219   3.830
 8062W        W80322   4.829  12.785   2.234
 8063W        W80323  22.051   4.939  10.998
 8064W        W80324  21.595  36.986   4.209
 8065W        W80325  20.124  23.667  11.528
 8066W        W80326  43.997   3.235  12.402
 8067W        W80327  37.385  20.150  12.400
 8068W        W80328  22.032  28.041  14.946
 8069W        W80329  38.986  17.179   2.257
 8070W        W80330  32.593  15.148  13.046
 8071W        W80331   3.256  42.527  11.090
 8072W        W80332  35.401   3.935  14.438
 8073W        W80333  20.137  22.051  11.392
 8074W        W80334  21.025  43.009  11.974
 8075W        W80335  19.082  10.663   3.761
 8076W        W80336  29.628  22.241   4.154
 8077W        W80337   5.197  25.565  10.131
 8078W        W80338  39.541   2.309  10.590
 8079W        W80339   4.790  44.320   2.299
 8080W        W80340  36.988  16.223   3.347
 8081W        W80341  43.008  12.265   3.357
 8082W        W80342  28.055  25.632  13.496
 8083W        W80343  40.904  25.573  11.004
 8084W        W80344  20.085   4.871  12.985
 8085W        W80345  10.745  10.211  12.560
 8086W        W80346  10.769  32.070   9.939
 8087W        W80347   1.279  28.450   2.183
 8088W        W80348  38.554  27.536  13.539
 8089W        W80349  18.741  44.347   4.714
 8090W        W80350  32.946   9.817   3.192
 8091W        W80351  15.709  44.893   2.729
 8092W        W80352   0.896  15.654  14.330
 8093W        W80353  11.257  22.034   1.317
 8094W        W80354   8.723  39.560   4.182
 8095W        W80355  26.192  10.785  11.099
 8096W        W80356  44.788   1.870   1.213
 8097W        W80357   1.950   2.308   2.853
 8098W        W80358  22.139  23.992  14.773
 8099W        W80359  22.182  32.066   0.821
 8100W        W80360  10.874   0.348   2.218
 8101W        W80361  34.589  33.063  12.044
 8102W        W80362   0.791  44.407   1.802
 8103W        W80363  21.104  26.647  14.835
 8104W        W80364  31.013  35.597   2.308
 8105W        W80365  44.337  41.009  12.001
 8106W        W80366   4.450  18.222  12.990
 8107W        W80367  22.126  23.515  14.779
 8108W        W80368  37.049  12.219   4.207
 8109W        W80369  36.869  28.146  12.895
 8110W        W80370  24.513   9.263  11.572
 8111W        W80371   4.739  11.200   0.371
 8112W        W80372  18.704   1.879  10.057
 8113W        W80373   5.708  16.080   3.174
 8114W        W80374  18.778   6.714  13.994
 8115W        W80375  13.652  14.758  11.402
 8116W        W80376  28.546  24.723  12.889
 8117W        W80377  29.651  15.615  13.410
 8118W        W80378  42.951  17.786   3.360
 8119W        W80379  41.340   0.798  13.949
 8120W        W80380  25.983  16.632   4.698
 8121W        W80381   5.693  38.871   4.167
 8122W        W80382  20.759  36.572  12.877
 8123W        W80383   2.902  27.598   1.705
 8124W        W80384  15.184  19.058  12.526
 8125W        W80385  20.028  22.593   1.930
 8126W        W80386  18.259  28.514  12.038
 8127W        W80387  24.230  17.264  10.437
 8128W        W80388  23.058   8.877   3.825
 8129W        W80389   7.898  30.566   5.133
 8130W        W80390  10.685  22.626  10.505
 8131W        W80391  39.020  34.373  14.487
 8132W        W80392   0.335  27.578  13.061
 8133W        W80393  23.619   8.231   1.449
 8134W        W80394  13.675  33.044   2.346
 8135W        W80395  34.065  28.569   1.344
 8136W        W80396  41.932  26.616  13.524
 8137W        W80397  14.631  28.975   1.381
 8138W        W80398  44.947  11.701   2.203
 8139W        W80399   3.455   3.780   3.842
 8140W        W80400  31.641  26.700   0.382
 8141W        W80401  26.678  24.511  13.849
 8142W        W80402   8.684   4.740  10.995
 8143W        W80403  11.865  39.368  14.971
 8144W        W80404  40.980  32.075   5.255
 8145W        W80405  38.030   3.256   4.827
 8146W        W80406  30.464   7.701   0.302
 8147W        W80407  37.397  40.316   0.756
 8148W        W80408  43.829  30.491  11.871
 8149W        W80409  36.388  39.539   2.717
 8150W        W80410   3.904  36.962  11.889
 8151W        W80411  13.287   4.888  11.016
 8152W        W80412  44.826   7.843  14.393
 8153W        W80413  42.396  43.774  13.859
 8154W        W80414   2.402  23.199  14.797
 8155W        W80415  25.578  25.095   4.141
 8156W        W80416   4.374  29.472   1.790
 8157W        W80417  40.029  24.995   1.886
 8158W        W80418   8.730   6.745  10.468
 8159W        W80419   8.882   2.317  10.421
 8160W        W80420  20.130  37.339   0.482
 8161W        W80421  19.120  10.705   4.230
 8162W        W80422  13.221  30.132  12.072
 8163W        W80423  22.036   6.784   4.828
 8164W        W80424  15.206  33.087   3.268
 8165W        W80425  12.329   7.194  11.386
 8166W        W80426  41.415  18.690  14.389
 8167W        W80427  13.194  29.652   4.218
 8168W        W80428  38.386   5.205  13.943
 8169W        W80429   9.796  15.695   2.899
 8170W        W80430  26.059   0.299   3.820
 8171W        W80431  38.829  13.697  12.057
 8172W        W80432   4.778  37.499   2.763
 8173W        W80433  30.626  13.678   1.730
 8174W        W80434  25.549  18.590  14.433
 8175W        W80435  22.514  27.627   3.659
 8176W        W80436  42.796  31.921   0.948
 8177W        W80437  27.569  31.070   5.091
 8178W        W80438  11.143   3.324  13.853
 8179W        W80439  40.516  19.670   1.894
 8180W        W80440  27.975  20.749  12.827
 8181W        W80441  33.022  41.988  13.322
 8182W        W80442  43.936   8.665   4.218
 8183W        W80443  19.056  19.204  13.538
 8184W        W80444   4.841  25.662  10.054
 8185W        W80445  18.143  30.064  14.447
 8186W        W80446  14.285  17.784  14.995
 8187W        W80447   0.838  14.276   2.399
 8188W        W80448   7.761  40.513  11.124
 8189W        W80449   4.807   0.913  10.921
 8190W        W80450  38.375  11.254  14.793
 8191W        W80451  18.628   8.196  13.468
 8192W        W80452  25.511  28.115   3.291
 8193W        W80453  13.792  13.675   1.385
 8194W        W80454  28.639  37.366  14.333
 8195W        W80455  23.567  41.034   2.873
 8196W        W80456  32.922  32.887  10.485
 8197W        W80457  35.423  32.990  10.414
 8198W        W80458   4.727  12.736  10.052
 8199W        W80459  18.102  15.093  11.038
 8200W        W80460  30.086  37.916   2.292
 8201W        W80461  26.074  14.684  11.557
 8202W        W80462  35.528  23.060   1.401
 8203W        W80463   9.827  42.978  14.510
 8204W        W80464   2.264  12.195  12.535
 8205W        W80465  43.432  26.501  10.077
 8206W        W80466  25.484  41.958   2.181
 8207W        W80467  16.153  18.089  14.432
 8208W        W80468  16.665  41.877  11.887
 8209W        W80469  33.420  23.027  12.555
 8210W        W80470  30.052  43.002  13.898
 8211W        W80471  26.631   0.842  12.571
 8212W        W80472  44.467  11.267   3.653
 8213W        W80473   4.905   4.363  12.974
 8214W        W80474  12.856   6.697  11.006
 8215W        W80475  41.509  44.902   0.426
 8216W        W80476  30.613  11.729   1.257
 8217W        W80477  23.146  18.735   1.403
 8218W        W80478  30.632   2.315  13.314
 8219W        W80479  21.554  34.887  14.495
 8220W        W80480  33.442  11.673  10.961
 8221W        W80481  18.193  43.436  14.822
 8222W        W80482  19.061   4.728  12.348
 8223W        W80483   7.332   8.207  13.392
 8224W        W80484  31.521  30.609  12.082
 8225W        W80485  23.063   1.919  14.832
 8226W        W80486  41.499  13.286   4.196
 8227W        W80487  38.923  38.006  12.407
 8228W        W80488  38.856  24.173   5.196
 8229W        W80489   9.784   9.370  13.008
 8230W        W80490   1.468  26.560  11.388
 8231W        W80491  23.212  18.200   2.883
 8232W        W80492   3.360  33.461  12.350
 8233W        W80493  25.053  10.301   4.620
 8234W        W80494  28.536  18.588   2.215
 8235W        W80495  12.683  40.832   4.247
 8236W        W80496  42.523  33.963  10.978
 8237W        W80497  39.011  26.190  13.867
 8238W        W80498  34.034   9.818   2.275
 8239W        W80499  28.506   4.799   3.652
 8240W        W80500  13.773  21.641  14.481
 8241W        W80501  25.999  11.634  10.548
 8242W        W80502   8.179  25.972   3.308
 8243W        W80503  30.911  28.977   3.350
 8244W        W80504  12.830   9.814   0.855
 8245W        W80505  38.473  38.476  12.990
 8246W        W80506  35.061  10.217  13.350
 8247W        W80507  13.833  26.089  13.454
 8248W        W80508  28.656  14.633   1.245
 8249W        W80509  40.955  24.180   1.878
 8250W        W80510  23.680  25.989  13.327
 8251W        W80511  23.646  38.823   0.852
 8252W        W80512  15.703  13.177   2.876
 8253W        W80513  39.951  35.012  11.581
 8254W        W80514   1.760  32.904  13.859
 8255W        W80515  28.619   9.341  10.445
 8256W        W80516  13.264  31.538   3.207
 8257W        W80517  12.781  37.065   2.314
 8258W        W80518  24.068  27.037  10.966
 8259W        W80519  38.996   2.861   0.374
 8260W        W80520  10.245   8.681   2.705
 8261W        W80521  17.138  21.244   4.697
 8262W        W80522  22.568   9.746   0.780
 8263W        W80523  36.475   6.228   3.760
 8264W        W80524  40.391   3.862  10.994
 8265W        W80525   8.691   8.265  14.430
 8266W        W80526   9.747  23.504   0.865
 8267W        W80527  32.521   4.719   0.751
 8268W        W80528  25.613  41.906  13.870
 8269W        W80529  22.034  18.590   0.952
 8270W        W80530   2.398  12.315   1.293
 8271W        W80531  24.144  16.691  14.878
 8272W        W80532  44.790   8.841  14.497
 8273W        W80533  38.406   4.701  13.881
 8274W        W80534  10.795  21.590  13.496
 8275W        W80535  38.520   1.911  12.924
 8276W        W80536  13.204  22.673  14.815
 8277W        W80537  20.175   6.207   1.871
 8278W        W80538  40.369  26.542   1.263
 8279W        W80539  12.119   4.312   2.739
 8280W        W80540   2.286  16.314   2.667
 8281W        W80541  24.015  27.646  14.359
 8282W        W80542  30.476  40.529   2.366
 8283W        W80543  24.708  25.218   2.709
 8284W        W80544  24.606   9.691  14.405
 8285W        W80545  12.764  41.987  11.007
 8286W        W80546  16.087  43.383  11.922
 8287W        W80547  13.717   2.950   1.707
 8288W        W80548  35.026  36.922   3.646
 8289W        W80549   7.401  43.814   0.328
 8290W        W80550  28.015  23.623   1.319
 8291W        W80551  28.987  31.928   0.854
 8292W        W80552  17.710  44.334  14.804
 8293W        W80553  42.852  37.552   2.880
 8294W        W80554  30.073  22.563  11.435
 8295W        W80555  19.064  35.108  14.283
 8296W        W80556   1.811  34.420  11.604
 8297W        W80557  39.993  29.627  12.365
 8298W        W80558  32.455   1.832   3.157
 8299W        W80559   3.333  17.654   4.833
 8300W        W80560   9.233  39.889   3.377
 8301W        W80561  18.618  40.521   2.327
 8302W        W80562  26.056  43.497  13.962
 8303W        W80563   7.765   1.310  12.506
 8304W        W80564  14.195  33.898   3.322
 8305W        W80565  19.722  33.624  11.987
 8306W        W80566  39.449  21.204   1.760
 8307W        W80567  23.585  34.531   1.247
 8308W        W80568  11.772  21.239   4.708
 8309W        W80569  36.930  30.465  14.974
 8310W        W80570  35.004   7.773   3.702
 8311W        W80571  18.206  40.417   0.371
 8312W        W80572  36.380  19.690  12.340
 8313W        W80573  40.899  29.434  13.903
 8314W        W80574  34.403  43.482  13.002
 8315W        W80575  16.643  28.162   1.770
 8316W        W80576   5.728   7.323  12.499
 8317W        W80577  27.614  23.653   3.782
 8318W        W80578  21.597  28.020  11.983
 8319W        W80579  10.773  37.551  13.040
 8320W        W80580  32.937  31.536  13.844
 8321W        W80581  33.086  20.185   9.548
 8322W        W80582  43.812  27.572  11.483
 8323W        W80583  29.127  16.106  14.927
 8324W        W80584  20.063  18.255  10.623
 8325W        W80585  13.712  39.488   1.895
 8326W        W80586  34.596  24.020  11.939
 8327W        W80587  30.524  22.551   3.310
 8328W        W80588  11.350  32.977  14.283
 8329W        W80589  12.242   5.884  11.867
 8330W        W80590  21.204  16.190   3.665
 8331W        W80591  37.418   3.890  10.581
 8332W        W80592  10.857   6.289  13.530
 8333W        W80593  35.043  24.493   4.304
 8334W        W80594  30.144  43.936  11.385
 8335W        W80595  42.932  33.475  13.860
 8336W        W80596  21.623   5.789   0.913
 8337W        W80597  31.903   3.715  12.987
 8338W        W80598   9.174  27.692   2.410
 8339W        W80599  42.796   9.315   4.142
 8340W        W80600   3.417  31.474  14.981
 8341W        W80601   8.691  18.099  12.895
 8342W        W80602  43.376  16.184   4.787
 8343W        W80603  39.014  43.364   0.884
 8344W        W80604  21.112  22.013   2.275
 8345W        W80605   6.805   5.921   0.875
 8346W        W80606  18.688  42.975  12.343
 8347W        W80607  32.962   7.862   0.259
 8348W        W80608   7.406   0.421   2.818
 8349W        W80609  11.715  26.557   2.801
 8350W        W80610  42.883   9.198   3.281
 8351W        W80611  22.647  10.356  14.937
 8352W        W80612  10.257   8.688   0.883
 8353W        W80613  30.456  29.605  14.845
 8354W        W80614  39.514  26.041   2.798
 8355W        W80615  29.145  29.138   4.248
 8356W        W80616  29.068  31.060   2.856
 8357W        W80617  43.513  26.612   2.331
 8358W        W80618  26.622  13.753  13.945
 8359W        W80619  21.020   4.399   0.859
 8360W        W80620  26.148  18.248   0.896
 8361W        W80621   6.246   7.762  14.478
 8362W        W80622  32.429   5.788   0.468
 8363W        W80623   7.858  37.859  13.345
 8364W        W80624  35.004  37.929   0.272
 8365W        W80625  35.489  10.797   4.722
 8366W        W80626  32.968  14.268   2.296
 8367W        W80627  33.411  11.751  10.415
 8368W        W80628   4.355  19.616  14.374
 8369W        W80629  22.194  39.059   1.345
 8370W        W80630  28.627  43.476  12.960
 8371W        W80631  21.758  31.408  11.104
 8372W        W80632  22.149  43.384   4.155
 8373W        W80633  27.182  33.014  14.820
 8374W        W80634   9.755  27.021  14.764
 8375W        W80635   1.261  41.982  12.435
 8376W        W80636  42.982  35.474  13.401
 8377W        W80637  16.604  18.645   1.384
 8378W        W80638  41.459  39.018   0.951
 8379W        W80639   9.279  39.476  12.903
 8380W        W80640  34.103  22.532   2.318
 8381W        W80641  44.000  44.999   0.886
 8382W        W80642  38.978  43.270   0.364
 8383W        W80643  39.029   8.706   0.387
 8384W        W80644  24.537  28.013  14.957
 8385W        W80645  14.119   5.387   4.233
 8386W        W80646  29.531  35.971  10.992
 8387W        W80647  44.775  13.615   1.876
 8388W        W80648  22.551   1.765  12.424
 8389W        W80649   9.668   1.336  12.487
 8390W        W80650  41.450  13.122   0.443
 8391W        W80651  41.907  44.963   1.261
 8392W        W80652  15.748  39.445   2.800
 8393W        W80653   1.897  18.119  10.966
 8394W        W80654   4.841  15.259  11.526
 8395W        W80655  12.313  19.159  11.960
 8396W        W80656  39.871  41.312   0.389
 8397W        W80657  14.265   4.810   2.772
 8398W        W80658  43.910  19.061  11.376
 8399W        W80659  37.846  26.067  10.633
 8400W        W80660  32.532  36.984  11.120
 8401W        W80661  24.002  44.989  14.939
 8402W        W80662  13.757   5.929  11.416
 8403W        W80663  18.709  36.923   4.206
 8404W        W80664  19.666  15.263   2.727
 8405W        W80665   3.810   6.847  10.946
 8406W        W80666  39.436  26.537   0.378
 8407W        W80667  19.648  33.417   3.802
 8408W        W80668   1.923  20.531  14.954
 8409W        W80669  29.928   7.680   0.888
 8410W        W80670  21.055  18.677  13.911
 8411W        W80671  29.670  34.888   0.905
 8412W        W80672   0.856  16.795  12.444
 8413W        W80673  38.911  35.474   3.169
 8414W        W80674  18.629  21.676   2.289
 8415W        W80675  36.427  25.210   1.750
 8416W        W80676  19.246   5.384   2.396
 8417W        W80677  25.697   4.770   3.852
 8418W        W80678  39.517  11.231  13.060
 8419W        W80679  22.711  20.168  14.314
 8420W        W80680  36.382  44.928   2.389
 8421W        W80681  28.997  15.652  14.861
 8422W        W80682  30.542   8.889  14.809
 8423W        W80683  36.574  25.607  11.400
 8424W        W80684  33.006  34.035  10.904
 8425W        W80685  37.407   4.259   4.204
 8426W        W80686  10.259  25.663  10.587
 8427W        W80687   5.355  42.958  12.042
 8428W        W80688   9.830   9.782   1.435
 8429W        W80689  39.959   1.816  12.359
 8430W        W80690  39.329  43.514  14.386
 8431W        W80691   4.294   4.736  13.314
 8432W        W80692   4.864   4.419   0.776
 8433W        W80693  14.622  43.797   2.851
 8434W        W80694  34.998   0.345   4.225
 8435W        W80695  35.454  37.900  11.494
 8436W        W80696  42.406   6.687  11.445
 8437W        W80697  29.152  22.075   0.436
 8438W        W80698  20.185  19.657   3.645
 8439W        W80699  10.695   5.283   2.832
 8440W        W80700  20.249   5.231   0.476
 8441W        W80701  21.143  29.518   0.766
 8442W        W80702  11.317  11.365   2.826
 8443W        W80703  44.485  44.916  13.445
 8444W        W80704  11.648  24.029  10.584
 8445W        W80705  39.479  24.218  11.934
 8446W        W80706   5.922  31.905  13.321
 8447W        W80707  20.731  20.617   9.942
 8448W        W80708  20.648  43.911  11.425
 8449W        W80709  15.233  42.824   4.649
 8450W        W80710  44.007  43.773  13.465
 8451W        W80711  44.424   3.723   4.265
 8452W        W80712  24.023  15.696   1.916
 8453W        W80713   5.915  39.973   1.292
 8454W        W80714   6.402  43.772  13.837
 8455W        W80715   2.838  16.568   4.286
 8456W        W80716  18.660  32.416  10.953
 8457W        W80717  31.575  29.066  14.780
 8458W        W80718   2.406  37.560   4.633
 8459W        W80719  39.882  12.337  11.994
 8460W        W80720  19.256  35.857  10.434
 8461W        W80721  22.615  33.115   3.678
 8462W        W80722  42.963  32.087   3.800
 8463W        W80723  43.505  33.089  12.850
 8464W        W80724  15.676  25.481  14.029
 8465W        W80725   7.187   7.307  12.507
 8466W        W80726  32.564  40.412  14.402
 8467W        W80727  37.897  16.688   3.289
 8468W        W80728  13.175  39.327  10.482
 8469W        W80729   4.829  16.735   3.810
 8470W        W80730  12.180  29.475  11.997
 8471W        W80731  21.152  35.093   4.336
 8472W        W80732  16.621  35.087  11.943
 8473W        W80733  34.570  34.937  11.484
 8474W        W80734   1.318  42.312  13.016
 8475W        W80735   6.308  30.513   0.403
 8476W        W80736  19.577  14.607   3.852
 8477W        W80737  31.550   9.687   3.248
 8478W        W80738  23.216  38.883  13.367
 8479W        W80739  19.100  24.605   3.147
 8480W        W80740   4.732  19.709  11.023
 8481W        W80741   7.240  32.462   2.749
 8482W        W80742  33.110  19.548   1.935
 8483W        W80743  27.484   9.356  13.456
 8484W        W80744  10.194  33.387   1.892
 8485W        W80745  37.955  23.064   0.743
 8486W        W80746  22.510  34.370  11.996
 8487W        W80747  36.997  44.946  12.847
 8488W        W80748  38.474  10.789  14.326
 8489W        W80749  40.883  21.714   0.291
 8490W        W80750  34.878  36.989  13.885
 8491W        W80751  11.702  22.654  11.448
 8492W        W80752   3.931   3.301  14.915
 8493W        W80753  29.157  41.786   0.478
 8494W        W80754  32.961  22.144   1.763
 8495W        W80755  31.458   0.822  13.403
 8496W        W80756   8.828   7.407  13.988
 8497W        W80757  32.414   4.308   1.932
 8498W        W80758  23.727  28.938  11.864
 8499W        W80759  28.661  13.672   2.681
 8500W        W80760  11.130  32.546   3.223
 8501W        W80761  19.673  40.538   4.625
 8502W        W80762  25.618   9.753  14.960
 8503W        W80763  34.050  18.760   5.178
 8504W        W80764  32.561   3.735  11.022
 8505W        W80765  12.671  11.755   0.365
 8506W        W80766  14.294  39.821   4.708
 8507W        W80767  26.474  15.616   2.269
 8508W        W80768  33.012   7.756   0.733
 8509W        W80769  44.338  31.549   0.372
 8510W        W80770  42.353   9.285   0.921
 8511W        W80771  13.654  37.471  13.943
 8512W        W80772  17.240  22.523  10.940
 8513W        W80773  19.077  30.428  14.456
 8514W        W80774  29.038   0.882  11.415
 8515W        W80775  15.582  28.555  13.914
 8516W        W80776  17.791  35.502  13.864
 8517W        W80777  21.215  22.566   1.410
 8518W        W80778   3.389  40.932   3.773
 8519W        W80779  24.543   6.216  13.876
 8520W        W80780  11.863   0.869   2.797
 8521W        W80781  30.026  18.616  12.076
 8522W        W80782  13.672  22.615  11.601
 8523W        W80783  11.193  10.801  13.442
 8524W        W80784   6.185  42.792   5.313
 8525W        W80785   7.756  33.078   4.660
 8526W        W80786  25.509  33.016  11.036
 8527W        W80787  10.729  37.892  11.529
 8528W        W80788   5.399  29.508   0.291
 8529W        W80789  41.986  36.453   0.839
 8530W        W80790   6.343   9.768  13.536
 8531W        W80791  34.464   1.830   1.935
 8532W        W80792   7.737  30.583  12.365
 8533W        W80793  25.142  44.959  11.542
 8534W        W80794  32.041  15.092   0.355
 8535W        W80795  13.208  30.638  13.032
 8536W        W80796  28.468   6.321  10.440
 8537W        W80797  17.196  29.596  14.960
 8538W        W80798  32.120  43.972  12.347
 8539W        W80799  13.143  39.842   9.971
 8540W        W80800   8.235  42.021  12.955
 8541W        W80801  21.635  11.219  11.874
 8542W        W80802  37.441  27.949   1.853
 8543W        W80803  23.149  18.550  13.022
 8544W        W80804  19.090   3.723   0.806
 8545W        W80805  21.724  25.575   2.895
 8546W        W80806  21.195  27.493   5.626
 8547W        W80807  19.696  25.692   0.300
 8548W        W80808  24.043  24.651  12.469
 8549W        W80809  34.886  41.920   4.654
 8550W        W80810  17.556  31.054   0.746
 8551W        W80811  36.978  27.959  11.859
 8552W        W80812  41.929  16.669  12.475
 8553W        W80813   1.297  34.864   3.254
 8554W        W80814  44.275  42.790   4.705
 8555W        W80815  42.344  35.039   4.153
 8556W        W80816  23.148  42.902   4.686
 8557W        W80817  39.446  10.647   2.720
 8558W        W80818  44.779  35.000   4.203
 8559W        W80819   1.242  38.843   1.870
 8560W        W80820  16.693  12.356  11.896
 8561W        W80821   8.197  38.886   1.229
 8562W        W80822   9.789  41.024   3.756
 8563W        W80823  15.086   7.240  13.938
 8564W        W80824  43.983  20.589   3.164
 8565W        W80825  29.658  35.447   2.201
 8566W        W80826  42.826  11.353  13.856
 8567W        W80827  23.559   2.427   1.315
 8568W        W80828  38.495  33.453  13.496
 8569W        W80829  27.049  25.500  14.414
 8570W        W80830  30.517  32.139  11.015
 8571W        W80831  43.470  34.919  11.985
 8572W        W80832  27.096  18.276   2.415
 8573W        W80833  41.880  37.040  11.915
 8574W        W80834  20.579  29.010  14.887
 8575W        W80835  44.395  10.862  13.032
 8576W        W80836  15.164  29.629  10.958
 8577W        W80837  35.091  17.720   3.727
 8578W        W80838  38.939   5.711   2.317
 8579W        W80839  20.030  43.478   1.870
 8580W        W80840  15.640  39.973   3.341
 8581W        W80841   1.955  27.974   0.359
 8582W        W80842  28.665  20.609   3.176
 8583W        W80843   2.292   0.783  12.416
 8584W        W80844  33.925  40.419  12.445
 8585W        W80845  41.445  32.935  12.024
 8586W        W80846   9.712  31.114   4.193
 8587W        W80847   1.742   4.409  10.450
 8588W        W80848  36.899  35.531   0.919
 8589W        W80849   6.911  25.156  13.970
 8590W        W80850   9.205  18.622   4.155
 8591W        W80851   0.379  19.621  13.538
 8592W        W80852  35.100  29.591  12.958
 8593W        W80853  10.733  28.143  13.808
 8594W        W80854  18.243  11.820   2.870
 8595W        W80855  27.967  32.582   1.780
 8596W        W80856  35.853   4.370   0.793
 8597W        W80857  44.008   2.817  13.376
 8598W        W80858  25.471   9.230   2.877
 8599W        W80859  23.642  35.414   1.319
 8600W        W80860  26.993  19.592   4.320
 8601W        W80861   6.806  14.234   0.438
 8602W        W80862  21.514  31.111   1.799
 8603W        W80863  24.200  40.851   2.810
 8604W        W80864  11.785  17.641   4.170
 8605W        W80865  10.189   6.693  13.323
 8606W        W80866   4.923  43.018  12.401
 8607W        W80867  40.822  20.614  14.280
 8608W        W80868  11.851   5.384  11.393
 8609W        W80869   1.759  21.073  10.894
 8610W        W80870  39.348  34.926   2.836
 8611W        W80871  17.285  18.628  13.830
 8612W        W80872   8.664  38.522   4.650
 8613W        W80873   7.255  20.742  12.460
 8614W        W80874  21.613  38.013  14.865
 8615W        W80875  37.510  29.438   4.202
 8616W        W80876   9.770  11.274   3.687
 8617W        W80877  21.576  31.456   3.847
 8618W        W80878  22.701  22.211   3.365
 8619W        W80879  24.152  29.106   4.633
 8620W        W80880  39.422  15.192   0.397
 8621W        W80881  11.819   8.863  10.116
 8622W        W80882  44.821  43.309  11.935
 8623W        W80883  23.006  36.394  14.828
 8624W        W80884  34.049   8.881  10.023
 8625W        W80885  41.395  19.653  13.006
 8626W        W80886  28.678  34.022   1.840
 8627W        W80887  13.728  15.772   1.746
 8628W        W80888  31.091   8.813  12.553
 8629W        W80889  21.588  10.694   1.843
 8630W        W80890   4.774  27.634  10.631
 8631W        W80891   4.931  30.004  11.092
 8632W        W80892  12.272  25.643   1.833
 8633W        W80893  24.112  40.927  13.390
 8634W        W80894  13.793  15.684  13.921
 8635W        W80895  27.539  38.066   3.646
 8636W        W80896  24.229   1.754   1.249
 8637W        W80897  19.223  44.318  12.961
 8638W        W80898  38.513  22.107  13.804
 8639W        W80899  27.065  36.367   1.833
 8640W        W80900   1.805  30.012  12.029
 8641W        W80901   1.443  25.090   4.782
 8642W        W80902  25.710  17.607  12.343
 8643W        W80903  16.080  16.222  10.523
 8644W        W80904   5.202  42.003  12.378
 8645W        W80905  37.945  33.466  11.377
 8646W        W80906  10.330  38.964   2.758
 8647W        W80907  19.582  23.541   4.728
 8648W        W80908  12.772  37.509   0.345
 8649W        W80909   3.429  22.717  12.899
 8650W        W80910  24.596  11.235   2.868
 8651W        W80911  29.515  10.812   2.343
 8652W        W80912  41.345   8.250   1.741
 8653W        W80913  14.313  22.566  11.577
 8654W        W80914  11.187   5.855   3.690
 8655W        W80915  43.830  38.510  10.430
 8656W        W80916  28.541   8.397   4.668
 8657W        W80917  33.985  33.065   3.202
 8658W        W80918  19.256  12.253  13.801
 8659W        W80919  38.898  14.235   3.350
 8660W        W80920  18.625  25.637   0.367
 8661W        W80921   7.764   4.846  12.350
 8662W        W80922  37.991  34.582   2.754
 8663W        W80923  44.789  40.305  14.966
 8664W        W80924  34.480  42.515  11.375
 8665W        W80925  11.274   5.870   1.314
 8666W        W80926  10.774  31.986  13.985
 8667W        W80927  24.138  39.922   1.698
 8668W        W80928  44.358   0.957   4.136
 8669W        W80929  39.429  41.480   3.763
 8670W        W80930  29.026  16.229   0.886
 8671W        W80931  21.696  44.438   1.332
 8672W        W80932  41.388  18.608  13.344
 8673W        W80933  31.960   2.342   4.339
 8674W        W80934  41.322   4.352   0.783
 8675W        W80935  13.810  41.529   1.303
 8676W        W80936  44.319   0.933  11.428
 8677W        W80937  23.069  38.061  14.923
 8678W        W80938  29.545  42.523  12.050
 8679W        W80939  31.045  42.484   1.288
 8680W        W80940  24.076   7.297   3.667
 8681W        W80941  12.738   1.461  12.340
 8682W        W80942  27.171   0.961  11.995
 8683W        W80943  33.932  29.426  11.869
 8684W        W80944   5.327  20.187  12.425
 8685W        W80945  20.699  28.139  11.938
 8686W        W80946   1.242  33.043  11.080
 8687W        W80947  19.110  40.338  14.355
 8688W        W80948  11.369  14.272  10.609
 8689W        W80949  12.687  24.173   3.670
 8690W        W80950  25.618  34.552   3.211
 8691W        W80951  27.080  24.002   2.798
 8692W        W80952  30.985  41.029   0.954
 8693W        W80953  14.738  16.249  13.406
 8694W        W80954   5.725  17.172   1.878
 8695W        W80955  31.015  21.039   1.740
 8696W        W80956  32.907  20.250   0.327
 8697W        W80957  32.418  29.489   3.348
 8698W        W80958  30.089  15.225  13.846
 8699W        W80959  35.461   7.678   3.724
 8700W        W80960   8.884   1.826  14.404
 8701W        W80961   1.970   7.846   0.272
 8702W        W80962  32.437  32.906   1.409
 8703W        W80963   9.175   4.430   2.191
 8704W        W80964   1.447  24.667  11.978
 8705W        W80965  23.201  29.077   3.319
 8706W        W80966  41.425  41.485   4.283
 8707W        W80967   2.925  16.786  12.472
 8708W        W80968  36.970  44.503  13.356
 8709W        W80969   6.705  34.480  14.775
 8710W        W80970   1.327  15.226  13.801
 8711W        W80971  16.212   0.389  13.478
 8712W        W80972  12.206   8.235  14.380
 8713W        W80973  15.310  35.587  12.095
 8714W        W80974  38.858  32.008  12.412
 8715W        W80975  30.478  36.467   5.243
 8716W        W80976  22.719  19.108   3.239
 8717W        W80977  18.708  23.067  11.070
 8718W        W80978   5.809  10.224  14.333
 8719W        W80979  34.579  18.751  11.576
 8720W        W80980  32.066  38.058   2.790
 8721W        W80981  21.225   0.404   2.662
 8722W        W80982  16.668  13.262  11.045
 8723W        W80983   7.734  17.673  14.472
 8724W        W80984  42.797  35.918   4.781
 8725W        W80985   0.923   7.393   0.296
 8726W        W80986  20.082  24.698   1.346
 8727W        W80987   8.887  37.351   3.300
 8728W        W80988  28.558  36.992  13.924
 8729W        W80989   9.320  29.486  13.446
 8730W        W80990  38.932   5.242  13.473
 8731W        W80991  13.240  30.074   9.926
 8732W        W80992  36.409   3.351   2.685
 8733W        W80993   7.196  19.577  14.318
 8734W        W80994  28.071  23.510   0.423
 8735W        W80995  24.547  35.525   4.142
 8736W        W80996  17.765  38.022  14.454
 8737W        W80997  37.857  27.500  10.405
 8738W        W80998  25.111  11.166  14.891
 8739W        W80999  32.482  12.853   3.698
 8740W        W81000  27.097  16.803   2.358
 8741W        W81001  10.368  35.457  13.407
 8742W        W81002  21.245  11.785  14.917
 8743W        W81003  43.836   0.342  13.418
 8744W        W81004  35.107  34.925  11.123
 8745W        W81005  28.660  18.709   2.858
 8746W        W81006  17.681  13.643   0.315
 8747W        W81007  25.494  44.990   1.717
 8748W        W81008  10.842  31.140  11.984
 8749W        W81009  15.818  27.056   3.385
 8750W        W81010  13.254  10.677  13.930
 8751W        W81011   0.346  20.139   0.900
 8752W        W81012  36.502   0.418  14.417
 8753W        W81013  15.174  17.687  12.424
 8754W        W81014   0.338  18.072  11.562
 8755W        W81015  24.185  27.940   5.568
 8756W        W81016  42.459  39.433   3.217
 8757W        W81017  23.691  14.317   4.726
 8758W        W81018   3.324   6.872  14.346
 8759W        W81019  35.049  35.095  11.576
 8760W        W81020   3.454  17.799   4.344
 8761W        W81021  20.110  33.066  14.309
 8762W        W81022  27.670  44.938  12.857
 8763W        W81023   9.676   0.419   3.689
 8764W        W81024   3.320   6.305   4.834
 8765W        W81025  13.677  39.551  11.103
 8766W        W81026   1.465  40.427   3.770
 8767W        W81027  30.163   5.725  11.048
 8768W        W81028  14.151  36.412  12.489
 8769W        W81029  38.870  33.511   1.762
 8770W        W81030   6.695  31.912  14.886
 8771W        W81031  10.836   7.279  14.515
 8772W        W81032  41.956   9.871   0.839
 8773W        W81033  29.458  22.737  13.496
 8774W        W81034   0.417  29.444   3.257
 8775W        W81035  43.916  40.362   4.337
 8776W        W81036  29.978  40.918   4.254
 8777W        W81037  21.749  21.034  13.920
 8778W        W81038  22.058  23.188   3.771
 8779W        W81039   1.939  11.628   1.933
 8780W        W81040  40.541  14.655   0.955
 8781W        W81041  38.959   0.272   2.714
 8782W        W81042  16.218  18.252   1.870
 8783W        W81043  33.914  40.307   2.258
 8784W        W81044  42.317  31.646   0.424
 8785W        W81045  33.934  21.562  13.918
 8786W        W81046  27.471   9.240  12.862
 8787W        W81047  36.444  14.665  12.043
 8788W        W81048  39.901  22.108   2.230
 8789W        W81049  18.078  32.002  10.096
 8790W        W81050   2.421  13.159  14.388
 8791W        W81051  31.608  30.029   0.763
 8792W        W81052   5.922  35.935  10.467
 8793W        W81053  10.158  22.633   4.612
 8794W        W81054  28.172  11.648  10.407
 8795W        W81055  28.577  36.880  11.102
 8796W        W81056  23.044   3.374  12.562
 8797W        W81057   3.359   0.832  12.878
 8798W        W81058  25.069  32.422  13.806
 8799W        W81059  37.424  22.997   0.890
 8800W        W81060  21.136  11.201   1.273
 8801W        W81061  11.196  11.627  14.981
 8802W        W81062  42.890   8.256   3.855
 8803W        W81063  39.822  29.484   2.271
 8804W        W81064  41.019  32.430  13.471
 8805W        W81065  10.650  14.315   3.800
 8806W        W81066  43.010  14.280  12.884
 8807W        W81067  24.974   3.311  14.424
 8808W        W81068  37.914  13.763   0.931
 8809W        W81069  21.646   1.743  11.582
 8810W        W81070  33.482  24.170  11.873
 8811W        W81071  19.249   7.890  11.066
 8812W        W81072  28.635  19.244  11.573
 8813W        W81073  34.550  40.348   0.290
 8814W        W81074   0.942  36.554   2.774
 8815W        W81075  10.744  32.070   2.353
 8816W        W81076  11.814  12.309   4.297
 8817W        W81077   6.704  21.660  10.574
 8818W        W81078  21.191  39.926  11.973
 8819W        W81079  13.739  28.037  11.462
 8820W        W81080  41.409  37.962   4.330
 8821W        W81081  24.479  32.434   1.271
 8822W        W81082  18.657   3.283   0.807
 8823W        W81083  22.015   1.339   0.416
 8824W        W81084  22.711  24.131  14.903
 8825W        W81085  24.997  21.231   3.786
 8826W        W81086  21.127  34.060   2.195
 8827W        W81087   1.898  28.115   2.866
 8828W        W81088  31.588  24.163   3.687
 8829W        W81089  22.188   0.937   2.401
 8830W        W81090  14.690   7.206   0.417
 8831W        W81091  11.326   8.205   2.710
 8832W        W81092   3.854  19.679  10.518
 8833W        W81093  15.600   1.356   0.330
 8834W        W81094  18.771  32.900  10.926
 8835W        W81095  35.025  10.760   2.194
 8836W        W81096   1.422  19.648   0.423
 8837W        W81097  17.722   5.830   5.186
 8838W        W81098  44.885   1.305   1.446
 8839W        W81099  23.162   2.845  12.928
 8840W        W81100  36.852  20.152   3.655
 8841W        W81101  30.564  32.619   4.727
 8842W        W81102  14.665  20.087   3.316
 8843W        W81103  14.689  35.455  13.044
 8844W        W81104  30.515  37.394   0.297
 8845W        W81105  27.447  14.213  14.008
 8846W        W81106  37.985  30.492  13.491
 8847W        W81107  32.527  22.228  14.941
 8848W        W81108  31.040   8.757  13.931
 8849W        W81109  21.147  39.481   1.366
 8850W        W81110  16.294  17.124  14.972
 8851W        W81111  31.578  32.126   4.301
 8852W        W81112  16.599  18.164   3.194
 8853W        W81113  40.881  29.544   4.295
 8854W        W81114   2.270   2.854   0.918
 8855W        W81115  14.273   1.241   1.341
 8856W        W81116   9.691  36.031   3.728
 8857W        W81117  14.102  15.312  14.836
 8858W        W81118  34.542   6.877  14.920
 8859W        W81119  30.652  10.816  13.317
 8860W        W81120  21.727  44.911   4.610
 8861W        W81121  16.787  20.122  14.483
 8862W        W81122   1.302  14.200   0.473
 8863W        W81123  22.134  27.996  10.918
 8864W        W81124   4.856  28.442   3.639
 8865W        W81125  22.586  17.261  14.895
 8866W        W81126  38.465  29.092   2.722
 8867W        W81127  38.385  43.498  10.476
 8868W        W81128  39.401  30.045  14.910
 8869W        W81129  12.658   6.718   0.314
 8870W        W81130  23.518  43.888  13.338
 8871W        W81131  11.330  13.827   2.298
 8872W        W81132   6.825  27.589   0.305
 8873W        W81133  15.625  33.080   4.229
 8874W        W81134  30.593  22.160  12.050
 8875W        W81135  23.134  30.162   1.831
 8876W        W81136  40.933  22.165  14.860
 8877W        W81137  28.583  22.516   3.244
 8878W        W81138  21.696  24.658   4.703
 8879W        W81139   7.762  28.054   3.279
 8880W        W81140  36.591  15.295   3.169
 8881W        W81141  18.071  43.345   2.379
 8882W        W81142  27.148  26.602  11.091
 8883W        W81143  27.098   0.951   2.238
 8884W        W81144   8.688  10.795  11.862
 8885W        W81145  30.974  39.366   4.168
 8886W        W81146   0.847  33.948   2.303
 8887W        W81147  30.979  21.624   1.222
 8888W        W81148   9.815  37.568   4.176
 8889W        W81149  22.583   1.444  13.461
 8890W        W81150  34.509   1.957  11.009
 8891W        W81151  12.255  23.687  12.027
 8892W        W81152  11.750  10.690   4.257
 8893W        W81153  23.724  18.100  10.887
 8894W        W81154  29.424  27.448  14.870
 8895W        W81155  16.596   4.732  11.910
 8896W        W81156  15.096  35.893   0.474
 8897W        W81157   6.750  41.516  14.297
 8898W        W81158  39.037  18.264   1.267
 8899W        W81159  28.124   7.267   3.327
 8900W        W81160  11.321  21.665   2.333
 8901W        W81161   8.297   9.160  12.575
 8902W        W81162  21.604  11.211  13.322
 8903W        W81163  34.927  40.548  14.782
 8904W        W81164   0.394  30.481   0.944
 8905W        W81165   5.396  39.431  12.940
 8906W        W81166  19.062   5.788  14.826
 8907W        W81167  30.907  12.225   2.230
 8908W        W81168  42.405  38.001   1.722
 8909W        W81169  10.877  15.702  13.820
 8910W        W81170  25.075   3.718  11.048
 8911W        W81171  20.046  40.426  12.993
 8912W        W81172  35.857  30.940   2.886
 8913W        W81173  28.154  41.801   0.907
 8914W        W81174  14.206  22.740   1.262
 8915W        W81175  23.068  29.569  13.424
 8916W        W81176   5.343   3.835  14.946
 8917W        W81177  28.451   2.799   0.418
 8918W        W81178  29.044  31.440   3.712
 8919W        W81179  37.999  35.463  12.848
 8920W        W81180  38.910   8.787  12.537
 8921W        W81181  32.888  43.306   1.349
 8922W        W81182  25.486   3.441  14.879
 8923W        W81183  20.065  13.800  12.578
 8924W        W81184  20.192  35.939  10.939
 8925W        W81185  28.170   4.819  12.898
 8926W        W81186  39.556  32.017  12.364
 8927W        W81187  42.824  12.831  12.992
 8928W        W81188   2.907  29.043   2.844
 8929W        W81189   1.956  16.161   1.357
 8930W        W81190  29.650  43.414   1.389
 8931W        W81191   7.788  12.786  10.958
 8932W        W81192  18.106  34.874   0.315
 8933W        W81193  30.981  43.323  13.842
 8934W        W81194   8.795   0.414  14.295
 8935W        W81195  13.226  44.456   4.787
 8936W        W81196  34.895  21.709   2.837
 8937W        W81197  19.087  24.070   3.864
 8938W        W81198  29.017  25.972  13.895
 8939W        W81199  17.300  43.794  11.569
 8940W        W81200  31.929   1.378   0.926
 8941W        W81201   4.374  42.794   4.810
 8942W        W81202  41.894  44.926  11.091
 8943W        W81203  19.226  26.584   4.285
 8944W        W81204   0.746   0.348  11.018
 8945W        W81205  18.657  22.073   4.277
 8946W        W81206  14.171  22.537  11.017
 8947W        W81207  38.005  23.531   3.305
 8948W        W81208  14.249  38.458  14.454
 8949W        W81209  32.471  18.180  12.375
 8950W        W81210  21.057  35.995   0.272
 8951W        W81211  36.525  28.545   4.813
 8952W        W81212  34.991  35.049   4.284
 8953W        W81213   1.851  14.133   2.764
 8954W        W81214  10.199  14.334   4.757
 8955W        W81215  25.982  13.256   0.923
 8956W        W81216  35.481  31.063  11.977
 8957W        W81217  18.149  31.578   0.389
 8958W        W81218  12.251  32.911  14.414
 8959W        W81219  17.164  44.755  13.506
 8960W        W81220  41.361  28.477   1.744
 8961W        W81221   7.190  26.041   3.225
 8962W        W81222  20.234   4.383   3.228
 8963W        W81223   4.816  30.920  12.560
 8964W        W81224   6.375  42.446  13.345
 8965W        W81225   1.359   7.298   4.602
 8966W        W81226  36.085  44.440   0.426
 8967W        W81227  30.489   2.786   1.826
 8968W        W81228   9.340  33.569  13.849
 8969W        W81229  14.768   8.376   3.201
 8970W        W81230  33.564  29.928  10.619
 8971W        W81231   2.935  17.622   2.718
 8972W        W81232   9.321   8.823  14.326
 8973W        W81233  12.685   0.765   3.853
 8974W        W81234   3.329  30.492  11.380
 8975W        W81235  12.329  41.833  13.814
 8976W        W81236  16.171  25.648   3.636
 8977W        W81237   8.857  38.863   1.415
 8978W        W81238  12.648   9.180   4.599
 8979W        W81239  37.565   4.846   1.372
 8980W        W81240  30.141  12.689   4.680
 8981W        W81241  36.874  30.158  14.970
 8982W        W81242   2.927  16.282   0.785
 8983W        W81243  37.914  39.530   4.319
 8984W        W81244  22.697  11.186  14.822
 8985W        W81245  11.269  39.410   0.460
 8986W        W81246  40.377  40.330   1.902
 8987W        W81247  41.327  28.623  14.420
 8988W        W81248   5.697  10.181  11.536
 8989W        W81249  44.268  44.448  11.443
 8990W        W81250   2.959  10.706  10.471
 8991W        W81251  10.341  17.306   0.429
 8992W        W81252  35.016  42.339  11.483
 8993W        W81253  35.966  33.026  13.811
 8994W        W81254  32.106  25.711   3.304
 8995W        W81255  10.764  17.263  10.466
 8996W        W81256   8.172  25.653   0.278
 8997W        W81257  25.040   8.710   1.405
 8998W        W81258   0.270  10.756  14.784
 8999W        W81259  33.395  16.161   1.418
 9000W        W81260   6.690  35.914  11.918
 9001W        W81261  20.726  30.544   1.707
 9002W        W81262  44.815   5.422   3.253
 9003W        W81263   1.452   0.771   1.266
 9004W        W81264   3.450  10.756  13.007
 9005W        W81265  33.411  44.927   0.886
 9006W        W81266  16.679  14.198   1.434
 9007W        W81267  34.613  30.600  12.919
 9008W        W81268  42.445  24.065  11.489
 9009W        W81269  44.765  31.972   1.768
 9010W        W81270  36.491  20.063   5.716
 9011W        W81271  30.547   0.424   1.383
 9012W        W81272  27.170  19.627  10.626
 9013W        W81273   9.813  20.149  12.474
 9014W        W81274  40.934  10.224   3.239
 9015W        W81275  43.497   3.444   0.727
 9016W        W81276  39.398   6.826   0.327
 9017W        W81277  22.675  26.150   3.179
 9018W        W81278   5.342  35.546   2.672
 9019W        W81279  44.500   4.778   3.277
 9020W        W81280  20.564  44.886   0.333
 9021W        W81281  24.075  35.909  14.776
 9022W        W81282  16.123  25.540  13.860
 9023W        W81283  14.287   8.182  12.378
 9024W        W81284   5.323   8.203   2.345
 9025W        W81285  28.969  20.685  13.940
 9026W        W81286   6.730  15.211   4.275
 9027W        W81287  24.055  14.774   4.115
 9028W        W81288  26.547   0.414   4.652
 9029W        W81289  15.715  14.625  14.984
 9030W        W81290   1.400  18.055  12.523
 9031W        W81291  24.719  43.945   4.348
 9032W        W81292  23.117   3.364  13.956
 9033W        W81293  12.168  28.657  14.352
 9034W        W81294   4.290  34.942  14.378
 9035W        W81295   9.836  42.918   1.893
 9036W        W81296  20.565  27.611   0.336
 9037W        W81297  15.807  44.363  12.081
 9038W        W81298  25.578  34.439   1.702
 9039W        W81299  14.733   9.345  13.045
 9040W        W81300  19.578   3.251  10.554
 9041W        W81301  32.976   2.856  14.461
 9042W        W81302  27.596  13.117   3.746
 9043W        W81303   4.769  33.535  13.425
 9044W        W81304  28.034   3.340  14.432
 9045W        W81305   2.283   9.817  11.095
 9046W        W81306  12.769  16.787  13.418
 9047W        W81307  11.149  40.037  13.473
 9048W        W81308   9.831  41.331  10.603
 9049W        W81309  25.529  22.220   3.251
 9050W        W81310  35.997  10.364  14.803
 9051W        W81311   5.215  26.605   4.217
 9052W        W81312  30.595   5.921  14.850
 9053W        W81313  21.139  24.110   0.301
 9054W        W81314  10.355  10.335   2.186
 9055W        W81315  24.672  20.635  11.417
 9056W        W81316  13.802  42.860  14.328
 9057W        W81317  31.437  14.631   1.303
 9058W        W81318  29.966   7.814  14.494
 9059W        W81319  21.626   9.694   4.234
 9060W        W81320  34.898  13.678   4.332
 9061W        W81321   6.226  31.009  10.589
 9062W        W81322   3.793  17.133   2.823
 9063W        W81323   8.901   6.711   1.859
 9064W        W81324  27.049  44.837  12.938
 9065W        W81325  17.603  41.378   2.297
 9066W        W81326  10.189  35.068   4.217
 9067W        W81327   6.285  31.912   2.765
 9068W        W81328  13.639  35.098  14.275
 9069W        W81329  42.027  35.062   0.798
 9070W        W81330   0.339   6.778  14.329
 9071W        W81331   9.259  34.612   0.826
 9072W        W81332   8.379  25.007  13.922
 9073W        W81333  34.589   0.800   2.837
 9074W        W81334   6.323  25.573  12.037
 9075W        W81335  19.655  36.350  10.619
 9076W        W81336   9.156   6.408   2.263
 9077W        W81337  19.726  41.941  10.899
 9078W        W81338  21.614  21.044   2.202
 9079W        W81339  35.572  19.229   2.211
 9080W        W81340   1.473   8.315  11.952
 9081W        W81341   5.253  24.504   4.165
 9082W        W81342  13.131  22.149   2.358
 9083W        W81343  33.517   8.819  12.088
 9084W        W81344  35.430  38.566  11.999
 9085W        W81345   7.757  15.662  14.795
 9086W        W81346  43.858  31.616  14.923
 9087W        W81347  19.633   2.769   3.647
 9088W        W81348   6.775  18.655  10.417
 9089W        W81349   5.854  33.410  13.023
 9090W        W81350  25.993  21.656   0.336
 9091W        W81351   2.315  37.367   3.635
 9092W        W81352  39.003  39.036  10.948
 9093W        W81353  33.436  22.573   1.735
 9094W        W81354  32.573  33.605   4.702
 9095W        W81355  41.829  24.663  11.611
 9096W        W81356  27.967   9.234   0.934
 9097W        W81357  33.897  18.143  13.517
 9098W        W81358   7.251  35.986  11.399
 9099W        W81359  18.058  39.841  14.849
 9100W        W81360  25.194  44.926   0.794
 9101W        W81361  11.719  43.278   4.217
 9102W        W81362  35.597  33.548  13.016
 9103W        W81363  18.238   0.300   2.373
 9104W        W81364  28.164  38.415   1.868
 9105W        W81365  30.159  21.667  11.944
 9106W        W81366  32.108  26.193  10.956
 9107W        W81367  37.951  36.951   0.874
 9108W        W81368  42.329  19.121  11.519
 9109W        W81369  28.036  40.008   1.338
 9110W        W81370  33.602  26.471   1.217
 9111W        W81371  17.231  38.033  13.411
 9112W        W81372  35.496  12.719   1.252
 9113W        W81373  29.631   3.807  10.636
 9114W        W81374  27.057   7.721   2.670
 9115W        W81375  32.551   6.902   1.410
 9116W        W81376  31.485  33.094   3.843
 9117W        W81377  44.879  11.633  10.963
 9118W        W81378   0.262  29.039   2.380
 9119W        W81379  12.274   4.262  12.408
 9120W        W81380  32.589  11.348   3.748
 9121W        W81381   2.262  41.843  12.861
 9122W        W81382  26.532   5.269  14.495
 9123W        W81383  35.086   2.739  14.839
 9124W        W81384  38.330  16.295  12.962
 9125W        W81385  41.352  37.000  13.502
 9126W        W81386   1.300  41.357  13.344
 9127W        W81387   7.183  12.764   4.348
 9128W        W81388   9.317  17.154  13.932
 9129W        W81389  23.664  23.125   4.276
 9130W        W81390   3.724  24.642  11.496
 9131W        W81391   3.318  16.160   4.615
 9132W        W81392  24.595  23.520  13.857
 9133W        W81393  33.025   3.814   1.813
 9134W        W81394  29.969  41.337  13.315
 9135W        W81395   4.843  31.124  13.829
 9136W        W81396   0.485  37.381   9.972
 9137W        W81397  21.726   4.346   2.367
 9138W        W81398  12.805  14.153   0.362
 9139W        W81399  13.691   1.869  12.939
 9140W        W81400  27.660  26.005   1.926
 9141W        W81401  27.582   6.824   2.342
 9142W        W81402   2.255  37.340   0.827
 9143W        W81403  44.370   5.734   4.666
 9144W        W81404  20.554  39.828  13.531
 9145W        W81405  40.996  20.748  10.604
 9146W        W81406  27.467  38.906   1.391
 9147W        W81407  23.541  17.702   0.829
 9148W        W81408  24.588  39.827  13.545
 9149W        W81409  34.086  44.400   3.657
 9150W        W81410  42.908  23.693  11.401
 9151W        W81411  41.314  38.845   0.289
 9152W        W81412  32.543   2.875  12.080
 9153W        W81413  22.021   4.440   4.353
 9154W        W81414  16.208  42.457   0.767
 9155W        W81415  15.798  34.076  14.284
 9156W        W81416   7.728  32.491  13.333
 9157W        W81417  30.117   9.262   1.318
 9158W        W81418  14.659  13.668  14.882
 9159W        W81419  24.598  13.821  14.383
 9160W        W81420  13.226   5.734  12.917
 9161W        W81421  33.913   1.337   4.231
 9162W        W81422  34.548   8.785  12.475
 9163W        W81423  15.700   1.845   4.142
 9164W        W81424  25.050  33.608   1.832
 9165W        W81425  26.135   5.767  13.981
 9166W        W81426   0.971  38.533  10.913
 9167W        W81427  24.137  12.183  10.446
 9168W        W81428  16.099  40.531   4.711
 9169W        W81429   6.808  12.275   1.876
 9170W        W81430  29.924  11.351   2.300
 9171W        W81431  21.536  13.759  12.460
 9172W        W81432  33.596   5.332   1.798
 9173W        W81433   3.440  40.902  11.551
 9174W        W81434  24.694  33.445   0.816
 9175W        W81435  32.087  12.183  13.983
 9176W        W81436  26.990   5.196  12.030
 9177W        W81437  21.716   4.284  11.434
 9178W        W81438  17.083   7.221  11.862
 9179W        W81439  26.548  44.943  11.962
 9180W        W81440  31.048   8.304  11.891
 9181W        W81441   9.208   7.830  14.983
 9182W        W81442  32.943  30.054   3.728
 9183W        W81443  44.484  26.665   2.210
 9184W        W81444  30.908  25.577  10.918
 9185W        W81445  10.673  22.051  13.474
 9186W        W81446  14.289  35.072  11.395
 9187W        W81447  27.033   2.226  10.566
 9188W        W81448  32.466  38.330  13.350
 9189W        W81449  19.561  22.692  14.332
 9190W        W81450  23.670  18.790   2.763
 9191W        W81451  25.105  23.494   3.725
 9192W        W81452  28.553  28.541  10.423
 9193W        W81453   9.837  29.097  12.930
 9194W        W81454  28.075   0.385   1.351
 9195W        W81455   5.205   8.180  11.376
 9196W        W81456  41.474  24.983   0.942
 9197W        W81457  35.019  22.208   4.636
 9198W        W81458   2.952   1.876   2.743
 9199W        W81459  13.630  16.141  10.553
 9200W        W81460  34.909   9.178  13.841
 9201W        W81461  41.329  15.281  11.514
 9202W        W81462  20.092  31.992  13.459
 9203W        W81463  25.502  23.714  13.474
 9204W        W81464  21.749  27.983   3.372
 9205W        W81465  26.560  29.427   4.222
 9206W        W81466  32.520  28.031  14.823
 9207W        W81467  26.485  39.510   3.290
 9208W        W81468  41.998  15.214   0.242
 9209W        W81469   1.915  16.271  11.906
 9210W        W81470   4.315  37.040   3.271
 9211W        W81471  41.925  32.972   3.703
 9212W        W81472  43.516  17.581   3.836
 9213W        W81473   2.738  23.048   1.820
 9214W        W81474  26.536  36.417   3.634
 9215W        W81475  16.737  15.705   9.580
 9216W        W81476  21.154  16.665  13.377
 9217W        W81477  14.286   5.285   1.398
 9218W        W81478  21.566  40.993  10.983
 9219W        W81479   8.287   2.250   0.310
 9220W        W81480   9.234   5.846   3.637
 9221W        W81481  42.961  43.818  12.837
 9222W        W81482  33.972  32.573   3.233
 9223W        W81483  20.686  14.232   3.763
 9224W        W81484  10.836  40.498   1.767
 9225W        W81485  35.938  25.702   0.304
 9226W        W81486  44.901  39.976  13.012
 9227W        W81487  29.063   9.207   4.202
 9228W        W81488  32.635  25.165  12.554
 9229W        W81489  29.080  12.686   1.338
 9230W        W81490  18.759  26.145  12.529
 9231W        W81491  10.715  18.074  11.417
 9232W        W81492  20.591  19.056   2.752
 9233W        W81493  18.103  38.994   1.217
 9234W        W81494  12.664  28.574   3.644
 9235W        W81495   6.857  25.578  13.389
 9236W        W81496  17.656  33.130  14.788
 9237W        W81497   6.284   0.407  13.462
 9238W        W81498   4.352  24.165   0.818
 9239W        W81499  33.480   5.929  14.310
 9240W        W81500  32.464  19.241   3.731
 9241W        W81501  41.352   3.292  11.992
 9242W        W81502  38.447   0.870   0.868
 9243W        W81503  29.663   7.337   0.278
 9244W        W81504   2.268   2.741   1.720
 9245W        W81505  33.012  31.439  11.373
 9246W        W81506  37.974  40.837  10.426
 9247W        W81507  43.308  28.510   4.183
 9248W        W81508  17.628  34.883   4.153
 9249W        W81509  18.586   4.348  14.456
 9250W        W81510  28.640  39.035   1.325
 9251W        W81511  23.690  24.648   3.197
 9252W        W81512  15.808  40.339   3.148
 9253W        W81513  41.812   1.349   0.911
 9254W        W81514  14.825  40.810   2.835
 9255W        W81515  41.874  44.441   0.343
 9256W        W81516  39.954   8.769  13.449
 9257W        W81517   5.396   9.349   4.316
 9258W        W81518  18.227  23.684  10.620
 9259W        W81519  43.772  10.805   0.796
 9260W        W81520  20.737  28.177   0.841
 9261W        W81521   7.338  42.527  11.484
 9262W        W81522   0.845   5.697  10.605
 9263W        W81523   8.254   0.916   4.149
 9264W        W81524  18.292  21.651   2.733
 9265W        W81525  36.424   1.338   4.727
 9266W        W81526  10.206  26.685   3.148
 9267W        W81527  26.967  19.730   0.301
 9268W        W81528   6.228  40.962  10.636
 9269W        W81529  27.650  24.656   2.367
 9270W        W81530   6.394  41.891   1.791
 9271W        W81531  28.178  10.871  12.078
 9272W        W81532  34.922  33.622   3.855
 9273W        W81533   5.778  16.693  12.566
 9274W        W81534  42.026  14.297   5.304
 9275W        W81535  17.769  21.105  10.955
 9276W        W81536  37.359  42.017   2.726
 9277W        W81537  34.928  32.626  13.027
 9278W        W81538  41.454  15.164   3.812
 9279W        W81539   7.888   2.950   4.185
 9280W        W81540  11.186  33.973  10.445
 9281W        W81541  24.201   5.833  11.432
 9282W        W81542   3.862   3.837   3.666
 9283W        W81543  20.660  42.012   1.722
 9284W        W81544  34.918  35.581   1.307
 9285W        W81545   3.757  37.483   4.220
 9286W        W81546  36.378  34.418   3.784
 9287W        W81547  22.686  18.545  11.983
 9288W        W81548   5.692   7.727  10.414
 9289W        W81549   0.423  21.241   3.764
 9290W        W81550   1.309  19.122   1.315
 9291W        W81551  21.120  23.525   4.179
 9292W        W81552  33.483  23.690   3.340
 9293W        W81553  42.486  37.967  13.929
 9294W        W81554  12.331  24.988   3.785
 9295W        W81555  29.578   9.266  14.494
 9296W        W81556  31.581   5.435  14.796
 9297W        W81557  22.542  40.523   3.725
 9298W        W81558  29.045  42.821   4.704
 9299W        W81559  16.711   2.304  11.051
 9300W        W81560  28.580  31.915   5.146
 9301W        W81561  40.371   4.316   1.374
 9302W        W81562  30.027  13.302   0.433
 9303W        W81563  27.493  39.827   4.342
 9304W        W81564   8.340  13.121  13.847
 9305W        W81565  34.607   4.809   2.867
 9306W        W81566  16.150  32.967  11.587
 9307W        W81567   3.285  26.602  11.600
 9308W        W81568  25.138  18.741  14.492
 9309W        W81569   3.357  12.695  11.985
 9310W        W81570  26.958   8.654  10.447
 9311W        W81571  18.078  38.546   4.695
 9312W        W81572  30.630  15.142   1.870
 9313W        W81573  42.027  36.975   0.343
 9314W        W81574  24.559  10.816  14.805
 9315W        W81575  34.103  25.509  13.945
 9316W        W81576  19.616   9.703   1.766
 9317W        W81577  20.191   6.874   2.724
 9318W        W81578  30.508  31.083  11.550
 9319W        W81579  20.113   2.725  10.640
 9320W        W81580  25.092  34.062   1.385
 9321W        W81581  31.103   6.744   2.308
 9322W        W81582  18.768  34.972  12.957
 9323W        W81583  41.525  22.146  10.964
 9324W        W81584   1.355   2.741  11.943
 9325W        W81585  10.708  15.774   1.400
 9326W        W81586  15.684   6.425   1.414
 9327W        W81587  13.775  44.905  12.950
 9328W        W81588  18.676  30.107  13.060
 9329W        W81589  10.240   5.890  14.427
 9330W        W81590   5.746  16.104  12.497
 9331W        W81591  22.648  11.627   1.776
 9332W        W81592   6.832  44.783   3.730
 9333W        W81593  42.897  23.655   4.140
 9334W        W81594  37.968   7.710   3.352
 9335W        W81595  18.787  33.581  10.521
 9336W        W81596  31.471  10.700  11.587
 9337W        W81597   3.436  18.771   4.179
 9338W        W81598  23.138   2.841  11.553
 9339W        W81599   3.289   1.450  11.463
 9340W        W81600   9.861  21.214   2.771
 9341W        W81601   9.675  42.933  10.936
 9342W        W81602  36.917  28.488  12.356
 9343W        W81603  36.016   0.899   2.841
 9344W        W81604   1.385  44.837  12.955
 9345W        W81605   1.850  26.540  13.449
 9346W        W81606  33.618  33.005  13.357
 9347W        W81607   0.478  32.536  12.557
 9348W        W81608  43.413   5.312   2.774
 9349W        W81609   6.423   7.344  13.359
 9350W        W81610  22.529  40.542   3.250
 9351W        W81611   7.390  35.873   1.708
 9352W        W81612   5.727   2.412   1.234
 9353W        W81613  18.211  22.694  13.477
 9354W        W81614  18.252  10.296   0.922
 9355W        W81615  39.327  44.321   1.304
 9356W        W81616  38.967  26.533   2.796
 9357W        W81617  36.504  42.873  14.473
 9358W        W81618   1.844   8.677  11.519
 9359W        W81619  22.166  33.910  13.509
 9360W        W81620  22.652  22.240   2.406
 9361W        W81621   1.406   4.735   4.833
 9362W        W81622  10.140   1.452   3.636
 9363W        W81623   7.710  14.228   0.417
 9364W        W81624   5.247  11.723  14.400
 9365W        W81625  44.315  30.129  14.830
 9366W        W81626  32.061  37.571  11.465
 9367W        W81627   3.445   6.703  10.569
 9368W        W81628  36.080  27.481   0.962
 9369W        W81629   3.858  24.550  14.508
 9370W        W81630   5.299  41.007   3.796
 9371W        W81631  39.530  18.691  14.505
 9372W        W81632  27.548   5.775   2.845
 9373W        W81633  11.336  21.160   0.919
 9374W        W81634  23.153  21.694  14.002
 9375W        W81635  38.471  31.454  12.405
 9376W        W81636  18.608  43.411  11.118
 9377W        W81637   6.911  13.240   3.197
 9378W        W81638   5.735  25.629  11.491
 9379W        W81639  29.650  31.554   3.671
 9380W        W81640  20.138  26.648  11.924
 9381W        W81641   3.852  14.636   4.344
 9382W        W81642  37.430  20.662   3.803
 9383W        W81643   3.714  13.350   1.238
 9384W        W81644  15.664   1.461   3.178
 9385W        W81645  27.635  20.069  12.893
 9386W        W81646  17.288  23.237  10.436
 9387W        W81647  15.329  26.147  12.973
 9388W        W81648  26.574  43.349  12.057
 9389W        W81649  24.115  20.191  13.794
 9390W        W81650   5.901  25.479   2.300
 9391W        W81651   0.490  32.413   0.304
 9392W        W81652  25.124  15.256   1.755
 9393W        W81653  15.700  38.017   2.693
 9394W        W81654  13.774  17.663   3.697
 9395W        W81655   1.435  19.694   4.229
 9396W        W81656  37.971  33.948   0.894
 9397W        W81657  24.038   2.783  11.004
 9398W        W81658  22.995  37.965   0.926
 9399W        W81659   7.714  25.213  10.442
 9400W        W81660   3.771  27.621  13.511
 9401W        W81661   4.791  24.482  10.553
 9402W        W81662  22.141  12.174  11.873
 9403W        W81663  30.539  16.568  10.622
 9404W        W81664  33.398  39.441  12.907
 9405W        W81665  35.439  22.633  10.476
 9406W        W81666   7.190  25.594   1.385
 9407W        W81667  25.473  25.984  11.922
 9408W        W81668   7.337  25.492  10.468
 9409W        W81669  19.195  21.190  12.834
 9410W        W81670  25.118  41.475   3.774
 9411W        W81671   9.223  18.684  12.489
 9412W        W81672   4.280  24.576   3.216
 9413W        W81673  34.429  17.637   4.278
 9414W        W81674  31.525  13.802  13.801
 9415W        W81675   1.762   9.353  10.597
 9416W        W81676  15.195  18.268   4.694
 9417W        W81677  10.244  44.980  10.560
 9418W        W81678  44.908  28.536  14.401
 9419W        W81679  11.166  15.722   2.401
 9420W        W81680  22.681  29.533   1.221
 9421W        W81681  17.759  11.850   3.338
 9422W        W81682  21.074  14.644  13.443
 9423W        W81683  37.952  35.921   3.838
 9424W        W81684  26.128  42.286  12.412
 9425W        W81685  19.112   5.812   2.674
 9426W        W81686  32.587  31.153   4.258
 9427W        W81687  23.020   9.778   1.868
 9428W        W81688  27.085  36.404  14.949
 9429W        W81689  27.614  42.372  13.326
 9430W        W81690   7.395  26.529  12.366
 9431W        W81691  18.273  21.067   0.795
 9432W        W81692  39.328   4.866   2.820
 9433W        W81693  29.064  38.888  14.500
 9434W        W81694  33.429  10.349   2.741
 9435W        W81695   4.822   2.311   2.378
 9436W        W81696  19.614  40.833  12.906
 9437W        W81697  30.061  44.951  11.572
 9438W        W81698  35.433  21.657   5.646
 9439W        W81699  32.141  25.069   3.783
 9440W        W81700  32.926  25.660  11.539
 9441W        W81701   0.264  34.535  14.032
 9442W        W81702  40.908   0.970   4.182
 9443W        W81703  30.093  39.499  11.481
 9444W        W81704  32.005  34.086  12.071
 9445W        W81705   0.742  25.216   3.215
 9446W        W81706  25.027  24.109  10.979
 9447W        W81707  38.012  20.148  10.637
 9448W        W81708   2.910  11.810   2.309
 9449W        W81709  13.814  22.118  13.516
 9450W        W81710   0.884  23.621   1.423
 9451W        W81711  22.660  15.158  12.880
 9452W        W81712  19.277  25.488  10.502
 9453W        W81713   5.888  17.292   4.809
 9454W        W81714   6.741  13.321   2.691
 9455W        W81715  40.958   0.940  14.316
 9456W        W81716  18.061  36.383   3.753
 9457W        W81717  35.469  18.727  12.913
 9458W        W81718  26.665  31.018   1.411
 9459W        W81719  12.354   1.475   0.768
 9460W        W81720  31.576  42.427   4.607
 9461W        W81721  31.070  34.032  14.814
 9462W        W81722   7.826  22.242   1.832
 9463W        W81723  11.665  16.762   4.162
 9464W        W81724  25.611   8.789   1.819
 9465W        W81725  24.025  30.116  11.939
 9466W        W81726  12.214  37.442   3.646
 9467W        W81727  10.807  30.463  13.420
 9468W        W81728   0.950  19.756   1.799
 9469W        W81729   1.391  43.865   0.259
 9470W        W81730  37.979  32.505   3.716
 9471W        W81731  10.317  21.262  10.593
 9472W        W81732  25.690  32.046   3.853
 9473W        W81733   0.964  11.861  11.528
 9474W        W81734  34.992  37.985   4.219
 9475W        W81735  26.701  42.375   4.345
 9476W        W81736  40.951  32.063  13.813
 9477W        W81737   3.830  32.137   4.670
 9478W        W81738   9.236  20.182  13.469
 9479W        W81739  41.420  31.007   0.414
 9480W        W81740  41.919  28.178   2.287
 9481W        W81741   1.916  23.563   3.339
 9482W        W81742  12.143  18.123   4.159
 9483W        W81743  26.122  44.967  13.454
 9484W        W81744  39.817  32.507   2.341
 9485W        W81745  29.554  38.466   2.277
 9486W        W81746  38.560  42.408  12.867
 9487W        W81747  29.497  28.030  11.416
 9488W        W81748  44.380  41.852   4.140
 9489W        W81749  28.973  18.073   4.712
 9490W        W81750  39.462   6.910   2.797
 9491W        W81751  34.941   5.323  13.386
 9492W        W81752   7.851  32.506  14.375
 9493W        W81753  21.551  12.259  11.405
 9494W        W81754  38.969  32.019  13.444
 9495W        W81755  19.265  40.976  12.094
 9496W        W81756  19.576  30.942   0.286
 9497W        W81757  20.098  37.998  14.493
 9498W        W81758  28.938   7.730   1.308
 9499W        W81759   9.887  32.994   3.349
 9500W        W81760   9.852  28.538  13.991
 9501W        W81761  12.742  20.225   1.720
 9502W        W81762  12.636  31.006   4.829
 9503W        W81763  26.005  31.900  12.434
 9504W        W81764   5.828  30.628   0.475
 9505W        W81765   3.274  27.991  12.889
 9506W        W81766  43.479  25.598   1.931
 9507W        W81767  20.528   5.272   4.192
 9508W        W81768  29.467   9.800  11.462
 9509W        W81769  19.699  26.976   2.314
 9510W        W81770  42.420  36.468  13.009
 9511W        W81771  23.075  16.228   3.201
 9512W        W81772  26.635  38.388   4.782
 9513W        W81773  35.386   7.837   2.187
 9514W        W81774  31.968  10.848   0.444
 9515W        W81775   1.351   2.860   1.449
 9516W        W81776  11.728  29.600  12.899
 9517W        W81777  28.955  15.312  13.318
 9518W        W81778  11.127  30.452  14.282
 9519W        W81779  31.533   3.895  11.535
 9520W        W81780   5.823   8.872  12.879
 9521W        W81781  44.278  11.281  12.081
 9522W        W81782  10.168  21.057  14.846
 9523W        W81783  11.858  16.229  11.117
 9524W        W81784  36.054  31.451   1.352
 9525W        W81785  44.486  41.364   3.265
 9526W        W81786   5.730  40.437   3.375
 9527W        W81787  14.111   1.872   3.870
 9528W        W81788  40.475  35.389  10.928
 9529W        W81789  20.546  39.476  12.545
 9530W        W81790  34.995  27.477  10.577
 9531W        W81791  18.696  30.976   1.815
 9532W        W81792  24.170  41.294   4.180
 9533W        W81793  14.759   5.825  11.492
 9534W        W81794   8.213  37.510  10.924
 9535W        W81795  39.879   7.291  10.580
 9536W        W81796  35.458  38.055  14.945
 9537W        W81797  17.126  38.077   2.833
 9538W        W81798  36.361  31.546   1.709
 9539W        W81799  44.292   3.382  11.032
 9540W        W81800  11.294   2.932   2.814
 9541W        W81801  11.314  38.979  12.073
 9542W        W81802  43.358  20.572   1.273
 9543W        W81803   8.182  39.839  13.373
 9544W        W81804  24.506  42.336  10.990
 9545W        W81805  13.691  28.119   3.820
 9546W        W81806  41.998  38.870  13.031
 9547W        W81807   4.812   6.403   4.215
 9548W        W81808  34.950  12.852  11.033
 9549W        W81809   9.818   4.302  13.520
 9550W        W81810  22.080  33.989  12.416
 9551W        W81811  13.703  22.539   0.432
 9552W        W81812  32.584  34.510  13.377
 9553W        W81813  15.805  34.562  11.611
 9554W        W81814   6.343  27.132  13.447
 9555W        W81815  31.960  11.308  13.457
 9556W        W81816  13.113  39.437  14.994
 9557W        W81817  43.984  32.582   4.816
 9558W        W81818   5.271  14.186   1.422
 9559W        W81819  25.004   5.736  12.371
 9560W        W81820  40.381  12.174   2.882
 9561W        W81821  37.393  35.029   2.797
 9562W        W81822   7.806   6.919   0.730
 9563W        W81823   9.237  40.486   1.218
 9564W        W81824  30.421  44.346   4.328
 9565W        W81825  12.840  19.228  11.605
 9566W        W81826  25.525  20.746   1.899
 9567W        W81827  28.942  39.533   0.923
 9568W        W81828  37.948  23.069  11.995
 9569W        W81829  37.371  15.725   2.800
 9570W        W81830  15.218  15.179  11.998
 9571W        W81831  15.226  38.390  13.521
 9572W        W81832  30.510  40.866   4.283
 9573W        W81833  29.967  42.887   2.896
 9574W        W81834  11.759  14.679  13.843
 9575W        W81835   4.394  12.266  11.506
 9576W        W81836   3.296   6.327  14.764
 9577W        W81837  20.164   2.739   1.349
 9578W        W81838   1.238  34.937   1.713
 9579W        W81839  25.658  33.615  14.765
 9580W        W81840  37.973  16.135   2.667
 9581W        W81841  11.731  22.222  13.029
 9582W        W81842  10.878   1.901   4.739
 9583W        W81843  29.600  30.144  13.336
 9584W        W81844  38.889  24.095   0.791
 9585W        W81845  19.616  21.602  13.485
 9586W        W81846   2.371  16.586  10.416
 9587W        W81847  31.557  16.267   4.118
 9588W        W81848  24.633  12.841  14.896
 9589W        W81849   3.294  16.091  14.368
 9590W        W81850   1.483  34.494   3.149
 9591W        W81851  17.247   7.671  13.805
 9592W        W81852  44.837  12.680  11.011
 9593W        W81853  17.242  19.117   4.834
 9594W        W81854  32.426  33.125   0.310
 9595W        W81855   9.850  22.059  11.060
 9596W        W81856   7.773  32.588   3.214
 9597W        W81857  35.385  35.422   3.642
 9598W        W81858  43.306  39.932   1.258
 9599W        W81859  25.477  26.543   1.762
 9600W        W81860  43.883  43.469  11.931
 9601W        W81861  15.182  18.227   2.838
 9602W        W81862  44.758   4.304  13.485
 9603W        W81863  35.090  28.566   1.767
 9604W        W81864   5.748   4.265   1.261
 9605W        W81865  23.024  34.879  12.386
 9606W        W81866   6.769  29.028  13.807
 9607W        W81867  23.560   1.454  11.051
 9608W        W81868  20.032  42.521   1.874
 9609W        W81869   6.787  24.679   4.198
 9610W        W81870  39.990  44.998  11.522
 9611W        W81871  39.943  25.517   4.175
 9612W        W81872   7.261  39.507   0.830
 9613W        W81873  34.416  17.197   0.320
 9614W        W81874  32.999  13.692  12.003
 9615W        W81875  18.634  23.137  12.489
 9616W        W81876  36.001  16.664  11.898
 9617W        W81877  33.510  27.988  10.996
 9618W        W81878  31.906  17.573  11.518
 9619W        W81879   2.250  43.492   2.802
 9620W        W81880   5.290  25.040   0.428
 9621W        W81881  39.538   4.395   3.316
 9622W        W81882  25.112  42.286   3.822
 9623W        W81883  27.648  24.077  12.493
 9624W        W81884  17.142  12.284  12.849
 9625W        W81885  34.511  29.938   0.433
 9626W        W81886  10.144  37.024  10.057
 9627W        W81887  23.076  35.572   3.749
 9628W        W81888  21.108   0.765   0.352
 9629W        W81889  40.921  24.008   2.711
 9630W        W81890   2.261  41.352  13.986
 9631W        W81891  34.879  43.341  13.482
 9632W        W81892   7.403   4.931  10.914
 9633W        W81893  18.554  35.040  13.313
 9634W        W81894  42.879  37.873   2.817
 9635W        W81895  32.957   3.283   2.822
 9636W        W81896   1.464  29.606   3.259
 9637W        W81897   7.770  16.152   2.709
 9638W        W81898  25.533  10.796   2.868
 9639W        W81899  10.684  34.039   1.431
 9640W        W81900  12.662  17.559  13.924
 9641W        W81901   5.741  28.474   4.296
 9642W        W81902  43.512  30.447  13.843
 9643W        W81903  43.375   6.896  12.373
 9644W        W81904  37.831  35.880  12.555
 9645W        W81905  35.520  22.203   4.734
 9646W        W81906  41.990  37.884   4.832
 9647W        W81907  10.836  32.939   1.887
 9648W        W81908  12.677  27.960  10.079
 9649W        W81909   6.307  25.060  10.503
 9650W        W81910   6.211   7.710   3.688
 9651W        W81911  12.312  21.135  14.862
 9652W        W81912  20.537   0.284   2.269
 9653W        W81913  42.960  39.375  11.576
 9654W        W81914  12.116  16.196  14.308
 9655W        W81915  43.386   5.812   2.695
 9656W        W81916   5.884  11.806   3.781
 9657W        W81917  30.494  35.591   2.737
 9658W        W81918  27.593   0.928   0.354
 9659W        W81919  34.094  13.245  12.928
 9660W        W81920  21.745  40.950   0.412
 9661W        W81921  34.476   8.255  10.950
 9662W        W81922  33.919  24.575  14.914
 9663W        W81923  20.093  14.701   3.282
 9664W        W81924  40.453   0.840   4.690
 9665W        W81925  22.200  20.540   0.897
 9666W        W81926  27.191  14.671   2.717
 9667W        W81927  41.989  37.341  13.055
 9668W        W81928  11.174  39.924   3.836
 9669W        W81929  17.220  38.435   3.300
 9670W        W81930   0.988  14.790   0.777
 9671W        W81931  25.119  34.550  12.074
 9672W        W81932  16.738  39.845   4.778
 9673W        W81933   0.769  10.721   2.879
 9674W        W81934  38.407  29.039  11.522
 9675W        W81935  33.538   3.866  13.523
 9676W        W81936  21.727  38.927  12.416
 9677W        W81937  25.218  27.995  11.925
 9678W        W81938  39.407  17.613   4.739
 9679W        W81939  41.443  13.650   3.256
 9680W        W81940  41.030  21.021  14.788
 9681W        W81941  43.301  27.632   0.444
 9682W        W81942  42.327   0.294   3.250
 9683W        W81943  18.092  11.836  13.432
 9684W        W81944  19.242  20.749   3.344
 9685W        W81945  41.826  14.104  10.939
 9686W        W81946  33.400   0.344   0.451
 9687W        W81947   6.243  36.049  14.387
 9688W        W81948  42.495  25.065   3.197
 9689W        W81949  23.215  26.096   0.376
 9690W        W81950  33.478  28.123   3.682
 9691W        W81951  41.369  13.284  12.577
 9692W        W81952  18.293  30.976   3.247
 9693W        W81953  34.885   1.917   5.117
 9694W        W81954   5.356  23.527  10.909
 9695W        W81955   5.258  31.445  11.900
 9696W        W81956  27.068  23.042   3.679
 9697W        W81957  23.665  13.161   0.326
 9698W        W81958  19.694  38.360   0.963
 9699W        W81959  29.063  25.578  13.949
 9700W        W81960  42.842  18.297   4.666
 9701W        W81961  14.738  19.699   1.216
 9702W        W81962  32.582  42.829   4.627
 9703W        W81963  44.894  21.741  10.409
 9704W        W81964  30.934  12.826  10.585
 9705W        W81965  26.595  35.047   3.799
 9706W        W81966  17.576  32.132   3.344
 9707W        W81967   1.341  22.564  13.850
 9708W        W81968  36.048  36.514   1.903
 9709W        W81969  36.482   4.824  13.007
 9710W        W81970  36.369  22.664  13.890
 9711W        W81971  37.425  20.751  10.132
 9712W        W81972  24.605  32.566  10.965
 9713W        W81973   4.868  16.707  10.148
 9714W        W81974   7.909  26.527   3.648
 9715W        W81975   9.391   7.310  10.992
 9716W        W81976   2.307   3.219  14.346
 9717W        W81977  28.500  10.869   1.292
 9718W        W81978   1.316  42.943   2.277
 9719W        W81979   0.481   4.444   3.191
 9720W        W81980  37.520  23.066  13.959
 9721W        W81981   7.888  18.079  13.974
 9722W        W81982  17.289  38.414  14.510
 9723W        W81983   6.258  43.881  12.476
 9724W        W81984   2.263  36.886  13.904
 9725W        W81985  24.573   3.952  10.967
 9726W        W81986  30.048  33.947  13.391
 9727W        W81987  40.304   8.218   1.730
 9728W        W81988  33.393  44.891   2.718
 9729W        W81989  17.218  35.383  13.829
 9730W        W81990  15.601  31.032  12.879
 9731W        W81991   1.277  35.392  13.345
 9732W        W81992   5.770  24.644  13.492
 9733W        W81993  24.529  37.888  14.945
 9734W        W81994   0.392  43.351   4.264
 9735W        W81995  32.892   8.832   3.198
 9736W        W81996  39.826  11.675   1.719
 9737W        W81997  36.970   4.845  13.362
 9738W        W81998  38.860  34.392   1.349
 9739W        W81999  40.027  15.278   4.829
 9740W        W82000  37.077  23.579   2.407
 9741W        W82001  38.430   5.882  13.398
 9742W        W82002  17.183  34.561  10.966
 9743W        W82003  44.874   7.375   2.869
 9744W        W82004  35.410  44.411  13.012
 9745W        W82005   3.806   6.865   3.726
 9746W        W82006  18.242  30.545  11.431
 9747W        W82007   5.792  23.716   1.717
 9748W        W82008  33.916  26.956   1.805
 9749W        W82009  34.580  12.700  12.989
 9750W        W82010  18.633   6.227  13.053
 9751W        W82011  43.985   7.280   2.416
 9752W        W82012   2.921  25.667   0.339
 9753W        W82013  12.655  24.995   2.685
 9754W        W82014  12.704   9.388   2.820
 9755W        W82015  37.087  10.327   4.166
 9756W        W82016  21.720   3.880   3.201
 9757W        W82017  31.462  27.144   4.285
 9758W        W82018  22.739  40.406  14.985
 9759W        W82019   5.327   5.426   4.211
 9760W        W82020  11.369  30.616   0.463
 9761W        W82021  36.349  16.636  14.810
 9762W        W82022  28.621  37.012  14.890
 9763W        W82023  11.704  18.745  14.873
 9764W        W82024  12.270  44.941  11.110
 9765W        W82025   3.937  26.462  13.396
 9766W        W82026  18.781  24.700  13.501
 9767W        W82027   5.776  28.019  10.625
 9768W        W82028  33.877  39.946  12.414
 9769W        W82029   1.380  38.013  11.377
 9770W        W82030   4.878  27.649   2.352
 9771W        W82031  28.963  25.177  12.457
 9772W        W82032   6.877  34.953   4.129
 9773W        W82033  37.489  33.524   5.199
 9774W        W82034  13.309  35.097  13.045
 9775W        W82035  22.163   8.775  13.435
 9776W        W82036  29.084  43.854  14.438
 9777W        W82037   6.366  27.545  13.326
 9778W        W82038  33.011  20.089  14.962
 9779W        W82039   8.665  36.554   0.941
 9780W        W82040  13.812  22.241  12.968
 9781W        W82041  19.619  17.090  11.545
 9782W        W82042  15.611  11.345   2.869
 9783W        W82043  40.953  41.860   2.220
 9784W        W82044  44.270  14.701  14.000
 9785W        W82045  32.915   4.717   0.322
 9786W        W82046  22.176  10.668  11.074
 9787W        W82047  13.760   7.343   0.824
 9788W        W82048  41.400  32.403  14.888
 9789W        W82049  14.699  11.687  12.842
 9790W        W82050  23.232  26.596  10.917
 9791W        W82051  36.349  36.361  13.374
 9792W        W82052   3.780  17.777   1.413
 9793W        W82053  30.986  41.970  14.956
 9794W        W82054   2.322   8.265   1.757
 9795W        W82055   0.430  15.312   2.703
 9796W        W82056  17.590   6.271  14.353
 9797W        W82057   6.727  12.669   3.782
 9798W        W82058  19.700  43.352  12.946
 9799W        W82059  31.055  41.029   3.260
 9800W        W82060  18.172   9.320  13.934
 9801W        W82061  38.372  40.869   0.276
 9802W        W82062  28.559   1.302   0.766
 9803W        W82063   8.710   4.291  14.949
 9804W        W82064  32.910  36.925  14.774
 9805W        W82065   1.385   0.785   4.643
 9806W        W82066  23.666  22.569  14.388
 9807W        W82067  22.670   4.372   4.789
 9808W        W82068  43.363   0.855   1.343
 9809W        W82069  14.795  20.086   2.902
 9810W        W82070  25.001   1.283   4.696
 9811W        W82071  38.917  30.935   2.730
 9812W        W82072  15.203  19.091   3.688
 9813W        W82073  35.439  24.553   3.293
 9814W        W82074  13.184  30.113   1.922
 9815W        W82075  22.147   5.331  10.446
 9816W        W82076   5.425  31.500  14.973
 9817W        W82077  20.752  42.005   1.309
 9818W        W82078  16.583  15.174  13.366
 9819W        W82079  21.207  11.234  11.503
 9820W        W82080  27.456  25.216   3.186
 9821W        W82081  27.461   2.343  13.832
 9822W        W82082  42.946  21.607  10.638
 9823W        W82083  15.603  38.387   0.932
 9824W        W82084  32.494  28.577  11.074
 9825W        W82085   0.850  25.500  14.980
 9826W        W82086  35.518   1.825   4.714
 9827W        W82087  25.565  42.864  13.871
 9828W        W82088   0.389  22.668   3.848
 9829W        W82089  10.158   0.863   4.261
 9830W        W82090  38.948  31.606   5.269
 9831W        W82091  40.413  18.056  10.460
 9832W        W82092  20.706   2.402   3.738
 9833W        W82093   0.914  40.027  13.446
 9834W        W82094   7.910   6.333  10.985
 9835W        W82095  39.047  20.156   3.804
 9836W        W82096  43.280   9.212  14.367
 9837W        W82097   4.290   2.910   4.834
 9838W        W82098  18.621  43.825   1.755
 9839W        W82099  24.507   1.963   3.340
 9840W        W82100  16.573  17.602   1.712
 9841W        W82101  33.552  21.641   2.181
 9842W        W82102  34.527  27.190  13.492
 9843W        W82103  15.114  29.107  11.861
 9844W        W82104  32.055  37.047   1.901
 9845W        W82105  32.090   2.947   4.800
 9846W        W82106  27.534  22.571  11.524
 9847W        W82107  17.596  44.350  12.409
 9848W        W82108   7.410  41.900  11.415
 9849W        W82109  26.201  40.457   3.858
 9850W        W82110  30.973  24.195   4.304
 9851W        W82111   5.792  35.566   0.351
 9852W        W82112  34.442  13.759  11.589
 9853W        W82113  44.258  28.024  11.469
 9854W        W82114  41.037  39.809  11.485
 9855W        W82115  13.260  10.341   0.790
 9856W        W82116   9.787  17.629   3.698
 9857W        W82117   3.293  13.286  14.937
 9858W        W82118  23.708  24.216   1.899
 9859W        W82119   1.781   5.890   4.664
 9860W        W82120   5.434  35.108  11.074
 9861W        W82121  14.833  20.593  11.860
 9862W        W82122  39.475   7.253  11.528
 9863W        W82123   1.738  32.425   1.912
 9864W        W82124  19.756  23.181   1.418
 9865W        W82125  42.789   3.937  13.886
 9866W        W82126  15.727  43.949  10.109
 9867W        W82127   1.845  28.642   1.843
 9868W        W82128  42.865   4.865   2.799
 9869W        W82129   9.659  44.300  12.046
 9870W        W82130  25.136  28.538  10.404
 9871W        W82131  35.007  30.110  12.486
 9872W        W82132  30.435  12.766  12.533
 9873W        W82133  39.336  34.400   1.860
 9874W        W82134   9.233  26.983   1.282
 9875W        W82135  32.951  43.008  14.343
 9876W        W82136  22.614  21.684   9.599
 9877W        W82137  30.015  33.616   3.734
 9878W        W82138  41.915  13.752   1.701
 9879W        W82139  22.704  29.946  13.348
 9880W        W82140  43.439  31.641   1.333
 9881W        W82141  11.654   7.291   0.327
 9882W        W82142  22.506  15.714  11.488
 9883W        W82143  10.698  21.673   4.302
 9884W        W82144   6.695  42.302  10.428
 9885W        W82145  25.009  22.051  12.929
 9886W        W82146   5.931  41.485   2.387
 9887W        W82147  38.483  28.945   4.748
 9888W        W82148  33.452  19.579  11.611
 9889W        W82149  11.186  39.354   2.316
 9890W        W82150  19.276  16.197  11.972
 9891W        W82151  44.890  37.069  14.338
 9892W        W82152   4.329  30.466  12.082
 9893W        W82153   6.214  11.733   4.604
 9894W        W82154  26.467  31.924  11.119
 9895W        W82155  28.577  16.076   1.818
 9896W        W82156  33.577   1.298   2.402
 9897W        W82157  37.005  23.683  12.843
 9898W        W82158  22.655  39.415  12.339
 9899W        W82159  23.181  35.364   4.298
 9900W        W82160  16.236  23.571   4.776
 9901W        W82161  19.610  36.399  14.975
 9902W        W82162  35.894  14.180  10.493
 9903W        W82163  42.891  32.408   3.376
 9904W        W82164  12.307  14.695  13.937
 9905W        W82165  32.073   9.703  14.932
 9906W        W82166  22.594  38.434  11.451
 9907W        W82167  39.942  40.894  11.515
 9908W        W82168  29.616   4.401   0.350
 9909W        W82169  29.946  11.769  13.543
 9910W        W82170  12.132  25.003  12.921
 9911W        W82171   0.760  33.038   3.729
 9912W        W82172  42.440   4.385  11.600
 9913W        W82173  40.933  39.328   2.884
 9914W        W82174  23.596  25.488   1.831
 9915W        W82175  18.182   7.907  10.027
 9916W        W82176  17.662  35.036   1.233
 9917W        W82177  32.528  40.904  12.543
 9918W        W82178  33.558  31.953  12.379
 9919W        W82179  34.425  29.924  10.457
 9920W        W82180  23.185  32.070  13.344
 9921W        W82181   0.254  39.016   0.321
 9922W        W82182  16.103  42.291  14.986
 9923W        W82183   8.393  27.020   0.853
 9924W        W82184  28.053  11.754   3.664
 9925W        W82185  33.950   4.365  10.533
 9926W        W82186   8.234  20.078   0.813
 9927W        W82187  22.618   2.850  11.957
 9928W        W82188  21.145  13.688  11.459
 9929W        W82189  15.690  17.695   4.303
 9930W        W82190  44.289   7.728   2.214
 9931W        W82191  37.860  21.206  10.616
 9932W        W82192   1.271  17.251  14.875
 9933W        W82193  27.524  22.062  12.065
 9934W        W82194  35.087   4.906  10.462
 9935W        W82195  40.029  44.846   2.201
 9936W        W82196  21.112  22.245  13.001
 9937W        W82197   6.191  26.956   1.333
 9938W        W82198  10.870   1.424  11.543
 9939W        W82199   7.839  30.582   0.243
 9940W        W82200  19.746  23.024  12.466
 9941W        W82201  19.590  39.340  14.981
 9942W        W82202  40.921  24.041   0.805
 9943W        W82203  31.012  42.790  12.933
 9944W        W82204  10.859  38.503  14.877
 9945W        W82205  20.767  41.014  13.808
 9946W        W82206   8.773  31.464   2.351
 9947W        W82207   7.221  26.044   0.243
 9948W        W82208  24.193  18.249   3.735
 9949W        W82209  33.876  15.788  14.799
 9950W        W82210  16.262   2.859  14.829
 9951W        W82211  43.016   9.720  11.527
 9952W        W82212   4.902  32.507   2.245
 9953W        W82213  20.747  24.070   4.149
 9954W        W82214  31.066  16.729  12.466
 9955W        W82215  17.246  19.678   4.684
 9956W        W82216  40.355  20.152   3.719
 9957W        W82217  17.115  30.011   2.389
 9958W        W82218  41.503  25.085  11.917
 9959W        W82219   5.388  12.292   4.262
 9960W        W82220   9.706  30.046   4.628
 9961W        W82221  26.635  29.610  11.015
 9962W        W82222  21.744  29.990  13.836
 9963W        W82223  37.375  38.073   2.245
 9964W        W82224   5.388  13.770  10.617
 9965W        W82225  17.675  15.170   3.313
 9966W        W82226  31.460  20.087   0.402
 9967W        W82227  44.450  26.691  11.402
 9968W        W82228  37.522  39.981  11.129
 9969W        W82229  40.974   6.325  10.502
 9970W        W82230  12.706  38.433  12.977
 9971W        W82231   4.211  37.066  12.565
 9972W        W82232  40.386  42.294  13.824
 9973W        W82233  42.447  44.379   2.713
 9974W        W82234  25.191   4.706   4.209
 9975W        W82235  29.062  22.617  11.391
 9976W        W82236   0.915  43.277   3.739
 9977W        W82237  34.530  18.249  12.860
 9978W        W82238   2.946   6.717  11.543
 9979W        W82239  27.672  31.027   5.578
 9980W        W82240  10.879   4.820   0.249
 9981W        W82241  35.429  23.643   3.786
 9982W        W82242  12.677  36.418   3.824
 9983W        W82243   3.287  13.188   4.291
 9984W        W82244   8.174   5.799   2.760
 9985W        W82245  44.814  16.702  12.350
 9986W        W82246   1.963  28.535  14.515
 9987W        W82247  16.731  15.741   1.338
 9988W        W82248   0.948   6.332   4.664
 9989W        W82249   8.259  37.936   3.316
 9990W        W82250  40.525  38.553   4.202
 9991W        W82251  28.504  30.488  10.097
 9992W        W82252  38.557   0.279   0.830
 9993W        W82253   1.833  10.309  14.956
 9994W        W82254  17.301  18.579  12.900
 9995W        W82255  21.747   6.283   4.123
 9996W        W82256  25.020  23.599  11.511
 9997W        W82257  33.886   1.756   2.407
 9998W        W82258  16.133  40.476   1.788
 9999W        W82259  32.013  39.930   2.733
10000W        W82260  11.833   0.358   4.116
10001W        W82261  42.884  19.044  14.842
10002W        W82262  11.276   3.800  11.951
10003W        W82263   4.397  15.673  14.824
10004W        W82264  32.395  26.123  12.576
10005W        W82265   4.798  26.177   9.608
10006W        W82266  32.460  12.172   4.140
10007W        W82267  27.999  26.633   2.353
10008W        W82268   8.269   7.347  12.979
10009W        W82269   9.393  40.018   1.246
10010W        W82270   3.837   2.765   1.774
10011W        W82271  20.199  12.789  12.987
10012W        W82272  38.845  16.141  14.019
10013W        W82273  44.276   5.257  10.628
10014W        W82274  31.494  41.307   2.779
10015W        W82275  29.555  43.865  14.343
10016W        W82276  39.828  36.415  12.037
10017W        W82277  33.598  32.932  14.776
10018W        W82278   3.945  29.039  10.531
10019W        W82279  35.919  16.137   2.803
10020W        W82280  36.526  22.729  10.019
10021W        W82281  14.805  30.079   3.238
10022W        W82282   8.280  26.952   3.839
10023W        W82283  18.293  34.434   2.699
10024W        W82284  26.122  33.433   3.668
10025W        W82285  40.913  11.266   1.826
10026W        W82286  42.321  19.150   2.258
10027W        W82287  36.351  35.455   0.962
10028W        W82288  21.213   8.195  12.558
10029W        W82289  17.671  44.893   4.155
10030W        W82290   3.317  21.677  12.966
10031W        W82291  12.610  23.995   0.744
10032W        W82292  11.685  42.440  13.352
10033W        W82293  12.622  12.261  11.611
10034W        W82294   3.751   2.862  12.494
10035W        W82295   2.302  10.154  14.478
10036W        W82296  25.033   1.911  11.056
10037W        W82297  38.491  34.401   3.661
10038W        W82298  28.663  23.507  14.934
10039W        W82299  10.810   1.769  10.549
10040W        W82300   3.897  15.789   9.950
10041W        W82301   8.815   2.251   3.290
10042W        W82302  36.000   8.802  12.559
10043W        W82303  43.372  23.099   0.882
10044W        W82304  42.283   6.833  10.466
10045W        W82305  17.712  37.366   4.720
10046W        W82306  31.973   4.243   0.834
10047W        W82307   0.813   9.664   1.903
10048W        W82308  43.314   0.340   2.865
10049W        W82309   5.294  36.030   1.924
10050W        W82310  14.602  35.552   2.889
10051W        W82311   0.487   3.297  12.961
10052W        W82312  24.500  27.196  14.933
10053W        W82313  25.472  34.450  12.840
10054W        W82314  32.484   4.294  14.772
10055W        W82315   3.249   7.895  10.637
10056W        W82316  44.351   9.783   3.654
10057W        W82317   6.702  11.717   4.164
10058W        W82318   5.760  43.389   2.337
10059W        W82319  40.433  32.133   3.176
10060W        W82320  43.954  12.353   2.883
10061W        W82321  11.343  42.918   3.355
10062W        W82322   3.855  10.360   4.187
10063W        W82323  33.572   1.861   3.816
10064W        W82324  22.626  15.584   2.692
10065W        W82325  13.327   2.919   1.321
10066W        W82326   7.728  10.257   0.256
10067W        W82327  29.629  10.282   0.871
10068W        W82328  17.248  13.183   4.705
10069W        W82329  35.081  26.112   2.276
10070W        W82330   6.194   2.293   4.782
10071W        W82331  24.023   1.818  11.395
10072W        W82332  16.299   1.460   4.131
10073W        W82333  26.568  41.380  13.858
10074W        W82334   9.376  10.258  10.892
10075W        W82335  11.357   0.356  14.987
10076W        W82336  20.646   7.788   0.403
10077W        W82337  40.437  14.647   3.669
10078W        W82338  44.911   1.950  13.978
10079W        W82339   6.182  16.314  13.534
10080W        W82340  26.035   0.459   1.764
10081W        W82341  39.808  43.298   0.306
10082W        W82342  31.122   1.809   1.408
10083W        W82343  15.235  36.959  10.554
10084W        W82344  44.771  38.486   3.147
10085W        W82345  20.159  13.140   0.784
10086W        W82346  28.053  24.066   2.368
10087W        W82347  42.427   1.864   3.749
10088W        W82348  28.932   5.801  13.970
10089W        W82349   7.350  18.282   3.791
10090W        W82350  21.199  36.481  14.392
10091W        W82351  31.626  12.313   3.245
10092W        W82352   0.906  16.813   1.306
10093W        W82353  22.167   5.285  12.855
10094W        W82354  41.428   7.694  14.458
10095W        W82355  39.056   2.909  11.411
10096W        W82356  17.241  42.393  14.972
10097W        W82357  22.999  10.717   2.769
10098W        W82358  22.532   3.258  11.898
10099W        W82359  28.098  30.554   4.690
10100W        W82360  12.703  15.800   5.089
10101W        W82361  39.913  10.361   0.277
10102W        W82362  30.565  40.800   0.300
10103W        W82363  15.169  38.371   1.906
10104W        W82364  13.843  38.053   0.432
10105W        W82365  15.296  19.256  11.048
10106W        W82366  16.260   3.863   0.313
10107W        W82367  29.623  13.296  10.961
10108W        W82368  37.549  30.966   0.305
10109W        W82369  36.504   7.325  12.888
10110W        W82370  34.553  32.107   0.806
10111W        W82371  31.957   4.731  14.847
10112W        W82372  27.966  22.668  10.442
10113W        W82373  37.545   7.208  13.865
10114W        W82374  25.482  15.273   4.335
10115W        W82375  30.607  35.477  12.545
10116W        W82376  29.628  25.505  12.905
10117W        W82377  37.394   1.291   4.291
10118W        W82378   5.875  13.603   0.913
10119W        W82379  20.671  30.078   4.639
10120W        W82380  25.028   0.840   2.742
10121W        W82381   7.197  11.639  13.823
10122W        W82382  44.767  15.809   3.796
10123W        W82383  20.720  30.613   2.352
10124W        W82384  12.811   8.266   2.222
10125W        W82385  15.270  31.534   4.604
10126W        W82386  26.979  36.353  14.305
10127W        W82387   0.328   7.364  12.968
10128W        W82388   4.360  13.257  11.867
10129W        W82389   4.849  31.151  12.930
10130W        W82390   0.826   6.756  10.506
10131W        W82391  28.147  21.693   0.451
10132W        W82392  39.509  23.019  12.949
10133W        W82393   3.233  26.677   4.229
10134W        W82394   9.368  41.345   0.784
10135W        W82395   0.359   4.794  13.844
10136W        W82396   5.732  34.866  11.404
10137W        W82397  34.473   0.398   3.821
10138W        W82398  23.208   0.313   0.854
10139W        W82399  32.629  40.007  11.583
10140W        W82400  43.475  38.976  13.998
10141W        W82401  11.667  42.945  10.897
10142W        W82402  32.026  32.935   2.765
10143W        W82403   3.930  15.701  10.633
10144W        W82404  44.898  27.077   4.345
10145W        W82405  12.662  11.349   0.736
10146W        W82406  38.962   1.767  14.361
10147W        W82407   6.402  33.951  11.958
10148W        W82408  43.431  30.983   0.958
10149W        W82409   1.472  31.616  11.073
10150W        W82410  40.019   8.379  13.354
10151W        W82411  43.824   1.464  11.611
10152W        W82412  13.774  44.951  11.439
10153W        W82413  27.054  13.626  10.563
10154W        W82414  32.565  38.847  10.418
10155W        W82415  40.002  33.946   3.260
10156W        W82416  23.093   7.238  14.396
10157W        W82417  17.102  20.643  14.904
10158W        W82418   4.798  24.575  14.398
10159W        W82419  44.961  13.611  12.517
10160W        W82420  23.661  26.587   1.367
10161W        W82421   8.255  36.853   2.419
10162W        W82422  23.180  29.169   4.692
10163W        W82423  19.740   3.436  12.923
10164W        W82424  43.315  25.201  10.469
10165W        W82425  33.071  41.400   1.361
10166W        W82426   0.269  22.053   1.384
10167W        W82427   3.429   7.283  12.948
10168W        W82428  35.975  32.609  11.403
10169W        W82429  20.628   3.415   2.216
10170W        W82430  12.236  41.327  12.489
10171W        W82431  17.773  38.845  10.524
10172W        W82432  32.073   1.967  12.552
10173W        W82433   9.862   3.411   1.356
10174W        W82434  14.236  32.526  14.980
10175W        W82435  39.980   9.157  13.451
10176W        W82436  14.180   9.801   0.396
10177W        W82437  15.662  32.008  11.607
10178W        W82438   3.913   3.374   0.368
10179W        W82439  24.610  14.186   0.856
10180W        W82440  10.275  33.030  11.932
10181W        W82441  35.546   2.926  13.917
10182W        W82442  18.182   1.756   1.429
10183W        W82443  19.075  32.081  13.920
10184W        W82444  23.695  27.144   3.647
10185W        W82445  13.760   9.833   3.638
10186W        W82446  20.569  15.216  13.055
10187W        W82447  37.983  44.457  13.037
10188W        W82448  32.929  28.458   2.321
10189W        W82449  23.065  37.387   3.646
10190W        W82450   4.305   6.808  11.462
10191W        W82451  32.025  44.284  11.907
10192W        W82452  31.449  25.662   4.618
10193W        W82453  17.133  32.573  10.437
10194W        W82454  40.024  15.181  14.340
10195W        W82455  25.118   7.742   4.147
10196W        W82456   5.194  35.878   2.315
10197W        W82457   6.884  28.934  10.621
10198W        W82458  30.992  14.212   4.233
10199W        W82459   9.295   2.903   0.823
10200W        W82460  12.245  13.330   1.736
10201W        W82461   8.811   7.830  14.784
10202W        W82462  37.845  36.957  14.457
10203W        W82463  18.694  21.688  14.852
10204W        W82464  13.716  10.286   4.652
10205W        W82465  31.522  31.433   3.756
10206W        W82466  37.457   2.414   4.284
10207W        W82467   8.796  34.460  12.051
10208W        W82468  10.205   2.244   4.829
10209W        W82469   5.797  44.475   2.211
10210W        W82470  26.491  43.285   3.301
10211W        W82471  22.528  36.911  10.502
10212W        W82472  25.091  27.097   3.863
10213W        W82473  33.381  10.246   5.291
10214W        W82474  14.593  38.010   4.160
10215W        W82475  20.562  32.938  11.612
10216W        W82476  32.950   8.664  13.906
10217W        W82477  39.497  29.975   0.963
10218W        W82478  13.641  24.520  13.046
10219W        W82479  18.685  43.336  11.540
10220W        W82480  18.644  10.157  13.919
10221W        W82481  36.095  30.646  13.003
10222W        W82482  40.857   5.283   2.343
10223W        W82483  29.524   0.272   3.330
10224W        W82484  27.624  18.598  13.496
10225W        W82485  25.174   8.403  12.045
10226W        W82486  14.664  27.966  11.596
10227W        W82487   7.827   0.746   0.295
10228W        W82488  36.509  35.049   0.268
10229W        W82489   6.233  28.615   4.179
10230W        W82490   1.860  41.924  10.642
10231W        W82491  24.570   6.184   2.273
10232W        W82492  31.621  14.289   4.274
10233W        W82493  24.715  21.669   0.456
10234W        W82494   8.237   0.263  14.371
10235W        W82495  33.516   3.934  13.948
10236W        W82496  19.116  28.458   2.741
10237W        W82497  17.684   7.344  12.054
10238W        W82498  21.662  38.374   0.783
10239W        W82499  10.155  32.542   0.773
10240W        W82500  27.636   7.882   0.250
10241W        W82501  39.044   7.359   5.126
10242W        W82502   0.847  29.103   0.253
10243W        W82503  10.783   5.912  11.009
10244W        W82504   1.766  22.057  12.962
10245W        W82505  10.273  43.912  13.377
10246W        W82506  24.143   8.212  12.919
10247W        W82507  24.609  33.439   2.332
10248W        W82508  14.330  38.065  11.000
10249W        W82509  10.773  21.047   4.804
10250W        W82510  11.651  26.143  12.982
10251W        W82511  36.063  41.508  10.927
10252W        W82512  13.158  33.010  14.919
10253W        W82513  27.109  27.472  13.899
10254W        W82514  23.545  18.117   4.825
10255W        W82515  12.347  36.419   0.451
10256W        W82516  35.105  41.867   0.432
10257W        W82517  35.098  22.579  14.374
10258W        W82518   4.251   3.752   3.724
10259W        W82519  19.275  37.962  10.543
10260W        W82520  26.588  15.318   3.339
10261W        W82521  41.533  41.968  13.894
10262W        W82522  17.597  16.603  12.412
10263W        W82523  40.335  13.208   4.271
10264W        W82524  15.219   2.960  14.955
10265W        W82525  12.788  38.819   3.164
10266W        W82526  33.993  12.134  10.505
10267W        W82527   5.418  11.183   1.759
10268W        W82528  34.102  12.228  13.924
10269W        W82529  11.830  13.618   4.829
10270W        W82530   5.918   8.736   2.853
10271W        W82531   7.354  34.535   2.887
10272W        W82532  18.659   7.340   2.889
10273W        W82533  43.898   8.361   1.396
10274W        W82534  29.101  42.934   1.451
10275W        W82535  41.502  33.952  13.546
10276W        W82536  39.873  35.422  14.302
10277W        W82537  26.959  18.219   0.751
10278W        W82538   1.437  34.603   3.811
10279W        W82539  17.621   0.296   1.234
10280W        W82540  34.379  15.633  10.945
10281W        W82541  36.965  39.914  11.908
10282W        W82542  11.776   6.251  13.435
10283W        W82543  15.280  34.446  10.572
10284W        W82544  32.403  14.738  10.960
10285W        W82545  25.547  35.526   2.413
10286W        W82546  37.000   0.425   1.269
10287W        W82547   9.796  26.204  10.405
10288W        W82548  22.522  14.671  10.571
10289W        W82549  38.452   8.752  10.598
10290W        W82550  36.007   8.727   4.746
10291W        W82551  17.248   4.383   4.252
10292W        W82552   2.816   6.735   0.264
10293W        W82553  41.963  16.584   0.416
10294W        W82554  19.179  26.498  14.477
10295W        W82555  19.675   2.762   0.410
10296W        W82556   5.264  26.577  11.855
10297W        W82557  41.999  12.697   1.394
10298W        W82558  13.828  14.752   2.758
10299W        W82559  28.068  16.698  11.933
10300W        W82560  41.924  22.232  13.310
10301W        W82561  25.701  23.720   2.892
10302W        W82562   4.414  14.681  13.904
10303W        W82563  12.702  31.484   3.296
10304W        W82564   2.349   9.282  12.844
10305W        W82565  42.342  19.552   1.448
10306W        W82566  39.549  28.533  11.887
10307W        W82567  14.825  42.913  12.440
10308W        W82568  24.492  32.400   1.714
10309W        W82569   6.705  27.165  11.028
10310W        W82570  11.293  28.435  13.471
10311W        W82571   8.821  43.871   0.896
10312W        W82572  21.636  32.924   4.736
10313W        W82573  12.628  11.735  14.428
10314W        W82574  36.991  23.061  14.515
10315W        W82575  21.719   3.445  11.934
10316W        W82576  23.135  34.953  10.408
10317W        W82577  29.477  43.319  13.985
10318W        W82578  38.062   9.302  10.637
10319W        W82579  40.327  15.321   0.786
10320W        W82580  40.054  26.503   4.805
10321W        W82581  44.868  33.056   2.368
10322W        W82582   6.907  16.723   3.373
10323W        W82583  32.923  11.173   4.753
10324W        W82584  38.910  13.717   2.201
10325W        W82585  33.488   7.248   1.221
10326W        W82586  40.934   4.929   1.697
10327W        W82587  40.439  25.628   4.140
10328W        W82588  27.601  21.060  10.579
10329W        W82589  35.999  21.228   2.396
10330W        W82590   1.829  15.699  14.289
10331W        W82591  16.145  16.738   5.726
10332W        W82592  21.577  28.646  12.848
10333W        W82593  32.891  18.195  11.864
10334W        W82594  19.701  12.824   2.225
10335W        W82595  23.714  32.571   2.269
10336W        W82596  31.949  22.707  13.838
10337W        W82597  35.566  12.144   4.139
10338W        W82598  37.059  12.337  14.767
10339W        W82599  33.887  33.117   0.913
10340W        W82600  19.100  14.653  10.914
10341W        W82601   8.292   5.395  11.061
10342W        W82602  34.119  24.654   2.862
10343W        W82603  17.253  25.138   4.165
10344W        W82604  36.383  29.614  10.613
10345W        W82605  44.006  33.415   2.835
10346W        W82606   8.807  28.997   0.291
10347W        W82607  41.360   2.944  13.824
10348W        W82608  32.909   5.249  14.008
10349W        W82609   2.800  22.681  10.623
10350W        W82610  43.793   2.801   0.404
10351W        W82611  30.940  12.190   1.714
10352W        W82612  38.071  15.639  13.529
10353W        W82613  37.890  15.689   3.815
10354W        W82614  31.909  41.818  11.898
10355W        W82615  17.064  34.992  14.976
10356W        W82616  16.738  15.765  12.864
10357W        W82617  10.175  37.382  14.389
10358W        W82618  40.372  33.439   5.272
10359W        W82619  41.494   7.224   4.169
10360W        W82620  27.077  18.247  14.795
10361W        W82621  39.462  31.065  13.837
10362W        W82622  39.931  28.613   3.187
10363W        W82623  22.520  26.151   4.259
10364W        W82624   3.897  22.574   2.408
10365W        W82625  19.546  21.696  12.012
10366W        W82626  15.181  38.980  14.388
10367W        W82627  31.552  12.847   3.799
10368W        W82628  36.500  25.094   0.355
10369W        W82629  25.987  35.417  11.590
10370W        W82630  32.088  17.124   4.314
10371W        W82631  43.395  33.429   1.310
10372W        W82632  28.572   6.244  14.335
10373W        W82633  34.549  16.194   1.733
10374W        W82634  44.331  35.389  12.053
10375W        W82635   6.282  34.888  10.492
10376W        W82636  42.929  12.334   2.739
10377W        W82637   1.920  17.214   1.767
10378W        W82638  39.554  16.799  14.400
10379W        W82639  44.293   1.913  13.400
10380W        W82640   4.236  41.881   1.435
10381W        W82641   6.270  37.458  11.531
10382W        W82642   5.800  42.350  12.453
10383W        W82643  29.493  30.593  13.346
10384W        W82644   5.823  40.435  10.452
10385W        W82645   5.830  24.540  10.621
10386W        W82646  33.623  32.606  12.366
10387W        W82647  35.937  12.633  14.299
10388W        W82648  43.773  24.100  14.789
10389W        W82649   4.437  22.006  11.065
10390W        W82650  35.434  40.917   2.899
10391W        W82651  10.652  20.606   4.773
10392W        W82652  32.554  15.625   3.770
10393W        W82653   2.802  14.098   3.755
10394W        W82654  37.965   3.832   3.854
10395W        W82655  38.934  19.112  14.481
10396W        W82656   7.192  15.243   2.230
10397W        W82657  28.952  40.406  10.469
10398W        W82658  17.592   8.319   5.701
10399W        W82659  34.564   0.967   3.634
10400W        W82660  33.093  31.989  12.902
10401W        W82661  35.887  17.259   4.816
10402W        W82662  15.094   1.413   0.870
10403W        W82663   3.851  39.523  13.390
10404W        W82664  41.839  15.612   5.145
10405W        W82665  32.994   9.651  14.367
10406W        W82666   7.752  19.762   3.711
10407W        W82667   3.816   3.396  12.051
10408W        W82668  14.742   5.820   0.838
10409W        W82669   8.366  15.093  14.937
10410W        W82670  43.022  41.877   2.255
10411W        W82671  16.709   1.923   4.805
10412W        W82672   4.832  38.327  10.937
10413W        W82673   3.318  25.556  13.829
10414W        W82674  42.398  17.599   4.327
10415W        W82675  41.411   2.341  12.861
10416W        W82676  36.899  28.117   0.396
10417W        W82677  26.516  32.392  10.890
10418W        W82678  23.507   0.257  13.983
10419W        W82679   7.335   4.739  14.779
10420W        W82680  27.075  20.156  14.931
10421W        W82681  42.370  21.122  11.936
10422W        W82682  31.578  27.165  12.481
10423W        W82683  20.036  23.637   0.479
10424W        W82684  29.535   8.332   0.470
10425W        W82685   7.304  41.389   0.862
10426W        W82686  39.871  31.062  12.996
10427W        W82687   7.223  22.015  12.484
10428W        W82688  26.647   6.351  13.024
10429W        W82689  19.131  23.555  10.440
10430W        W82690  27.999  30.637   3.833
10431W        W82691  17.302  22.599  12.828
10432W        W82692  16.083  30.994  13.540
10433W        W82693  18.086   2.842  11.556
10434W        W82694   5.264  38.961  13.914
10435W        W82695   8.791  32.072  11.032
10436W        W82696   5.802  18.577   2.397
10437W        W82697  22.087  42.934  13.819
10438W        W82698  42.405  29.135  11.606
10439W        W82699  30.119  39.326   4.184
10440W        W82700  10.842  23.532  12.929
10441W        W82701  39.985  20.765   1.422
10442W        W82702  34.039  23.573  14.971
10443W        W82703  35.499   0.268   1.767
10444W        W82704  19.091  31.934  12.549
10445W        W82705  13.307  12.160  13.940
10446W        W82706  17.240  39.474  11.918
10447W        W82707  16.246  17.637  10.078
10448W        W82708  13.281  11.858   1.926
10449W        W82709  23.701  32.529  13.850
10450W        W82710  37.856  30.940   4.181
10451W        W82711   6.695  13.254   1.916
10452W        W82712   4.887  24.637   1.830
10453W        W82713  15.613  35.445   2.215
10454W        W82714  41.888  40.019   1.439
10455W        W82715  29.624  29.454   4.217
10456W        W82716  34.017   4.715   9.928
10457W        W82717  20.065  36.448  12.006
10458W        W82718  14.749  34.042   3.323
10459W        W82719  25.707  17.732   2.303
10460W        W82720  29.134  21.117  14.831
10461W        W82721  19.751  28.964  14.472
10462W        W82722  35.504  15.134  14.443
10463W        W82723  27.940  25.688   0.396
10464W        W82724  38.472   2.804   3.729
10465W        W82725  24.135  20.642   1.258
10466W        W82726   4.220  39.967   4.640
10467W        W82727  11.866  21.116  12.416
10468W        W82728   9.285  44.769  10.587
10469W        W82729  11.637   6.853  11.433
10470W        W82730   7.825  43.979   4.768
10471W        W82731  37.491  18.245  14.414
10472W        W82732  25.197  23.583  11.098
10473W        W82733  22.027  37.974   1.806
10474W        W82734   0.492   1.811   0.380
10475W        W82735   8.840   0.885  12.882
10476W        W82736  16.207   4.269  14.357
10477W        W82737  39.017  11.648  13.858
10478W        W82738   5.282  21.658  11.865
10479W        W82739   3.256  28.033  13.932
10480W        W82740  22.732  22.627  13.937
10481W        W82741  36.997  29.531  12.444
10482W        W82742  27.003  23.022  11.989
10483W        W82743  36.952  20.253   1.336
10484W        W82744  25.549  12.337   0.259
10485W        W82745   0.417   0.247  13.346
10486W        W82746  34.475   4.394   1.776
10487W        W82747  31.438  17.064   1.311
10488W        W82748  13.152  39.842  13.809
10489W        W82749  12.142  17.591   1.861
10490W        W82750   0.375  18.579   4.163
10491W        W82751   0.333  25.675  12.450
10492W        W82752  12.173  28.041   3.357
10493W        W82753  37.890  41.986  12.388
10494W        W82754  14.178  18.558   1.852
10495W        W82755  22.594  42.789  11.512
10496W        W82756  28.457  28.170  12.892
10497W        W82757   5.722  17.669   2.358
10498W        W82758  39.416  24.129   0.259
10499W        W82759  35.507  19.121  11.397
10500W        W82760  20.200  36.003  11.473
10501W        W82761  36.501  31.047   2.401
10502W        W82762   1.336  29.062   3.739
10503W        W82763  11.658   8.363  11.989
10504W        W82764  37.346  20.099  13.485
10505W        W82765  44.436   7.718   1.856
10506W        W82766  16.592  44.461   0.948
10507W        W82767  29.425  24.135  14.765
10508W        W82768  14.228  41.424   0.266
10509W        W82769   3.307  25.639  13.310
10510W        W82770  33.908  15.189   1.809
10511W        W82771  38.525  27.546   4.329
10512W        W82772   4.698  33.072  11.436
10513W        W82773  29.028  24.641   3.862
10514W        W82774  28.175  28.084   2.666
10515W        W82775  34.922  20.205   5.098
10516W        W82776   7.884  10.871   4.290
10517W        W82777  31.074   5.427   1.269
10518W        W82778  28.579  21.756  11.089
10519W        W82779  30.121  24.093  12.051
10520W        W82780  42.467  24.061   1.387
10521W        W82781   4.939  40.533   2.206
10522W        W82782  19.664  31.508  12.837
10523W        W82783  43.310  34.419   4.773
10524W        W82784  43.508  11.372   1.230
10525W        W82785  42.393  21.158   0.750
10526W        W82786  38.889  25.014   3.778
10527W        W82787   1.284  35.514  11.381
10528W        W82788  16.253  12.810   2.819
10529W        W82789   5.819  42.029  10.586
10530W        W82790  34.484  18.631  14.439
10531W        W82791  22.047  34.420  10.582
10532W        W82792   6.374  14.725   3.296
10533W        W82793  12.770  13.348   0.272
10534W        W82794  29.577  34.552  11.612
10535W        W82795  18.279  25.673  13.548
10536W        W82796  11.269   8.269  11.127
10537W        W82797   2.876   6.819   3.714
10538W        W82798  22.006  10.726   3.254
10539W        W82799  13.823  36.910  12.951
10540W        W82800  42.327  27.517   3.805
10541W        W82801  36.371  25.496  13.408
10542W        W82802  43.412   1.893  13.824
10543W        W82803  24.188   7.833  11.612
10544W        W82804  19.242  14.326   4.642
10545W        W82805   6.259  29.146   0.454
10546W        W82806   2.920  17.204  11.430
10547W        W82807  19.747  17.564   2.292
10548W        W82808  13.333  39.853   3.725
10549W        W82809  39.901   1.445  11.599
10550W        W82810   2.838  42.786  14.474
10551W        W82811  24.115  27.194   0.481
10552W        W82812   8.315  37.055   3.178
10553W        W82813   1.367  31.984  12.538
10554W        W82814  36.394  16.727  13.474
10555W        W82815  29.649   6.216   3.772
10556W        W82816  42.790  42.334   3.792
10557W        W82817  11.831  35.484  13.024
10558W        W82818  12.827  10.802  10.976
10559W        W82819  21.192  13.284   1.922
10560W        W82820  21.635  11.698   0.818
10561W        W82821  40.000  25.031  11.552
10562W        W82822   1.349  33.935  13.895
10563W        W82823  19.104  39.372   4.136
10564W        W82824  22.186  44.921   0.433
10565W        W82825   9.238  31.968   1.315
10566W        W82826  30.440   7.706  11.954
10567W        W82827  16.658  18.644   2.298
10568W        W82828  24.588  28.988   0.371
10569W        W82829  32.097  26.151  13.975
10570W        W82830  30.546  37.427  13.387
10571W        W82831  36.852  32.496   1.433
10572W        W82832  22.063  27.111   2.259
10573W        W82833  43.449  24.699  12.547
10574W        W82834  25.094   0.273   4.623
10575W        W82835  21.541  35.070  10.462
10576W        W82836  10.221  30.974   0.319
10577W        W82837  24.146  44.503   1.863
10578W        W82838  39.485  17.611   2.789
10579W        W82839  11.139   3.420  13.000
10580W        W82840  11.647   1.408   2.790
10581W        W82841  17.085  11.144  12.541
10582W        W82842   7.345  27.652   0.741
10583W        W82843  32.969   3.878  11.939
10584W        W82844  23.214   6.417  12.533
10585W        W82845   9.195  13.220  11.860
10586W        W82846  37.358  28.595   2.243
10587W        W82847  42.470  40.354  12.919
10588W        W82848  17.594  18.689   4.354
10589W        W82849   8.190   3.289  11.013
10590W        W82850   0.421  30.158  14.398
10591W        W82851   7.269  35.059  11.458
10592W        W82852  37.024  32.090   4.254
10593W        W82853  40.928   2.229  11.001
10594W        W82854  20.175  24.613  12.084
10595W        W82855  20.599  34.064   3.643
10596W        W82856  24.628  24.036   1.784
10597W        W82857  28.964  10.738   1.260
10598W        W82858   4.387  38.418   0.439
10599W        W82859  40.003  21.590  11.523
10600W        W82860  32.475   9.776  13.429
10601W        W82861   6.307  39.818  10.013
10602W        W82862  40.997  19.272  11.056
10603W        W82863  11.153   5.872  10.968
10604W        W82864  26.128  42.935   1.332
10605W        W82865   2.726   3.875   0.938
10606W        W82866  29.595   6.753  14.419
10607W        W82867   6.289   3.455  10.002
10608W        W82868  22.648  10.761  14.928
10609W        W82869  21.032  18.754  12.454
10610W        W82870  40.013  10.165   1.306
10611W        W82871   6.735  13.256   4.140
10612W        W82872  20.556  15.152  14.469
10613W        W82873  24.554  44.282   0.473
10614W        W82874  19.132   0.381  11.975
10615W        W82875  41.905  23.192   0.856
10616W        W82876  23.124  24.641   0.448
10617W        W82877  34.608  37.569   1.891
10618W        W82878  11.710  32.079  10.553
10619W        W82879  17.801  23.637   1.441
10620W        W82880   9.882  32.418  13.315
10621W        W82881  21.221  21.614   5.111
10622W        W82882   3.359  37.897   2.725
10623W        W82883  16.791  15.753  14.008
10624W        W82884  20.058  34.065  12.896
10625W        W82885  31.040  13.728   1.221
10626W        W82886  35.009  19.682  14.011
10627W        W82887   5.826  17.078   4.185
10628W        W82888  31.057  13.136   2.856
10629W        W82889  33.051  20.686   1.285
10630W        W82890  17.221  11.223   4.333
10631W        W82891   1.735  14.225  14.901
10632W        W82892  12.846   6.192  14.896
10633W        W82893  26.689   4.743  10.968
10634W        W82894  42.502   2.458  13.947
10635W        W82895  24.654  43.509   2.394
10636W        W82896  17.236  35.408  11.991
10637W        W82897   8.201   9.665  13.890
10638W        W82898  36.035  30.625   2.198
10639W        W82899  14.666  35.958  11.426
10640W        W82900  39.510  16.661   3.169
10641W        W82901   5.835   2.916  12.533
10642W        W82902  38.855  32.583  11.537
10643W        W82903  19.713  10.795   4.645
10644W        W82904  20.549  10.678  10.489
10645W        W82905  35.991  28.475   4.799
10646W        W82906  14.183  20.045   1.705
10647W        W82907   8.343  30.981  11.057
10648W        W82908   0.789  33.060  11.991
10649W        W82909  18.670  34.403  13.467
10650W        W82910   7.794  44.786   2.663
10651W        W82911  41.368  10.722   1.298
10652W        W82912   9.645   8.872  14.966
10653W        W82913  28.500  19.193   0.406
10654W        W82914  42.313  10.332  11.376
10655W        W82915  39.546  33.433   2.291
10656W        W82916  10.202  23.696  12.547
10657W        W82917  30.414  39.353   2.404
10658W        W82918  41.836  24.511   3.204
10659W        W82919  43.878  21.113  12.483
10660W        W82920  21.025  41.403   2.877
10661W        W82921  20.758  19.167  13.517
10662W        W82922  34.049   2.232  13.830
10663W        W82923  26.538  31.645   3.758
10664W        W82924   6.203  22.524   4.136
10665W        W82925   6.380  35.062  14.300
10666W        W82926  11.669  40.941   4.674
10667W        W82927   4.336  42.027  11.454
10668W        W82928  24.134  13.705  12.998
10669W        W82929  15.773  28.665   0.332
10670W        W82930   1.734  34.608  14.277
10671W        W82931  18.206  26.004  11.376
10672W        W82932  24.035  32.586  13.002
10673W        W82933  27.574   1.244   1.274
10674W        W82934  27.497  22.117   2.195
10675W        W82935  32.892  11.690   4.664
10676W        W82936  41.859  17.779   0.857
10677W        W82937  26.549   2.949   4.126
10678W        W82938  30.632  40.866  13.458
10679W        W82939  40.308  24.147  10.888
10680W        W82940   5.227  27.553  12.528
10681W        W82941  42.865  27.555  13.337
10682W        W82942  17.710  19.205  12.483
10683W        W82943  40.038  31.911  13.048
10684W        W82944   0.889   0.324  11.872
10685W        W82945  33.569  16.606  12.573
10686W        W82946   2.901   9.191   4.782
10687W        W82947  12.317  25.970   1.370
10688W        W82948  43.304   6.875   1.216
10689W        W82949  15.596  25.007   2.405
10690W        W82950  22.653   8.776  13.047
10691W        W82951  22.998  38.375  12.902
10692W        W82952  21.165  31.619   1.748
10693W        W82953  40.505  16.758   1.438
10694W        W82954  18.637  23.548  12.512
10695W        W82955   0.284  15.647  10.995
10696W        W82956  17.245  26.692   1.897
10697W        W82957  39.319   1.420   0.323
10698W        W82958  25.639  40.921   2.294
10699W        W82959  20.114  34.460  11.544
10700W        W82960  19.094  20.552  11.487
10701W        W82961  29.119  19.150   0.763
10702W        W82962   6.790  41.442  13.040
10703W        W82963  30.158  19.250  11.068
10704W        W82964  18.766   5.229  12.571
10705W        W82965   0.352  38.493   2.347
10706W        W82966   4.273  10.200   0.933
10707W        W82967   7.842  29.647  11.978
10708W        W82968  12.654   6.291  10.406
10709W        W82969  44.315  21.251   2.281
10710W        W82970   3.342  40.306  12.018
10711W        W82971  35.565  23.502   2.216
10712W        W82972  31.125  31.146  10.147
10713W        W82973  25.187  23.625  10.493
10714W        W82974  15.774  17.104  12.007
10715W        W82975   7.407   1.292  11.423
10716W        W82976  29.521  44.303  14.019
10717W        W82977   9.243  10.297  14.951
10718W        W82978  10.159   3.955  10.550
10719W        W82979  11.757  19.674   3.271
10720W        W82980   2.963  41.420  14.013
10721W        W82981  18.576  22.604   3.677
10722W        W82982  28.604  31.068  14.311
10723W        W82983   9.701   7.257   3.342
10724W        W82984  14.648  28.661  13.971
10725W        W82985  32.577  18.766  14.900
10726W        W82986  14.625  12.292  14.833
10727W        W82987  19.235  19.126   3.756
10728W        W82988  11.201  29.515  12.048
10729W        W82989  18.682  15.602   5.317
10730W        W82990  11.755  32.410  11.546
10731W        W82991  22.614  26.040   5.249
10732W        W82992  37.873  40.883   2.265
10733W        W82993  44.812  19.182   1.698
10734W        W82994  42.971  12.798   1.379
10735W        W82995  42.834  30.447   1.898
10736W        W82996   1.887  42.288  13.420
10737W        W82997  10.337   9.238   3.254
10738W        W82998   4.873  15.807   2.380
10739W        W82999  39.865   9.796  10.633
10740W        W83000  27.662  40.942   1.442
10741W        W83001  41.511  25.139   4.687
10742W        W83002  43.780   7.207   0.836
10743W        W83003  21.576  11.838   1.344
10744W        W83004  42.906   4.212   4.136
10745W        W83005   0.890   0.477   1.826
10746W        W83006  13.769  17.119   0.856
10747W        W83007  13.150  41.032  13.057
10748W        W83008  32.412  37.514  14.399
10749W        W83009  28.951   5.275  13.516
10750W        W83010  34.426  20.724  11.548
10751W        W83011  24.536  11.146   1.885
10752W        W83012  36.947  21.191   0.433
10753W        W83013  33.083  25.057   4.264
10754W        W83014  29.641  16.134   4.196
10755W        W83015  15.708   1.845   3.763
10756W        W83016  16.640  21.550  14.409
10757W        W83017  17.618   4.728   4.121
10758W        W83018  25.609  30.069  10.409
10759W        W83019  25.547  23.736   1.787
10760W        W83020  10.653  33.383  11.576
10761W        W83021  28.110  27.126   0.447
10762W        W83022  36.872  31.424  14.973
10763W        W83023  34.000  11.762  13.541
10764W        W83024   4.216  36.930  11.435
10765W        W83025  44.444   8.231   3.309
10766W        W83026  37.876  19.112   1.831
10767W        W83027  17.108  41.941  12.393
10768W        W83028  42.017  36.502   4.207
10769W        W83029   9.259  35.912   4.209
10770W        W83030  28.150  11.353  14.786
10771W        W83031  15.820   8.232   2.773
10772W        W83032  38.485  12.122  12.932
10773W        W83033  15.639  22.559   2.340
10774W        W83034   3.301  39.844   2.383
10775W        W83035  42.304  29.145   0.817
10776W        W83036  39.959   7.706   3.337
10777W        W83037  44.325  23.148   3.264
10778W        W83038  36.086   1.289  14.510
10779W        W83039  35.496  18.108  14.009
10780W        W83040  27.641  12.747  13.995
10781W        W83041   1.394  41.333   2.717
10782W        W83042  35.897  30.104  14.875
10783W        W83043  42.393  20.137   2.754
10784W        W83044  28.612  23.045  12.943
10785W        W83045  12.196  27.569  11.880
10786W        W83046  10.686  43.929   1.451
10787W        W83047  10.833  14.178   0.959
10788W        W83048  40.332   3.259  12.019
10789W        W83049   1.368  29.976  11.375
10790W        W83050   2.243  35.453  11.980
10791W        W83051  12.303  29.467   0.934
10792W        W83052  12.803   2.791   2.812
10793W        W83053  41.450  11.242  14.776
10794W        W83054  39.911  18.569   1.900
10795W        W83055  25.691  18.546  13.366
10796W        W83056  11.345  25.669   4.752
10797W        W83057  25.638  15.587  11.437
10798W        W83058  39.530  13.194  13.509
10799W        W83059  44.476  32.616   4.603
10800W        W83060  38.878  16.300  11.595
10801W        W83061  16.243  19.667   1.223
10802W        W83062  37.973  20.176   4.278
10803W        W83063  41.864  25.480  11.438
10804W        W83064  28.087  38.489  10.566
10805W        W83065  11.152  36.909  10.933
10806W        W83066  11.769   5.909  12.869
10807W        W83067  30.912  23.062  14.968
10808W        W83068  30.074  18.159   2.357
10809W        W83069   4.450  15.723   3.800
10810W        W83070  13.309  44.001   1.315
10811W        W83071   3.867  20.138   1.875
10812W        W83072   0.302   5.879   2.384
10813W        W83073  43.830  20.184   1.907
10814W        W83074   6.302  23.491   0.250
10815W        W83075  25.994  18.273  13.351
10816W        W83076  37.502  37.041  14.456
10817W        W83077  39.428  26.058   4.680
10818W        W83078   6.321  12.117  13.498
10819W        W83079  41.405   0.310   0.352
10820W        W83080  26.619  39.466   3.765
10821W        W83081  17.093  35.421   0.914
10822W        W83082  28.164  44.855  14.984
10823W        W83083  36.374  25.003  14.976
10824W        W83084  42.896   8.758  12.830
10825W        W83085  43.885  23.170   0.752
10826W        W83086  21.528   8.210  14.812
10827W        W83087   7.875  25.575  13.045
10828W        W83088  32.905  22.176  11.373
10829W        W83089  21.667   3.887  11.128
10830W        W83090  21.069  20.209   1.787
10831W        W83091  27.470  22.087  13.405
10832W        W83092  18.058   8.244  14.966
10833W        W83093  20.753  34.922   4.662
10834W        W83094  36.573  11.843   0.762
10835W        W83095  28.672  37.881  13.914
10836W        W83096  30.413   8.240  13.010
10837W        W83097  18.760  41.363   2.746
10838W        W83098  18.775  31.617  13.390
10839W        W83099  23.036  42.365  14.947
10840W        W83100   8.390  33.478  12.880
10841W        W83101  33.439  39.328   2.219
10842W        W83102  19.704  38.961   4.834
10843W        W83103  35.434   4.739   3.281
10844W        W83104  31.943  13.287  12.351
10845W        W83105  17.241   6.351  13.405
10846W        W83106  10.677  41.913  12.886
10847W        W83107  44.998  17.570   2.794
10848W        W83108   6.383  15.319   3.795
10849W        W83109   0.401   5.752  14.351
10850W        W83110  32.108  16.663   1.824
10851W        W83111  27.668  30.488  11.921
10852W        W83112  12.710   4.843  14.975
10853W        W83113   9.675  19.065   3.235
10854W        W83114  13.770  39.380   3.214
10855W        W83115  10.686  23.721  12.400
10856W        W83116   7.804   6.188  13.322
10857W        W83117  14.833  10.182  11.396
10858W        W83118   1.739  10.283   1.759
10859W        W83119   7.843   7.902   0.413
10860W        W83120   6.887  10.708  14.885
10861W        W83121  22.562  20.660   0.822
10862W        W83122  28.073  38.346  11.057
10863W        W83123   2.940  36.546  13.915
10864W        W83124  42.799  20.195  14.298
10865W        W83125  24.038   5.881  12.572
10866W        W83126  14.281  29.478  10.097
10867W        W83127  23.080  25.536   0.335
10868W        W83128  25.207  25.096  10.535
10869W        W83129   4.815  44.888  13.955
10870W        W83130  32.943  42.850   1.867
10871W        W83131   1.917  13.344   3.723
10872W        W83132  39.007  31.008   3.749
10873W        W83133  27.610  17.719   3.292
10874W        W83134  22.201   1.461  14.938
10875W        W83135  14.737  14.605   1.744
10876W        W83136  21.030  24.505   0.315
10877W        W83137  41.297  20.671   3.152
10878W        W83138  21.725  30.008   1.236
10879W        W83139  13.791  22.687  14.354
10880W        W83140   9.643  36.959   0.742
10881W        W83141  36.061  19.249  14.759
10882W        W83142  42.862   2.417  11.030
10883W        W83143  25.635   0.451   1.906
10884W        W83144  29.165  39.493   2.204
10885W        W83145   6.289  16.620   2.797
10886W        W83146  29.084   1.797   3.235
10887W        W83147  38.546  33.922  11.473
10888W        W83148  22.161  27.971   2.898
10889W        W83149  10.813   0.832   9.921
10890W        W83150  26.587  39.461   5.626
10891W        W83151  10.654  10.690   0.786
10892W        W83152  21.754   6.857   0.477
10893W        W83153   2.403  31.096   4.171
10894W        W83154  30.003  39.825  10.525
10895W        W83155   6.260  15.307   4.759
10896W        W83156  32.419  34.586   3.279
10897W        W83157  22.079  33.419  10.450
10898W        W83158   4.360   1.786  12.496
10899W        W83159  11.222  21.255  14.764
10900W        W83160  17.780  31.445  10.540
10901W        W83161  35.023  27.121   1.428
10902W        W83162  18.550   7.276   0.828
10903W        W83163   2.754  23.495   3.241
10904W        W83164  21.592  24.202  10.946
10905W        W83165   4.375  33.391   2.216
10906W        W83166  36.948  32.471  13.459
10907W        W83167  39.381   4.866   2.245
10908W        W83168  20.205  22.075   1.886
10909W        W83169  29.518  32.518   2.817
10910W        W83170  44.378  37.530   0.732
10911W        W83171  26.586   8.369   3.368
10912W        W83172  36.415  44.881   3.250
10913W        W83173   0.447  16.074  12.091
10914W        W83174  26.691  19.076   2.694
10915W        W83175  22.216  37.071   1.712
10916W        W83176  20.576  25.578   1.709
10917W        W83177   6.685  10.674  13.792
10918W        W83178  15.182   8.369  13.012
10919W        W83179   9.368  20.659   2.401
10920W        W83180  27.005  38.846   4.753
10921W        W83181  37.029  13.763  13.804
10922W        W83182  14.703  22.516  12.848
10923W        W83183  19.681  28.560   1.358
10924W        W83184  33.874  40.406  12.031
10925W        W83185  33.876   7.376  11.545
10926W        W83186  21.189  41.359  12.560
10927W        W83187   7.776  19.559  10.909
10928W        W83188  15.639  11.742  13.451
10929W        W83189   6.913   7.374   1.248
10930W        W83190  26.080  42.946   0.346
10931W        W83191  10.826  35.888  12.977
10932W        W83192   2.737  43.458   4.820
10933W        W83193  22.154   8.868  11.030
10934W        W83194  27.987  10.680   1.260
10935W        W83195  44.445  22.086  13.502
10936W        W83196  22.511   6.309  14.816
10937W        W83197  25.589  40.433  12.061
10938W        W83198  11.632   6.313  11.426
10939W        W83199  35.999  35.372  11.106
10940W        W83200  43.954  20.751  13.854
10941W        W83201  26.555  20.060   1.230
10942W        W83202  14.714  24.983  11.379
10943W        W83203  13.724   4.788  13.402
10944W        W83204   3.235  20.240   1.374
10945W        W83205  16.775  42.806  12.984
10946W        W83206  30.466  38.014   1.284
10947W        W83207  11.867  21.540   4.350
10948W        W83208  23.570  21.255   1.771
10949W        W83209   8.811  34.548   1.875
10950W        W83210  30.038   0.322   4.255
10951W        W83211  11.633  39.541   1.276
10952W        W83212   8.333  33.127  13.018
10953W        W83213  32.531  29.601  11.448
10954W        W83214  17.144  24.092   2.196
10955W        W83215   1.842  26.973   2.306
10956W        W83216  20.217  28.617  14.808
10957W        W83217  11.720   9.705  14.827
10958W        W83218   7.878  34.049  12.992
10959W        W83219   5.214  22.593   4.829
10960W        W83220  19.143  41.961  10.971
10961W        W83221  32.113  14.673   1.863
10962W        W83222  33.443  35.895   3.800
10963W        W83223  24.650  33.011  12.824
10964W        W83224  44.501  16.676   2.181
10965W        W83225  42.030  21.634  13.404
10966W        W83226  38.933  22.048   2.712
10967W        W83227   8.656   8.678  14.350
10968W        W83228  19.164  14.293  12.042
10969W        W83229  12.761   6.847  11.504
10970W        W83230  24.641  14.714  11.411
10971W        W83231  28.558  28.126   4.340
10972W        W83232  32.574  35.100   3.719
10973W        W83233  44.947  11.708  14.775
10974W        W83234   1.466  19.243  11.877
10975W        W83235  43.831  10.213   4.598
10976W        W83236  41.525  24.133   2.207
10977W        W83237   4.792  44.844   4.749
10978W        W83238  39.002   8.733   2.295
10979W        W83239  32.399  10.316  12.503
10980W        W83240  16.300  39.337  12.942
10981W        W83241   3.416  10.381   1.711
10982W        W83242   3.836   4.397   3.669
10983W        W83243  28.678  41.847   1.906
10984W        W83244  35.364  35.997  12.448
10985W        W83245  13.231   0.469  14.886
10986W        W83246   8.879   5.216   4.229
10987W        W83247  24.483  20.592   4.691
10988W        W83248   2.264  39.892   2.766
10989W        W83249   3.724  36.004  13.011
10990W        W83250   2.421  29.495   4.617
10991W        W83251  28.959  35.865  11.440
10992W        W83252  12.316   7.872  14.815
10993W        W83253   0.836   1.320   4.769
10994W        W83254  44.983  17.587  14.003
10995W        W83255  13.332  39.810   4.630
10996W        W83256  31.915   1.832   2.693
10997W        W83257  26.659  39.531   0.858
10998W        W83258   7.728   3.352  14.891
10999W        W83259  12.732  22.545  11.014
11000W        W83260  10.653  23.703  13.829
11001W        W83261   6.213  39.352   4.337
11002W        W83262  21.157  10.641  14.762
11003W        W83263  22.161  14.278  14.418
11004W        W83264  14.133  36.445   3.793
11005W        W83265   5.268  25.005   1.292
11006W        W83266  11.759  26.198   2.685
11007W        W83267   0.359  36.961  10.556
11008W        W83268  19.558   5.713  13.837
11009W        W83269  27.947  38.958  12.855
11010W        W83270  11.134  23.647  10.554
11011W        W83271  37.929  25.653  12.943
11012W        W83272  12.183  20.254   2.869
11013W        W83273  29.087  30.076   5.296
11014W        W83274  25.071  29.574  14.947
11015W        W83275   6.708  32.985  11.535
11016W        W83276  24.659  14.284   4.647
11017W        W83277  43.021   6.210   1.866
11018W        W83278  30.601  38.498   4.727
11019W        W83279  16.110  27.959   0.323
11020W        W83280  11.774  15.194  12.452
11021W        W83281  21.746   5.298   2.311
11022W        W83282   9.653  16.075   0.922
11023W        W83283  25.471  35.570  14.301
11024W        W83284  40.308  17.621   4.673
11025W        W83285  27.981  26.956  14.973
11026W        W83286   5.439   0.748  10.958
11027W        W83287  42.836  12.720   3.157
11028W        W83288  14.606   8.233   1.363
11029W        W83289  25.681  33.577   1.911
11030W        W83290   1.437  27.602  14.306
11031W        W83291   5.691  32.894  12.544
11032W        W83292  39.022   9.180   1.725
11033W        W83293  24.190  18.704   2.224
11034W        W83294  10.144   0.291   2.375
11035W        W83295   2.294   8.338  13.387
11036W        W83296   6.739   6.820  14.876
11037W        W83297  35.092  11.271  10.994
11038W        W83298  44.490   7.313   4.235
11039W        W83299  17.224   5.902   1.420
11040W        W83300  34.458  27.178   3.354
11041W        W83301  20.262  17.116   3.361
11042W        W83302  40.315  29.467  11.994
11043W        W83303  37.484  25.111   2.826
11044W        W83304  41.329  22.224  11.957
11045W        W83305   9.273  14.174  14.940
11046W        W83306  44.271  44.361  10.543
11047W        W83307   0.319  40.399   1.339
11048W        W83308  41.015   1.843   2.802
11049W        W83309  16.773  39.992   3.635
11050W        W83310  27.550  19.580   3.795
11051W        W83311  30.074  22.015  11.416
11052W        W83312   0.811  24.078   0.313
11053W        W83313  44.333  31.019   4.200
11054W        W83314  40.339  10.174  11.082
11055W        W83315  11.128  44.402  12.975
11056W        W83316  21.263  39.377  14.933
11057W        W83317  31.076  39.435   4.619
11058W        W83318  30.080  17.234  14.904
11059W        W83319   0.468  43.860   3.343
11060W        W83320  18.260  37.074  13.900
11061W        W83321  31.006   8.860  10.930
11062W        W83322   4.892  12.332   0.939
11063W        W83323  21.048  12.834  10.991
11064W        W83324  33.519  37.519  11.126
11065W        W83325   5.299   7.242   4.248
11066W        W83326  23.024  42.384   3.155
11067W        W83327  41.933  33.921  10.595
11068W        W83328  23.559  33.432   1.743
11069W        W83329  13.198  30.030   0.944
11070W        W83330  41.484  19.585   1.338
11071W        W83331  40.398  40.848   1.445
11072W        W83332  26.689  12.177  14.759
11073W        W83333  24.606  22.689  13.033
11074W        W83334  20.229  41.028   2.665
11075W        W83335  11.707  22.648  12.850
11076W        W83336   5.252  44.343  11.394
11077W        W83337  30.131  33.540  14.484
11078W        W83338  25.658   9.656   1.752
11079W        W83339  12.657  31.154  13.487
11080W        W83340  42.843  12.643   2.179
11081W        W83341  25.501  37.924  10.982
11082W        W83342  19.743  42.957  13.336
11083W        W83343  34.893  24.527  13.806
11084W        W83344  28.669  23.233   0.734
11085W        W83345  22.523   2.841  14.014
11086W        W83346   2.871   4.442   0.923
11087W        W83347  30.126  12.687   0.826
11088W        W83348  10.812   2.338   4.647
11089W        W83349  38.329  35.873  10.926
11090W        W83350  24.675  23.182  12.048
11091W        W83351   4.849  32.014  10.455
11092W        W83352  24.174   2.930   1.241
11093W        W83353  43.351  25.655   0.757
11094W        W83354  20.753  22.067  12.554
11095W        W83355   2.882   9.695   3.862
11096W        W83356  10.353  13.745   0.275
11097W        W83357  18.687  38.005  11.595
11098W        W83358   8.301  15.643   1.912
11099W        W83359  10.243  11.241  13.988
11100W        W83360  15.101  34.017   0.361
11101W        W83361  23.176  10.700  10.977
11102W        W83362  15.616  43.419  12.027
11103W        W83363  18.749   5.405  13.895
11104W        W83364  29.058  36.059   3.854
11105W        W83365  17.070  14.759   1.728
11106W        W83366  14.692  12.143  11.877
11107W        W83367  27.637  41.442   2.766
11108W        W83368  43.970  42.881   3.252
11109W        W83369  39.057  12.670  11.590
11110W        W83370  19.660  18.101   0.852
11111W        W83371   3.922  30.981  13.330
11112W        W83372  35.959   3.922   0.424
11113W        W83373  15.133  24.162   2.683
11114W        W83374   4.716  42.949   4.799
11115W        W83375   7.871  31.117  14.781
11116W        W83376   0.769  36.017  14.418
11117W        W83377  24.987  38.414   1.414
11118W        W83378  40.409  38.863  14.006
11119W        W83379  35.908  30.987   3.645
11120W        W83380  22.113  19.621  12.573
11121W        W83381  24.977  10.684   3.663
11122W        W83382   5.709   1.413  10.405
11123W        W83383  17.091  30.628  13.807
11124W        W83384  36.088  10.671   3.650
11125W        W83385  23.142  42.867  12.021
11126W        W83386  29.119  26.066   2.300
11127W        W83387  35.884   6.791  14.989
11128W        W83388  32.470  25.026  11.509
11129W        W83389  28.498  23.631   2.750
11130W        W83390  32.055  10.344   3.812
11131W        W83391  44.301  20.630  11.044
11132W        W83392  16.231   5.899   4.712
11133W        W83393  20.545  25.215  11.949
11134W        W83394  35.003  33.603  11.883
11135W        W83395  42.498  36.895   3.161
11136W        W83396  12.184  30.460  10.411
11137W        W83397  24.550   3.914   2.900
11138W        W83398   1.824  42.810  13.374
11139W        W83399  36.388  15.166  11.460
11140W        W83400  17.691  13.189   2.355
11141W        W83401   5.873  29.558   0.741
11142W        W83402   9.359  38.426   2.725
11143W        W83403   2.861  40.848   1.434
11144W        W83404  24.098  43.954   3.282
11145W        W83405  43.359  12.815   3.721
11146W        W83406  27.982  38.947   2.789
11147W        W83407  39.333  38.453  10.967
11148W        W83408  32.555   3.903  14.366
11149W        W83409  34.036  27.543  13.031
11150W        W83410  15.154   8.711  11.487
11151W        W83411  25.005   6.373  12.092
11152W        W83412  30.471  31.059  10.415
11153W        W83413   9.643  13.297  13.821
11154W        W83414  27.614  27.178  13.450
11155W        W83415   1.376   8.248   0.848
11156W        W83416   4.240  20.102  11.911
11157W        W83417  29.626  28.643   2.670
11158W        W83418  24.673  23.013  11.075
11159W        W83419  22.118   9.871  12.935
11160W        W83420  30.649  29.497   1.887
11161W        W83421  36.378  10.834   3.163
11162W        W83422  44.984   5.245   2.280
11163W        W83423   4.403  28.599  11.569
11164W        W83424  30.618  36.385  12.554
11165W        W83425  13.824  29.997  12.429
11166W        W83426  25.543  22.241  11.071
11167W        W83427  24.165  37.356   5.312
11168W        W83428  14.734   0.359  12.900
11169W        W83429   8.691   9.733   0.728
11170W        W83430  28.102  41.428   1.405
11171W        W83431  15.104  42.348  12.456
11172W        W83432  18.779  33.480   5.246
11173W        W83433  38.057  21.632   2.212
11174W        W83434  41.904  10.345  10.410
11175W        W83435  21.514  32.581  11.406
11176W        W83436  34.040   6.375  14.438
11177W        W83437  13.261  28.449   2.204
11178W        W83438  41.983   9.773  13.893
11179W        W83439  44.788  20.606   1.406
11180W        W83440  28.060  21.068   2.218
11181W        W83441  15.085   0.973   0.307
11182W        W83442   9.378  21.689  13.505
11183W        W83443  24.183   5.328  10.540
11184W        W83444  27.520   7.221   2.829
11185W        W83445   8.339  30.515  11.497
11186W        W83446  17.765  21.253   4.768
11187W        W83447  18.086  35.457  14.445
11188W        W83448  16.652  13.811  12.862
11189W        W83449   9.719  33.465  10.987
11190W        W83450  31.135  12.271   4.647
11191W        W83451  35.950   6.381   3.763
11192W        W83452  30.594  23.593  14.008
11193W        W83453  22.156   1.287   1.387
11194W        W83454  15.210   6.689  11.917
11195W        W83455  32.495   2.415   2.415
11196W        W83456  22.545  38.847   4.338
11197W        W83457  16.183   4.759  11.913
11198W        W83458  37.494  19.146  12.008
11199W        W83459  40.045  10.294  14.980
11200W        W83460  23.643  32.503  11.878
11201W        W83461  23.078  33.577  14.315
11202W        W83462  18.731  19.772  13.044
11203W        W83463  22.082  34.914   1.210
11204W        W83464  21.633  38.569   3.233
11205W        W83465   9.721  41.296  12.046
11206W        W83466  33.936  43.799   0.316
11207W        W83467  10.335   1.896   2.238
11208W        W83468   7.252  43.978   1.709
11209W        W83469  15.819  34.506   4.641
11210W        W83470   8.269  41.376  11.413
11211W        W83471  40.309  31.078   1.260
11212W        W83472  35.575   3.857   3.209
11213W        W83473  20.762  16.238   1.429
11214W        W83474  17.230  36.073  14.931
11215W        W83475  37.422  44.916  12.377
11216W        W83476   8.846  40.399   5.187
11217W        W83477  10.252  18.129   0.293
11218W        W83478  21.610  12.757   0.740
11219W        W83479   6.867   5.812  13.048
11220W        W83480  22.531   1.413  12.948
11221W        W83481   0.255  35.888   2.772
11222W        W83482  21.572  37.581  14.369
11223W        W83483  16.317  24.118  12.458
11224W        W83484  40.005  35.422  10.537
11225W        W83485  19.236  32.475  12.944
11226W        W83486  44.313  17.146  10.983
11227W        W83487  15.667  24.591   2.735
11228W        W83488  16.604  31.139  12.836
11229W        W83489  20.694   5.843   0.834
11230W        W83490  37.371  14.734   4.694
11231W        W83491  33.519  42.949   3.862
11232W        W83492  31.920  12.754   3.706
11233W        W83493  25.140  40.421  11.093
11234W        W83494  20.245  42.863  14.822
11235W        W83495  32.034  15.764  12.070
11236W        W83496  43.970  20.543   2.747
11237W        W83497  27.025  40.020  14.418
11238W        W83498  20.705  29.534   0.950
11239W        W83499  40.923  44.500   0.461
11240W        W83500  23.059   0.840  14.920
11241W        W83501   1.334   7.864   4.203
11242W        W83502  40.884   9.884   3.767
11243W        W83503   2.243  16.310  14.391
11244W        W83504  19.695  34.484  11.435
11245W        W83505  22.046  40.907  13.806
11246W        W83506  12.801  44.467   3.732
11247W        W83507  26.015  13.156  14.857
11248W        W83508  43.837   0.464   3.156
11249W        W83509  27.032  14.683   4.624
11250W        W83510  35.586   2.296   4.695
11251W        W83511  44.395  10.172  13.838
11252W        W83512  33.507  35.591   4.299
11253W        W83513  27.590  16.216   2.222
11254W        W83514  33.987  39.358   0.327
11255W        W83515  17.580  23.149  14.908
11256W        W83516  44.781  29.662  14.017
11257W        W83517  12.840  22.639  12.446
11258W        W83518   7.222  20.105  10.546
11259W        W83519  18.072   1.751  14.482
11260W        W83520  44.788  30.098   3.707
11261W        W83521  16.214  22.519   0.882
11262W        W83522  28.681  25.608   3.149
11263W        W83523  44.807   0.881   2.825
11264W        W83524   6.869   9.308  14.965
11265W        W83525  38.970  23.145  10.969
11266W        W83526  16.664   2.292   1.839
11267W        W83527   5.298  24.681  10.514
11268W        W83528  32.508  19.065   0.728
11269W        W83529  27.947  12.848   1.391
11270W        W83530  36.499  15.207  14.391
11271W        W83531  14.643  25.187  13.001
11272W        W83532   9.252  10.315   4.293
11273W        W83533  35.363  19.075   4.269
11274W        W83534  43.782  24.054   3.258
11275W        W83535  40.531  25.203   0.966
11276W        W83536  23.194   6.822   1.228
11277W        W83537  33.903  36.046   1.836
11278W        W83538  10.813  37.384   4.643
11279W        W83539  38.452  24.534   0.347
11280W        W83540  17.181  18.605  11.900
11281W        W83541  17.684   3.861   0.926
11282W        W83542  17.614  39.912  14.335
11283W        W83543   5.735  24.197   1.377
11284W        W83544   9.390  21.516   2.870
11285W        W83545  32.464  19.245   0.320
11286W        W83546   7.196  28.493  10.495
11287W        W83547  26.618  22.733  14.850
11288W        W83548   2.274   1.448  13.329
11289W        W83549  31.087   7.893   2.810
11290W        W83550  25.017  14.778   1.820
11291W        W83551  24.014  32.107  13.051
11292W        W83552  14.217   1.916   1.323
11293W        W83553   7.884  17.246  10.128
11294W        W83554  30.467  37.061  10.509
11295W        W83555  18.767  40.854   2.894
11296W        W83556  17.579  40.522  14.502
11297W        W83557  20.047  14.624   1.769
11298W        W83558  10.819  38.427   0.947
11299W        W83559  11.634  36.519   4.127
11300W        W83560  29.955  10.332  13.315
11301W        W83561  27.692   0.885  14.870
11302W        W83562  44.346  32.466   4.294
11303W        W83563   0.366  29.086   2.831
11304W        W83564  44.770  41.888  13.993
11305W        W83565   4.776  43.318   1.836
11306W        W83566  40.332   0.315  12.416
11307W        W83567  23.581  26.502   3.864
11308W        W83568   4.760   9.202  12.948
11309W        W83569  33.035  25.059  13.413
11310W        W83570  11.352   0.406   4.722
11311W        W83571  24.195   7.232   1.730
11312W        W83572  24.517   3.842   3.766
11313W        W83573  40.847   6.232  13.413
11314W        W83574  32.134  26.967  14.889
11315W        W83575  22.108   5.307   0.965
11316W        W83576  20.060  12.186   2.328
11317W        W83577  11.137  31.590   0.414
11318W        W83578  11.162   4.858  11.381
11319W        W83579   8.772  41.464   3.293
11320W        W83580  22.038  27.503   2.236
11321W        W83581   4.812  44.900  10.554
11322W        W83582  35.509  21.661   4.334
11323W        W83583   2.370  36.511  12.941
11324W        W83584  33.584  13.730   0.441
11325W        W83585  15.815  19.773  10.434
11326W        W83586  25.555  33.988   2.336
11327W        W83587   2.729  27.533   2.281
11328W        W83588  18.598  11.293  14.999
11329W        W83589  17.271   2.327  14.989
11330W        W83590  37.964  19.615   4.717
11331W        W83591  39.016  16.270   0.928
11332W        W83592  42.515  42.423  13.387
11333W        W83593  35.903  26.475  12.529
11334W        W83594  15.099  21.206   1.251
11335W        W83595  41.797  24.979  12.847
11336W        W83596  37.896  41.441  11.412
11337W        W83597  28.966  41.033  11.117
11338W        W83598  15.759  22.126   2.710
11339W        W83599  37.452  37.967  13.790
11340W        W83600  43.008  41.943  14.402
11341W        W83601  11.679  22.030   0.768
11342W        W83602  34.516  24.576   4.658
11343W        W83603  33.928  15.745   4.657
11344W        W83604  10.865   3.426  10.543
11345W        W83605  24.711  16.214  14.354
11346W        W83606   5.394  17.225   1.695
11347W        W83607  19.089   1.475  12.863
11348W        W83608   6.198  39.558   3.267
11349W        W83609  44.474  31.647  10.577
11350W        W83610  20.715  43.832   2.684
11351W        W83611  14.272  34.515  12.064
11352W        W83612   9.816  41.040   4.752
11353W        W83613  28.957  29.918   1.858
11354W        W83614   7.259  23.658  14.353
11355W        W83615  18.101   2.248   3.299
11356W        W83616  17.199  41.362  10.962
11357W        W83617  10.281  26.577  14.439
11358W        W83618   0.894  30.045  13.033
11359W        W83619   6.239  23.102  14.901
11360W        W83620  15.648  39.917  11.552
11361W        W83621   8.719  24.070   1.925
11362W        W83622   8.308  42.808  12.038
11363W        W83623   8.390  24.049  13.830
11364W        W83624  40.855  12.693  14.846
11365W        W83625   1.314  24.604   3.869
11366W        W83626  40.939  43.782  11.456
11367W        W83627  20.251  27.073  11.477
11368W        W83628  35.083   6.905  12.456
11369W        W83629  17.718  38.031   3.252
11370W        W83630  20.559  14.752   1.788
11371W        W83631  13.190  38.378   1.806
11372W        W83632   5.427  31.964  12.401
11373W        W83633  20.768  23.602   3.796
11374W        W83634   5.299  42.917  13.498
11375W        W83635  23.230   5.398   0.284
11376W        W83636   6.300   6.282   2.391
11377W        W83637   9.164  34.443   4.122
11378W        W83638  30.438  29.573  12.396
11379W        W83639   4.806  22.080  13.370
11380W        W83640  23.633   9.263  11.438
11381W        W83641  21.590  44.952  10.985
11382W        W83642   4.713  24.647   4.690
11383W        W83643  42.443  30.522   1.378
11384W        W83644   0.856  25.004   4.810
11385W        W83645   8.771   1.245   0.281
11386W        W83646  21.693  28.649  14.307
11387W        W83647  20.103  21.607  13.811
11388W        W83648  21.223  26.056   3.336
11389W        W83649  39.359  26.060  13.809
11390W        W83650  39.944  13.708   3.774
11391W        W83651  10.741  29.523  10.624
11392W        W83652  42.427  15.821  11.412
11393W        W83653  27.680   4.369   1.901
11394W        W83654  38.887   2.903  10.634
11395W        W83655  10.172  21.616   3.659
11396W        W83656  26.999  31.480   2.287
11397W        W83657  41.819   8.758  13.842
11398W        W83658   7.818  23.518   2.226
11399W        W83659  21.181   5.853   0.319
11400W        W83660  22.620  26.962   3.839
11401W        W83661  35.084  31.592   1.316
11402W        W83662   6.888  23.101  13.316
11403W        W83663  25.138  18.686   0.364
11404W        W83664  10.166  37.509  14.961
11405W        W83665  20.718  36.513   3.836
11406W        W83666  36.557  42.894   0.278
11407W        W83667  28.063   0.831  12.015
11408W        W83668  12.250  37.926   3.683
11409W        W83669  41.888  20.268  13.444
11410W        W83670  14.271  25.973   2.310
11411W        W83671  43.818   5.363   2.822
11412W        W83672  15.141  28.995  13.534
11413W        W83673  17.752  17.259   2.267
11414W        W83674  44.799  33.509  13.060
11415W        W83675  21.019  28.943   3.745
11416W        W83676  35.367   9.863  13.354
11417W        W83677  24.982   3.900   2.266
11418W        W83678  18.633   6.809   0.283
11419W        W83679   1.336  13.705   4.248
11420W        W83680  26.533   5.267  12.903
11421W        W83681  13.183   0.901  11.372
11422W        W83682  31.111  43.461   4.139
11423W        W83683  38.842  11.152   3.197
11424W        W83684  22.028  37.982  11.925
11425W        W83685  35.980  21.078  14.826
11426W        W83686  25.047  32.093   3.162
11427W        W83687  39.865  38.448  11.987
11428W        W83688  44.309  12.139  13.537
11429W        W83689  18.273   2.447   2.828
11430W        W83690  43.351  44.889  12.442
11431W        W83691  27.506  30.423  14.365
11432W        W83692  27.559   5.387   1.808
11433W        W83693  23.208  35.570  11.474
11434W        W83694   2.384   1.904  12.919
11435W        W83695   7.883  40.427  13.545
11436W        W83696   5.729  42.399   2.871
11437W        W83697  17.062  30.154  11.046
11438W        W83698  13.125  30.592  10.596
11439W        W83699  37.028  17.687  10.914
11440W        W83700  24.709  28.434   9.649
11441W        W83701  32.578  13.729  13.374
11442W        W83702  16.140  25.080  12.867
11443W        W83703  20.157  13.745   3.786
11444W        W83704   2.831  17.099   3.175
11445W        W83705   4.284  28.569  14.959
11446W        W83706   0.380  44.862   4.647
11447W        W83707  43.805   6.210   2.231
11448W        W83708   4.934  14.653   5.188
11449W        W83709  24.663  26.109   1.391
11450W        W83710  17.621  13.763   3.763
11451W        W83711  30.465  23.697   1.376
11452W        W83712  11.777  27.663  11.433
11453W        W83713  35.594   2.835  14.280
11454W        W83714  37.518  35.481  14.316
11455W        W83715  44.960  22.732  13.383
11456W        W83716   3.367   8.851   2.714
11457W        W83717  43.302  30.910   3.198
11458W        W83718  20.692  37.441  10.435
11459W        W83719  12.218   1.378   2.367
11460W        W83720   9.220   4.278   0.444
11461W        W83721   2.293  37.072   3.759
11462W        W83722   2.358  32.610  12.057
11463W        W83723  10.716   4.314   3.346
11464W        W83724  27.969  42.447  10.447
11465W        W83725  41.934  41.027  14.328
11466W        W83726  36.591  36.050  12.956
11467W        W83727   3.927   8.352   1.346
11468W        W83728   0.461   2.841   0.772
11469W        W83729  43.935   3.778   4.260
11470W        W83730   3.333   3.835  13.801
11471W        W83731  10.879  30.024   3.180
11472W        W83732  43.275  27.008  13.048
11473W        W83733  21.246  13.649   1.699
11474W        W83734  36.362  16.268  13.387
11475W        W83735  24.594  14.172  13.814
11476W        W83736   2.437  12.242  13.874
11477W        W83737  20.589  15.127   2.258
11478W        W83738  13.204  44.365   1.380
11479W        W83739  13.622  35.584   3.727
11480W        W83740  41.965  21.126   3.321
11481W        W83741   4.731   4.443   1.865
11482W        W83742  35.911  40.953  13.517
11483W        W83743  33.047  29.464  14.932
11484W        W83744   2.261  42.841  13.940
11485W        W83745  30.416  34.120  12.057
11486W        W83746  41.499   1.316   1.851
11487W        W83747  10.758  25.173   1.722
11488W        W83748   1.755  34.907   1.372
11489W        W83749  30.161  43.009  11.037
11490W        W83750   8.392  42.961   1.896
11491W        W83751  29.996  32.411  14.848
11492W        W83752  39.365  35.992   1.215
11493W        W83753  44.302  39.038  12.369
11494W        W83754  39.477   6.188  13.384
11495W        W83755   5.350  11.785  10.972
11496W        W83756   9.668  15.247   4.163
11497W        W83757  21.211  40.984  13.973
11498W        W83758   8.304  35.555   0.944
11499W        W83759  38.425  43.970   2.705
11500W        W83760  20.677  10.189   3.633
11501W        W83761  13.820  28.636   0.452
11502W        W83762  10.250  26.154   5.198
11503W        W83763  32.543  34.073   1.400
11504W        W83764  43.857  11.644   3.871
11505W        W83765   0.483  31.616   3.258
11506W        W83766  35.490  23.186  12.454
11507W        W83767  30.131  25.659  14.404
11508W        W83768   2.457   0.408  14.293
11509W        W83769  36.468  19.135   4.611
11510W        W83770  43.443  30.550   4.803
11511W        W83771  23.047  33.022   3.731
11512W        W83772  23.006   1.418  13.868
11513W        W83773   9.802  22.065  13.437
11514W        W83774   2.958  44.446  13.056
11515W        W83775  25.629  38.986   1.362
11516W        W83776  18.112  30.149   1.719
11517W        W83777  31.429  21.547  11.392
11518W        W83778  31.055   3.224   2.694
11519W        W83779   2.874  33.415   3.360
11520W        W83780   7.171  36.498  14.824
11521W        W83781  26.032   8.872   4.712
11522W        W83782  26.028  42.812  11.120
11523W        W83783  17.171  23.702  12.857
11524W        W83784  13.789  41.329   2.856
11525W        W83785  28.109   2.300   3.314
11526W        W83786  37.455  19.113  13.389
11527W        W83787  32.530  21.527   0.446
11528W        W83788   4.913  38.868   1.705
11529W        W83789  28.088   5.396  12.880
11530W        W83790  12.668  27.972  10.927
11531W        W83791  39.836  18.786  13.389
11532W        W83792  33.129   6.834  13.510
11533W        W83793  13.249  37.504  13.911
11534W        W83794   3.336  40.547  14.299
11535W        W83795  19.626  29.565   3.748
11536W        W83796  37.987  15.632  14.767
11537W        W83797  11.199  38.449  13.334
11538W        W83798  29.006  20.066  11.029
11539W        W83799  13.843  36.555  13.546
11540W        W83800  27.617  19.714   0.727
11541W        W83801  19.068  31.431   4.669
11542W        W83802  31.515   0.851  12.043
11543W        W83803   8.882  38.906  10.637
11544W        W83804  27.517  44.496  13.053
11545W        W83805   9.871  19.194   4.260
11546W        W83806  20.174  12.836  12.432
11547W        W83807  25.185  39.450   3.181
11548W        W83808  22.700  29.486   0.755
11549W        W83809  36.073  40.366   3.724
11550W        W83810  22.661  42.032   2.876
11551W        W83811  13.606  13.259  10.521
11552W        W83812  12.742   0.354  13.369
11553W        W83813  29.157  19.124  11.435
11554W        W83814   4.224   9.349   1.890
11555W        W83815  41.908  32.538  12.985
11556W        W83816   7.282  36.919  14.496
11557W        W83817  27.661  31.020   4.825
11558W        W83818   2.867  28.132   1.797
11559W        W83819  24.580  11.160  13.336
11560W        W83820  42.476  23.129   1.827
11561W        W83821  36.518  20.110  11.856
11562W        W83822  24.610  40.394   2.902
11563W        W83823  38.481  20.152  13.399
11564W        W83824  32.628   5.362   3.654
11565W        W83825  14.159  24.011   3.192
11566W        W83826  29.950  24.000  13.042
11567W        W83827  35.864  27.605   0.409
11568W        W83828  12.163   4.251   3.672
11569W        W83829  31.503  44.461   4.600
11570W        W83830   9.326  29.158   2.688
11571W        W83831  27.637  24.512  14.811
11572W        W83832  16.264  37.349  11.454
11573W        W83833  23.122  17.716   3.736
11574W        W83834  41.012  33.122   3.305
11575W        W83835  35.526  31.631  10.505
11576W        W83836  27.659  32.460  14.951
11577W        W83837  28.057  17.204   3.669
11578W        W83838  14.303  28.644   5.158
11579W        W83839  40.465  28.450   2.305
11580W        W83840  35.053   4.894  10.161
11581W        W83841  19.665  37.526  13.991
11582W        W83842   8.829   9.809   1.266
11583W        W83843  32.059  14.768  11.536
11584W        W83844  43.003  26.984   3.172
11585W        W83845   2.859  42.923   3.194
11586W        W83846   0.985  35.065  14.881
11587W        W83847  19.077  29.937   0.250
11588W        W83848  16.801   8.804  10.567
11589W        W83849  25.216  34.579   3.856
11590W        W83850   1.407  30.484  13.801
11591W        W83851   8.398   0.403   0.346
11592W        W83852  31.458  16.224  12.046
11593W        W83853  19.097  25.626  14.933
11594W        W83854  33.601  43.470   2.237
11595W        W83855   4.915  20.618  13.914
11596W        W83856  39.356  33.953  10.521
11597W        W83857  16.184   6.864  13.326
11598W        W83858  42.815   9.849  12.501
11599W        W83859  31.955  16.697   2.356
11600W        W83860  31.477   6.839   4.286
11601W        W83861   5.411  15.211   2.802
11602W        W83862  19.047   5.253   4.666
11603W        W83863   9.787  17.150   2.309
11604W        W83864  36.373  31.566  11.912
11605W        W83865  35.971  36.971  14.980
11606W        W83866  32.630  36.439   4.138
11607W        W83867  35.957  19.127   2.679
11608W        W83868  18.653  15.203  10.635
11609W        W83869  13.263   4.204   4.168
11610W        W83870  34.469  16.112  11.004
11611W        W83871   9.840  10.160  10.090
11612W        W83872  34.599  28.948  13.885
11613W        W83873  14.640  18.142  10.075
11614W        W83874  37.844  28.973  13.808
11615W        W83875  37.879  38.028  11.000
11616W        W83876   3.352  33.925   0.788
11617W        W83877  39.325   3.718  14.764
11618W        W83878  31.497   9.368  10.511
11619W        W83879  31.639   0.299  10.492
11620W        W83880  20.659  25.618  10.602
11621W        W83881  30.023  33.098   0.914
11622W        W83882  39.997  15.283   0.959
11623W        W83883  29.506  21.613  13.548
11624W        W83884  37.066  42.937  13.034
11625W        W83885  32.404   2.783   4.134
11626W        W83886  14.668  23.493   1.275
11627W        W83887   6.805   8.654   2.268
11628W        W83888  15.741  34.387   1.934
11629W        W83889  14.721  17.159  10.085
11630W        W83890  13.236  44.439  14.971
11631W        W83891  41.478  38.881  13.463
11632W        W83892  15.107  15.241   0.418
11633W        W83893  30.511  40.448   4.268
11634W        W83894  43.393  26.527  12.861
11635W        W83895  10.353  15.310   2.704
11636W        W83896  24.705  14.264  12.835
11637W        W83897  41.354  41.464   4.672
11638W        W83898  10.269   0.750   0.732
11639W        W83899  21.654  15.701  13.348
11640W        W83900  21.168  40.496   2.368
11641W        W83901  34.521  21.664  13.470
11642W        W83902  32.899  23.056  12.351
11643W        W83903  29.944  33.567  10.150
11644W        W83904   9.691   6.862  11.460
11645W        W83905  32.410  40.498  13.838
11646W        W83906   0.811  34.017   2.678
11647W        W83907   9.283   4.708  13.841
11648W        W83908  29.424  14.692  14.006
11649W        W83909   5.755  36.396   0.825
11650W        W83910  22.647  41.292   1.769
11651W        W83911  30.082  42.795   1.848
11652W        W83912  15.094  27.670  14.388
11653W        W83913  32.445  39.018   0.429
11654W        W83914  20.673  37.860   0.475
11655W        W83915  21.684  14.804  13.506
11656W        W83916  19.178  17.109   4.305
11657W        W83917  16.752  27.634   2.815
11658W        W83918  12.665  36.989   0.831
11659W        W83919  26.499   0.349   3.741
11660W        W83920  14.122  29.538   2.837
11661W        W83921  20.185  22.096   1.401
11662W        W83922  19.174  19.644   3.241
11663W        W83923  28.014  34.994  10.467
11664W        W83924  42.854  34.028   0.348
11665W        W83925  33.963   7.672  14.854
11666W        W83926   5.348  42.347   2.281
11667W        W83927  34.384  24.098   1.334
11668W        W83928  34.579  44.310   0.349
11669W        W83929  26.645  27.946   4.706
11670W        W83930  26.159  14.234   4.352
11671W        W83931  20.102   7.180   9.659
11672W        W83932  26.475   5.352   4.181
11673W        W83933  33.114   5.900   3.736
11674W        W83934  29.548  18.772  12.397
11675W        W83935  33.121  22.040  13.834
11676W        W83936  17.569   3.325   2.307
11677W        W83937   2.911  32.968  13.517
11678W        W83938  28.461  20.544   2.371
11679W        W83939  26.612  24.164  12.400
11680W        W83940   8.390  14.780   4.719
11681W        W83941  38.825  15.747   0.356
11682W        W83942   6.374   5.321   3.817
11683W        W83943  14.689   5.738   1.305
11684W        W83944  18.169  34.520  10.496
11685W        W83945  29.096  41.406  14.975
11686W        W83946  14.115   9.862   0.818
11687W        W83947   8.797  29.538   4.176
11688W        W83948   5.897  12.260   2.867
11689W        W83949  25.490   6.746  13.471
11690W        W83950   2.849  13.128  12.494
11691W        W83951   5.756  35.972   0.753
11692W        W83952  21.620   7.337  11.001
11693W        W83953  21.257  44.917  10.976
11694W        W83954  25.478  37.507   5.217
11695W        W83955   8.260  40.912  12.860
11696W        W83956  21.259  44.395   4.218
11697W        W83957  28.506  42.969  14.859
11698W        W83958  40.529  38.883   2.777
11699W        W83959  33.509  14.184  14.854
11700W        W83960  10.844  20.595   3.264
11701W        W83961  30.143   9.879   2.287
11702W        W83962  25.493  32.006   1.845
11703W        W83963  25.528  34.097   0.957
11704W        W83964  40.814   4.879   2.755
11705W        W83965  38.063  37.861   1.807
11706W        W83966  16.785   0.949   2.886
11707W        W83967  30.119  24.715  10.563
11708W        W83968  30.597  23.106  12.461
11709W        W83969   1.419  23.227  14.770
11710W        W83970   7.314  24.605  12.436
11711W        W83971   7.405  10.244  11.116
11712W        W83972   7.391  27.582   5.265
11713W        W83973  40.868  39.458   4.667
11714W        W83974  28.151   7.306   2.813
11715W        W83975  22.746  44.268   2.840
11716W        W83976  44.837  39.971  14.426
11717W        W83977   2.239  44.761  14.477
11718W        W83978  33.920   6.378  11.919
11719W        W83979  30.417  33.530  11.869
11720W        W83980  26.571  43.507   0.305
11721W        W83981  21.224  16.618   1.340
11722W        W83982   8.834  24.224   4.666
11723W        W83983  23.564  15.816   4.142
11724W        W83984  29.561  27.551   0.762
11725W        W83985  37.487  41.005  12.436
11726W        W83986   4.913  15.203  10.448
11727W        W83987  26.044  39.872   4.809
11728W        W83988  15.306  36.410  10.569
11729W        W83989  41.017  37.502   0.255
11730W        W83990  21.573  22.685  12.869
11731W        W83991  35.969  21.555   0.323
11732W        W83992   1.453  21.532  12.926
11733W        W83993  33.988  27.452  11.580
11734W        W83994  23.657  12.856   1.318
11735W        W83995  37.065  13.275   3.307
11736W        W83996  42.833  20.126  10.428
11737W        W83997  44.857  30.486   1.410
11738W        W83998  37.526  24.114   3.706
11739W        W83999   1.326  17.210   1.703
11740W        W84000  22.147  17.742  11.388
11741W        W84001  11.182  23.212   0.789
11742W        W84002  42.342  19.101   2.787
11743W        W84003   3.226   7.851  13.477
11744W        W84004   9.824  23.697  11.912
11745W        W84005  22.090  37.047  14.788
11746W        W84006  27.547  35.011  10.591
11747W        W84007  17.622  12.279   2.712
11748W        W84008  29.089   2.304  13.941
11749W        W84009  23.656  40.803  12.379
11750W        W84010  28.663  30.591  12.978
11751W        W84011  30.936  16.183  14.321
11752W        W84012  20.084  29.126   5.273
11753W        W84013  38.455  23.576   2.837
11754W        W84014  19.131  18.249  13.912
11755W        W84015  18.759  43.486   4.189
11756W        W84016  41.983  17.156   1.290
11757W        W84017  43.973  41.480  12.078
11758W        W84018  10.186  36.921   4.789
11759W        W84019  24.638  26.105  13.531
11760W        W84020  33.082  18.768   2.294
11761W        W84021   4.242  35.109  10.936
11762W        W84022   0.877  31.990   3.769
11763W        W84023  22.543  27.166   4.729
11764W        W84024  31.064  18.645  12.914
11765W        W84025  25.025  19.062   3.301
11766W        W84026  36.869  22.637  13.957
11767W        W84027   6.238   9.795  10.477
11768W        W84028  30.150  17.221  14.029
11769W        W84029  31.945  31.494   4.180
11770W        W84030  37.869   0.811  13.967
11771W        W84031  15.255  26.131  13.861
11772W        W84032   2.811  44.950   0.927
11773W        W84033  22.246  44.772   4.814
11774W        W84034  18.269  19.218   1.730
11775W        W84035  34.412  11.371  14.893
11776W        W84036   4.775  14.720  12.559
11777W        W84037  17.097   8.165   0.746
11778W        W84038  16.587  19.689  11.944
11779W        W84039  11.168   7.216  12.573
11780W        W84040  37.838  34.919   2.669
11781W        W84041  15.258  22.530   4.620
11782W        W84042  39.461   1.915   2.799
11783W        W84043   1.315  13.651  13.450
11784W        W84044  38.540  43.883  11.018
11785W        W84045  26.546   4.847   0.335
11786W        W84046   3.940  44.504  10.910
11787W        W84047  44.957  41.958  10.408
11788W        W84048   2.409  30.112   3.169
11789W        W84049  33.553  12.124  11.126
11790W        W84050   3.945   2.741  12.995
11791W        W84051  44.968   7.308  13.501
11792W        W84052  33.442  25.191  12.395
11793W        W84053  26.122  14.710   2.667
11794W        W84054  41.421   1.803   3.342
11795W        W84055  43.278   5.402   1.834
11796W        W84056  27.083  31.602   3.856
11797W        W84057  26.496  39.876   1.801
11798W        W84058  36.584  18.754  11.431
11799W        W84059   3.788  35.053  11.538
11800W        W84060  37.558  34.611   4.749
11801W        W84061   1.917  40.402  12.002
11802W        W84062  28.671  28.020  14.020
11803W        W84063  12.357   1.434  13.845
11804W        W84064  44.766  23.735   3.276
11805W        W84065  44.423  11.709  11.549
11806W        W84066  14.289  44.325  12.462
11807W        W84067  19.254   8.791   1.322
11808W        W84068  43.931  23.008   1.358
11809W        W84069   8.372  25.202   4.678
11810W        W84070  31.929   8.802  14.875
11811W        W84071  31.615   1.825  11.395
11812W        W84072  30.453  43.832   0.402
11813W        W84073  19.774  34.952  11.897
11814W        W84074  33.057  42.289   4.347
11815W        W84075   0.307  26.129  12.903
11816W        W84076  39.961   0.936  12.057
11817W        W84077   4.899  23.096  12.563
11818W        W84078  19.144   7.827  13.011
11819W        W84079   9.690  14.245  10.465
11820W        W84080  39.412  14.682   1.377
11821W        W84081  26.497  18.210   2.180
11822W        W84082  34.019   6.193   4.210
11823W        W84083  37.071  41.968   2.189
11824W        W84084   9.760   1.823   1.857
11825W        W84085  27.456   2.912   2.406
11826W        W84086  38.947  32.991   0.948
11827W        W84087  39.453  43.935   4.159
11828W        W84088  32.095  32.934   1.216
11829W        W84089   1.275  15.612  13.339
11830W        W84090   8.658  29.509  11.421
11831W        W84091   3.878  36.567  14.023
11832W        W84092  26.063   3.899   1.721
11833W        W84093  39.829  14.279   2.373
11834W        W84094  21.187  43.487  11.926
11835W        W84095  44.343  41.355  10.134
11836W        W84096  12.201  44.006   0.418
11837W        W84097  25.656  29.943  13.513
11838W        W84098   7.878  10.325  14.023
11839W        W84099  36.871  34.387   2.763
11840W        W84100  12.804  39.376  14.790
11841W        W84101   0.451  36.381  11.118
11842W        W84102   3.771  38.987   3.214
11843W        W84103   0.486  11.152  11.996
11844W        W84104  32.457  19.129  11.443
11845W        W84105  29.952   5.889  13.528
11846W        W84106   1.251  31.962   0.354
11847W        W84107  18.591   3.220  12.429
11848W        W84108  23.700  35.904  14.495
11849W        W84109  11.141   2.421   4.609
11850W        W84110  32.022  32.014   0.349
11851W        W84111   1.865  37.503   5.109
11852W        W84112  15.221  18.644   2.291
11853W        W84113  22.582  23.559   3.778
11854W        W84114  38.444   6.331   4.819
11855W        W84115  44.446  29.424   1.694
11856W        W84116  20.612   3.399  13.950
11857W        W84117   2.950  29.004  11.462
11858W        W84118   7.190   4.881   5.132
11859W        W84119  40.369  11.354  13.458
11860W        W84120   6.802  30.112   1.265
11861W        W84121  20.051   0.360   4.304
11862W        W84122  32.927  22.010   1.278
11863W        W84123  24.702  23.612   3.718
11864W        W84124  11.233  30.493  10.602
11865W        W84125  41.888  31.411   4.279
11866W        W84126  44.339  20.590   2.847
11867W        W84127  23.233  23.571  13.962
11868W        W84128   6.320  38.820  12.977
11869W        W84129  22.617   1.430  11.014
11870W        W84130  42.864  32.974   4.322
11871W        W84131   0.962  31.557   1.879
11872W        W84132  23.508  10.781   2.820
11873W        W84133  15.149  22.527  13.889
11874W        W84134  16.141  39.866  11.899
11875W        W84135  24.093  17.207  13.912
11876W        W84136  14.317   9.849   3.659
11877W        W84137  14.293  20.634   2.818
11878W        W84138  22.648  20.116  10.946
11879W        W84139  44.963  40.358   1.760
11880W        W84140  10.786   9.311  10.917
11881W        W84141   6.779  20.612  13.007
11882W        W84142  42.509  11.161  11.091
11883W        W84143  11.790   0.255  12.526
11884W        W84144  26.989  23.651   1.391
11885W        W84145   6.295  43.007   4.207
11886W        W84146  23.101  10.330  14.275
11887W        W84147  25.471  30.159  13.927
11888W        W84148  32.540   1.366  13.313
11889W        W84149  20.606  42.981  11.466
11890W        W84150   3.897  16.694  14.772
11891W        W84151  11.855   7.383   2.822
11892W        W84152  12.333  13.825  11.490
11893W        W84153  19.180   0.461   4.621
11894W        W84154   9.737  14.308   3.830
11895W        W84155  28.058  28.540  12.988
11896W        W84156  35.896  28.438  11.113
11897W        W84157   5.753  23.599  13.435
11898W        W84158   6.701  40.320   4.268
11899W        W84159  29.045  40.943   1.788
11900W        W84160  23.070  14.262  10.536
11901W        W84161  40.414  27.631  14.936
11902W        W84162  29.509  32.401  11.074
11903W        W84163  35.376  20.151   4.656
11904W        W84164  41.460  40.521   2.252
11905W        W84165  23.640  25.077  11.037
11906W        W84166   5.808  32.035   4.123
11907W        W84167  29.928  31.013  10.590
11908W        W84168   9.388  10.684   1.767
11909W        W84169   7.766   3.307   0.464
11910W        W84170  17.789  40.438   0.406
11911W        W84171  16.766   8.380  11.449
11912W        W84172   6.879  34.104  10.577
11913W        W84173  20.634  27.512   5.620
11914W        W84174  13.154   3.436   2.718
11915W        W84175  41.493  17.645   2.180
11916W        W84176   5.313  13.258   4.118
11917W        W84177  18.690  16.598  12.370
11918W        W84178  13.117  20.735   3.213
11919W        W84179  25.028  12.824   2.880
11920W        W84180  14.755  20.123   0.928
11921W        W84181  34.023  26.641   2.397
11922W        W84182  43.769   3.924   0.279
11923W        W84183   1.268  41.810  12.878
11924W        W84184  41.916   3.881  13.512
11925W        W84185  11.785  41.037  11.003
11926W        W84186  35.029   3.413   2.719
11927W        W84187  13.603  14.770   3.252
11928W        W84188  17.598   9.717  10.509
11929W        W84189  10.635  36.442   3.799
11930W        W84190  36.439  19.668  13.854
11931W        W84191  10.309  19.645  13.347
11932W        W84192  20.193  17.300  11.573
11933W        W84193  40.994   9.293  14.986
11934W        W84194  42.869  34.425  14.321
11935W        W84195  34.115  11.299  14.951
11936W        W84196  18.129   2.947  10.957
11937W        W84197   8.898  13.173  14.465
11938W        W84198   8.361  34.925   3.753
11939W        W84199  17.739  28.022  14.457
11940W        W84200  35.478  21.682   0.941
11941W        W84201  16.574  15.176   1.219
11942W        W84202  24.038  26.516   1.375
11943W        W84203  11.756  29.979   9.925
11944W        W84204  11.361  17.761   3.859
11945W        W84205  32.888  18.167  12.971
11946W        W84206  28.080  21.577   2.755
11947W        W84207  35.987  27.496   4.826
11948W        W84208  42.372  24.652  12.508
11949W        W84209  29.546  33.613  13.545
11950W        W84210   0.281   5.693   2.860
11951W        W84211   8.774   6.694   2.764
11952W        W84212  44.993   2.261   4.732
11953W        W84213  41.907  38.559  13.925
11954W        W84214  12.724  40.408  14.764
11955W        W84215  28.149  38.494  14.915
11956W        W84216   3.931   1.747  13.847
11957W        W84217  43.280  10.760  13.045
11958W        W84218  22.591   1.272  11.925
11959W        W84219  25.978  18.118  11.032
11960W        W84220   5.337  27.088   4.821
11961W        W84221   1.315   5.206   0.466
11962W        W84222  18.706  42.028  14.959
11963W        W84223  39.351  16.126   1.742
11964W        W84224  14.328   8.706  10.531
11965W        W84225   4.330   6.830   1.410
11966W        W84226  12.735  33.388   0.785
11967W        W84227  29.036  36.038   2.688
11968W        W84228  21.653   9.753  14.439
11969W        W84229   2.782  14.099  11.523
11970W        W84230   0.819  10.244   4.228
11971W        W84231   2.838   0.763  14.827
11972W        W84232  19.096  19.572  12.525
11973W        W84233  41.943  38.546  12.565
11974W        W84234   2.965  11.334  13.465
11975W        W84235  15.812  17.064   4.765
11976W        W84236  34.865  39.054  11.545
11977W        W84237  37.469  36.546   3.250
11978W        W84238  13.338   9.387   4.198
11979W        W84239  44.932  31.094  11.894
11980W        W84240   3.358  12.173   1.386
11981W        W84241  33.532  35.102  12.072
11982W        W84242  40.333  43.331  11.495
11983W        W84243  33.104  15.700  14.374
11984W        W84244  35.041  19.772  13.042
11985W        W84245  37.409  39.884   2.193
11986W        W84246  38.899   3.829   4.670
11987W        W84247   3.356   7.215   0.283
11988W        W84248   8.254   1.944  11.927
11989W        W84249  34.973  24.678  11.604
11990W        W84250  14.595  33.606  14.029
11991W        W84251  25.594  20.141   2.699
11992W        W84252  37.987  38.403   4.117
11993W        W84253  18.666   7.779   1.408
11994W        W84254  22.727   5.225   0.342
11995W        W84255   7.386   3.249   3.639
11996W        W84256  32.911   2.401  12.886
11997W        W84257  39.862   4.784  10.495
11998W        W84258  22.081   3.954  14.009
11999W        W84259  19.088  31.035   2.278
12000W        W84260  10.740  28.641  11.960
12001W        W84261  29.598  43.844   3.851
12002W        W84262  21.700  35.934  13.987
12003W        W84263  32.451  25.682   3.665
12004W        W84264  41.369   1.438   3.255
12005W        W84265  27.612  36.360  14.442
12006W        W84266  38.533  21.170   0.768
12007W        W84267  31.502   8.711  13.917
12008W        W84268  41.314  23.700  11.021
12009W        W84269  19.582  37.522   4.120
12010W        W84270  24.659  17.069   3.775
12011W        W84271  31.977   3.927  10.923
12012W        W84272  35.934  22.745   0.833
12013W        W84273   0.297  31.454   2.724
12014W        W84274  32.047  29.059   0.891
12015W        W84275  15.635  10.328   2.358
12016W        W84276  19.668  14.264  11.098
12017W        W84277  17.595   3.287   0.356
12018W        W84278  40.432   6.261  10.475
12019W        W84279   8.294  44.455  13.349
12020W        W84280  17.731   2.822  14.833
12021W        W84281  40.362  24.138  13.835
12022W        W84282  40.817   9.386   2.205
12023W        W84283  32.003  31.436  14.509
12024W        W84284   6.369  38.403  13.054
12025W        W84285   6.214   6.193   5.094
12026W        W84286  39.949   3.861  10.537
12027W        W84287   5.812  26.029   3.358
12028W        W84288  29.164  35.969  13.960
12029W        W84289  24.217  40.936   1.870
12030W        W84290  38.010  13.295   1.919
12031W        W84291  17.734  43.796  13.994
12032W        W84292  25.098  12.138  11.497
12033W        W84293  10.204  31.056  10.939
12034W        W84294   3.738  33.070   1.283
12035W        W84295  12.250  38.339  14.866
12036W        W84296  12.654  12.220   2.827
12037W        W84297  11.799  38.010  14.500
12038W        W84298  34.572  19.168   0.937
12039W        W84299  44.853  36.561  13.387
12040W        W84300  17.597  40.369  11.565
12041W        W84301  20.272  30.056  14.391
12042W        W84302  41.959  29.534   2.257
12043W        W84303  26.122   6.781  13.479
12044W        W84304  25.702  11.740   3.247
12045W        W84305   8.885   1.775  12.564
12046W        W84306  42.973   1.393   1.448
12047W        W84307  36.067  15.114   4.777
12048W        W84308  21.165  31.936   2.674
12049W        W84309  27.601  30.158  11.563
12050W        W84310   1.332   1.266   0.885
12051W        W84311  17.787  30.006  14.381
12052W        W84312  16.619   2.904   2.759
12053W        W84313  38.831  28.582   4.696
12054W        W84314  17.082  35.936  14.495
12055W        W84315  42.871  15.119   0.454
12056W        W84316  37.962  33.506   1.757
12057W        W84317  22.040   7.355   2.329
12058W        W84318  30.562  24.721   0.765
12059W        W84319  37.485  43.814  11.009
12060W        W84320   2.367  41.828  13.380
12061W        W84321  11.356  37.402   3.200
12062W        W84322  35.060  41.466   3.175
12063W        W84323  26.038  20.216   1.307
12064W        W84324  41.436  44.414  13.018
12065W        W84325   3.796   4.338   1.870
12066W        W84326   4.827  14.707   1.846
12067W        W84327  10.870  42.394   3.845
12068W        W84328  39.909  21.727   0.726
12069W        W84329   2.784  39.383   3.675
12070W        W84330  23.674  14.822   1.357
12071W        W84331  34.535  19.165   1.924
12072W        W84332  21.689  44.872   2.280
12073W        W84333  12.623   0.855  14.362
12074W        W84334  29.021  36.408   4.763
12075W        W84335  11.369  40.439   4.205
12076W        W84336  27.067  15.736  12.049
12077W        W84337  14.643  36.353  11.989
12078W        W84338  30.424  43.382   4.658
12079W        W84339  44.427  28.601   1.885
12080W        W84340   4.928  38.835  13.034
12081W        W84341  38.064   4.917   3.736
12082W        W84342   7.326  12.353   1.238
12083W        W84343  10.839   6.369  11.472
12084W        W84344  13.609  43.445   2.257
12085W        W84345  25.696  16.292   2.265
12086W        W84346  28.484  37.398  11.857
12087W        W84347   2.258  32.535   2.392
12088W        W84348  30.133  33.452   4.597
12089W        W84349   0.324  19.069  11.527
12090W        W84350  14.111  11.269   3.333
12091W        W84351  29.643   8.688  12.955
12092W        W84352  10.376  21.711   3.230
12093W        W84353  41.803  40.867   3.321
12094W        W84354  42.995  36.589   3.278
12095W        W84355  26.120  18.571   0.387
12096W        W84356   6.404  13.159   2.343
12097W        W84357  32.419   9.168   1.880
12098W        W84358  28.009  29.159   2.835
12099W        W84359   7.414  33.407   4.298
12100W        W84360   5.806  11.849  12.373
12101W        W84361  32.952  42.429   1.745
12102W        W84362  33.401  44.888  10.458
12103W        W84363   6.354  29.024   0.762
12104W        W84364  25.514   0.875  10.916
12105W        W84365  43.477  31.507   2.756
12106W        W84366  35.430   5.220  14.450
12107W        W84367   3.283  38.538  11.935
12108W        W84368   6.279  17.778  13.039
12109W        W84369  29.918  15.657  11.040
12110W        W84370  26.678  35.875  14.338
12111W        W84371  30.084  22.725   4.689
12112W        W84372  40.327  41.318   2.393
12113W        W84373   3.310  10.787   3.152
12114W        W84374   3.846  11.303  14.336
12115W        W84375  25.696  30.560   3.352
12116W        W84376  17.120  39.453  13.375
12117W        W84377  11.721  25.168  11.891
12118W        W84378  33.407  40.963   0.835
12119W        W84379  26.526  31.081   0.824
12120W        W84380   8.214  43.463   2.669
12121W        W84381  18.152  32.117  13.991
12122W        W84382   8.811  19.154   0.758
12123W        W84383   0.986   2.960   0.925
12124W        W84384  25.983  25.964  10.912
12125W        W84385   9.287  10.174   0.940
12126W        W84386   0.309  25.577  14.354
12127W        W84387  13.224  14.684  10.624
12128W        W84388   4.448  13.832  10.571
12129W        W84389   6.826  21.169  14.435
12130W        W84390  39.881  22.682  10.430
12131W        W84391   4.934  23.498  11.511
12132W        W84392  14.814  27.068  13.791
12133W        W84393  17.084  15.291   3.816
12134W        W84394  30.489  39.544   2.815
12135W        W84395   6.249  19.740  11.932
12136W        W84396  39.040  23.699   0.422
12137W        W84397  31.468  40.506  13.926
12138W        W84398  25.621  10.795  14.835
12139W        W84399  11.154  19.534  12.026
12140W        W84400  25.534  14.751   1.228
12141W        W84401  13.149  27.595   0.376
12142W        W84402  10.364  43.784  10.611
12143W        W84403  26.968  28.676  11.454
12144W        W84404  40.492  15.145   1.849
12145W        W84405   9.277   0.417   3.655
12146W        W84406  28.949  34.567   0.408
12147W        W84407  39.394   7.672  14.830
12148W        W84408   1.384  33.038   3.704
12149W        W84409  24.196  15.243  10.607
12150W        W84410   9.799   1.791   2.669
12151W        W84411   6.424  33.559   9.980
12152W        W84412   4.743  40.538  13.064
12153W        W84413   3.954  32.140  10.119
12154W        W84414   9.736   7.344  12.493
12155W        W84415  28.514  16.230   2.875
12156W        W84416  13.239  44.786  12.436
12157W        W84417  30.583   4.775   4.193
12158W        W84418  30.086   0.764   2.200
12159W        W84419  10.821   6.241   1.239
12160W        W84420  39.823  31.451  14.919
12161W        W84421  20.161  27.654  12.044
12162W        W84422  38.551  17.174   3.175
12163W        W84423  31.951   6.923   0.355
12164W        W84424  26.954  12.745   1.364
12165W        W84425  41.392  34.882   1.435
12166W        W84426  32.912   3.746   2.205
12167W        W84427   8.332  39.351  10.641
12168W        W84428  13.240   9.313  14.022
12169W        W84429  34.944  15.090   1.370
12170W        W84430  12.649   5.262   3.360
12171W        W84431  23.547  44.965   4.772
12172W        W84432  33.403   1.309   4.620
12173W        W84433   4.842  22.710   3.826
12174W        W84434  25.014  38.429  12.397
12175W        W84435  19.131  16.728   2.898
12176W        W84436  33.019  19.194   5.802
12177W        W84437  38.547  42.396   2.288
12178W        W84438  12.177  38.490   0.861
12179W        W84439  21.622  31.983   1.703
12180W        W84440  11.648  15.169  13.317
12181W        W84441  33.526  43.893  12.479
12182W        W84442   7.705  34.025   3.762
12183W        W84443  27.470  32.920   4.719
12184W        W84444  18.703  33.564  11.374
12185W        W84445  10.374  14.657  12.446
12186W        W84446  26.015  40.438   1.296
12187W        W84447  28.516   9.819   3.204
12188W        W84448  22.629  14.144   3.238
12189W        W84449   3.772  25.054   5.118
12190W        W84450  20.748  42.334  10.997
12191W        W84451  26.687  29.995   0.754
12192W        W84452  43.844   9.158   4.342
12193W        W84453  30.092  21.080  10.957
12194W        W84454  26.067  23.513  13.039
12195W        W84455  35.376  26.967  12.453
12196W        W84456  31.141  29.600  10.404
12197W        W84457  12.137  35.597  12.565
12198W        W84458   8.807   1.452   4.761
12199W        W84459   6.817   0.392   2.319
12200W        W84460  23.505   1.951  14.912
12201W        W84461  15.748  30.567  14.294
12202W        W84462   6.744  43.401   1.859
12203W        W84463  31.987  32.590   4.609
12204W        W84464  16.690  14.300  12.363
12205W        W84465   5.925   0.306   0.939
12206W        W84466  39.549  17.211   3.228
12207W        W84467  13.202  39.976  11.915
12208W        W84468  25.101  35.902   1.437
12209W        W84469  42.022  29.045   2.347
12210W        W84470  32.130  11.845   3.684
12211W        W84471  22.015  13.767   1.895
12212W        W84472  19.562  15.132   1.224
12213W        W84473  10.643  19.067   3.182
12214W        W84474  26.616  39.824   0.799
12215W        W84475  31.578  32.085  13.863
12216W        W84476  12.612  22.133  13.345
12217W        W84477  40.040  34.452   4.618
12218W        W84478  31.088  10.709   3.790
12219W        W84479   8.666  22.732  11.472
12220W        W84480   3.788  37.027  14.808
12221W        W84481   7.271  38.988   2.337
12222W        W84482  27.546  29.950  13.465
12223W        W84483  44.853  43.442   3.664
12224W        W84484  34.383   5.771   1.931
12225W        W84485  17.668  41.033  13.464
12226W        W84486  40.841  23.039   0.849
12227W        W84487   5.802  43.955  12.032
12228W        W84488  18.658  13.118   0.345
12229W        W84489  10.220  19.188  12.063
12230W        W84490  16.301  34.007   3.277
12231W        W84491  20.652  27.596   4.814
12232W        W84492  21.198  11.198   4.719
12233W        W84493  12.352  18.547  10.637
12234W        W84494   5.869  37.338   4.767
12235W        W84495   4.331  16.651  12.459
12236W        W84496  12.289  42.295   0.335
12237W        W84497   6.703   8.788   4.682
12238W        W84498  25.471  27.007   1.395
12239W        W84499   9.855  25.043   3.292
12240W        W84500  24.648  39.389  14.927
12241W        W84501  23.019   5.760  12.498
12242W        W84502  42.898  39.328   3.189
12243W        W84503  22.113   0.962  12.453
12244W        W84504  40.042   6.307   1.300
12245W        W84505   7.345  43.936  12.347
12246W        W84506  18.656  30.104  14.376
12247W        W84507  44.822  22.545   2.340
12248W        W84508  43.897  41.332  11.470
12249W        W84509   5.428  25.038  14.974
12250W        W84510  22.101  11.284  11.522
12251W        W84511  37.860  14.180  12.843
12252W        W84512  19.612  34.998   4.648
12253W        W84513   4.775  15.631   0.437
12254W        W84514  37.431  32.443   1.801
12255W        W84515  13.280  42.309  14.782
12256W        W84516  18.059  20.095  12.833
12257W        W84517  30.110  27.477   1.436
12258W        W84518   4.848  35.870  12.057
12259W        W84519   2.469  39.421  13.982
12260W        W84520  30.081  41.803   4.134
12261W        W84521  41.389  24.140   4.233
12262W        W84522  14.817  39.537   2.802
12263W        W84523  42.496  14.182  13.438
12264W        W84524   6.808  42.306   4.181
12265W        W84525  23.623  40.955  10.604
12266W        W84526  24.204  29.506  14.779
12267W        W84527  11.752  29.959  12.488
12268W        W84528  37.026  42.881   3.638
12269W        W84529   0.272   7.735  12.547
12270W        W84530  28.086  40.798  14.963
12271W        W84531  36.498  14.254  11.945
12272W        W84532  43.475  20.217  12.843
12273W        W84533   5.256  34.543  10.516
12274W        W84534  19.266  20.625  12.408
12275W        W84535  34.890  26.514  13.474
12276W        W84536  31.418  43.804   0.364
12277W        W84537  41.969  39.403   1.694
12278W        W84538  19.264   7.232  12.413
12279W        W84539   6.213  34.418   2.808
12280W        W84540  27.667  35.901   4.222
12281W        W84541   6.900   7.407   4.682
12282W        W84542   1.893  15.719   2.745
12283W        W84543  31.559  44.778   2.792
12284W        W84544   1.379  28.043  11.047
12285W        W84545  34.890  10.871   0.741
12286W        W84546  16.786  32.455   1.769
12287W        W84547  29.654  31.905   0.749
12288W        W84548  35.422   7.340   1.242
12289W        W84549   1.848  37.065  12.880
12290W        W84550  18.651  24.491   2.858
12291W        W84551  23.735  33.889  11.046
12292W        W84552   1.289  17.726   3.824
12293W        W84553  30.577   2.284  11.563
12294W        W84554  22.598  36.518   3.674
12295W        W84555  34.541  42.803  13.044
12296W        W84556  15.204   1.349  14.881
12297W        W84557   0.847  17.227   1.409
12298W        W84558  34.525   2.818   0.326
12299W        W84559   4.707  35.377  10.447
12300W        W84560  10.248   4.262   3.249
12301W        W84561  11.828  39.372   4.761
12302W        W84562   4.781  29.465  11.970
12303W        W84563   8.313  26.052  11.960
12304W        W84564  22.646  10.714  13.896
12305W        W84565  22.154  20.055  14.360
12306W        W84566  40.045  18.052   1.368
12307W        W84567  17.223   7.822  10.031
12308W        W84568  37.075  43.345   2.353
12309W        W84569   7.851  12.672  13.037
12310W        W84570  20.128   4.343  12.414
12311W        W84571  26.562   4.816  13.847
12312W        W84572   4.325  14.740   4.113
12313W        W84573   2.921  39.315  11.910
12314W        W84574  22.218  39.427  13.963
12315W        W84575  43.832  34.413  13.452
12316W        W84576   8.819  12.327   3.726
12317W        W84577  28.475  43.861  11.609
12318W        W84578  36.569   0.842  11.902
12319W        W84579  37.363  15.698   3.719
12320W        W84580   4.395   0.840  12.525
12321W        W84581  32.111   4.215   4.597
12322W        W84582  11.700  10.357   4.247
12323W        W84583  10.219  27.521  10.495
12324W        W84584  19.717  40.905  11.380
12325W        W84585   0.798  41.846  13.923
12326W        W84586  43.018  12.802  13.485
12327W        W84587  19.106  27.019  10.934
12328W        W84588  32.556  35.603   0.366
12329W        W84589  43.909  22.579  14.979
12330W        W84590  13.773  31.106   3.831
12331W        W84591  36.925   8.711   2.185
12332W        W84592   4.438   1.903  11.946
12333W        W84593  11.196  23.635   0.271
12334W        W84594  15.612   3.244  13.033
12335W        W84595  14.823   1.454   4.625
12336W        W84596  18.764  25.991   3.792
12337W        W84597  12.683  38.890   4.183
12338W        W84598   2.920  38.931   2.242
12339W        W84599  28.530  42.816  13.445
12340W        W84600  29.105  22.527   3.821
12341W        W84601  44.873   6.911   4.142
12342W        W84602  20.616  36.510  12.346
12343W        W84603  27.475   6.300   2.721
12344W        W84604   5.340   1.300   2.287
12345W        W84605  40.329  42.998   5.256
12346W        W84606  12.738  39.912   4.336
12347W        W84607  18.158  23.533   2.296
12348W        W84608  29.498  12.737   3.750
12349W        W84609   1.910  10.157  11.129
12350W        W84610  10.293  18.622  13.797
12351W        W84611  18.061   3.444   2.203
12352W        W84612  30.423  40.367   1.383
12353W        W84613  38.893  28.154   1.307
12354W        W84614  35.956   9.812  11.489
12355W        W84615  16.175  40.312  13.444
12356W        W84616  35.439  21.644  11.033
12357W        W84617   5.296  24.183   1.930
12358W        W84618  31.404  27.962   3.733
12359W        W84619  11.212  25.120  14.294
12360W        W84620  37.496  30.152   1.283
12361W        W84621   5.356  31.414   0.872
12362W        W84622   0.888  23.723   1.934
12363W        W84623  13.639  27.465   2.762
12364W        W84624  34.405  11.330  11.603
12365W        W84625  20.181   5.755   2.306
12366W        W84626  43.799  24.625  14.394
12367W        W84627   0.829   1.958  11.506
12368W        W84628  44.851  18.716  12.827
12369W        W84629  36.419  17.721  10.639
12370W        W84630  36.922  14.795   1.694
12371W        W84631  22.649   3.344   1.784
12372W        W84632  13.609  30.426   4.809
12373W        W84633  40.425  21.069  12.528
12374W        W84634  26.490  30.994   3.751
12375W        W84635  35.921  35.864   0.920
12376W        W84636  44.963  22.514   3.759
12377W        W84637  39.905   9.812   2.309
12378W        W84638  14.596  40.808   4.290
12379W        W84639  39.532  44.423  10.451
12380W        W84640  30.152  32.625   5.773
12381W        W84641  13.124  16.629   1.356
12382W        W84642  35.988  24.590   2.750
12383W        W84643  21.242  16.284   1.351
12384W        W84644   4.442  26.551  13.957
12385W        W84645  24.113  12.658   2.207
12386W        W84646  13.158  35.902  12.912
12387W        W84647  25.099  17.619  13.059
12388W        W84648  10.264   0.351   4.741
12389W        W84649  39.329  27.940   4.816
12390W        W84650  33.424   4.823   4.291
12391W        W84651  30.554   3.892  12.080
12392W        W84652  21.542   4.703  14.488
12393W        W84653  39.401  32.901  13.022
12394W        W84654   5.749  22.670  10.489
12395W        W84655  37.890  43.989  11.918
12396W        W84656  42.419  29.583   3.167
12397W        W84657  13.791  40.823  11.499
12398W        W84658   0.419  18.091   0.860
12399W        W84659  24.705  11.743   1.312
12400W        W84660   2.949  38.455  13.534
12401W        W84661  11.766  24.530  11.067
12402W        W84662   3.724  23.081  12.416
12403W        W84663  19.601  30.415  12.549
12404W        W84664   1.243  38.448  13.432
12405W        W84665  26.641   2.263   0.377
12406W        W84666   7.762  42.394   3.759
12407W        W84667  38.925   8.287   1.792
12408W        W84668  31.428  43.458  11.044
12409W        W84669  26.045  38.832   3.744
12410W        W84670   2.845  32.931  12.445
12411W        W84671  35.561  39.884  11.966
12412W        W84672  11.753   2.226  14.852
12413W        W84673  33.446  25.113  14.303
12414W        W84674  16.645  41.989  10.568
12415W        W84675  19.066   3.731  11.578
12416W        W84676  42.370  34.380   2.854
12417W        W84677  40.324  18.210  12.441
12418W        W84678  26.119  28.599   1.839
12419W        W84679  23.543  44.820  12.421
12420W        W84680  39.931  21.056   3.757
12421W        W84681  28.950  10.374  10.041
12422W        W84682  21.169  35.539   1.805
12423W        W84683  41.342  36.036   2.187
12424W        W84684   1.811  20.743   4.811
12425W        W84685  22.647  31.984  11.433
12426W        W84686  15.105  29.956   4.830
12427W        W84687  34.381  37.081  14.956
12428W        W84688  11.704  17.272   0.931
12429W        W84689   0.409   1.757   4.792
12430W        W84690  11.626  10.756   1.319
12431W        W84691  16.714   4.700  11.087
12432W        W84692  38.537  26.951   4.621
12433W        W84693  16.168  40.311   4.266
12434W        W84694  37.944  10.358   5.136
12435W        W84695  39.894  12.293   3.827
12436W        W84696  13.267  36.020   4.254
12437W        W84697  19.051  21.748  12.415
12438W        W84698  36.935  20.253  14.510
12439W        W84699  17.591  20.195   3.831
12440W        W84700  20.270  33.109  11.901
12441W        W84701  10.637  17.787   3.342
12442W        W84702   8.365  42.010  12.504
12443W        W84703   5.843  43.974  14.514
12444W        W84704  39.436  30.452  10.624
12445W        W84705   9.731  35.964   2.743
12446W        W84706  14.675  22.018   3.862
12447W        W84707   8.402  38.447  14.973
12448W        W84708  17.675  37.045   0.303
12449W        W84709  43.768  11.263   2.361
12450W        W84710  28.462  17.179   9.933
12451W        W84711  31.511   8.789   1.924
12452W        W84712  11.265  10.766   2.226
12453W        W84713  41.814  10.253  13.390
12454W        W84714  15.811  34.594   0.759
12455W        W84715   2.826  38.500   3.662
12456W        W84716   9.692  37.519   2.185
12457W        W84717  33.976  16.626   4.758
12458W        W84718  21.134  19.271   0.442
12459W        W84719   4.822   0.254  13.030
12460W        W84720   7.849  23.598   0.905
12461W        W84721  37.070   0.253   0.325
12462W        W84722  25.015   2.293  13.912
12463W        W84723  42.361  14.599   2.266
12464W        W84724   9.692  39.543  14.830
12465W        W84725  40.450  22.649   1.827
12466W        W84726   7.414  36.551  12.518
12467W        W84727  16.251  20.150   4.707
12468W        W84728  15.601  20.194  12.904
12469W        W84729  39.938  23.655   3.715
12470W        W84730  44.432  41.029   3.757
12471W        W84731  12.286  30.915   0.818
12472W        W84732  21.113  42.878   2.704
12473W        W84733  26.551  20.687   1.402
12474W        W84734   3.847  15.156  13.952
12475W        W84735  16.674  19.144  11.912
12476W        W84736  14.336  29.027  10.992
12477W        W84737  29.472  31.480   0.925
12478W        W84738   4.291  35.092   3.698
12479W        W84739  27.681  17.636  12.965
12480W        W84740   9.300  20.718  11.044
12481W        W84741  12.309  38.060   2.745
12482W        W84742  23.491  31.991  11.897
12483W        W84743  42.496  40.515  13.417
12484W        W84744   9.685  36.371   4.601
12485W        W84745  14.270  29.153   0.454
12486W        W84746   1.292  10.830   3.838
12487W        W84747   1.863  23.210  10.511
12488W        W84748   4.435  18.230  13.978
12489W        W84749  20.225  23.585  11.881
12490W        W84750  26.113  12.320   3.166
12491W        W84751   6.343  36.554   1.214
12492W        W84752  41.323  31.461  11.943
12493W        W84753  32.391  42.354   3.170
12494W        W84754  32.427  23.567  10.622
12495W        W84755  26.659  11.637   0.401
12496W        W84756  39.537  36.429   0.901
12497W        W84757   0.931  14.222   1.729
12498W        W84758  15.793  26.180  14.340
12499W        W84759   0.347   9.814  13.408
12500W        W84760   1.456  20.614   3.151
12501W        W84761   5.284  27.480   3.370
12502W        W84762  36.363   1.853   4.814
12503W        W84763  27.944  28.163  11.064
12504W        W84764  14.687  10.239  12.002
12505W        W84765   6.379  27.569   1.407
12506W        W84766  28.455   1.805   3.251
12507W        W84767  12.633   7.181   3.854
12508W        W84768  37.349  43.510  12.544
12509W        W84769  41.880  13.807  10.643
12510W        W84770  35.055  39.378  12.936
12511W        W84771  27.656   7.665  11.049
12512W        W84772  36.087  36.349   2.332
12513W        W84773  27.608   8.188   4.123
12514W        W84774  18.643   0.304  11.910
12515W        W84775   9.838   2.788  12.842
12516W        W84776  18.609  29.554  13.058
12517W        W84777  17.591  32.059  12.506
12518W        W84778  30.457  24.569  14.300
12519W        W84779  16.675  24.565  13.906
12520W        W84780  10.640  14.212  14.784
12521W        W84781  36.992  37.521   3.215
12522W        W84782  36.946  36.078  12.971
12523W        W84783  34.528   4.234  10.925
12524W        W84784   1.395  24.646   4.335
12525W        W84785  28.956  26.110  11.380
12526W        W84786  33.386  24.204   4.136
12527W        W84787   8.725  13.768   4.836
12528W        W84788  40.414  17.743  12.033
12529W        W84789   1.449  12.116   4.600
12530W        W84790  14.100  14.136   9.517
12531W        W84791  16.810  17.133   3.834
12532W        W84792  21.655  38.544   1.380
12533W        W84793  25.192   2.944  13.892
12534W        W84794  36.464  15.281   1.283
12535W        W84795  28.950   9.658  14.488
12536W        W84796  21.634  42.966   1.222
12537W        W84797  21.555  35.104   1.232
12538W        W84798  36.356  31.985  13.032
12539W        W84799  15.770  10.277  13.800
12540W        W84800  39.545   8.672   1.696
12541W        W84801  32.586   3.732   1.303
12542W        W84802  18.763  31.453   3.184
12543W        W84803  28.102  14.206  14.448
12544W        W84804  32.093  24.128  12.877
12545W        W84805  43.806  22.029   3.339
12546W        W84806  43.331  43.475  12.054
12547W        W84807  19.546   4.357   1.224
12548W        W84808  30.140  12.854   0.318
12549W        W84809  36.041   7.173   0.339
12550W        W84810  42.521  39.874  10.456
12551W        W84811   5.792  30.518  11.425
12552W        W84812  38.868  13.166  14.777
12553W        W84813   0.817   4.392   2.773
12554W        W84814  12.190   0.886   1.780
12555W        W84815   4.794  11.327   3.770
12556W        W84816  14.599  30.549   2.257
12557W        W84817   9.321   7.902   3.664
12558W        W84818   6.684  38.975  14.278
12559W        W84819  25.476  15.647   2.272
12560W        W84820  34.424   5.763   0.806
12561W        W84821  22.671  31.611   4.179
12562W        W84822   4.717  16.112   0.930
12563W        W84823  16.279  18.627   0.903
12564W        W84824  43.929  29.077  13.992
12565W        W84825   7.724  26.545   1.304
12566W        W84826  42.870   1.456  11.008
12567W        W84827  28.630  21.607  13.365
12568W        W84828  30.515  27.138  14.792
12569W        W84829  22.601  32.052   1.304
12570W        W84830   9.778  43.332   3.269
12571W        W84831  28.090  34.399   0.776
12572W        W84832  12.170  44.502   1.849
12573W        W84833  21.597  19.745  12.941
12574W        W84834  17.599  13.226   3.832
12575W        W84835  18.205  29.163   2.674
12576W        W84836  32.892  36.439   4.332
12577W        W84837  21.221  11.742   1.416
12578W        W84838  40.383  10.378   1.409
12579W        W84839  36.883  18.697   4.701
12580W        W84840  34.559  31.557  11.457
12581W        W84841   5.285  12.756  12.974
12582W        W84842  28.579  12.129  14.941
12583W        W84843  20.543  22.620  11.954
12584W        W84844  26.498   8.898  12.933
12585W        W84845  17.654  38.379  11.452
12586W        W84846  43.844  41.461   0.912
12587W        W84847  31.988  10.853  14.310
12588W        W84848  22.589  29.939   4.764
12589W        W84849   0.342  11.292  13.981
12590W        W84850   1.260  33.948   2.205
12591W        W84851  19.665  34.452  10.418
12592W        W84852  31.430  42.986  14.805
12593W        W84853  33.914  31.573  14.984
12594W        W84854  24.014  42.977   4.629
12595W        W84855   8.804  24.708  10.583
12596W        W84856  35.886   5.819  12.073
12597W        W84857  28.623   0.345  12.080
12598W        W84858   0.266  17.651   4.128
12599W        W84859  20.273  40.864   3.346
12600W        W84860   4.266  30.083  11.955
12601W        W84861  15.166   8.684  14.804
12602W        W84862  44.790  13.639  14.857
12603W        W84863   7.872  30.644  10.010
12604W        W84864  15.588  34.590   3.182
12605W        W84865  13.198   1.465  11.065
12606W        W84866   2.400  12.728  12.061
12607W        W84867  10.151  38.361  11.067
12608W        W84868   7.811  16.629   4.343
12609W        W84869  37.414  27.508   4.617
12610W        W84870   4.266   6.740   0.731
12611W        W84871  23.078  26.536  10.628
12612W        W84872  27.096  38.564  14.396
12613W        W84873  16.158  39.048  10.945
12614W        W84874  14.788  19.212   2.845
12615W        W84875  23.640  27.450   2.726
12616W        W84876   2.472  30.937   2.801
12617W        W84877  38.023  15.685   4.224
12618W        W84878  24.644  42.426  13.949
12619W        W84879  42.418   9.665   2.716
12620W        W84880  25.703   5.208  12.535
12621W        W84881  11.263  33.610   1.824
12622W        W84882   7.395  40.309   0.816
12623W        W84883  24.558   4.826  10.582
12624W        W84884  13.749   4.876  14.025
12625W        W84885  28.990   5.875   4.263
12626W        W84886  30.458  34.615  14.437
12627W        W84887  23.037  44.873   4.761
12628W        W84888   2.837   7.871   2.257
12629W        W84889   0.920   8.261  10.909
12630W        W84890   7.768  28.011   2.325
12631W        W84891  33.917  12.273   4.825
12632W        W84892   6.381   6.874  12.059
12633W        W84893  35.420   3.265   1.351
12634W        W84894  36.536   4.753   1.736
12635W        W84895   7.882  22.640  12.406
12636W        W84896  19.771  15.773  12.883
12637W        W84897  27.486  25.640   1.350
12638W        W84898  13.674  20.636  11.958
12639W        W84899  14.741  26.016  13.340
12640W        W84900   9.860  35.001   4.817
12641W        W84901  15.589   6.834  11.600
12642W        W84902   8.870  24.976  10.975
12643W        W84903  25.621   9.377  13.903
12644W        W84904  12.742  31.488  12.909
12645W        W84905   3.309  18.258  10.617
12646W        W84906  37.386   9.838  14.367
12647W        W84907  24.170  27.558  10.110
12648W        W84908  11.373  39.329   0.771
12649W        W84909  15.698   4.303  10.497
12650W        W84910  32.403  29.090  11.608
12651W        W84911   2.342   9.752   0.963
12652W        W84912  44.859  25.601  12.424
12653W        W84913  22.697   3.920   0.382
12654W        W84914  22.248  34.516  13.045
12655W        W84915  19.600   5.369  13.491
12656W        W84916  17.076  35.106   3.664
12657W        W84917   7.876   0.824   4.771
12658W        W84918  14.229  44.902  11.096
12659W        W84919  32.086  41.811   4.134
12660W        W84920  20.096  36.417  10.507
12661W        W84921  24.619   5.797  11.394
12662W        W84922   2.330   4.903  12.570
12663W        W84923  22.687  37.401   2.840
12664W        W84924   5.897   1.306   4.604
12665W        W84925  35.005  43.500   0.826
12666W        W84926  20.710   0.966  11.886
12667W        W84927  31.905   1.241  13.796
12668W        W84928  13.604  21.647   3.335
12669W        W84929  40.968  13.182  11.951
12670W        W84930  11.143  41.032  10.898
12671W        W84931  25.171  18.729   4.644
12672W        W84932  10.182  34.900   2.669
12673W        W84933  19.612  43.405  12.553
12674W        W84934  22.635  38.952   2.193
12675W        W84935  23.681  36.029  14.009
12676W        W84936  14.800  29.963  12.934
12677W        W84937   8.768   7.835   5.236
12678W        W84938   1.971  10.639  11.067
12679W        W84939  19.237  15.693  13.348
12680W        W84940  15.118  27.001   4.791
12681W        W84941  20.615   4.846   2.225
12682W        W84942  32.078  13.161  10.945
12683W        W84943  28.185  23.046  13.814
12684W        W84944  41.006   3.440   1.373
12685W        W84945  43.329  23.091   2.217
12686W        W84946  27.600  35.920   1.247
12687W        W84947   6.255  15.287   1.862
12688W        W84948  33.433   6.380  10.146
12689W        W84949  29.436  25.689   1.934
12690W        W84950  14.185  16.311   2.272
12691W        W84951  21.092   5.769   1.351
12692W        W84952  37.347  17.770   1.367
12693W        W84953  43.881  33.992  10.464
12694W        W84954  42.427  26.162   4.331
12695W        W84955   4.317  41.339  10.603
12696W        W84956  13.254  31.587   9.976
12697W        W84957  27.196   7.865   0.766
12698W        W84958  23.148  43.429   0.477
12699W        W84959  28.506  36.990   4.130
12700W        W84960   5.272   5.192  13.480
12701W        W84961  34.503  27.970   0.948
12702W        W84962  13.333   4.321  11.078
12703W        W84963   8.713  28.450  10.920
12704W        W84964  44.344  35.882  12.390
12705W        W84965  18.603  40.458   1.236
12706W        W84966  41.465  42.792  13.839
12707W        W84967  36.917   3.296   3.305
12708W        W84968  43.452   7.676   2.837
12709W        W84969  12.226  29.943  13.381
12710W        W84970  27.502  43.983  13.369
12711W        W84971   8.228  25.493  11.407
12712W        W84972  13.268  28.519   1.358
12713W        W84973  36.533   4.862   3.680
12714W        W84974  37.563  15.592   0.405
12715W        W84975  12.295  36.086   3.827
12716W        W84976  24.217   4.215   2.212
12717W        W84977   0.886  12.337   0.846
12718W        W84978  10.169  16.073  10.524
12719W        W84979  42.785  42.363   1.844
12720W        W84980  19.693   2.435  12.345
12721W        W84981  40.498  25.012  10.441
12722W        W84982   3.859   3.292  10.460
12723W        W84983   5.724  25.641  10.512
12724W        W84984  17.150  10.376  12.393
12725W        W84985   9.736  15.657   0.253
12726W        W84986  32.893  14.147   0.934
12727W        W84987  33.920  24.993  13.813
12728W        W84988  16.267   0.485  11.506
12729W        W84989  24.591  26.562   5.190
12730W        W84990  30.658  39.875   0.404
12731W        W84991  23.714  30.153  11.509
12732W        W84992  33.091  15.097   4.260
12733W        W84993   3.875  37.508  13.461
12734W        W84994   1.954  23.195   4.665
12735W        W84995  44.379   9.728   1.324
12736W        W84996  38.326  10.379   5.269
12737W        W84997  30.922  37.363  12.565
12738W        W84998  19.720   4.926   4.130
12739W        W84999  41.347  15.791   0.325
12740W        W85000   1.335  32.035  13.990
12741W        W85001  11.332  17.143  12.061
12742W        W85002  31.440  37.895  12.027
12743W        W85003  39.327  33.928  14.296
12744W        W85004  31.044  30.056   0.325
12745W        W85005   1.858  43.971  11.876
12746W        W85006  29.084  33.520  14.333
12747W        W85007   9.154   9.790   1.367
12748W        W85008  35.936  41.917   3.849
12749W        W85009  13.326  28.491  14.429
12750W        W85010  22.711  20.063   0.354
12751W        W85011   1.281  21.136  10.432
12752W        W85012   0.867  10.230   2.366
12753W        W85013  21.709   5.242  11.885
12754W        W85014  14.598  44.817  11.561
12755W        W85015  11.334  28.152   4.612
12756W        W85016  42.468  39.334   0.326
12757W        W85017  38.405  44.481   0.956
12758W        W85018  36.368  16.758  12.023
12759W        W85019  20.565  41.916  10.934
12760W        W85020  27.532  19.116   3.167
12761W        W85021  34.109  22.172  13.389
12762W        W85022  29.939  35.518  11.858
12763W        W85023  41.948  23.629   1.862
12764W        W85024   2.883  24.141  11.003
12765W        W85025  35.852  11.218  10.509
12766W        W85026   2.733  31.407   0.835
12767W        W85027   1.309  39.858  13.800
12768W        W85028  13.142   6.261   2.715
12769W        W85029  16.281   5.777   0.752
12770W        W85030  27.191  26.025  14.816
12771W        W85031  16.713  23.176   2.864
12772W        W85032  24.524  31.441  12.476
12773W        W85033  27.014  44.382  12.957
12774W        W85034  27.519   3.433   3.367
12775W        W85035  10.241  23.994   1.731
12776W        W85036  35.867  44.791  11.078
12777W        W85037  34.481   2.866   3.227
12778W        W85038  16.192   2.328   2.185
12779W        W85039   3.815  10.372   4.727
12780W        W85040   3.895  34.864   4.327
12781W        W85041  19.551  26.700  14.769
12782W        W85042   2.436  21.623   2.865
12783W        W85043   2.376  21.253  14.367
12784W        W85044  26.956  44.318   4.597
12785W        W85045  36.944  14.255  14.853
12786W        W85046  36.980  39.373  13.422
12787W        W85047  36.952  12.714   3.802
12788W        W85048  37.034  18.584  11.415
12789W        W85049   9.312  21.198   1.759
12790W        W85050  31.627  25.206  12.418
12791W        W85051  28.012  26.961  12.884
12792W        W85052  39.901  33.045   3.266
12793W        W85053  44.887  24.141   1.805
12794W        W85054  29.951  26.206   2.789
12795W        W85055  36.950   6.348   3.692
12796W        W85056  23.182  24.154   2.830
12797W        W85057  11.342   1.943   4.777
12798W        W85058  15.268  41.511  11.950
12799W        W85059  30.049  22.202   1.799
12800W        W85060  28.550  33.611   3.860
12801W        W85061  12.800  15.162   5.097
12802W        W85062   5.397  22.605   4.211
12803W        W85063  37.020  24.721  11.563
12804W        W85064  19.577  26.189   4.630
12805W        W85065  32.514   4.845   3.147
12806W        W85066  31.143  23.174   0.930
12807W        W85067   8.722  15.254  11.054
12808W        W85068  27.041   2.297   1.820
12809W        W85069   0.981   3.275  14.831
12810W        W85070  15.299  36.564   0.811
12811W        W85071  28.944  21.098  10.600
12812W        W85072  29.104  16.288  11.934
12813W        W85073   5.347  39.909   2.836
12814W        W85074  42.956  21.557  14.934
12815W        W85075   5.711  27.562  11.952
12816W        W85076  18.672  24.566  13.851
12817W        W85077  28.479  22.523   1.230
12818W        W85078   7.381  13.251   3.193
12819W        W85079  42.032  23.148   3.156
12820W        W85080  26.038  11.308   2.390
12821W        W85081  35.946   3.299  12.985
12822W        W85082  26.085  19.266   4.671
12823W        W85083  20.087  12.268   1.342
12824W        W85084  24.112  18.690  11.516
12825W        W85085   6.392  12.238  11.419
12826W        W85086  37.959  44.361   3.775
12827W        W85087  23.995   9.651   0.797
12828W        W85088   4.760  31.134  11.068
12829W        W85089  19.542  18.735  12.970
12830W        W85090  23.704   0.404  12.466
12831W        W85091  36.082  33.460   3.365
12832W        W85092   4.700  35.060  10.620
12833W        W85093   0.337  13.634   2.868
12834W        W85094  42.441   5.284   0.786
12835W        W85095  19.587  37.010  12.498
12836W        W85096   0.780  19.262  11.542
12837W        W85097  21.044  37.370   0.478
12838W        W85098  37.986   9.763   9.632
12839W        W85099  41.469  37.543  12.568
12840W        W85100  27.024   0.369  14.783
12841W        W85101  40.506  10.190   2.766
12842W        W85102  31.474  10.203   1.795
12843W        W85103  15.739  25.018  10.639
12844W        W85104   4.286  29.091   1.283
12845W        W85105  34.613  34.931  10.451
12846W        W85106  28.951  23.226  13.464
12847W        W85107  12.248  37.020   2.667
12848W        W85108  18.697  40.925   4.765
12849W        W85109   1.856   2.246   0.819
12850W        W85110  42.890  29.539  10.496
12851W        W85111   3.851  15.721  11.038
12852W        W85112  33.894  25.991  13.446
12853W        W85113  35.928   7.258  10.424
12854W        W85114   3.735  35.589   3.235
12855W        W85115   4.885  44.934   2.283
12856W        W85116  37.031  42.511   1.320
12857W        W85117  27.606   3.748  10.901
12858W        W85118  36.475  12.292  13.525
12859W        W85119  31.569  35.098   4.645
12860W        W85120  30.096   2.312  12.454
12861W        W85121   6.808  28.978   4.225
12862W        W85122  40.317  16.574   3.746
12863W        W85123  42.489   1.287   0.949
12864W        W85124  33.578   5.358  14.012
12865W        W85125  15.282  14.597  13.875
12866W        W85126  34.937  14.160   4.813
12867W        W85127  38.064  12.623   0.469
12868W        W85128  21.098   5.197  14.867
12869W        W85129  30.610  39.467   1.711
12870W        W85130  13.190   5.415   2.222
12871W        W85131  24.622   7.372  10.405
12872W        W85132  43.502   6.346  12.091
12873W        W85133  41.453  16.259  14.349
12874W        W85134  41.357  28.076   0.875
12875W        W85135  17.247  42.801   5.138
12876W        W85136  33.941  28.614   3.640
12877W        W85137   6.717  14.782  14.337
12878W        W85138  14.300   4.929  11.987
12879W        W85139   0.248  20.558  14.809
12880W        W85140  12.632  40.423   2.754
12881W        W85141   5.291  30.622  14.862
12882W        W85142  34.420  38.353  14.970
12883W        W85143  15.117   9.155   0.321
12884W        W85144  10.749  40.304  11.026
12885W        W85145  41.018  28.624   0.255
12886W        W85146  25.116   3.295   0.475
12887W        W85147   2.429   7.255  12.543
12888W        W85148  31.965  17.138   0.935
12889W        W85149  33.389  27.687   2.270
12890W        W85150  29.049  31.071   3.865
12891W        W85151  19.748   3.817  12.036
12892W        W85152  38.826  32.940   1.817
12893W        W85153  26.202  10.375   3.362
12894W        W85154  22.049  38.957   3.281
12895W        W85155  18.257  36.382  10.463
12896W        W85156  24.589  33.577   1.288
12897W        W85157  31.038   1.777   0.293
12898W        W85158  16.590   0.271  14.416
12899W        W85159  40.999  42.913  13.430
12900W        W85160  13.194  35.496  11.921
12901W        W85161  21.726  17.177  10.898
12902W        W85162  35.388  10.839  13.817
12903W        W85163  12.680  43.900  11.007
12904W        W85164  23.057  42.509   1.378
12905W        W85165   9.320  42.981  12.412
12906W        W85166  21.621  31.977  10.582
12907W        W85167   8.780   8.357  13.360
12908W        W85168  16.794  29.511  10.900
12909W        W85169  16.612  34.442  14.953
12910W        W85170   0.786  39.063   3.650
12911W        W85171  20.654  24.097  11.977
12912W        W85172  10.188  36.392  11.402
12913W        W85173   7.845  34.479   0.815
12914W        W85174  11.211  19.173   0.305
12915W        W85175   8.844  35.388  11.042
12916W        W85176  44.374  19.623  12.963
12917W        W85177  35.574  25.511  14.503
12918W        W85178  35.445  39.466  10.960
12919W        W85179   5.358  39.026   0.349
12920W        W85180  29.018   2.810  10.930
12921W        W85181   8.842  43.834   2.689
12922W        W85182   7.875  40.038  14.803
12923W        W85183   0.463  41.798  12.468
12924W        W85184   3.239  25.143  13.489
12925W        W85185  24.059  42.889   3.637
12926W        W85186  12.141  38.042  12.343
12927W        W85187  14.331  32.040  13.360
12928W        W85188  24.207  40.811   4.350
12929W        W85189  43.872   5.271  11.573
12930W        W85190  41.791  27.158   2.404
12931W        W85191  40.808   0.256   1.274
12932W        W85192  17.300  15.721  11.092
12933W        W85193  43.015  26.462  10.556
12934W        W85194  15.621  43.806  14.907
12935W        W85195  26.527  21.725  14.304
12936W        W85196   5.281  10.246   2.343
12937W        W85197  25.538   0.464   1.316
12938W        W85198  39.892  13.203   4.793
12939W        W85199   4.839  33.033  10.612
12940W        W85200   9.276   9.186  12.452
12941W        W85201  16.286   2.464   4.705
12942W        W85202  18.255  34.543  14.399
12943W        W85203   3.431   6.856  11.531
12944W        W85204  33.100  34.607  10.430
12945W        W85205  37.438   5.738   4.202
12946W        W85206  24.009   5.862   0.342
12947W        W85207  40.419  44.760  13.854
12948W        W85208   5.819  27.082  10.606
12949W        W85209   9.662  10.143  12.572
12950W        W85210  43.976   4.385   3.771
12951W        W85211  15.171  22.645  11.077
12952W        W85212  29.428   6.819   0.960
12953W        W85213   1.290  31.425   3.266
12954W        W85214  40.000  25.161  14.296
12955W        W85215  23.009   8.739   0.867
12956W        W85216  28.648  29.060   2.277
12957W        W85217  42.415  21.232   4.633
12958W        W85218   3.290   6.242  12.969
12959W        W85219  40.401  38.539   4.781
12960W        W85220   7.235  33.603   2.869
12961W        W85221  37.462   4.738  13.339
12962W        W85222  41.397  19.671  14.289
12963W        W85223   4.388  42.013  14.348
12964W        W85224  39.951  30.593   4.283
12965W        W85225  40.838   7.174  12.430
12966W        W85226  20.733   8.785   4.713
12967W        W85227  30.598   7.387   3.807
12968W        W85228  14.749  43.987  14.825
12969W        W85229  13.819  19.272  13.031
12970W        W85230   1.470  22.613   3.761
12971W        W85231   3.848   9.205  11.023
12972W        W85232  18.606  14.666  12.499
12973W        W85233  29.064  32.058  11.955
12974W        W85234  23.088  27.111   4.684
12975W        W85235  34.074  11.839   2.871
12976W        W85236  28.009  37.044  10.989
12977W        W85237  28.553  39.493  13.455
12978W        W85238  28.176  26.156   3.704
12979W        W85239  16.294  13.754  14.332
12980W        W85240  37.428  19.775   2.734
12981W        W85241  17.202  33.440   3.677
12982W        W85242  24.528  41.903   1.919
12983W        W85243  23.576  32.952  14.447
12984W        W85244  40.402   2.235   3.194
12985W        W85245   5.387  25.663   2.868
12986W        W85246   5.378  14.608  11.862
12987W        W85247   5.206  17.305  14.854
12988W        W85248  29.479  19.673  11.861
12989W        W85249  25.589  37.398  11.569
12990W        W85250  19.551  14.776   1.892
12991W        W85251  16.696   0.977  14.924
12992W        W85252  17.064  21.704   1.451
12993W        W85253   8.168  13.256  12.472
12994W        W85254   1.769  27.191  12.905
12995W        W85255  10.819   0.987   2.314
12996W        W85256   5.326  21.646   0.363
12997W        W85257  35.455  37.543   1.718
12998W        W85258  10.672   7.751   2.298
12999W        W85259  24.629  21.704   1.888
13000W        W85260  10.815  11.687  10.049
13001W        W85261  18.207  40.542  10.454
13002W        W85262  32.611  41.367   1.291
13003W        W85263  27.098   7.371   0.896
13004W        W85264  30.547  23.512  13.020
13005W        W85265  19.146  33.484  10.524
13006W        W85266  23.028  25.074  13.811
13007W        W85267  38.496   3.882   2.401
13008W        W85268   4.374  20.734  14.763
13009W        W85269  16.772  11.689  13.816
13010W        W85270  32.102   6.246  14.480
13011W        W85271   7.807  22.167   3.238
13012W        W85272  36.982  12.661  10.894
13013W        W85273  18.616   6.797  10.505
13014W        W85274  37.485  42.415  13.875
13015W        W85275   3.296  25.993  12.430
13016W        W85276  32.612  34.041   2.353
13017W        W85277   9.798  18.160  14.908
13018W        W85278  15.315  35.384  11.120
13019W        W85279  38.479  22.505   3.296
13020W        W85280  38.972   1.334  12.476
13021W        W85281   3.416  43.509  10.532
13022W        W85282   1.924   8.695  13.887
13023W        W85283  43.499   9.393  12.903
13024W        W85284  39.538  34.596  13.359
13025W        W85285   3.859  14.196  14.856
13026W        W85286   2.320  30.528   1.907
13027W        W85287  33.429  41.884  12.423
13028W        W85288  43.955  44.411   4.811
13029W        W85289  37.042  41.022  14.773
13030W        W85290   1.420  32.502  13.341
13031W        W85291  28.016  21.057   5.224
13032W        W85292  29.458  31.152   4.762
13033W        W85293  15.638  26.663  10.425
13034W        W85294   7.724  41.885   1.879
13035W        W85295   5.195  41.938   1.294
13036W        W85296  11.745  33.476  12.545
13037W        W85297  26.068   8.400  11.496
13038W        W85298  30.934  29.099  13.468
13039W        W85299  41.446   9.374   5.292
13040W        W85300  28.172  15.596   4.315
13041W        W85301  38.026  43.386   1.243
13042W        W85302  27.558   1.356  14.935
13043W        W85303  19.583  36.383   0.829
13044W        W85304   5.256  29.499  12.385
13045W        W85305  14.666  12.304  11.426
13046W        W85306  11.226   4.449   2.312
13047W        W85307   4.834   3.954  12.452
13048W        W85308  38.558  11.707  12.836
13049W        W85309  22.133  17.217   3.745
13050W        W85310   6.809  11.240   4.748
13051W        W85311  44.830  30.658  11.567
13052W        W85312  14.722  40.823  12.434
13053W        W85313  36.510  38.953   2.795
13054W        W85314  39.363  17.094   4.822
13055W        W85315  44.796  18.565  12.570
13056W        W85316   7.892  17.081   4.624
13057W        W85317  27.007   0.922   9.962
13058W        W85318  39.467   4.831  12.577
13059W        W85319  15.146  32.885  11.435
13060W        W85320  18.143  13.144   4.156
13061W        W85321  20.603  15.324  12.443
13062W        W85322  41.536   6.371  13.999
13063W        W85323  32.136  28.532  13.362
13064W        W85324  39.894  28.950   3.217
13065W        W85325  33.546  42.474  13.930
13066W        W85326   1.843  31.995   9.963
13067W        W85327  26.019  24.670  12.069
13068W        W85328  14.671   4.390  11.989
13069W        W85329  30.611  11.621  12.528
13070W        W85330  27.072  22.169  14.466
13071W        W85331  16.298  40.848  14.481
13072W        W85332   5.308  34.499   3.834
13073W        W85333  25.560  41.477   4.799
13074W        W85334   1.291  17.178   0.474
13075W        W85335   9.327  37.886  11.115
13076W        W85336  34.010  17.202   0.940
13077W        W85337   8.829   6.249   1.911
13078W        W85338  12.823  18.572   4.830
13079W        W85339   8.878  42.402  12.977
13080W        W85340   2.781   9.646   4.282
13081W        W85341   1.259  42.893  14.353
13082W        W85342  33.497  28.097  14.396
13083W        W85343  16.211  31.896  11.521
13084W        W85344   4.758  44.273   3.656
13085W        W85345  16.737  39.520   1.830
13086W        W85346  32.507  30.606  13.980
13087W        W85347  38.913  21.083   5.257
13088W        W85348  29.443  42.509  13.963
13089W        W85349  35.592   2.434   0.736
13090W        W85350  17.067   2.405   3.635
13091W        W85351   8.202   6.861  11.006
13092W        W85352  11.368   4.832  10.967
13093W        W85353   7.877   5.418  13.925
13094W        W85354  10.161  25.134   4.614
13095W        W85355  20.172  22.997  13.007
13096W        W85356   8.808   4.290   0.829
13097W        W85357  13.746  42.781   4.663
13098W        W85358  26.160   9.690   4.701
13099W        W85359  10.674   7.683  13.440
13100W        W85360  44.356   7.199  11.010
13101W        W85361  37.541  31.150  10.578
13102W        W85362  39.043  42.835  14.849
13103W        W85363  34.091   9.862   1.380
13104W        W85364  38.935  34.549  10.137
13105W        W85365  39.480  17.063   2.272
13106W        W85366   7.758  26.171   3.736
13107W        W85367  22.635  12.626   4.242
13108W        W85368   4.793  23.241  13.362
13109W        W85369   7.185  19.764  12.578
13110W        W85370  33.986  44.887   3.167
13111W        W85371  44.778  36.926  11.453
13112W        W85372  26.956  23.228  14.951
13113W        W85373   1.781  44.314   3.652
13114W        W85374  13.737  33.983  14.922
13115W        W85375  15.308   2.815   1.370
13116W        W85376  33.110  13.347  14.317
13117W        W85377  29.996   2.747  10.964
13118W        W85378  40.447  15.254  12.446
13119W        W85379  40.362  36.018  13.311
13120W        W85380   3.230  22.209  14.911
13121W        W85381  19.215  24.073   4.241
13122W        W85382  11.361  37.040   3.729
13123W        W85383  34.404  43.312  11.432
13124W        W85384  34.939  34.530   4.638
13125W        W85385  37.405  44.307   2.702
13126W        W85386   1.744  44.006   3.266
13127W        W85387  32.100  25.534  11.873
13128W        W85388  12.723  36.986  11.996
13129W        W85389  28.047  41.486  12.367
13130W        W85390  36.077  32.949   4.720
13131W        W85391  15.202  28.185   3.281
13132W        W85392  23.015   2.899   1.228
13133W        W85393  24.586  26.585  12.939
13134W        W85394   6.311  29.175  12.387
13135W        W85395   5.838  21.150   5.226
13136W        W85396   4.412  10.204  14.439
13137W        W85397  35.857  11.813   2.883
13138W        W85398  34.373  14.201   3.322
13139W        W85399   8.818  37.387  12.967
13140W        W85400  21.178  24.043   4.655
13141W        W85401  19.247  15.620  11.400
13142W        W85402  19.627   1.278   0.267
13143W        W85403  16.614  11.242  11.128
13144W        W85404  11.628  26.529   0.779
13145W        W85405  37.990   4.218   1.863
13146W        W85406   5.844   8.819  11.466
13147W        W85407  23.126  16.799  10.893
13148W        W85408  34.912  19.570  12.424
13149W        W85409  23.056  40.844  14.806
13150W        W85410  10.649   6.407   2.867
13151W        W85411   0.922  27.122   2.208
13152W        W85412  30.465  30.127   4.661
13153W        W85413  41.390   4.238   2.662
13154W        W85414  43.832  11.218  10.993
13155W        W85415  29.033  35.061   2.815
13156W        W85416  39.501  39.852  11.859
13157W        W85417   9.880  30.134   2.880
13158W        W85418  41.932  32.447  12.092
13159W        W85419  19.100  13.144   4.834
13160W        W85420  37.062  14.794  12.437
13161W        W85421  43.289  10.874  14.901
13162W        W85422   5.930  24.126   4.206
13163W        W85423  36.489  42.282   1.210
13164W        W85424  18.253  18.756  11.925
13165W        W85425  34.539  30.472  13.974
13166W        W85426  24.663  37.982  11.410
13167W        W85427  44.356  16.637   0.324
13168W        W85428  28.457  21.521  11.869
13169W        W85429  18.171   2.792  14.350
13170W        W85430  40.344  38.400  14.484
13171W        W85431  37.013   1.834   1.306
13172W        W85432  25.475  25.989   3.692
13173W        W85433  22.219  44.283   2.245
13174W        W85434   9.856  25.526   1.898
13175W        W85435   2.456  34.392  14.986
13176W        W85436  16.117  31.101  11.533
13177W        W85437  39.456   4.335  13.013
13178W        W85438  41.006  12.848   3.774
13179W        W85439  36.013  30.507  14.794
13180W        W85440  41.829  31.072  14.962
13181W        W85441  39.018   3.813   0.349
13182W        W85442  11.216  28.474   3.762
13183W        W85443   1.845  31.517   2.684
13184W        W85444  32.006  29.175   2.390
13185W        W85445  28.987  40.967   3.768
13186W        W85446  42.988  38.560   1.698
13187W        W85447   0.322  38.448  13.844
13188W        W85448  17.576  29.610  10.620
13189W        W85449  35.484  26.119   1.834
13190W        W85450  37.510  40.962  13.537
13191W        W85451   9.862  21.137   4.614
13192W        W85452   5.820  18.637   4.255
13193W        W85453  15.627  31.505   4.706
13194W        W85454  30.633  44.280  10.572
13195W        W85455   5.707   7.236   3.166
13196W        W85456  25.023  15.806   4.317
13197W        W85457  39.380   9.391  14.896
13198W        W85458   8.294  32.901   0.861
13199W        W85459   3.340   5.882   3.201
13200W        W85460  19.072  40.476   3.282
13201W        W85461  16.113  31.590   4.622
13202W        W85462  31.130   9.787   3.803
13203W        W85463   7.242  28.507   4.833
13204W        W85464   7.685  32.435   4.816
13205W        W85465  33.596  32.917  10.976
13206W        W85466  15.154  15.271   2.400
13207W        W85467  34.109  39.920  10.573
13208W        W85468  14.716  40.392   0.919
13209W        W85469  39.465   8.898   0.373
13210W        W85470   2.305  19.700  12.357
13211W        W85471  14.157  32.467   0.468
13212W        W85472  34.384  14.231  12.908
13213W        W85473  20.538  20.597   0.801
13214W        W85474  31.122  13.749  11.096
13215W        W85475  19.717  35.978   1.799
13216W        W85476  39.504   9.348   3.810
13217W        W85477  12.838  39.046  13.365
13218W        W85478  36.591  43.383   4.353
13219W        W85479   0.394  31.459   2.289
13220W        W85480  23.595  30.101   2.310
13221W        W85481  18.173  18.277   0.893
13222W        W85482  17.718   7.389   3.152
13223W        W85483   4.274  17.170   0.841
13224W        W85484  19.590  11.784  14.408
13225W        W85485   0.796  32.948   2.859
13226W        W85486   9.800  41.817   1.422
13227W        W85487  27.012  26.142   3.796
13228W        W85488  23.164  28.477  14.337
13229W        W85489   9.654  41.530   1.367
13230W        W85490  17.558  13.256   4.651
13231W        W85491  14.704  39.463  13.861
13232W        W85492  35.082   3.828   3.767
13233W        W85493   7.697  44.283   2.211
13234W        W85494  39.399   9.710   5.732
13235W        W85495  14.249  40.896  14.007
13236W        W85496  34.048  44.854   0.895
13237W        W85497  42.973  33.966   3.636
13238W        W85498   4.763  44.447  12.369
13239W        W85499  35.901   2.402   1.873
13240W        W85500  10.758   9.849  11.384
13241W        W85501   2.380  33.982  14.431
13242W        W85502  12.804   1.842   2.898
13243W        W85503  40.015  41.458   1.314
13244W        W85504  43.411  36.081   5.318
13245W        W85505  28.065   3.421  10.919
13246W        W85506  33.990  10.734   4.349
13247W        W85507  39.554  24.651  14.900
13248W        W85508  20.267  13.737   1.882
13249W        W85509  36.544  39.033  12.067
13250W        W85510  42.337   3.799  14.778
13251W        W85511  44.753   9.384   1.446
13252W        W85512  24.563   2.888  14.812
13253W        W85513  21.193  34.992   2.775
13254W        W85514   7.761  37.981  14.999
13255W        W85515  14.782   3.781  10.441
13256W        W85516  30.567  40.939  12.070
13257W        W85517   6.776  39.319  12.967
13258W        W85518  13.207  14.224   4.750
13259W        W85519  36.499  22.252   2.722
13260W        W85520   6.785  29.099   0.407
13261W        W85521  20.263  10.200   1.313
13262W        W85522  21.031  37.948   0.834
13263W        W85523  33.965   5.305   3.254
13264W        W85524  16.164  22.225  14.380
13265W        W85525  42.374  10.271   4.762
13266W        W85526   2.287  31.539   2.201
13267W        W85527  25.493  34.966  12.930
13268W        W85528  37.432  30.961  13.796
13269W        W85529   2.916  38.841  14.478
13270W        W85530  33.571  41.396   4.661
13271W        W85531  11.222  19.623  12.899
13272W        W85532   2.438  34.036  12.870
13273W        W85533  35.576   4.405  11.495
13274W        W85534  21.121  42.373   1.719
13275W        W85535  23.678  16.738  10.578
13276W        W85536  38.486  30.934   2.715
13277W        W85537  17.193  24.491   2.384
13278W        W85538   5.276   1.885  13.434
13279W        W85539   8.857  13.705  13.468
13280W        W85540  15.302  23.538  14.404
13281W        W85541   3.745  40.306   1.309
13282W        W85542  12.164  18.678  11.904
13283W        W85543  31.471  41.872  13.874
13284W        W85544  25.138  26.098   0.403
13285W        W85545  12.849  31.559  13.974
13286W        W85546   1.288  24.156   2.893
13287W        W85547   3.806  34.437   0.923
13288W        W85548  27.534  30.455   0.416
13289W        W85549  38.897   3.849  12.881
13290W        W85550  32.057  27.524   4.791
13291W        W85551  10.266  26.542  11.977
13292W        W85552  23.062  44.395   3.191
13293W        W85553   2.948  44.301   3.325
13294W        W85554  36.579   5.234   3.652
13295W        W85555   0.863   7.863   5.283
13296W        W85556  25.990   3.262   4.133
13297W        W85557  16.673   6.317   0.256
13298W        W85558   5.758  12.290   3.669
13299W        W85559   5.895  22.604  11.101
13300W        W85560  19.126  17.610  14.793
13301W        W85561  17.562   6.727   0.825
13302W        W85562  42.302   5.207  10.410
13303W        W85563  35.865  43.365  11.933
13304W        W85564  22.601   8.306  10.487
13305W        W85565   1.362  18.595   3.238
13306W        W85566  37.065  28.640   4.782
13307W        W85567   8.311  21.062  13.947
13308W        W85568  11.717  29.956  11.009
13309W        W85569  11.181  10.701   0.452
13310W        W85570  20.525  23.133   2.329
13311W        W85571   6.391  16.673  10.615
13312W        W85572  15.159  43.883   2.705
13313W        W85573   2.350  33.978   2.350
13314W        W85574  23.046  42.868   1.908
13315W        W85575  22.606  37.390   2.222
13316W        W85576  33.398   1.419   4.293
13317W        W85577  11.352  36.845   0.920
13318W        W85578  18.163   0.912  13.848
13319W        W85579  40.857  32.462  10.434
13320W        W85580  36.391  20.616   1.848
13321W        W85581  43.269  33.002   1.929
13322W        W85582  10.322  27.520  14.815
13323W        W85583  33.968  11.142  12.483
13324W        W85584  31.965  22.112  13.512
13325W        W85585   0.486  26.638  12.012
13326W        W85586   7.282  32.888   4.809
13327W        W85587  14.770  11.637  14.477
13328W        W85588   4.330  10.777  10.506
13329W        W85589  32.027  17.169  12.920
13330W        W85590  31.139   2.419  11.414
13331W        W85591   6.342  29.024   4.119
13332W        W85592  41.861  44.936  13.008
13333W        W85593  42.359  42.394   2.693
13334W        W85594  27.965  35.403  12.008
13335W        W85595  32.002   2.329  11.598
13336W        W85596  20.104   6.276   0.736
13337W        W85597  40.428  12.192   4.187
13338W        W85598  35.468  37.045  13.793
13339W        W85599   2.749   6.919   2.283
13340W        W85600   3.816   6.231   1.270
13341W        W85601  28.439  11.131   0.475
13342W        W85602  32.559  18.124   1.859
13343W        W85603  20.649  27.667   3.229
13344W        W85604  35.952  32.505  14.283
13345W        W85605  20.071  25.160  11.543
13346W        W85606  31.999   3.352  10.417
13347W        W85607   0.843   8.814   1.787
13348W        W85608  11.144  27.980   2.798
13349W        W85609   8.881  30.459   2.309
13350W        W85610  42.853  10.376   3.179
13351W        W85611  34.875   9.743   3.741
13352W        W85612  14.129  42.905   3.711
13353W        W85613  39.420  41.313  12.513
13354W        W85614  25.967  38.860   4.121
13355W        W85615  32.521   9.169  12.560
13356W        W85616  25.535  12.343  11.530
13357W        W85617  34.885  20.715   3.775
13358W        W85618  21.679  33.917   0.264
13359W        W85619  43.860  37.453  13.332
13360W        W85620  29.426  33.385  12.075
13361W        W85621   1.929  32.097  11.962
13362W        W85622  32.531  40.431   2.865
13363W        W85623  30.452  31.596  12.027
13364W        W85624  23.605   8.251   4.190
13365W        W85625   9.274  34.445   4.816
13366W        W85626  41.394  11.157  12.096
13367W        W85627  10.653   4.810   2.290
13368W        W85628  36.457  22.216  10.557
13369W        W85629  18.232  27.106   2.785
13370W        W85630  14.784  19.260  11.579
13371W        W85631  36.543  43.424   2.703
13372W        W85632   7.688  31.473  10.932
13373W        W85633   4.411  38.328  13.319
13374W        W85634  25.134  20.129   2.667
13375W        W85635  10.364   6.887  14.902
13376W        W85636   4.853  44.777  14.803
13377W        W85637  12.812   9.733  13.985
13378W        W85638   8.341  13.708  14.505
13379W        W85639  15.806  16.306  12.906
13380W        W85640  23.116  29.019   3.652
13381W        W85641  33.122  12.791   1.777
13382W        W85642  30.037  10.689   3.276
13383W        W85643  37.061  26.579  14.504
13384W        W85644  21.647  41.803  13.916
13385W        W85645  14.135  25.044   1.394
13386W        W85646  32.137  30.966   4.199
13387W        W85647  27.978  25.095  13.891
13388W        W85648  34.056  20.624   5.119
13389W        W85649  42.390   8.826  12.004
13390W        W85650  31.508  16.634   0.346
13391W        W85651  42.383  40.366   1.368
13392W        W85652  28.460  40.951  12.405
13393W        W85653  26.089   6.821   2.765
13394W        W85654  37.954   4.799  10.635
13395W        W85655  29.074   9.855   1.285
13396W        W85656  40.890  31.937  14.371
13397W        W85657   6.872  26.659   0.876
13398W        W85658  35.108  26.202   3.188
13399W        W85659  21.598  43.764  14.981
13400W        W85660  12.710   8.729   4.794
13401W        W85661  14.120  14.769   9.577
13402W        W85662  13.238  21.675  13.468
13403W        W85663  33.063  12.801   0.797
13404W        W85664  36.037  39.884   3.629
13405W        W85665  23.696   4.409  12.456
13406W        W85666  10.266  42.950  13.371
13407W        W85667  36.572  27.051   3.683
13408W        W85668   0.811   9.299   4.698
13409W        W85669  27.598  39.862  12.031
13410W        W85670   4.903  27.649   5.127
13411W        W85671   5.899  23.503  11.072
13412W        W85672  19.223  43.383  12.008
13413W        W85673  13.606  27.495  12.006
13414W        W85674  26.172  20.051   2.238
13415W        W85675  34.424   1.818  14.350
13416W        W85676  33.884  18.163   1.270
13417W        W85677   8.285  37.409   2.373
13418W        W85678  19.565  12.637  11.869
13419W        W85679  20.738  21.204   0.785
13420W        W85680  22.116   0.410  14.773
13421W        W85681  42.959  11.736  14.842
13422W        W85682  39.856  28.530   2.890
13423W        W85683  33.417  10.807   4.351
13424W        W85684  21.093  21.711  14.953
13425W        W85685  13.287  25.550   3.251
13426W        W85686  43.299   2.247  11.879
13427W        W85687  20.665  42.326   2.213
13428W        W85688  34.370  43.389  10.405
13429W        W85689  14.739  31.604  13.000
13430W        W85690  38.854  36.009  11.940
13431W        W85691   1.460  20.186   3.335
13432W        W85692  35.860  36.848   0.956
13433W        W85693  25.146   0.800  12.856
13434W        W85694  30.489  35.931   0.739
13435W        W85695   4.871  20.609   0.741
13436W        W85696  15.141  20.524  14.794
13437W        W85697  31.018   6.381   2.870
13438W        W85698  16.208  14.319  13.394
13439W        W85699  36.409   3.460  12.949
13440W        W85700  38.326  11.310  10.620
13441W        W85701   4.259  37.445  14.928
13442W        W85702   2.255  43.009  10.160
13443W        W85703   7.220  35.940  12.034
13444W        W85704  21.147  44.414   3.670
13445W        W85705  31.466  16.230  14.871
13446W        W85706   9.769  19.608   1.870
13447W        W85707  32.440  44.760  12.824
13448W        W85708   8.737   1.744   4.743
13449W        W85709  40.931   6.788  11.380
13450W        W85710  21.176  28.641   4.124
13451W        W85711  25.469  27.059  10.579
13452W        W85712   7.774   8.859  10.463
13453W        W85713  37.884   0.915  12.910
13454W        W85714   8.365  11.742  13.991
13455W        W85715   4.226  17.205  14.831
13456W        W85716  29.598  11.634  14.934
13457W        W85717  35.570  35.966   0.415
13458W        W85718  25.496  23.502  13.854
13459W        W85719  21.593  18.241   4.607
13460W        W85720  42.855   7.332  10.949
13461W        W85721  13.301  25.635   4.249
13462W        W85722  38.920  22.999  14.377
13463W        W85723  40.522  19.135  10.457
13464W        W85724   4.300  27.472  12.508
13465W        W85725  27.565   3.932   1.695
13466W        W85726  38.918  26.983   4.210
13467W        W85727  15.678  40.534  12.980
13468W        W85728  27.147  20.175  12.436
13469W        W85729  13.300  37.461  11.098
13470W        W85730  21.095  37.337   1.831
13471W        W85731  31.568  26.469  14.788
13472W        W85732   6.420  36.978  10.906
13473W        W85733  21.639  12.804  13.548
13474W        W85734   3.430   6.187   2.256
13475W        W85735  15.277  13.673   4.658
13476W        W85736  22.127   1.932   4.255
13477W        W85737  23.172  25.155  10.919
13478W        W85738  32.405  25.039  12.998
13479W        W85739   5.910  15.793  12.401
13480W        W85740  15.804  44.995   1.374
13481W        W85741  10.147  11.790  10.973
13482W        W85742  32.129  25.026  14.894
13483W        W85743  30.043  38.870   0.426
13484W        W85744  18.051  36.907   4.349
13485W        W85745  28.125   7.399   0.859
13486W        W85746  42.797   6.362  12.843
13487W        W85747  40.447  16.679  12.871
13488W        W85748  11.735  18.552  11.112
13489W        W85749  39.463   2.934  11.113
13490W        W85750   5.247  33.508   4.349
13491W        W85751  11.704  14.741  11.047
13492W        W85752  37.927  31.072  14.308
13493W        W85753   6.373   4.714  12.419
13494W        W85754  33.958   1.837  13.365
13495W        W85755   8.192  11.669  14.938
13496W        W85756   7.768  16.160   2.391
13497W        W85757   6.389  14.616   4.750
13498W        W85758  38.483  10.672   0.871
13499W        W85759  33.060  21.048  11.041
13500W        W85760  27.578  21.134   3.224
13501W        W85761   2.877  38.980  10.961
13502W        W85762  34.021  35.532  10.611
13503W        W85763  38.920  14.766  12.954
13504W        W85764  32.617   4.221   4.340
13505W        W85765   2.370  34.588  11.988
13506W        W85766  23.171  34.562   0.242
13507W        W85767  15.585   3.317   0.376
13508W        W85768  20.247  21.561   0.436
13509W        W85769  16.230  11.748   0.774
13510W        W85770   5.711  21.668   0.884
13511W        W85771  22.733   8.265   1.359
13512W        W85772  32.069  34.113   1.338
13513W        W85773   9.224  41.304   1.905
13514W        W85774  18.740  10.367   2.854
13515W        W85775  13.318  38.900  12.514
13516W        W85776  21.555  31.986   4.780
13517W        W85777  27.662  14.122   0.266
13518W        W85778  42.967   5.774   4.184
13519W        W85779  36.956  31.930  12.572
13520W        W85780  17.701   8.810  11.067
13521W        W85781  27.633  32.402   0.391
13522W        W85782   8.664  30.519   4.663
13523W        W85783  38.948  11.838   0.967
13524W        W85784  37.888  22.700  11.922
13525W        W85785   6.311  27.570  12.438
13526W        W85786  37.956   3.245  12.867
13527W        W85787  33.434  37.874   1.384
13528W        W85788  16.247  34.614  11.406
13529W        W85789  18.641  34.892   2.240
13530W        W85790  13.286  34.582   3.170
13531W        W85791  43.911  43.899   2.882
13532W        W85792  17.706  10.820  10.515
13533W        W85793  23.023  33.128  11.860
13534W        W85794   8.767  16.273   3.305
13535W        W85795  20.092   6.293   3.279
13536W        W85796  36.502  15.201  10.572
13537W        W85797  30.943  30.608   0.946
13538W        W85798   2.425  33.517   1.445
13539W        W85799  16.143  19.593   0.387
13540W        W85800  38.442  11.787  11.038
13541W        W85801   4.930   7.886  13.898
13542W        W85802  29.560  24.572   1.753
13543W        W85803   2.853  44.867   4.279
13544W        W85804  22.592   1.459   2.858
13545W        W85805  26.952   3.272   2.790
13546W        W85806   7.785  10.243   1.220
13547W        W85807  11.707  38.390  11.384
13548W        W85808  29.036  15.752   0.765
13549W        W85809  35.539  30.939  13.995
13550W        W85810  28.011  19.559  12.580
13551W        W85811   7.829  29.983   4.808
13552W        W85812  37.458  44.968   0.338
13553W        W85813  26.505   9.696   1.730
13554W        W85814  20.264   3.885  14.394
13555W        W85815   8.687  23.611   2.902
13556W        W85816  13.758  30.449  10.976
13557W        W85817  30.143   6.707  12.869
13558W        W85818   1.330  19.662  12.001
13559W        W85819  16.791  16.751   5.630
13560W        W85820  38.367  26.128   3.679
13561W        W85821  25.600  37.930   3.358
13562W        W85822  32.474  21.518  10.573
13563W        W85823  21.602  33.938   3.852
13564W        W85824  32.498  29.554   0.793
13565W        W85825   8.678  29.471  11.103
13566W        W85826  30.654  15.323  11.014
13567W        W85827  34.942  34.975   0.438
13568W        W85828  11.852   3.291   4.623
13569W        W85829  16.621  25.141  13.893
13570W        W85830  22.575  33.549   9.927
13571W        W85831  23.228  26.084  12.539
13572W        W85832  26.000  14.163  12.970
13573W        W85833  20.604  14.738  14.436
13574W        W85834  16.617  19.215  12.944
13575W        W85835  25.497  42.401   2.701
13576W        W85836  21.705  37.865   4.688
13577W        W85837   0.258  18.101   3.348
13578W        W85838   5.920   8.847   1.393
13579W        W85839  22.090   4.422  13.839
13580W        W85840  34.609   5.349  10.485
13581W        W85841  14.189   8.689   3.635
13582W        W85842  10.280  22.148  14.481
13583W        W85843  11.863  30.938   4.707
13584W        W85844  13.753  16.193  12.488
13585W        W85845  21.567   0.793  12.490
13586W        W85846  15.624  37.535  10.478
13587W        W85847  39.983   9.847  13.360
13588W        W85848  41.335  22.544  13.927
13589W        W85849  19.741  20.176   5.290
13590W        W85850  44.290  39.864  13.858
13591W        W85851  25.978  42.901  10.599
13592W        W85852   0.855   0.432  12.433
13593W        W85853  16.151  26.579   0.838
13594W        W85854  41.941  42.856   1.766
13595W        W85855  12.682  39.342   4.659
13596W        W85856  38.875  30.545  14.456
13597W        W85857  31.540   7.901  11.904
13598W        W85858  37.981  44.479   0.451
13599W        W85859  16.183  40.969  12.568
13600W        W85860  24.210   7.889   2.263
13601W        W85861   3.249   3.848  10.557
13602W        W85862  15.688  22.700  10.532
13603W        W85863   1.408  41.323  13.823
13604W        W85864  19.766  23.583  11.533
13605W        W85865  10.655  26.130  13.319
13606W        W85866  20.138   4.436   3.756
13607W        W85867  12.622  42.841   2.733
13608W        W85868  13.117  30.553  11.385
13609W        W85869   9.808  26.205   1.336
13610W        W85870   8.274   3.902  14.427
13611W        W85871  43.334  10.239  10.057
13612W        W85872  37.412  32.489   0.242
13613W        W85873  44.958  30.546   4.354
13614W        W85874  43.868   7.836   4.259
13615W        W85875  31.130   9.803   4.265
13616W        W85876  30.932   3.279  10.049
13617W        W85877  20.649  21.741   3.822
13618W        W85878  33.492   3.290   4.191
13619W        W85879  34.375  27.500  11.861
13620W        W85880  26.082   5.214   2.902
13621W        W85881  19.676   0.378  12.575
13622W        W85882  37.927  21.129  11.381
13623W        W85883  41.438   5.236   3.176
13624W        W85884  43.835  17.624   3.195
13625W        W85885   7.723  15.128   1.788
13626W        W85886  25.069  32.442   3.185
13627W        W85887  26.988  15.118   3.673
13628W        W85888  19.132  25.133   1.753
13629W        W85889  41.930  19.611  10.578
13630W        W85890   1.248  38.350  10.637
13631W        W85891  33.912   4.818  13.934
13632W        W85892  28.140  36.055  10.406
13633W        W85893   0.913  17.218  12.828
13634W        W85894   0.956  10.853   4.308
13635W        W85895  41.327  26.076  14.962
13636W        W85896  33.936  39.552   0.856
13637W        W85897  21.263  37.492   9.921
13638W        W85898  17.595  27.954  10.525
13639W        W85899  41.384   9.376   4.219
13640W        W85900  37.543  38.507  13.021
13641W        W85901  39.487  44.283  14.018
13642W        W85902  38.853  12.811   4.172
13643W        W85903  10.379  25.175   1.320
13644W        W85904  32.471  23.212   3.812
13645W        W85905  12.695  32.085   4.116
13646W        W85906  26.956  25.583  11.481
13647W        W85907   1.429  34.975   1.397
13648W        W85908  38.074  32.959  14.941
13649W        W85909  17.063  43.830   4.775
13650W        W85910  11.632  39.394   0.965
13651W        W85911  33.602  37.980   2.324
13652W        W85912  27.560  42.941  11.575
13653W        W85913  22.173  22.120  12.410
13654W        W85914  30.923  29.610   3.770
13655W        W85915  37.976  44.813  13.355
13656W        W85916  10.773  19.742  13.472
13657W        W85917  32.413  35.996   0.370
13658W        W85918  31.081  25.041   2.181
13659W        W85919   2.806  19.679  14.931
13660W        W85920  43.449  22.646  14.434
13661W        W85921  15.656  41.490  10.571
13662W        W85922   7.746  27.530   2.795
13663W        W85923  28.499   2.770  13.835
13664W        W85924  26.170  16.571  11.870
13665W        W85925   2.339  23.032  14.438
13666W        W85926  38.952  12.288  11.119
13667W        W85927   6.342  17.299  12.824
13668W        W85928  15.214  15.775   1.372
13669W        W85929  27.490  10.767   2.902
13670W        W85930   6.739   1.864   3.227
13671W        W85931   7.730  36.892  12.539
13672W        W85932  15.588   6.693  11.877
13673W        W85933   8.672  25.028   4.744
13674W        W85934   8.161   7.722  12.460
13675W        W85935  25.075  34.051  10.480
13676W        W85936   6.785  11.194  11.514
13677W        W85937  23.500   9.817   2.231
13678W        W85938  20.072  14.629   0.802
13679W        W85939  27.991  41.815  14.411
13680W        W85940  42.889  14.220   2.275
13681W        W85941  44.773   8.750   3.831
13682W        W85942  22.109  34.000   0.897
13683W        W85943  32.038  40.379   1.333
13684W        W85944   3.840  34.028  12.074
13685W        W85945  20.720  27.650   2.267
13686W        W85946  33.973  41.871  14.862
13687W        W85947   6.272  42.471   4.291
13688W        W85948  21.554  23.039  13.871
13689W        W85949  10.289  14.747   2.694
13690W        W85950   3.267  24.657  13.937
13691W        W85951  12.329  34.487   4.172
13692W        W85952  20.660   2.750   1.251
13693W        W85953  28.081  30.916  14.453
13694W        W85954  39.352   8.271   1.819
13695W        W85955  27.548  34.029   3.385
13696W        W85956  29.984  11.137  14.362
13697W        W85957   5.412  38.822   2.391
13698W        W85958  28.474   4.291   1.346
13699W        W85959  19.583   2.914   3.311
13700W        W85960   0.257  19.248  11.895
13701W        W85961  31.010  33.009   1.340
13702W        W85962  15.329  37.368   0.759
13703W        W85963  33.034   3.395   3.247
13704W        W85964   7.890  38.911   1.280
13705W        W85965   9.224   3.930   4.311
13706W        W85966  44.933  35.932   2.342
13707W        W85967  42.819  14.831   1.807
13708W        W85968  35.938  43.381  11.077
13709W        W85969  42.945  15.191  13.344
13710W        W85970  23.563   8.703   4.115
13711W        W85971  17.293  18.054  13.525
13712W        W85972  40.426  15.733  13.039
13713W        W85973  21.140  40.885   2.272
13714W        W85974  36.932  23.593   0.861
13715W        W85975  15.648  23.598  10.889
13716W        W85976  44.265  23.668  14.973
13717W        W85977  11.181   0.969   3.672
13718W        W85978  36.952   1.922  13.839
13719W        W85979  18.587  15.748  13.907
13720W        W85980  20.578   2.320  14.927
13721W        W85981  14.659  34.561  13.354
13722W        W85982  26.651  10.358  14.334
13723W        W85983  19.773   6.899  11.022
13724W        W85984  44.468  34.429   3.198
13725W        W85985  42.501  44.953  13.529
13726W        W85986  14.704  11.259  13.378
13727W        W85987  22.031   7.839  12.061
13728W        W85988  36.419  30.124  12.436
13729W        W85989  27.655  12.160   0.346
13730W        W85990  14.199   1.735   4.622
13731W        W85991  40.328   3.883   4.697
13732W        W85992  34.602  22.592   4.719
13733W        W85993  33.554  37.944   0.828
13734W        W85994  32.557  19.146  12.575
13735W        W85995   6.424  31.976  14.442
13736W        W85996  32.558  16.126   2.752
13737W        W85997   9.848   4.362  10.408
13738W        W85998  21.733  20.605   3.363
13739W        W85999   4.704  15.623  12.519
13740W        W86000   7.902   6.204  12.840
13741W        W86001   8.716  23.049   3.669
13742W        W86002  10.307  18.550   2.338
13743W        W86003  36.025  17.244  11.900
13744W        W86004  24.532  19.272   1.768
13745W        W86005  43.790  14.280  10.592
13746W        W86006  10.691  29.600  14.931
13747W        W86007  41.972  39.518  11.960
13748W        W86008  36.865   4.813   3.747
13749W        W86009  32.510  28.652  12.519
13750W        W86010  27.478  13.800   2.902
13751W        W86011  28.473  30.159   5.607
13752W        W86012  25.060  30.533  14.515
13753W        W86013  16.176  17.176  10.906
13754W        W86014  42.801   3.893   4.248
13755W        W86015  15.681  34.929  12.553
13756W        W86016  44.753  11.678  14.476
13757W        W86017   7.200   0.372   1.793
13758W        W86018  39.541  31.976  12.853
13759W        W86019  42.838  42.292  13.920
13760W        W86020   1.351  10.330  11.576
13761W        W86021   7.834  28.642  12.445
13762W        W86022  26.988  40.037   2.203
13763W        W86023  43.891  39.449  12.085
13764W        W86024  25.487   3.801   1.804
13765W        W86025  25.094  28.094  13.336
13766W        W86026  37.497  10.682   4.613
13767W        W86027  22.203  27.620   5.317
13768W        W86028   2.246  43.453   0.886
13769W        W86029   2.802  33.561  14.951
13770W        W86030   7.838  41.433   9.957
13771W        W86031  23.644  42.335  10.577
13772W        W86032  30.005  11.328   0.358
13773W        W86033  10.297  25.515   2.714
13774W        W86034  26.656   1.290  13.045
13775W        W86035  17.090  24.228   1.791
13776W        W86036   5.704  15.658   1.296
13777W        W86037   3.299  41.394   0.294
13778W        W86038  42.327  39.951   4.197
13779W        W86039   3.791   0.457  14.005
13780W        W86040   2.748  34.009   1.792
13781W        W86041   7.854  23.717   0.377
13782W        W86042   8.790  23.153  13.895
13783W        W86043  28.090  19.075   5.090
13784W        W86044  19.111   3.242  14.798
13785W        W86045  43.804  24.155   2.188
13786W        W86046  17.126  43.328  10.955
13787W        W86047  16.567  34.381  12.957
13788W        W86048  11.129  41.515   0.359
13789W        W86049  27.046  28.460  10.930
13790W        W86050  15.625  10.688   0.416
13791W        W86051  17.089  13.808   2.662
13792W        W86052  17.795  20.738   2.195
13793W        W86053  31.096  33.497  14.384
13794W        W86054  29.966  44.817  10.478
13795W        W86055  37.424  34.874  11.112
13796W        W86056  37.968   9.802   2.387
13797W        W86057  38.870  20.602  12.509
13798W        W86058  12.247  28.548  12.401
13799W        W86059  21.034  11.301  14.326
13800W        W86060   2.956  37.008   0.293
13801W        W86061  30.519   1.315  14.965
13802W        W86062  15.089  32.067  10.086
13803W        W86063   2.907   2.742   0.856
13804W        W86064   4.887  21.591  11.939
13805W        W86065  44.985  35.597  13.025
13806W        W86066  24.982  27.103   4.630
13807W        W86067   6.329  15.167   2.725
13808W        W86068   1.370   0.913  14.490
13809W        W86069  42.424  28.680   2.832
13810W        W86070  42.889  13.654   1.923
13811W        W86071  39.945  12.789   0.728
13812W        W86072  35.010  15.799  12.344
13813W        W86073   2.869   1.944   4.760
13814W        W86074  34.460   6.370   1.903
13815W        W86075  10.699  28.112  10.628
13816W        W86076  19.580   5.889   3.705
13817W        W86077  43.340  19.146   0.439
13818W        W86078  24.702  23.048  14.945
13819W        W86079  29.445  12.666  13.398
13820W        W86080  30.617   6.891   4.173
13821W        W86081  37.852  29.549  14.351
13822W        W86082  14.143  30.628   1.785
13823W        W86083  30.590  19.564  13.414
13824W        W86084   2.963  10.717   3.165
13825W        W86085  27.645  22.526  13.947
13826W        W86086  25.611   5.703   0.268
13827W        W86087  21.549   1.294   4.770
13828W        W86088  34.917  17.239   0.390
13829W        W86089  11.791   1.282   4.263
13830W        W86090   0.881  42.946  12.876
13831W        W86091  37.872  39.477  14.870
13832W        W86092  17.771   4.382  11.084
13833W        W86093  32.626  32.938   4.826
13834W        W86094  28.116  44.853  11.373
13835W        W86095  31.594  19.285  10.593
13836W        W86096  24.021   8.756  10.443
13837W        W86097  36.408  13.143  14.504
13838W        W86098   2.723  30.414  14.411
13839W        W86099  21.590  17.244   0.404
13840W        W86100  39.875  18.553   3.868
13841W        W86101   0.456  44.011  14.440
13842W        W86102   5.269   5.420   1.397
13843W        W86103  24.040   8.714   5.166
13844W        W86104  25.028  29.053  12.841
13845W        W86105  33.460  34.423   1.855
13846W        W86106   1.759   3.289   2.791
13847W        W86107  24.714  13.839   2.671
13848W        W86108  37.372   7.722  11.857
13849W        W86109  27.170  26.674   3.312
13850W        W86110   5.765  42.842  14.957
13851W        W86111  40.514  39.937   2.276
13852W        W86112  40.393  39.871   1.749
13853W        W86113  11.146  16.625   1.746
13854W        W86114  34.449  36.037   2.220
13855W        W86115  22.092  38.449  11.599
13856W        W86116  13.337   3.726   3.702
13857W        W86117   2.241  25.196  10.999
13858W        W86118  44.336  10.287  10.462
13859W        W86119  38.548  18.064   4.701
13860W        W86120  15.701  32.044   4.133
13861W        W86121  28.078  16.685  13.963
13862W        W86122  40.535  23.590   4.277
13863W        W86123  43.460  20.042  14.482
13864W        W86124  26.491  39.861  11.933
13865W        W86125  34.516  42.495   4.654
13866W        W86126   4.263  43.513   4.342
13867W        W86127  10.833  27.661  11.583
13868W        W86128   3.418   7.844  12.910
13869W        W86129  32.621   8.817  13.340
13870W        W86130  18.156  10.345   1.362
13871W        W86131  37.957  12.732  13.462
13872W        W86132  29.017  38.922   0.815
13873W        W86133  32.032   0.279   1.440
13874W        W86134  41.395  44.833  14.961
13875W        W86135  43.927  35.591   1.782
13876W        W86136  25.599  17.112   9.926
13877W        W86137  31.067  17.291  11.030
13878W        W86138   3.247  19.125  12.876
13879W        W86139  20.182  21.027   1.754
13880W        W86140   6.841  41.881   2.694
13881W        W86141   3.906   5.287   3.818
13882W        W86142  43.017  37.559   3.372
13883W        W86143  26.037  29.562   2.891
13884W        W86144  10.306  36.078  10.485
13885W        W86145   1.969  11.281  11.544
13886W        W86146  26.494  19.643  10.546
13887W        W86147  32.055  16.195  13.314
13888W        W86148  37.543  27.023   2.302
13889W        W86149  32.447  23.987  11.536
13890W        W86150  31.567   3.926   1.314
13891W        W86151  18.249  17.786   0.737
13892W        W86152  15.606  31.495   4.345
13893W        W86153  32.076  24.082   3.318
13894W        W86154  16.096  38.995  14.500
13895W        W86155  24.056   2.796   3.218
13896W        W86156  17.675  28.652   0.885
13897W        W86157  39.395   6.240  11.556
13898W        W86158   0.810  24.556   1.762
13899W        W86159  13.829  39.322   3.762
13900W        W86160  24.710   1.799  14.814
13901W        W86161   8.397  19.268   4.737
13902W        W86162  36.473  38.568  11.409
13903W        W86163  11.852  14.661  12.828
13904W        W86164  11.305  42.482   1.396
13905W        W86165  24.685  32.592   4.188
13906W        W86166  19.204  27.083   3.676
13907W        W86167  23.509  28.991   2.705
13908W        W86168  11.717   2.726  12.515
13909W        W86169  12.130   1.480  14.889
13910W        W86170  34.401   5.908  11.115
13911W        W86171  36.432  27.653   2.777
13912W        W86172  43.464  31.540  10.595
13913W        W86173  43.379  20.130  11.528
13914W        W86174  26.569  14.268   1.365
13915W        W86175  29.115  42.405   1.749
13916W        W86176  22.239  28.642  10.986
13917W        W86177  42.347   4.348   3.315
13918W        W86178  12.854  12.155   1.907
13919W        W86179   7.317  10.247   0.269
13920W        W86180  42.858  34.864  12.495
13921W        W86181  40.019  20.524  11.058
13922W        W86182   7.295   7.384  12.970
13923W        W86183  37.415  25.712  11.581
13924W        W86184  29.484   9.715   0.952
13925W        W86185  22.174   4.730  11.514
13926W        W86186   9.654  36.086   4.302
13927W        W86187  41.801  14.736  11.555
13928W        W86188  23.139  34.908   2.815
13929W        W86189  18.155   2.818   3.208
13930W        W86190  26.086  26.600   0.432
13931W        W86191   2.340   2.373  12.518
13932W        W86192  30.035  19.040   0.951
13933W        W86193  35.930   3.717  12.922
13934W        W86194   9.309  22.053  10.577
13935W        W86195  21.550  24.130  12.526
13936W        W86196  20.526  25.169  11.518
13937W        W86197  31.478  16.206  10.457
13938W        W86198  40.374  24.223  14.309
13939W        W86199  13.720   0.468   1.308
13940W        W86200  17.109  40.512   3.747
13941W        W86201  20.676  33.111  10.965
13942W        W86202   7.793  24.150  11.466
13943W        W86203  24.562  13.799  11.050
13944W        W86204  44.919  30.501  13.374
13945W        W86205  26.970   4.868  13.061
13946W        W86206   2.861  24.181   3.159
13947W        W86207  20.696   4.910   0.766
13948W        W86208  21.152   5.840   9.921
13949W        W86209  27.082  32.498  11.027
13950W        W86210  12.153  40.502  10.915
13951W        W86211  21.067  33.936  14.499
13952W        W86212  33.994  38.534   0.820
13953W        W86213  17.161  15.147   4.291
13954W        W86214   1.838  42.845   4.322
13955W        W86215  29.580  13.837  11.388
13956W        W86216   4.740   9.658   3.323
13957W        W86217  44.348   8.307   1.226
13958W        W86218  15.600  20.693  14.471
13959W        W86219   5.819  44.939  12.444
13960W        W86220  43.784   1.794  12.922
13961W        W86221  37.483  24.033  11.535
13962W        W86222  16.150  26.563  14.824
13963W        W86223  25.075  26.646  11.956
13964W        W86224  41.309  36.027   1.327
13965W        W86225  25.181  41.024  14.492
13966W        W86226  34.455   5.799  14.453
13967W        W86227  26.590  22.502   4.349
13968W        W86228  19.709  21.671   1.877
13969W        W86229   8.232   3.789   4.678
13970W        W86230  36.863  15.761  14.837
13971W        W86231  19.130  24.565  13.018
13972W        W86232  12.676  38.483  13.350
13973W        W86233  10.369  40.001   3.309
13974W        W86234   5.705   8.351   1.448
13975W        W86235  16.213   5.360  14.903
13976W        W86236  33.390  27.661  14.446
13977W        W86237  17.135  16.280   0.735
13978W        W86238  37.044  13.645   2.406
13979W        W86239  26.531   2.767  12.078
13980W        W86240   4.223   8.216   3.805
13981W        W86241  36.463   9.309   5.191
13982W        W86242  32.024  22.702  11.549
13983W        W86243   0.798  43.829   3.174
13984W        W86244  37.910  38.384   1.281
13985W        W86245  31.122  29.930  10.520
13986W        W86246  36.452   5.236   0.945
13987W        W86247  26.125   7.788  12.341
13988W        W86248   5.410  33.525   4.636
13989W        W86249  25.669  38.018  13.898
13990W        W86250  10.333   7.315   1.220
13991W        W86251  23.048   5.880  12.920
13992W        W86252  11.198  22.038  14.428
13993W        W86253  14.792  21.105  10.932
13994W        W86254  32.459  14.765   0.457
13995W        W86255  30.127  35.014   4.333
13996W        W86256   4.400  15.756  13.458
13997W        W86257  20.037  13.312   2.327
13998W        W86258  18.296  15.634  11.950
13999W        W86259  34.924  39.902  14.936
14000W        W86260  16.285  36.917   2.679
14001W        W86261  19.563   2.333   3.718
14002W        W86262   7.754  23.177   3.862
14003W        W86263   6.808  38.457   3.374
14004W        W86264  23.025  37.423  13.875
14005W        W86265  20.074  36.883  14.496
14006W        W86266  32.583  34.059   1.795
14007W        W86267  14.230  43.835  13.936
14008W        W86268  38.523  21.526  10.635
14009W        W86269  37.995   2.825  12.486
14010W        W86270   5.746  30.455  11.062
14011W        W86271  36.841  37.004  12.398
14012W        W86272  22.570   4.221  14.030
14013W        W86273  30.063  11.194   3.285
14014W        W86274  35.487  30.592  13.962
14015W        W86275  44.000  26.175  10.940
14016W        W86276  20.251  32.017   5.279
14017W        W86277  34.491  23.087   1.759
14018W        W86278  41.963  41.977  11.526
14019W        W86279  37.571  28.087  10.945
14020W        W86280   6.754  36.025   2.898
14021W        W86281  24.212  29.079   0.408
14022W        W86282  44.345   7.279   4.808
14023W        W86283  20.751  34.939  14.452
14024W        W86284  35.005  37.432   0.378
14025W        W86285  26.079  38.560  12.027
14026W        W86286  12.357  38.872  14.815
14027W        W86287   9.224  38.938  11.439
14028W        W86288  24.708  24.072   0.771
14029W        W86289  43.389  17.081   0.911
14030W        W86290  16.111  32.428  13.966
14031W        W86291  13.639   7.389  10.901
14032W        W86292  14.161   4.710   4.334
14033W        W86293  11.797  36.998   2.705
14034W        W86294  32.625  37.370   4.674
14035W        W86295  28.964  34.510  12.879
14036W        W86296  37.024   7.902   2.824
14037W        W86297  30.639  20.701   0.459
14038W        W86298  16.586  40.448  11.965
14039W        W86299   2.835  35.012  13.341
14040W        W86300  26.993  33.389   3.769
14041W        W86301  37.335   8.211   4.171
14042W        W86302  34.941   0.386  10.542
14043W        W86303   0.870  40.382  11.405
14044W        W86304   4.894  12.826  13.480
14045W        W86305   1.754   0.778   4.258
14046W        W86306  30.629  26.061  10.462
14047W        W86307  27.487  20.733   3.290
14048W        W86308  32.391  42.289   1.902
14049W        W86309  33.414  11.746   1.374
14050W        W86310  10.321  43.288  14.855
14051W        W86311   0.345  40.875   0.833
14052W        W86312  10.655  31.594  12.390
14053W        W86313   6.355  21.592  12.420
14054W        W86314  26.522   2.309  13.506
14055W        W86315  15.197  34.962  12.998
14056W        W86316  40.876   6.318   3.312
14057W        W86317  34.384   6.923   2.321
14058W        W86318  30.931  41.853   2.367
14059W        W86319   4.890  28.952   1.418
14060W        W86320  27.041  42.430   0.427
14061W        W86321   1.916  17.073   1.239
14062W        W86322  20.127  13.173  12.077
14063W        W86323  39.968  43.388  12.398
14064W        W86324  14.113  32.565  10.432
14065W        W86325  16.175  22.635   1.853
14066W        W86326  25.708   7.171   2.747
14067W        W86327  15.787  43.307  10.547
14068W        W86328  11.762  35.519   0.911
14069W        W86329  36.875  12.276  12.963
14070W        W86330  39.387  19.575  13.390
14071W        W86331  10.685  14.122   4.808
14072W        W86332  26.590   8.278  13.421
14073W        W86333  36.055  39.430  12.416
14074W        W86334   3.355  44.379   1.412
14075W        W86335  27.579  34.042   0.799
14076W        W86336  17.566   6.910  12.409
14077W        W86337  39.315   8.753   3.762
14078W        W86338  32.909  43.940  13.541
14079W        W86339   4.945  21.518   2.287
14080W        W86340  34.429   7.279  14.953
14081W        W86341   5.832  10.706   1.419
14082W        W86342  27.053  40.038  14.775
14083W        W86343  15.731   3.221  14.975
14084W        W86344  32.099  38.898  13.320
14085W        W86345  28.035  20.636  12.366
14086W        W86346  16.118  30.522  14.858
14087W        W86347  28.521  34.518  10.532
14088W        W86348  22.134  21.047  11.128
14089W        W86349  17.159  12.711   3.689
14090W        W86350   3.327   1.758   3.644
14091W        W86351  24.987  40.507   3.755
14092W        W86352  16.077   5.314   4.189
14093W        W86353  29.055  27.061  10.515
14094W        W86354  16.657  30.529  13.346
14095W        W86355   8.768  24.103  12.071
14096W        W86356  38.907  33.463  10.891
14097W        W86357  12.115  38.978  11.570
14098W        W86358  37.570  24.230  13.548
14099W        W86359  19.101   3.242  10.611
14100W        W86360  20.546  18.554   3.757
14101W        W86361   9.158  31.614  13.986
14102W        W86362  28.593  25.070   4.759
14103W        W86363  19.162   9.158   5.126
14104W        W86364  39.951   3.401  11.472
14105W        W86365   3.709  26.523   2.721
14106W        W86366  40.832  41.396   3.714
14107W        W86367  35.406   0.771  13.313
14108W        W86368  29.453  40.027   4.265
14109W        W86369  18.586  23.631   3.788
14110W        W86370  20.123  20.127   5.236
14111W        W86371  32.073  10.330  10.590
14112W        W86372  16.224  27.452   0.259
14113W        W86373  10.260   0.420   1.321
14114W        W86374  39.529  26.503   2.350
14115W        W86375   4.288  15.766   1.927
14116W        W86376  16.650  28.957   2.686
14117W        W86377  10.222  25.064  10.531
14118W        W86378  10.793  30.506   2.778
14119W        W86379  22.710  25.987  10.458
14120W        W86380  25.998  43.435   2.738
14121W        W86381  22.545   2.235   0.358
14122W        W86382   2.371  16.197  10.582
14123W        W86383  32.130  19.099   2.898
14124W        W86384  39.915  27.623  12.354
14125W        W86385  15.813  30.470   4.180
14126W        W86386  14.307  37.418  11.046
14127W        W86387  17.726  14.132  11.974
14128W        W86388   5.293  18.669   1.365
14129W        W86389  17.779  33.472  12.473
14130W        W86390   4.419  43.316   0.306
14131W        W86391  38.487  43.913   1.824
14132W        W86392   1.244   4.850  12.847
14133W        W86393  35.058  22.231   0.357
14134W        W86394   5.930  39.412   3.832
14135W        W86395  37.439  44.955  13.880
14136W        W86396  26.087  42.452   4.807
14137W        W86397   4.813  19.063  11.378
14138W        W86398  13.126  41.987  12.396
14139W        W86399   1.417   5.898  12.490
14140W        W86400   7.269  41.854  12.933
14141W        W86401  30.990  22.658  13.433
14142W        W86402  35.853  39.477   3.233
14143W        W86403  38.395  14.285   3.203
14144W        W86404   1.798   1.892  10.917
14145W        W86405  44.811  23.531   0.308
14146W        W86406  28.607  27.991  11.927
14147W        W86407  14.335  37.371  10.638
14148W        W86408  32.481  27.016  11.441
14149W        W86409   5.748  20.753  10.529
14150W        W86410  30.533  10.717  14.768
14151W        W86411  40.005  38.862  12.958
14152W        W86412  27.051  12.232  10.996
14153W        W86413  22.729  21.716  13.473
14154W        W86414  33.074   5.354  14.346
14155W        W86415  11.236  13.240   2.744
14156W        W86416  38.499  31.604  13.530
14157W        W86417  30.940   3.841  13.356
14158W        W86418   0.338  40.532  13.316
14159W        W86419  26.987  37.423  10.118
14160W        W86420  21.511  40.470   3.762
14161W        W86421  32.512  21.208  11.477
14162W        W86422  19.593  30.103   1.450
14163W        W86423  31.140  42.918  14.028
14164W        W86424   8.710   6.836   2.241
14165W        W86425  30.642  17.594  10.604
14166W        W86426   0.894  22.538  13.405
14167W        W86427  21.618  32.041  13.866
14168W        W86428   2.767  22.185   0.292
14169W        W86429   9.678   1.473  13.007
14170W        W86430  31.576  20.674  14.838
14171W        W86431  40.973  14.269   2.666
14172W        W86432  38.885   6.389  12.402
14173W        W86433  28.616   5.801   4.712
14174W        W86434  13.703   6.868  11.984
14175W        W86435  19.060   4.414  11.010
14176W        W86436  21.702  43.949   1.295
14177W        W86437  36.553   8.792   4.225
14178W        W86438  27.686  40.406   1.869
14179W        W86439  33.986   2.747  11.106
14180W        W86440  20.273  27.624   4.237
14181W        W86441  21.142   4.858   4.716
14182W        W86442   3.386  39.002  10.473
14183W        W86443  41.424  33.450  12.390
14184W        W86444   2.925   5.789  11.878
14185W        W86445  21.068  12.230   2.404
14186W        W86446  40.841  24.508  11.464
14187W        W86447  25.627  36.946   1.293
14188W        W86448  31.564   5.806  10.569
14189W        W86449   4.898  32.090   3.379
14190W        W86450  43.956  42.856   4.118
14191W        W86451  16.720  13.629  13.317
14192W        W86452  43.768  28.541  12.902
14193W        W86453  42.855  12.845  12.448
14194W        W86454   1.477  44.979   3.288
14195W        W86455  43.394  40.946   2.264
14196W        W86456  34.573  32.924   0.863
14197W        W86457   6.815  30.085   2.338
14198W        W86458   0.798  37.025  10.616
14199W        W86459   9.224  41.942  11.082
14200W        W86460  29.493   5.203  10.972
14201W        W86461  39.034  23.644  11.943
14202W        W86462  26.129  41.856  10.989
14203W        W86463  20.052  29.593   3.701
14204W        W86464  19.147  32.507  14.302
14205W        W86465   9.378  31.602   3.281
14206W        W86466  22.509  20.724   5.262
14207W        W86467  38.433  16.743   4.201
14208W        W86468   2.937   3.793  10.406
14209W        W86469  25.646  19.258  12.434
14210W        W86470  33.917  15.153  12.015
14211W        W86471   0.893  44.894   4.736
14212W        W86472  34.884   2.310   1.745
14213W        W86473  29.107  28.968   1.912
14214W        W86474   1.787  16.597  10.964
14215W        W86475  34.011  38.479  12.837
14216W        W86476  24.058   0.900  12.466
14217W        W86477  39.962   2.874   3.727
14218W        W86478  23.683  17.283  14.507
14219W        W86479   2.865   8.195  13.514
14220W        W86480   3.814  41.018   2.262
14221W        W86481  40.847   8.787   1.784
14222W        W86482  39.532  11.787  10.534
14223W        W86483   9.772   6.252  10.485
14224W        W86484  40.405  32.118   2.298
14225W        W86485  20.572   7.404  13.838
14226W        W86486  34.060  33.409   1.418
14227W        W86487  15.237  28.506   0.755
14228W        W86488   4.424  25.096   0.727
14229W        W86489  43.019  42.804   1.739
14230W        W86490  16.793  41.515   1.388
14231W        W86491  34.392  22.059   3.370
14232W        W86492  19.707  20.253  11.979
14233W        W86493  40.408  22.724   0.911
14234W        W86494  10.745  21.229  11.539
14235W        W86495  21.513   7.699   4.758
14236W        W86496  44.903   0.422   1.413
14237W        W86497   5.375   4.750   1.708
14238W        W86498  18.681  37.548   2.406
14239W        W86499  31.114  26.133   3.723
14240W        W86500  36.514  44.445  14.975
14241W        W86501  28.982  41.909  13.856
14242W        W86502   6.817  22.213  13.858
14243W        W86503  42.953  26.133  13.845
14244W        W86504  38.025  16.086  10.525
14245W        W86505  44.452  15.136  13.937
14246W        W86506  26.069  41.314  11.002
14247W        W86507  23.622  36.900  13.046
14248W        W86508   5.411  13.810  13.812
14249W        W86509  35.004  39.063   3.147
14250W        W86510  30.542  22.071   4.341
14251W        W86511  19.040   0.300   0.862
14252W        W86512  32.913  30.623   3.635
14253W        W86513   2.261  24.683  14.453
14254W        W86514  39.019  40.522  13.355
14255W        W86515  36.937   4.913  10.509
14256W        W86516   2.830  42.382  11.871
14257W        W86517   5.272  40.865   2.900
14258W        W86518   5.891  13.642  14.866
14259W        W86519  38.447  30.419   0.368
14260W        W86520   5.245   2.350  10.590
14261W        W86521   2.281   3.766  13.056
14262W        W86522  11.205  28.659   4.640
14263W        W86523  11.296  41.947  10.897
14264W        W86524  22.095  43.369   2.790
14265W        W86525  41.480  28.064  11.868
14266W        W86526  33.584  23.227   3.189
14267W        W86527   3.461  17.278   1.910
14268W        W86528  33.941  43.506  14.028
14269W        W86529  28.173  40.328   1.790
14270W        W86530  35.045   3.856   0.754
14271W        W86531   1.347  11.362   2.195
14272W        W86532  25.118  41.529  13.817
14273W        W86533  17.291   1.844   3.845
14274W        W86534  28.985  39.416   2.785
14275W        W86535  44.266  15.585  12.450
14276W        W86536  42.497  37.866  14.833
14277W        W86537  26.198  42.379  12.915
14278W        W86538  14.624  35.527   1.817
14279W        W86539  42.317  41.349   2.784
14280W        W86540  15.791   5.232  14.950
14281W        W86541  12.672   5.298  11.583
14282W        W86542  23.007  32.498   1.260
14283W        W86543  42.940  36.906  11.942
14284W        W86544  22.102   3.406   4.143
14285W        W86545   3.813   1.861   2.881
14286W        W86546  27.594  22.636  13.354
14287W        W86547  10.763   7.193  14.991
14288W        W86548  27.679  19.073   1.298
14289W        W86549  31.980   0.339  13.363
14290W        W86550   9.391  37.946   2.697
14291W        W86551  36.404  38.016   0.344
14292W        W86552   5.212  36.882   1.352
14293W        W86553  27.602  12.788   0.371
14294W        W86554  22.600  22.614   0.941
14295W        W86555   0.775  21.725  12.427
14296W        W86556  31.526  14.662   2.224
14297W        W86557  26.493  33.498   2.194
14298W        W86558  19.118  40.830   2.811
14299W        W86559  26.157  33.623  12.558
14300W        W86560  44.412  13.104  13.380
14301W        W86561  33.553  26.671  10.551
14302W        W86562  18.588  42.781  13.502
14303W        W86563  16.779  39.393  14.383
14304W        W86564  24.030  18.728   4.700
14305W        W86565  21.687   3.751   2.847
14306W        W86566  28.504  27.588  11.377
14307W        W86567  15.178   1.421   0.254
14308W        W86568  22.222   4.342  14.785
14309W        W86569  27.085  19.165   0.287
14310W        W86570  34.440   2.862   1.449
14311W        W86571  27.965  27.984   0.416
14312W        W86572  10.353  24.229   4.824
14313W        W86573  25.502  41.974   3.705
14314W        W86574  12.344  37.037   0.306
14315W        W86575  15.653   0.338   0.891
14316W        W86576  42.316  43.996  12.447
14317W        W86577   1.303  40.985   4.673
14318W        W86578   4.732  44.491   5.228
14319W        W86579  26.120   4.854   4.740
14320W        W86580   5.324  18.640  14.426
14321W        W86581  14.718  41.019   1.363
14322W        W86582  21.559  27.166  14.016
14323W        W86583  23.514  13.155   3.643
14324W        W86584  31.938  37.932  13.879
14325W        W86585   7.307   5.424  14.015
14326W        W86586  15.130   4.397  12.420
14327W        W86587  33.059  38.365  14.456
14328W        W86588  40.986  40.434  13.530
14329W        W86589  18.176  18.679  14.399
14330W        W86590  35.999  39.554  14.327
14331W        W86591   0.399  30.062  10.566
14332W        W86592   8.834   4.920  14.463
14333W        W86593  23.509  25.121  13.380
14334W        W86594  26.650  43.327  13.878
14335W        W86595  20.237   5.331   3.155
14336W        W86596  39.875  28.067   0.367
14337W        W86597  42.909  27.482  12.860
14338W        W86598  38.967  14.115  13.410
14339W        W86599  24.536  32.081   4.250
14340W        W86600   4.920   8.755   0.423
14341W        W86601  42.008  24.509  11.925
14342W        W86602  13.201  41.025  11.867
14343W        W86603   3.270  32.905   3.708
14344W        W86604  41.790  28.680  10.584
14345W        W86605  43.010  35.472   0.886
14346W        W86606  24.661  41.810   2.788
14347W        W86607   8.274  30.578   4.648
14348W        W86608  44.367  32.625   0.911
14349W        W86609  12.701   7.864  11.574
14350W        W86610  37.988   7.827   4.329
14351W        W86611  13.731   7.864   1.216
14352W        W86612  32.514   1.896  14.793
14353W        W86613  42.406   2.864   0.825
14354W        W86614  29.108  15.112  10.519
14355W        W86615   4.892  27.578  11.062
14356W        W86616   5.222  27.071   5.306
14357W        W86617   5.356   2.279  11.483
14358W        W86618  43.313  24.030   4.220
14359W        W86619  20.064  39.548   2.270
14360W        W86620  11.285  16.731  14.470
14361W        W86621  22.619  36.359  13.878
14362W        W86622   7.270  25.493   2.762
14363W        W86623   8.878   2.398  13.976
14364W        W86624  10.638  12.139  12.066
14365W        W86625  40.438   9.672   3.669
14366W        W86626  21.086  30.612  14.868
14367W        W86627  43.921   3.884   2.303
14368W        W86628  13.321  19.657  10.491
14369W        W86629  37.043  15.707  11.065
14370W        W86630  22.741  27.946  11.553
14371W        W86631  19.569  29.005  10.474
14372W        W86632  31.916  44.277   3.170
14373W        W86633   2.723  14.311  14.967
14374W        W86634  22.651  20.533  10.565
14375W        W86635  14.249  20.061   1.277
14376W        W86636  15.801  27.153   0.922
14377W        W86637  29.519   7.328  11.004
14378W        W86638  36.392  21.691   2.256
14379W        W86639  25.965  11.228   4.808
14380W        W86640   1.810  30.624   1.285
14381W        W86641  35.404  29.170   3.823
14382W        W86642  14.318   5.732   4.623
14383W        W86643   9.809   7.739  14.497
14384W        W86644  15.809   5.316   4.271
14385W        W86645  32.567   0.956  10.516
14386W        W86646  25.675  20.214  13.943
14387W        W86647  14.776  32.434  12.370
14388W        W86648  22.690  35.514   3.160
14389W        W86649   0.836  10.296  11.506
14390W        W86650  17.086  16.788   3.812
14391W        W86651  10.354  22.073  13.913
14392W        W86652  22.618   2.901   4.271
14393W        W86653  32.535  12.171   3.242
14394W        W86654  16.637  13.148  12.912
14395W        W86655  19.242  23.157  12.014
14396W        W86656  10.686  24.562   1.434
14397W        W86657  14.756  42.523   4.662
14398W        W86658  21.638  31.086  13.977
14399W        W86659  23.580  20.179   2.848
14400W        W86660  44.775  10.277   1.795
14401W        W86661   8.322   6.230  10.412
14402W        W86662  20.767  41.031   1.246
14403W        W86663  36.445  10.795   2.815
14404W        W86664  38.838   1.962  11.567
14405W        W86665  13.741  23.012   4.263
14406W        W86666  33.499  19.055  13.874
14407W        W86667  44.801  13.615  11.091
14408W        W86668  25.019  24.091  13.022
14409W        W86669  20.050   4.743   9.960
14410W        W86670  14.717  38.065  12.533
14411W        W86671  15.761   8.792  10.481
14412W        W86672  13.767  39.385   2.264
14413W        W86673  22.035  13.785   0.308
14414W        W86674  24.015  10.753   2.370
14415W        W86675   8.266  40.864  14.849
14416W        W86676  23.124  12.687  13.907
14417W        W86677   0.393  37.078   4.339
14418W        W86678  31.456  33.026  10.502
14419W        W86679  21.531   7.842   3.360
14420W        W86680  15.116  40.520  11.607
14421W        W86681  21.571  17.564  10.967
14422W        W86682   3.833  35.385  12.012
14423W        W86683  31.975  28.672   4.348
14424W        W86684  32.569   7.417  13.386
14425W        W86685  40.982   4.220   4.140
14426W        W86686  13.185  16.807   5.757
14427W        W86687  35.491  26.457   3.228
14428W        W86688  38.875  18.544  13.852
14429W        W86689  29.643  44.831  12.051
14430W        W86690  26.969  35.555  14.368
14431W        W86691   0.273   5.331   2.697
14432W        W86692  27.495  12.845   3.785
14433W        W86693  14.742  33.412  12.952
14434W        W86694   0.275  28.462  14.031
14435W        W86695  38.820  12.342   3.230
14436W        W86696  37.935  38.941   2.675
14437W        W86697   0.798   8.389  13.353
14438W        W86698  29.448  11.812   1.344
14439W        W86699  44.341  29.949   4.309
14440W        W86700  43.313  17.202   2.230
14441W        W86701  41.353  19.280   0.432
14442W        W86702  17.182   8.734  13.402
14443W        W86703  14.329  41.510   0.920
14444W        W86704   4.899  40.009  12.897
14445W        W86705  37.080  20.248   3.200
14446W        W86706   4.368  18.077  12.051
14447W        W86707  17.619  38.862   3.186
14448W        W86708  13.154  17.072   0.836
14449W        W86709  26.616  15.308   4.641
14450W        W86710  23.994  30.612  13.799
14451W        W86711  37.487   7.296   9.486
14452W        W86712  34.027  44.931   2.747
14453W        W86713  18.582  19.774   4.155
14454W        W86714  12.226   0.339  10.978
14455W        W86715  41.971  28.551   4.287
14456W        W86716  31.105  25.083   5.129
14457W        W86717   9.750  20.538  14.778
14458W        W86718  37.052  12.735  14.787
14459W        W86719  35.373  23.533  14.483
14460W        W86720  40.006  32.557   0.875
14461W        W86721  39.356   3.460   4.816
14462W        W86722  30.541  40.935  14.296
14463W        W86723  43.810  34.462  13.952
14464W        W86724  11.143  11.803  12.081
14465W        W86725  44.840   0.365  10.627
14466W        W86726  16.132   5.858   3.761
14467W        W86727   5.872  12.272  10.972
14468W        W86728  23.223  41.003   3.777
14469W        W86729   2.753  14.334  11.083
14470W        W86730   0.861  36.860   0.879
14471W        W86731  36.933  40.837  11.490
14472W        W86732   8.255  22.581  11.404
14473W        W86733  39.481  41.026   0.907
14474W        W86734  37.350   2.273   2.870
14475W        W86735   6.218  39.955  11.889
14476W        W86736  10.320   1.774  12.472
14477W        W86737  13.299   5.374   1.930
14478W        W86738  43.926  44.436   1.866
14479W        W86739  21.222   4.806  12.423
14480W        W86740  36.081   6.254   2.824
14481W        W86741  13.677   5.254   1.821
14482W        W86742  13.140  17.794   4.293
14483W        W86743  28.569  11.790   2.873
14484W        W86744  40.393   9.849   0.295
14485W        W86745   7.704  30.018  11.458
14486W        W86746  31.912   3.450  10.008
14487W        W86747  28.149  33.384   3.856
14488W        W86748  12.794  17.680   2.186
14489W        W86749  24.012  27.615   0.371
14490W        W86750  31.993  29.980   1.374
14491W        W86751   1.924  44.461   1.751
14492W        W86752  10.829  43.937  14.879
14493W        W86753   6.745  15.108   1.275
14494W        W86754   1.385   8.656  11.898
14495W        W86755  35.512   3.866  13.339
14496W        W86756   8.247  40.483  11.117
14497W        W86757  18.209  38.505  12.580
14498W        W86758  10.365  18.593   4.302
14499W        W86759  11.749  15.706   5.315
14500W        W86760  27.493  36.502   1.793
14501W        W86761  37.087  26.522  10.917
14502W        W86762  37.011  20.265   9.593
14503W        W86763  10.276  29.101  12.035
14504W        W86764  33.878  33.515   4.725
14505W        W86765   5.922  30.923  14.316
14506W        W86766  35.393  10.229  12.579
14507W        W86767  20.655  37.076   1.311
14508W        W86768  23.667  20.092  12.868
14509W        W86769  22.619  44.281  14.022
14510W        W86770  39.837  15.656   4.321
14511W        W86771  17.754   8.730   2.223
14512W        W86772  30.460  33.485  13.995
14513W        W86773  22.045  27.992  12.056
14514W        W86774   3.407  15.304  13.338
14515W        W86775  23.619  42.807   0.445
14516W        W86776  20.663   7.182  11.479
14517W        W86777  30.074  43.815  10.634
14518W        W86778  23.594  19.236   2.702
14519W        W86779  32.449  14.602   2.789
14520W        W86780  28.498  12.651  11.925
14521W        W86781  27.031  43.877  10.902
14522W        W86782  41.529  41.794   2.767
14523W        W86783  40.543  43.957   4.741
14524W        W86784  15.310   1.738   0.907
14525W        W86785  39.056  11.636   1.389
14526W        W86786  25.166  40.421   4.675
14527W        W86787   6.406  26.504   4.618
14528W        W86788  25.995  43.895  10.921
14529W        W86789  37.956  37.338  13.829
14530W        W86790  25.119  18.553   2.339
14531W        W86791  22.127  24.178  12.022
14532W        W86792  41.365  38.838  14.783
14533W        W86793  21.552  12.741  13.940
14534W        W86794  44.986  27.478   2.272
14535W        W86795  43.826  20.734  11.534
14536W        W86796   5.691  43.941   0.912
14537W        W86797  18.657  38.860  13.016
14538W        W86798  33.026  42.879   4.305
14539W        W86799   4.302  37.449   4.775
14540W        W86800  32.045  10.140  11.609
14541W        W86801   8.665  19.716  11.062
14542W        W86802  15.718  41.788  10.438
14543W        W86803   2.921  44.009   3.326
14544W        W86804  41.023  27.097   4.838
14545W        W86805  41.942  28.035   1.322
14546W        W86806  19.222  40.004  14.949
14547W        W86807  15.600  11.143   1.921
14548W        W86808   4.441  24.596   1.413
14549W        W86809  24.631   8.304  13.538
14550W        W86810  43.310  20.536   3.300
14551W        W86811  12.639  18.761  14.311
14552W        W86812  40.996   4.294  13.881
14553W        W86813  27.958  32.054   4.609
14554W        W86814  38.424  34.470  11.999
14555W        W86815  27.509  41.971   1.839
14556W        W86816   0.901  19.643  12.080
14557W        W86817  10.328  15.757   0.453
14558W        W86818  20.585  27.619  10.591
14559W        W86819   4.340  33.972   4.131
14560W        W86820  21.096  26.196   1.825
14561W        W86821   7.761  42.470  13.336
14562W        W86822  38.898  32.609   2.189
14563W        W86823  32.111  35.034   2.227
14564W        W86824  40.484  17.237  12.991
14565W        W86825  44.390   0.277  14.782
14566W        W86826  17.284  38.553  13.401
14567W        W86827  28.105  15.085   2.413
14568W        W86828  39.560  33.447  14.398
14569W        W86829  14.182  23.547   4.622
14570W        W86830  24.147  43.868  11.992
14571W        W86831  29.918  27.054  12.064
14572W        W86832  37.520  30.964  13.373
14573W        W86833   3.379   8.209   4.801
14574W        W86834  33.561  31.938   2.671
14575W        W86835  42.970  41.825  12.024
14576W        W86836   5.386  39.355  13.514
14577W        W86837  28.654  11.344   1.288
14578W        W86838  33.884   3.294  10.505
14579W        W86839  43.434   8.222  10.435
14580W        W86840   3.887  31.977  12.025
14581W        W86841   7.263  32.968   0.950
14582W        W86842  19.615  10.204  12.094
14583W        W86843  25.602  15.258  12.917
14584W        W86844  16.074   8.879  14.815
14585W        W86845  15.189  41.902  14.374
14586W        W86846   3.257   2.913  14.762
14587W        W86847  23.223  12.162  12.474
14588W        W86848  42.020  39.916  11.046
14589W        W86849  38.539  44.501   1.349
14590W        W86850  28.647   2.816  12.870
14591W        W86851  29.461  18.577  10.415
14592W        W86852  23.702  15.644  14.500
14593W        W86853   6.423  43.313  12.901
14594W        W86854  22.067  44.296   4.257
14595W        W86855  39.340  34.114   0.375
14596W        W86856  12.176  18.733  12.413
14597W        W86857  27.961  41.865  13.383
14598W        W86858  22.155   3.345   1.347
14599W        W86859  27.600  18.779  12.070
14600W        W86860  36.510  34.115  12.973
14601W        W86861  25.212  32.391   0.961
14602W        W86862  41.480  30.966   4.677
14603W        W86863  30.416  39.912  11.060
14604W        W86864  42.359  36.092  14.942
14605W        W86865  36.084  30.638  10.562
14606W        W86866   4.240  33.542  14.993
14607W        W86867   8.685  36.552   4.666
14608W        W86868   6.819  38.986   3.704
14609W        W86869  19.095  24.197   3.274
14610W        W86870  42.490  25.215  10.407
14611W        W86871  10.292  16.579   0.410
14612W        W86872  21.656  15.086  13.947
14613W        W86873   4.307  38.894   1.241
14614W        W86874  10.256  23.722   4.343
14615W        W86875  36.549  11.235  12.091
14616W        W86876   9.851  31.069   0.452
14617W        W86877  39.352  43.771   0.472
14618W        W86878  11.316  10.242   2.338
14619W        W86879   3.714   8.892   1.866
14620W        W86880  44.411  27.658  13.974
14621W        W86881  28.538  11.351   3.853
14622W        W86882  18.778  24.578   1.377
14623W        W86883  34.520  41.984  12.903
14624W        W86884  27.946   6.797   1.846
14625W        W86885  40.525  17.095  11.940
14626W        W86886   1.398  14.672  12.053
14627W        W86887  39.340   6.259  14.339
14628W        W86888  11.637   2.332  14.016
14629W        W86889   1.322  22.602   2.201
14630W        W86890  28.005  42.933  11.038
14631W        W86891  33.552  42.350   1.743
14632W        W86892  11.169   6.711   0.346
14633W        W86893  33.119  37.892  10.617
14634W        W86894  14.185  13.261   3.695
14635W        W86895   4.885   3.440   0.304
14636W        W86896  22.168   5.422  13.405
14637W        W86897  17.220  18.660   1.896
14638W        W86898  12.849  31.055   4.189
14639W        W86899   1.904  38.435   4.757
14640W        W86900  14.603   6.751  13.449
14641W        W86901  17.773  31.538  14.438
14642W        W86902  35.601  39.967   1.716
14643W        W86903  21.192  24.606   4.205
14644W        W86904   0.807  40.361   2.408
14645W        W86905   2.821  43.455  13.323
14646W        W86906  43.279   4.436  13.843
14647W        W86907  34.990  34.967   2.711
14648W        W86908  21.148  33.082  10.616
14649W        W86909  24.489   7.368   4.276
14650W        W86910  12.252   8.393  11.512
14651W        W86911  35.369  12.774  11.413
14652W        W86912  36.876  19.740   4.829
14653W        W86913  27.082  38.875  13.402
14654W        W86914  40.819  25.664  10.621
14655W        W86915  20.641  15.743  12.343
14656W        W86916  23.013  13.342  13.001
14657W        W86917  17.800  30.497   5.153
14658W        W86918  37.547   9.384   0.967
14659W        W86919   9.665  18.145   3.784
14660W        W86920  28.011  29.502  14.455
14661W        W86921  32.968  13.260   0.954
14662W        W86922  21.148  12.181  14.493
14663W        W86923  41.839  25.525   2.194
14664W        W86924  14.177   1.415   0.850
14665W        W86925  31.058  16.765  11.456
14666W        W86926  37.893  41.012  11.613
14667W        W86927  21.045  21.028  13.501
14668W        W86928  27.446   0.853   3.296
14669W        W86929  17.101  23.155  12.898
14670W        W86930  14.322  14.138  11.541
14671W        W86931  35.410  40.518   1.258
14672W        W86932  18.570   9.654   0.967
14673W        W86933  32.928  15.101  14.991
14674W        W86934  22.078  32.101  12.961
14675W        W86935   7.724  43.454  14.444
14676W        W86936  12.831  15.806  10.151
14677W        W86937  39.420  14.101   2.256
14678W        W86938   6.790  14.761   3.346
14679W        W86939   2.902  22.746  12.443
14680W        W86940  13.809  35.054  12.937
14681W        W86941   1.250  14.613   4.785
14682W        W86942  15.106  13.831   1.360
14683W        W86943  43.963  27.486   1.326
14684W        W86944  21.260  15.627  14.507
14685W        W86945   6.758  29.503   4.622
14686W        W86946  27.641  10.300  12.488
14687W        W86947  36.562  43.290  10.623
14688W        W86948  21.536  34.432   4.181
14689W        W86949   4.713  36.997  13.979
14690W        W86950  23.072  34.037   4.788
14691W        W86951  25.567  21.088  14.413
14692W        W86952   6.814  32.064  12.844
14693W        W86953  16.101  14.769  14.981
14694W        W86954   4.344  35.895  12.948
14695W        W86955  12.167  39.879   0.247
14696W        W86956  12.726  25.144  11.891
14697W        W86957  11.257  21.638  10.962
14698W        W86958  13.797  15.813  11.018
14699W        W86959   2.421  42.776  14.279
14700W        W86960  17.603  32.499  13.794
14701W        W86961  18.716  41.458  14.468
14702W        W86962   8.188   4.305   4.195
14703W        W86963  33.418  23.615   3.803
14704W        W86964  32.999  18.096  10.970
14705W        W86965   0.860   5.844  12.470
14706W        W86966  13.289  43.787   0.372
14707W        W86967  33.505  44.989  11.083
14708W        W86968  13.609  27.567   3.849
14709W        W86969  36.071  42.461  11.558
14710W        W86970   2.429  22.607   1.708
14711W        W86971  17.213  35.573  10.127
14712W        W86972  19.275  41.454   4.310
14713W        W86973  17.606  44.843  10.490
14714W        W86974   6.368  28.670   5.280
14715W        W86975   6.920  42.522   2.770
14716W        W86976  28.109   3.724   3.331
14717W        W86977  26.193   4.442  11.447
14718W        W86978   1.325   8.661   5.086
14719W        W86979  21.639  44.833   0.951
14720W        W86980  14.826  41.893   2.223
14721W        W86981  28.179   2.857  12.383
14722W        W86982  37.952  21.063  13.324
14723W        W86983   7.820  18.179   0.790
14724W        W86984   4.407   8.162  12.991
14725W        W86985  40.427  43.479   1.338
14726W        W86986  27.630  34.470  12.043
14727W        W86987   0.393  42.328   3.314
14728W        W86988  16.139  36.485  13.532
14729W        W86989  31.014  34.044  13.885
14730W        W86990  32.441  38.860   0.754
14731W        W86991  42.960   6.815  11.424
14732W        W86992  13.629  20.735  14.472
14733W        W86993  10.139  30.029   4.753
14734W        W86994  11.139  10.295   3.322
14735W        W86995  22.154  26.952   4.781
14736W        W86996  39.383   4.824  14.924
14737W        W86997   7.382   2.357  11.900
14738W        W86998  10.733  16.300   0.772
14739W        W86999  35.564  43.314  14.934
14740W        W87000   7.850   8.381   4.266
14741W        W87001   1.303  12.284  12.507
14742W        W87002  10.633  17.226   0.260
14743W        W87003  29.986   3.352  10.548
14744W        W87004  13.198  13.238   4.347
14745W        W87005  44.268  12.307  10.563
14746W        W87006  36.990  33.998   0.764
14747W        W87007   7.833   9.859   0.460
14748W        W87008   3.896  35.981   5.145
14749W        W87009  18.611  22.662   5.172
14750W        W87010  18.077  30.469  14.949
14751W        W87011  34.373  29.535  13.924
14752W        W87012  24.175   5.435  14.967
14753W        W87013  38.554  25.177  12.895
14754W        W87014  21.517  28.982   0.386
14755W        W87015   9.659  38.381  14.493
14756W        W87016  12.705  27.682   4.229
14757W        W87017   2.870  44.967  11.433
14758W        W87018   0.463  38.365   4.160
14759W        W87019  38.039   4.212   0.443
14760W        W87020   9.193  35.557   2.846
14761W        W87021  18.771  43.824  11.017
14762W        W87022  13.308   7.882   0.744
14763W        W87023  33.120  18.110  14.457
14764W        W87024  43.938  34.402  12.911
14765W        W87025  23.657  30.148  10.917
14766W        W87026  15.276   4.918  13.387
14767W        W87027  21.570  10.637  11.567
14768W        W87028  23.598  36.031   3.217
14769W        W87029  11.725  24.058  14.476
14770W        W87030  38.076  23.547   2.903
14771W        W87031   8.666  16.743   3.706
14772W        W87032  30.003   3.795  13.820
14773W        W87033  16.630  32.121   0.404
14774W        W87034  42.526  10.780   4.222
14775W        W87035  18.111  22.721   4.779
14776W        W87036  37.875  42.918  12.482
14777W        W87037  42.801  15.100   2.900
14778W        W87038   7.232  41.525  12.489
14779W        W87039  34.609  16.624  12.876
14780W        W87040  26.058  11.143  12.414
14781W        W87041  34.971   3.320  12.953
14782W        W87042  32.947  40.401  12.915
14783W        W87043  20.539   9.299   3.743
14784W        W87044  44.761  14.722  13.373
14785W        W87045   7.898  42.019   4.683
14786W        W87046  39.820  22.688   1.316
14787W        W87047  20.616  23.634  13.318
14788W        W87048  12.174   8.718  14.850
14789W        W87049  12.627  37.575   1.697
14790W        W87050  30.146  28.045   3.807
14791W        W87051  25.516  42.358  12.535
14792W        W87052  16.215  37.356   4.823
14793W        W87053  17.123  28.501   0.411
14794W        W87054  22.633  25.644  14.335
14795W        W87055  37.073  29.598  10.515
14796W        W87056  32.485  38.053   0.304
14797W        W87057  16.135  29.606  10.466
14798W        W87058   4.442  29.147   0.380
14799W        W87059  31.553  32.104  12.840
14800W        W87060  44.851  30.458   5.228
14801W        W87061  26.022  24.581  13.427
14802W        W87062  21.122  25.062  12.524
14803W        W87063  33.538  32.025   4.602
14804W        W87064  27.450  38.401   3.239
14805W        W87065  18.262   1.372  13.514
14806W        W87066  39.823  15.615  11.591
14807W        W87067  19.222  36.941  10.534
14808W        W87068  38.976   4.425   3.866
14809W        W87069  24.674   8.678   3.236
14810W        W87070  26.994  42.891  12.875
14811W        W87071  39.874   7.235   1.272
14812W        W87072  31.631  37.054  11.003
14813W        W87073  10.724  17.626  11.981
14814W        W87074  13.841  28.623  13.485
14815W        W87075  40.497  31.636  11.011
14816W        W87076  24.568   0.352  10.495
14817W        W87077   5.271  26.038  10.153
14818W        W87078  19.125   0.266   3.281
14819W        W87079  11.794  29.622   3.770
14820W        W87080  29.630  29.968   5.693
14821W        W87081  24.212  41.474   0.287
14822W        W87082   3.262  23.195   0.431
14823W        W87083   0.797  20.259   2.318
14824W        W87084  22.142  30.060  13.869
14825W        W87085  42.987  35.086  11.048
14826W        W87086   8.290  33.406   4.211
14827W        W87087  20.220   5.872   1.313
14828W        W87088  11.328  19.579   2.725
14829W        W87089  34.569  10.649   2.768
14830W        W87090   0.827  26.038  13.364
14831W        W87091  19.544   7.741   0.940
14832W        W87092  33.617  25.195  12.038
14833W        W87093  32.978  27.051  12.032
14834W        W87094  42.797  14.316   0.866
14835W        W87095  14.597  28.966   1.843
14836W        W87096  20.034  32.540   2.691
14837W        W87097  33.066  16.568   4.150
14838W        W87098   1.774  33.920  11.536
14839W        W87099  27.451   4.390  12.853
14840W        W87100  31.518  10.199  14.324
14841W        W87101  12.345  28.533  13.542
14842W        W87102  36.852  19.079   9.966
14843W        W87103  34.927   6.841  10.645
14844W        W87104  41.973  17.634   3.640
14845W        W87105   9.765  21.217   1.743
14846W        W87106  43.010  12.651   1.913
14847W        W87107  37.397  25.703   3.166
14848W        W87108   5.378  17.694   0.414
14849W        W87109  33.473   8.380  12.488
14850W        W87110  23.044  19.133   9.977
14851W        W87111  23.729  19.060  14.337
14852W        W87112  41.517  15.666   3.346
14853W        W87113  23.028  33.448  11.924
14854W        W87114  44.451   0.445   2.346
14855W        W87115  27.122   7.323  11.460
14856W        W87116  31.014  27.030  14.402
14857W        W87117  31.980  34.991  11.916
14858W        W87118  40.999  20.119  14.423
14859W        W87119   5.388  19.169  14.387
14860W        W87120  37.524  33.501  11.110
14861W        W87121  29.130  20.762  11.965
14862W        W87122  40.397  28.096   3.706
14863W        W87123  40.961  40.364   0.824
14864W        W87124  26.567  24.973   1.884
14865W        W87125  20.679  35.525   4.727
14866W        W87126  24.658  24.510  12.408
14867W        W87127  21.547  37.915   4.245
14868W        W87128  27.992  34.032   2.387
14869W        W87129  24.017  36.849   2.380
14870W        W87130  14.269  23.190  12.977
14871W        W87131  33.954  35.579  12.477
14872W        W87132  37.924  27.982   3.157
14873W        W87133   9.717  43.821   1.217
14874W        W87134  34.081  27.674   2.732
14875W        W87135  25.672   1.813   4.335
14876W        W87136  29.034  18.584   0.919
14877W        W87137  38.467   9.829  13.427
14878W        W87138   7.681  27.112   2.395
14879W        W87139  11.245  23.083  13.438
14880W        W87140   5.868  14.146   3.366
14881W        W87141   2.407  17.167   4.164
14882W        W87142   7.258  29.600  11.024
14883W        W87143  12.223  28.507   5.125
14884W        W87144  18.171  28.096  13.983
14885W        W87145  24.611  13.727   4.287
14886W        W87146  10.255  30.964  11.373
14887W        W87147  40.996   8.392   2.841
14888W        W87148  36.586  39.517   1.788
14889W        W87149   4.260   2.807   2.375
14890W        W87150  44.474  17.711   3.148
14891W        W87151  17.659   8.827   2.870
14892W        W87152  28.626  13.122  14.843
14893W        W87153  15.207  37.946   2.790
14894W        W87154  23.719  30.534  11.953
14895W        W87155  16.796  32.578   3.270
14896W        W87156  30.950  24.689  14.017
14897W        W87157   7.297  26.531   1.762
14898W        W87158  21.107  22.506  10.980
14899W        W87159  17.246  16.099   5.213
14900W        W87160  43.925  17.710  12.539
14901W        W87161  11.675   1.270  12.883
14902W        W87162  10.276  11.696   3.341
14903W        W87163   4.830  31.093   3.736
14904W        W87164   2.400  38.367   0.345
14905W        W87165   9.323  24.168  12.055
14906W        W87166  14.640  18.737  11.512
14907W        W87167   4.852   2.746  12.509
14908W        W87168   4.323   1.243   0.286
14909W        W87169  39.324  22.187  12.526
14910W        W87170  31.897  12.792   2.201
14911W        W87171  15.596  28.015  13.341
14912W        W87172  25.197  24.084  13.324
14913W        W87173  36.064  11.283   4.617
14914W        W87174  18.088  26.625  12.857
14915W        W87175  38.033  15.579  12.066
14916W        W87176  21.039   3.948  10.447
14917W        W87177  27.519   6.358  11.463
14918W        W87178  36.519  42.421  14.490
14919W        W87179  21.515  14.267   0.327
14920W        W87180  18.569  28.658  14.428
14921W        W87181   2.437  10.785  10.612
14922W        W87182  20.737  27.118   3.696
14923W        W87183  24.610  28.012   4.734
14924W        W87184  22.698  20.540   9.919
14925W        W87185  39.857  40.458   3.234
14926W        W87186  23.998  35.377   0.303
14927W        W87187  15.701   6.300  12.463
14928W        W87188  11.713  35.954  14.854
14929W        W87189  21.720  21.042   0.922
14930W        W87190  11.674  10.225  10.977
14931W        W87191  20.106  18.720  13.425
14932W        W87192  34.530  34.572   3.744
14933W        W87193   1.260  30.107   0.754
14934W        W87194  35.892   7.679  11.410
14935W        W87195   3.286  40.937   4.151
14936W        W87196  28.166  41.511   2.357
14937W        W87197  42.009  12.619  12.460
14938W        W87198  14.189   2.403  12.033
14939W        W87199  35.569  18.115  12.906
14940W        W87200   2.878  22.127   2.852
14941W        W87201  40.959  18.172   3.731
14942W        W87202  14.171  30.577   2.781
14943W        W87203  35.527  37.393   0.382
14944W        W87204  32.033   5.251  14.359
14945W        W87205  33.495  22.014   3.251
14946W        W87206  33.941  42.495  10.488
14947W        W87207  27.636   1.907  13.867
14948W        W87208  35.541   7.255  12.482
14949W        W87209  13.602  36.360   0.446
14950W        W87210  13.112   5.846   0.256
14951W        W87211  29.670  27.970   3.331
14952W        W87212  27.032   1.938  14.299
14953W        W87213  39.404  10.714  14.886
14954W        W87214  29.444  25.043  10.439
14955W        W87215  28.944  17.764   2.339
14956W        W87216  13.212   1.376  11.544
14957W        W87217   1.785  38.993   1.899
14958W        W87218  15.177  17.241   5.165
14959W        W87219  29.054   3.834   1.907
14960W        W87220   6.923  43.373  13.842
14961W        W87221  32.578  29.485   2.891
14962W        W87222  44.809  28.617   3.171
14963W        W87223  15.692  25.176   3.359
14964W        W87224  25.504  27.688  13.835
14965W        W87225  39.977  22.533  11.928
14966W        W87226  28.137  41.351   4.718
14967W        W87227  10.712   5.691   4.214
14968W        W87228  15.093  44.787  12.947
14969W        W87229  32.112  36.894  14.777
14970W        W87230  21.214  17.616   1.878
14971W        W87231  29.959  27.127   3.868
14972W        W87232  15.650  24.621   3.841
14973W        W87233   7.889  21.751  14.920
14974W        W87234  33.578  14.314   1.443
14975W        W87235  14.205  25.688  12.873
14976W        W87236  35.003  16.183  14.860
14977W        W87237  34.037  28.451  10.603
14978W        W87238  15.656  14.721   4.649
14979W        W87239  14.741  31.980  12.485
14980W        W87240   2.261  32.039  11.429
14981W        W87241  18.553  37.073   3.649
14982W        W87242  10.238   4.346  13.986
14983W        W87243  27.036   3.407  14.909
14984W        W87244  23.525   6.260   1.884
14985W        W87245  32.522  10.805   4.705
14986W        W87246  24.588  28.059   5.217
14987W        W87247  30.431  26.067  13.378
14988W        W87248  18.593   6.366   2.799
14989W        W87249  34.892   3.245  10.120
14990W        W87250   3.239  30.487   1.794
14991W        W87251   4.210  35.876   2.706
14992W        W87252  36.499   6.774  10.417
14993W        W87253  34.930  44.834  13.801
14994W        W87254  18.077   1.839   3.368
14995W        W87255  28.969  22.672   2.346
14996W        W87256  43.840  42.971  13.400
14997W        W87257  22.999  42.301  12.503
14998W        W87258  30.003   3.424   2.367
14999W        W87259   7.821   6.400   1.717
15000W        W87260  37.418  33.955  13.960
15001W        W87261  10.804  35.398  13.540
15002W        W87262   0.397  13.723   3.786
15003W        W87263  36.463  11.793  11.516
15004W        W87264  17.159   9.391  12.012
15005W        W87265   6.249  24.546  13.878
15006W        W87266  35.867   9.390  12.462
15007W        W87267  41.461  23.109  12.492
15008W        W87268  30.421  38.350   3.861
15009W        W87269  42.836  21.526   0.884
15010W        W87270   8.200  15.204  13.401
15011W        W87271  29.006  30.073  10.121
15012W        W87272  14.339  26.138   4.663
15013W        W87273  12.777   2.420  13.920
15014W        W87274  22.061   0.744  13.960
15015W        W87275  32.406  19.586   4.306
15016W        W87276  38.055  25.079  12.561
15017W        W87277  27.460  30.952  13.061
15018W        W87278  16.690  32.127  12.504
15019W        W87279  33.115  16.309   4.716
15020W        W87280  39.047  38.375  10.549
15021W        W87281  15.286  23.539   3.650
15022W        W87282  14.173   0.750  12.964
15023W        W87283  24.171   0.816  13.979
15024W        W87284   5.285  28.045   1.286
15025W        W87285  33.069  17.205   0.797
15026W        W87286  14.136  32.594  13.039
15027W        W87287  16.672  25.183  12.882
15028W        W87288  19.127  25.480   1.808
15029W        W87289   1.749  44.283  10.520
15030W        W87290   7.873   8.290   0.828
15031W        W87291  38.822   8.390  11.095
15032W        W87292  39.542  17.623   1.806
15033W        W87293   1.379  13.665   0.857
15034W        W87294  24.506  27.572  14.333
15035W        W87295  10.205  19.187   1.355
15036W        W87296  40.404  21.216  10.564
15037W        W87297  17.113  12.307   0.315
15038W        W87298  18.646  11.809  10.161
15039W        W87299  34.422   6.368  13.003
15040W        W87300   4.239  20.162   2.678
15041W        W87301  44.333   1.798  14.443
15042W        W87302  12.213  44.915   1.913
15043W        W87303  36.577  43.379   4.613
15044W        W87304   6.762  37.413  14.360
15045W        W87305  32.119   6.863   1.291
15046W        W87306  24.563  28.125   2.270
15047W        W87307   9.676  11.662  14.874
15048W        W87308  40.418   5.715  10.558
15049W        W87309  29.650   1.257   4.353
15050W        W87310  10.818   1.449  14.515
15051W        W87311  43.409  16.763  10.439
15052W        W87312  10.874   3.819  12.456
15053W        W87313  27.042  29.092   1.345
15054W        W87314  37.834  44.385   4.761
15055W        W87315   1.335  14.707  12.896
15056W        W87316  23.624  40.985   4.776
15057W        W87317  18.648   5.886  12.002
15058W        W87318  18.719  22.210   1.423
15059W        W87319  21.535  22.696  10.567
15060W        W87320  44.880  29.524  13.032
15061W        W87321  17.626  16.599   2.868
15062W        W87322  26.656  11.282  12.432
15063W        W87323   6.718  11.727   2.820
15064W        W87324  27.150  11.656   4.725
15065W        W87325  23.589  23.648   2.701
15066W        W87326  32.087  32.513   0.260
15067W        W87327  30.977  19.752   1.282
15068W        W87328  16.663  12.282  10.634
15069W        W87329  40.347  41.379   0.894
15070W        W87330   5.262  37.545  12.417
15071W        W87331   0.371  35.550  13.880
15072W        W87332  42.520  36.545  12.443
15073W        W87333   1.347  38.928   0.881
15074W        W87334  36.347  33.053  14.323
15075W        W87335  22.725   3.271   2.367
15076W        W87336  22.665  34.923  10.415
15077W        W87337  27.597  12.819  10.448
15078W        W87338  33.927  30.128   1.383
15079W        W87339  15.616   3.908   0.859
15080W        W87340  42.896  31.557   2.795
15081W        W87341  20.653  32.952  12.912
15082W        W87342  26.485  15.800  12.519
15083W        W87343  20.733  27.480  13.841
15084W        W87344  21.080  43.919  13.007
15085W        W87345  23.557  37.879  14.889
15086W        W87346   8.243  26.177   5.221
15087W        W87347  24.996  26.052   2.774
15088W        W87348   4.706   3.837  13.888
15089W        W87349  11.757  15.661  12.043
15090W        W87350  27.479  10.835   0.839
15091W        W87351  34.407  12.616   2.811
15092W        W87352  30.644  14.195  11.948
15093W        W87353  39.545   0.439  10.642
15094W        W87354  29.936  29.924   3.860
15095W        W87355   6.921  12.233  12.889
15096W        W87356  19.616  12.614  12.355
15097W        W87357  24.479   2.451   3.750
15098W        W87358  10.861  36.059  11.479
15099W        W87359  32.891  16.236   1.884
15100W        W87360  18.623   5.211   4.648
15101W        W87361   4.714   0.452   3.711
15102W        W87362  34.951  32.036   1.852
15103W        W87363  37.874  28.183   0.783
15104W        W87364  35.960   4.829   4.186
15105W        W87365   6.353  13.303  11.950
15106W        W87366  13.787  35.522  11.930
15107W        W87367  30.138   9.648   1.884
15108W        W87368  21.601  27.569  12.824
15109W        W87369  40.015   9.858   4.821
15110W        W87370   1.952  22.725   1.921
15111W        W87371  19.681  24.575  13.367
15112W        W87372  11.158  34.881   1.890
15113W        W87373  11.228  25.010  11.010
15114W        W87374  31.038   4.733   0.838
15115W        W87375  28.962  33.039  12.084
15116W        W87376  28.671   3.893   4.743
15117W        W87377  10.234  40.800   3.254
15118W        W87378  44.975  16.187  11.966
15119W        W87379   2.387  24.643  11.527
15120W        W87380  22.520  35.604  11.018
15121W        W87381   2.439  20.699   2.358
15122W        W87382  14.296  21.090   2.700
15123W        W87383  17.243  19.770   4.331
15124W        W87384  26.654  21.062   0.350
15125W        W87385  32.953   5.931  13.800
15126W        W87386  14.656  30.437  14.776
15127W        W87387  36.444  30.992   4.198
15128W        W87388   6.916  35.501  12.873
15129W        W87389  22.723  31.641   2.288
15130W        W87390   3.942  21.633  11.396
15131W        W87391   8.306  14.607  12.923
15132W        W87392  25.676  43.001   2.836
15133W        W87393  39.004  35.545   1.364
15134W        W87394  24.607   7.234  12.999
15135W        W87395  29.565   1.859  13.024
15136W        W87396  17.797  12.779   2.226
15137W        W87397  18.709  18.148   0.362
15138W        W87398  35.052  17.247  12.344
15139W        W87399  27.638  12.813   2.797
15140W        W87400   4.441  35.948  10.475
15141W        W87401   0.933  22.132   1.794
15142W        W87402  44.981   8.177  14.818
15143W        W87403  15.704  12.156  12.990
15144W        W87404   1.770  10.177  13.495
15145W        W87405  29.947  17.658  11.454
15146W        W87406  37.833  21.105   1.250
15147W        W87407  41.988  31.408  12.002
15148W        W87408  21.654   9.281  14.417
15149W        W87409  17.189  10.691   3.863
15150W        W87410  19.061  26.620  12.471
15151W        W87411  22.691  15.590  10.066
15152W        W87412  38.883  10.141   0.775
15153W        W87413  17.752   1.386  12.346
15154W        W87414  41.009   0.948   3.860
15155W        W87415  30.147  26.092  11.607
15156W        W87416   7.254  18.060   4.214
15157W        W87417  31.470  34.888   3.843
15158W        W87418  15.773   0.830  13.476
15159W        W87419  35.954  11.687  14.435
15160W        W87420  12.243  16.262  13.973
15161W        W87421   9.284  27.982   4.734
15162W        W87422   7.793  27.683  13.016
15163W        W87423  18.635  24.511   0.443
15164W        W87424   6.297  33.940  12.398
15165W        W87425   4.907   7.298  14.783
15166W        W87426   8.841  42.429   4.724
15167W        W87427   7.337  18.682   0.755
15168W        W87428  29.103  11.792  11.051
15169W        W87429   7.731  10.162   2.856
15170W        W87430  30.973   4.239   0.943
15171W        W87431  32.481   1.288   3.217
15172W        W87432   9.198  15.620  11.500
15173W        W87433  30.487  27.631   2.304
15174W        W87434   2.272  25.685  13.331
15175W        W87435  25.594  11.210  10.096
15176W        W87436   0.467   3.893  13.486
15177W        W87437   7.218  40.516   2.316
15178W        W87438  35.543  25.495  13.377
15179W        W87439   3.296  22.222  12.857
15180W        W87440  24.081  12.836   3.638
15181W        W87441   9.207   4.779   3.754
15182W        W87442  36.970  26.041   3.201
15183W        W87443  14.628   2.914   3.169
15184W        W87444  14.196  19.762   5.200
15185W        W87445  31.463  26.468  10.412
15186W        W87446  40.538  34.916  14.978
15187W        W87447   0.807  10.853  13.388
15188W        W87448  32.588  27.138  11.928
15189W        W87449  40.045  34.413   2.742
15190W        W87450  42.307   2.902   4.306
15191W        W87451   7.854   7.201   2.277
15192W        W87452  20.556  11.190  12.518
15193W        W87453  33.460  12.121   3.843
15194W        W87454  23.123  27.603  10.048
15195W        W87455  35.464  44.268  10.596
15196W        W87456  33.913  11.662  12.362
15197W        W87457  33.916   5.764  12.398
15198W        W87458  25.666   6.333  11.379
15199W        W87459   3.945  30.981   4.144
15200W        W87460  22.587   9.839   2.671
15201W        W87461  15.592   4.762   2.736
15202W        W87462  28.438   2.849  12.397
15203W        W87463  14.126  18.679  11.873
15204W        W87464   6.786  25.147   0.407
15205W        W87465  23.185  22.218  13.963
15206W        W87466   0.907  37.948  14.813
15207W        W87467  23.711   5.864   1.263
15208W        W87468  15.690   8.277  10.469
15209W        W87469  14.714  33.976   1.814
15210W        W87470   9.879   3.370  12.438
15211W        W87471  29.046  31.634   3.341
15212W        W87472  41.857  20.712  13.875
15213W        W87473  42.984  38.014   2.372
15214W        W87474  43.437  13.282  12.538
15215W        W87475  34.080   8.184  12.074
15216W        W87476  32.929   2.281  14.461
15217W        W87477  39.520   0.314  12.376
15218W        W87478  33.544  10.146  10.596
15219W        W87479   9.175   6.848  14.890
15220W        W87480  34.001   8.824   4.338
15221W        W87481  33.885  31.530  13.015
15222W        W87482  33.544   9.862  13.880
15223W        W87483   3.335  12.188   4.832
15224W        W87484   1.784  17.117   5.132
15225W        W87485  43.332   3.331  14.959
15226W        W87486  30.013  28.565  10.913
15227W        W87487   7.730  12.349  14.827
15228W        W87488   2.358  18.289  10.639
15229W        W87489  41.429   2.471   0.333
15230W        W87490  18.678  18.633   1.406
15231W        W87491  10.228   8.809   9.963
15232W        W87492  39.476  21.075  13.379
15233W        W87493  41.924  25.687  13.798
15234W        W87494  30.497  16.694  12.935
15235W        W87495  42.515   6.275  10.992
15236W        W87496   1.315  28.136   3.168
15237W        W87497  38.861  10.323  10.531
15238W        W87498  16.753  39.896  13.379
15239W        W87499   0.263  21.725  12.968
15240W        W87500  24.976  40.050  12.552
15241W        W87501  28.963  29.948   9.484
15242W        W87502  34.381  31.501  14.975
15243W        W87503  41.478   6.423   4.648
15244W        W87504  43.822  21.030  10.015
15245W        W87505  35.570   4.783  10.979
15246W        W87506  33.459  39.020   0.928
15247W        W87507  22.742  34.475   2.399
15248W        W87508  19.691   3.931   3.152
15249W        W87509  28.174  40.852  13.815
15250W        W87510  41.964  42.990  10.086
15251W        W87511  23.524  10.875  13.874
15252W        W87512  15.793   3.712  10.905
15253W        W87513  40.466  12.657   0.430
15254W        W87514  29.981   9.811  13.030
15255W        W87515  34.436  34.022  11.441
15256W        W87516  35.480  12.678  13.488
15257W        W87517   8.244  10.785  10.478
15258W        W87518  22.705  31.061  11.047
15259W        W87519  29.044   2.363  14.899
15260W        W87520  14.210  22.174  14.019
15261W        W87521  44.363   3.863  13.796
15262W        W87522  39.048   8.395  14.321
15263W        W87523  36.859  42.970   2.237
15264W        W87524  29.446  30.031   2.332
15265W        W87525  20.620  28.552  12.451
15266W        W87526  24.210  17.255   2.390
15267W        W87527  35.886  35.061  14.926
15268W        W87528   9.297  38.041  12.882
15269W        W87529   7.346  13.186  10.424
15270W        W87530  34.451  17.256  12.851
15271W        W87531  33.510  34.475   3.356
15272W        W87532  23.145  40.392   1.361
15273W        W87533  31.105  19.719   4.616
15274W        W87534   0.282  13.254   3.157
15275W        W87535  43.780  27.649   2.670
15276W        W87536  11.696   3.852  12.905
15277W        W87537  13.185   8.661   1.782
15278W        W87538  10.223  31.110  12.403
15279W        W87539  20.059  14.801   4.136
15280W        W87540   6.767  20.255  13.307
15281W        W87541  40.962  33.542  11.494
15282W        W87542   1.324  29.100  12.543
15283W        W87543  31.556  44.905  14.977
15284W        W87544  34.004  43.009   0.806
15285W        W87545  17.072  31.519  13.875
15286W        W87546  32.435   3.393  10.459
15287W        W87547  29.646  32.620  14.320
15288W        W87548  37.537  22.224   3.155
15289W        W87549  10.709  33.401  13.861
15290W        W87550  12.324   5.299  11.924
15291W        W87551  19.042  36.553  12.344
15292W        W87552  42.868  27.176   1.269
15293W        W87553  33.559  40.960   3.656
15294W        W87554   1.439   7.903  14.309
15295W        W87555   4.702   3.289   2.743
15296W        W87556  32.528  22.564   2.243
15297W        W87557  28.949  28.181   4.789
15298W        W87558  12.327  13.712  13.510
15299W        W87559   3.755   4.822   0.246
15300W        W87560  19.708  10.288   1.397
15301W        W87561  10.711  37.479   3.361
15302W        W87562   2.260   4.442   2.397
15303W        W87563  25.550  38.059  14.909
15304W        W87564  44.458  31.409   9.956
15305W        W87565  31.112  31.958   4.225
15306W        W87566  37.506  12.265  10.983
15307W        W87567   6.387   3.255   1.335
15308W        W87568  44.955  33.988   1.321
15309W        W87569   1.828  44.847   2.212
15310W        W87570   1.840  22.031  10.620
15311W        W87571  20.739   7.194  10.102
15312W        W87572  34.044   9.301   0.402
15313W        W87573   7.252  23.574  12.066
15314W        W87574  29.044  13.776  12.401
15315W        W87575  42.949  27.481  11.038
15316W        W87576  11.187  35.516   4.148
15317W        W87577  34.975  39.324  13.327
15318W        W87578  24.539  43.328  11.129
15319W        W87579  28.975   8.366   2.788
15320W        W87580  16.142  33.065   0.761
15321W        W87581  36.395   8.314  11.058
15322W        W87582   3.804   9.662  11.948
15323W        W87583  43.838   7.686   1.367
15324W        W87584   2.751  17.121  14.450
15325W        W87585  32.521  37.941  12.023
15326W        W87586  18.222   3.377   3.237
15327W        W87587  44.921  43.842  12.950
15328W        W87588  35.955  42.892   4.694
15329W        W87589  19.215  28.993  14.806
15330W        W87590  21.623  17.278  11.562
15331W        W87591  15.309  31.604  11.048
15332W        W87592   2.263  43.850  14.355
15333W        W87593  38.361  11.771  13.801
15334W        W87594  44.338  17.297   0.870
15335W        W87595  12.149  35.594   4.788
15336W        W87596  35.590  10.284   2.187
15337W        W87597   5.854  10.186  13.053
15338W        W87598  28.983  33.897   2.387
15339W        W87599   7.902  44.930  11.503
15340W        W87600   3.351  40.493  11.423
15341W        W87601  43.953   4.436   2.713
15342W        W87602  12.142  28.511   1.892
15343W        W87603  44.998   6.876  14.811
15344W        W87604  21.151  28.116   2.902
15345W        W87605  28.598  44.275  10.039
15346W        W87606  20.629  22.540  14.464
15347W        W87607  40.030  23.714  14.295
15348W        W87608  44.910  20.107  13.022
15349W        W87609   9.655   6.850  10.486
15350W        W87610  13.753  24.140   3.167
15351W        W87611  23.697   7.809   1.742
15352W        W87612  18.061  34.111  13.855
15353W        W87613  39.877  29.005   2.350
15354W        W87614  18.707  38.923  12.386
15355W        W87615   0.248  24.596  12.475
15356W        W87616  41.836  38.477   2.735
15357W        W87617  36.356  37.355  10.077
15358W        W87618  21.101  43.781  11.925
15359W        W87619  30.122  39.035  11.948
15360W        W87620  19.149   6.201   1.918
15361W        W87621  41.041  22.236   0.761
15362W        W87622  24.163  14.167  14.991
15363W        W87623  31.131  42.780  11.990
15364W        W87624  44.268  22.648   1.447
15365W        W87625  37.872  19.275  13.997
15366W        W87626  42.896  18.574   0.872
15367W        W87627  41.977  24.637  11.051
15368W        W87628  17.131  30.554  12.466
15369W        W87629  22.704  41.403  14.879
15370W        W87630  13.274  23.518   1.720
15371W        W87631   7.865  41.809   3.666
15372W        W87632  17.716   1.879   3.701
15373W        W87633  22.598  19.766   4.663
15374W        W87634  18.683  32.076   4.651
15375W        W87635  18.150  13.307  14.381
15376W        W87636  19.190  28.647   0.928
15377W        W87637  19.240   6.861   1.720
15378W        W87638  36.467  23.144   0.423
15379W        W87639  28.929  16.115   2.218
15380W        W87640  36.506  23.030   4.794
15381W        W87641  23.186  17.721   2.719
15382W        W87642  10.315  13.299   1.786
15383W        W87643   0.477  15.615  12.855
15384W        W87644  37.049  35.447  14.311
15385W        W87645  29.097  13.784  14.913
15386W        W87646  39.460  26.679  11.963
15387W        W87647  10.205  18.071  14.879
15388W        W87648  28.455  31.126   3.736
15389W        W87649   7.854  38.475   2.809
15390W        W87650  39.541   1.407   4.218
15391W        W87651   6.865  11.200   0.363
15392W        W87652  25.607  11.641  14.322
15393W        W87653  13.202  28.608  11.481
15394W        W87654   1.248   4.437   4.673
15395W        W87655  20.753   6.814   2.829
15396W        W87656  43.836  14.818  13.387
15397W        W87657   3.368  23.682   2.364
15398W        W87658  32.599  41.445   4.770
15399W        W87659  15.592   9.393   1.767
15400W        W87660  14.113  16.720  12.498
15401W        W87661  31.085  27.447   4.679
15402W        W87662  41.308  35.513   2.765
15403W        W87663  42.858  32.085  13.820
15404W        W87664  15.233  22.119   0.886
15405W        W87665   9.691  27.013   1.347
15406W        W87666   2.394  40.807  11.042
15407W        W87667  17.105  20.032  13.547
15408W        W87668  24.124  27.630   1.320
15409W        W87669  24.021  37.336  10.036
15410W        W87670  44.327  37.073   2.345
15411W        W87671  29.140  37.944   4.803
15412W        W87672  13.344  33.119  11.414
15413W        W87673  26.576   1.247   3.256
15414W        W87674  42.320  32.890  10.438
15415W        W87675  14.595  35.926  13.963
15416W        W87676  10.640  25.606   2.409
15417W        W87677  31.622  21.712   2.699
15418W        W87678  15.803  44.385  10.404
15419W        W87679  25.019   5.227   4.347
15420W        W87680  18.766  19.724   3.703
15421W        W87681  11.198  34.974  10.907
15422W        W87682  36.437  33.080   0.250
15423W        W87683  12.790  33.509  13.002
15424W        W87684  13.168  25.176  13.517
15425W        W87685  16.105  17.611  13.833
15426W        W87686   1.360   1.469   2.252
15427W        W87687   7.387  35.515   2.220
15428W        W87688   1.378  12.824  13.452
15429W        W87689  30.638  33.989  10.406
15430W        W87690  10.850  13.134  10.900
15431W        W87691   1.833  20.535   0.827
15432W        W87692  13.684  29.623   2.381
15433W        W87693  10.332   3.843   0.855
15434W        W87694  39.448  14.152  13.984
15435W        W87695  33.970  41.442   3.331
15436W        W87696  31.443   5.759   3.249
15437W        W87697  28.167  36.536  13.998
15438W        W87698  29.466  29.584  14.468
15439W        W87699  22.100  35.599  11.071
15440W        W87700  26.132  17.136   1.710
15441W        W87701   2.877  10.308   0.260
15442W        W87702  22.609  38.448  14.415
15443W        W87703   2.788  23.586   2.268
15444W        W87704   8.359   8.300  10.641
15445W        W87705   2.384  18.720  14.960
15446W        W87706  22.531  20.714   3.702
15447W        W87707  10.673  32.620  13.992
15448W        W87708   0.433  11.181  11.595
15449W        W87709  24.673  36.934  14.826
15450W        W87710  21.227  21.673   0.388
15451W        W87711   0.404  20.154   2.232
15452W        W87712  18.077  24.623  10.516
15453W        W87713  42.956  35.594   4.138
15454W        W87714  30.651  32.019  13.842
15455W        W87715   4.294  41.877  14.828
15456W        W87716   4.350  30.655  11.085
15457W        W87717  23.708   9.294   2.211
15458W        W87718  27.122  32.054  11.942
15459W        W87719  33.462  25.157   9.986
15460W        W87720   8.879  44.888  10.545
15461W        W87721  26.990   4.265  11.469
15462W        W87722  25.552  25.034  14.984
15463W        W87723   4.708  38.041  14.352
15464W        W87724  32.088  43.506   0.245
15465W        W87725  34.377  18.166   1.248
15466W        W87726  13.174  33.955  11.495
15467W        W87727  36.562  35.526  13.862
15468W        W87728  35.098  18.584   1.859
15469W        W87729   2.227  12.148   2.815
15470W        W87730   3.338   8.236  11.862
15471W        W87731  10.337   4.720   4.194
15472W        W87732  28.958  33.089  12.998
15473W        W87733  33.452  34.053   4.685
15474W        W87734  34.394   5.205  14.006
15475W        W87735  16.762  17.284   1.277
15476W        W87736  44.378   9.795  10.944
15477W        W87737  20.177  33.919   1.759
15478W        W87738  31.595  27.038  11.002
15479W        W87739  32.049  23.152   1.785
15480W        W87740   3.385  15.606  14.274
15481W        W87741  28.446   2.241   3.722
15482W        W87742  32.096  36.513   2.270
15483W        W87743  22.636   9.824   3.810
15484W        W87744   9.793  18.091   2.711
15485W        W87745  32.905   4.743  13.477
15486W        W87746  20.073  33.622   0.380
15487W        W87747  35.916   3.753  13.834
15488W        W87748  30.449  37.335  14.327
15489W        W87749  39.460  20.557   4.769
15490W        W87750  26.686   1.759   0.352
15491W        W87751  17.749  37.350   0.278
15492W        W87752  37.570  10.778  14.403
15493W        W87753  43.956  36.087   4.636
15494W        W87754  30.930  22.677   1.429
15495W        W87755   3.405  35.018  12.564
15496W        W87756  41.981  32.408  13.516
15497W        W87757  22.197  34.439   1.764
15498W        W87758  15.232  33.513   1.221
15499W        W87759   9.812  32.049   3.673
15500W        W87760  17.189   3.759   2.355
15501W        W87761  10.208  34.411  13.871
15502W        W87762   2.271   7.275   0.877
15503W        W87763  27.575  24.163   3.276
15504W        W87764  10.640  44.393   3.282
15505W        W87765  43.860  35.384   4.113
15506W        W87766   8.842  27.112   4.607
15507W        W87767  29.088   6.876  13.801
15508W        W87768  19.574  31.990  11.895
15509W        W87769  18.240  33.381   3.213
15510W        W87770  39.016   5.857   3.259
15511W        W87771  37.074   9.815  14.005
15512W        W87772  19.049  41.895   3.696
15513W        W87773   7.668   7.192  13.804
15514W        W87774  15.305  15.311  10.570
15515W        W87775  42.336  20.710  14.031
15516W        W87776  35.396  15.123  10.955
15517W        W87777   2.924  15.817   0.297
15518W        W87778  31.440  24.599  13.957
15519W        W87779  43.429  34.438  13.358
15520W        W87780  39.823  44.859  11.928
15521W        W87781  39.557  15.117  10.630
15522W        W87782  14.214   9.345  11.486
15523W        W87783  27.145  29.608   4.752
15524W        W87784  14.276  14.139   3.332
15525W        W87785  42.928  16.121  12.517
15526W        W87786  29.977  40.045   0.786
15527W        W87787  24.485  42.463  13.004
15528W        W87788  12.229  41.942   4.236
15529W        W87789   6.838  29.012  12.824
15530W        W87790  40.356  14.703   3.232
15531W        W87791  23.699   8.238  14.424
15532W        W87792  28.490  14.745   1.812
15533W        W87793  11.148  36.441   4.159
15534W        W87794  29.584  30.477   0.806
15535W        W87795   6.881  18.123  11.512
15536W        W87796  22.086  33.112  14.991
15537W        W87797  39.381  37.558  11.454
15538W        W87798  19.218  28.488   2.287
15539W        W87799   6.286  20.561  14.923
15540W        W87800  33.506   2.430   0.815
15541W        W87801  18.290   9.304  10.954
15542W        W87802  31.424  29.629  10.538
15543W        W87803   2.447  22.106   3.842
15544W        W87804  27.459  18.613  10.493
15545W        W87805  36.478   4.928   4.786
15546W        W87806  20.170   6.775  14.331
15547W        W87807   7.185  18.254   3.193
15548W        W87808   4.818  11.808  13.060
15549W        W87809  24.588  23.182   3.777
15550W        W87810  23.736   4.799  11.432
15551W        W87811  14.301   0.346   2.259
15552W        W87812   4.816  15.764  10.565
15553W        W87813  43.018   2.959  13.796
15554W        W87814  31.997  43.368   4.248
15555W        W87815  28.081  18.770   2.700
15556W        W87816  33.525  18.144   3.217
15557W        W87817  24.105  40.846  13.055
15558W        W87818   9.326  42.494  13.307
15559W        W87819  25.691  28.172  10.082
15560W        W87820  10.806  35.448  11.885
15561W        W87821  19.071  34.987  12.087
15562W        W87822  29.004  12.249  12.356
15563W        W87823  10.807   2.895   2.764
15564W        W87824  43.416  40.820   0.901
15565W        W87825  33.620  17.666  12.877
15566W        W87826  10.738   3.923   2.769
15567W        W87827  35.402  12.244   0.466
15568W        W87828  31.934  35.877   4.342
15569W        W87829  38.366   7.839   4.833
15570W        W87830  18.642  16.229  13.480
15571W        W87831  38.358  15.718   0.844
15572W        W87832   1.949  42.971   4.697
15573W        W87833  43.961  29.610   2.265
15574W        W87834   7.185  27.035   2.387
15575W        W87835  28.113  28.066   5.186
15576W        W87836   0.306  22.203  11.965
15577W        W87837  14.335   0.371   4.184
15578W        W87838   3.801  15.257  13.516
15579W        W87839  15.156   9.736  12.475
15580W        W87840  15.588   9.840  11.010
15581W        W87841  38.479  27.179   2.840
15582W        W87842  37.488  15.139  13.044
15583W        W87843  43.395   5.728  10.932
15584W        W87844  41.508   8.702  12.454
15585W        W87845   5.698  14.663   1.788
15586W        W87846   5.847  29.518  14.281
15587W        W87847   3.404  17.270   3.832
15588W        W87848  31.612  38.338  13.429
15589W        W87849  28.129  39.824  10.551
15590W        W87850  27.178   3.902   4.650
15591W        W87851  12.192   7.828  11.932
15592W        W87852  14.680  35.465   3.775
15593W        W87853  15.263  19.588   3.222
15594W        W87854  26.050   2.323   3.821
15595W        W87855  26.086   9.332  10.979
15596W        W87856  40.818  41.805   3.340
15597W        W87857   1.455  15.265   1.849
15598W        W87858  36.938   3.717   1.746
15599W        W87859   8.232  35.545   1.703
15600W        W87860  33.049  42.921   0.754
15601W        W87861  43.326   4.382   3.831
15602W        W87862  26.138  28.504   3.332
15603W        W87863  12.325   8.161  12.469
15604W        W87864   7.412  39.917  14.367
15605W        W87865  16.780  19.552  10.518
15606W        W87866  42.295  40.361  14.004
15607W        W87867  30.608  23.109   1.427
15608W        W87868  36.515  34.582  11.524
15609W        W87869  13.662  31.913   3.747
15610W        W87870  34.492  38.951   2.888
15611W        W87871  41.404  34.042   3.225
15612W        W87872  20.662  33.978   4.178
15613W        W87873  18.711  20.747  12.384
15614W        W87874  13.696  12.654   0.337
15615W        W87875  16.286  15.722  11.611
15616W        W87876  26.616  30.430   1.298
15617W        W87877  21.149  41.342   1.851
15618W        W87878  32.920  17.736  11.558
15619W        W87879   2.271  41.360   4.723
15620W        W87880   9.866  41.803   0.902
15621W        W87881  12.709   6.739   2.688
15622W        W87882  39.407  43.852   1.382
15623W        W87883  10.850  42.328  14.385
15624W        W87884  25.537   6.733   2.712
15625W        W87885  42.285  37.369   1.253
15626W        W87886  17.194  41.970   2.855
15627W        W87887  11.293  11.829   4.684
15628W        W87888  13.189  28.986  11.980
15629W        W87889   9.249  24.513   1.764
15630W        W87890  20.212  16.148  10.433
15631W        W87891  43.820  10.212  11.887
15632W        W87892  20.046  30.085   2.283
15633W        W87893  26.047  37.549  14.980
15634W        W87894  12.686   6.799  14.334
15635W        W87895  44.837  12.790  14.303
15636W        W87896  21.059   1.469  14.900
15637W        W87897  37.011  27.166   2.369
15638W        W87898  15.165  36.392  12.996
15639W        W87899  18.089   7.681   5.275
15640W        W87900  44.458   8.790  10.064
15641W        W87901  34.101  10.374  13.428
15642W        W87902  25.980  35.886   0.767
15643W        W87903   2.781  21.231  14.296
15644W        W87904   3.427  29.949  10.545
15645W        W87905  29.123  32.413   4.276
15646W        W87906  19.755  33.921   3.238
15647W        W87907  12.212  18.077  10.521
15648W        W87908  25.138  24.714   3.370
15649W        W87909  39.353  18.206  13.959
15650W        W87910  16.761  33.469  11.416
15651W        W87911  29.634  20.544   2.838
15652W        W87912  21.246  36.037  12.839
15653W        W87913   1.733   7.346   2.755
15654W        W87914  21.726   7.871  14.945
15655W        W87915   0.970   9.804  14.284
15656W        W87916  42.341  35.051  14.478
15657W        W87917  21.571   2.403  14.426
15658W        W87918  27.534  27.570  10.999
15659W        W87919  28.495   9.186   4.179
15660W        W87920  40.912  28.453   1.740
15661W        W87921  21.626  19.280   1.731
15662W        W87922  37.987  29.520   3.225
15663W        W87923   4.433  12.153   2.367
15664W        W87924  22.609  21.146  12.002
15665W        W87925   9.176  36.481  11.874
15666W        W87926  17.670  21.093   1.437
15667W        W87927   0.493  11.705   3.203
15668W        W87928  33.521   9.369  13.822
15669W        W87929  41.405   7.850  10.537
15670W        W87930   6.724  21.177  13.333
15671W        W87931  22.509  24.544  11.568
15672W        W87932   1.480   6.229   3.854
15673W        W87933  39.909  35.996   4.195
15674W        W87934   2.276  12.319  11.610
15675W        W87935  40.015  25.706  11.997
15676W        W87936  37.427  22.101  12.429
15677W        W87937  28.957  27.672   4.336
15678W        W87938   8.778  41.816  14.483
15679W        W87939   6.261  28.529   0.346
15680W        W87940  31.501   2.227  13.952
15681W        W87941   1.908   0.289  12.418
15682W        W87942  19.746  36.539  11.519
15683W        W87943  13.237  18.621  14.289
15684W        W87944  11.131  29.947   0.735
15685W        W87945  13.247  16.574   0.461
15686W        W87946  10.794  13.266  13.377
15687W        W87947   8.308  28.549  11.597
15688W        W87948  44.488  31.095   3.313
15689W        W87949  23.107  14.097  11.599
15690W        W87950  22.159  41.472  11.880
15691W        W87951  28.030  37.488   4.289
15692W        W87952  31.921  22.569   1.715
15693W        W87953  13.179   6.397   3.263
15694W        W87954  27.583  39.463   1.424
15695W        W87955   9.750   9.362   0.393
15696W        W87956  24.057   8.255  14.027
15697W        W87957  44.480   5.916  12.943
15698W        W87958   4.431  43.846   3.304
15699W        W87959  33.584  11.193  13.903
15700W        W87960  37.479   0.939   1.313
15701W        W87961  35.863  40.038   4.202
15702W        W87962  40.853  24.540  14.497
15703W        W87963  12.285  44.421  12.413
15704W        W87964  36.942  22.048  11.466
15705W        W87965  44.862  44.315   9.932
15706W        W87966   9.341  42.883  11.545
15707W        W87967  42.406  23.672   0.480
15708W        W87968  27.129  27.956  14.456
15709W        W87969  36.044  39.007  13.500
15710W        W87970  40.814  19.779   2.839
15711W        W87971   3.456   5.328  11.567
15712W        W87972  30.100  15.718  13.319
15713W        W87973  11.186  15.744  10.898
15714W        W87974  27.183  24.691  10.989
15715W        W87975  29.635  35.990   0.456
15716W        W87976   2.264  28.013   3.216
15717W        W87977  14.312  20.689   1.418
15718W        W87978  44.845   3.300   3.630
15719W        W87979  31.946   6.694  13.490
15720W        W87980   4.267  35.971  14.350
15721W        W87981   7.869  18.272  10.145
15722W        W87982  32.498  36.926   2.888
15723W        W87983  32.125  39.404   1.758
15724W        W87984   8.778   6.399  14.919
15725W        W87985   5.817  12.234   2.304
15726W        W87986  22.086  24.687   2.273
15727W        W87987  29.496  27.685   0.284
15728W        W87988  42.969  20.532   0.332
15729W        W87989  24.137  23.573   2.179
15730W        W87990  35.451  43.006   0.872
15731W        W87991  18.774  12.843   0.374
15732W        W87992  20.733  26.014   3.724
15733W        W87993  30.589   1.883   0.892
15734W        W87994  28.965  14.213  14.336
15735W        W87995  13.745  30.539   3.745
15736W        W87996  17.283  43.959  13.427
15737W        W87997   2.871  22.144  10.923
15738W        W87998  42.459  36.901   1.852
15739W        W87999  39.490   0.468  14.310
15740W        W88000  10.696  10.208  10.103
15741W        W88001  44.259   5.801   1.449
15742W        W88002  23.635  32.617  13.526
15743W        W88003   4.775  21.199  12.823
15744W        W88004  39.412  32.946   0.281
15745W        W88005   0.293   2.832  14.874
15746W        W88006   9.836   8.402  13.029
15747W        W88007   6.893  40.478  11.466
15748W        W88008  18.146   1.972  11.444
15749W        W88009   1.362   5.907   1.852
15750W        W88010  25.666  12.826   1.747
15751W        W88011  12.337  20.542  12.050
15752W        W88012  16.710  44.413  13.542
15753W        W88013  21.562  38.940   0.459
15754W        W88014  24.574  35.370   1.223
15755W        W88015  37.959  20.209   2.703
15756W        W88016   7.740   1.829  11.124
15757W        W88017  32.894  38.997   2.343
15758W        W88018  32.477   2.349   4.167
15759W        W88019  11.844  13.716   1.429
15760W        W88020  35.054  44.464   0.262
15761W        W88021  26.505  34.929   0.877
15762W        W88022  44.346   3.918  10.160
15763W        W88023  39.464  27.128  11.487
15764W        W88024  36.462  26.585   4.679
15765W        W88025  30.993  23.732   4.814
15766W        W88026  43.986  44.787   1.432
15767W        W88027  42.511  43.972   3.848
15768W        W88028  16.728  35.879   2.392
15769W        W88029  38.536  25.012   1.865
15770W        W88030  30.038   8.354   1.257
15771W        W88031  39.880  19.761  14.960
15772W        W88032  29.038  32.444  13.847
15773W        W88033  44.460  14.811   1.324
15774W        W88034  41.345  16.587   1.449
15775W        W88035  28.458  28.103  12.481
15776W        W88036  27.974   9.344  10.427
15777W        W88037   1.948  24.698   1.317
15778W        W88038   1.856  26.488   2.838
15779W        W88039  26.636  20.122   5.189
15780W        W88040  17.653  23.678   3.801
15781W        W88041  19.080  29.617  14.300
15782W        W88042  27.583  36.921   0.822
15783W        W88043  42.897  41.321  13.856
15784W        W88044  10.293  11.795   4.778
15785W        W88045  19.264  22.504  10.924
15786W        W88046  24.991  42.818  11.519
15787W        W88047  34.994   0.762   3.307
15788W        W88048  28.114  41.843   4.154
15789W        W88049   5.884   5.438  10.484
15790W        W88050  40.856  13.108  10.510
15791W        W88051  32.033  35.869   4.656
15792W        W88052   2.824  38.898   1.220
15793W        W88053  34.475  44.416  12.562
15794W        W88054  38.547  16.773  12.936
15795W        W88055  24.510  27.117   0.776
15796W        W88056  41.333  16.090  13.031
15797W        W88057  30.945  10.285   3.230
15798W        W88058  17.203  12.256   3.760
15799W        W88059  18.177  39.521  11.376
15800W        W88060  28.486  37.410   2.204
15801W        W88061   3.953  17.224  14.892
15802W        W88062   2.756  15.270  14.293
15803W        W88063  37.892   6.868   0.412
15804W        W88064   6.852  11.234  11.043
15805W        W88065  25.660  43.989   4.724
15806W        W88066  20.574   0.826   0.892
15807W        W88067  43.294  17.224  13.833
15808W        W88068  30.095  23.652   2.291
15809W        W88069  20.121  19.235   5.309
15810W        W88070  27.991  27.948   0.773
15811W        W88071  19.105  10.860  10.601
15812W        W88072  25.546  24.089  13.020
15813W        W88073  26.202  13.813   3.782
15814W        W88074  22.516  10.222   2.290
15815W        W88075  40.344  21.058   3.281
15816W        W88076  32.938   4.387  12.556
15817W        W88077  19.745  19.707   4.620
15818W        W88078   0.963  29.039  13.859
15819W        W88079  28.583  42.986  13.003
15820W        W88080   4.345  22.542  11.955
15821W        W88081  26.973  13.205   3.331
15822W        W88082   9.250  20.538   3.272
15823W        W88083  34.953  14.641  14.456
15824W        W88084  26.574  42.778   4.154
15825W        W88085   9.754  29.151  10.430
15826W        W88086   0.950  30.986  11.524
15827W        W88087  10.355  35.076  13.928
15828W        W88088  44.269  10.810   1.814
15829W        W88089  27.195  17.121  10.988
15830W        W88090  40.508  39.477   1.759
15831W        W88091   7.877  21.627  14.011
15832W        W88092  42.489  34.054  14.370
15833W        W88093   4.348  23.048   4.121
15834W        W88094  10.853  14.602   4.802
15835W        W88095  26.007  35.022   2.725
15836W        W88096  11.841  17.576   4.809
15837W        W88097  28.595  17.094  12.878
15838W        W88098  12.787   2.939  14.375
15839W        W88099  35.549  22.683  12.834
15840W        W88100  30.078  34.395  10.571
15841W        W88101  42.317  30.558  10.891
15842W        W88102  25.211  39.886  13.882
15843W        W88103  22.630   8.233  14.023
15844W        W88104  10.245  34.574   4.297
15845W        W88105  32.401  11.161   2.671
15846W        W88106   3.853  15.136  14.875
15847W        W88107  32.547  14.755  12.503
15848W        W88108   6.784   1.380  11.526
15849W        W88109  38.006  14.655  13.462
15850W        W88110  35.591  44.982  11.926
15851W        W88111  20.756  37.557  12.966
15852W        W88112  31.438  31.968   0.824
15853W        W88113  13.332   3.863  14.014
15854W        W88114  23.234  40.987   3.183
15855W        W88115   7.299   1.335   3.228
15856W        W88116  27.668  18.195   4.665
15857W        W88117  25.006  23.502   4.653
15858W        W88118  26.177  13.294  13.026
15859W        W88119  11.188  28.000   1.821
15860W        W88120  10.166   7.322   2.347
15861W        W88121  28.124  11.627  14.461
15862W        W88122  37.909  20.566   3.267
15863W        W88123   4.768  18.703   1.893
15864W        W88124   6.381  38.021   1.315
15865W        W88125  20.050  20.045   5.637
15866W        W88126  28.598  28.640   1.296
15867W        W88127   5.900   6.683  13.351
15868W        W88128   7.791  11.751  14.304
15869W        W88129  12.151  19.751  14.009
15870W        W88130  26.579  30.620   3.180
15871W        W88131  21.737  41.399  11.884
15872W        W88132  32.004  39.496  12.512
15873W        W88133  29.010  27.485   0.951
15874W        W88134  32.531  29.595   4.158
15875W        W88135  27.557  20.196  14.500
15876W        W88136  33.441  18.270   1.309
15877W        W88137  30.000   5.905   0.424
15878W        W88138  29.569  21.669   0.810
15879W        W88139  42.482  27.609   1.814
15880W        W88140  43.806  31.120  13.398
15881W        W88141  38.885  29.500   0.341
15882W        W88142  29.584  31.930   1.210
15883W        W88143  43.940  15.125   0.378
15884W        W88144  23.703  22.710   3.683
15885W        W88145  36.846  12.119  10.997
15886W        W88146  41.948  10.300   3.229
15887W        W88147  42.871  13.128  12.063
15888W        W88148  20.715  34.107   4.598
15889W        W88149   8.247   0.248  13.440
15890W        W88150  35.923  19.696   5.093
15891W        W88151  15.149  29.923  14.423
15892W        W88152   5.709   7.873   0.886
15893W        W88153   1.943   7.702   0.904
15894W        W88154   6.361   6.254  12.421
15895W        W88155  34.979  10.340  14.957
15896W        W88156  26.034  23.581   0.305
15897W        W88157  41.410   3.306   4.663
15898W        W88158  13.121  42.437  10.933
15899W        W88159   8.786  12.777  11.021
15900W        W88160  20.128   6.248   0.481
15901W        W88161   8.250  33.991   3.809
15902W        W88162  35.047  34.518   1.306
15903W        W88163  15.114  11.758  14.345
15904W        W88164  12.730  29.609  13.964
15905W        W88165   9.321  17.753  10.624
15906W        W88166   8.737  40.929  10.455
15907W        W88167  20.163   8.891  12.911
15908W        W88168  19.148  28.600   4.297
15909W        W88169  40.383   0.770  13.857
15910W        W88170  13.607  21.596  11.599
15911W        W88171  24.175   2.380  12.086
15912W        W88172  25.035   9.369   4.335
15913W        W88173  36.372  11.660  13.437
15914W        W88174  22.558  37.860   3.688
15915W        W88175  29.049  39.355  11.933
15916W        W88176  37.878  15.587   1.791
15917W        W88177  21.156   4.754  11.913
15918W        W88178   7.746   3.418   4.724
15919W        W88179  43.510   8.349   0.818
15920W        W88180   0.483  31.648  10.914
15921W        W88181  11.853  24.540   1.901
15922W        W88182  33.025  39.350   2.811
15923W        W88183  21.034  30.008  12.370
15924W        W88184  26.160   3.737  12.546
15925W        W88185   8.185  40.495  10.411
15926W        W88186  33.392  13.269  14.464
15927W        W88187   2.267   4.798  11.108
15928W        W88188  20.661  17.595  13.911
15929W        W88189  35.893   9.843   3.275
15930W        W88190   2.768   2.889   1.736
15931W        W88191  22.149  33.502  13.308
15932W        W88192  12.636  25.150   3.789
15933W        W88193  36.042   0.875  11.088
15934W        W88194  39.349  20.716  13.472
15935W        W88195   7.686  13.843  11.563
15936W        W88196   3.848  38.830  13.009
15937W        W88197  43.986  36.876   4.628
15938W        W88198  20.263  34.604   4.632
15939W        W88199   0.451  31.996  14.003
15940W        W88200  27.061   5.693   2.680
15941W        W88201  12.315  33.618   1.821
15942W        W88202  37.004  30.622   3.642
15943W        W88203  27.524  33.961  10.929
15944W        W88204   0.394  33.079  14.419
15945W        W88205  42.280  33.126   2.774
15946W        W88206  12.646  41.842   1.707
15947W        W88207   4.328   9.667  11.446
15948W        W88208  33.390   5.762  12.404
15949W        W88209  44.825  21.022  12.554
15950W        W88210  13.777  10.745  13.797
15951W        W88211  38.344  23.708  11.000
15952W        W88212   2.730   9.253  10.618
15953W        W88213  37.574  10.296  13.932
15954W        W88214  24.039  29.612   2.700
15955W        W88215  17.793   3.302  14.361
15956W        W88216  33.477  25.500   1.799
15957W        W88217   5.912  33.080   1.445
15958W        W88218  19.222  44.879  10.501
15959W        W88219  11.739  24.582   2.307
15960W        W88220  14.708  16.137  14.028
15961W        W88221  11.220   9.869   0.348
15962W        W88222  30.984  28.100   4.627
15963W        W88223  26.111  37.362   2.323
15964W        W88224  36.403  24.510  11.448
15965W        W88225  33.108  28.154  11.465
15966W        W88226  43.893  31.575  10.921
15967W        W88227  21.166  31.995  14.456
15968W        W88228  19.561  32.476  14.867
15969W        W88229  29.973  12.234   4.193
15970W        W88230  35.531  31.465  12.434
15971W        W88231  10.790  25.709   3.213
15972W        W88232  15.241  33.624  11.940
15973W        W88233   6.767   1.237   0.266
15974W        W88234  42.972  13.124   0.848
15975W        W88235  13.146  44.430  13.002
15976W        W88236  42.790  27.627  11.527
15977W        W88237  40.824   9.211   0.739
15978W        W88238  44.418  25.503  14.019
15979W        W88239  37.497   1.930   0.947
15980W        W88240  34.087  28.521   4.202
15981W        W88241  17.192   0.272  12.426
15982W        W88242   3.751  36.523   3.180
15983W        W88243   5.739  41.350   2.689
15984W        W88244   7.753  35.492   1.402
15985W        W88245  36.845  44.443   2.675
15986W        W88246  13.163   8.762  12.349
15987W        W88247  13.752   8.858   2.266
15988W        W88248  21.573  26.537   0.798
15989W        W88249  15.190  14.684  11.064
15990W        W88250  34.944  15.701  13.534
15991W        W88251   6.203  24.122  14.448
15992W        W88252  25.193   9.836   0.783
15993W        W88253  11.131  43.504   0.834
15994W        W88254  11.295  24.643  12.510
15995W        W88255  41.496   0.337   1.724
15996W        W88256  29.126  40.536  11.538
15997W        W88257  41.417  17.295  12.041
15998W        W88258  22.115   6.821   0.429
15999W        W88259  23.614  13.123   4.344
16000W        W88260  24.551  16.609  13.055
16001W        W88261   1.335  44.441  14.410
16002W        W88262  42.349  16.281   0.278
16003W        W88263   9.814  18.232  10.585
16004W        W88264   8.660  11.154  11.598
16005W        W88265  12.131  36.891   4.713
16006W        W88266  19.639  29.525  12.424
16007W        W88267   7.864   1.976   3.787
16008W        W88268   3.726  14.628   3.852
16009W        W88269   2.759  11.215   0.243
16010W        W88270  34.909  35.469  14.493
16011W        W88271   2.373  25.072  12.031
16012W        W88272  24.150  24.659  11.478
16013W        W88273  34.868  32.482   2.711
16014W        W88274  10.839  12.742   2.833
16015W        W88275  43.784  21.181   4.271
16016W        W88276  23.548  20.146  10.950
16017W        W88277  16.233  24.149  11.931
16018W        W88278   3.460   6.779   4.243
16019W        W88279  43.933  26.209   3.679
16020W        W88280  12.760  39.051  11.536
16021W        W88281  18.609  41.505  11.047
16022W        W88282   4.297   2.386   0.288
16023W        W88283   7.236   2.804   0.427
16024W        W88284  35.402   1.920  13.454
16025W        W88285  35.472  36.900   0.836
16026W        W88286  30.476  19.242  11.872
16027W        W88287  26.656  20.088  14.007
16028W        W88288   5.195   9.222  13.329
16029W        W88289   8.339  26.612   4.216
16030W        W88290  26.695  28.009   2.304
16031W        W88291  21.226  41.936  14.923
16032W        W88292   7.810  35.529  11.064
16033W        W88293  27.990  32.491  10.918
16034W        W88294  27.132  22.006  13.848
16035W        W88295  42.364  44.778  12.370
16036W        W88296  10.181  44.305   5.166
16037W        W88297  16.138  18.113  12.461
16038W        W88298   9.315  17.665  11.536
16039W        W88299  10.724  43.967  13.405
16040W        W88300  28.944  30.161   3.672
16041W        W88301  40.355   1.462   4.350
16042W        W88302  33.521  38.432  14.841
16043W        W88303   9.255  23.197   2.367
16044W        W88304   1.951  33.438  12.377
16045W        W88305  10.240   6.798   1.761
16046W        W88306  21.107  15.149   3.285
16047W        W88307  40.816  14.144  11.929
16048W        W88308  35.031  33.878  13.823
16049W        W88309   9.795  36.928  12.405
16050W        W88310   4.321  11.752   0.461
16051W        W88311  12.142  41.419  11.941
16052W        W88312  29.936  33.112  11.056
16053W        W88313  11.635   7.749   0.762
16054W        W88314   9.195  30.591   2.847
16055W        W88315  44.467  30.414  14.927
16056W        W88316  26.190  29.131  11.950
16057W        W88317  35.394  32.996  13.382
16058W        W88318  21.580  19.542   0.423
16059W        W88319  20.058  20.707   1.432
16060W        W88320  34.921  38.973   4.173
16061W        W88321  17.255  32.112  10.940
16062W        W88322  29.070   9.218   0.822
16063W        W88323   1.323  36.993  14.408
16064W        W88324  22.250  24.130   4.153
16065W        W88325  10.768  12.704   3.770
16066W        W88326   9.243  31.464  12.035
16067W        W88327  34.436   8.725  11.017
16068W        W88328  35.428   3.881   4.794
16069W        W88329  28.449  36.569   3.185
16070W        W88330  28.076  13.686  12.372
16071W        W88331  15.649  16.133  11.531
16072W        W88332  32.408   8.230   2.695
16073W        W88333  34.379  15.128  10.530
16074W        W88334  16.660  34.476  14.407
16075W        W88335  16.123  34.000   4.783
16076W        W88336  31.979  10.223  12.991
16077W        W88337   6.242  20.231   3.198
16078W        W88338  29.988  44.891  11.918
16079W        W88339  29.468  34.911   0.459
16080W        W88340  21.035  27.083   2.777
16081W        W88341  17.259  34.410   0.445
16082W        W88342  12.301  40.972   1.917
16083W        W88343   9.882  13.291  14.796
16084W        W88344   1.974  15.740  12.888
16085W        W88345  24.694  28.002  10.435
16086W        W88346  13.609  31.996   4.699
16087W        W88347  28.458  37.077   4.688
16088W        W88348  26.687  28.175   4.199
16089W        W88349  25.684  24.620   3.704
16090W        W88350  38.548  31.428  10.553
16091W        W88351  23.563  20.672   1.853
16092W        W88352   6.254  25.046   3.776
16093W        W88353  21.049  10.283   0.391
16094W        W88354  32.538  12.129  12.468
16095W        W88355  17.772   4.429   2.280
16096W        W88356   5.430  35.379  14.909
16097W        W88357  16.124   4.339   0.299
16098W        W88358  36.577  29.530   2.724
16099W        W88359  10.701  39.005  13.933
16100W        W88360  27.624  44.818   0.271
16101W        W88361   6.907  32.018  11.054
16102W        W88362  21.192  12.749   1.721
16103W        W88363   4.376   1.423   1.793
16104W        W88364  25.133  43.841  13.870
16105W        W88365  39.342  14.796   2.667
16106W        W88366   3.721  37.581   3.759
16107W        W88367  15.617  41.881  10.965
16108W        W88368  21.243   1.743   0.322
16109W        W88369  23.223  11.852  13.504
16110W        W88370   9.200  15.596  14.768
16111W        W88371  14.270  37.989  12.947
16112W        W88372   4.819  38.000   2.253
16113W        W88373   7.173  41.823  11.942
16114W        W88374  27.631  14.262   3.799
16115W        W88375  23.178  35.521   0.754
16116W        W88376  18.080  27.092   1.710
16117W        W88377  25.499  18.646  12.992
16118W        W88378   9.867  30.069  12.961
16119W        W88379  28.024  38.847  13.816
16120W        W88380  15.607  10.185  13.529
16121W        W88381  21.142  43.961  13.895
16122W        W88382   1.779   5.329  12.493
16123W        W88383  30.586  29.516  11.031
16124W        W88384  38.539  22.230  13.429
16125W        W88385  43.990  35.924   2.779
16126W        W88386  11.354  33.056   1.703
16127W        W88387   4.418  23.576   0.312
16128W        W88388   9.810  34.442  10.466
16129W        W88389  43.788  11.175  13.907
16130W        W88390  10.319  13.201   0.889
16131W        W88391   4.249  23.176  11.080
16132W        W88392  35.943  28.532  12.857
16133W        W88393  10.171   0.825  10.572
16134W        W88394  29.090  30.651  12.873
16135W        W88395  19.604  16.148   3.737
16136W        W88396   3.756  16.214   1.383
16137W        W88397  26.180  43.374  12.844
16138W        W88398  27.195  27.112   2.702
16139W        W88399  42.396  11.171   3.177
16140W        W88400  42.331  35.881   1.712
16141W        W88401  37.056   8.849  13.329
16142W        W88402   7.873  36.056  14.949
16143W        W88403  39.024  36.370   0.362
16144W        W88404  34.984  32.920   1.797
16145W        W88405   9.730   3.859  13.398
16146W        W88406  43.454   5.811  10.595
16147W        W88407  42.395   2.382  11.967
16148W        W88408  17.665  25.698   3.833
16149W        W88409  35.876  31.422  12.418
16150W        W88410  39.468  24.058   3.187
16151W        W88411  42.981   0.927  13.332
16152W        W88412   0.814  16.247   3.672
16153W        W88413   5.201  24.658   0.826
16154W        W88414  43.516  42.320   0.460
16155W        W88415  30.569   3.439  13.042
16156W        W88416   8.386  27.509   9.645
16157W        W88417  15.257  19.634   2.813
16158W        W88418  31.536  25.219   3.689
16159W        W88419  34.006  19.096   3.297
16160W        W88420   5.348   0.339   2.750
16161W        W88421   7.764  17.240   1.920
16162W        W88422  39.859   7.905   1.237
16163W        W88423   5.273  34.930  14.878
16164W        W88424  38.471  25.603  13.407
16165W        W88425  31.040  24.507   2.692
16166W        W88426   2.233  44.307   1.248
16167W        W88427  12.302   3.415  14.480
16168W        W88428  10.695  36.953   4.781
16169W        W88429  14.112  18.202  14.971
16170W        W88430  28.613   6.346   3.245
16171W        W88431  35.910  12.841   0.844
16172W        W88432  43.365  18.664  13.519
16173W        W88433   5.933  13.218   2.308
16174W        W88434   1.355  38.536   1.367
16175W        W88435  14.285  35.864  13.519
16176W        W88436   9.814  12.238  12.364
16177W        W88437  18.081  28.564   2.727
16178W        W88438  15.787  28.162  14.787
16179W        W88439   9.732  10.793   4.205
16180W        W88440  16.184  21.571  14.280
16181W        W88441  25.622   6.854   4.124
16182W        W88442  24.006  35.864  11.390
16183W        W88443   4.257  27.571   0.765
16184W        W88444  16.153   3.424  12.490
16185W        W88445  17.080  15.600  12.887
16186W        W88446  20.102  30.081   0.737
16187W        W88447  30.158  35.499   2.699
16188W        W88448  28.472  34.554  12.001
16189W        W88449  43.999   2.860  11.378
16190W        W88450   3.427  40.361  13.063
16191W        W88451   9.645  38.913  11.402
16192W        W88452  15.648  16.728   2.356
16193W        W88453   0.884  15.746  11.406
16194W        W88454  35.922  13.606   0.856
16195W        W88455  28.070   0.895   1.345
16196W        W88456  26.059   2.265   0.350
16197W        W88457  21.065  26.541   5.617
16198W        W88458  38.027   7.280  11.033
16199W        W88459  23.679  29.951  13.857
16200W        W88460  37.436  16.120   0.861
16201W        W88461   0.932  14.138  10.893
16202W        W88462  12.281  12.787  10.474
16203W        W88463  15.223  17.236   3.650
16204W        W88464  44.317  19.635  11.963
16205W        W88465  29.449  28.161   4.224
16206W        W88466   7.705   1.902  12.080
16207W        W88467  20.729  13.121   4.181
16208W        W88468  11.261  25.149   4.828
16209W        W88469  22.066  36.948  13.349
16210W        W88470  40.963  33.529   2.242
16211W        W88471  12.265  12.130  14.771
16212W        W88472   4.302   6.679   0.428
16213W        W88473  26.611   1.906  11.855
16214W        W88474  31.464  24.503  12.376
16215W        W88475   6.414  33.993   2.700
16216W        W88476   8.667  16.306  14.415
16217W        W88477  15.607  16.798  11.949
16218W        W88478  19.638   3.848  13.041
16219W        W88479   5.415  29.170  13.813
16220W        W88480  42.413   6.788   1.378
16221W        W88481  15.734   2.353   0.769
16222W        W88482  24.028  20.691   1.748
16223W        W88483  44.005  27.066   4.328
16224W        W88484  28.027  27.102  11.535
16225W        W88485  25.184  41.525   4.822
16226W        W88486  38.869  33.444   2.339
16227W        W88487   2.269  26.556  13.414
16228W        W88488   0.898  27.088   1.855
16229W        W88489   2.846   0.954  12.359
16230W        W88490  24.641  16.216  11.455
16231W        W88491  41.933  43.289  13.945
16232W        W88492  44.468  24.150  13.376
16233W        W88493   2.795  31.069   4.723
16234W        W88494  29.112   0.446  14.906
16235W        W88495  35.470  41.413   3.289
16236W        W88496  18.694  35.394   0.922
16237W        W88497  18.179  26.031  10.409
16238W        W88498   1.808  40.513   4.774
16239W        W88499   5.295  40.929  13.411
16240W        W88500  15.324  20.628  13.406
16241W        W88501  41.499   6.276   0.390
16242W        W88502  35.539   4.815   1.447
16243W        W88503  10.875  12.800  13.315
16244W        W88504  39.034  39.556  14.835
16245W        W88505   3.304  23.646  13.479
16246W        W88506   3.868  25.971  12.086
16247W        W88507  18.222   0.931  10.410
16248W        W88508  28.472   8.178  11.575
16249W        W88509  29.649  32.993  12.513
16250W        W88510  11.304  33.088  11.899
16251W        W88511   2.415  44.947   4.126
16252W        W88512  27.532  20.538   4.253
16253W        W88513   2.913  42.521  10.634
16254W        W88514  43.932  10.351  10.892
16255W        W88515  24.524  16.790   2.213
16256W        W88516  37.895  13.679  12.567
16257W        W88517  34.018  16.197   2.194
16258W        W88518  25.652   5.891  11.906
16259W        W88519  12.774  30.007  14.793
16260W        W88520  15.082  25.567   2.799
16261W        W88521  34.394   9.338   2.726
16262W        W88522   2.931  16.644   0.339
16263W        W88523  18.642  36.991   1.717
16264W        W88524  13.234   6.816  10.973
16265W        W88525   8.355   6.397   1.754
16266W        W88526  36.380  11.314  14.382
16267W        W88527  19.097  20.207   1.213
16268W        W88528  20.039  23.187   3.830
16269W        W88529  41.931  30.553   2.873
16270W        W88530  10.288  20.693   3.718
16271W        W88531  20.253   4.448   4.798
16272W        W88532  30.420  12.616   3.724
16273W        W88533  41.466  36.961   3.182
16274W        W88534  34.417  14.155   2.711
16275W        W88535  40.529  16.652   1.837
16276W        W88536  18.247  27.467   1.895
16277W        W88537  15.106  10.362   1.367
16278W        W88538   8.195  34.972  11.476
16279W        W88539   4.748   1.788  10.457
16280W        W88540  34.987  17.801  10.515
16281W        W88541  12.819  13.839  12.405
16282W        W88542  16.770  10.152   0.773
16283W        W88543  16.307  17.249   5.269
16284W        W88544  41.483  15.155  14.432
16285W        W88545  11.353  23.081   3.651
16286W        W88546  18.689  28.145   5.215
16287W        W88547  44.264  27.160  12.924
16288W        W88548  16.151  39.339  12.453
16289W        W88549  27.576   1.736  11.967
16290W        W88550  11.758  20.182  11.118
16291W        W88551  11.158  16.304   1.829
16292W        W88552  29.665  27.493  11.537
16293W        W88553  23.599  11.798  14.918
16294W        W88554   2.393  19.278  11.964
16295W        W88555  27.544   1.409  13.035
16296W        W88556  27.127  15.231   2.886
16297W        W88557  43.771  32.919  12.426
16298W        W88558   9.862   8.776   3.733
16299W        W88559  42.307  32.002  14.889
16300W        W88560  18.603   5.796   9.983
16301W        W88561  30.921  40.017   1.250
16302W        W88562   3.872  18.707   0.339
16303W        W88563  39.396  18.264  14.506
16304W        W88564  18.084   8.274   5.173
16305W        W88565   3.308  21.659   4.807
16306W        W88566  13.347  31.492  13.902
16307W        W88567  36.361  13.238  14.835
16308W        W88568   2.315  31.591  13.012
16309W        W88569  22.631  11.690   1.211
16310W        W88570  27.133   5.755  11.607
16311W        W88571   9.372  14.594   2.697
16312W        W88572  40.807  38.833  13.939
16313W        W88573  21.113  37.027  13.950
16314W        W88574  35.494  33.474   2.848
16315W        W88575  21.735  23.194  13.022
16316W        W88576   8.256  14.248  14.290
16317W        W88577  28.461  43.830  13.854
16318W        W88578  34.985  35.543   1.814
16319W        W88579  28.661   1.421   0.333
16320W        W88580  38.935   0.971  10.569
16321W        W88581  38.960  20.632   4.801
16322W        W88582  41.933  13.326   1.861
16323W        W88583   8.745  44.799  13.907
16324W        W88584  19.650  22.208  11.918
16325W        W88585  32.468  16.566  12.467
16326W        W88586  21.674  15.086  14.845
16327W        W88587   3.309  23.549  12.052
16328W        W88588  35.602   3.892  12.403
16329W        W88589  33.033  13.721  11.411
16330W        W88590   5.396  43.851   0.881
16331W        W88591  22.141  27.577  14.292
16332W        W88592  11.229  44.387   2.672
16333W        W88593  11.370  14.142   2.215
16334W        W88594  35.858  10.164   4.337
16335W        W88595  25.493  15.289  11.887
16336W        W88596  10.869  17.276   2.804
16337W        W88597  11.797  41.503   1.402
16338W        W88598  21.107   3.279   1.838
16339W        W88599  22.669  38.908   1.831
16340W        W88600  27.512   5.832  12.939
16341W        W88601  34.462  17.234  13.814
16342W        W88602   6.815  28.047  12.973
16343W        W88603   4.720  28.980  10.467
16344W        W88604   8.256  23.221   3.711
16345W        W88605  15.296  33.982  12.573
16346W        W88606   5.705  39.347   4.170
16347W        W88607  39.948  18.703  14.024
16348W        W88608  32.395   6.319  11.503
16349W        W88609  39.019   1.869   4.173
16350W        W88610  27.003  26.076   4.705
16351W        W88611  10.658  37.014   2.185
16352W        W88612  43.961  36.435  11.433
16353W        W88613  42.965   9.782  11.993
16354W        W88614  13.721  19.617   4.768
16355W        W88615  11.793  16.076  14.910
16356W        W88616  16.749   8.721  13.335
16357W        W88617  28.137   4.870   1.698
16358W        W88618  36.504  26.699  11.598
16359W        W88619   6.364  12.331  10.956
16360W        W88620  29.066   0.413   2.237
16361W        W88621   6.341   7.340  11.864
16362W        W88622  11.806   5.323   1.919
16363W        W88623  26.564  32.934  13.434
16364W        W88624  26.656  12.816   4.723
16365W        W88625   4.830  17.673   2.738
16366W        W88626  43.399  42.857   2.266
16367W        W88627   4.256   2.468   3.225
16368W        W88628  31.462  22.687   3.734
16369W        W88629  26.093  12.149   1.365
16370W        W88630  35.563  28.018  12.837
16371W        W88631   2.324   8.183   2.405
16372W        W88632   8.886  27.112   4.255
16373W        W88633  25.634  43.002  11.009
16374W        W88634  38.912  42.318  11.398
16375W        W88635  35.463  33.559   3.213
16376W        W88636  20.685  17.299   2.329
16377W        W88637  16.805  25.621   3.207
16378W        W88638  39.879  40.493  11.997
16379W        W88639  40.814  28.129  12.901
16380W        W88640   2.346  35.514   1.705
16381W        W88641   0.351  39.835   2.868
16382W        W88642   8.322  10.189  13.524
16383W        W88643  27.477  37.398   4.115
16384W        W88644  43.997  28.505  12.353
16385W        W88645  44.958   8.876  10.580
16386W        W88646   9.291  41.995  13.344
16387W        W88647  36.955  24.646   2.718
16388W        W88648  43.495  29.976   4.167
16389W        W88649  11.163  36.355  13.433
16390W        W88650  37.517   1.774  14.304
16391W        W88651  24.700  14.687   1.726
16392W        W88652  44.500   2.751  12.422
16393W        W88653  31.062  10.361  13.334
16394W        W88654  26.025  32.401   1.751
16395W        W88655  31.595  39.892  12.973
16396W        W88656   7.725   5.398   2.348
16397W        W88657  22.654  21.530   3.264
16398W        W88658  42.028  28.477   2.404
16399W        W88659  35.515  30.587  14.291
16400W        W88660   4.746  34.992   5.158
16401W        W88661  15.614  42.514  10.511
16402W        W88662  29.448   5.723   2.309
16403W        W88663   0.758  26.546  12.373
16404W        W88664   5.245  24.020   3.712
16405W        W88665  34.961  23.182  13.316
16406W        W88666  13.737  30.611   3.371
16407W        W88667  14.301  35.964   4.150
16408W        W88668  21.685  13.238  11.063
16409W        W88669   8.750  35.484  14.402
16410W        W88670  42.463   2.231  10.428
16411W        W88671  27.451  19.076  14.503
16412W        W88672  29.536   3.840  13.024
16413W        W88673  19.055  21.529   4.701
16414W        W88674   5.785   7.874   1.744
16415W        W88675   8.274  20.676  10.542
16416W        W88676   3.826   9.663   0.867
16417W        W88677  20.148  26.979   4.223
16418W        W88678  13.619  33.594  13.447
16419W        W88679   7.387  38.830   1.262
16420W        W88680   9.827  33.466   0.355
16421W        W88681   4.241   0.453  14.443
16422W        W88682  10.779  39.967  11.503
16423W        W88683  33.498  10.800   1.725
16424W        W88684   2.360   3.917   4.341
16425W        W88685  44.332  18.667  12.998
16426W        W88686  22.738  19.538  12.564
16427W        W88687  24.497   6.728  11.925
16428W        W88688   7.828  39.354   1.235
16429W        W88689  43.887  38.399  13.478
16430W        W88690  32.445  28.112  12.475
16431W        W88691  36.911  23.571   4.208
16432W        W88692  43.998  21.087   0.767
16433W        W88693  39.042  31.023  12.354
16434W        W88694  39.541  29.010  14.829
16435W        W88695  14.214   7.258  12.888
16436W        W88696  38.055  42.820  13.919
16437W        W88697  35.905  25.559   4.733
16438W        W88698   4.387  42.031  10.993
16439W        W88699  10.858   2.951  12.432
16440W        W88700  34.452  38.354   1.377
16441W        W88701  22.077  15.198   1.321
16442W        W88702  21.746  39.814   4.756
16443W        W88703  11.670  25.543   0.856
16444W        W88704   7.843  22.669  12.826
16445W        W88705  26.037  40.336   0.268
16446W        W88706   6.412  22.212  11.935
16447W        W88707  31.420   3.338   4.308
16448W        W88708  22.635  41.476  10.895
16449W        W88709  44.814  21.684   4.692
16450W        W88710   1.262  28.475   1.728
16451W        W88711  13.192  13.277  10.642
16452W        W88712  14.824  37.922   3.339
16453W        W88713   7.373   9.855   0.443
16454W        W88714  30.415  26.968   3.813
16455W        W88715  15.305  40.452  14.896
16456W        W88716  38.049   2.367   1.778
16457W        W88717  33.440  10.344  12.469
16458W        W88718  31.926   3.876   4.260
16459W        W88719  32.397   7.278   0.750
16460W        W88720   6.908  22.189   3.331
16461W        W88721  42.428  16.252  11.435
16462W        W88722   8.268  44.874  10.493
16463W        W88723   4.405   8.283  14.837
16464W        W88724  39.869  43.769   0.359
16465W        W88725  12.807  33.431  14.418
16466W        W88726  29.596  43.940  12.824
16467W        W88727  15.245  16.081   2.411
16468W        W88728  17.649  32.445   1.426
16469W        W88729  18.060   3.383  10.562
16470W        W88730  15.174  33.121  12.892
16471W        W88731  16.751   7.850  10.037
16472W        W88732   0.837  32.043  11.484
16473W        W88733  41.003   4.344   1.864
16474W        W88734  23.090  18.119   1.351
16475W        W88735  42.937  34.571  13.048
16476W        W88736   1.302  33.403   0.918
16477W        W88737  14.792  11.686   2.348
16478W        W88738   4.295   1.775   4.132
16479W        W88739  18.170  12.262  14.876
16480W        W88740  13.743  29.497   3.149
16481W        W88741  22.027  21.594  13.483
16482W        W88742  11.627  26.137   4.334
16483W        W88743   5.346  40.906   3.285
16484W        W88744  27.197   6.293   2.787
16485W        W88745  15.775  24.976  13.548
16486W        W88746  37.020  15.617   1.238
16487W        W88747  32.920  14.188   1.226
16488W        W88748  29.529  33.010  11.485
16489W        W88749   7.240  29.078  14.354
16490W        W88750   8.732   3.222   4.779
16491W        W88751  42.842   6.876  10.452
16492W        W88752  34.016   9.316   3.820
16493W        W88753  18.557   5.898  13.506
16494W        W88754  15.704  37.038   2.765
16495W        W88755   5.396   8.234   3.813
16496W        W88756  15.104  12.339  14.364
16497W        W88757  43.322  29.471   2.827
16498W        W88758   9.799  18.743   1.909
16499W        W88759  36.499  29.028   2.688
16500W        W88760  26.476  14.696   3.750
16501W        W88761  30.944  14.740  14.004
16502W        W88762  15.223  28.593  13.364
16503W        W88763  41.878  16.207  10.484
16504W        W88764  34.543  12.163   1.924
16505W        W88765  10.326  21.173   4.220
16506W        W88766   4.366  11.628   3.751
16507W        W88767  40.929   2.463   4.251
16508W        W88768  32.888  25.526   1.447
16509W        W88769  43.776  16.658   3.788
16510W        W88770  20.171  37.547  12.460
16511W        W88771   1.785  36.370  10.422
16512W        W88772  27.663   5.348  11.581
16513W        W88773  13.743  44.406   2.324
16514W        W88774   1.340  22.011   3.818
16515W        W88775  38.949   4.698   5.282
16516W        W88776   6.687  14.647  10.610
16517W        W88777   1.417  38.861  10.965
16518W        W88778   8.737  38.048   4.114
16519W        W88779  13.329   8.810  10.148
16520W        W88780  28.539  30.620   1.219
16521W        W88781   6.731  11.638  13.502
16522W        W88782  38.520  44.451   2.803
16523W        W88783  22.026  27.062  10.591
16524W        W88784  28.050  34.890  13.852
16525W        W88785  22.109  44.488  13.857
16526W        W88786  37.844  29.147   0.257
16527W        W88787   8.269  41.825   2.188
16528W        W88788  40.927  42.978   1.352
16529W        W88789  21.141  17.592  10.954
16530W        W88790  16.794  32.498   3.849
16531W        W88791  11.329  34.943  11.461
16532W        W88792   2.831  33.947   2.696
16533W        W88793   2.392   2.283   2.295
16534W        W88794  22.010  26.954  12.938
16535W        W88795  18.786   7.727   2.257
16536W        W88796  13.166  17.773  12.483
16537W        W88797  35.417  32.410  10.916
16538W        W88798  11.212  17.150   3.153
16539W        W88799   5.391  31.614  10.483
16540W        W88800   4.422  27.013  14.283
16541W        W88801  20.108  40.801   4.639
16542W        W88802  18.275   6.846  11.033
16543W        W88803   0.780   1.281  13.914
16544W        W88804  21.587  15.137  11.091
16545W        W88805  40.929  13.199   3.244
16546W        W88806  39.964  17.086   2.371
16547W        W88807  15.750  20.754  12.823
16548W        W88808   7.346  22.017   0.886
16549W        W88809   3.445  24.192  13.850
16550W        W88810  14.176  18.100  12.490
16551W        W88811  23.121   5.776   2.363
16552W        W88812  11.657  21.679   3.846
16553W        W88813  18.567  35.967  12.503
16554W        W88814   1.444  40.388  13.846
16555W        W88815  11.836  13.701  10.633
16556W        W88816  28.590  35.926   3.194
16557W        W88817  35.484  15.208  11.471
16558W        W88818  21.222  44.432   1.717
16559W        W88819  16.210  40.885  10.558
16560W        W88820  15.655  37.970  12.921
16561W        W88821  26.595   8.380   2.719
16562W        W88822   3.294  36.843   2.279
16563W        W88823  34.961   0.850   4.268
16564W        W88824  33.916   0.349   1.310
16565W        W88825  39.473  11.822   3.303
16566W        W88826  44.926  14.219  12.442
16567W        W88827  30.431   3.734   0.245
16568W        W88828  35.974  29.166  10.641
16569W        W88829  11.339  43.501   1.774
16570W        W88830  29.048  26.082  10.490
16571W        W88831  39.885   0.938   0.427
16572W        W88832  21.173  33.945  10.523
16573W        W88833  10.656  44.822  12.344
16574W        W88834  18.285   1.354   4.301
16575W        W88835  26.116  17.146  10.518
16576W        W88836  26.958  23.079  11.061
16577W        W88837  40.966  42.326   4.176
16578W        W88838   0.818   1.354  12.476
16579W        W88839  25.486  30.600  13.897
16580W        W88840  39.810   8.687  11.445
16581W        W88841  11.836  16.220  10.433
16582W        W88842  40.465  18.644  12.912
16583W        W88843  20.205  23.602   4.303
16584W        W88844  14.119  18.092  12.828
16585W        W88845  16.206   6.209   3.727
16586W        W88846  13.129  38.486   0.363
16587W        W88847   8.327   1.817  14.304
16588W        W88848  10.822  31.953   0.406
16589W        W88849  18.593   9.857  11.511
16590W        W88850  29.929  32.623  11.441
16591W        W88851  40.401  22.591  14.450
16592W        W88852  16.303  22.186   1.888
16593W        W88853  20.628  13.687  13.417
16594W        W88854  19.088  37.941  13.993
16595W        W88855  20.687  21.077  12.480
16596W        W88856   6.842  19.186   4.636
16597W        W88857  20.596  16.180  10.462
16598W        W88858  20.678   7.903  12.537
16599W        W88859   6.820  26.122   1.351
16600W        W88860  14.243  17.134  12.076
16601W        W88861  24.602  34.389   0.278
16602W        W88862  19.218  22.679  13.795
16603W        W88863  22.173  39.997  11.497
16604W        W88864  10.328   0.436  12.890
16605W        W88865  42.889  32.904  11.544
16606W        W88866   9.338  13.274  10.989
16607W        W88867  26.673  21.529  13.512
16608W        W88868   5.792  39.943  12.361
16609W        W88869  21.707  38.407   0.424
16610W        W88870  15.816  10.748   4.671
16611W        W88871  26.984  40.998  10.459
16612W        W88872  11.821  43.825  12.007
16613W        W88873  30.052  43.371   1.299
16614W        W88874  24.996  15.093  12.060
16615W        W88875  14.698   0.927  14.495
16616W        W88876   9.358   1.476   2.289
16617W        W88877  42.958  18.780   5.115
16618W        W88878  39.513  23.620   1.859
16619W        W88879  33.096   4.701  14.927
16620W        W88880  12.223  38.541   3.294
16621W        W88881  40.475  30.956   4.671
16622W        W88882  39.372  42.796   5.291
16623W        W88883   7.832  37.428  14.030
16624W        W88884  36.511  36.056   3.255
16625W        W88885  33.114   2.325   2.785
16626W        W88886   8.349   4.707   3.358
16627W        W88887  43.280  42.864  14.452
16628W        W88888  22.058  40.956  10.454
16629W        W88889  26.003   8.207   3.650
16630W        W88890  26.657  31.646  11.451
16631W        W88891  11.693  13.223  13.352
16632W        W88892  22.532  23.197  12.885
16633W        W88893  36.533  11.696   3.796
16634W        W88894   9.858  18.563  14.990
16635W        W88895  36.442  17.758   3.820
16636W        W88896   2.800   9.196  10.887
16637W        W88897   4.821  18.664   0.900
16638W        W88898  10.172  31.558   1.803
16639W        W88899  38.519  42.281  13.885
16640W        W88900  20.065  22.709  10.558
16641W        W88901   8.278  11.828  12.991
16642W        W88902   5.802  14.306  12.555
16643W        W88903   6.684   8.181   2.213
16644W        W88904  29.538   2.915  11.374
16645W        W88905  18.231  32.936   1.302
16646W        W88906  16.175  12.289   0.378
16647W        W88907  20.243   8.711   2.783
16648W        W88908  35.472  15.589   1.894
16649W        W88909   0.414  11.148   1.788
16650W        W88910  33.902   3.428  11.593
16651W        W88911  27.579  19.747  13.965
16652W        W88912  21.685  15.083  13.362
16653W        W88913   0.445  17.272  14.911
16654W        W88914  10.684  12.654   1.845
16655W        W88915  23.094  16.599  11.950
16656W        W88916  28.184  35.104   0.407
16657W        W88917  32.541  43.464  14.008
16658W        W88918  32.480  35.875  12.003
16659W        W88919  36.544  25.546   4.669
16660W        W88920  43.906  16.197   0.949
16661W        W88921  29.539  21.677  12.854
16662W        W88922  20.639  23.176  12.957
16663W        W88923  33.991  36.958   0.311
16664W        W88924  36.971  10.644  12.536
16665W        W88925  17.186  28.023   1.881
16666W        W88926  38.985  37.848   0.936
16667W        W88927  36.912  21.257  11.870
16668W        W88928  27.135  26.674   4.344
16669W        W88929  22.103  12.142  13.399
16670W        W88930  44.283  26.143   0.466
16671W        W88931  35.601  21.567  11.908
16672W        W88932  15.091   9.756  11.072
16673W        W88933  32.906  32.007   0.274
16674W        W88934   3.315  12.668  11.426
16675W        W88935  36.458  22.695   3.761
16676W        W88936  17.260  26.688  13.480
16677W        W88937  43.370  44.824  10.917
16678W        W88938  34.898  11.822   5.093
16679W        W88939  36.471   7.832   5.722
16680W        W88940  30.579  14.094  14.796
16681W        W88941   9.218   9.769   2.716
16682W        W88942  21.697  11.762   2.362
16683W        W88943  18.287  24.045   0.255
16684W        W88944  21.737  20.657  11.432
16685W        W88945  18.078   5.432   3.671
16686W        W88946  37.974   4.874   2.686
16687W        W88947  41.959  38.389  12.941
16688W        W88948  11.189  16.228  11.985
16689W        W88949  16.683   5.432   3.270
16690W        W88950   4.866  40.493   3.746
16691W        W88951  32.104  28.139   3.336
16692W        W88952  17.719  17.166   2.840
16693W        W88953  39.376   7.341   9.930
16694W        W88954   9.727  10.314   0.276
16695W        W88955  39.054  22.557   0.804
16696W        W88956  18.056  18.121  11.111
16697W        W88957  21.056  11.814  10.910
16698W        W88958  12.120  21.757  14.788
16699W        W88959   0.313  32.071   2.835
16700W        W88960  32.941   2.365   2.416
16701W        W88961  41.809  24.220  10.898
16702W        W88962   8.247  21.735   4.623
16703W        W88963   2.838  15.601  14.955
16704W        W88964  35.930   2.857   3.301
16705W        W88965  43.491  28.042  13.412
16706W        W88966  36.356  42.847   3.634
16707W        W88967   7.396  12.220   2.693
16708W        W88968  18.184  10.665   3.720
16709W        W88969  28.024  42.340   2.334
16710W        W88970  42.897   8.364  12.976
16711W        W88971  33.582  31.093  13.030
16712W        W88972  16.782  33.912   0.382
16713W        W88973  41.882  43.919   1.278
16714W        W88974  23.117  17.141   3.716
16715W        W88975   7.221  20.754  10.894
16716W        W88976  20.035   1.272   1.389
16717W        W88977  40.514   1.938  11.563
16718W        W88978  21.179   3.428   2.294
16719W        W88979  16.768  42.869  10.606
16720W        W88980  29.472  38.022   2.300
16721W        W88981  19.620  41.295   9.946
16722W        W88982  30.934  37.908  12.472
16723W        W88983  38.825  27.475   3.699
16724W        W88984  44.881   0.751   1.864
16725W        W88985  39.341  38.494  12.902
16726W        W88986  13.206   1.835   1.931
16727W        W88987   5.868  28.064   4.654
16728W        W88988  35.042  44.992   3.318
16729W        W88989  35.050  15.274  14.349
16730W        W88990  15.813  42.934  11.090
16731W        W88991  15.087   3.761  13.893
16732W        W88992  25.547   4.299  14.293
16733W        W88993  22.662   2.274  13.976
16734W        W88994  35.402  41.914   1.309
16735W        W88995  25.591  14.276   3.315
16736W        W88996  32.449  33.465  13.484
16737W        W88997  16.681   1.325   4.330
16738W        W88998  29.566  23.709   1.867
16739W        W88999  21.579  19.566  13.504
16740W        W89000   8.678  10.665  12.951
16741W        W89001  37.408  31.994  13.470
16742W        W89002  43.893   1.927  11.494
16743W        W89003  28.162  41.350   5.275
16744W        W89004  19.705   7.796  13.416
16745W        W89005  14.289   7.832  12.512
16746W        W89006  26.016  30.532   1.250
16747W        W89007  33.443  17.298   1.365
16748W        W89008  28.110  20.684   3.297
16749W        W89009   4.859  32.599  13.433
16750W        W89010  28.681  39.547   4.671
16751W        W89011  18.738  30.496  10.645
16752W        W89012  41.017  27.583  13.978
16753W        W89013  39.033  43.007  10.065
16754W        W89014   7.354  26.170   3.676
16755W        W89015  10.157   4.281  12.957
16756W        W89016  35.857  13.259  12.381
16757W        W89017  13.302  11.326  14.774
16758W        W89018  19.175  17.770   2.850
16759W        W89019   8.785  35.474  11.991
16760W        W89020  20.535  10.878  12.363
16761W        W89021  14.245  44.334  10.555
16762W        W89022  14.276   7.790  12.021
16763W        W89023  30.505  16.076   2.259
16764W        W89024  34.490  21.704  11.012
16765W        W89025  15.719  26.671  11.560
16766W        W89026   9.870  22.609   2.246
16767W        W89027  15.300  19.703  14.890
16768W        W89028  29.977  38.445  11.125
16769W        W89029  22.087   0.386  11.967
16770W        W89030  21.260   7.895  11.590
16771W        W89031   2.314  41.371  12.047
16772W        W89032  39.046  41.364  13.998
16773W        W89033  42.460  25.612   0.874
16774W        W89034  10.784  38.856   2.178
16775W        W89035  16.725   1.847   0.815
16776W        W89036  42.463  34.375   2.185
16777W        W89037  24.011  25.513  14.964
16778W        W89038  28.487   9.286   1.392
16779W        W89039  37.488  14.289   0.401
16780W        W89040  26.554  28.145  10.604
16781W        W89041   0.985  43.943  11.901
16782W        W89042  12.730  34.102  12.511
16783W        W89043  28.633  14.229  12.909
16784W        W89044  26.955  30.617  11.485
16785W        W89045  21.659  38.326  13.512
16786W        W89046  26.067  32.961  13.930
16787W        W89047  30.035  42.514   4.685
16788W        W89048   5.227   5.792  10.522
16789W        W89049  10.662  43.314   4.656
16790W        W89050  29.520  30.946   3.290
16791W        W89051  41.436   7.694   4.730
16792W        W89052  24.132   3.362   2.864
16793W        W89053  23.129  28.969   2.763
16794W        W89054  34.868  37.929  14.352
16795W        W89055  13.653  10.370   0.470
16796W        W89056  21.098  10.852   0.901
16797W        W89057   5.736  24.059   3.630
16798W        W89058  31.986  22.053   4.667
16799W        W89059  23.103  16.081   3.653
16800W        W89060  23.630  39.975   2.415
16801W        W89061   6.861  22.535   4.791
16802W        W89062  36.991   2.393  11.871
16803W        W89063   2.281  23.625  12.950
16804W        W89064  37.923   3.355  11.934
16805W        W89065  12.181   4.295   0.950
16806W        W89066   5.428  23.679  11.555
16807W        W89067  34.445  18.121   0.307
16808W        W89068  32.599  34.515   3.736
16809W        W89069   9.166  14.730   0.925
16810W        W89070  14.824   8.745   1.835
16811W        W89071  31.539  14.781   3.197
16812W        W89072  30.625  37.952   0.268
16813W        W89073  29.630   9.697  12.912
16814W        W89074   4.901  31.509   3.190
16815W        W89075  19.225  35.020   3.645
16816W        W89076  26.599  37.043  14.806
16817W        W89077  18.204  24.686   4.785
16818W        W89078  41.962   2.927   4.803
16819W        W89079  15.094  14.157   0.879
16820W        W89080  39.415   9.331   1.364
16821W        W89081  31.096  23.538   4.140
16822W        W89082  30.642  22.743   1.884
16823W        W89083   2.830  13.340  13.028
16824W        W89084  27.663  33.447  12.456
16825W        W89085  10.842  11.842   2.362
16826W        W89086  13.789  21.755   3.796
16827W        W89087  21.571  26.084  13.429
16828W        W89088  16.090  17.139   3.334
16829W        W89089  43.788  40.464  14.463
16830W        W89090  40.393  13.185   3.834
16831W        W89091  19.569  26.652  10.013
16832W        W89092  44.474  42.321   2.391
16833W        W89093  32.030  23.609  12.068
16834W        W89094  40.884  13.651   2.798
16835W        W89095  13.771  27.557   1.405
16836W        W89096   8.239  34.599   2.788
16837W        W89097  28.448   8.788   4.167
16838W        W89098  17.770  12.322  13.386
16839W        W89099  11.294  26.464  11.966
16840W        W89100  36.017  37.463  10.936
16841W        W89101  15.132  30.098  12.974
16842W        W89102  41.523  42.284  13.892
16843W        W89103  36.084  38.552  12.456
16844W        W89104   2.437  43.339  14.964
16845W        W89105  32.585  28.117  10.050
16846W        W89106   1.743  31.988   2.811
16847W        W89107  41.972  40.540   4.203
16848W        W89108  17.668  31.514   3.219
16849W        W89109  30.947  40.919  10.564
16850W        W89110   1.460  17.748   0.893
16851W        W89111  17.113  26.995  14.762
16852W        W89112  26.540   3.446  13.799
16853W        W89113  20.727  14.721   4.705
16854W        W89114  32.405  42.864   0.319
16855W        W89115  40.811  43.373  10.590
16856W        W89116  31.920  38.389  14.293
16857W        W89117   9.329  34.108  12.400
16858W        W89118  23.221  22.707   1.889
16859W        W89119  41.400  36.045   4.786
16860W        W89120  28.545  27.677   3.640
16861W        W89121   4.423  12.795  14.801
16862W        W89122   0.766  40.819  13.045
16863W        W89123  21.723  19.079   5.646
16864W        W89124  22.626   1.753   3.792
16865W        W89125   0.315  34.375   1.225
16866W        W89126  36.872  37.917   3.378
16867W        W89127  24.000  26.001  11.977
16868W        W89128  41.862   6.891  10.604
16869W        W89129  17.198  21.135  10.591
16870W        W89130  40.488  31.483   4.258
16871W        W89131  13.258  15.641  14.979
16872W        W89132  28.083  16.261  13.496
16873W        W89133   4.761  32.006   1.804
16874W        W89134  41.428  26.668   0.892
16875W        W89135   5.715   3.929   1.844
16876W        W89136  27.000  29.607  14.889
16877W        W89137  28.667   9.726  14.439
16878W        W89138  15.102  30.932  10.424
16879W        W89139  21.119  23.100  12.942
16880W        W89140  17.258  28.172   3.166
16881W        W89141  13.319   5.417   1.392
16882W        W89142  33.875  32.587  12.893
16883W        W89143   0.857  43.961   0.869
16884W        W89144   6.217  23.000   2.678
16885W        W89145  26.030  26.467   4.144
16886W        W89146  42.969  33.989   4.763
16887W        W89147   6.879   2.420  10.527
16888W        W89148  25.032  37.516   4.622
16889W        W89149  40.320  23.628   2.316
16890W        W89150  43.469  34.988   0.885
16891W        W89151   5.884  43.780  12.841
16892W        W89152  28.964  18.773   0.382
16893W        W89153  11.339  10.759  13.966
16894W        W89154  25.980  24.156  12.096
16895W        W89155  31.018   0.485  13.543
16896W        W89156  18.157  21.556  14.943
16897W        W89157  23.128  23.727  14.368
16898W        W89158  22.619   0.848   1.272
16899W        W89159  10.823   7.173  10.465
16900W        W89160  24.216  10.813   0.467
16901W        W89161  34.373  20.129   3.167
16902W        W89162   8.246  10.833   2.187
16903W        W89163  15.179  40.028   1.340
16904W        W89164   6.188  33.070  14.030
16905W        W89165  28.487  32.017   4.320
16906W        W89166  10.731  30.501  12.961
16907W        W89167  37.440  21.194  11.123
16908W        W89168  32.067  10.294   4.722
16909W        W89169  16.193  11.163   0.905
16910W        W89170  28.103   9.841   4.801
16911W        W89171   8.369  24.147   0.894
16912W        W89172  12.255  24.693  13.869
16913W        W89173   1.441  36.518  13.948
16914W        W89174  22.027   9.673   2.764
16915W        W89175  43.769  22.057   2.310
16916W        W89176   6.204   5.854  13.815
16917W        W89177  21.055  28.174  11.859
16918W        W89178  31.981  41.388  10.923
16919W        W89179  25.050  43.417   2.368
16920W        W89180  25.637  34.517   0.265
16921W        W89181  20.074   3.386  11.971
16922W        W89182  16.077  13.231  13.040
16923W        W89183  28.439  42.437   3.767
16924W        W89184   4.271  44.797  13.958
16925W        W89185  32.972  10.343   1.410
16926W        W89186  36.001  33.975   1.828
16927W        W89187   8.878   5.280  13.318
16928W        W89188  35.592  22.722  13.921
16929W        W89189  44.959  15.594   4.178
16930W        W89190  31.929  35.454  11.904
16931W        W89191  35.514  12.260  10.617
16932W        W89192  25.072  26.180   4.295
16933W        W89193  22.045  42.846   2.231
16934W        W89194  18.553  16.620   4.723
16935W        W89195  40.351   6.322   0.872
16936W        W89196   4.768  29.483  12.909
16937W        W89197  39.967   1.400  11.032
16938W        W89198  30.942  34.991  10.019
16939W        W89199  25.144  27.151   4.162
16940W        W89200   7.370  14.304   4.700
16941W        W89201  32.571  35.540  12.957
16942W        W89202  24.153  43.423  13.313
16943W        W89203  44.409  11.646   3.685
16944W        W89204  38.530  34.597   1.315
16945W        W89205  33.123  35.376   3.763
16946W        W89206  28.070   3.938  14.410
16947W        W89207  40.416  35.577  12.558
16948W        W89208  25.078  41.793   0.860
16949W        W89209   8.809  30.091  12.835
16950W        W89210  15.231  42.831  13.030
16951W        W89211  16.611  39.911  12.982
16952W        W89212   6.185   1.821   1.813
16953W        W89213  27.188  10.339   1.394
16954W        W89214  14.314  22.089   3.734
16955W        W89215   1.319   6.282   1.837
16956W        W89216  24.053  32.407  12.506
16957W        W89217  26.682  23.651   1.392
16958W        W89218  29.960  22.062   4.681
16959W        W89219  12.640  12.763   0.343
16960W        W89220  18.717  13.713  14.446
16961W        W89221  18.787   1.275   2.250
16962W        W89222  17.798   7.780   5.235
16963W        W89223  28.956  16.698  13.873
16964W        W89224  39.982  24.555   4.724
16965W        W89225  18.082   5.414   0.844
16966W        W89226   6.911  24.160   2.754
16967W        W89227  29.063  13.665   1.343
16968W        W89228   0.971  37.356  11.413
16969W        W89229  24.167   8.757   2.883
16970W        W89230   1.744  43.350   3.313
16971W        W89231  33.487   6.871   0.904
16972W        W89232  38.351  29.578  12.077
16973W        W89233   1.460  44.813   0.429
16974W        W89234  26.957   4.875   9.946
16975W        W89235  39.434   9.248  12.354
16976W        W89236  17.627  35.586   3.818
16977W        W89237  28.606  29.593  11.442
16978W        W89238   0.270  28.457  12.959
16979W        W89239  41.032  14.179  10.465
16980W        W89240  34.477   7.681   2.216
16981W        W89241   4.755   6.355   1.768
16982W        W89242  17.587  27.123  12.554
16983W        W89243  23.529  13.820   2.345
16984W        W89244  20.663  22.741  12.510
16985W        W89245  39.847  10.221   2.396
16986W        W89246   1.255   6.879   2.286
16987W        W89247  20.622  42.785   1.797
16988W        W89248  41.927  16.212   2.275
16989W        W89249  20.165  20.144   2.310
16990W        W89250   1.320  36.079   0.295
16991W        W89251  38.064   0.405  11.866
16992W        W89252  40.327  29.590  11.479
16993W        W89253  19.227  36.501  14.456
16994W        W89254  28.664  36.441  14.339
16995W        W89255  16.277  40.031  12.372
16996W        W89256  43.886   4.250  13.018
16997W        W89257  31.149   3.838   2.288
16998W        W89258  26.596  44.363   0.454
16999W        W89259  42.301  40.813  14.350
17000W        W89260  24.576  43.354   0.806
17001W        W89261  31.958  44.952  12.064
17002W        W89262  14.257  39.922   3.319
17003W        W89263  26.964  38.384   1.419
17004W        W89264   6.692  26.557   1.313
17005W        W89265   6.390  43.864  11.121
17006W        W89266   6.240  20.065   4.186
17007W        W89267  17.669  41.341  11.903
17008W        W89268  19.214  25.117  14.833
17009W        W89269  33.479  18.701  11.493
17010W        W89270   5.823  27.682  14.512
17011W        W89271  23.493  34.437  13.857
17012W        W89272   2.336  15.094   4.213
17013W        W89273  26.676   7.787   3.262
17014W        W89274  39.481  25.525   4.726
17015W        W89275   8.325   8.206   4.640
17016W        W89276  33.114  30.586  10.573
17017W        W89277  37.559  37.964  14.495
17018W        W89278  43.929  19.210   0.879
17019W        W89279  32.013  11.324   1.292
17020W        W89280  20.064  15.741   2.764
17021W        W89281  20.173  30.436   1.862
17022W        W89282  37.544  28.972  13.526
17023W        W89283  39.868  39.867   4.212
17024W        W89284  19.696  16.245   4.802
17025W        W89285  27.541  13.675  12.861
17026W        W89286  31.134  26.014   4.115
17027W        W89287   9.380  43.796   0.819
17028W        W89288  44.811  10.756  10.510
17029W        W89289  15.329  27.185  14.886
17030W        W89290  40.319  33.551   3.752
17031W        W89291  13.703  42.511   4.351
17032W        W89292   0.418  16.074   2.855
17033W        W89293  30.081  14.807  10.905
17034W        W89294  44.806  21.217  12.074
17035W        W89295  44.809  41.339  11.972
17036W        W89296  35.936  42.439   2.858
17037W        W89297  44.943  18.191  12.408
17038W        W89298   4.870   4.851  12.387
17039W        W89299  41.903  31.442   0.826
17040W        W89300  16.273  42.790   4.833
17041W        W89301  30.539  12.134  11.042
17042W        W89302  23.580  43.786   2.324
17043W        W89303   1.918   3.297  12.924
17044W        W89304   1.912  21.587  11.552
17045W        W89305  25.077  20.654  13.977
17046W        W89306  43.356   7.822   0.855
17047W        W89307  32.499  11.181   4.298
17048W        W89308  37.913  24.044  11.565
17049W        W89309  18.162  29.095  11.061
17050W        W89310   6.305  39.991   1.819
17051W        W89311  17.256  30.615   4.340
17052W        W89312   6.189  33.485   3.637
17053W        W89313  44.971  23.117   1.330
17054W        W89314  13.217   2.323   0.282
17055W        W89315  38.419  35.101   1.803
17056W        W89316  17.610  32.528   2.376
17057W        W89317   9.849   7.287   3.665
17058W        W89318  27.014  41.991   2.334
17059W        W89319  14.242  12.824  11.913
17060W        W89320  12.151  11.852  10.918
17061W        W89321  40.444  18.202   1.231
17062W        W89322  34.415  17.262   0.745
17063W        W89323  23.117  17.775  12.950
17064W        W89324  15.278  41.998  13.369
17065W        W89325   2.840  22.158  14.322
17066W        W89326  40.394  30.925   1.899
17067W        W89327  36.402  38.980   1.356
17068W        W89328   4.283  37.050   3.671
17069W        W89329  22.069  35.854   0.465
17070W        W89330  43.980  20.641  12.399
17071W        W89331  35.553  36.040  14.388
17072W        W89332  18.232   5.794  12.413
17073W        W89333  22.697  20.267   9.937
17074W        W89334   4.426  43.513   3.664
17075W        W89335  34.985  15.699  11.428
17076W        W89336  26.458  20.156   0.297
17077W        W89337  43.411  15.155   2.319
17078W        W89338  10.673  22.999   4.239
17079W        W89339  44.371  37.027  13.380
17080W        W89340  41.953  28.182  12.492
17081W        W89341   5.307  31.991   2.885
17082W        W89342  15.806  33.121   4.682
17083W        W89343  26.611   7.313  14.835
17084W        W89344   3.726  35.886  12.096
17085W        W89345  17.196  44.329   1.293
17086W        W89346  26.573  43.917   4.190
17087W        W89347  19.154  22.046   1.279
17088W        W89348   8.194   5.265  14.414
17089W        W89349  18.082   3.764  11.992
17090W        W89350  33.608  30.148  14.514
17091W        W89351  23.147   0.792   4.794
17092W        W89352  12.799   4.878   2.191
17093W        W89353  37.933  38.858  14.500
17094W        W89354  12.164  14.589  11.118
17095W        W89355  36.392  16.164   1.810
17096W        W89356   2.359  12.301   2.358
17097W        W89357  24.628  40.989   3.290
17098W        W89358  36.847  14.683  12.897
17099W        W89359  42.331  18.062   0.815
17100W        W89360  39.334  42.948   0.416
17101W        W89361  38.534  41.903   0.449
17102W        W89362   6.207  10.857  14.928
17103W        W89363  43.946  19.629  14.313
17104W        W89364  10.273  43.388  13.963
17105W        W89365  18.781  28.127  12.553
17106W        W89366   5.782   2.785   0.928
17107W        W89367  15.760   6.338  11.571
17108W        W89368  10.223  42.309  12.943
17109W        W89369  33.387   1.361  13.313
17110W        W89370  21.189  29.095  14.031
17111W        W89371  24.547  23.653   4.794
17112W        W89372  40.497  38.053  14.980
17113W        W89373  11.185  23.154  12.078
17114W        W89374  33.031   2.411  10.968
17115W        W89375  35.928  25.976  10.481
17116W        W89376  24.141   7.187   0.842
17117W        W89377  13.272   2.910   0.813
17118W        W89378  10.681  31.569  14.486
17119W        W89379  24.652  15.220   0.879
17120W        W89380  20.067  10.303   3.364
17121W        W89381   5.412  36.369   2.298
17122W        W89382  39.469  26.683   1.391
17123W        W89383  11.865  33.915  13.319
17124W        W89384  41.475  21.698  11.994
17125W        W89385   1.362  16.085   1.303
17126W        W89386  20.214  43.794  12.543
17127W        W89387  28.574  44.491  11.874
17128W        W89388  22.061  42.376  14.406
17129W        W89389   9.841  25.011  10.991
17130W        W89390   3.278  34.482   4.668
17131W        W89391  16.567  24.546   3.149
17132W        W89392  28.166  23.732   4.631
17133W        W89393  20.258  18.647   4.264
17134W        W89394  23.673  26.117   5.588
17135W        W89395  37.079   2.905   4.645
17136W        W89396  12.158  26.654   3.860
17137W        W89397   2.935  22.714   0.404
17138W        W89398   5.836  23.218  12.974
17139W        W89399  41.342  21.049   0.458
17140W        W89400  44.852  17.729   4.816
17141W        W89401  35.521  40.528   1.770
17142W        W89402   7.318  26.106  13.818
17143W        W89403  40.882  26.141  10.932
17144W        W89404   9.742  25.545  12.928
17145W        W89405  42.352  36.568   4.220
17146W        W89406   1.449  19.676  11.075
17147W        W89407   4.377  44.803  13.444
17148W        W89408   4.438  34.928   1.735
17149W        W89409  19.659  33.443   0.375
17150W        W89410  39.917  12.145  11.011
17151W        W89411  19.686  15.161  12.905
17152W        W89412  18.084  44.764   1.377
17153W        W89413  29.561  38.869   2.852
17154W        W89414   8.689   8.894   0.415
17155W        W89415   7.220  43.908  13.448
17156W        W89416  23.655   3.241   4.285
17157W        W89417  18.784  26.069   0.369
17158W        W89418  13.163  28.123  11.442
17159W        W89419   5.824  38.341   4.690
17160W        W89420  37.452  41.884   3.649
17161W        W89421   5.324  18.208  12.082
17162W        W89422  17.211  36.918   4.701
17163W        W89423   3.352   2.443  11.929
17164W        W89424  24.689  37.887   4.342
17165W        W89425  14.171  21.246   4.691
17166W        W89426  30.477  42.306   2.330
17167W        W89427  23.218  18.113  13.534
17168W        W89428  23.492  23.667   4.734
17169W        W89429  37.513  10.782  12.483
17170W        W89430  39.902  26.502  12.546
17171W        W89431   6.385  10.763   1.895
17172W        W89432  41.991   7.334   2.194
17173W        W89433  31.590  40.452   4.136
17174W        W89434  30.558  36.511   2.805
17175W        W89435  11.859  25.473  13.450
17176W        W89436   5.737   3.878  14.452
17177W        W89437  16.740  30.117   0.894
17178W        W89438  29.519  32.419   1.293
17179W        W89439  40.442  40.322   2.335
17180W        W89440  38.542  42.788   4.249
17181W        W89441  15.310  16.656  14.981
17182W        W89442  17.561  27.513  11.491
17183W        W89443   8.337  18.766   0.447
17184W        W89444  20.642   6.770  13.529
17185W        W89445  27.496  42.924   3.384
17186W        W89446   1.869   3.362  14.283
17187W        W89447   7.808  36.515   2.875
17188W        W89448   9.778  28.079  11.964
17189W        W89449  19.064   9.153  12.874
17190W        W89450  42.316  42.811   4.658
17191W        W89451   3.725  25.006   3.753
17192W        W89452  27.056  35.482   1.356
17193W        W89453  37.507   7.725   2.207
17194W        W89454   5.211  32.616   0.929
17195W        W89455  19.117   1.415  12.055
17196W        W89456  34.563   8.662   3.210
17197W        W89457  17.681  27.015   1.800
17198W        W89458   2.278  23.680  14.797
17199W        W89459   5.746  43.850  11.597
17200W        W89460  33.403  43.840  11.480
17201W        W89461  31.918  25.197  10.634
17202W        W89462  27.983  30.413  11.879
17203W        W89463  16.226  36.867  10.996
17204W        W89464  44.849  28.126   1.862
17205W        W89465   6.880  25.501   1.413
17206W        W89466  24.158  42.320   3.374
17207W        W89467  29.985  37.512   1.907
17208W        W89468  24.618  37.080   3.638
17209W        W89469  29.007  31.903  13.477
17210W        W89470  37.534  27.515   1.451
17211W        W89471  17.646  24.535   2.854
17212W        W89472  13.758  38.467   1.367
17213W        W89473  37.072  41.466   4.693
17214W        W89474  39.006  26.978   4.776
17215W        W89475  21.688  23.619  11.940
17216W        W89476  28.517  39.365   2.716
17217W        W89477   8.744  17.749  11.437
17218W        W89478  11.143  24.630  10.894
17219W        W89479  42.459  28.030   0.861
17220W        W89480   7.717   6.746  14.029
17221W        W89481   1.340  33.396  14.760
17222W        W89482  42.809   6.745   4.838
17223W        W89483  32.015  16.244   4.199
17224W        W89484  26.979  19.274   1.725
17225W        W89485  40.318  41.830   4.814
17226W        W89486   0.774  18.093  14.376
17227W        W89487  33.905   5.224   3.664
17228W        W89488  38.399   4.881  11.580
17229W        W89489   2.458   9.707   1.316
17230W        W89490   9.673   8.869  13.519
17231W        W89491  33.500  13.239   2.307
17232W        W89492  34.041  33.575  12.475
17233W        W89493  26.701   7.313  10.630
17234W        W89494  35.007  14.254   0.733
17235W        W89495  30.072  44.482   1.835
17236W        W89496  11.862  34.368  11.372
17237W        W89497  32.985  28.082   3.247
17238W        W89498  43.275  18.050   1.812
17239W        W89499  15.221  41.538  10.993
17240W        W89500  15.108  35.994  10.506
17241W        W89501  17.710  25.712  11.463
17242W        W89502  14.158  44.781  12.866
17243W        W89503  33.076  38.950  10.445
17244W        W89504  28.996  15.657  11.045
17245W        W89505  31.512  44.787  11.528
17246W        W89506  28.105  32.111  14.433
17247W        W89507  26.167   6.799  11.892
17248W        W89508  10.645  19.153   1.212
17249W        W89509  31.607   1.435   2.237
17250W        W89510   4.716  27.950  13.807
17251W        W89511   0.906  21.661   3.283
17252W        W89512   5.222  41.828  10.571
17253W        W89513  10.139   4.831  13.921
17254W        W89514   5.745  12.124  11.462
17255W        W89515  29.555   8.881   4.315
17256W        W89516  31.502  26.102  11.376
17257W        W89517  36.544  38.392  13.420
17258W        W89518  18.224  31.587   4.351
17259W        W89519  19.252  36.034   1.835
17260W        W89520   7.322  10.691   4.800
17261W        W89521  14.240  26.459  10.968
17262W        W89522  26.696   6.760   2.756
17263W        W89523   8.250  44.443  12.341
17264W        W89524  12.209  29.958   4.826
17265W        W89525  28.962  44.357   0.734
17266W        W89526  35.396  36.988   2.837
17267W        W89527   5.262  38.023  14.314
17268W        W89528   3.916   6.196   3.162
17269W        W89529  19.182  28.186  11.886
17270W        W89530  21.735   2.230   3.177
17271W        W89531  20.181  11.326  13.914
17272W        W89532  20.200  28.111   1.390
17273W        W89533  12.211  13.182  11.540
17274W        W89534  13.243  11.774   0.398
17275W        W89535  24.025   5.315   2.696
17276W        W89536  22.084  15.649   1.325
17277W        W89537  11.773  28.954   1.375
17278W        W89538   1.795  35.100   3.328
17279W        W89539  13.648  41.428   2.310
17280W        W89540  39.385  41.531   4.756
17281W        W89541  10.751   5.820   1.373
17282W        W89542  40.895  41.477   0.322
17283W        W89543  17.670  23.694   4.600
17284W        W89544  16.101  12.733   2.238
17285W        W89545  16.605   9.788   3.179
17286W        W89546   7.212  23.582   1.307
17287W        W89547  38.390  27.599  14.991
17288W        W89548  14.126  34.914   1.829
17289W        W89549  21.033  36.487  11.609
17290W        W89550  33.534  37.450  12.575
17291W        W89551  15.577   6.681   3.243
17292W        W89552   8.267  22.640  13.913
17293W        W89553  27.585   9.238   0.313
17294W        W89554   4.207  41.367   0.380
17295W        W89555  17.226  20.584   1.738
17296W        W89556   3.262  26.613   2.780
17297W        W89557   8.687  20.187   1.228
17298W        W89558  15.698   3.933  14.857
17299W        W89559  24.623  20.635  13.870
17300W        W89560  25.115  35.105  12.536
17301W        W89561  22.090  11.846  14.461
17302W        W89562  17.096  32.111  10.430
17303W        W89563  17.724  20.193   4.719
17304W        W89564  40.358  19.603   4.168
17305W        W89565  24.983   2.357  14.843
17306W        W89566  33.006   2.449  14.980
17307W        W89567  17.258  12.250   1.381
17308W        W89568   3.244  26.497   3.735
17309W        W89569   4.912  41.379   2.414
17310W        W89570  25.595  38.368  13.019
17311W        W89571  33.092  31.403  14.901
17312W        W89572  29.143  38.979   2.822
17313W        W89573  29.598  39.861   4.625
17314W        W89574  16.263  18.590  10.968
17315W        W89575  27.499  13.174  11.126
17316W        W89576  29.046  38.384   4.669
17317W        W89577  35.945  20.550  14.456
17318W        W89578  18.769  42.895   0.325
17319W        W89579  14.324   1.858  11.541
17320W        W89580   1.819   9.197  11.051
17321W        W89581  28.009  21.251  13.057
17322W        W89582  21.222  41.947   0.958
17323W        W89583  21.115  32.979  14.785
17324W        W89584   1.970  25.121  13.006
17325W        W89585  16.265   6.428  10.945
17326W        W89586  14.763  34.550  14.327
17327W        W89587  32.622  43.954  13.965
17328W        W89588  38.846  22.555  11.493
17329W        W89589  26.031  16.712   0.415
17330W        W89590  28.071  21.741   2.210
17331W        W89591  12.340  39.344   1.929
17332W        W89592   6.701   3.904   3.735
17333W        W89593  25.165  33.936  14.316
17334W        W89594  24.497  27.510  10.160
17335W        W89595  13.694  41.814  11.576
17336W        W89596  26.964  23.068   0.445
17337W        W89597  27.986  30.624  14.849
17338W        W89598   2.734  32.533  12.406
17339W        W89599  11.254  21.169   1.934
17340W        W89600  22.582  36.083   4.745
17341W        W89601  34.496  11.134   2.811
17342W        W89602   3.937   6.381   3.853
17343W        W89603  17.577  34.412  10.631
17344W        W89604  28.951   1.376  13.428
17345W        W89605   7.846  36.513  14.401
17346W        W89606  21.597  24.543   1.288
17347W        W89607  19.707  44.939  11.448
17348W        W89608  24.143  34.370   3.750
17349W        W89609   9.681  15.642  12.908
17350W        W89610  37.516  41.998   1.291
17351W        W89611  19.203   6.231   1.332
17352W        W89612  26.058  39.314  12.951
17353W        W89613  41.499  35.581  11.888
17354W        W89614  20.110  43.962   2.216
17355W        W89615  41.413   4.722   3.844
17356W        W89616  32.045  13.259   4.204
17357W        W89617  34.430  31.899  11.065
17358W        W89618  34.535  31.001   2.793
17359W        W89619   1.899  16.237   1.932
17360W        W89620  23.680  38.411  12.437
17361W        W89621  33.525  19.645  11.897
17362W        W89622   2.458  28.550   1.334
17363W        W89623   9.347  30.632   4.245
17364W        W89624  17.115  26.967   4.309
17365W        W89625  31.057  25.160  11.996
17366W        W89626  40.469  10.746   4.276
17367W        W89627  10.820  44.994   2.344
17368W        W89628   5.257  35.515  10.432
17369W        W89629   0.345  16.266   1.216
17370W        W89630  23.583   8.843  12.391
17371W        W89631  10.374  42.439   3.274
17372W        W89632  26.524  30.641  14.772
17373W        W89633  25.121  23.032  13.314
17374W        W89634   8.201  35.032  12.902
17375W        W89635  33.593  20.056  14.994
17376W        W89636  32.539  13.187  11.960
17377W        W89637  22.618   7.338   3.220
17378W        W89638   9.703  41.888  13.058
17379W        W89639   5.808   2.956   1.725
17380W        W89640   1.409  36.941  13.033
17381W        W89641  35.551  39.905  14.935
17382W        W89642  38.911  42.387  13.840
17383W        W89643   6.402  40.533   4.317
17384W        W89644  10.698   8.171  12.851
17385W        W89645  44.349  28.139   5.179
17386W        W89646  24.604  13.175  10.560
17387W        W89647  24.516  24.647  12.006
17388W        W89648  43.292  24.984  13.324
17389W        W89649  26.014   3.318   4.732
17390W        W89650   0.342  29.990   0.822
17391W        W89651  37.878  15.667   2.221
17392W        W89652   0.940  31.469  11.379
17393W        W89653   8.866  42.819   2.325
17394W        W89654  25.203  43.444   1.717
17395W        W89655   3.773  10.345   0.478
17396W        W89656  30.052  37.866   1.812
17397W        W89657  40.014  25.523   0.847
17398W        W89658  21.216  42.358   4.131
17399W        W89659  42.339  18.093  12.035
17400W        W89660  30.991  43.401   0.283
17401W        W89661  30.036  40.479  14.833
17402W        W89662  38.521  33.058   0.900
17403W        W89663  20.059  39.363   2.699
17404W        W89664  20.615  16.607  11.578
17405W        W89665  14.147   3.825   4.767
17406W        W89666  17.261  14.134   4.181
17407W        W89667  25.121   0.410   2.842
17408W        W89668  21.070  41.420  10.417
17409W        W89669   7.853  10.150   3.330
17410W        W89670  40.373  35.997  10.988
17411W        W89671  33.568  38.043   0.410
17412W        W89672  43.271  25.642  10.958
17413W        W89673   2.955   1.886  12.074
17414W        W89674  26.177  44.487  14.951
17415W        W89675  44.337  37.382   0.254
17416W        W89676  12.800  31.990  11.056
17417W        W89677  13.264   3.348  10.121
17418W        W89678  32.486  40.841  10.616
17419W        W89679  28.992   1.871   3.643
17420W        W89680  21.681  15.754  10.947
17421W        W89681  20.141  20.561   5.216
17422W        W89682  40.938   6.799  10.454
17423W        W89683  14.689   1.954   3.823
17424W        W89684  11.850  14.725  14.834
17425W        W89685  23.606  14.679  13.043
17426W        W89686  24.197   2.295   1.873
17427W        W89687   1.799  23.207   1.291
17428W        W89688  26.511  24.618   4.270
17429W        W89689  43.899  41.002   1.426
17430W        W89690  25.059   5.313   4.797
17431W        W89691  38.952  28.162   2.178
17432W        W89692  37.498  43.796   0.472
17433W        W89693  37.577  10.648   1.921
17434W        W89694  29.603  31.539   1.375
17435W        W89695  18.209  39.030  12.974
17436W        W89696  22.198  30.426  10.639
17437W        W89697   4.423   6.903  14.472
17438W        W89698  18.140  11.755  11.386
17439W        W89699  43.010   0.816   2.719
17440W        W89700  24.137   1.453  11.486
17441W        W89701  28.015  27.087  10.089
17442W        W89702  15.823  35.457   2.867
17443W        W89703   2.449  41.414   0.762
17444W        W89704  41.939  13.149   0.893
17445W        W89705  31.530  22.221   0.242
17446W        W89706   7.212  19.076   1.785
17447W        W89707  14.276   7.789   4.836
17448W        W89708  44.840  18.263  14.947
17449W        W89709   4.386  19.127  14.359
17450W        W89710  34.446   2.231   0.747
17451W        W89711  21.702  14.340  11.019
17452W        W89712   6.397  43.957  14.444
17453W        W89713  19.079  36.024  11.122
17454W        W89714  24.638  10.164  13.498
17455W        W89715  23.985  23.597   2.715
17456W        W89716  43.453  14.289   2.836
17457W        W89717  16.736  11.199  14.829
17458W        W89718  27.118  10.675   0.467
17459W        W89719   5.883  11.286  14.498
17460W        W89720   2.923   9.386   1.230
17461W        W89721  10.820   9.721   3.194
17462W        W89722   6.870  39.338  10.638
17463W        W89723   9.794   5.933  10.543
17464W        W89724   7.228  19.057  10.532
17465W        W89725   4.857  29.935  12.397
17466W        W89726  13.756  16.229  12.950
17467W        W89727  43.434  29.935  14.491
17468W        W89728  10.146  28.154   0.825
17469W        W89729  15.293  32.558  13.980
17470W        W89730  24.713   4.801   2.718
17471W        W89731  40.438  37.461   4.762
17472W        W89732  34.486  23.078  11.426
17473W        W89733   2.721  10.149   0.898
17474W        W89734  38.562   8.310   3.318
17475W        W89735  19.234   9.264  11.429
17476W        W89736  17.658  35.547   2.371
17477W        W89737  11.773  14.313  13.825
17478W        W89738  11.707  44.425  11.572
17479W        W89739  13.277  25.216   0.266
17480W        W89740  21.541  28.543   0.737
17481W        W89741  32.923  34.552   4.819
17482W        W89742  28.111  31.591   1.353
17483W        W89743   7.220   1.346  11.122
17484W        W89744  21.104  24.584   3.205
17485W        W89745  40.315  17.067  11.577
17486W        W89746  10.169  38.401  14.805
17487W        W89747  30.990  29.116   2.854
17488W        W89748  14.330  40.385   4.256
17489W        W89749  12.727   4.913  11.118
17490W        W89750  41.934  35.099   3.247
17491W        W89751  41.934  43.976   1.901
17492W        W89752  33.997   7.838  14.375
17493W        W89753  35.907  42.286  13.043
17494W        W89754   1.813   8.706  13.540
17495W        W89755  33.891  12.756   2.716
17496W        W89756  16.745  26.636   1.335
17497W        W89757  30.963  33.096   1.712
17498W        W89758  33.066  29.152   3.672
17499W        W89759   7.364   2.398  12.879
17500W        W89760  24.694  23.668   0.444
17501W        W89761  20.215   1.272  13.478
17502W        W89762  26.469  42.811  11.448
17503W        W89763  31.546  14.196  10.509
17504W        W89764   3.453  18.574   2.852
17505W        W89765  15.168  11.731  11.567
17506W        W89766  15.676  26.486   4.326
17507W        W89767  26.989   7.382   4.616
17508W        W89768  32.583   7.903   3.814
17509W        W89769  22.637  39.032   4.709
17510W        W89770  14.130  21.623   1.441
17511W        W89771   3.260  10.280  12.353
17512W        W89772  34.522  12.229   1.428
17513W        W89773  11.861  21.219   0.909
17514W        W89774  25.471   7.769   1.255
17515W        W89775  31.630  21.022  11.512
17516W        W89776  29.932  37.568   4.648
17517W        W89777  11.654  18.778   3.835
17518W        W89778  35.106   5.212   0.808
17519W        W89779  40.370   9.347  14.844
17520W        W89780  41.919  25.612   0.932
17521W        W89781   2.269  37.370  11.992
17522W        W89782  28.042   1.904  11.430
17523W        W89783  38.544   4.337  13.444
17524W        W89784  10.670  34.543   4.193
17525W        W89785  15.815  42.283  13.316
17526W        W89786  23.645  38.526  12.033
17527W        W89787  27.013  44.880  14.012
17528W        W89788  34.066   0.275   1.775
17529W        W89789  11.788   6.875   3.202
17530W        W89790   1.310  33.412  11.484
17531W        W89791  44.425  27.574  10.116
17532W        W89792   3.914   6.367  13.053
17533W        W89793  12.251   0.375   1.372
17534W        W89794   3.746  40.826  11.412
17535W        W89795  36.040  25.091  13.970
17536W        W89796  38.958  28.038   1.822
17537W        W89797   2.244  13.157   0.894
17538W        W89798  34.522   3.749   1.816
17539W        W89799  34.444  42.968   1.752
17540W        W89800  35.078  42.309   1.319
17541W        W89801  41.859  28.178  12.948
17542W        W89802  38.339  39.432  14.361
17543W        W89803  25.079  13.208   1.388
17544W        W89804  35.983  12.701  11.588
17545W        W89805  24.111  32.455  14.926
17546W        W89806  26.046  41.494   0.927
17547W        W89807  34.044  18.059   9.991
17548W        W89808   1.319  20.060   4.642
17549W        W89809  44.848  35.033  10.928
17550W        W89810  11.646  44.927   4.726
17551W        W89811  21.134  23.724  13.837
17552W        W89812   2.272   1.283  14.960
17553W        W89813  29.459   4.273   2.774
17554W        W89814   1.917  14.696   3.733
17555W        W89815   0.382  33.481  11.587
17556W        W89816  27.040  37.379   1.325
17557W        W89817  23.113   8.185   3.351
17558W        W89818  25.031  10.760   1.327
17559W        W89819  15.808  17.116  12.343
17560W        W89820  24.678  15.800  11.532
17561W        W89821   9.230  23.622  13.024
17562W        W89822   5.228  23.659   0.866
17563W        W89823  36.359  24.569   0.404
17564W        W89824   8.724  15.816  10.547
17565W        W89825  21.223  23.229  14.967
17566W        W89826   1.859  43.925  13.326
17567W        W89827  40.342  30.485   3.630
17568W        W89828  34.902  28.060   0.767
17569W        W89829  38.863   5.268   1.265
17570W        W89830   5.266   8.727   1.279
17571W        W89831  11.768  22.503   0.820
17572W        W89832  29.654   6.364   2.694
17573W        W89833   9.831  25.988  12.062
17574W        W89834  27.614  17.239   0.362
17575W        W89835  20.738  18.697   3.384
17576W        W89836  15.771   2.798  13.434
17577W        W89837  27.153   3.911   1.737
17578W        W89838   2.948  39.540  13.367
17579W        W89839  32.469   8.398  13.913
17580W        W89840  20.588  40.831   3.370
17581W        W89841  25.061  17.674  13.316
17582W        W89842  40.427   9.391   3.198
17583W        W89843  25.049  21.678   2.702
17584W        W89844   7.202  10.176  12.555
17585W        W89845  41.908   2.742   0.337
17586W        W89846  33.111  38.031   2.704
17587W        W89847  12.756   3.381   5.249
17588W        W89848  23.618  20.742  11.889
17589W        W89849  13.658  42.969   1.818
17590W        W89850  11.780   8.387   1.410
17591W        W89851  23.076  32.630   2.898
17592W        W89852   3.352   0.307   0.876
17593W        W89853  19.152  35.870  14.394
17594W        W89854  38.482  11.317   2.390
17595W        W89855  29.048  31.945  14.913
17596W        W89856  39.918  43.774  12.476
17597W        W89857  35.418  23.020  13.493
17598W        W89858   2.894  29.986  13.968
17599W        W89859  38.907  14.325  10.480
17600W        W89860  31.571   3.833   0.868
17601W        W89861  41.523  32.068   4.828
17602W        W89862  22.634   3.313   1.308
17603W        W89863   6.819   1.413   4.324
17604W        W89864  34.983  24.036   1.812
17605W        W89865  35.891  13.348   0.300
17606W        W89866  19.254  28.516  14.894
17607W        W89867  16.307  43.458  13.450
17608W        W89868  44.827  27.030  13.952
17609W        W89869  41.973  21.150   2.821
17610W        W89870  28.520  20.224   2.208
17611W        W89871  32.008  36.971  11.522
17612W        W89872   4.448   5.395  10.443
17613W        W89873  18.594   2.249  14.483
17614W        W89874  31.947  43.401   3.196
17615W        W89875   0.947  21.257   3.314
17616W        W89876  42.399  39.532  14.514
17617W        W89877  12.363  27.961   5.613
17618W        W89878   4.842  25.133  14.803
17619W        W89879   2.321   6.227  10.161
17620W        W89880  31.518  25.172  11.384
17621W        W89881  30.493  22.617  13.857
17622W        W89882  44.819  36.086   4.626
17623W        W89883  41.993  12.329   3.159
17624W        W89884  17.194  29.565   2.769
17625W        W89885  33.979  26.591   0.802
17626W        W89886   4.232  40.870   1.322
17627W        W89887  12.818  42.351  12.952
17628W        W89888  28.946  31.968   3.378
17629W        W89889  40.833  28.940  10.498
17630W        W89890  30.045  12.777  13.967
17631W        W89891   9.371  11.698  14.834
17632W        W89892   7.391  44.361  14.973
17633W        W89893  34.928  20.585   0.451
17634W        W89894  41.454  13.718  10.888
17635W        W89895  26.066  13.730   4.635
17636W        W89896  22.038   3.815  14.324
17637W        W89897   8.395   8.364  14.872
17638W        W89898  26.701  43.867  11.566
17639W        W89899  21.061   7.256  12.958
17640W        W89900  28.480  12.258   3.777
17641W        W89901  32.531  13.602   2.808
17642W        W89902  27.133  19.275  14.312
17643W        W89903  26.579  14.187  14.922
17644W        W89904  29.139   3.459  13.011
17645W        W89905  13.700  10.810  13.501
17646W        W89906  36.028  38.389   4.780
17647W        W89907  29.096  34.039  13.000
17648W        W89908   0.320  14.658  10.936
17649W        W89909  18.189  37.847  12.047
17650W        W89910  30.959  19.050  13.387
17651W        W89911  33.420  24.115  14.417
17652W        W89912   4.380   5.852  14.867
17653W        W89913  12.702  33.894  13.395
17654W        W89914  23.617  18.067   2.723
17655W        W89915   9.700   1.442  14.441
17656W        W89916  28.070  30.054  10.594
17657W        W89917  23.649   2.883   1.811
17658W        W89918   4.875  38.522   0.826
17659W        W89919  33.006  43.383   1.831
17660W        W89920  22.055   4.871  14.420
17661W        W89921  33.130  28.629   0.755
17662W        W89922  43.764   0.812  14.474
17663W        W89923  21.034  26.643   1.232
17664W        W89924  20.263  38.409  12.980
17665W        W89925  38.830   1.801   9.987
17666W        W89926  15.778  23.626   3.767
17667W        W89927  28.515  18.700  12.422
17668W        W89928   4.395   8.282  11.866
17669W        W89929  35.921  34.966   3.227
17670W        W89930  11.760  14.128   2.883
17671W        W89931  36.961  13.665  11.112
17672W        W89932  17.718  13.658  12.438
17673W        W89933  32.521  27.563  12.826
17674W        W89934  19.070  18.562  11.455
17675W        W89935  23.059  27.945   2.243
17676W        W89936  12.655   8.216  14.467
17677W        W89937  21.031  20.527  14.313
17678W        W89938  14.826   4.858  11.991
17679W        W89939  33.990  27.061   2.759
17680W        W89940  33.400   0.283  14.801
17681W        W89941  18.136  30.545  14.452
17682W        W89942  10.732  40.880  14.850
17683W        W89943  34.878  17.245   1.420
17684W        W89944  13.747   6.356  13.852
17685W        W89945   6.243   1.265  11.432
17686W        W89946  32.976  44.390  11.406
17687W        W89947  10.303  23.635  10.576
17688W        W89948  17.624   4.212  14.913
17689W        W89949  13.338  14.608   0.246
17690W        W89950  43.926  24.585  11.578
17691W        W89951  27.113  16.112  10.559
17692W        W89952  32.603  34.018   0.917
17693W        W89953  34.523  32.435   0.374
17694W        W89954  26.468   4.429  13.826
17695W        W89955   6.357  26.044   0.476
17696W        W89956  12.267  21.141  14.369
17697W        W89957  40.324  33.882  12.073
17698W        W89958   9.386  23.100  12.874
17699W        W89959  33.984  38.910  10.644
17700W        W89960  23.182  30.584   4.780
17701W        W89961  27.462  14.253   4.170
17702W        W89962  28.167  17.181  13.933
17703W        W89963  22.143  17.108   2.204
17704W        W89964  23.201   8.811   4.617
17705W        W89965  23.094  41.410  14.800
17706W        W89966  16.760  39.541   4.209
17707W        W89967   7.777  25.142  12.837
17708W        W89968  29.032   7.329  13.352
17709W        W89969  28.054  21.520   4.600
17710W        W89970   9.290   3.428  14.466
17711W        W89971  44.945   1.822  14.961
17712W        W89972  25.060  19.661  13.975
17713W        W89973  11.672  32.043   4.210
17714W        W89974  37.956  43.429   0.781
17715W        W89975  33.883  38.436   4.129
17716W        W89976  26.661  42.437   3.723
17717W        W89977   4.797  16.688   1.336
17718W        W89978  36.019  37.042  10.596
17719W        W89979   9.796  24.545  14.845
17720W        W89980  13.710  29.500  13.322
17721W        W89981  11.239  26.076  10.927
17722W        W89982  19.732  35.488  14.356
17723W        W89983  30.534  36.952   4.220
17724W        W89984  22.685  12.336  12.920
17725W        W89985  23.074  24.134   1.822
17726W        W89986  36.934   8.359  14.867
17727W        W89987  26.152  39.005   0.378
17728W        W89988  28.950  22.118   2.817
17729W        W89989   7.282  20.039   2.387
17730W        W89990  29.558   1.425   3.755
17731W        W89991  33.926  41.488  10.450
17732W        W89992  20.671  32.629  14.300
17733W        W89993  12.269  16.181   2.698
17734W        W89994  20.767  20.671  14.515
17735W        W89995  42.352  15.281  13.405
17736W        W89996  10.685  17.660   1.357
17737W        W89997   8.845  16.277  14.866
17738W        W89998  34.479  18.718  14.945
17739W        W89999  40.511  24.099   0.842
17740W        W90000  39.815  43.975   1.407
17741W        W90001  41.904   8.748   4.248
17742W        W90002  19.158  34.474   2.822
17743W        W90003  22.133  36.021  12.421
17744W        W90004  42.913  16.654   2.263
17745W        W90005   1.436  17.170  12.840
17746W        W90006  21.033   5.882  11.519
17747W        W90007  25.660  31.578   3.285
17748W        W90008  26.130   8.378  11.948
17749W        W90009   9.874  16.318  12.410
17750W        W90010  14.210  44.878  14.005
17751W        W90011  40.496  40.389   3.690
17752W        W90012  32.492  41.295   0.908
17753W        W90013  37.988  23.685   2.222
17754W        W90014  24.106  40.355  14.502
17755W        W90015   7.279  10.214   3.856
17756W        W90016  21.572   3.269  11.045
17757W        W90017  24.690  15.725  13.841
17758W        W90018  33.970   8.812  11.475
17759W        W90019  14.297  37.934  11.405
17760W        W90020   5.248   1.955   3.781
17761W        W90021  13.690   3.337   3.376
17762W        W90022  24.207   7.334   1.450
17763W        W90023  33.116  38.548   4.172
17764W        W90024  16.568   2.433  14.790
17765W        W90025   3.367  14.675   3.815
17766W        W90026   6.798  41.829  13.828
17767W        W90027  36.064  33.600   3.718
17768W        W90028  42.445   5.287  11.516
17769W        W90029  37.342   2.411  14.955
17770W        W90030  23.052   3.919   1.909
17771W        W90031  41.316  10.328  12.493
17772W        W90032   6.193  15.641   3.664
17773W        W90033  38.454  31.600  14.294
17774W        W90034  39.545  35.037  14.396
17775W        W90035  22.674   0.277  13.491
17776W        W90036  31.019   2.935   4.197
17777W        W90037  30.454   6.834   3.823
17778W        W90038  40.841  20.564   1.932
17779W        W90039   0.424  33.385  12.407
17780W        W90040   7.904   1.865  10.562
17781W        W90041  24.215  31.984  14.019
17782W        W90042  23.064  26.654   0.415
17783W        W90043  44.826  16.142  14.934
17784W        W90044  22.081   2.911  12.560
17785W        W90045  24.228  32.454  10.431
17786W        W90046   3.294  10.779   0.442
17787W        W90047  41.327  22.061  14.988
17788W        W90048   5.430  35.039   1.312
17789W        W90049  17.264  18.238   3.676
17790W        W90050  14.811   3.945   3.680
17791W        W90051   9.687   8.771   4.694
17792W        W90052   1.246  21.124  14.287
17793W        W90053   7.313   5.228   3.236
17794W        W90054  23.041  34.504   3.367
17795W        W90055   6.198   4.379   4.328
17796W        W90056  29.951  44.286  12.979
17797W        W90057  42.358  44.335  13.839
17798W        W90058  23.222  38.016   3.723
17799W        W90059  42.498  13.247  10.471
17800W        W90060  27.171  31.407  10.921
17801W        W90061  36.573  36.499   4.706
17802W        W90062  44.923  24.090  12.435
17803W        W90063  30.516  10.382  14.961
17804W        W90064   5.732  28.081   4.223
17805W        W90065   5.360   7.343   1.867
17806W        W90066  24.600  28.675   0.390
17807W        W90067  35.360  24.049   1.290
17808W        W90068  44.972  39.871  14.816
17809W        W90069  21.169  39.871   3.652
17810W        W90070   4.910   4.275  11.111
17811W        W90071  38.860   9.718   4.664
17812W        W90072   8.383  38.042   2.781
17813W        W90073  15.677  35.504   1.404
17814W        W90074  41.041  13.843  12.490
17815W        W90075  17.729  39.468   3.155
17816W        W90076  11.331  43.504  14.481
17817W        W90077  43.507  15.582  13.356
17818W        W90078  16.675  20.747   1.391
17819W        W90079  10.332  36.496   1.266
17820W        W90080  14.247  39.391  11.415
17821W        W90081  27.957   8.361   3.301
17822W        W90082  38.956  38.958   5.292
17823W        W90083   5.216  39.337  12.436
17824W        W90084  41.332  33.926   4.792
17825W        W90085  22.642  43.272  13.873
17826W        W90086   0.302  14.197   1.847
17827W        W90087  25.072  18.706  12.374
17828W        W90088  22.043  39.957  12.398
17829W        W90089  36.055  25.991   3.869
17830W        W90090  39.937  23.109   2.874
17831W        W90091   3.802  34.614  11.078
17832W        W90092  32.894  32.058  11.089
17833W        W90093  18.665  10.160  10.042
17834W        W90094  21.123  36.459   3.807
17835W        W90095  16.154   5.427  10.938
17836W        W90096  25.074  40.981   1.787
17837W        W90097  41.486  17.713  10.454
17838W        W90098  14.215  28.497  13.383
17839W        W90099  16.121  11.368  10.439
17840W        W90100  32.452  15.118   2.857
17841W        W90101   7.204  43.901   2.704
17842W        W90102  20.700  20.123  13.047
17843W        W90103  17.190   0.989   1.781
17844W        W90104  17.627  40.007  14.017
17845W        W90105  12.647  38.937   2.269
17846W        W90106  37.440  10.202   4.202
17847W        W90107  12.274  30.982  13.810
17848W        W90108  19.266  44.468   1.866
17849W        W90109  25.667  19.750  13.330
17850W        W90110  18.128  37.893   4.136
17851W        W90111  12.353  24.097   4.785
17852W        W90112  44.268  38.440   0.322
17853W        W90113  39.042  39.946   4.770
17854W        W90114  30.531  20.662  11.608
17855W        W90115  44.404   3.797   1.249
17856W        W90116  17.194  41.487  11.553
17857W        W90117  33.111  39.866  10.635
17858W        W90118  34.023   7.334   0.738
17859W        W90119  21.178   3.323  13.831
17860W        W90120  21.023  28.981   1.439
17861W        W90121   7.681  16.266  12.554
17862W        W90122  20.665   7.782   0.739
17863W        W90123  41.466  12.691  12.927
17864W        W90124  28.515  13.810  12.888
17865W        W90125  30.612  37.570   3.202
17866W        W90126  34.531  20.124   5.181
17867W        W90127   4.387  28.656   0.292
17868W        W90128  44.915  14.272   5.237
17869W        W90129  12.234  36.060   4.186
17870W        W90130  32.567  28.013   3.256
17871W        W90131  25.004  21.100  13.929
17872W        W90132  13.268  29.615   0.435
17873W        W90133  33.082  21.725   0.272
17874W        W90134   5.868  23.039   1.744
17875W        W90135  12.624  22.559  14.951
17876W        W90136  35.415  27.003   1.355
17877W        W90137  43.962  28.651  10.464
17878W        W90138  16.584  11.678   1.901
17879W        W90139   8.323  14.252  10.601
17880W        W90140  13.121  31.438  13.331
17881W        W90141  27.513  36.398   3.865
17882W        W90142  33.110  29.963  13.476
17883W        W90143   1.288  11.188  13.936
17884W        W90144  37.976  31.489   2.322
17885W        W90145  37.391  11.694   4.122
17886W        W90146  17.121   7.907   5.240
17887W        W90147  23.684  32.509  12.465
17888W        W90148   1.869  43.369   4.242
17889W        W90149   9.848   5.304  14.894
17890W        W90150   6.249  34.412  12.456
17891W        W90151  21.719  34.563  12.046
17892W        W90152  25.175  37.557   1.386
17893W        W90153  17.685  27.536  11.873
17894W        W90154   6.226  27.668   0.415
17895W        W90155  34.507  33.995  12.932
17896W        W90156   5.907   9.383   2.200
17897W        W90157  43.458  31.437   3.207
17898W        W90158  34.909  20.213  10.899
17899W        W90159   6.190  30.953   1.416
17900W        W90160  42.872  30.964   1.232
17901W        W90161   0.852  34.066  10.515
17902W        W90162  14.204  43.362   0.830
17903W        W90163  26.136  22.512  13.463
17904W        W90164  16.098  30.538   4.694
17905W        W90165  31.002  12.168   2.903
17906W        W90166  19.238  26.017   4.347
17907W        W90167  17.070  37.949   1.931
17908W        W90168  33.100  42.860   3.164
17909W        W90169  41.844   5.915  12.548
17910W        W90170  21.232  22.519   0.743
17911W        W90171   7.668   9.777   1.789
17912W        W90172  38.914  38.057  14.862
17913W        W90173   5.401   3.889   2.342
17914W        W90174  24.220   3.301  11.937
17915W        W90175  39.022   6.339  13.487
17916W        W90176  33.479   7.877  10.616
17917W        W90177  30.095  13.693  14.005
17918W        W90178  27.659  24.027  14.401
17919W        W90179  34.431  27.656   1.807
17920W        W90180   5.330  36.420  11.072
17921W        W90181  40.371  37.975  11.022
17922W        W90182  35.568  29.049   1.859
17923W        W90183   0.960  26.542   3.763
17924W        W90184   3.854  11.231  10.412
17925W        W90185  39.841   4.922   0.963
17926W        W90186  43.340  44.824  13.526
17927W        W90187  42.438  25.202  12.042
17928W        W90188  17.788   8.396  12.434
17929W        W90189  32.077  43.509  13.536
17930W        W90190  12.828  22.206   3.852
17931W        W90191  34.556  30.469  12.542
17932W        W90192   6.791  40.368   0.298
17933W        W90193  15.288  40.955   4.751
17934W        W90194   0.876  44.888   2.331
17935W        W90195  26.100  40.971   9.596
17936W        W90196   1.864  42.288  12.945
17937W        W90197  21.188   1.446  14.504
17938W        W90198  41.965  10.255   4.237
17939W        W90199  32.458  20.733  13.932
17940W        W90200   1.406  13.769  10.554
17941W        W90201  19.693  13.657  11.408
17942W        W90202  36.866  31.528  13.004
17943W        W90203  40.429  28.132   1.715
17944W        W90204  17.578  26.561   2.298
17945W        W90205  24.164  17.769   4.752
17946W        W90206  34.999  39.357  14.792
17947W        W90207  35.932  29.120   2.842
17948W        W90208  37.953  16.311  12.982
17949W        W90209   9.273  18.294  13.928
17950W        W90210   3.430  37.831   4.349
17951W        W90211  20.579  40.536  12.019
17952W        W90212  25.167  40.836  14.866
17953W        W90213  22.155  18.185   1.414
17954W        W90214  38.840  22.056  12.053
17955W        W90215   2.800  32.496  10.974
17956W        W90216  39.992  39.405  10.915
17957W        W90217   3.280  15.187   4.780
17958W        W90218  28.970  33.493   4.828
17959W        W90219  26.126  18.095   2.201
17960W        W90220   6.738   7.229   3.234
17961W        W90221  16.678  11.211   1.844
17962W        W90222  31.069   5.392   2.226
17963W        W90223  30.434  21.074   5.196
17964W        W90224  17.133  16.231   4.797
17965W        W90225  27.573  36.473  11.960
17966W        W90226  31.641   1.890   3.806
17967W        W90227  24.129   8.161   2.243
17968W        W90228  40.040  15.707   2.408
17969W        W90229  21.719  10.358   4.225
17970W        W90230  13.218   2.808  12.874
17971W        W90231   9.715  42.430   3.660
17972W        W90232  32.096  20.592  11.097
17973W        W90233  27.045  33.468  14.820
17974W        W90234  21.244  16.127  13.904
17975W        W90235  34.008  34.026   0.483
17976W        W90236  31.535  19.136  11.009
17977W        W90237  37.969  41.860   4.644
17978W        W90238  35.987  19.210  11.966
17979W        W90239  30.591  14.759  14.450
17980W        W90240  24.056  16.678   1.759
17981W        W90241  29.618  31.111   9.945
17982W        W90242   2.236  35.536  14.840
17983W        W90243  39.828  27.130  11.484
17984W        W90244  21.071   1.850  14.406
17985W        W90245   5.249   7.339   0.797
17986W        W90246  17.557   3.411  12.859
17987W        W90247   1.875   3.362  11.604
17988W        W90248  34.105  21.695   1.366
17989W        W90249  28.636   5.199   3.227
17990W        W90250  29.985   5.278   2.881
17991W        W90251  34.983  15.162  11.530
17992W        W90252  10.632  39.841  13.935
17993W        W90253   3.374   3.765  12.396
17994W        W90254  12.784  38.050   2.362
17995W        W90255  12.736  23.635  13.861
17996W        W90256  26.662  33.955  14.921
17997W        W90257  43.851  11.790  12.080
17998W        W90258   3.723  36.393   2.196
17999W        W90259   3.716   6.292  10.932
18000W        W90260   5.872  34.536  14.968
18001W        W90261   1.846  36.002  13.450
18002W        W90262  25.709  25.137   4.760
18003W        W90263  21.017  33.528  13.329
18004W        W90264  12.719   7.329   4.812
18005W        W90265   6.212  26.675  13.492
18006W        W90266  32.443  39.018   4.322
18007W        W90267  30.149   7.704  14.791
18008W        W90268  31.062  11.762   5.105
18009W        W90269  13.670  43.468   4.146
18010W        W90270  19.122  10.335  13.460
18011W        W90271  29.142  38.869  14.812
18012W        W90272  24.591  32.477   3.851
18013W        W90273  23.736  32.922  11.377
18014W        W90274  39.003   1.967   5.157
18015W        W90275  42.404  12.637   1.812
18016W        W90276   5.690  35.924  14.946
18017W        W90277  18.247  13.244   4.681
18018W        W90278   4.715   1.468   2.236
18019W        W90279   3.858  44.970   2.341
18020W        W90280   5.297  27.577   2.730
18021W        W90281  29.500  26.540   2.786
18022W        W90282  10.788  10.738  12.579
18023W        W90283  36.895  44.960   2.714
18024W        W90284  34.375   1.331  12.847
18025W        W90285   6.843  17.620   2.868
18026W        W90286  15.790  19.114   1.703
18027W        W90287  25.144  44.792   4.225
18028W        W90288  43.356  38.542  13.960
18029W        W90289  44.328   8.365  14.808
18030W        W90290  38.481  37.484   3.681
18031W        W90291  22.641  43.885   1.876
18032W        W90292  19.757  12.198  12.074
18033W        W90293  43.820  41.799  13.446
18034W        W90294  12.696  15.245  12.860
18035W        W90295  11.807  31.141   2.820
18036W        W90296  22.088  34.376   1.381
18037W        W90297   0.980  30.025   2.693
18038W        W90298  39.391  24.651  11.511
18039W        W90299  32.580   2.818  10.454
18040W        W90300   8.386  10.654   1.405
18041W        W90301  39.318   0.767   1.217
18042W        W90302  42.900  43.383   2.391
18043W        W90303  29.095  15.304   4.171
18044W        W90304  25.639  32.430   2.210
18045W        W90305   2.320   3.371  10.454
18046W        W90306  24.586  29.106   2.357
18047W        W90307   4.240  22.196  12.022
18048W        W90308   4.386  34.537  12.481
18049W        W90309   2.228  13.649   0.452
18050W        W90310   5.795  14.185   0.379
18051W        W90311   9.311  32.008   0.364
18052W        W90312  13.764  16.314   2.667
18053W        W90313  40.497  43.941   4.307
18054W        W90314  24.186   8.385   3.223
18055W        W90315  31.409   4.274  11.876
18056W        W90316   7.202   8.762  13.338
18057W        W90317  34.086   2.452  12.999
18058W        W90318  25.712  43.953  12.506
18059W        W90319  26.061  29.109  13.901
18060W        W90320  34.114   9.860   4.718
18061W        W90321  14.156  13.648   1.338
18062W        W90322  17.751  20.229  13.047
18063W        W90323   3.297  23.034   2.704
18064W        W90324  44.500  19.587   2.314
18065W        W90325  18.294   5.836  13.017
18066W        W90326   9.198  37.462   4.114
18067W        W90327  37.406  26.088  11.500
18068W        W90328  28.172  37.352   1.379
18069W        W90329  20.723  34.579   2.668
18070W        W90330  29.945   3.764  10.973
18071W        W90331  30.112  26.479   3.636
18072W        W90332  32.020   7.828  12.014
18073W        W90333  25.694  26.047   1.345
18074W        W90334  30.416   5.794   1.896
18075W        W90335  23.084  28.982  10.160
18076W        W90336   8.242  14.126   2.806
18077W        W90337  13.639  38.025  10.505
18078W        W90338  35.039  19.234  10.072
18079W        W90339  32.011   2.847  13.490
18080W        W90340  38.520  11.302   0.748
18081W        W90341  24.226  28.968  10.503
18082W        W90342  40.394  15.633  14.823
18083W        W90343  33.563   8.404  10.967
18084W        W90344  23.230  37.407   4.640
18085W        W90345  39.462  36.354   3.153
18086W        W90346  22.536  25.130  12.027
18087W        W90347  16.174  11.261  12.059
18088W        W90348  20.616  21.023   4.663
18089W        W90349  32.031  38.916   3.720
18090W        W90350  16.305  44.262   1.764
18091W        W90351  19.045  34.936  14.862
18092W        W90352  27.965   8.334  12.379
18093W        W90353  26.118  36.096  13.430
18094W        W90354  26.039  21.582  10.538
18095W        W90355  41.884   8.319  12.006
18096W        W90356  28.596   5.901  12.934
18097W        W90357   0.931   7.190  14.487
18098W        W90358   8.355  43.460   3.278
18099W        W90359  34.892  42.844  13.949
18100W        W90360  17.113  29.606   4.344
18101W        W90361  26.534  42.471   1.225
18102W        W90362   3.944  39.969   2.356
18103W        W90363  29.060   8.766  12.506
18104W        W90364  15.256  42.316  13.315
18105W        W90365  16.090  41.799  13.324
18106W        W90366  26.597  33.103   2.835
18107W        W90367  26.520   5.754  12.092
18108W        W90368  28.512  29.477   0.798
18109W        W90369  30.983  33.452  12.989
18110W        W90370  22.102  11.264  14.320
18111W        W90371   0.916  26.554  14.907
18112W        W90372   4.707  23.052   4.696
18113W        W90373  19.764  13.194   1.414
18114W        W90374  20.184  32.017   3.686
18115W        W90375  29.584  40.864  13.531
18116W        W90376  36.487  40.433   0.939
18117W        W90377  26.961   9.284  12.556
18118W        W90378  25.022   3.907   3.296
18119W        W90379  27.082  32.897  14.393
18120W        W90380  16.657  15.707   2.813
18121W        W90381  21.618  17.261   2.845
18122W        W90382  15.124  28.090  14.891
18123W        W90383   4.788  28.586  11.563
18124W        W90384  14.747  37.038   4.256
18125W        W90385   2.267  32.970   0.467
18126W        W90386  44.886  11.816   1.389
18127W        W90387  42.959  17.593  14.286
18128W        W90388  29.546  23.172   3.277
18129W        W90389  44.336  26.119  12.996
18130W        W90390  43.974  25.072  12.939
18131W        W90391  25.090   1.829   2.721
18132W        W90392  14.813  32.540  11.479
18133W        W90393  39.459   4.799   3.663
18134W        W90394  26.954   8.745  14.431
18135W        W90395   0.308  12.705  10.920
18136W        W90396  44.277   2.832   0.369
18137W        W90397  33.445   7.343  12.907
18138W        W90398  10.165  21.166   2.855
18139W        W90399  29.988  43.410  11.091
18140W        W90400  33.121  34.062  10.442
18141W        W90401  10.800  28.043   3.825
18142W        W90402   8.774   5.818   2.220
18143W        W90403  16.233  33.589  11.550
18144W        W90404   0.435   9.373  11.109
18145W        W90405   3.388  39.028   5.308
18146W        W90406  16.595  41.004   3.210
18147W        W90407  31.111   6.240   4.168
18148W        W90408  21.171  29.031   2.228
18149W        W90409  33.411  42.794   4.755
18150W        W90410  33.988  12.623  10.962
18151W        W90411  16.755  40.996  10.473
18152W        W90412   6.919  33.951  11.908
18153W        W90413   3.224  14.317   0.943
18154W        W90414  14.642  26.087  14.821
18155W        W90415   3.373   5.368   3.640
18156W        W90416   1.769  25.626   4.169
18157W        W90417   1.786   5.392  13.797
18158W        W90418  12.215  40.891  12.938
18159W        W90419  43.387  37.909  12.479
18160W        W90420  18.700   9.285  13.891
18161W        W90421  34.876  12.165   2.852
18162W        W90422  12.321  42.337   4.142
18163W        W90423   9.702  12.323  13.852
18164W        W90424  37.931   3.326   0.416
18165W        W90425   8.723  26.616  13.441
18166W        W90426  36.926  17.637  11.421
18167W        W90427  12.771  25.080   0.389
18168W        W90428  12.675  19.239  10.548
18169W        W90429  10.825  24.185   3.235
18170W        W90430  26.592  32.031   0.745
18171W        W90431  44.794  31.943   1.259
18172W        W90432  22.704  36.927   1.899
18173W        W90433  39.824  43.305   3.386
18174W        W90434  16.266   5.268   3.717
18175W        W90435  21.522  14.270   3.821
18176W        W90436  27.640  21.687  14.876
18177W        W90437  18.220   6.908  12.574
18178W        W90438  36.466  23.020   2.289
18179W        W90439  34.597   1.374   0.799
18180W        W90440  41.916  29.090   0.370
18181W        W90441   6.730  14.752   0.774
18182W        W90442   2.279  42.367   1.422
18183W        W90443  20.576  41.466   1.372
18184W        W90444  24.650  13.782   1.790
18185W        W90445  13.817   9.769   1.809
18186W        W90446  41.433  36.354  10.638
18187W        W90447   8.861  41.336  13.375
18188W        W90448  43.016  15.796   3.165
18189W        W90449  28.169  15.639   1.280
18190W        W90450  15.128   6.253   2.245
18191W        W90451   4.368  10.797   1.769
18192W        W90452  11.131  17.201   4.613
18193W        W90453  37.352   8.166  11.910
18194W        W90454  30.149  20.254   3.345
18195W        W90455   9.859  30.603  13.836
18196W        W90456   0.295   1.385   0.861
18197W        W90457  24.154  44.386  10.613
18198W        W90458  34.964  18.198   1.320
18199W        W90459   8.862  34.485   3.222
18200W        W90460   4.385  13.756  13.034
18201W        W90461  29.034   7.242   4.275
18202W        W90462  24.191  19.142  11.861
18203W        W90463  26.025  17.710   2.384
18204W        W90464  37.399   0.410  12.020
18205W        W90465   3.457  23.048  10.953
18206W        W90466  32.937  29.644   4.816
18207W        W90467  27.102  41.498  12.869
18208W        W90468  18.288  43.888  12.890
18209W        W90469  33.614  24.503   0.440
18210W        W90470  35.531  32.117   2.221
18211W        W90471  23.698   3.290  12.355
18212W        W90472  41.512   7.209   2.189
18213W        W90473  13.702  22.181   4.802
18214W        W90474  34.906   4.792  14.316
18215W        W90475   9.226   5.735   1.213
18216W        W90476  14.339  39.821  13.798
18217W        W90477  43.383  19.647  12.359
18218W        W90478  37.573  17.133   0.742
18219W        W90479   8.189  38.939   2.903
18220W        W90480  44.496  10.869  14.336
18221W        W90481  40.863  13.112   1.248
18222W        W90482  11.685  43.393   4.623
18223W        W90483  28.028  16.270   2.816
18224W        W90484  13.299  12.361   3.244
18225W        W90485  17.737  14.133  11.566
18226W        W90486  18.297   2.898   1.898
18227W        W90487  31.613   0.798  14.463
18228W        W90488  15.698  40.986  11.597
18229W        W90489  38.472  25.181   2.735
18230W        W90490  23.626  13.282  12.396
18231W        W90491  36.352  21.631   0.462
18232W        W90492  33.430  41.800  12.059
18233W        W90493  10.862  42.482  14.941
18234W        W90494   8.685   6.231   5.311
18235W        W90495  44.006  22.087  14.013
18236W        W90496  37.850  11.345   3.684
18237W        W90497  33.429  15.126   1.348
18238W        W90498  24.038  32.923  14.464
18239W        W90499  11.785  37.378   1.244
18240W        W90500  31.547  10.779  13.461
18241W        W90501  39.929  20.630  13.544
18242W        W90502  37.993  11.283   0.359
18243W        W90503  18.726   6.383  11.454
18244W        W90504   0.897   3.416  12.839
18245W        W90505   9.864  41.033   0.320
18246W        W90506  30.147  43.314  10.554
18247W        W90507   5.879  25.095   1.216
18248W        W90508  25.106   8.245  14.984
18249W        W90509   0.470  33.470   2.688
18250W        W90510  22.175  18.754   5.668
18251W        W90511  38.979  32.997   4.330
18252W        W90512  10.633  17.685   3.701
18253W        W90513  44.277  25.040  12.978
18254W        W90514  34.087  22.249  12.919
18255W        W90515  41.902  37.570   3.186
18256W        W90516  42.322  21.043   0.390
18257W        W90517  32.415  37.033  10.539
18258W        W90518   2.301  38.352  14.807
18259W        W90519   6.347  27.009   9.983
18260W        W90520  23.730   1.791   3.846
18261W        W90521  13.640  30.139  10.625
18262W        W90522   8.865  32.900  12.048
18263W        W90523  33.426  12.785   1.806
18264W        W90524  34.479  34.550  10.962
18265W        W90525   0.778  44.383   2.347
18266W        W90526  23.703  21.643  14.868
18267W        W90527  43.925  11.802  14.786
18268W        W90528  27.554   8.234   1.417
18269W        W90529  29.140  44.470   1.388
18270W        W90530   1.287  30.003  10.611
18271W        W90531  32.936   4.708  13.024
18272W        W90532  28.558  14.625   0.939
18273W        W90533  29.130  17.090   1.269
18274W        W90534  33.038  15.113   3.302
18275W        W90535  21.184  10.649  13.458
18276W        W90536  26.653  38.835   4.309
18277W        W90537   1.422   9.744  12.466
18278W        W90538  13.158  39.390  12.375
18279W        W90539  43.503  28.945   3.244
18280W        W90540  42.476  29.023  13.801
18281W        W90541   1.400  20.560   0.275
18282W        W90542   5.370  16.573   2.295
18283W        W90543  44.887  19.208   0.850
18284W        W90544  13.673  20.208  13.437
18285W        W90545   9.786  30.952  10.550
18286W        W90546  35.067  12.184  11.005
18287W        W90547  34.070   3.262  13.410
18288W        W90548  44.969  41.296   0.266
18289W        W90549  44.806   0.477   0.794
18290W        W90550   6.910   0.878  11.612
18291W        W90551  28.487  19.075  12.374
18292W        W90552  33.944  28.932   4.261
18293W        W90553  36.908  29.467  11.055
18294W        W90554   4.319  35.472   2.796
18295W        W90555  37.552  39.468   4.737
18296W        W90556   7.823  22.079   0.304
18297W        W90557  12.272  42.321  13.381
18298W        W90558  33.018   9.231  14.330
18299W        W90559  16.230  43.887   2.316
18300W        W90560   1.290   6.773   1.746
18301W        W90561   8.867   0.859   2.752
18302W        W90562  36.059  27.661   1.889
18303W        W90563  27.564  18.667  11.371
18304W        W90564  36.072  28.039  12.429
18305W        W90565   9.307  34.612   2.707
18306W        W90566  18.254  37.541   0.780
18307W        W90567  14.199  35.934  14.371
18308W        W90568  12.293  10.683  11.385
18309W        W90569   6.894  24.041  14.767
18310W        W90570  24.698  36.909   0.342
18311W        W90571  31.975   5.221  13.915
18312W        W90572  11.822  10.823   0.335
18313W        W90573  29.564  30.488  12.527
18314W        W90574  24.117  44.335   0.260
18315W        W90575  23.688  33.935  11.490
18316W        W90576  19.262  16.664   1.405
18317W        W90577  15.258  24.701   2.801
18318W        W90578   3.215   5.707   1.922
18319W        W90579   4.749  26.136  14.907
18320W        W90580   7.880  20.699   0.352
18321W        W90581  28.183  32.938   2.692
18322W        W90582   0.289  22.594   0.427
18323W        W90583  13.215  36.405  12.904
18324W        W90584  23.239  29.660   1.755
18325W        W90585  15.148  42.935  12.557
18326W        W90586   7.879  23.214  13.907
18327W        W90587   2.421   5.293  14.798
18328W        W90588   5.352  20.174   3.633
18329W        W90589  29.543   3.795  13.965
18330W        W90590  40.834  38.026  11.407
18331W        W90591  44.951  24.169   9.936
18332W        W90592  26.511  17.071   2.380
18333W        W90593  39.827  10.198  13.007
18334W        W90594  37.058   1.345  10.501
18335W        W90595   2.934  34.488  14.915
18336W        W90596   1.938  23.578  14.984
18337W        W90597  28.999   0.978  12.504
18338W        W90598  43.795  37.441   5.299
18339W        W90599   0.411  19.733  13.034
18340W        W90600  24.064  28.514  11.119
18341W        W90601  39.542  11.741   3.853
18342W        W90602  18.723  35.601  14.298
18343W        W90603  18.579   7.672  12.084
18344W        W90604  34.865  18.552   0.762
18345W        W90605  13.240   7.170   0.733
18346W        W90606  25.210  40.966   2.795
18347W        W90607  25.626  30.449  10.066
18348W        W90608   8.884  13.173  13.499
18349W        W90609  39.377  22.025  10.618
18350W        W90610   8.260   7.343   3.281
18351W        W90611  17.093  10.805  11.977
18352W        W90612  31.143  30.629  13.926
18353W        W90613  44.789  40.531   4.271
18354W        W90614   9.768   0.971   1.356
18355W        W90615  18.697  43.925   1.222
18356W        W90616  21.552  26.998   4.135
18357W        W90617  34.936  24.712   0.950
18358W        W90618  41.297  39.385   2.814
18359W        W90619  40.547   9.783   2.748
18360W        W90620  13.808  21.519   1.328
18361W        W90621  35.363  18.729   3.386
18362W        W90622  22.233  16.714   0.805
18363W        W90623  29.083   4.761   1.216
18364W        W90624  20.191  19.609  11.519
18365W        W90625  38.550   4.309  10.614
18366W        W90626  26.996  40.330  10.466
18367W        W90627  28.955  11.257  11.936
18368W        W90628  19.200  44.801  13.535
18369W        W90629   1.972   8.798  14.501
18370W        W90630  26.055   5.797  11.917
18371W        W90631  36.980  35.037   2.205
18372W        W90632   2.262  41.830  11.451
18373W        W90633  25.186  11.369  13.346
18374W        W90634   4.295  19.776  12.505
18375W        W90635  11.340  25.217  14.890
18376W        W90636   0.867  39.932  11.030
18377W        W90637  15.697  24.093   2.768
18378W        W90638  14.618   2.900  14.448
18379W        W90639  42.896  42.776   4.666
18380W        W90640  26.989  20.707  13.885
18381W        W90641  11.344  18.243   2.837
18382W        W90642  28.461  31.072  12.546
18383W        W90643  30.092  43.295   3.718
18384W        W90644   4.789  37.000  10.607
18385W        W90645  14.663  28.659   4.726
18386W        W90646  40.034  17.781   2.820
18387W        W90647   2.405   4.831   1.803
18388W        W90648  44.898  35.553   2.373
18389W        W90649  28.443   3.292  10.544
18390W        W90650  39.980   0.317   3.163
18391W        W90651  24.689  37.454   2.709
18392W        W90652  18.067  17.227   4.789
18393W        W90653  20.089  20.615  12.480
18394W        W90654  16.790  39.921  14.456
18395W        W90655  37.868  44.884   2.284
18396W        W90656  33.979  26.080  11.550
18397W        W90657   0.370  39.455  14.983
18398W        W90658  39.870   4.814   2.813
18399W        W90659   4.701   4.357  11.488
18400W        W90660  19.551  29.970  10.979
18401W        W90661   7.681  29.008   4.600
18402W        W90662  26.576   9.366   0.829
18403W        W90663  38.324  11.295   4.628
18404W        W90664  18.727  15.602   3.857
18405W        W90665  20.032  23.054  12.435
18406W        W90666  19.275   6.250  13.412
18407W        W90667  44.873  43.781   0.373
18408W        W90668  21.070  11.679   2.682
18409W        W90669  34.091  40.996  11.372
18410W        W90670  23.606  39.986   3.179
18411W        W90671  17.698  22.575  14.879
18412W        W90672   0.405   7.852  13.517
18413W        W90673  15.209  11.846  11.057
18414W        W90674   7.693  35.503   2.403
18415W        W90675  17.143  21.126  12.446
18416W        W90676  19.587   3.384  11.985
18417W        W90677  39.022  28.962  14.958
18418W        W90678  25.046  18.281   0.734
18419W        W90679  21.157  22.174  14.969
18420W        W90680  23.601  19.215  13.437
18421W        W90681  15.301  29.054   1.224
18422W        W90682   6.331  30.596   5.168
18423W        W90683   9.801   0.924   0.480
18424W        W90684   1.776   5.778   4.125
18425W        W90685  27.647  23.707  13.042
18426W        W90686  16.766  31.520  12.949
18427W        W90687  39.340   3.951  11.092
18428W        W90688  29.609  18.577   4.263
18429W        W90689  10.675   6.889  11.504
18430W        W90690  36.070  42.966   5.285
18431W        W90691   3.867  13.705  13.814
18432W        W90692  10.334  44.418  14.330
18433W        W90693   4.248  36.894   1.353
18434W        W90694  44.788   4.315   1.344
18435W        W90695  29.650  30.514   3.230
18436W        W90696  23.641  41.815  11.492
18437W        W90697  12.842  13.699  10.593
18438W        W90698  13.842  25.480  11.484
18439W        W90699  27.010   1.788   3.722
18440W        W90700  37.388  19.043   1.843
18441W        W90701  27.648   0.252   4.317
18442W        W90702  13.155  34.868  11.510
18443W        W90703  38.876   7.388   4.163
18444W        W90704  18.119  23.177  12.059
18445W        W90705  27.485  16.799  13.927
18446W        W90706  22.078  37.357   0.803
18447W        W90707  36.448  14.116   5.186
18448W        W90708  38.431  40.540   4.129
18449W        W90709   2.840  18.195  13.951
18450W        W90710  30.519   3.851  12.823
18451W        W90711  20.218  18.754  12.901
18452W        W90712  34.588  39.049  12.055
18453W        W90713   4.815  10.659   0.473
18454W        W90714  22.144   5.819   0.250
18455W        W90715   9.344  44.370   3.691
18456W        W90716  36.503   4.926  11.573
18457W        W90717  21.186  18.081  10.421
18458W        W90718  30.915  16.623   3.654
18459W        W90719  23.161  36.515  14.374
18460W        W90720  34.020   3.833   3.842
18461W        W90721  39.560  37.384   1.409
18462W        W90722  11.135  28.464  12.969
18463W        W90723   7.279  27.106  12.067
18464W        W90724  27.064   2.288   2.301
18465W        W90725   8.756  20.053  14.904
18466W        W90726  17.621  20.681   1.359
18467W        W90727   2.395  39.530   0.751
18468W        W90728  34.039  37.835  10.960
18469W        W90729  23.122  25.615   9.977
18470W        W90730  29.165   3.335  14.290
18471W        W90731  19.274  15.110   4.254
18472W        W90732   0.425  38.530   3.222
18473W        W90733  44.797  12.277   4.215
18474W        W90734   9.834  35.410  10.619
18475W        W90735  21.212   3.742   0.453
18476W        W90736  37.863  43.008   3.831
18477W        W90737  22.734  40.801  11.093
18478W        W90738  32.019  34.449  13.976
18479W        W90739  22.616  25.093   2.729
18480W        W90740  44.765  28.070   3.147
18481W        W90741   7.766  18.691   1.326
18482W        W90742  13.716  21.243   4.344
18483W        W90743  44.799  32.430  12.443
18484W        W90744  37.461  10.166  10.149
18485W        W90745  27.485   4.252   4.304
18486W        W90746  23.123  27.565   3.156
18487W        W90747   5.401   3.382  11.922
18488W        W90748  13.268  15.719  13.407
18489W        W90749  37.869  28.934  12.547
18490W        W90750  41.952  33.413   4.664
18491W        W90751   3.327  11.698   2.821
18492W        W90752  11.318  30.584  14.836
18493W        W90753  11.863  12.838  14.284
18494W        W90754   3.917  30.527  10.567
18495W        W90755  35.505  26.568   2.195
18496W        W90756   0.860   6.225  11.543
18497W        W90757  44.812  38.037  11.091
18498W        W90758  26.580   8.270  14.800
18499W        W90759   7.248  36.012   0.793
18500W        W90760   8.883  34.922  12.432
18501W        W90761  10.639  17.101   2.402
18502W        W90762  23.553  10.284  11.937
18503W        W90763  24.167  25.039   5.132
18504W        W90764  11.855   1.249   2.347
18505W        W90765  21.579  44.837  13.493
18506W        W90766  23.123  34.541   1.852
18507W        W90767  35.407  25.472   3.724
18508W        W90768  31.004  39.501   3.157
18509W        W90769  17.188  21.255   3.738
18510W        W90770  39.370  31.009   0.748
18511W        W90771  11.754   2.769   1.808
18512W        W90772   3.427  13.330  12.894
18513W        W90773  24.075  22.049  13.882
18514W        W90774   2.381   3.313   4.601
18515W        W90775   6.884  29.101   3.314
18516W        W90776  36.453  10.362   0.909
18517W        W90777  20.692   9.241   4.129
18518W        W90778  20.684  33.617  10.932
18519W        W90779  15.583  42.007   1.425
18520W        W90780  40.430  20.630  13.060
18521W        W90781  20.603  37.932   3.632
18522W        W90782  31.934   1.340   4.131
18523W        W90783  17.250   4.883   3.314
18524W        W90784  43.853  22.594  13.316
18525W        W90785  13.105  34.591  10.565
18526W        W90786  33.568  30.070   9.930
18527W        W90787  33.513   9.794  12.001
18528W        W90788   8.247  39.962  14.929
18529W        W90789  33.533  31.066   4.830
18530W        W90790  15.140  37.938  12.913
18531W        W90791  11.369   3.238   3.863
18532W        W90792   1.418  11.364  11.522
18533W        W90793  31.527  33.468  10.552
18534W        W90794  40.025  14.664  13.360
18535W        W90795  42.312  29.109  14.991
18536W        W90796  36.944  43.421   1.834
18537W        W90797  10.815  37.445  13.446
18538W        W90798  38.894  20.619   1.433
18539W        W90799  37.497  23.519  10.117
18540W        W90800  43.456  43.975  14.327
18541W        W90801   0.767   1.346  11.506
18542W        W90802  10.845  11.698  13.942
18543W        W90803  13.233  26.171  12.409
18544W        W90804  35.976   2.955   0.446
18545W        W90805  12.270  44.893  13.503
18546W        W90806   9.213  30.034  10.579
18547W        W90807  20.078  31.986   2.336
18548W        W90808   3.316  17.277  11.430
18549W        W90809  11.167  41.004   4.822
18550W        W90810  17.602   2.297   3.825
18551W        W90811   4.418  15.084  10.440
18552W        W90812  43.360  35.434   3.664
18553W        W90813   0.346  22.244  10.411
18554W        W90814  24.723  32.553   0.966
18555W        W90815  30.584  30.517  13.940
18556W        W90816  40.404   0.419   2.259
18557W        W90817  34.409   1.237   1.374
18558W        W90818  25.696  21.261  10.537
18559W        W90819   9.794  41.366  11.464
18560W        W90820  17.173  32.472  13.310
18561W        W90821  23.652  40.847  14.445
18562W        W90822  15.584  25.968   4.800
18563W        W90823  21.598  25.640  12.873
18564W        W90824   5.379  20.713   4.803
18565W        W90825  41.947  40.829  14.810
18566W        W90826  30.954  19.668  14.029
18567W        W90827  31.071  18.658   4.169
18568W        W90828  15.214  40.906  11.906
18569W        W90829  21.171  16.220  11.574
18570W        W90830  31.123  39.462   3.870
18571W        W90831   9.295   5.387   0.479
18572W        W90832  18.195  30.149   4.245
18573W        W90833  23.101  27.536  11.008
18574W        W90834  44.302  26.461   3.719
18575W        W90835   1.768  41.430  11.471
18576W        W90836   8.287  31.939   4.197
18577W        W90837  41.333  29.645  12.004
18578W        W90838  17.759  18.088  11.416
18579W        W90839  23.663  30.582   4.301
18580W        W90840  27.552  15.326   4.160
18581W        W90841  44.434  10.353  14.901
18582W        W90842   1.444  10.632   1.819
18583W        W90843  32.090  39.891   1.269
18584W        W90844  21.134  42.865   0.419
18585W        W90845  23.634  37.524   0.345
18586W        W90846  29.075  30.488   1.421
18587W        W90847  20.219   5.404  14.395
18588W        W90848  25.477  14.773  11.447
18589W        W90849  37.908   0.845   4.627
18590W        W90850  16.657  42.951   1.743
18591W        W90851  27.994  30.933   3.700
18592W        W90852  24.642   8.740   4.687
18593W        W90853  14.170  37.067   2.871
18594W        W90854  17.732  15.187  10.570
18595W        W90855   4.250  43.830   1.329
18596W        W90856   9.204  16.155  11.580
18597W        W90857   5.729   5.777   3.357
18598W        W90858  41.356  25.550   2.815
18599W        W90859  40.883  19.053   1.334
18600W        W90860  12.288  12.171   2.742
18601W        W90861  10.338   5.842  13.951
18602W        W90862  30.631  10.170   3.836
18603W        W90863  18.246  24.514  14.335
18604W        W90864  26.498  43.304   0.785
18605W        W90865  25.094  27.033   2.665
18606W        W90866   3.394  25.488  11.463
18607W        W90867  44.866  17.113  14.388
18608W        W90868  24.133  25.037  10.914
18609W        W90869  26.601  19.771   1.378
18610W        W90870  28.123  20.112   0.775
18611W        W90871   6.889  10.760  10.888
18612W        W90872   6.350  32.395  10.981
18613W        W90873  22.221   2.290  13.534
18614W        W90874  26.470  32.567  13.516
18615W        W90875   1.817  41.939   2.902
18616W        W90876  20.602   4.380   3.819
18617W        W90877   6.811  28.139   5.585
18618W        W90878  30.445  26.595  11.524
18619W        W90879  10.678  12.149  14.772
18620W        W90880  19.780   0.757   0.840
18621W        W90881  36.485  39.814   0.889
18622W        W90882  20.676  43.495  13.409
18623W        W90883  38.492  42.933   0.748
18624W        W90884   2.255  18.190  11.518
18625W        W90885  37.453  17.613  10.598
18626W        W90886  43.909  15.772  14.331
18627W        W90887   7.883   3.439   3.731
18628W        W90888   1.413  22.563  12.950
18629W        W90889  10.825  40.410   3.278
18630W        W90890  22.595  26.048  14.824
18631W        W90891  31.615  12.143  11.875
18632W        W90892  22.571  33.591  10.890
18633W        W90893  20.069  21.750   4.137
18634W        W90894  19.053  13.734  13.436
18635W        W90895   2.327  16.150  13.510
18636W        W90896  18.642  20.532  14.419
18637W        W90897  13.797   6.360   2.808
18638W        W90898  10.304  44.962  11.484
18639W        W90899   4.842  24.977  10.549
18640W        W90900  35.400  17.751   5.193
18641W        W90901  36.358   6.690   0.855
18642W        W90902  43.471  40.543   2.416
18643W        W90903   8.745   4.745   0.419
18644W        W90904  19.700  12.807   3.652
18645W        W90905  40.043  23.105   0.350
18646W        W90906  28.498  39.044   0.744
18647W        W90907  27.119  36.592  13.944
18648W        W90908  24.219  14.591   0.897
18649W        W90909  15.811  24.491  13.017
18650W        W90910   8.258  24.080   3.148
18651W        W90911  25.697  31.124  14.929
18652W        W90912  25.604  21.170  14.776
18653W        W90913  30.418  18.109   3.767
18654W        W90914  13.291  39.027  12.926
18655W        W90915   2.773  34.998   0.820
18656W        W90916  28.025   6.904   4.815
18657W        W90917  29.556   5.241   1.929
18658W        W90918  24.580  21.154  12.892
18659W        W90919  18.184  42.442   4.801
18660W        W90920   4.235  11.784  11.517
18661W        W90921   7.827   0.390   3.321
18662W        W90922   0.959  37.971  14.417
18663W        W90923  27.635   0.968  12.538
18664W        W90924  20.129   5.429  10.905
18665W        W90925  44.327  15.163   3.160
18666W        W90926  31.571  13.167   2.787
18667W        W90927  22.632   1.261   1.911
18668W        W90928  15.719  21.035   2.762
18669W        W90929   9.784   5.301   2.233
18670W        W90930  36.349  15.785   3.215
18671W        W90931  21.180  32.025  14.974
18672W        W90932  37.839  12.361  14.896
18673W        W90933  39.922  36.898  13.833
18674W        W90934  11.783   5.863  13.458
18675W        W90935  18.142  37.337   4.632
18676W        W90936  19.533   1.796   4.239
18677W        W90937  13.259  14.165   0.949
18678W        W90938  35.534   5.760  10.472
18679W        W90939   9.273   9.823   0.866
18680W        W90940  19.162  42.328  11.586
18681W        W90941  26.638   4.275   4.718
18682W        W90942   3.279  32.925  12.560
18683W        W90943  19.573   7.333   1.915
18684W        W90944   1.325   8.326  12.992
18685W        W90945  29.552  38.401  14.350
18686W        W90946   8.316   6.797   0.967
18687W        W90947  23.119  24.520   4.712
18688W        W90948  26.172  17.303   0.826
18689W        W90949  40.879  36.006   1.771
18690W        W90950  14.640   8.785  13.333
18691W        W90951   7.860  25.570   2.745
18692W        W90952  14.790  20.584   2.804
18693W        W90953  44.988  17.727  11.889
18694W        W90954  20.222  29.563   2.841
18695W        W90955  35.382   6.765  13.435
18696W        W90956  20.564   3.278  14.943
18697W        W90957  27.984  39.882  10.993
18698W        W90958  19.637   6.405   0.750
18699W        W90959  14.230  33.445   3.855
18700W        W90960  21.586  28.045   5.273
18701W        W90961   0.267  21.069   1.264
18702W        W90962  34.557  23.586   1.232
18703W        W90963  29.592  12.799   1.222
18704W        W90964  13.802  14.694  13.925
18705W        W90965  28.139  29.056   5.175
18706W        W90966  23.701  16.255  13.465
18707W        W90967   9.289   3.946  12.887
18708W        W90968   8.665  14.629  11.985
18709W        W90969  39.557  28.055   0.917
18710W        W90970  18.786  27.617   2.375
18711W        W90971  35.053  23.146   4.209
18712W        W90972   4.745  17.284  11.557
18713W        W90973   4.716  41.035  13.887
18714W        W90974  15.085  40.827  13.499
18715W        W90975  18.161  33.398   3.710
18716W        W90976  25.629  23.057  14.994
18717W        W90977   0.266  14.679   3.662
18718W        W90978  36.483  17.233  13.499
18719W        W90979  33.620  38.891   5.206
18720W        W90980   7.864  29.077   1.904
18721W        W90981  13.663  17.731  11.082
18722W        W90982  36.580  26.685   1.261
18723W        W90983   1.350   2.344  12.903
18724W        W90984  42.394  39.831  11.485
18725W        W90985  20.255  29.526   4.651
18726W        W90986  10.786   2.342  14.974
18727W        W90987  31.572  20.702   3.852
18728W        W90988  11.662  14.175   4.641
18729W        W90989  40.406  39.890  10.926
18730W        W90990   1.398  26.502   3.366
18731W        W90991  32.428  36.992  13.330
18732W        W90992  42.795  39.833   4.733
18733W        W90993   2.265   3.318   0.443
18734W        W90994   7.198  43.372   3.169
18735W        W90995   1.275  43.861   0.859
18736W        W90996  31.903  11.367  13.896
18737W        W90997  26.521  19.572   9.957
18738W        W90998   0.419  14.094  12.444
18739W        W90999   9.733  32.576  14.979
18740W        W91000  12.851  40.327  11.884
18741W        W91001  14.713  33.088  10.448
18742W        W91002   3.936   7.735   0.828
18743W        W91003  22.736  16.310  10.940
18744W        W91004   3.258  10.751   3.798
18745W        W91005  16.096   6.816  14.451
18746W        W91006  23.075  16.762   0.931
18747W        W91007  12.727  19.191  13.395
18748W        W91008  37.898  41.341  10.038
18749W        W91009  27.497   9.766   4.707
18750W        W91010  24.634  21.632   1.428
18751W        W91011  41.994  34.407   3.331
18752W        W91012  14.331   6.816  11.939
18753W        W91013  12.120  35.529   1.371
18754W        W91014  10.268  36.028   3.636
18755W        W91015  17.723   6.240  10.429
18756W        W91016  25.712  32.912   4.202
18757W        W91017   5.845   4.232   2.702
18758W        W91018  35.421  33.039   4.703
18759W        W91019   8.161  15.624  12.049
18760W        W91020  38.996  11.634   4.160
18761W        W91021   4.319   1.837   2.793
18762W        W91022  18.748  30.002   3.225
18763W        W91023  39.551  17.077   1.307
18764W        W91024  14.330  38.920   5.246
18765W        W91025  41.346  26.004   2.699
18766W        W91026  13.254  32.043   4.209
18767W        W91027  23.074   2.294  13.531
18768W        W91028  26.520  15.700   1.753
18769W        W91029  22.189  44.330  11.039
18770W        W91030  22.530  12.633   2.789
18771W        W91031  32.965  12.834  12.469
18772W        W91032  34.373  43.468   0.930
18773W        W91033  26.087  18.659  10.517
18774W        W91034  26.553  19.045   4.147
18775W        W91035  41.428  15.211   0.382
18776W        W91036   3.346  40.839  13.885
18777W        W91037  19.281   5.212  14.377
18778W        W91038   1.383  26.569  13.512
18779W        W91039   1.302   6.839  13.980
18780W        W91040  26.612  29.474  13.526
18781W        W91041  30.451  12.279   4.650
18782W        W91042  25.053   3.804   3.696
18783W        W91043  12.681  26.463  13.540
18784W        W91044  44.323  25.015   1.890
18785W        W91045  30.658  25.624  10.600
18786W        W91046  22.158  19.773  11.117
18787W        W91047  29.957  16.655   0.876
18788W        W91048  27.629  36.529   0.837
18789W        W91049   1.434  12.210   1.730
18790W        W91050   7.211   7.714  13.382
18791W        W91051  43.852  13.218  10.553
18792W        W91052  28.121   9.664  14.291
18793W        W91053  26.001  14.253  10.550
18794W        W91054  41.813  39.023   1.702
18795W        W91055   8.393  44.809  11.064
18796W        W91056  24.214  34.891   0.927
18797W        W91057  35.046   4.819   5.126
18798W        W91058  22.627  11.623   3.826
18799W        W91059  21.137  19.123   9.519
18800W        W91060   5.888   4.420  14.874
18801W        W91061  30.600  18.775   2.829
18802W        W91062  13.657  15.142  12.527
18803W        W91063  20.237  41.420   3.794
18804W        W91064  31.519  44.916   3.664
18805W        W91065  43.345  28.013  11.870
18806W        W91066  18.119   3.912   2.776
18807W        W91067  15.211   6.255  14.306
18808W        W91068  14.238   2.375   2.698
18809W        W91069  14.106  30.437   5.601
18810W        W91070   8.890  36.348   3.645
18811W        W91071   3.927  34.373  11.612
18812W        W91072  24.699  11.337  10.449
18813W        W91073  24.187  23.614  14.971
18814W        W91074  42.002  35.953   1.788
18815W        W91075  40.878   4.797  11.567
18816W        W91076   8.894  44.873  12.944
18817W        W91077   3.719  42.331  11.088
18818W        W91078  26.977  16.262   2.201
18819W        W91079  10.733  25.117  13.534
18820W        W91080  31.012  16.121   3.229
18821W        W91081  20.732  25.694  12.032
18822W        W91082   9.767  30.152   0.261
18823W        W91083  31.122  27.566   3.283
18824W        W91084  27.692  18.756   0.363
18825W        W91085  25.564   0.930  14.319
18826W        W91086  24.062  28.498   1.271
18827W        W91087  35.020   5.719   0.898
18828W        W91088  33.971  10.345  10.905
18829W        W91089   9.307   8.224   0.908
18830W        W91090   6.678   6.285   2.369
18831W        W91091  36.995  21.623   2.807
18832W        W91092   9.722   0.938   4.152
18833W        W91093  14.303  14.685  13.820
18834W        W91094  40.894  21.661  13.522
18835W        W91095  27.639   8.741  13.505
18836W        W91096  42.285  44.873  14.999
18837W        W91097  22.678  14.315  14.313
18838W        W91098  16.232  32.947  11.899
18839W        W91099  25.618  37.524  12.382
18840W        W91100   1.434  32.626  10.640
18841W        W91101  23.667  28.617   0.274
18842W        W91102  15.168  36.937  14.770
18843W        W91103  26.127  33.567   3.197
18844W        W91104  26.155  39.909   0.791
18845W        W91105  44.405  34.069  12.970
18846W        W91106  24.178   5.272  13.048
18847W        W91107  24.691  40.485   3.299
18848W        W91108  33.451  39.408  12.339
18849W        W91109  13.728  25.506  12.950
18850W        W91110  16.708  27.953   4.194
18851W        W91111  42.309  36.037   3.353
18852W        W91112   0.463  15.604  14.458
18853W        W91113  10.715  23.154  14.848
18854W        W91114  16.075   4.337  11.536
18855W        W91115  32.636  33.071  13.523
18856W        W91116  23.096  32.396  12.457
18857W        W91117   7.703  43.481  13.437
18858W        W91118  24.993  11.689   1.706
18859W        W91119  38.871  34.564   1.735
18860W        W91120  10.686  26.988   4.772
18861W        W91121  36.430  40.371   5.295
18862W        W91122   4.269  40.532  14.763
18863W        W91123   3.395  27.604  13.884
18864W        W91124   3.766   9.296   0.965
18865W        W91125  19.591  17.774  14.810
18866W        W91126  12.342   4.776   2.903
18867W        W91127  16.801  15.638   3.149
18868W        W91128  36.508  13.214   4.682
18869W        W91129  32.428  21.123   2.316
18870W        W91130  37.872  31.553  14.338
18871W        W91131  39.500  16.144  10.605
18872W        W91132   9.291  19.177   2.317
18873W        W91133  13.292  35.466   4.212
18874W        W91134  17.798  11.657   2.758
18875W        W91135  43.331  29.484  14.365
18876W        W91136   1.847  17.181  14.972
18877W        W91137   1.340  30.970   0.481
18878W        W91138  21.586  20.231   0.316
18879W        W91139  25.652   2.781  11.540
18880W        W91140   3.254  19.169  10.895
18881W        W91141   0.873  26.992  13.969
18882W        W91142  13.712   9.781  13.522
18883W        W91143  23.547   7.702   2.293
18884W        W91144  23.619  44.909   3.212
18885W        W91145  36.848  42.816  10.595
18886W        W91146   5.294  23.580  14.376
18887W        W91147  18.112  33.027   4.723
18888W        W91148  23.633  22.211   1.805
18889W        W91149  33.582  23.639  10.013
18890W        W91150   2.260  43.769  13.432
18891W        W91151  28.082  43.000   0.257
18892W        W91152  30.037  16.673   2.674
18893W        W91153   0.275  12.302  11.007
18894W        W91154  29.049  44.300  12.548
18895W        W91155   0.371  16.224  12.375
18896W        W91156  21.091  42.866   0.954
18897W        W91157   2.363  19.057   1.392
18898W        W91158  12.308   0.250   0.900
18899W        W91159  43.362  40.951  13.409
18900W        W91160  10.156  25.616   1.267
18901W        W91161  39.884  38.402  14.868
18902W        W91162   5.873  44.825   4.653
18903W        W91163  36.918  19.253   0.443
18904W        W91164  11.859  40.811   3.299
18905W        W91165   6.743  32.995   0.860
18906W        W91166  23.577  23.051   2.663
18907W        W91167  20.223   7.718   5.109
18908W        W91168   5.264   0.369  14.939
18909W        W91169   1.967  17.657  10.526
18910W        W91170  36.873   0.473   4.636
18911W        W91171   7.846  12.236  11.496
18912W        W91172  41.371  16.762  12.877
18913W        W91173  19.562  31.626  14.508
18914W        W91174   6.418  18.159   0.355
18915W        W91175  30.624  42.338   2.687
18916W        W91176  17.196  44.450   4.307
18917W        W91177  37.061  10.325   2.670
18918W        W91178  12.265  25.164   1.403
18919W        W91179  33.098   5.785  14.983
18920W        W91180   8.314  13.792  13.392
18921W        W91181  26.113  39.980   3.670
18922W        W91182  22.120  28.035  12.413
18923W        W91183  29.166  12.317  10.438
18924W        W91184  10.846  26.603   3.264
18925W        W91185   7.230  31.549   0.428
18926W        W91186   1.811  38.007   3.283
18927W        W91187  10.366  43.020   3.806
18928W        W91188  20.039  11.831  13.914
18929W        W91189  33.473  21.551  10.967
18930W        W91190  27.457   3.924  12.840
18931W        W91191  14.770   1.873   4.740
18932W        W91192  15.752   3.713  14.396
18933W        W91193  26.957  24.986  10.448
18934W        W91194  31.130   2.911  12.489
18935W        W91195  36.569  22.614   4.764
18936W        W91196  14.337  13.205   5.167
18937W        W91197  33.542  37.947  14.803
18938W        W91198   1.794   0.888   0.838
18939W        W91199  31.539   5.425  14.390
18940W        W91200  42.832  33.524   1.240
18941W        W91201  25.008  32.991  14.342
18942W        W91202  32.597  18.577  11.963
18943W        W91203  26.683   5.432   4.834
18944W        W91204  22.701  17.254   2.848
18945W        W91205  14.310  14.748   4.633
18946W        W91206   3.823  27.136  10.429
18947W        W91207  31.107  14.630  13.381
18948W        W91208   5.439  17.710  14.764
18949W        W91209  22.208  13.669  14.795
18950W        W91210  36.508   4.734   5.268
18951W        W91211  27.089  42.449   3.169
18952W        W91212  38.023  32.934  14.368
18953W        W91213  21.697   2.372  14.983
18954W        W91214  14.708  22.537  12.549
18955W        W91215  27.566  27.002   2.413
18956W        W91216  14.827  24.516  11.863
18957W        W91217  35.058   6.858   2.681
18958W        W91218  41.936  23.166   2.326
18959W        W91219  30.553  43.832  14.031
18960W        W91220  23.124  18.705   0.784
18961W        W91221  15.305  33.986   1.387
18962W        W91222  16.179  24.136  10.463
18963W        W91223  12.294  16.204   1.325
18964W        W91224   9.691  30.160  11.605
18965W        W91225  20.222   3.258   1.777
18966W        W91226  33.955  31.068   2.815
18967W        W91227  16.665  26.667   1.858
18968W        W91228  37.352  39.064  10.903
18969W        W91229  19.616  13.784   3.757
18970W        W91230  38.461   8.846   4.787
18971W        W91231  38.499   2.339   2.842
18972W        W91232  38.422  38.539   2.261
18973W        W91233  17.770  20.587  10.483
18974W        W91234  21.562   5.889  14.901
18975W        W91235  10.791  43.344  11.859
18976W        W91236  24.984  37.835  10.429
18977W        W91237  13.695  18.269   0.915
18978W        W91238   4.389  34.420   1.386
18979W        W91239  30.428   1.413  13.000
18980W        W91240  35.588  22.521   0.268
18981W        W91241  21.634  23.547  10.544
18982W        W91242   0.922  22.597   4.602
18983W        W91243   7.385  44.415   2.192
18984W        W91244  43.452  17.713   4.117
18985W        W91245  28.933  29.597   1.329
18986W        W91246   7.746  18.082   4.115
18987W        W91247  11.226  24.156  13.938
18988W        W91248  24.543  20.530   0.272
18989W        W91249  10.229  12.218   2.743
18990W        W91250  13.830   0.462   3.164
18991W        W91251   4.264  41.356  12.504
18992W        W91252  27.534  41.410   9.549
18993W        W91253  41.940  33.082   3.323
18994W        W91254  17.733  16.632  14.950
18995W        W91255   4.882  26.668  11.577
18996W        W91256  38.488  16.774  11.064
18997W        W91257   8.203  32.576   4.710
18998W        W91258  17.224  22.618  13.483
18999W        W91259  36.514   4.355  11.413
19000W        W91260  14.807  44.931   0.302
19001W        W91261   9.268  13.295  13.914
19002W        W91262  23.050  15.664   4.801
19003W        W91263  29.120  18.587  11.583
19004W        W91264  13.141   5.342  14.772
19005W        W91265  27.581  25.709   3.801
19006W        W91266   7.171  34.471   2.394
19007W        W91267  43.959  32.602   1.436
19008W        W91268  31.143  44.501  10.899
19009W        W91269  17.230  41.803   3.186
19010W        W91270  19.632  23.177  11.916
19011W        W91271   9.665  34.989  12.545
19012W        W91272   2.772  31.931  12.968
19013W        W91273  11.644   3.946   0.480
19014W        W91274  41.439   9.852   3.305
19015W        W91275  34.059  24.077   0.271
19016W        W91276   4.266  39.809  14.508
19017W        W91277  24.507  38.025  11.084
19018W        W91278  36.348  44.973  14.762
19019W        W91279  29.553   2.294   2.308
19020W        W91280   9.659  29.640   1.434
19021W        W91281   3.710  10.767  11.087
19022W        W91282   4.442  31.606  13.853
19023W        W91283  21.131  19.174  13.418
19024W        W91284  19.536   6.220   1.319
19025W        W91285   9.346   5.414   3.857
19026W        W91286   0.848  10.713   2.201
19027W        W91287   2.828  33.484   4.807
19028W        W91288  12.620  39.457   2.748
19029W        W91289  33.950  19.189   5.193
19030W        W91290  36.372   9.854   4.179
19031W        W91291  38.419  23.511   3.669
19032W        W91292  36.511   1.256   0.837
19033W        W91293  36.402  21.108   0.925
19034W        W91294  38.043   4.399  12.548
19035W        W91295  10.159  14.772  14.343
19036W        W91296   3.421   9.344   3.756
19037W        W91297  32.559  13.193  11.576
19038W        W91298  12.756  18.293   3.317
19039W        W91299  19.235   1.349   2.687
19040W        W91300  33.486  41.425  13.963
19041W        W91301  20.763  14.707   1.311
19042W        W91302  17.073  11.651  11.434
19043W        W91303  40.044  24.589   2.746
19044W        W91304  40.958   7.215   3.299
19045W        W91305  26.649  28.631   0.774
19046W        W91306  38.976  13.185  10.546
19047W        W91307   2.853  33.051  11.126
19048W        W91308   1.448  41.449  14.820
19049W        W91309  39.523   1.938   1.727
19050W        W91310  26.669  21.138  13.833
19051W        W91311  30.922  34.966   0.449
19052W        W91312   2.242  28.167   2.310
19053W        W91313  29.930  40.305   2.345
19054W        W91314  43.917   3.863  11.495
19055W        W91315  27.634  18.083   1.447
19056W        W91316   2.953  32.032   4.240
19057W        W91317  23.059  19.275  14.963
19058W        W91318  22.128  43.327   4.783
19059W        W91319   1.813  13.309   1.751
19060W        W91320   9.846  10.673  10.890
19061W        W91321   0.445  32.139  13.510
19062W        W91322  30.599  39.060   2.378
19063W        W91323  20.768   6.850  11.497
19064W        W91324   2.959  39.969  10.636
19065W        W91325  20.192   5.240  13.913
19066W        W91326  41.838  43.012  13.967
19067W        W91327   2.302  36.900   4.338
19068W        W91328  39.491  32.621   4.179
19069W        W91329  11.192  30.478  13.893
19070W        W91330  26.997  35.901   2.764
19071W        W91331   1.877  33.087  10.434
19072W        W91332  23.023  20.746   2.821
19073W        W91333   1.778   5.790   0.778
19074W        W91334  19.209  21.132   3.691
19075W        W91335  17.782  25.591  13.336
19076W        W91336  20.134   3.298  14.478
19077W        W91337  11.150  16.616   4.602
19078W        W91338  21.076  43.766  11.056
19079W        W91339  18.682  23.095   3.235
19080W        W91340   8.311  20.639   2.347
19081W        W91341  38.047  26.596   3.807
19082W        W91342  30.025  44.945   4.341
19083W        W91343  31.087  31.469   5.768
19084W        W91344  19.676  25.038  14.434
19085W        W91345   3.915  12.351   2.198
19086W        W91346  23.984  43.311   1.351
19087W        W91347  26.478  24.656  11.960
19088W        W91348  38.431  39.810  11.909
19089W        W91349  21.125  42.933  14.300
19090W        W91350   5.688  26.647   3.318
19091W        W91351  29.479  31.444   4.682
19092W        W91352  11.678  37.905   3.659
19093W        W91353  36.434  20.184   1.392
19094W        W91354   9.827  32.609   3.173
19095W        W91355   1.901  13.331  10.595
19096W        W91356  43.394   7.371   2.233
19097W        W91357   6.742  38.521   2.853
19098W        W91358   4.351  10.238  14.980
19099W        W91359  33.004   7.780  10.912
19100W        W91360  11.863  38.376   1.858
19101W        W91361  42.523   3.888  14.478
19102W        W91362  10.157  14.275   3.863
19103W        W91363  41.944  17.121  13.005
19104W        W91364   7.863  39.813   4.752
19105W        W91365  27.676  29.047   0.312
19106W        W91366  32.122  22.725   1.337
19107W        W91367  32.442  37.067   4.613
19108W        W91368   2.817  20.619  14.796
19109W        W91369   0.261  25.119  14.913
19110W        W91370  24.182  17.755  14.439
19111W        W91371  41.992  20.636  11.587
19112W        W91372   2.438  16.774  14.981
19113W        W91373   9.358  16.242   2.238
19114W        W91374   7.215  32.455  12.093
19115W        W91375   4.879  38.037   3.841
19116W        W91376  44.377  11.309  13.818
19117W        W91377  42.873   2.413  14.401
19118W        W91378  18.688  29.956   4.353
19119W        W91379  23.520   7.702  12.065
19120W        W91380   5.690   5.709  12.038
19121W        W91381  32.529  10.169  13.422
19122W        W91382  30.935  29.129   2.279
19123W        W91383  37.535   0.412   3.200
19124W        W91384  24.228  30.453  10.946
19125W        W91385   0.957   5.257   1.212
19126W        W91386  31.077   0.407   1.846
19127W        W91387   2.787  32.994   1.739
19128W        W91388  26.605  43.378   3.736
19129W        W91389  28.967  34.481  11.994
19130W        W91390  18.767  40.453   3.202
19131W        W91391  14.695  23.093   1.756
19132W        W91392  28.548   4.787   2.672
19133W        W91393  37.911  38.936   1.307
19134W        W91394  13.600  27.540  13.378
19135W        W91395  14.279  42.883   0.774
19136W        W91396  20.704  41.441   0.960
19137W        W91397   3.268   5.388  13.972
19138W        W91398  27.563   4.330  10.441
19139W        W91399  20.742  19.131  11.562
19140W        W91400  36.591   3.256  11.480
19141W        W91401  13.601  29.155  11.111
19142W        W91402  37.400   8.685   4.322
19143W        W91403  29.584  33.600  14.458
19144W        W91404   0.943   8.858  11.575
19145W        W91405  29.108  29.588  11.403
19146W        W91406  12.752  37.922   1.735
19147W        W91407   3.745  34.906   0.360
19148W        W91408  43.019   5.220  10.404
19149W        W91409  32.544  17.076  12.466
19150W        W91410   2.907  11.216  11.038
19151W        W91411  27.032  16.605   1.394
19152W        W91412   7.866  34.448  12.430
19153W        W91413  12.798   7.823   2.232
19154W        W91414   9.820  20.072  11.087
19155W        W91415  15.787   1.351   1.233
19156W        W91416   0.912  26.980  12.360
19157W        W91417   7.808   7.358   0.924
19158W        W91418  20.030  35.573  13.415
19159W        W91419  19.219  18.715   2.346
19160W        W91420  18.267  40.432   1.868
19161W        W91421  18.623  31.057   3.310
19162W        W91422  10.189   0.932  14.327
19163W        W91423   5.926   8.763  13.884
19164W        W91424  35.040   3.384  14.981
19165W        W91425  26.114  10.252  14.791
19166W        W91426  44.943  39.409  13.366
19167W        W91427  17.600  24.036  12.975
19168W        W91428  36.564  18.112  14.786
19169W        W91429   7.267  38.052   2.868
19170W        W91430   9.840   5.336   3.673
19171W        W91431  21.104  18.646  12.873
19172W        W91432  23.614  37.914   0.256
19173W        W91433  10.652  10.741  10.991
19174W        W91434  24.054  30.549  14.368
19175W        W91435  36.854  21.724   3.646
19176W        W91436  44.924   5.369   1.765
19177W        W91437  15.806  39.349  13.354
19178W        W91438  32.953   8.849   4.610
19179W        W91439   4.276  29.124  14.917
19180W        W91440   0.481  14.739  11.432
19181W        W91441   6.815  43.831  10.645
19182W        W91442  15.205  35.996  14.480
19183W        W91443   8.384  39.402   3.361
19184W        W91444  15.226  43.012   0.763
19185W        W91445  15.295  19.160  13.022
19186W        W91446  11.622  12.330   3.227
19187W        W91447  27.514   8.851   0.270
19188W        W91448  26.517   4.341  12.454
19189W        W91449  26.586  44.756  11.574
19190W        W91450   3.258  32.053   3.641
19191W        W91451  22.015  32.107   4.791
19192W        W91452  19.084  35.546   2.382
19193W        W91453  39.879   8.188  12.523
19194W        W91454  37.416   3.801   1.926
19195W        W91455  37.006  20.739  11.873
19196W        W91456  16.207  42.483   4.684
19197W        W91457  37.381  16.308  11.474
19198W        W91458  29.464  14.803  13.497
19199W        W91459  18.556  31.411   1.696
19200W        W91460  13.834  42.447   4.706
19201W        W91461   4.325  14.185   1.894
19202W        W91462  30.491   3.396  13.806
19203W        W91463  18.079  15.088  13.842
19204W        W91464   4.764   1.900  13.999
19205W        W91465  22.105  26.070   0.261
19206W        W91466  18.625   5.716   0.448
19207W        W91467  32.619  10.864  13.348
19208W        W91468  26.526  39.013  13.365
19209W        W91469   8.771  22.146   3.796
19210W        W91470  37.904  27.468  11.436
19211W        W91471   7.809  27.659  11.990
19212W        W91472  13.617  44.441  11.882
19213W        W91473  41.848  37.486  10.522
19214W        W91474  37.463  29.071  12.368
19215W        W91475  29.642  19.688   0.732
19216W        W91476   3.307  42.461   4.290
19217W        W91477  39.951   9.205   5.137
19218W        W91478  41.518  17.591  11.106
19219W        W91479  32.627  27.622   2.405
19220W        W91480  26.207  27.665  13.518
19221W        W91481  27.090  40.539   0.331
19222W        W91482   4.860  26.647  10.075
19223W        W91483   2.267   6.324   1.330
19224W        W91484   9.782  32.139   3.196
19225W        W91485  20.148  41.855  11.098
19226W        W91486  13.140  20.762   0.928
19227W        W91487   0.830   4.743   3.668
19228W        W91488  38.882  28.071   4.133
19229W        W91489  25.491  10.373   5.212
19230W        W91490  25.566  12.778  12.477
19231W        W91491   7.364  30.512   2.285
19232W        W91492  29.474  26.187   0.245
19233W        W91493  15.645   6.841   1.380
19234W        W91494   6.917  37.984  13.454
19235W        W91495  18.108  12.805  11.007
19236W        W91496   9.195   9.741  13.527
19237W        W91497   7.826  19.115   0.831
19238W        W91498   6.412  26.495  14.501
19239W        W91499  16.577  28.135   3.851
19240W        W91500  26.106  14.215   0.938
19241W        W91501  40.332  37.504  14.810
19242W        W91502  17.756   0.316  11.087
19243W        W91503  19.596  25.560   4.187
19244W        W91504   6.891   6.198  12.458
19245W        W91505  21.218  23.057   4.801
19246W        W91506   9.371  33.548   5.140
19247W        W91507  41.427  24.196  10.549
19248W        W91508  10.819  10.231  14.015
19249W        W91509  15.329  43.433  11.098
19250W        W91510  14.715  17.723   2.804
19251W        W91511   3.310   0.440  11.969
19252W        W91512  10.315  32.622   2.760
19253W        W91513   7.761   5.272   3.234
19254W        W91514   2.934  10.314   2.277
19255W        W91515  38.833  23.639  12.476
19256W        W91516  28.940  41.460  10.539
19257W        W91517  30.043  32.044   2.386
19258W        W91518  38.981  36.879  14.786
19259W        W91519  20.620  42.031  11.453
19260W        W91520  29.432  18.709   0.947
19261W        W91521  27.135  44.907   4.153
19262W        W91522  36.465  22.227   0.246
19263W        W91523  28.643  22.701  12.063
19264W        W91524  40.535  22.123  13.328
19265W        W91525  34.581   0.453   2.293
19266W        W91526  39.864  30.031   4.673
19267W        W91527  29.593  42.333   0.287
19268W        W91528  24.521  15.173  13.428
19269W        W91529  44.954  22.616  12.065
19270W        W91530   9.718   2.930   3.814
19271W        W91531  32.401  36.549   0.838
19272W        W91532  38.890  18.220   3.680
19273W        W91533  11.750   3.419   1.383
19274W        W91534  28.976  14.340  13.907
19275W        W91535   0.799  29.656   1.735
19276W        W91536   1.464   6.424   0.374
19277W        W91537  24.174   3.381   0.358
19278W        W91538   0.856  35.957   1.754
19279W        W91539  15.598  16.759  10.614
19280W        W91540  10.152  23.660  10.043
19281W        W91541  11.168  33.464  14.980
19282W        W91542  21.103  34.593   2.744
19283W        W91543  22.180  25.677   5.134
19284W        W91544   7.366  24.055  14.816
19285W        W91545  20.762  15.292   1.783
19286W        W91546   3.905  19.662  14.319
19287W        W91547   1.321  12.660  13.823
19288W        W91548  39.834  22.672   1.744
19289W        W91549  20.536  30.928   4.253
19290W        W91550  43.987  21.129  11.381
19291W        W91551  17.104   2.786  11.388
19292W        W91552  14.692   7.223   2.734
19293W        W91553  10.713   1.822  11.963
19294W        W91554   5.206  12.615  14.032
19295W        W91555  38.885  31.462  12.998
19296W        W91556  24.527  36.544   2.206
19297W        W91557  18.771  13.673  13.494
19298W        W91558   0.777  21.675  11.509
19299W        W91559  10.192  35.402   4.158
19300W        W91560   3.856  15.321  11.489
19301W        W91561   4.834  40.443   4.823
19302W        W91562  10.646  32.431   4.706
19303W        W91563  31.934  18.190   9.956
19304W        W91564  27.996  19.598   4.204
19305W        W91565  21.179  19.757  10.637
19306W        W91566  18.055  35.398  12.529
19307W        W91567  44.293  29.068  11.935
19308W        W91568  34.579  11.779   2.874
19309W        W91569  36.028  39.357   1.285
19310W        W91570  29.444   4.228  11.907
19311W        W91571  27.651  28.002   3.278
19312W        W91572  32.989  16.728   2.208
19313W        W91573  17.081  36.862   2.287
19314W        W91574  31.441   3.753  14.951
19315W        W91575  15.735  14.232  13.320
19316W        W91576  12.288   4.894  10.511
19317W        W91577  17.775  31.140  12.426
19318W        W91578  27.121  10.735  14.403
19319W        W91579  27.172  21.743  11.047
19320W        W91580  25.676  42.431   4.643
19321W        W91581  17.571   1.271  14.003
19322W        W91582  40.367   1.906  13.868
19323W        W91583  38.334  30.423   0.879
19324W        W91584  20.124  29.924   2.822
19325W        W91585  34.004  33.031  12.964
19326W        W91586  39.941  26.109   1.431
19327W        W91587   3.912  35.081   2.668
19328W        W91588  32.603  27.692   4.751
19329W        W91589  27.155  27.150  12.391
19330W        W91590  19.543   1.933  10.976
19331W        W91591  22.063  23.213  10.906
19332W        W91592  15.256  37.996  13.338
19333W        W91593  29.041   2.931  13.996
19334W        W91594   0.427  36.035   4.820
19335W        W91595  40.818  34.056   2.740
19336W        W91596  26.526   9.766   4.131
19337W        W91597   6.779   2.898   0.784
19338W        W91598  27.043  27.998  13.440
19339W        W91599  36.496  43.776   4.222
19340W        W91600   2.311  17.156  13.409
19341W        W91601  16.278   2.379  14.807
19342W        W91602  27.605   8.230  12.966
19343W        W91603   3.338  36.464  12.942
19344W        W91604  20.138  43.410  11.959
19345W        W91605  34.987  26.030   0.340
19346W        W91606   8.168  16.312   2.676
19347W        W91607   8.677  23.025  11.507
19348W        W91608  43.878  29.065   3.793
19349W        W91609   4.338  28.439   3.321
19350W        W91610  43.466  16.271   3.870
19351W        W91611   7.715  21.576  13.435
19352W        W91612  19.580  10.180  12.349
19353W        W91613   7.327  36.473   4.801
19354W        W91614  31.581  21.569  13.314
19355W        W91615  10.835  40.926  11.427
19356W        W91616  10.240   1.345  13.870
19357W        W91617  43.893  11.696   4.600
19358W        W91618  26.026  39.394  10.602
19359W        W91619  18.576  38.000  11.907
19360W        W91620  17.188   1.763   1.257
19361W        W91621  29.942  16.269  12.961
19362W        W91622  25.144  29.455   0.458
19363W        W91623   2.797  14.113   4.209
19364W        W91624  30.110  29.542   1.447
19365W        W91625  44.871  41.841   2.738
19366W        W91626  24.687   0.911  13.543
19367W        W91627  22.532   0.302   2.358
19368W        W91628  41.453  35.074   3.341
19369W        W91629  40.318  27.490   0.419
19370W        W91630  29.105  20.227  13.906
19371W        W91631  38.444  32.898  10.925
19372W        W91632  26.484  22.089  11.422
19373W        W91633  22.652  36.396  11.028
19374W        W91634  24.994  27.678  10.922
19375W        W91635  38.483  14.169   3.767
19376W        W91636  21.253  39.551   0.347
19377W        W91637  41.923  14.799   0.907
19378W        W91638   3.734   1.381   2.772
19379W        W91639   3.741  19.120  11.467
19380W        W91640  29.657  30.641  10.123
19381W        W91641  35.568   7.306  13.794
19382W        W91642  42.884  15.585  10.484
19383W        W91643  12.788  11.820   1.801
19384W        W91644  13.686  38.852   2.197
19385W        W91645  44.811  18.789   1.799
19386W        W91646  14.611  33.491   3.871
19387W        W91647  35.490  18.706   1.933
19388W        W91648  25.611  10.366   4.650
19389W        W91649  19.572   0.350   1.733
19390W        W91650  19.106   0.759  11.100
19391W        W91651  25.711   6.918  12.472
19392W        W91652   1.761   8.808   0.287
19393W        W91653  19.771  34.572  12.904
19394W        W91654  35.063  32.625   4.757
19395W        W91655  43.962   0.958  11.005
19396W        W91656  22.112  28.600   3.250
19397W        W91657  22.244  30.599  12.934
19398W        W91658  21.165  12.316  12.095
19399W        W91659   4.358   7.287   0.844
19400W        W91660  41.040  27.479  13.026
19401W        W91661  40.529  26.571   1.760
19402W        W91662   4.783  37.456   1.274
19403W        W91663  13.233  34.026   1.757
19404W        W91664  10.181  32.071   0.476
19405W        W91665  23.152   2.472  12.937
19406W        W91666  25.535  26.606   0.246
19407W        W91667  11.179  25.035  10.481
19408W        W91668  33.075  27.052   2.219
19409W        W91669  38.835  39.905   1.388
19410W        W91670  41.315  13.723  12.361
19411W        W91671   3.336   5.850  12.022
19412W        W91672   9.258  21.658  14.336
19413W        W91673  43.273  39.547   3.382
19414W        W91674   5.805  26.521   2.781
19415W        W91675  39.850  44.316  10.985
19416W        W91676  16.156  44.991   0.344
19417W        W91677   8.272   5.770   3.690
19418W        W91678  12.194  27.601   4.671
19419W        W91679  14.122  17.662   2.260
19420W        W91680  29.028   1.312   0.753
19421W        W91681  12.169   7.250  11.957
19422W        W91682  28.584   8.719   0.466
19423W        W91683   4.308  15.760   0.769
19424W        W91684  21.203  26.610   4.264
19425W        W91685  31.144  44.391  12.965
19426W        W91686  36.391  18.736   9.531
19427W        W91687  21.613  32.905   2.682
19428W        W91688  25.550   4.880   3.281
19429W        W91689   4.368  19.535  11.101
19430W        W91690   9.176  18.281  11.961
19431W        W91691   0.746   0.876  11.504
19432W        W91692  19.753  25.034  13.336
19433W        W91693  32.960  39.467   3.866
19434W        W91694  36.856  13.718   4.751
19435W        W91695  40.826  31.968   0.482
19436W        W91696  14.726   6.409   2.398
19437W        W91697  10.868  24.009  12.445
19438W        W91698  21.538  32.467   0.897
19439W        W91699  41.024  29.930   3.383
19440W        W91700  43.838   1.259   4.175
19441W        W91701  39.850  13.783   4.728
19442W        W91702  39.870   3.432   1.339
19443W        W91703  40.038  34.494   2.354
19444W        W91704  41.450  33.435  12.893
19445W        W91705  15.694   3.763   4.219
19446W        W91706   6.340  29.535   1.849
19447W        W91707  11.718  13.331   2.330
19448W        W91708  32.125  28.116   0.871
19449W        W91709  25.197  43.446   0.381
19450W        W91710   7.402  16.754  11.033
19451W        W91711  11.635  37.886   1.852
19452W        W91712  28.531  21.198  14.824
19453W        W91713   5.874  14.098   2.346
19454W        W91714  13.751  42.433   1.447
19455W        W91715  28.512  32.494  12.565
19456W        W91716  14.652  15.258   3.867
19457W        W91717  29.469  17.262   3.819
19458W        W91718  23.141  34.090   2.399
19459W        W91719  13.770  34.880  14.968
19460W        W91720   3.423   9.667   1.327
19461W        W91721  24.185  40.506  10.042
19462W        W91722   4.347  40.872  11.424
19463W        W91723  39.935   9.196  10.131
19464W        W91724  20.177  19.123  12.363
19465W        W91725  10.357  12.260   3.233
19466W        W91726  16.571   3.866  11.460
19467W        W91727  18.224  40.345   1.352
19468W        W91728   5.322  38.022   1.919
19469W        W91729  22.595  24.711   3.773
19470W        W91730  20.217  21.553   1.381
19471W        W91731  25.059  29.552  13.942
19472W        W91732  23.192   9.151   2.370
19473W        W91733  22.169  18.229   0.393
19474W        W91734  12.728  42.413   1.339
19475W        W91735  41.510  16.708  13.489
19476W        W91736  35.882  31.478  10.548
19477W        W91737  39.472   5.878   1.853
19478W        W91738  13.816   1.875  14.278
19479W        W91739  43.971  26.701   2.328
19480W        W91740   5.194   7.741   4.708
19481W        W91741   7.238  27.103   4.300
19482W        W91742  13.844  36.991  14.326
19483W        W91743  44.785  39.449  14.780
19484W        W91744   8.717   0.441   0.849
19485W        W91745  36.950  14.660  14.925
19486W        W91746  34.590   9.737  13.537
19487W        W91747  34.053  31.935   1.922
19488W        W91748  40.483   1.329   3.866
19489W        W91749  12.668  34.502  10.576
19490W        W91750  31.424  24.092  10.428
19491W        W91751  34.110  43.852  12.829
19492W        W91752  15.670  43.352   1.335
19493W        W91753   3.887   2.247   0.459
19494W        W91754  31.531  35.555   2.796
19495W        W91755   6.875  19.604   1.834
19496W        W91756  31.475  36.015   1.421
19497W        W91757  34.467  23.118  10.601
19498W        W91758  39.431   8.703   9.991
19499W        W91759  27.126  41.457  13.421
19500W        W91760  30.975  10.876   4.178
19501W        W91761  23.695  12.317   1.311
19502W        W91762  15.708  27.671  14.412
19503W        W91763  18.577  40.396  12.372
19504W        W91764  24.586   6.342   1.216
19505W        W91765  32.443  10.786   3.691
19506W        W91766  32.477  36.359  10.478
19507W        W91767  11.806  20.063  14.276
19508W        W91768  40.977  39.050   2.899
19509W        W91769  24.091  26.580  14.862
19510W        W91770  42.346   7.336  11.519
19511W        W91771  22.231  35.045   1.819
19512W        W91772  44.392  35.483   1.714
19513W        W91773   0.823  36.097  10.591
19514W        W91774  13.227  44.360  13.845
19515W        W91775  23.555  17.261   1.860
19516W        W91776  30.568  16.710  14.017
19517W        W91777   8.222  24.675   3.824
19518W        W91778   9.171  29.987  12.494
19519W        W91779   4.888  29.661  14.918
19520W        W91780   4.930  42.994   2.362
19521W        W91781  42.816  16.072  10.451
19522W        W91782  22.701  33.556  13.965
19523W        W91783  12.202  40.373  14.011
19524W        W91784   7.201  28.614  11.002
19525W        W91785  42.470  31.939   2.869
19526W        W91786  10.684   2.291  13.310
19527W        W91787  24.725  32.498   3.185
19528W        W91788   8.815  20.116  14.311
19529W        W91789  26.508  42.862   0.860
19530W        W91790  29.432  34.964  12.382
19531W        W91791  27.630  24.652  13.035
19532W        W91792  19.185  22.559   3.798
19533W        W91793  20.044  20.557   4.734
19534W        W91794  30.025  36.394  12.423
19535W        W91795  12.348  10.344   3.709
19536W        W91796   7.258  39.055  13.367
19537W        W91797  37.424  33.502  10.567
19538W        W91798  21.228  12.290   3.861
19539W        W91799  30.530  39.344   3.343
19540W        W91800  36.891   1.777  10.482
19541W        W91801  26.123   3.813  14.901
19542W        W91802  30.076  25.212  12.927
19543W        W91803   3.324  28.640  11.566
19544W        W91804  11.628  28.011  10.632
19545W        W91805  18.778  30.564   0.403
19546W        W91806  42.419   3.361   2.321
19547W        W91807  39.826  14.138   1.851
19548W        W91808  15.108  29.537   9.980
19549W        W91809   8.274   4.880   1.323
19550W        W91810   7.182  31.570   3.352
19551W        W91811   4.377  41.410  13.379
19552W        W91812  20.230  30.427   4.599
19553W        W91813  11.629  22.245  11.932
19554W        W91814  12.800  27.070  13.536
19555W        W91815   1.310  19.132  10.471
19556W        W91816   4.330  44.481   3.343
19557W        W91817  17.251  29.965   3.663
19558W        W91818   2.888  26.076  13.490
19559W        W91819  28.448  32.076  10.016
19560W        W91820  15.243  40.415   3.324
19561W        W91821  44.008  18.056   1.892
19562W        W91822  31.550  18.660  11.491
19563W        W91823  31.964  23.508   1.359
19564W        W91824  43.933  22.113   0.357
19565W        W91825   6.327  44.438   1.402
19566W        W91826  40.361  32.400  13.385
19567W        W91827  28.520  30.565   5.274
19568W        W91828  28.474  30.996  10.981
19569W        W91829  40.862  17.159   4.634
19570W        W91830   0.401  13.236  11.063
19571W        W91831  28.118   1.250   1.718
19572W        W91832  27.072  24.702   0.332
19573W        W91833  31.966  34.386  14.375
19574W        W91834  39.029  37.958   4.597
19575W        W91835  19.564   1.866   1.753
19576W        W91836  14.616   3.301  11.501
19577W        W91837  32.545   7.747  12.930
19578W        W91838  34.069  42.969  14.762
19579W        W91839   8.398  19.701  14.949
19580W        W91840  34.893  26.144   2.744
19581W        W91841   6.352  30.422   3.333
19582W        W91842  32.911  38.355  13.991
19583W        W91843   0.339  33.401  14.496
19584W        W91844  29.660   0.385  14.952
19585W        W91845   8.188   1.457  13.870
19586W        W91846  37.488  28.961   9.975
19587W        W91847  18.729  43.344   2.666
19588W        W91848   4.933  23.107  12.950
19589W        W91849  24.008  13.740   2.359
19590W        W91850  30.433  27.642   1.761
19591W        W91851  11.180  40.346   2.829
19592W        W91852  15.182  23.492  11.953
19593W        W91853  15.258  24.715  13.330
19594W        W91854  43.505  10.234  13.535
19595W        W91855  21.545  30.976  11.579
19596W        W91856  44.344   7.894  11.446
19597W        W91857   6.374  39.385   0.378
19598W        W91858  41.822  10.383  12.833
19599W        W91859  31.127   6.906   2.734
19600W        W91860   3.370  11.846  14.980
19601W        W91861  40.415  18.114   5.221
19602W        W91862  41.806  38.429  14.805
19603W        W91863  32.406  33.554  10.562
19604W        W91864  22.735   5.378  14.433
19605W        W91865  25.487   1.451  14.018
19606W        W91866  43.921  38.379   2.316
19607W        W91867  20.704  29.485  13.863
19608W        W91868  37.994   1.361   3.813
19609W        W91869  14.724  42.783   0.891
19610W        W91870   2.334  12.763  12.408
19611W        W91871  21.036  34.374   9.951
19612W        W91872  21.176  13.108   4.118
19613W        W91873  37.521  42.406  11.992
19614W        W91874  19.139   7.197   2.730
19615W        W91875  26.526  11.177  14.442
19616W        W91876  16.077  38.558   0.346
19617W        W91877   6.270   8.854   1.863
19618W        W91878  17.652  26.668   4.135
19619W        W91879  24.189   4.870   2.703
19620W        W91880  26.682  26.119  14.328
19621W        W91881  19.039  11.843   2.900
19622W        W91882  44.289   2.944   3.664
19623W        W91883  32.544  14.632  10.525
19624W        W91884  42.482  18.151  13.838
19625W        W91885  11.186  36.407  11.598
19626W        W91886  25.690  25.472  14.329
19627W        W91887  34.484  22.011  13.340
19628W        W91888   0.822   9.663  12.421
19629W        W91889  40.978  34.976   1.438
19630W        W91890   4.370  18.596  13.473
19631W        W91891  29.926  19.067   3.195
19632W        W91892  27.513  17.138  11.568
19633W        W91893  44.893   2.782   0.877
19634W        W91894   5.730   4.770  10.589
19635W        W91895  27.191  25.034   1.323
19636W        W91896  33.035  16.204  13.475
19637W        W91897  19.062  19.202  14.774
19638W        W91898   5.827   0.436   2.783
19639W        W91899  40.049   1.976   1.798
19640W        W91900   8.743   6.755  11.863
19641W        W91901  16.255  37.967  11.433
19642W        W91902  36.996   0.838  14.369
19643W        W91903  35.449  27.559  13.506
19644W        W91904  36.508  29.606   3.221
19645W        W91905  44.387  33.489   4.328
19646W        W91906   5.688  25.628  13.537
19647W        W91907  22.128  10.868   4.608
19648W        W91908  13.640  16.135  14.277
19649W        W91909  29.595  39.448  13.986
19650W        W91910  28.980  34.398   3.691
19651W        W91911  12.356  44.442  11.006
19652W        W91912   6.758  32.999  12.492
19653W        W91913  11.351  32.631   4.160
19654W        W91914   9.173  22.174  13.914
19655W        W91915  11.635   1.778  13.941
19656W        W91916  30.042  35.022  10.955
19657W        W91917  36.016  25.471  14.427
19658W        W91918   4.375  23.732  13.028
19659W        W91919  35.871   4.309  12.560
19660W        W91920  17.193  14.285  10.621
19661W        W91921  39.529  25.218   0.765
19662W        W91922  40.846  29.548  14.514
19663W        W91923   4.274  17.758   0.929
19664W        W91924  42.408   2.341   2.272
19665W        W91925   5.877  19.719  12.089
19666W        W91926  25.012  17.748   4.703
19667W        W91927   6.883  10.270   1.248
19668W        W91928  34.495   8.723   0.456
19669W        W91929  36.060  23.190  11.879
19670W        W91930  27.132  22.224  12.382
19671W        W91931  37.527  36.440  12.938
19672W        W91932  15.714  14.595  12.906
19673W        W91933   1.299  13.675   3.166
19674W        W91934  22.717   8.353   2.670
19675W        W91935  27.041  13.192   2.322
19676W        W91936  17.119  25.481   4.637
19677W        W91937  30.594  10.798  13.990
19678W        W91938  21.550  34.120   1.905
19679W        W91939  16.318  42.797  13.831
19680W        W91940  17.724   9.171   1.897
19681W        W91941  44.761  44.796   4.788
19682W        W91942  33.972   3.257  12.090
19683W        W91943  25.664  29.428  10.425
19684W        W91944   3.249   7.865  13.907
19685W        W91945  29.090  31.087  10.424
19686W        W91946   2.335  43.837   0.394
19687W        W91947  15.623  19.753  12.833
19688W        W91948  43.318   7.665  14.449
19689W        W91949  37.456  24.150  13.810
19690W        W91950   4.875  41.351   4.817
19691W        W91951  19.584  32.032  10.920
19692W        W91952  40.036  39.815   3.645
19693W        W91953  43.442  18.761   2.875
19694W        W91954  33.613  14.165  11.877
19695W        W91955  32.966  25.989   4.811
19696W        W91956  36.382  39.539  14.872
19697W        W91957  11.708   0.896   4.783
19698W        W91958  31.909  11.215   4.678
19699W        W91959  23.018  44.823  14.433
19700W        W91960  33.917  36.475  14.379
19701W        W91961  29.019  22.676  13.333
19702W        W91962  28.650  31.122   1.710
19703W        W91963  29.948   1.421  14.294
19704W        W91964  30.519  10.704   1.863
19705W        W91965  44.885  11.267   3.833
19706W        W91966  42.802  26.983   2.286
19707W        W91967  32.541  16.807  13.464
19708W        W91968   8.788  14.319  12.083
19709W        W91969  25.163  31.018  12.345
19710W        W91970  30.457  31.512   2.740
19711W        W91971  23.032   2.868   0.807
19712W        W91972   6.803  15.084  12.890
19713W        W91973  26.997  21.568   1.818
19714W        W91974  25.593  38.049   2.841
19715W        W91975   1.921  25.158   1.337
19716W        W91976  38.043  31.095  13.876
19717W        W91977   7.345  25.968   4.819
19718W        W91978  31.091  38.503   2.853
19719W        W91979  37.409  32.495  11.031
19720W        W91980  14.614  42.368   0.293
19721W        W91981  35.513   6.679   4.829
19722W        W91982  25.496  11.174  12.942
19723W        W91983  22.578   6.245  12.973
19724W        W91984  20.252  41.295   3.248
19725W        W91985  41.313  33.009  12.495
19726W        W91986   3.898  31.152   0.772
19727W        W91987   8.775  29.036  13.859
19728W        W91988  29.492  22.214  11.954
19729W        W91989   6.392  39.515  11.901
19730W        W91990  27.955  41.843   3.261
19731W        W91991   8.324  36.474  14.780
19732W        W91992  21.730  38.505  11.507
19733W        W91993  17.268   7.268   4.228
19734W        W91994  12.613  41.341   4.606
19735W        W91995  24.188  14.206   2.230
19736W        W91996  27.947  15.760  13.365
19737W        W91997  20.241   4.734   4.304
19738W        W91998  41.880  26.492  11.437
19739W        W91999  37.532  26.696   1.308
19740W        W92000  20.183  12.181  14.329
19741W        W92001   1.370   5.717  11.479
19742W        W92002   2.748  43.500   1.373
19743W        W92003   1.394   3.935  13.865
19744W        W92004  42.907   0.475   3.843
19745W        W92005  36.894  44.477  11.126
19746W        W92006  30.633  13.215  10.408
19747W        W92007   1.463  18.054   1.336
19748W        W92008   9.728  24.159   1.368
19749W        W92009   7.887   0.411  13.895
19750W        W92010  27.684  27.516  11.887
19751W        W92011  41.818  20.709   1.424
19752W        W92012  25.153   6.722  13.971
19753W        W92013  43.843   9.836   2.809
19754W        W92014   5.286   6.410   1.309
19755W        W92015  23.218  28.995   5.317
19756W        W92016  24.138  37.849   1.410
19757W        W92017   3.361  36.425   0.851
19758W        W92018  37.028  23.190  13.853
19759W        W92019  35.933   2.949   4.167
19760W        W92020  30.999  22.109   1.318
19761W        W92021  11.736   2.844  11.509
19762W        W92022  19.161   0.892  13.056
19763W        W92023  35.498  18.752  11.100
19764W        W92024   8.403  13.328   0.474
19765W        W92025   6.348   6.802   4.187
19766W        W92026   5.392  15.099  11.061
19767W        W92027  21.621  19.137  13.476
19768W        W92028  26.095  28.005  11.957
19769W        W92029  26.198   6.754  12.842
19770W        W92030   4.886  23.017  11.490
19771W        W92031  23.191  36.068   3.156
19772W        W92032  43.360   5.389  12.339
19773W        W92033  15.120  23.515  12.395
19774W        W92034  25.974   1.410   3.194
19775W        W92035  36.875  39.850   4.295
19776W        W92036  17.120  33.008  10.925
19777W        W92037  44.837  21.035   4.291
19778W        W92038  31.604  23.239  10.486
19779W        W92039  15.780  23.714   9.962
19780W        W92040   9.834  20.631   2.191
19781W        W92041  13.714  37.948   0.966
19782W        W92042  28.575  22.562  14.960
19783W        W92043  39.437  33.123   0.830
19784W        W92044  15.244  42.918  10.048
19785W        W92045  22.222  17.122   0.962
19786W        W92046   9.744  34.529  14.340
19787W        W92047  29.429   4.359   1.283
19788W        W92048  16.147  44.007  11.601
19789W        W92049  31.054   6.283  13.044
19790W        W92050  33.039  40.035   4.738
19791W        W92051  11.714  24.992   1.332
19792W        W92052  31.529  19.704   1.342
19793W        W92053  37.546   1.332   1.745
19794W        W92054  36.358  22.050   3.371
19795W        W92055  43.900  35.596  14.996
19796W        W92056  28.054  41.361  12.826
19797W        W92057  27.504  41.852   9.591
19798W        W92058   3.911  38.006  11.030
19799W        W92059  28.651  35.941   2.394
19800W        W92060  22.657  22.171  11.489
19801W        W92061  40.904   9.762   1.340
19802W        W92062  37.025  35.363  14.926
19803W        W92063  31.906  29.474   1.790
19804W        W92064  23.668  40.842  13.546
19805W        W92065   5.435  39.338  10.480
19806W        W92066  27.659   5.926  12.082
19807W        W92067   0.792   5.732   1.330
19808W        W92068   6.328   0.289  14.976
19809W        W92069   6.868   2.945  13.024
19810W        W92070   1.450  21.035  13.990
19811W        W92071  42.344  33.908   2.870
19812W        W92072  25.702  36.062  13.312
19813W        W92073  33.999  26.182  14.026
19814W        W92074   1.325  23.231  13.525
19815W        W92075  29.094  13.695  11.381
19816W        W92076  13.166  37.994  10.551
19817W        W92077  28.963   4.838  12.553
19818W        W92078  13.203   4.891  11.417
19819W        W92079  13.225  28.146   4.750
19820W        W92080  20.730   7.894  11.925
19821W        W92081  19.061  11.336   3.296
19822W        W92082   2.397  28.049  10.924
19823W        W92083  40.473  18.779  12.436
19824W        W92084  15.816  16.601   1.834
19825W        W92085  37.537  37.437  10.944
19826W        W92086  36.905  44.353  14.766
19827W        W92087  15.258  30.494  14.005
19828W        W92088  43.407  26.988   0.425
19829W        W92089  26.537  40.314  11.889
19830W        W92090   8.198   4.763   0.271
19831W        W92091   7.279  40.905   0.775
19832W        W92092  37.424  27.071  11.601
19833W        W92093  38.385   6.203   3.863
19834W        W92094  35.029  12.773   0.249
19835W        W92095  34.387  26.165  14.959
19836W        W92096  32.509  27.656  11.523
19837W        W92097  34.502  40.903  13.456
19838W        W92098  38.831   1.838   3.742
19839W        W92099  26.035  33.099   0.308
19840W        W92100  44.799  15.099   3.665
19841W        W92101   8.768  37.073  11.581
19842W        W92102  17.178  26.954   1.843
19843W        W92103   6.294  11.791  10.421
19844W        W92104   6.382  26.557   0.483
19845W        W92105  27.650  34.542  14.501
19846W        W92106  20.216  41.371   1.910
19847W        W92107  19.093  24.179   1.274
19848W        W92108  26.114  11.202   0.855
19849W        W92109  43.941  20.668   4.652
19850W        W92110  16.621   5.710   2.234
19851W        W92111  43.420  40.548  12.895
19852W        W92112   5.323  38.377  14.303
19853W        W92113   0.473  39.846   4.802
19854W        W92114   6.428   4.846  10.908
19855W        W92115  26.568   2.268   2.711
19856W        W92116  23.702   7.204   0.875
19857W        W92117  12.191   0.398  13.466
19858W        W92118  17.576  10.154   4.221
19859W        W92119   8.404  32.523   3.255
19860W        W92120  38.063   0.306  13.042
19861W        W92121   2.957   2.377  14.474
19862W        W92122   4.420  44.425  12.946
19863W        W92123  41.895  28.623   2.851
19864W        W92124  28.965  43.898   4.246
19865W        W92125  21.185  37.886  11.396
19866W        W92126  42.801  39.932  10.145
19867W        W92127  26.502  10.250  13.042
19868W        W92128  28.171  10.362   5.154
19869W        W92129  39.560   3.443  14.448
19870W        W92130   4.779   7.394   1.420
19871W        W92131  11.232  16.743   2.700
19872W        W92132   1.833   8.765   4.704
19873W        W92133  36.977   9.890   9.454
19874W        W92134   6.209   2.843   1.442
19875W        W92135   3.842  25.627   0.946
19876W        W92136   7.250  26.955   4.709
19877W        W92137   2.769  18.280   1.814
19878W        W92138  27.125  10.177  10.068
19879W        W92139  22.630  12.628   1.382
19880W        W92140  31.489  24.541  14.870
19881W        W92141  19.537  10.832   2.687
19882W        W92142  25.158  27.144  13.386
19883W        W92143   2.306  24.221  13.531
19884W        W92144  19.219  41.514   4.624
19885W        W92145  33.587  19.584  12.579
19886W        W92146  35.392  12.244   4.713
19887W        W92147   7.283  21.691  12.862
19888W        W92148   8.185  32.118   1.706
19889W        W92149  19.653  36.403  12.888
19890W        W92150  30.554  30.072  11.546
19891W        W92151  34.046  19.627  10.919
19892W        W92152   1.390  16.228   2.330
19893W        W92153   8.362  30.059  11.929
19894W        W92154  20.758  14.098   4.802
19895W        W92155  37.940   2.270  13.487
19896W        W92156   5.341  41.364  13.479
19897W        W92157  15.123  23.620   1.748
19898W        W92158  33.606   6.746  12.081
19899W        W92159  18.102  11.643   2.243
19900W        W92160  21.727   2.948  10.513
19901W        W92161  22.520  30.108   1.797
19902W        W92162  10.291  19.627  14.816
19903W        W92163  24.998  30.604   1.717
19904W        W92164  20.673   5.387   1.907
19905W        W92165   1.943   1.376   1.331
19906W        W92166  43.020  23.531   3.323
19907W        W92167  13.726  11.127   1.849
19908W        W92168  10.828   3.900  14.846
19909W        W92169  30.114  33.123  12.906
19910W        W92170   0.248  41.421  13.468
19911W        W92171  23.242   4.779  10.905
19912W        W92172  42.987   0.768   3.375
19913W        W92173   1.343   7.678   4.793
19914W        W92174  42.822   9.161   4.679
19915W        W92175  44.466  32.117   2.784
19916W        W92176  26.493   6.350   1.717
19917W        W92177  12.210   4.331   4.350
19918W        W92178   6.802  23.525   2.699
19919W        W92179  33.611   6.732   4.353
19920W        W92180  15.803  34.614   3.667
19921W        W92181  15.822  25.676   3.660
19922W        W92182   4.292  28.616   2.714
19923W        W92183   6.290  42.338   2.189
19924W        W92184  16.278  34.007   0.783
19925W        W92185  34.931  11.345  11.563
19926W        W92186  15.702  29.147  12.990
19927W        W92187  12.645   4.833   2.717
19928W        W92188  28.661  44.368  14.354
19929W        W92189  29.098  34.080   3.211
19930W        W92190  36.563  19.190  11.866
19931W        W92191  35.470  12.714   2.900
19932W        W92192  13.674   0.775  11.894
19933W        W92193  16.717   1.257  13.957
19934W        W92194  43.447  13.728  10.936
19935W        W92195  27.638  34.893   1.742
19936W        W92196   3.448  44.469  13.926
19937W        W92197  21.232  30.450  13.855
19938W        W92198  12.339  24.698  12.921
19939W        W92199  31.537  27.533  12.399
19940W        W92200  34.485  16.253   3.166
19941W        W92201  13.763  15.705   3.735
19942W        W92202  42.507  26.170   2.770
19943W        W92203  34.090  29.935  12.424
19944W        W92204  10.142  10.699   1.227
19945W        W92205  15.729  34.036  13.422
19946W        W92206  30.414  17.066   2.193
19947W        W92207  15.221  39.926  13.911
19948W        W92208  12.180   3.857  13.013
19949W        W92209  26.486   9.727  11.123
19950W        W92210  11.690  17.786  13.866
19951W        W92211   3.237  26.569  13.390
19952W        W92212  12.628  24.663  14.899
19953W        W92213  38.520   9.792  14.358
19954W        W92214  21.102  19.752   5.233
19955W        W92215  35.953  43.902   2.851
19956W        W92216   3.293  16.249   0.861
19957W        W92217   4.279   6.231  11.544
19958W        W92218  10.743  26.163  13.967
19959W        W92219  33.088  25.647  14.333
19960W        W92220  18.120  18.596   2.244
19961W        W92221  14.788  34.594   0.260
19962W        W92222   9.294  35.503  10.475
19963W        W92223  38.933  30.092  12.433
19964W        W92224  25.216   3.221  12.001
19965W        W92225  27.182   2.841   4.682
19966W        W92226  30.502  24.577  10.418
19967W        W92227   2.288  43.393   1.330
19968W        W92228  42.827  11.638  13.367
19969W        W92229  30.623  15.746   3.854
19970W        W92230   7.712  30.548   4.287
19971W        W92231  42.432  17.658   1.428
19972W        W92232  20.253  30.656   2.406
19973W        W92233   7.749  42.022  10.917
19974W        W92234  18.198  30.136  12.392
19975W        W92235  30.495  44.926  13.329
19976W        W92236  30.139  16.276   4.114
19977W        W92237   5.401  39.999   4.349
19978W        W92238  40.046  31.543   3.839
19979W        W92239  41.319  40.808   3.274
19980W        W92240  14.661  26.154  13.791
19981W        W92241  19.742  24.592   2.802
19982W        W92242  19.546   8.243  13.415
19983W        W92243  17.175  35.435   0.439
19984W        W92244   3.797   0.856  12.455
19985W        W92245  25.015  42.786   4.796
19986W        W92246  21.143   6.205   1.445
19987W        W92247  17.284  26.584  10.579
19988W        W92248   2.862  18.708  11.027
19989W        W92249  31.623  44.978   0.416
19990W        W92250  10.673  17.153   4.335
19991W        W92251  36.961  37.067   1.885
19992W        W92252  27.100  40.848   0.820
19993W        W92253  39.909  30.009   1.717
19994W        W92254  34.455  44.465   4.627
19995W        W92255  39.960  25.023  10.426
19996W        W92256  30.448  43.486  14.449
19997W        W92257  14.174  19.243   2.734
19998W        W92258  34.108  12.621   2.329
19999W        W92259  44.439  33.963   2.688
20000W        W92260   0.883  24.208   3.354
20001W        W92261  14.651   9.878   4.599
20002W        W92262   2.914  21.035  11.545
20003W        W92263  32.985  35.007   2.346
20004W        W92264  36.974  31.028   0.392
20005W        W92265  38.852  41.828   4.317
20006W        W92266  37.883   9.277  14.415
20007W        W92267  12.818  15.766   4.684
20008W        W92268  37.011  30.634   1.340
20009W        W92269  10.773  26.077   2.825
20010W        W92270   6.327  39.868   2.298
20011W        W92271  28.681  32.528   9.948
20012W        W92272  30.993   1.382  14.381
20013W        W92273  13.797  21.190   2.887
20014W        W92274  19.538  41.329   2.679
20015W        W92275  10.751   4.878   1.410
20016W        W92276  35.461  11.840  11.579
20017W        W92277   6.247  32.017  10.033
20018W        W92278  33.460   2.313  12.007
20019W        W92279   9.221  20.036  14.830
20020W        W92280  18.090  15.677   0.753
20021W        W92281   5.729   4.274   1.917
20022W        W92282  26.625  28.508   2.823
20023W        W92283   8.163  43.986   4.234
20024W        W92284   6.208  44.849   2.790
20025W        W92285  38.854  43.008   2.310
20026W        W92286  14.201   4.786  11.502
20027W        W92287  11.754  44.890   1.889
20028W        W92288  34.586  33.951  12.022
20029W        W92289  28.532  37.914  11.042
20030W        W92290  38.341   1.455  13.046
20031W        W92291  23.062  31.500   4.279
20032W        W92292  35.927  24.532   2.246
20033W        W92293  39.824  11.230   4.234
20034W        W92294   2.817   6.821  11.886
20035W        W92295  20.143  25.527  12.486
20036W        W92296   5.384   1.921  13.875
20037W        W92297  20.597  15.635   1.849
20038W        W92298   9.319  27.194   1.860
20039W        W92299  23.561  43.873   1.852
20040W        W92300  37.475  34.932   5.313
20041W        W92301  32.901  14.719  13.957
20042W        W92302  22.091  29.098   0.771
20043W        W92303  25.187   6.326  10.945
20044W        W92304  14.704   5.230   2.690
20045W        W92305  44.864  34.108   3.374
20046W        W92306  30.940  18.248   5.234
20047W        W92307  14.779  17.096   3.198
20048W        W92308  34.013  44.501   2.305
20049W        W92309  22.626  15.652   5.267
20050W        W92310  32.634  32.517  13.817
20051W        W92311  43.864  43.367  12.420
20052W        W92312  35.453  21.040   2.197
20053W        W92313   3.271  29.477   1.346
20054W        W92314   7.271  22.741   3.327
20055W        W92315  21.041  43.942   5.152
20056W        W92316  25.483  35.428   3.380
20057W        W92317  23.088  31.537  11.862
20058W        W92318  33.415   0.758   3.765
20059W        W92319  23.692  44.360   3.181
20060W        W92320  42.996   3.880  12.867
20061W        W92321  43.964  14.324   4.755
20062W        W92322  18.125   7.781   3.858
20063W        W92323   6.762  42.939  12.349
20064W        W92324  29.495  40.052  11.440
20065W        W92325   6.419   9.239  14.390
20066W        W92326  13.627   6.853   1.906
20067W        W92327  12.259  38.962   3.178
20068W        W92328   0.985   0.826   3.280
20069W        W92329  29.529   1.240  12.959
20070W        W92330  15.282  21.029  13.939
20071W        W92331  23.025  13.802   0.315
20072W        W92332  15.311  10.193  13.526
20073W        W92333   5.436   8.263   3.193
20074W        W92334  35.396  22.033   4.306
20075W        W92335  21.531  42.977   0.882
20076W        W92336  21.664  16.571   4.807
20077W        W92337  37.025  27.083  11.936
20078W        W92338  40.422  23.665  11.498
20079W        W92339  27.622   3.861  10.560
20080W        W92340  32.955   8.248   0.826
20081W        W92341  40.515  20.656  14.386
20082W        W92342  27.628  17.671   0.353
20083W        W92343  31.429  15.794   3.294
20084W        W92344   0.468  28.586  10.484
20085W        W92345  30.965   4.787  10.432
20086W        W92346   6.329  43.478  11.991
20087W        W92347  17.671  12.643   4.639
20088W        W92348  37.564  40.964   2.184
20089W        W92349   8.868  40.372   2.349
20090W        W92350   1.261  11.755   0.895
20091W        W92351  35.583  13.311  14.827
20092W        W92352  15.726  39.331   0.410
20093W        W92353  40.417  39.051   3.702
20094W        W92354   5.311  12.855   4.204
20095W        W92355  14.759  35.458   2.324
20096W        W92356  20.680  35.394  10.601
20097W        W92357  39.871   7.333   4.717
20098W        W92358  15.624   2.797  12.545
20099W        W92359  32.479  23.640  13.861
20100W        W92360  18.229  24.176  10.473
20101W        W92361  29.543  28.070   3.819
20102W        W92362   1.273  10.322   4.252
20103W        W92363  18.705  17.663   2.211
20104W        W92364  30.909  12.154   0.847
20105W        W92365  12.828  15.245  10.994
20106W        W92366  41.015   0.378   4.671
20107W        W92367  23.127  22.082   1.850
20108W        W92368  44.420  28.649   0.465
20109W        W92369  37.010  24.065   2.293
20110W        W92370  23.671   5.788  14.381
20111W        W92371   8.890  33.416   0.476
20112W        W92372  16.688  28.934  10.492
20113W        W92373  28.166  28.047  14.983
20114W        W92374  16.667   7.783   4.677
20115W        W92375  34.964  38.553  12.035
20116W        W92376   2.963  20.239  14.900
20117W        W92377  12.626  37.037  14.288
20118W        W92378  21.162  29.022   0.930
20119W        W92379  25.655   5.413   2.223
20120W        W92380   6.748  32.628  14.001
20121W        W92381   1.408   2.927  11.041
20122W        W92382  13.146  36.481  11.072
20123W        W92383  27.167  37.939   2.750
20124W        W92384   9.711  28.970  11.036
20125W        W92385   1.783  38.021   4.227
20126W        W92386   3.818  42.903   2.398
20127W        W92387  40.925  23.066   2.377
20128W        W92388  28.008  39.538  10.629
20129W        W92389  19.538  42.437  13.872
20130W        W92390   6.310  31.510   2.395
20131W        W92391  17.692  22.227  10.992
20132W        W92392   8.275   8.271  11.533
20133W        W92393  31.641  43.853   1.900
20134W        W92394  31.487  24.130  13.001
20135W        W92395  12.787  23.628  13.045
20136W        W92396   0.836  32.534   4.336
20137W        W92397   0.399  25.205  10.435
20138W        W92398  18.260  27.680  11.025
20139W        W92399   7.341  16.245   0.797
20140W        W92400  33.879  26.044   4.287
20141W        W92401  35.433  40.358  14.449
20142W        W92402  24.079  44.422   3.372
20143W        W92403  31.419  19.702   0.963
20144W        W92404  44.952  39.946  11.101
20145W        W92405  20.053  12.135  11.502
20146W        W92406  27.620  20.261   2.879
20147W        W92407  30.595  19.264  11.125
20148W        W92408  24.601  34.410  14.994
20149W        W92409  37.433  10.647   0.848
20150W        W92410   4.866  28.120  12.980
20151W        W92411  19.724   9.156   2.355
20152W        W92412   4.414  18.112   1.221
20153W        W92413  25.206  38.426  14.330
20154W        W92414  37.479  39.835   0.900
20155W        W92415  41.417   1.468   4.771
20156W        W92416  42.816   4.389   3.296
20157W        W92417  36.504  39.929   0.249
20158W        W92418  28.635  37.582   4.202
20159W        W92419  20.638  18.163  11.898
20160W        W92420  36.536  32.116   1.294
20161W        W92421   4.910  43.309  12.051
20162W        W92422   8.737  18.710   3.300
20163W        W92423  29.046  29.578   0.275
20164W        W92424  41.416  34.888   0.855
20165W        W92425   3.337   8.669   0.921
20166W        W92426  30.496  36.955   2.754
20167W        W92427  10.834  30.009   4.264
20168W        W92428   6.831  26.206   0.447
20169W        W92429  13.162  19.718   2.728
20170W        W92430  38.494  12.287  11.376
20171W        W92431   2.945  26.643  11.090
20172W        W92432   5.726  27.658  10.632
20173W        W92433  10.207  29.133   4.265
20174W        W92434  14.238  29.573  10.426
20175W        W92435  15.310   2.917  12.988
20176W        W92436  25.087   8.385   3.257
20177W        W92437  38.470  36.981  14.410
20178W        W92438  43.408  13.645  11.544
20179W        W92439  32.994  29.522   0.252
20180W        W92440   4.920   1.939  12.824
20181W        W92441  26.013  44.461  12.387
20182W        W92442  20.128  24.541  13.941
20183W        W92443   0.909  12.852  10.046
20184W        W92444  12.624  23.025   1.395
20185W        W92445   6.889  32.948   3.181
20186W        W92446   1.783  32.064  12.940
20187W        W92447  33.495   6.204  13.343
20188W        W92448  33.600  15.304  12.993
20189W        W92449  36.996  14.309  12.958
20190W        W92450   0.364   2.796  13.432
20191W        W92451   1.480   2.739  13.967
20192W        W92452  41.524  32.397  11.037
20193W        W92453  12.146   8.786   4.647
20194W        W92454  23.653  32.603  12.891
20195W        W92455  33.590  13.836  11.108
20196W        W92456  31.080  21.047  13.403
20197W        W92457   4.314   6.403   0.806
20198W        W92458  40.843  18.169  13.964
20199W        W92459  13.337  34.563  14.292
20200W        W92460  38.388   3.259  14.373
20201W        W92461  23.535  39.372  13.010
20202W        W92462  22.674  38.336   3.278
20203W        W92463  15.621  16.729   5.221
20204W        W92464  20.243  39.905  11.481
20205W        W92465  19.579  26.495  10.892
20206W        W92466  32.611  10.639  14.832
20207W        W92467  42.289   6.288  10.602
20208W        W92468   1.914  43.870   3.694
20209W        W92469  21.635   9.340  12.463
20210W        W92470  24.148  33.999   3.799
20211W        W92471  27.157  17.293   4.232
20212W        W92472  41.959  31.957  12.924
20213W        W92473  40.417  13.290   1.720
20214W        W92474  28.668  16.715  10.935
20215W        W92475  35.096  28.011   0.383
20216W        W92476  17.603   6.265   4.816
20217W        W92477  26.589   5.826   4.778
20218W        W92478  12.297  31.931  11.112
20219W        W92479  12.134  31.911  14.281
20220W        W92480  33.892  20.075   1.860
20221W        W92481  26.999   0.273  13.925
20222W        W92482  25.023   4.359   1.874
20223W        W92483  32.481  15.727   4.710
20224W        W92484  18.672   8.307  13.045
20225W        W92485  14.143  36.972   3.232
20226W        W92486  23.731   1.953   1.719
20227W        W92487  32.611  38.405  12.446
20228W        W92488   8.314  27.004   4.330
20229W        W92489  39.464  39.004   1.222
20230W        W92490  20.759  31.951   3.721
20231W        W92491   6.765  15.780   0.779
20232W        W92492  28.585  41.312  12.449
20233W        W92493  29.511  37.458   2.717
20234W        W92494  17.673   2.966  12.419
20235W        W92495   5.716  33.464  11.933
20236W        W92496  25.155  30.034  13.417
20237W        W92497  38.448  16.210   4.154
20238W        W92498  28.987   6.389   1.794
20239W        W92499   6.897   8.178   4.202
20240W        W92500   5.436  28.478  12.474
20241W        W92501   5.883  44.005   1.293
20242W        W92502   3.755  16.272   0.938
20243W        W92503  38.475  17.135   4.299
20244W        W92504  36.417  26.178  12.900
20245W        W92505  15.739  11.820  10.939
20246W        W92506  11.309  42.374  13.834
20247W        W92507  43.479  20.139   0.418
20248W        W92508  20.136  19.144   1.426
20249W        W92509  44.483  31.132  10.899
20250W        W92510  16.691  15.147  11.449
20251W        W92511  44.967  37.443  11.027
20252W        W92512  39.868   5.303   4.805
20253W        W92513  18.649  13.725  10.465
20254W        W92514  18.654  44.446   2.851
20255W        W92515  14.126  18.234   2.202
20256W        W92516  12.318  32.556   1.211
20257W        W92517  14.193   1.805   4.323
20258W        W92518  31.938  18.620  10.526
20259W        W92519  25.620   6.359  10.087
20260W        W92520  22.639   9.670  11.437
20261W        W92521  36.479  40.893  12.565
20262W        W92522  17.152   2.915   4.800
20263W        W92523   5.287  24.505  12.913
20264W        W92524  24.725  28.032  12.007
20265W        W92525  39.933  41.432   2.661
20266W        W92526   5.343  20.224   4.642
20267W        W92527   3.835   8.657  11.041
20268W        W92528  20.105   2.315  11.540
20269W        W92529   6.280  32.907   2.246
20270W        W92530  23.037  12.668   4.688
20271W        W92531  18.263   8.346   1.400
20272W        W92532  20.147   1.389  12.441
20273W        W92533   9.303   6.797   0.856
20274W        W92534  14.241  21.755  14.884
20275W        W92535  42.513  32.036   0.883
20276W        W92536  37.336   7.803  10.070
20277W        W92537  11.843  33.619  11.030
20278W        W92538   8.700  32.567  10.580
20279W        W92539   8.781  30.413  13.375
20280W        W92540  41.816  24.223   1.384
20281W        W92541  16.599   0.749   1.451
20282W        W92542  12.743  37.463   4.808
20283W        W92543  12.235  38.368  12.903
20284W        W92544  43.777   2.339  10.539
20285W        W92545  17.749  18.109   0.801
20286W        W92546  40.968  12.767   4.129
20287W        W92547  19.566  17.645   3.167
20288W        W92548  29.543  43.896   0.892
20289W        W92549  33.917  16.632  11.461
20290W        W92550  15.302  13.777   5.703
20291W        W92551   1.429  39.453  11.031
20292W        W92552  44.803  30.620   2.301
20293W        W92553  21.522  23.523   3.196
20294W        W92554   1.371   0.792  12.047
20295W        W92555   6.859  14.120  14.782
20296W        W92556  37.342  13.800   3.673
20297W        W92557  20.694  13.654   4.282
20298W        W92558   4.757   3.857   3.357
20299W        W92559   9.334  33.547  13.307
20300W        W92560  42.948  43.334   0.883
20301W        W92561   7.376  20.523  13.973
20302W        W92562  42.506  30.130  13.475
20303W        W92563  32.990  31.978   0.731
20304W        W92564  38.881  44.313  11.372
20305W        W92565   9.368   6.818  11.597
20306W        W92566   8.267   5.913   4.637
20307W        W92567  35.602  44.850   3.829
20308W        W92568  29.466  28.657   1.915
20309W        W92569   6.316   2.368  14.968
20310W        W92570  22.105  21.725   4.755
20311W        W92571  34.868   7.353   1.282
20312W        W92572  19.554  34.507   3.704
20313W        W92573  35.477  26.654  12.849
20314W        W92574  42.422  15.315  12.867
20315W        W92575  35.894  41.864   0.285
20316W        W92576   4.845  39.959   4.607
20317W        W92577  26.474   0.477  13.927
20318W        W92578  28.548   4.700  14.333
20319W        W92579  10.271   8.393  14.382
20320W        W92580  23.682  11.664  11.546
20321W        W92581  10.380  27.195   0.929
20322W        W92582  38.977  30.590  11.025
20323W        W92583  31.013  32.506  12.029
20324W        W92584   4.280   2.932  13.355
20325W        W92585  43.314  31.599  14.928
20326W        W92586  44.317   7.364   1.858
20327W        W92587  13.673  18.737  13.862
20328W        W92588  38.986  23.992   0.321
20329W        W92589   2.954  41.815  11.072
20330W        W92590  28.112  44.396  13.539
20331W        W92591   5.918  31.521   4.348
20332W        W92592  21.603  35.869   4.781
20333W        W92593  34.544  21.681  11.585
20334W        W92594  22.619  15.593   4.787
20335W        W92595  15.620  18.647  13.420
20336W        W92596  23.009  31.603   3.741
20337W        W92597  31.117   4.894   4.746
20338W        W92598  16.570  17.776   4.682
20339W        W92599  10.807  21.600  11.460
20340W        W92600  20.049  33.619   2.684
20341W        W92601  21.235   5.307   0.858
20342W        W92602  31.919  40.304  11.921
20343W        W92603  16.259  14.691   2.775
20344W        W92604  12.248  23.624  12.420
20345W        W92605  34.904  21.205  13.879
20346W        W92606  34.515  29.999  12.003
20347W        W92607  14.286  38.948   0.258
20348W        W92608  29.010  28.151  11.513
20349W        W92609  26.588  42.805   4.731
20350W        W92610   1.889  16.796   0.409
20351W        W92611  37.035  43.871   3.334
20352W        W92612   6.339  10.749  11.501
20353W        W92613  36.515  44.299  11.454
20354W        W92614  30.568  16.662  11.539
20355W        W92615  23.233  19.544  13.837
20356W        W92616  13.720  42.796  13.816
20357W        W92617  17.613  27.138  12.981
20358W        W92618  17.076  28.500   2.404
20359W        W92619  20.075  18.289  12.466
20360W        W92620  30.589  25.637   1.877
20361W        W92621   9.353  36.900  13.807
20362W        W92622   5.895  10.247   1.917
20363W        W92623   4.914  39.492   3.853
20364W        W92624   6.721  24.077  12.366
20365W        W92625  31.553  26.024  13.055
20366W        W92626  34.878  21.546   0.819
20367W        W92627   5.927   0.788   2.394
20368W        W92628  35.072   4.760  13.508
20369W        W92629  23.042  41.449   4.168
20370W        W92630  38.014  43.808   2.239
20371W        W92631  39.442  31.051   0.458
20372W        W92632  27.568  32.406   4.622
20373W        W92633  26.119  20.525  13.790
20374W        W92634  38.036  37.364   3.867
20375W        W92635  36.023  20.182   1.325
20376W        W92636   8.855  19.249   2.664
20377W        W92637  31.485  44.790   0.846
20378W        W92638  14.701   8.800  14.305
20379W        W92639  22.039  38.368   4.787
20380W        W92640  43.474  30.040   2.763
20381W        W92641   6.317  15.185  12.926
20382W        W92642  25.652  17.122  10.511
20383W        W92643  32.491  32.099  10.067
20384W        W92644  20.588  30.581  12.897
20385W        W92645  18.282  26.593   4.177
20386W        W92646  22.081  20.580  13.310
20387W        W92647  28.994  40.938  12.854
20388W        W92648  12.193  15.699  14.889
20389W        W92649  36.042  41.914  14.487
20390W        W92650  17.570   6.380   1.929
20391W        W92651  29.510  19.114   0.934
20392W        W92652  36.003  11.668   4.786
20393W        W92653  12.692  40.403   0.836
20394W        W92654  37.388  39.998  13.490
20395W        W92655  18.239   1.360   1.376
20396W        W92656  38.059   7.846   1.849
20397W        W92657  29.464  11.768  12.903
20398W        W92658  28.599  11.654   2.404
20399W        W92659   7.900   4.252  13.409
20400W        W92660  21.579  35.079  13.015
20401W        W92661  14.798  11.804   1.243
20402W        W92662  32.944  21.094   4.626
20403W        W92663  16.676  37.363  14.324
20404W        W92664  41.009   9.861   4.263
20405W        W92665  11.717  24.221   1.854
20406W        W92666  33.543  15.314   3.375
20407W        W92667  14.257  17.191   3.263
20408W        W92668  30.994  29.462  13.853
20409W        W92669  14.784  31.146   5.719
20410W        W92670  44.321  39.527   4.152
20411W        W92671  19.715   1.931  10.641
20412W        W92672   5.921   2.450   2.760
20413W        W92673  25.471  32.043   5.182
20414W        W92674  43.390   8.254   1.287
20415W        W92675  22.215  21.246   2.305
20416W        W92676  40.320  15.731   0.958
20417W        W92677  34.485  25.538  11.579
20418W        W92678  29.659  19.111  14.351
20419W        W92679  20.107   5.708  13.438
20420W        W92680   7.199  32.920  12.971
20421W        W92681  34.938  20.532   2.326
20422W        W92682   2.332  13.816   1.864
20423W        W92683  30.080  13.630   4.228
20424W        W92684  44.497  23.510   4.825
20425W        W92685  21.554  11.668   4.225
20426W        W92686  12.159  40.484  12.526
20427W        W92687  41.984  40.536  10.083
20428W        W92688  22.529   2.914  13.494
20429W        W92689  38.399  39.824   4.201
20430W        W92690  34.409   9.294  14.953
20431W        W92691   5.332  17.276   3.382
20432W        W92692  32.425   9.709  10.600
20433W        W92693  22.646  11.669  12.951
20434W        W92694   0.880  28.992  13.521
20435W        W92695  16.104  30.583  10.586
20436W        W92696  34.398  23.734   1.907
20437W        W92697  28.145  10.271   1.222
20438W        W92698  14.765  27.034   0.404
20439W        W92699  19.575  37.085   4.790
20440W        W92700  43.897  31.511  12.385
20441W        W92701  12.178  10.197   2.845
20442W        W92702   6.719  13.639   3.843
20443W        W92703  17.174  39.393  12.864
20444W        W92704   7.248  32.896  14.932
20445W        W92705  33.494  12.230   4.787
20446W        W92706   9.267  39.452   2.361
20447W        W92707  23.008  18.050  11.382
20448W        W92708  19.207   1.387  14.782
20449W        W92709   0.792   6.276   1.700
20450W        W92710  33.593  34.037  11.919
20451W        W92711  17.691   5.372   3.348
20452W        W92712  20.696  17.230  10.517
20453W        W92713  27.596  43.279  11.043
20454W        W92714  16.158  22.124  10.999
20455W        W92715  28.943  17.744  12.383
20456W        W92716  20.088   4.745   0.457
20457W        W92717  12.351  24.104   3.769
20458W        W92718  37.436   5.328  11.955
20459W        W92719  10.778   8.244  13.791
20460W        W92720  41.838  44.416   2.281
20461W        W92721  40.412   9.151  13.363
20462W        W92722   5.914   1.741   1.403
20463W        W92723  41.932  29.531  14.981
20464W        W92724  11.758   6.343  12.878
20465W        W92725  32.955  22.595  11.527
20466W        W92726  26.068  35.505  10.525
20467W        W92727  11.662   7.248  14.762
20468W        W92728  17.090  36.983   2.884
20469W        W92729  41.438  23.633   2.757
20470W        W92730  20.703  17.156   1.391
20471W        W92731   7.383  27.078  13.802
20472W        W92732  40.522  20.588  13.313
20473W        W92733  11.692   6.741   1.230
20474W        W92734  44.403  39.827   3.664
20475W        W92735  24.094   2.270  14.504
20476W        W92736   0.435  32.494   1.808
20477W        W92737  10.154  37.555  12.440
20478W        W92738  31.061   1.313  10.637
20479W        W92739  38.424  42.388   0.886
20480W        W92740  15.146  16.718   4.773
20481W        W92741  14.814  26.635   1.411
20482W        W92742  42.823  43.462   0.273
20483W        W92743  10.323  18.632  12.964
20484W        W92744  35.449  24.622   3.674
20485W        W92745  23.009   6.678   0.361
20486W        W92746  17.104   9.183   4.267
20487W        W92747   8.675  28.470   4.349
20488W        W92748   9.746  32.053  10.982
20489W        W92749   8.189  35.455  14.885
20490W        W92750  19.560  20.269  13.370
20491W        W92751  42.913  29.998   4.702
20492W        W92752  33.450   2.347  11.461
20493W        W92753  43.300   2.770  12.009
20494W        W92754  16.298  32.018   4.778
20495W        W92755  20.118  42.886  11.079
20496W        W92756   9.761   0.365   4.710
20497W        W92757  36.951   7.351   5.181
20498W        W92758  33.110  17.094  11.884
20499W        W92759  32.029   9.232  12.350
20500W        W92760   6.685  18.086  14.768
20501W        W92761  17.668  28.043  11.597
20502W        W92762  44.273   6.412   3.727
20503W        W92763  24.665  22.230   2.222
20504W        W92764  33.470   1.924  11.081
20505W        W92765  29.017  42.959   2.821
20506W        W92766   9.860  39.883   1.730
20507W        W92767  15.256  16.590   2.292
20508W        W92768   2.725  41.423  10.521
20509W        W92769   2.852  10.303   3.642
20510W        W92770  44.919  41.910   3.695
20511W        W92771  25.506  17.243  12.350
20512W        W92772  17.190  22.515   3.277
20513W        W92773   2.781  13.837  11.016
20514W        W92774  36.467  43.474  11.444
20515W        W92775  28.057  40.899  11.994
20516W        W92776  22.677  21.030  13.052
20517W        W92777  31.544   4.732  14.005
20518W        W92778  17.606   2.786  13.952
20519W        W92779  29.158   0.403  11.092
20520W        W92780  35.525   5.800  11.951
20521W        W92781  23.677  27.960  10.101
20522W        W92782  10.664  20.044  14.340
20523W        W92783  22.647  42.454  10.608
20524W        W92784  30.598  23.633   1.871
20525W        W92785  22.521  26.468   1.704
20526W        W92786  15.176  25.094  10.449
20527W        W92787  26.699   7.874   4.138
20528W        W92788   8.353  41.519   2.310
20529W        W92789  33.381  12.785   0.424
20530W        W92790   9.223  33.940   2.799
20531W        W92791  25.659   1.832  11.039
20532W        W92792  36.096  40.804   2.283
20533W        W92793  32.404  20.127   0.347
20534W        W92794   7.740  39.832  11.972
20535W        W92795  39.546  31.605  11.442
20536W        W92796   1.857  29.510   3.194
20537W        W92797  43.822   2.353   0.949
20538W        W92798  31.001  16.796   3.326
20539W        W92799  20.236  43.412  13.495
20540W        W92800  23.508  39.320  12.095
20541W        W92801  15.689  12.667   3.675
20542W        W92802  22.241   3.832  12.522
20543W        W92803  13.786  12.229  10.541
20544W        W92804   6.404  12.229   1.862
20545W        W92805   8.375  21.725   1.348
20546W        W92806   7.240  15.707  14.458
20547W        W92807  19.637   1.256  13.015
20548W        W92808  11.190  37.459   2.197
20549W        W92809  37.470  25.543  12.944
20550W        W92810  15.083  32.499  14.359
20551W        W92811   7.763   5.291   1.930
20552W        W92812  26.551  38.441  14.292
20553W        W92813  16.260  27.577   1.246
20554W        W92814  43.452  39.931  11.093
20555W        W92815  37.480  25.673   2.194
20556W        W92816  29.464  21.095  12.092
20557W        W92817   7.315   7.892   4.700
20558W        W92818   7.799  15.780   2.811
20559W        W92819  25.029  28.069  14.392
20560W        W92820  35.942  39.927  10.469
20561W        W92821   3.369  28.114   5.255
20562W        W92822   5.269  34.615  14.929
20563W        W92823  18.619  21.621  12.052
20564W        W92824  10.236  10.314   5.102
20565W        W92825  39.537   4.209   4.649
20566W        W92826   5.730  15.148  13.466
20567W        W92827  26.013   7.799   2.412
20568W        W92828  18.730   0.915  12.368
20569W        W92829  33.977  26.620  10.558
20570W        W92830  32.626  39.419   1.705
20571W        W92831  17.594   7.384   5.230
20572W        W92832  42.376  40.026   3.377
20573W        W92833  32.022  25.076  13.808
20574W        W92834   9.793  38.501  11.490
20575W        W92835   4.787  38.986   0.846
20576W        W92836   2.427  14.735  13.501
20577W        W92837  11.158  32.893  12.444
20578W        W92838  15.626  18.133  13.018
20579W        W92839  13.786   3.731  11.396
20580W        W92840  22.617   3.285  13.523
20581W        W92841  21.217  25.084  10.893
20582W        W92842  18.714  28.036   1.249
20583W        W92843  38.498  24.508  14.807
20584W        W92844  44.402  11.727  12.929
20585W        W92845  41.907   4.396  11.534
20586W        W92846   5.436  34.869  12.571
20587W        W92847  42.388  16.698   4.792
20588W        W92848  28.177  39.507   4.827
20589W        W92849  20.132  25.034   0.378
20590W        W92850  15.194  32.635   2.841
20591W        W92851   1.879  18.690   1.326
20592W        W92852  27.450  35.471   3.373
20593W        W92853   0.468  27.464  13.961
20594W        W92854  13.295  19.060  11.546
20595W        W92855  32.399   9.339  13.391
20596W        W92856  33.610  34.445  11.562
20597W        W92857  13.808  14.694   0.257
20598W        W92858   6.857   3.942  14.019
20599W        W92859   1.284  34.532   2.845
20600W        W92860  31.477  31.648   3.246
20601W        W92861  26.995  12.306   1.215
20602W        W92862  23.172   8.863   5.271
20603W        W92863  31.459   8.180   2.683
20604W        W92864  30.908  38.371  13.029
20605W        W92865  25.043  12.723  13.802
20606W        W92866  18.681  33.388  14.398
20607W        W92867  14.286   6.809  13.950
20608W        W92868  44.357  25.002  14.870
20609W        W92869  20.108  11.813   0.809
20610W        W92870  17.715  31.566  12.994
20611W        W92871  31.597  36.031  10.906
20612W        W92872  30.106   9.880  10.928
20613W        W92873  33.511  36.014   4.748
20614W        W92874  38.451  34.023  12.068
20615W        W92875  26.474  26.986   0.815
20616W        W92876  22.076  41.434  13.535
20617W        W92877  28.153   5.731  14.291
20618W        W92878  19.261  27.135   4.647
20619W        W92879  32.041  29.656   4.144
20620W        W92880   6.811  23.099   3.211
20621W        W92881  12.348  42.482  10.950
20622W        W92882  13.803   0.876  13.974
20623W        W92883  28.959   9.194  12.934
20624W        W92884  23.087   4.877  11.445
20625W        W92885  42.903  43.793   1.264
20626W        W92886  28.614   2.788  10.567
20627W        W92887  13.151  30.437  14.800
20628W        W92888   4.850  16.080  14.367
20629W        W92889   9.379   9.294   4.807
20630W        W92890  27.160  39.945   4.161
20631W        W92891  16.701  39.422  12.041
20632W        W92892  32.089  30.071   3.258
20633W        W92893  39.844  16.140  10.424
20634W        W92894  14.241   5.910   0.282
20635W        W92895  43.438  21.211  12.914
20636W        W92896  22.127  43.282  14.985
20637W        W92897  25.567  11.705   0.264
20638W        W92898  21.118  29.483   1.416
20639W        W92899  32.607  16.214   0.963
20640W        W92900   8.848  38.824  13.462
20641W        W92901  38.925   9.299  14.773
20642W        W92902   6.394  33.581  12.048
20643W        W92903  27.450  38.564  12.906
20644W        W92904  38.863  22.715  14.901
20645W        W92905  36.515  14.192   3.381
20646W        W92906   5.756  12.361  10.536
20647W        W92907  22.656  13.262  10.456
20648W        W92908  25.024   9.871  10.612
20649W        W92909  12.293  32.614  11.462
20650W        W92910   0.951  31.138   0.294
20651W        W92911  10.276  28.447  10.894
20652W        W92912  43.429  27.122   2.229
20653W        W92913  40.404  19.663  14.778
20654W        W92914  37.493  32.993  14.818
20655W        W92915   0.479  28.087  12.550
20656W        W92916  20.709   2.779   4.306
20657W        W92917   6.722   8.785   1.752
20658W        W92918  10.243  42.888  11.971
20659W        W92919  22.730  24.012  11.928
20660W        W92920  34.594  18.216  10.466
20661W        W92921  21.117  20.196   0.249
20662W        W92922   6.297   0.434  11.426
20663W        W92923  27.188  14.234  14.769
20664W        W92924   9.711  13.710  12.976
20665W        W92925  27.638   2.822   0.769
20666W        W92926  32.475  18.164   4.706
20667W        W92927  37.086   8.335   0.359
20668W        W92928  41.410  11.277   1.439
20669W        W92929  17.301   8.188  13.531
20670W        W92930  19.621  19.207  10.936
20671W        W92931  24.145  20.125  14.281
20672W        W92932  44.391  13.685  14.500
20673W        W92933  41.824   7.760   3.372
20674W        W92934  38.837   5.264   0.482
20675W        W92935  29.553  25.059   1.822
20676W        W92936  39.028   8.827   0.771
20677W        W92937  11.706  30.446  11.946
20678W        W92938   6.681  42.367   2.390
20679W        W92939  22.555  24.624  11.082
20680W        W92940  27.101   4.407   2.695
20681W        W92941  31.528   7.308   3.344
20682W        W92942  19.594  34.901  13.964
20683W        W92943   6.281   8.691   1.214
20684W        W92944   9.770  42.385   2.375
20685W        W92945  34.392  11.263   1.242
20686W        W92946  27.017  30.425  12.912
20687W        W92947   4.920  18.727   1.432
20688W        W92948  30.558  41.833  12.563
20689W        W92949  15.814  26.485  11.094
20690W        W92950  41.822  21.196   1.858
20691W        W92951  18.275   9.278   0.859
20692W        W92952  15.643  22.132  10.061
20693W        W92953   1.836  23.614  12.518
20694W        W92954  42.974  21.132   0.861
20695W        W92955  35.889  41.859  12.070
20696W        W92956  21.620  16.654  11.078
20697W        W92957  30.546  30.071  10.475
20698W        W92958  43.278  25.558   0.280
20699W        W92959  35.881   6.891   4.233
20700W        W92960  15.591  36.989  12.951
20701W        W92961  31.016  43.813   3.342
20702W        W92962  23.100  10.357  10.626
20703W        W92963   7.881  14.140   3.647
20704W        W92964  17.193  36.587   3.743
20705W        W92965  26.562  38.497  13.468
20706W        W92966   1.840  28.677   3.760
20707W        W92967   4.376  18.730  12.073
20708W        W92968  19.156  40.405  12.918
20709W        W92969  23.517  36.395   1.370
20710W        W92970  27.530  25.142   1.803
20711W        W92971   4.816  24.560  11.056
20712W        W92972  31.513  16.569  14.961
20713W        W92973  15.206   7.825   0.350
20714W        W92974  37.894  11.324  11.916
20715W        W92975  41.319  41.833  13.440
20716W        W92976  33.069  28.154   0.353
20717W        W92977  14.184  10.356  11.921
20718W        W92978  15.280   9.202   4.598
20719W        W92979  11.133   8.307  14.376
20720W        W92980  18.675  15.602  10.958
20721W        W92981   9.867   0.423  13.465
20722W        W92982  14.679  29.966   1.423
20723W        W92983   7.403   3.744  11.867
20724W        W92984  35.503  21.094   3.194
20725W        W92985  23.211  44.916  12.825
20726W        W92986  13.802  10.751   0.243
20727W        W92987  18.561  20.102   0.459
20728W        W92988  32.927   7.878   3.675
20729W        W92989  35.376  44.337   2.196
20730W        W92990  22.534   7.179  11.020
20731W        W92991  44.892   6.282   3.822
20732W        W92992  42.377  37.999  13.401
20733W        W92993  19.218  29.016   0.758
20734W        W92994  11.260  40.519  10.566
20735W        W92995   5.838  29.569  11.943
20736W        W92996  38.387  30.428  12.886
20737W        W92997   9.700  42.379  13.903
20738W        W92998  13.818  17.072  13.830
20739W        W92999  39.988  25.090   4.239
20740W        W93000   0.488  22.058  13.934
20741W        W93001  29.128  22.198  14.372
20742W        W93002  19.727  27.091  11.861
20743W        W93003  23.655  31.039  10.904
20744W        W93004  19.744  39.336  13.991
20745W        W93005  13.321  18.212  11.407
20746W        W93006  30.986   8.363  14.993
20747W        W93007   2.913  20.693   0.256
20748W        W93008  15.688  36.946  14.374
20749W        W93009  13.134  28.603  13.340
20750W        W93010  12.279   5.880   2.276
20751W        W93011  27.462  26.518   2.720
20752W        W93012  10.155  41.872   4.751
20753W        W93013   6.272   6.263   2.894
20754W        W93014  21.679  28.131  14.283
20755W        W93015  37.517  35.898  10.630
20756W        W93016  26.008  27.553  11.516
20757W        W93017  39.006  35.080  12.440
20758W        W93018   5.296  41.295  10.604
20759W        W93019  17.608  15.653  12.987
20760W        W93020   1.856  37.574  13.501
20761W        W93021  42.281   6.874   1.808
20762W        W93022  32.530   5.413   0.805
20763W        W93023  36.347  19.539  10.492
20764W        W93024   2.239  18.768  13.958
20765W        W93025   4.760  19.093   1.393
20766W        W93026  33.577  14.107  13.940
20767W        W93027  18.153  17.784   4.328
20768W        W93028  39.904  28.660  13.919
20769W        W93029   3.898  20.526   4.662
20770W        W93030  21.058  32.552  14.870
20771W        W93031   1.957  33.525  13.472
20772W        W93032  29.611  41.339   3.327
20773W        W93033  25.090  36.954   0.315
20774W        W93034  17.661  29.454   3.200
20775W        W93035  20.175  16.598   4.717
20776W        W93036  11.640  15.591   1.778
20777W        W93037  38.954  19.540  10.511
20778W        W93038  42.360  25.474   1.262
20779W        W93039   9.850  32.968   4.121
20780W        W93040   6.909  21.224   1.762
20781W        W93041  14.662  10.152  10.019
20782W        W93042  16.305  18.719  12.021
20783W        W93043  43.847   9.200  13.446
20784W        W93044  11.172  16.730  14.931
20785W        W93045   0.272  15.280   1.377
20786W        W93046  38.393  10.250  14.434
20787W        W93047  42.876  19.625  12.383
20788W        W93048  11.357  28.540  10.954
20789W        W93049  19.568  39.009   2.275
20790W        W93050  24.678  18.121  10.423
20791W        W93051   6.295  33.440  11.609
20792W        W93052  15.618   0.901   4.835
20793W        W93053   4.825  20.537  13.328
20794W        W93054  26.130  43.854  11.431
20795W        W93055  18.651  29.528   0.783
20796W        W93056  27.622  32.971  10.512
20797W        W93057   4.433  18.619  11.587
20798W        W93058  10.850  24.574  11.887
20799W        W93059  38.015  26.157   3.856
20800W        W93060  27.692   1.480   4.751
20801W        W93061   3.321  24.122   0.884
20802W        W93062  37.833  16.225   1.295
20803W        W93063  41.347  35.397   1.396
20804W        W93064  39.321   6.893   9.575
20805W        W93065  37.476  14.814   0.393
20806W        W93066  32.076  27.965  13.805
20807W        W93067  20.084  24.094   0.477
20808W        W93068  16.161  19.176  12.962
20809W        W93069  22.236  28.548   3.822
20810W        W93070  39.400  25.500   0.312
20811W        W93071  40.466   9.643  10.553
20812W        W93072  18.684  13.289   5.284
20813W        W93073  32.086  34.572   4.793
20814W        W93074  20.167   9.381   3.635
20815W        W93075   4.360  17.161  10.606
20816W        W93076   9.268  23.190   4.639
20817W        W93077  18.755  42.841  10.070
20818W        W93078  43.327   7.699   4.241
20819W        W93079  26.676  15.717  11.953
20820W        W93080   7.880  23.733   1.889
20821W        W93081  43.271   0.841  14.817
20822W        W93082  15.093  19.739  11.026
20823W        W93083   1.397  28.672   1.317
20824W        W93084  31.911   8.285  14.818
20825W        W93085  11.799  31.456  14.864
20826W        W93086  20.114   9.293   3.295
20827W        W93087  24.125  28.634   4.686
20828W        W93088  19.770   0.771   3.774
20829W        W93089  33.493  16.743   1.344
20830W        W93090  44.979  23.531   4.633
20831W        W93091   0.832  29.167  12.084
20832W        W93092  29.631  29.929  11.469
20833W        W93093   4.239  26.045  12.027
20834W        W93094  11.356  26.611   2.787
20835W        W93095   4.795   9.164  10.523
20836W        W93096  19.092  42.025   4.800
20837W        W93097  15.582  40.501   1.892
20838W        W93098   7.865   4.861   2.677
20839W        W93099  16.192  25.548  14.276
20840W        W93100  36.499  32.457  11.461
20841W        W93101  12.855  10.772  10.563
20842W        W93102   3.292   2.965   1.395
20843W        W93103  23.148   5.692  13.862
20844W        W93104  27.028  33.926   1.783
20845W        W93105  11.781  15.139   1.419
20846W        W93106  38.981  21.162   1.806
20847W        W93107  28.596  12.255   3.162
20848W        W93108  43.008   5.305   4.251
20849W        W93109  23.627  15.264  13.448
20850W        W93110  34.586  34.428   1.231
20851W        W93111  16.243  23.567   5.202
20852W        W93112  18.278   2.799  12.093
20853W        W93113  13.265   4.918   4.176
20854W        W93114  20.564  17.130  12.983
20855W        W93115  40.997   5.818   0.866
20856W        W93116  36.424  34.551   2.255
20857W        W93117   7.786   4.847  14.925
20858W        W93118  24.692  15.139  14.797
20859W        W93119   3.364  16.678   1.809
20860W        W93120  12.792   3.768  11.506
20861W        W93121   5.194   2.470  12.076
20862W        W93122  20.673   7.751  14.950
20863W        W93123  42.517  40.823   0.854
20864W        W93124  14.623  14.172   9.483
20865W        W93125  16.688  17.303   2.808
20866W        W93126  36.997  44.428  11.893
20867W        W93127  12.293  27.509   9.523
20868W        W93128   5.720  28.950   0.901
20869W        W93129  31.120  23.601  10.891
20870W        W93130  22.643  20.539  13.957
20871W        W93131  44.377  21.523  13.415
20872W        W93132  19.721  22.731   0.462
20873W        W93133  33.433  35.519   0.399
20874W        W93134  33.116   1.396  14.790
20875W        W93135  12.282  38.409   1.783
20876W        W93136  16.277  20.639   3.787
20877W        W93137  36.854  35.530  10.472
20878W        W93138  38.860  21.679   0.737
20879W        W93139   1.347  28.998  13.799
20880W        W93140  21.043  27.653  11.505
20881W        W93141   9.766  28.941   3.272
20882W        W93142  16.204  17.221   2.353
20883W        W93143  22.159  25.643   1.870
20884W        W93144   4.289  39.037   2.861
20885W        W93145  26.181  40.448  14.855
20886W        W93146  32.615   9.840   3.334
20887W        W93147   7.314  11.694  14.868
20888W        W93148  11.276  19.079  11.076
20889W        W93149  42.898  44.944  12.005
20890W        W93150  38.570   1.800  10.615
20891W        W93151  11.188   3.357   4.251
20892W        W93152  32.125  20.262  11.121
20893W        W93153  29.145  19.209   4.210
20894W        W93154  40.873   1.243  10.605
20895W        W93155  41.487  31.520  14.439
20896W        W93156  16.650   2.414   2.756
20897W        W93157  35.082  16.671   0.957
20898W        W93158   9.373  44.375  13.499
20899W        W93159  12.620  41.815   1.347
20900W        W93160   4.814   6.878   1.248
20901W        W93161   4.346  43.293   2.701
20902W        W93162  42.380   1.812   4.118
20903W        W93163  22.652  41.992   2.345
20904W        W93164  11.300  25.093  13.535
20905W        W93165  12.255  34.572  14.798
20906W        W93166   4.382  20.081   4.652
20907W        W93167  19.053  25.492  13.835
20908W        W93168  41.385  39.899  14.370
20909W        W93169   7.685  13.816   0.803
20910W        W93170  12.287  15.788   0.828
20911W        W93171   6.266  26.458  11.586
20912W        W93172  15.654  22.643   3.341
20913W        W93173  40.484  37.948  12.062
20914W        W93174  42.862   6.725  12.352
20915W        W93175  40.827   2.944  11.403
20916W        W93176   2.732  27.117   1.711
20917W        W93177  20.171   6.766   4.689
20918W        W93178  35.853  10.280   0.788
20919W        W93179  28.655  27.564   4.750
20920W        W93180  43.970  28.608  11.555
20921W        W93181   0.785  42.330  10.545
20922W        W93182  43.516  43.288   2.298
20923W        W93183  43.793  11.700   3.237
20924W        W93184  34.045  30.970   0.310
20925W        W93185   3.754  10.699  10.473
20926W        W93186   5.214  21.723  10.559
20927W        W93187   9.271  27.656   4.608
20928W        W93188  41.803  11.680  13.909
20929W        W93189  43.887   5.236   3.787
20930W        W93190  22.076   6.728  13.340
20931W        W93191  23.047  42.341   4.219
20932W        W93192  32.082  16.629  12.927
20933W        W93193  43.354   5.852   4.627
20934W        W93194  35.032   0.780  14.763
20935W        W93195  44.379  12.660   5.200
20936W        W93196   2.228   8.831   3.200
20937W        W93197  29.486   8.403   4.152
20938W        W93198  42.436  18.264   2.669
20939W        W93199  24.110  35.519   2.359
20940W        W93200  23.164   0.969   3.363
20941W        W93201   5.851  14.334  14.982
20942W        W93202  30.031  17.674   2.697
20943W        W93203  25.632  14.638   2.414
20944W        W93204  44.499  38.986  10.477
20945W        W93205  37.354  36.417   1.445
20946W        W93206  15.656   6.385   0.743
20947W        W93207  21.204  20.542   9.985
20948W        W93208  38.357  28.051   3.691
20949W        W93209   0.401  39.900  12.010
20950W        W93210   1.914   9.169   0.776
20951W        W93211   1.963  17.794  12.436
20952W        W93212  43.476  31.475  11.025
20953W        W93213   5.701  36.373   4.603
20954W        W93214  21.121  16.808   4.253
20955W        W93215   7.379  25.008   4.664
20956W        W93216   7.361  36.585  14.475
20957W        W93217   6.801  33.469  10.977
20958W        W93218  21.082  18.775   2.710
20959W        W93219  26.503  27.609   3.680
20960W        W93220   7.218  19.679   1.849
20961W        W93221  10.767  33.528  12.536
20962W        W93222  32.530   6.704  12.389
20963W        W93223   7.901  27.136   3.651
20964W        W93224  12.291  27.162  10.545
20965W        W93225  15.633  18.565   4.203
20966W        W93226  14.676  32.474  10.935
20967W        W93227  31.566  31.590  14.454
20968W        W93228  35.382  28.172  14.827
20969W        W93229  29.598   8.784   2.858
20970W        W93230  12.725  25.691  12.354
20971W        W93231  32.032   0.884   0.949
20972W        W93232   8.356  17.238   0.330
20973W        W93233  44.872  10.268   3.699
20974W        W93234  27.593  29.473   2.282
20975W        W93235  36.430  12.716   2.198
20976W        W93236  31.057  24.074  14.334
20977W        W93237  31.600  36.458  12.870
20978W        W93238  43.960  20.105  10.992
20979W        W93239  22.165  14.739   0.264
20980W        W93240  27.184  28.145   0.358
20981W        W93241  25.507   2.767   2.245
20982W        W93242  43.802  33.102   3.223
20983W        W93243  32.984   8.770  12.421
20984W        W93244  32.107  13.320   1.775
20985W        W93245  25.990  32.985  13.497
20986W        W93246  42.945   6.825  12.833
20987W        W93247  42.927  23.533  12.458
20988W        W93248   2.398  39.458  12.856
20989W        W93249  21.064   0.370  11.440
20990W        W93250  23.574  12.842   2.862
20991W        W93251   8.726  31.554   4.234
20992W        W93252  34.587  17.651  12.439
20993W        W93253  22.669  18.600  13.953
20994W        W93254  12.283  16.104   3.342
20995W        W93255  30.530  17.085   0.341
20996W        W93256  25.470  24.516  13.354
20997W        W93257  31.953  33.947   4.713
20998W        W93258  27.147  16.583   2.901
20999W        W93259  40.516  31.068  10.466
21000W        W93260  21.064  21.100   4.751
21001W        W93261  11.641  42.970  12.374
21002W        W93262  14.324  23.534   0.348
21003W        W93263  26.672  27.563  11.416
21004W        W93264  37.447  30.111   0.472
21005W        W93265  44.813  31.108  14.394
21006W        W93266  21.656  18.106  10.086
21007W        W93267  23.167  44.502  12.933
21008W        W93268  10.348  41.423  13.355
21009W        W93269   9.881  44.383  10.467
21010W        W93270  18.081  39.470  10.604
21011W        W93271   0.409   3.909   4.292
21012W        W93272  33.932  26.104  10.430
21013W        W93273  22.104  29.472   4.334
21014W        W93274  22.655  40.305   2.203
21015W        W93275  44.784  19.559   0.914
21016W        W93276  32.431   9.250  10.515
21017W        W93277   9.252  21.727   4.647
21018W        W93278  16.160  30.590   1.865
21019W        W93279  35.890  12.116   1.728
21020W        W93280   6.185  23.163   0.842
21021W        W93281  23.229   0.979   4.308
21022W        W93282  19.705  29.993  14.356
21023W        W93283  13.211   8.374  12.072
21024W        W93284  27.092  17.601  12.088
21025W        W93285  36.456   6.789  13.505
21026W        W93286   9.377  11.703  11.007
21027W        W93287  24.197  16.626   0.837
21028W        W93288  27.535  22.063  14.834
21029W        W93289  31.486  43.816  13.826
21030W        W93290  36.416   3.769  10.969
21031W        W93291  44.374   2.917   2.864
21032W        W93292  30.597  23.204  11.558
21033W        W93293  20.065  41.832   0.898
21034W        W93294  19.561  30.633  13.033
21035W        W93295  12.674   3.815  10.567
21036W        W93296  24.227  26.035   1.220
21037W        W93297  34.599  43.994   1.339
21038W        W93298  28.474  10.798   4.619
21039W        W93299  41.890  29.977   0.749
21040W        W93300  44.296  28.538  11.542
21041W        W93301  31.935   4.935  11.035
21042W        W93302   5.195   3.359   4.197
21043W        W93303   7.902   6.317   3.812
21044W        W93304   7.348   7.774  12.955
21045W        W93305  31.543  42.856  10.505
21046W        W93306  40.997  19.124  13.511
21047W        W93307   4.702  41.389  14.336
21048W        W93308  41.447  31.138  10.591
21049W        W93309  31.037   2.236  13.012
21050W        W93310   9.835   4.258  11.999
21051W        W93311  39.347  43.019  14.285
21052W        W93312   8.349   1.375   0.350
21053W        W93313  15.797  12.139   1.362
21054W        W93314   4.914  43.850   3.387
21055W        W93315  28.647  15.222   2.300
21056W        W93316  30.941  38.911   0.420
21057W        W93317  33.916  37.998  13.842
21058W        W93318  39.968  32.077  11.442
21059W        W93319   4.944  20.200  10.595
21060W        W93320   5.385  41.328   2.270
21061W        W93321  29.157  35.978   3.270
21062W        W93322  27.110  22.538  11.420
21063W        W93323  24.575  22.709   4.762
21064W        W93324  13.165  31.933   1.880
21065W        W93325   3.822  41.436   4.296
21066W        W93326   2.949   2.914  14.761
21067W        W93327  26.698  40.897  10.954
21068W        W93328  34.878  35.947   0.466
21069W        W93329   4.437  16.648   0.841
21070W        W93330  35.943  27.182   0.263
21071W        W93331  37.015   0.267  13.537
21072W        W93332   8.208  28.167   5.296
21073W        W93333  13.822  27.517   2.322
21074W        W93334   9.887  28.587  14.382
21075W        W93335   5.406  38.399   4.249
21076W        W93336   4.325  10.789   2.359
21077W        W93337  29.032  36.462   0.750
21078W        W93338  32.434   4.227   4.807
21079W        W93339   4.300  11.678  10.967
21080W        W93340  23.053  43.426   4.200
21081W        W93341  29.992   3.365   1.334
21082W        W93342  25.570  28.563   0.915
21083W        W93343  31.941  31.047   0.931
21084W        W93344  41.524  19.268  13.544
21085W        W93345   9.688   2.826  11.585
21086W        W93346   1.425  39.335  10.466
21087W        W93347  17.143  15.184  14.503
21088W        W93348  28.999  17.073   1.717
21089W        W93349   5.263  39.962   4.697
21090W        W93350  31.640  24.196  11.941
21091W        W93351  16.617  28.136  13.987
21092W        W93352   0.834  39.844   3.322
21093W        W93353   1.307   4.257   1.360
21094W        W93354  10.205  39.882  10.006
21095W        W93355  17.686  23.597   3.148
21096W        W93356  33.586  28.167   5.161
21097W        W93357  12.826  27.188   4.136
21098W        W93358   5.283  38.523   1.722
21099W        W93359  32.100  10.280  14.010
21100W        W93360  26.481  39.988  13.843
21101W        W93361  32.528   9.241   2.384
21102W        W93362  19.749   9.677   4.232
21103W        W93363  30.532  22.096   0.400
21104W        W93364   8.877  38.387   1.715
21105W        W93365  32.533  32.540  10.611
21106W        W93366  14.160  40.475  11.856
21107W        W93367  17.741  16.789   4.181
21108W        W93368  11.216  12.633  12.920
21109W        W93369  14.702   9.694  10.544
21110W        W93370   3.936  15.114   1.729
21111W        W93371   9.224  10.226  11.868
21112W        W93372  27.952  29.011  11.601
21113W        W93373  23.222   9.281  14.946
21114W        W93374   5.405  11.694   2.873
21115W        W93375   6.204   7.291   4.725
21116W        W93376  23.016  31.461  12.352
21117W        W93377   7.809  33.899   4.261
21118W        W93378  44.425  19.118   3.734
21119W        W93379   3.799  34.875   4.689
21120W        W93380  26.474  36.529   2.215
21121W        W93381  43.272   8.692  14.399
21122W        W93382  39.047  33.598  14.282
21123W        W93383  22.087  19.679   4.325
21124W        W93384  24.054  32.970  13.951
21125W        W93385  30.499  13.616   0.745
21126W        W93386  11.158  13.675  13.906
21127W        W93387   9.804  21.693  11.896
21128W        W93388  39.394  22.683   1.934
21129W        W93389   3.408   4.758  14.022
21130W        W93390  13.299  32.631   0.336
21131W        W93391   5.382  29.946   1.388
21132W        W93392  14.095   3.824  14.351
21133W        W93393   4.779  27.171  11.575
21134W        W93394  10.800  22.125   1.875
21135W        W93395  25.617   8.760   2.338
21136W        W93396  19.053   9.315   9.609
21137W        W93397  11.639   4.894   5.151
21138W        W93398  39.999  30.437  14.387
21139W        W93399  10.841  34.597  11.401
21140W        W93400  28.042  40.394  10.437
21141W        W93401  18.123  28.483  13.480
21142W        W93402  27.048  25.471   1.895
21143W        W93403  22.628  29.569   4.164
21144W        W93404  14.740  43.391  11.529
21145W        W93405   8.838  25.964   2.381
21146W        W93406   8.699   7.224   2.720
21147W        W93407  35.495  37.378   3.328
21148W        W93408   4.698  39.521   1.303
21149W        W93409  19.549  26.638   2.807
21150W        W93410  30.082  20.663   3.162
21151W        W93411  30.420   6.688  14.994
21152W        W93412  16.218  35.876   1.812
21153W        W93413  12.659  27.973   1.925
21154W        W93414  12.160  42.830  14.292
21155W        W93415  41.010  12.256   4.720
21156W        W93416  28.931  26.580  10.586
21157W        W93417  27.676  27.112   4.281
21158W        W93418  38.926   0.771  13.508
21159W        W93419  11.853  14.632   4.242
21160W        W93420  36.077  40.832   1.385
21161W        W93421  35.024   5.354  12.407
21162W        W93422  42.374  42.504  12.529
21163W        W93423  10.689  38.382  14.444
21164W        W93424  25.515  37.401  14.764
21165W        W93425  38.058  35.399   3.274
21166W        W93426  15.189  38.984  13.035
21167W        W93427  37.474  25.642  10.909
21168W        W93428  19.149  43.791   3.160
21169W        W93429  24.581  37.480  10.532
21170W        W93430  42.804  32.392  14.019
21171W        W93431   3.316  42.319  13.341
21172W        W93432   3.398  31.955   3.146
21173W        W93433   2.240  22.663   4.268
21174W        W93434  20.245   8.781   0.865
21175W        W93435  40.379  14.684  13.907
21176W        W93436  39.040  10.228   4.609
21177W        W93437   8.772   3.894  11.600
21178W        W93438   5.325  16.076  14.468
21179W        W93439  39.999   2.314   0.798
21180W        W93440  42.339   3.341  11.869
21181W        W93441  32.573  36.014   1.835
21182W        W93442  18.133  25.104   4.728
21183W        W93443   6.896   0.280  10.990
21184W        W93444  40.001   8.804  10.141
21185W        W93445  11.204   6.377   2.706
21186W        W93446  31.477  31.545  12.527
21187W        W93447  37.858   1.288  13.020
21188W        W93448  24.666  27.130  12.834
21189W        W93449  13.265  42.836   0.901
21190W        W93450   7.263  42.953  14.847
21191W        W93451   8.825  21.037  13.963
21192W        W93452   0.362  17.576  12.580
21193W        W93453  10.838  29.097  12.394
21194W        W93454  13.817  23.706  13.391
21195W        W93455   3.786  30.159  14.351
21196W        W93456  14.199  36.581   2.775
21197W        W93457   5.798  26.700  11.372
21198W        W93458   8.388   7.278  10.442
21199W        W93459  21.066  39.941  10.914
21200W        W93460  37.985  23.104   1.372
21201W        W93461   2.824  10.370  14.378
21202W        W93462   4.930   5.916   4.632
21203W        W93463  20.704  35.045  10.433
21204W        W93464  30.483  39.992  14.970
21205W        W93465  14.594  19.557   3.866
21206W        W93466  23.233  40.047  11.597
21207W        W93467   9.181  24.618  13.531
21208W        W93468   6.235  27.141   5.189
21209W        W93469   2.965  30.094   3.705
21210W        W93470   3.768  25.540   2.306
21211W        W93471   5.435  13.343   1.442
21212W        W93472  24.031  27.122  13.950
21213W        W93473  12.256  41.505   1.232
21214W        W93474  18.783  15.316   0.470
21215W        W93475   6.802  20.157  10.557
21216W        W93476  18.765   5.386  10.035
21217W        W93477  22.548  21.616   1.790
21218W        W93478   9.213  20.759   0.859
21219W        W93479  41.919   5.736  11.934
21220W        W93480   6.231  19.132  10.945
21221W        W93481  26.005   7.705  14.472
21222W        W93482  10.816  41.825   4.279
21223W        W93483  41.459  38.857   2.385
21224W        W93484  34.905  19.132   3.262
21225W        W93485  17.229  40.903   3.637
21226W        W93486  32.599   3.874  12.835
21227W        W93487  42.899  22.186  11.468
21228W        W93488  34.999  12.330   2.318
21229W        W93489   1.343  10.223  12.027
21230W        W93490   7.677   2.471  11.594
21231W        W93491   1.744   3.845   0.728
21232W        W93492   1.425   0.401  13.813
21233W        W93493  39.892  22.232  13.054
21234W        W93494  35.049  24.979   1.724
21235W        W93495  37.368  25.496   0.736
21236W        W93496   2.470  30.513   0.327
21237W        W93497  13.784  26.471  12.831
21238W        W93498  24.667  12.340  12.937
21239W        W93499  14.803  34.024   1.451
21240W        W93500   8.766  23.235  13.057
21241W        W93501  18.700  11.337   1.343
21242W        W93502  27.080   9.762   1.420
21243W        W93503   7.738  19.538  11.495
21244W        W93504  11.848   8.849   4.729
21245W        W93505  20.155  20.177  14.942
21246W        W93506  33.121  43.838   0.371
21247W        W93507  16.211   5.860  12.416
21248W        W93508  36.902  24.185  14.991
21249W        W93509  20.761   7.900   3.675
21250W        W93510  27.040  37.468  11.380
21251W        W93511  30.429  33.075   3.726
21252W        W93512  18.566  29.071  10.940
21253W        W93513  37.460  11.690   2.851
21254W        W93514  13.318   5.316  11.036
21255W        W93515  29.039  31.047   1.343
21256W        W93516  41.382  14.745  14.481
21257W        W93517  35.595  31.464  11.389
21258W        W93518  17.232  35.078  11.024
21259W        W93519  34.424   4.825   4.114
21260W        W93520   2.382  11.810   1.425
21261W        W93521  23.676  31.033  13.905
21262W        W93522  28.962  28.036  10.913
21263W        W93523  18.089  12.117   2.296
21264W        W93524  40.923  16.157   0.766
21265W        W93525  43.325  42.381   1.292
21266W        W93526  34.481   5.323   0.743
21267W        W93527   6.194  21.659   2.262
21268W        W93528  21.669  30.497  10.557
21269W        W93529   4.287  38.949   3.795
21270W        W93530  19.616  30.605  14.936
21271W        W93531  44.948  13.169   1.390
21272W        W93532  44.296  25.487   1.750
21273W        W93533  15.267  28.966  12.851
21274W        W93534  33.005  25.212   1.337
21275W        W93535  39.403  40.034  14.803
21276W        W93536  35.879  20.591  10.035
21277W        W93537  22.229  32.939  11.455
21278W        W93538  11.213  36.096  13.963
21279W        W93539   3.741   0.775  10.463
21280W        W93540  33.445  44.928  14.426
21281W        W93541  42.491  19.684   0.746
21282W        W93542   2.899  41.833  10.624
21283W        W93543  27.097  29.126  14.986
21284W        W93544  44.852  17.617  11.447
21285W        W93545  13.213  21.097  14.418
21286W        W93546  37.001  35.604  12.569
21287W        W93547  33.938  39.359  14.020
21288W        W93548   7.186   6.763  12.414
21289W        W93549  19.618   5.333  14.399
21290W        W93550   4.804  12.676  14.769
21291W        W93551  25.014  11.818   4.598
21292W        W93552   9.850  22.091  11.443
21293W        W93553   4.282  32.914   2.889
21294W        W93554  35.556  38.423   3.212
21295W        W93555   4.730  26.971  14.430
21296W        W93556  39.558  42.452  13.407
21297W        W93557  13.125  14.263  11.586
21298W        W93558  25.209   5.873   4.296
21299W        W93559  14.234  24.222   0.890
21300W        W93560  28.617   2.831  14.288
21301W        W93561  15.148  11.813   4.621
21302W        W93562  24.603  39.823  13.009
21303W        W93563  38.977  15.165   5.083
21304W        W93564  12.333  28.447   4.213
21305W        W93565  33.899   5.421  13.401
21306W        W93566  34.553  40.386   1.919
21307W        W93567  11.848  24.227  13.393
21308W        W93568  40.520  25.205   1.244
21309W        W93569  32.459  38.898  13.975
21310W        W93570  40.346  43.270  12.892
21311W        W93571  31.580  29.962  14.334
21312W        W93572  28.542  43.802   3.237
21313W        W93573  30.139  18.738   4.671
21314W        W93574  21.263  20.549  13.426
21315W        W93575   0.917  17.149  10.055
21316W        W93576  22.580  25.076  10.970
21317W        W93577   8.812  14.171   4.800
21318W        W93578  40.356  13.242  10.512
21319W        W93579  21.621  21.237  11.984
21320W        W93580  22.157  34.599  14.770
21321W        W93581  23.680  44.996  12.044
21322W        W93582  41.867  11.352  11.122
21323W        W93583  39.423  44.855   4.669
21324W        W93584  23.009   3.914   3.186
21325W        W93585  33.111  23.708  14.892
21326W        W93586  31.506   9.358   0.320
21327W        W93587  32.110  11.216  10.110
21328W        W93588  43.301  43.311   3.222
21329W        W93589  20.539  40.445   4.171
21330W        W93590  36.366  32.587   1.279
21331W        W93591  21.139  36.090   1.216
21332W        W93592  37.946  43.396   2.260
21333W        W93593  22.249  43.454  13.461
21334W        W93594  15.757  15.767  10.574
21335W        W93595  10.319   2.852   0.732
21336W        W93596  29.074  29.104   2.676
21337W        W93597  33.476  21.543  11.557
21338W        W93598  31.445   1.459  13.325
21339W        W93599  42.355  26.472   1.280
21340W        W93600  30.961  44.499   2.396
21341W        W93601  44.836  30.962  14.773
21342W        W93602  44.942  10.741   2.705
21343W        W93603  18.787   4.747  11.953
21344W        W93604  16.581  16.140  14.784
21345W        W93605  12.696  31.495  10.489
21346W        W93606  44.889  35.464  11.855
21347W        W93607  21.753  37.577   0.966
21348W        W93608  35.502  20.709   9.672
21349W        W93609  25.582   1.479  11.380
21350W        W93610   3.362  39.318  13.363
21351W        W93611   4.752   4.726   4.823
21352W        W93612   6.810  42.427  14.868
21353W        W93613   6.722  27.550  13.375
21354W        W93614  29.585  16.718  11.590
21355W        W93615  31.024  42.333   4.738
21356W        W93616  24.649  19.183   0.906
21357W        W93617   9.261  36.453  14.313
21358W        W93618   4.229  12.660   0.306
21359W        W93619  31.071   9.318  12.834
21360W        W93620  32.436  40.482   3.163
21361W        W93621  36.914  31.921   5.142
21362W        W93622  19.720  27.154  10.504
21363W        W93623  27.956  23.009  12.407
21364W        W93624  23.124  11.355   3.256
21365W        W93625  38.413  22.115  14.448
21366W        W93626   1.950  23.724   2.862
21367W        W93627  10.315  35.389   1.430
21368W        W93628  35.898  38.873  10.440
21369W        W93629  25.707  29.648  13.474
21370W        W93630  37.395  35.899  12.845
21371W        W93631   4.856   7.784  14.940
21372W        W93632  29.496  10.741  12.346
21373W        W93633   4.850  42.470   3.738
21374W        W93634  13.647  21.637  11.034
21375W        W93635  17.773  26.656  14.371
21376W        W93636  40.797  10.165  11.961
21377W        W93637   3.727  17.079  13.856
21378W        W93638  34.602  29.995  11.455
21379W        W93639   7.824   1.425   4.640
21380W        W93640  17.062  23.564   3.633
21381W        W93641  24.206  12.754  11.452
21382W        W93642   3.882  25.185   1.264
21383W        W93643  10.254   6.384  13.817
21384W        W93644   3.796  29.949  11.862
21385W        W93645  39.513  17.707  13.973
21386W        W93646  44.414  14.256  13.377
21387W        W93647  20.740  13.168  14.383
21388W        W93648  32.441   6.845  12.836
21389W        W93649  27.968  26.628  13.059
21390W        W93650  10.714  21.204   4.149
21391W        W93651  11.204  14.772   4.156
21392W        W93652  19.716  37.533   1.848
21393W        W93653  39.892  24.006   0.934
21394W        W93654   2.427   1.458   4.806
21395W        W93655  34.599  31.570   4.657
21396W        W93656  13.118   4.324  12.974
21397W        W93657  29.540  10.686   3.216
21398W        W93658  28.054  32.117   2.209
21399W        W93659   3.887  31.470  11.890
21400W        W93660  37.374  26.629   2.190
21401W        W93661   5.746  10.871   3.791
21402W        W93662  42.306  18.782  13.337
21403W        W93663  26.638  40.827   3.332
21404W        W93664   0.425  32.899  13.873
21405W        W93665  32.940  39.438   2.202
21406W        W93666  18.770  27.625  13.792
21407W        W93667  32.985  16.225   0.402
21408W        W93668  31.569   4.710   4.139
21409W        W93669  32.536  42.803  13.539
21410W        W93670   3.748  26.998   2.791
21411W        W93671  17.131  12.353   0.929
21412W        W93672  31.071   0.845  14.791
21413W        W93673  16.592   0.852  12.368
21414W        W93674   6.735   4.935  11.564
21415W        W93675   4.869  10.856  13.801
21416W        W93676   8.789  15.317   4.707
21417W        W93677   0.859  31.067   2.890
21418W        W93678  18.115   2.757  14.975
21419W        W93679  34.926  24.498   3.176
21420W        W93680   7.310  34.565  11.052
21421W        W93681  31.599  25.658   3.675
21422W        W93682  30.440  19.754  14.008
21423W        W93683  31.448  41.828  12.862
21424W        W93684  25.714  36.978  11.913
21425W        W93685  22.658   5.322  11.902
21426W        W93686  34.902  33.126  11.910
21427W        W93687  42.366  40.359   4.188
21428W        W93688  15.307   0.829  13.448
21429W        W93689  20.546  35.416   4.128
21430W        W93690   2.777  28.949  11.013
21431W        W93691  26.492  33.897  11.463
21432W        W93692  39.996  19.734  11.913
21433W        W93693  26.664   0.973  13.819
21434W        W93694  38.972  25.543  12.018
21435W        W93695  27.604  28.077  14.816
21436W        W93696  29.050  25.643   0.323
21437W        W93697  13.228   2.779  13.889
21438W        W93698   9.254  13.214   4.677
21439W        W93699  36.035  26.670  14.030
21440W        W93700  16.666  30.466  13.837
21441W        W93701  17.709  44.916  14.850
21442W        W93702  11.671  39.836  10.937
21443W        W93703   6.784  20.176  14.926
21444W        W93704  15.243  10.359  12.436
21445W        W93705  28.012   9.211   4.330
21446W        W93706  40.868  20.526   2.820
21447W        W93707  25.608   8.686  12.969
21448W        W93708  37.943  41.950   2.265
21449W        W93709  38.843   8.334   1.428
21450W        W93710  13.334  26.643  10.969
21451W        W93711  44.449  18.286  12.876
21452W        W93712   3.388  16.096   3.815
21453W        W93713  17.771  40.996  12.907
21454W        W93714   6.744  10.709  12.072
21455W        W93715  38.397  18.138   4.333
21456W        W93716  30.509  32.464  14.384
21457W        W93717  18.550  27.992   1.925
21458W        W93718  43.941   4.707  10.978
21459W        W93719  37.081  32.042   0.449
21460W        W93720  30.517  26.029  14.381
21461W        W93721  36.422   4.371   2.812
21462W        W93722  28.574   7.859   4.767
21463W        W93723  21.237  14.289   4.683
21464W        W93724  16.777   6.802   2.882
21465W        W93725  13.135  11.188   2.841
21466W        W93726  39.838  18.771  12.429
21467W        W93727  26.160  17.289  14.385
21468W        W93728  28.055   0.743   1.925
21469W        W93729  32.017  12.135   0.437
21470W        W93730  36.572  28.495   3.354
21471W        W93731  19.216  27.970   0.430
21472W        W93732  18.132  44.829  12.914
21473W        W93733  39.411  29.534   3.178
21474W        W93734  13.228  42.854  10.518
21475W        W93735  14.778  17.596   5.218
21476W        W93736  14.607   0.920   2.890
21477W        W93737  12.754  36.585  13.848
21478W        W93738  30.499  23.029   1.698
21479W        W93739  18.734  24.625   3.148
21480W        W93740  30.165   7.672  11.595
21481W        W93741   3.778  18.246   1.734
21482W        W93742   1.838  14.800  14.854
21483W        W93743  14.750  34.995  11.372
21484W        W93744  35.976  17.709   2.202
21485W        W93745   5.199   1.975   0.860
21486W        W93746   0.853   9.371   1.733
21487W        W93747  19.230  35.964  11.966
21488W        W93748  20.639  10.188  13.832
21489W        W93749  42.854   2.332   0.387
21490W        W93750  29.546  22.735   0.248
21491W        W93751  37.028  21.624  11.998
21492W        W93752  39.509  44.783   3.761
21493W        W93753   6.272  21.104   0.458
21494W        W93754  14.700  32.966  13.792
21495W        W93755  22.681   5.218   4.312
21496W        W93756  31.505  44.461   1.775
21497W        W93757   6.198  12.278  12.904
21498W        W93758   9.885  26.682  11.910
21499W        W93759  22.727  27.083  11.500
21500W        W93760  44.961  24.701  12.376
21501W        W93761  39.319  13.179   3.866
21502W        W93762  14.224  35.061  12.542
21503W        W93763  42.486   4.893   1.797
21504W        W93764   3.869  16.734   4.745
21505W        W93765  30.650   4.761  11.588
21506W        W93766  12.214  17.651   4.351
21507W        W93767   2.870  14.294  10.434
21508W        W93768  34.030  26.531   4.170
21509W        W93769  26.630  28.605   2.334
21510W        W93770   1.922   9.184  11.562
21511W        W93771  14.098  18.056   3.820
21512W        W93772   0.957  22.190  11.908
21513W        W93773  25.058   5.752   4.622
21514W        W93774  25.493   7.697   2.389
21515W        W93775  14.632  20.090  10.556
21516W        W93776   6.197  39.411  14.334
21517W        W93777  41.351   5.858  12.951
21518W        W93778  13.635   6.912  10.412
21519W        W93779  18.624  22.658  11.871
21520W        W93780  25.170  32.092   4.130
21521W        W93781  38.458  40.481  11.402
21522W        W93782  43.402  37.979  14.780
21523W        W93783   2.261  23.631  11.461
21524W        W93784  11.241  21.570   0.386
21525W        W93785   2.410   9.306  14.415
21526W        W93786  43.010   1.833   4.344
21527W        W93787   1.465  41.309  12.057
21528W        W93788  37.903   1.867   0.412
21529W        W93789  28.007  25.110   3.697
21530W        W93790  25.695  35.859   2.294
21531W        W93791   2.235  34.461   2.273
21532W        W93792  32.462  19.693  13.001
21533W        W93793  17.112  18.673  10.898
21534W        W93794  31.571   7.755   0.297
21535W        W93795   2.402  32.572  10.636
21536W        W93796  35.554  30.918  12.453
21537W        W93797  18.125  36.843   3.724
21538W        W93798  15.585   2.442  11.977
21539W        W93799  25.166  27.093   3.271
21540W        W93800  44.905  11.690  13.951
21541W        W93801  43.862  35.586   3.754
21542W        W93802  34.068  36.896  12.869
21543W        W93803   2.315  35.571  12.892
21544W        W93804  29.500  30.939  13.037
21545W        W93805  34.529  44.852   2.272
21546W        W93806  43.899  20.728   0.810
21547W        W93807   6.414  40.468   5.094
21548W        W93808  37.918  43.300  14.295
21549W        W93809   2.287   3.257  12.914
21550W        W93810  26.058  40.536  14.390
21551W        W93811  42.863  34.060  14.952
21552W        W93812   4.234  24.567   4.632
21553W        W93813  15.703  38.554   4.123
21554W        W93814  40.396   8.765  10.978
21555W        W93815  31.599  28.650  12.081
21556W        W93816  43.405   0.971  14.286
21557W        W93817  43.007   9.765   3.684
21558W        W93818  33.080  33.996  14.418
21559W        W93819  31.071  28.675  12.891
21560W        W93820  24.557  18.757  14.371
21561W        W93821  39.018  12.268  12.068
21562W        W93822   2.401  23.199  10.954
21563W        W93823  30.615   4.225   2.338
21564W        W93824  37.426  16.203   4.819
21565W        W93825   6.297  16.694   4.670
21566W        W93826   2.805  27.057   0.835
21567W        W93827  32.412  25.118   1.827
21568W        W93828   6.412  19.229  13.352
21569W        W93829  28.064  32.088  12.978
21570W        W93830   7.866  11.665  14.766
21571W        W93831  13.765  21.717  13.874
21572W        W93832  16.306  36.860   3.338
21573W        W93833   0.863  29.511   2.839
21574W        W93834  25.143  19.072  13.879
21575W        W93835  43.371  39.518   4.794
21576W        W93836  44.391  39.968   0.392
21577W        W93837  20.714  14.678  14.845
21578W        W93838   7.897  15.241  12.070
21579W        W93839  29.579   9.734  10.404
21580W        W93840  12.238  21.561  10.469
21581W        W93841  18.560  37.944  12.910
21582W        W93842  35.097  20.227   2.180
21583W        W93843  31.647   7.832   1.804
21584W        W93844  37.888  30.984   0.909
21585W        W93845  39.863  43.415  12.992
21586W        W93846  25.588  11.211   2.215
21587W        W93847   0.912   1.265  13.023
21588W        W93848  44.974   5.875   4.335
21589W        W93849  30.617  21.702   3.185
21590W        W93850  17.154   5.270  12.888
21591W        W93851  20.602  41.992   4.179
21592W        W93852  41.033   6.192   1.389
21593W        W93853  24.054  39.377  11.372
21594W        W93854  42.337  17.737   2.217
21595W        W93855  36.442  17.708   0.422
21596W        W93856   0.333  34.924  13.908
21597W        W93857  15.101  20.049  11.891
21598W        W93858  29.663  34.514   4.670
21599W        W93859  11.212  21.042   2.312
21600W        W93860   7.735  42.942   1.304
21601W        W93861  21.565  22.110  14.887
21602W        W93862   2.776  39.479   2.807
21603W        W93863   7.285  42.385  11.021
21604W        W93864  15.209  28.062  12.533
21605W        W93865  23.101   9.862  10.429
21606W        W93866  20.736   1.347  14.413
21607W        W93867  17.788  15.819  11.941
21608W        W93868  22.660  39.819   1.789
21609W        W93869  23.159  15.604  14.823
21610W        W93870   7.733  42.505  10.424
21611W        W93871   5.252  18.072   2.280
21612W        W93872   8.807  27.456  12.386
21613W        W93873  34.549  11.757  10.597
21614W        W93874  24.677  25.611  13.380
21615W        W93875  10.348   5.904  13.476
21616W        W93876  38.349  32.031   2.180
21617W        W93877  23.135  38.534   2.870
21618W        W93878  14.660  37.017  14.782
21619W        W93879   2.790   6.802  14.355
21620W        W93880  31.975  27.940   2.277
21621W        W93881   0.937  32.520   3.165
21622W        W93882  30.013  25.105   4.729
21623W        W93883  36.969  29.165   2.744
21624W        W93884  25.555  21.243  12.396
21625W        W93885  16.212  41.395   3.843
21626W        W93886  20.745  36.011  11.080
21627W        W93887  22.722   0.773   0.933
21628W        W93888  25.072  24.516  12.579
21629W        W93889  41.890  41.923   1.215
21630W        W93890  16.256  24.640   0.359
21631W        W93891  30.426  35.577  12.069
21632W        W93892   9.324   8.671  12.429
21633W        W93893  43.489   1.830   5.259
21634W        W93894   0.833  30.499   9.988
21635W        W93895   3.382  31.963  11.878
21636W        W93896  11.769  35.955   2.854
21637W        W93897  23.048   6.778  14.995
21638W        W93898  38.900  26.187  13.382
21639W        W93899   0.884  17.566   0.811
21640W        W93900   7.200  31.464   4.674
21641W        W93901   4.701  21.135  11.581
21642W        W93902  31.079  26.622  10.439
21643W        W93903  30.617  39.547  12.957
21644W        W93904  32.986  10.645  11.923
21645W        W93905  36.476  41.866   1.837
21646W        W93906  32.002  11.227   3.658
21647W        W93907  22.086  22.646   0.374
21648W        W93908   6.801   5.279  11.598
21649W        W93909  41.904  20.091   0.419
21650W        W93910   9.843  40.871   3.170
21651W        W93911  22.140  30.447  11.586
21652W        W93912  41.894  39.852   2.276
21653W        W93913  18.769  13.643   2.293
21654W        W93914   2.444  41.319  11.570
21655W        W93915  39.871  33.563  12.999
21656W        W93916  13.318  15.779  10.628
21657W        W93917  13.134   9.848  12.532
21658W        W93918  13.266   1.848  12.970
21659W        W93919  17.116  29.596   0.868
21660W        W93920   9.316   3.448  12.863
21661W        W93921  39.020  40.001  14.015
21662W        W93922  39.903  32.014   0.791
21663W        W93923  12.638  20.197  11.429
21664W        W93924   8.183  20.087   2.392
21665W        W93925   6.214  31.093  12.925
21666W        W93926  35.029  24.647  10.591
21667W        W93927  26.601   9.695   3.292
21668W        W93928  11.808  18.117   4.699
21669W        W93929  28.438  13.154   3.327
21670W        W93930  22.249  23.533  11.586
21671W        W93931  43.289  43.397  10.515
21672W        W93932  12.734  29.078  12.871
21673W        W93933  11.773  34.042  12.070
21674W        W93934  17.186  32.061   4.741
21675W        W93935  14.154  29.529   0.740
21676W        W93936   3.725  22.207   1.844
21677W        W93937   3.710  34.990   0.948
21678W        W93938  17.761  41.914   4.831
21679W        W93939  38.071   7.363   5.136
21680W        W93940  24.535  30.551   3.362
21681W        W93941   0.889  11.669   1.269
21682W        W93942   7.669  27.640   2.221
21683W        W93943  27.152  17.761  10.405
21684W        W93944  40.933  40.820  11.372
21685W        W93945  37.474  14.277   3.327
21686W        W93946   4.834  15.228  12.071
21687W        W93947  38.428  20.587   1.397
21688W        W93948  37.879  36.445   4.667
21689W        W93949   3.948  24.207   0.262
21690W        W93950  37.981  29.470   2.740
21691W        W93951  15.310  23.080   0.421
21692W        W93952  42.412   4.731   4.646
21693W        W93953  40.820   0.288   1.729
21694W        W93954   9.242  12.274   4.208
21695W        W93955   8.348  15.735  14.488
21696W        W93956  36.913   7.381  12.478
21697W        W93957  17.066  34.868  12.474
21698W        W93958  38.443  35.359  12.000
21699W        W93959  28.975  34.937   1.435
21700W        W93960  38.837  29.634  14.274
21701W        W93961  35.014  10.269   0.787
21702W        W93962  24.001  39.420  10.420
21703W        W93963  16.237  10.867  12.914
21704W        W93964  28.029  42.510  11.056
21705W        W93965  35.416  10.230   0.396
21706W        W93966  25.203  42.988  14.484
21707W        W93967   8.778   5.741  13.327
21708W        W93968   6.350   8.183  13.539
21709W        W93969   7.833   8.395  12.092
21710W        W93970  21.105  31.531  14.397
21711W        W93971  38.343  29.977  12.983
21712W        W93972   1.798  23.165  13.527
21713W        W93973  36.078  16.279   1.450
21714W        W93974  38.424  16.757  12.343
21715W        W93975  18.125  30.974  12.459
21716W        W93976   6.213  23.521  12.464
21717W        W93977  34.938  12.133   1.280
21718W        W93978  40.023  24.172   3.857
21719W        W93979  12.752  16.798   0.285
21720W        W93980   8.754  14.758   0.806
21721W        W93981   6.755  23.492   0.428
21722W        W93982  14.591  41.845   0.308
21723W        W93983  14.181  44.938  12.544
21724W        W93984  10.234  14.210  11.079
21725W        W93985   0.913  41.791  10.928
21726W        W93986   4.851  41.959   1.211
21727W        W93987   0.324  36.028  13.393
21728W        W93988  14.104   3.852   1.896
21729W        W93989   3.714  44.991  14.768
21730W        W93990  36.522  44.377  10.067
21731W        W93991  19.245  43.395   1.930
21732W        W93992   7.910  20.593   0.733
21733W        W93993  42.939  14.642   3.330
21734W        W93994  37.537  28.034  10.626
21735W        W93995  11.682   2.955   0.778
21736W        W93996  39.920  36.465  12.412
21737W        W93997   7.346  37.490   4.618
21738W        W93998  42.979  29.590   1.781
21739W        W93999  30.463  29.591   0.738
21740W        W94000  35.924  13.800   4.727
21741W        W94001   1.972  42.896   3.190
21742W        W94002  20.640   7.214   0.368
21743W        W94003  17.569  38.020  14.836
21744W        W94004  41.361  27.084   1.388
21745W        W94005  44.785  36.526   1.812
21746W        W94006  34.017  34.572   0.264
21747W        W94007  28.063  42.842  14.319
21748W        W94008   1.250  10.640   0.830
21749W        W94009   0.891  21.166   2.235
21750W        W94010  18.212  39.038   1.787
21751W        W94011  25.712   6.267   3.667
21752W        W94012  31.070  31.990  10.057
21753W        W94013   5.201   8.212   4.196
21754W        W94014  19.284  33.003  11.933
21755W        W94015   6.802  36.480   4.621
21756W        W94016  14.638  37.458   1.863
21757W        W94017  20.151  10.222  10.025
21758W        W94018  22.575  17.660  14.000
21759W        W94019  17.737   3.241   4.767
21760W        W94020  12.650  26.122  10.424
21761W        W94021  23.530  39.852   1.385
21762W        W94022  32.985  42.974  10.640
21763W        W94023  24.489  24.056   1.329
21764W        W94024  15.203  14.251  11.947
21765W        W94025   5.807  10.851  11.089
21766W        W94026  10.248  17.125  10.046
21767W        W94027  31.526  15.590  13.459
21768W        W94028  22.669  26.185   4.747
21769W        W94029  26.484  14.828   3.320
21770W        W94030  28.583  23.693  12.983
21771W        W94031  41.468  39.869  12.018
21772W        W94032   5.702  29.497   1.211
21773W        W94033  20.238   7.296  11.039
21774W        W94034  23.023  12.760  10.642
21775W        W94035  43.349  43.487  11.009
21776W        W94036  19.179  22.709   1.224
21777W        W94037   7.771  16.100  13.354
21778W        W94038   6.837  41.022   3.797
21779W        W94039  12.836  24.045  10.552
21780W        W94040  20.647  35.020  12.007
21781W        W94041  10.316  33.495  10.512
21782W        W94042  24.626   1.973   4.197
21783W        W94043  21.030  19.104  11.992
21784W        W94044  28.496   8.775  14.280
21785W        W94045  32.579  23.074   1.326
21786W        W94046   0.801   4.776   2.286
21787W        W94047  15.315   1.425  13.838
21788W        W94048   9.252  39.994  12.523
21789W        W94049  13.765  18.700   4.162
21790W        W94050  38.997  33.906  14.915
21791W        W94051  37.531  42.322   3.629
21792W        W94052  25.096  32.134  10.627
21793W        W94053  33.958  12.286  13.454
21794W        W94054  25.688  25.200   1.340
21795W        W94055  10.718  28.514   2.413
21796W        W94056  23.025  33.013   1.300
21797W        W94057   2.284  44.836  12.968
21798W        W94058  18.787  28.517  11.438
21799W        W94059  11.710  41.005   3.710
21800W        W94060  44.993  31.479  11.864
21801W        W94061  13.249   8.695  11.517
21802W        W94062  16.715  17.612  12.088
21803W        W94063  35.510  21.753  14.804
21804W        W94064  37.552  22.024  10.614
21805W        W94065  20.131  44.337  14.982
21806W        W94066  31.023  26.491   0.430
21807W        W94067  24.519  26.157  13.895
21808W        W94068  28.520  24.683  14.820
21809W        W94069  27.078   9.682  12.415
21810W        W94070  40.373  28.152  11.891
21811W        W94071  35.542  17.226   1.446
21812W        W94072   0.773  10.767   3.736
21813W        W94073   6.766   6.397  10.628
21814W        W94074  36.035  24.079  12.516
21815W        W94075  22.506  24.202   9.930
21816W        W94076  44.775  30.529  12.411
21817W        W94077  21.238   0.821  12.037
21818W        W94078  33.485   1.408  13.930
21819W        W94079  19.710  24.997  13.808
21820W        W94080  41.836  10.231   1.815
21821W        W94081  30.997   9.308  11.916
21822W        W94082  44.753  27.612   3.772
21823W        W94083  20.040   2.287  13.843
21824W        W94084  23.512  29.595  11.462
21825W        W94085  34.504  35.529  14.866
21826W        W94086  41.343  44.307   1.909
21827W        W94087  13.188  34.422   2.901
21828W        W94088  11.745   5.769  10.933
21829W        W94089  26.023  26.198  12.889
21830W        W94090  21.546  28.158  10.591
21831W        W94091  35.415  15.272   3.252
21832W        W94092  21.631  26.611   4.663
21833W        W94093  30.644  18.710  11.084
21834W        W94094  13.253   6.311   2.395
21835W        W94095   1.768  21.018  12.575
21836W        W94096  20.556  12.116   2.269
21837W        W94097  15.674   0.281  10.907
21838W        W94098  35.938  10.868   2.890
21839W        W94099  38.879  23.203  13.023
21840W        W94100  29.127  21.242   3.298
21841W        W94101  26.563  13.225   4.793
21842W        W94102   0.780  31.584   4.300
21843W        W94103   3.421   3.421  12.003
21844W        W94104  30.940  20.603   1.862
21845W        W94105  12.642   3.718  12.055
21846W        W94106  41.809  39.907   3.741
21847W        W94107  14.708  39.042   0.289
21848W        W94108  38.839  43.418  11.481
21849W        W94109   3.325  33.533   5.188
21850W        W94110  30.544  28.079  13.377
21851W        W94111  38.414  29.475   3.155
21852W        W94112  22.539  42.326   0.340
21853W        W94113   0.466  13.659   3.364
21854W        W94114  26.578   5.326   1.891
21855W        W94115  23.538  40.025   5.268
21856W        W94116  43.308  44.487  14.806
21857W        W94117  36.849   8.264   4.783
21858W        W94118   6.679  23.610   3.193
21859W        W94119   7.290  29.642   0.955
21860W        W94120  30.073  13.223  11.103
21861W        W94121   6.695  25.034  12.985
21862W        W94122   5.433   3.275  15.000
21863W        W94123  26.982  32.985   2.184
21864W        W94124  19.240  33.392   1.729
21865W        W94125  14.643  17.677   3.679
21866W        W94126  28.149  22.697   0.894
21867W        W94127   5.694  10.273   2.245
21868W        W94128  20.154  12.621   2.417
21869W        W94129  28.056  33.561  11.512
21870W        W94130  35.595  34.983   2.895
21871W        W94131  43.787   9.763   1.909
21872W        W94132  26.631  10.810  14.927
21873W        W94133  31.024  40.952   2.230
21874W        W94134   7.233  44.851  13.897
21875W        W94135  18.165  34.113   2.755
21876W        W94136  30.494  29.133   4.206
21877W        W94137  33.068   6.770  14.332
21878W        W94138  41.849  29.574   1.916
21879W        W94139   0.268   1.820  13.961
21880W        W94140  31.024   4.856   3.715
21881W        W94141  33.511  41.315   2.832
21882W        W94142  38.398  19.691   3.262
21883W        W94143  22.131  38.417   1.769
21884W        W94144  18.749  30.066   0.393
21885W        W94145  11.226  34.387  10.473
21886W        W94146  29.548  10.840  11.470
21887W        W94147  40.388  44.948  13.427
21888W        W94148  17.576  22.008   3.861
21889W        W94149  10.286  10.744  11.917
21890W        W94150   2.331   7.679  13.856
21891W        W94151  32.625  16.266  12.464
21892W        W94152   0.454  20.719   3.146
21893W        W94153  39.972  26.539   2.381
21894W        W94154  26.570  35.485   3.230
21895W        W94155  19.176   3.815  14.335
21896W        W94156  23.203  42.500  13.841
21897W        W94157   2.723  22.569  11.942
21898W        W94158  37.004  10.674   3.360
21899W        W94159  17.705   7.852   1.342
21900W        W94160   7.703  30.144   2.740
21901W        W94161  25.521  32.964   2.753
21902W        W94162  37.877  14.318  13.468
21903W        W94163  23.202  12.729   1.890
21904W        W94164  12.701  14.103  12.842
21905W        W94165  31.557   4.752  10.931
21906W        W94166  36.983   8.719   1.751
21907W        W94167  36.365  26.631  12.350
21908W        W94168  31.540  28.092  11.040
21909W        W94169  14.652  36.085  10.972
21910W        W94170  23.720  14.657  11.942
21911W        W94171   4.863  22.189   3.767
21912W        W94172  35.474  17.653   4.822
21913W        W94173   4.791  22.195  12.970
21914W        W94174  18.121   4.204   0.799
21915W        W94175  31.434   2.749  12.969
21916W        W94176  23.636  38.427   1.212
21917W        W94177  29.472   3.221   4.674
21918W        W94178   9.193  28.453  11.510
21919W        W94179  32.889  31.980   4.689
21920W        W94180  21.203  17.158   5.263
21921W        W94181  14.758  22.582   0.811
21922W        W94182   4.400  13.777  11.402
21923W        W94183  27.032  40.497  13.845
21924W        W94184   4.872  37.940  14.881
21925W        W94185  39.554  43.366  11.491
21926W        W94186  31.525  28.022  12.580
21927W        W94187  27.498  37.070   3.810
21928W        W94188  33.887  27.069  14.382
21929W        W94189   9.865   6.872  12.992
21930W        W94190  28.967  33.090   1.446
21931W        W94191  24.723  30.055  12.551
21932W        W94192  40.543   0.801   2.299
21933W        W94193  19.058  23.226   2.311
21934W        W94194  36.844  41.835   0.257
21935W        W94195  38.969  43.293   4.633
21936W        W94196   0.903  28.171  13.955
21937W        W94197   2.840  16.108  13.827
21938W        W94198   5.211  38.872   4.214
21939W        W94199  39.385  12.284   2.287
21940W        W94200  18.758  18.173   4.321
21941W        W94201   5.202  15.129  12.520
21942W        W94202  36.549  34.112  12.008
21943W        W94203  23.629   5.828   4.299
21944W        W94204  22.529   0.494  10.066
21945W        W94205  33.992   6.909  14.508
21946W        W94206  30.530  17.134  10.589
21947W        W94207  23.503   3.749  14.802
21948W        W94208   5.764  34.063  12.983
21949W        W94209  24.517  13.251  12.404
21950W        W94210  29.026   9.651   3.155
21951W        W94211  21.140   7.352   1.361
21952W        W94212  35.545  43.010   3.842
21953W        W94213  21.702  42.778  12.832
21954W        W94214  30.516   4.429  13.314
21955W        W94215  23.171  17.290   3.156
21956W        W94216  42.016   3.251   4.611
21957W        W94217   5.365   5.753   1.898
21958W        W94218  35.005  32.040  13.801
21959W        W94219   2.766  12.269  14.275
21960W        W94220  28.466  22.104   4.204
21961W        W94221  28.578  24.633   4.211
21962W        W94222  36.001  11.709   1.703
21963W        W94223   4.444  39.050  14.281
21964W        W94224  39.862  44.936   1.312
21965W        W94225  40.027  14.694  11.484
21966W        W94226  18.242  26.086  11.860
21967W        W94227  33.990   5.819   1.423
21968W        W94228  29.434   3.271  13.802
21969W        W94229  35.443   1.240   2.340
21970W        W94230   3.920  17.630  13.827
21971W        W94231  30.074  11.373  14.844
21972W        W94232  12.732   8.778   3.755
21973W        W94233  12.667  13.655  11.928
21974W        W94234   2.945  22.667  13.421
21975W        W94235  14.806  35.379   4.142
21976W        W94236  13.129   4.940   2.399
21977W        W94237  44.326   4.232  10.529
21978W        W94238  18.566  20.183  12.077
21979W        W94239  30.973   0.770   2.733
21980W        W94240  41.822  16.651  12.838
21981W        W94241  25.508   4.856   0.882
21982W        W94242  24.134  43.019   5.307
21983W        W94243  17.104  31.517   0.898
21984W        W94244   9.751  22.036   4.689
21985W        W94245  41.037  32.406   4.616
21986W        W94246   8.897  18.223  10.125
21987W        W94247   7.749  41.402   4.305
21988W        W94248  40.356  11.675  12.081
21989W        W94249  40.420  35.464   3.236
21990W        W94250  13.609  35.432   3.169
21991W        W94251   1.299  13.693  11.521
21992W        W94252  39.965   1.766   2.358
21993W        W94253  21.533  21.255   4.827
21994W        W94254   1.928  30.917  11.083
21995W        W94255  14.255  29.065   0.954
21996W        W94256  26.998  10.267  10.433
21997W        W94257   1.869   1.817  13.806
21998W        W94258  18.218  23.493   4.242
21999W        W94259  34.534  12.678   3.334
22000W        W94260  23.528   8.163  12.345
22001W        W94261  37.884   3.884   2.783
22002W        W94262  36.044  13.765  11.095
22003W        W94263   7.700  18.750   1.892
22004W        W94264  31.476  41.434  11.091
22005W        W94265  34.056  22.061   2.891
22006W        W94266  13.749  26.966   1.390
22007W        W94267  40.865  39.555  11.895
22008W        W94268  13.110  34.449  12.037
22009W        W94269  10.196  22.049  11.949
22010W        W94270  23.236  21.714   9.556
22011W        W94271   4.747  27.003   5.084
22012W        W94272  31.146   0.396  11.557
22013W        W94273  20.263  44.977   4.243
22014W        W94274  41.876  39.893  14.917
22015W        W94275   4.883  25.164  10.045
22016W        W94276  37.042  37.061  13.381
22017W        W94277   3.388   0.473  11.099
22018W        W94278  13.766   2.338  12.355
22019W        W94279   7.842  40.993   3.744
22020W        W94280  25.116  15.191  14.288
22021W        W94281  27.975  34.382   2.698
22022W        W94282  15.693   4.339   0.796
22023W        W94283   6.682   8.771   3.217
22024W        W94284  30.643  32.619   3.364
22025W        W94285  17.134  11.862  12.457
22026W        W94286  21.024  29.534  12.449
22027W        W94287   6.267  35.465  12.472
22028W        W94288   0.836  44.307  14.513
22029W        W94289  43.790   3.896  14.510
22030W        W94290  12.621   7.280  12.391
22031W        W94291  34.912  37.553  12.884
22032W        W94292   4.354  21.102  13.926
22033W        W94293  17.193  31.590   0.283
22034W        W94294  27.130  24.222   0.810
22035W        W94295  43.962  30.937   0.836
22036W        W94296   7.799   8.856  12.579
22037W        W94297  14.806   1.440  11.004
22038W        W94298  11.291  31.072  13.933
22039W        W94299   7.344  42.292   2.727
22040W        W94300  11.799  24.066   0.945
22041W        W94301  24.047  32.629  11.956
22042W        W94302  42.021  22.078   4.657
22043W        W94303  16.165   0.477  12.017
22044W        W94304  18.697  21.249   5.307
22045W        W94305   8.281  20.196   4.337
22046W        W94306   2.929  41.985   3.739
22047W        W94307  13.120  33.100   3.187
22048W        W94308  41.998  32.628  11.424
22049W        W94309   2.901  44.755   1.852
22050W        W94310  26.633  38.870  11.376
22051W        W94311  15.633  22.720  13.825
22052W        W94312   8.841  30.592  12.365
22053W        W94313  42.314  30.478  14.277
22054W        W94314  23.213  20.200   4.788
22055W        W94315   5.733  44.754  14.922
22056W        W94316   3.406   5.930   1.398
22057W        W94317  41.368  20.161  13.387
22058W        W94318  36.559  41.523  12.510
22059W        W94319   0.342  27.983  13.523
22060W        W94320  12.279  15.604   3.834
22061W        W94321  31.499  37.974   3.865
22062W        W94322  38.567   0.933  12.365
22063W        W94323  41.482  32.480  12.518
22064W        W94324  11.814  17.776   1.404
22065W        W94325  31.994  37.577   1.926
22066W        W94326  19.694  39.343   3.854
22067W        W94327  13.724  32.593   4.161
22068W        W94328  40.966  28.938   2.800
22069W        W94329  26.645   3.880   3.244
22070W        W94330  39.555   3.287  14.881
22071W        W94331   9.742  43.791   4.186
22072W        W94332  15.607  27.688  14.027
22073W        W94333  24.712   7.748  11.521
22074W        W94334  12.722  43.503   3.183
22075W        W94335  34.500   9.843  12.073
22076W        W94336  21.645  34.566   1.888
22077W        W94337  24.562  24.487   0.419
22078W        W94338  28.641  12.344   1.334
22079W        W94339  19.707  26.655  13.463
22080W        W94340   2.278  41.995  13.834
22081W        W94341  42.934  39.560   4.329
22082W        W94342  38.532  12.727   0.957
22083W        W94343  31.151  38.065   4.787
22084W        W94344   0.763   0.287  13.807
22085W        W94345  31.435  15.706  11.072
22086W        W94346  12.116   1.900  13.448
22087W        W94347  11.334  33.560   4.334
22088W        W94348  37.830  22.662   2.705
22089W        W94349  42.461  42.795  13.993
22090W        W94350   3.278   3.821  12.879
22091W        W94351   9.218  14.157  14.021
22092W        W94352  18.105  24.121  12.457
22093W        W94353   5.749   7.245  14.382
22094W        W94354   5.719  17.597   3.809
22095W        W94355   5.903  15.758  11.450
22096W        W94356  13.746   3.770   3.757
22097W        W94357  16.793  20.227  10.639
22098W        W94358  23.655  34.113   0.287
22099W        W94359  37.457  26.182   3.815
22100W        W94360  44.419  38.332   4.274
22101W        W94361  27.513  29.548  14.493
22102W        W94362  22.211  38.841   2.370
22103W        W94363  18.288   3.353   0.731
22104W        W94364  20.050  34.901   1.419
22105W        W94365  26.572  18.749   0.808
22106W        W94366   8.181   3.385  14.806
22107W        W94367  34.484  38.534   0.425
22108W        W94368  34.586   8.797   4.809
22109W        W94369  16.102  37.010  12.373
22110W        W94370  33.888   2.246  12.376
22111W        W94371  17.749  14.280  13.478
22112W        W94372  22.668  17.579   4.341
22113W        W94373   8.800   6.401   1.269
22114W        W94374  29.542  37.511  10.131
22115W        W94375   7.864  14.334   4.187
22116W        W94376   3.762  41.307  11.068
22117W        W94377   8.696   6.419  12.907
22118W        W94378  18.562  13.615   2.837
22119W        W94379  38.959  16.225   0.352
22120W        W94380  38.408   1.824   2.847
22121W        W94381  19.759   3.757  12.515
22122W        W94382   2.354  40.852  13.360
22123W        W94383  21.721  27.465   2.764
22124W        W94384  15.312  43.799   0.454
22125W        W94385  26.167   8.837  11.491
22126W        W94386  34.028   2.305   0.960
22127W        W94387  36.904   1.266   4.763
22128W        W94388  35.110  29.540   3.678
22129W        W94389  41.012  44.278   2.664
22130W        W94390  37.903   5.780  14.808
22131W        W94391   0.301  10.238  11.373
22132W        W94392  12.854  30.457  14.834
22133W        W94393  20.188  40.851  10.459
22134W        W94394  17.105  25.009   0.389
22135W        W94395  26.068   5.900   3.365
22136W        W94396  41.800  29.461  12.885
22137W        W94397  19.277  14.640  11.387
22138W        W94398   6.222  37.983  13.847
22139W        W94399  10.323  41.823   2.240
22140W        W94400  18.636  22.520   3.334
22141W        W94401  17.245  32.998  13.336
22142W        W94402  43.339  19.061   4.154
22143W        W94403  41.400  35.394   3.353
22144W        W94404   9.303  15.216  11.025
22145W        W94405   9.222  29.493   1.423
22146W        W94406  30.987  39.901   4.354
22147W        W94407  17.740  32.905  11.958
22148W        W94408  13.202  22.636   2.263
22149W        W94409   7.827  43.507  13.919
22150W        W94410   6.415  35.469  11.461
22151W        W94411  42.473  13.287  13.878
22152W        W94412  41.356  18.257   2.754
22153W        W94413  42.844  37.045   3.205
22154W        W94414  33.469  23.545   2.669
22155W        W94415  31.149  37.532  13.466
22156W        W94416  30.086  23.228   0.291
22157W        W94417  30.532  35.984   3.735
22158W        W94418  16.641  42.307   2.722
22159W        W94419  31.532  22.745   2.888
22160W        W94420   4.360  11.686   4.175
22161W        W94421  16.650   9.282  13.910
22162W        W94422  10.364  20.598  12.932
22163W        W94423   7.809   3.887   4.702
22164W        W94424  26.965  20.141  13.312
22165W        W94425  22.595   2.436  13.548
22166W        W94426   7.189  19.231   4.598
22167W        W94427   6.864  31.138   0.801
22168W        W94428  29.998   0.835  11.859
22169W        W94429   5.911  11.324   3.217
22170W        W94430  15.761   1.367  12.403
22171W        W94431  30.418  38.887   3.340
22172W        W94432   7.720  30.950   0.380
22173W        W94433  32.563   0.780   1.248
22174W        W94434   5.341  34.524   0.391
22175W        W94435   4.881   2.369   3.668
22176W        W94436  12.360  42.902   3.352
22177W        W94437  20.570  24.010   0.312
22178W        W94438  15.814  24.483   1.231
22179W        W94439  15.181  33.477  11.052
22180W        W94440  31.475  41.878   4.271
22181W        W94441  14.305   1.866   1.818
22182W        W94442   7.673   3.440  11.602
22183W        W94443  13.343  43.959  11.049
22184W        W94444  18.635  31.109  11.525
22185W        W94445  10.326  35.899   0.890
22186W        W94446  41.809  34.607  11.396
22187W        W94447   8.181  22.584  14.400
22188W        W94448   8.386  25.482  10.613
22189W        W94449  34.470   7.675   1.922
22190W        W94450   5.748  31.139   1.451
22191W        W94451  11.245  22.702   0.781
22192W        W94452  42.515  37.545   3.290
22193W        W94453  44.270   9.205   3.210
22194W        W94454  41.832  25.027   1.739
22195W        W94455  23.538   9.787   4.692
22196W        W94456   6.862   9.209  11.592
22197W        W94457  21.181   2.292  12.826
22198W        W94458  33.593   8.708   5.225
22199W        W94459  15.659  16.269  12.350
22200W        W94460  29.951   6.393  10.607
22201W        W94461  40.963  26.650   2.236
22202W        W94462  15.753  44.858   0.958
22203W        W94463   9.775  28.472   4.319
22204W        W94464   9.342   3.455  10.892
22205W        W94465  15.622  44.978  14.274
22206W        W94466  31.487  27.449   1.908
22207W        W94467   5.927  38.428  12.496
22208W        W94468  38.882  11.142   1.307
22209W        W94469  21.755   3.356  13.376
22210W        W94470  18.621   9.325  14.788
22211W        W94471  28.959  24.592  12.404
22212W        W94472  24.508   4.399   0.427
22213W        W94473  28.582  16.583   0.730
22214W        W94474  41.921  34.118   1.820
22215W        W94475  40.811  10.179  11.563
22216W        W94476  20.659   9.336  11.872
22217W        W94477   2.277  27.683   2.718
22218W        W94478  37.940   9.203  10.123
22219W        W94479  40.979  29.109   2.396
22220W        W94480  16.569  35.526   2.379
22221W        W94481  35.874  14.668   2.355
22222W        W94482  30.913  17.722  13.034
22223W        W94483  35.448  24.976   1.270
22224W        W94484  26.196  34.503  11.055
22225W        W94485  18.649  30.575  12.991
22226W        W94486  19.640   7.807  10.957
22227W        W94487   7.254  27.960   0.264
22228W        W94488  32.977  13.668   3.706
22229W        W94489  38.340  41.430  13.380
22230W        W94490  43.901  36.083   0.295
22231W        W94491  42.969  19.685   4.241
22232W        W94492  18.666  25.516   3.286
22233W        W94493   4.340  33.559  12.877
22234W        W94494   7.376   2.790   2.275
22235W        W94495  37.888  17.760  13.977
22236W        W94496  37.514  40.510  13.448
22237W        W94497  23.237   0.850  10.521
22238W        W94498  26.562  36.928   2.226
22239W        W94499  44.271  31.060   1.412
22240W        W94500  25.624  31.562   2.702
22241W        W94501   9.840  27.117   2.307
22242W        W94502  30.446  36.365  11.904
22243W        W94503  35.866  43.427  13.037
22244W        W94504  25.122   4.376   3.211
22245W        W94505  10.344  18.169   4.127
22246W        W94506  15.105   3.797  13.521
22247W        W94507  22.649  12.680   2.275
22248W        W94508  31.136  39.453  14.852
22249W        W94509  34.894  40.821   3.379
22250W        W94510   1.911  28.535   3.258
22251W        W94511  25.071   1.459  14.795
22252W        W94512  10.246   1.354   0.759
22253W        W94513  34.442  15.119  14.413
22254W        W94514  41.894  17.062   0.939
22255W        W94515   3.916  18.614  10.439
22256W        W94516  21.629   9.255   2.788
22257W        W94517  44.468  41.873   1.427
22258W        W94518  37.396  42.325   2.207
22259W        W94519  20.256  32.452  11.973
22260W        W94520  20.084  20.768   1.835
22261W        W94521  12.618  28.616   1.863
22262W        W94522  44.460   1.962  13.001
22263W        W94523   6.353  44.373  11.530
22264W        W94524   1.963  43.986  13.888
22265W        W94525  30.647   8.744  10.615
22266W        W94526  14.176  10.240   5.278
22267W        W94527  41.942  19.640   0.303
22268W        W94528  27.591  11.644   0.302
22269W        W94529  35.550  21.132   1.237
22270W        W94530  42.441  12.296   3.663
22271W        W94531   3.215   7.711   2.208
22272W        W94532  21.623  12.117   3.699
22273W        W94533   5.734  10.649   3.274
22274W        W94534  23.068  40.538   2.226
22275W        W94535  15.761  11.676   4.141
22276W        W94536   6.368  25.485   9.934
22277W        W94537   2.246  28.030  12.555
22278W        W94538  12.304  30.511  12.564
22279W        W94539  14.291  23.531   1.273
22280W        W94540  41.023  39.320   4.178
22281W        W94541  31.926   0.921   1.895
22282W        W94542  36.500  43.915   1.278
22283W        W94543   5.930  41.489  12.998
22284W        W94544  10.353  29.543  14.818
22285W        W94545  19.772  31.633   3.799
22286W        W94546   0.968  20.225   3.710
22287W        W94547   2.443   0.847  11.088
22288W        W94548  30.506  24.479  12.887
22289W        W94549  23.514   1.833   1.393
22290W        W94550   3.389  33.887  12.450
22291W        W94551   4.815  43.823   3.792
22292W        W94552  16.660  14.624   4.116
22293W        W94553  30.975  26.112  12.970
22294W        W94554  13.685  34.511  13.332
22295W        W94555  20.571   3.333   4.798
22296W        W94556   6.796  36.501   3.335
22297W        W94557  18.613  27.625  13.421
22298W        W94558  14.803  18.055  10.918
22299W        W94559  27.594  35.041  12.072
22300W        W94560  15.232  43.903   1.443
22301W        W94561  28.013  44.895   2.776
22302W        W94562  37.568  17.246   3.831
22303W        W94563  27.975  11.189  12.501
22304W        W94564  36.002  43.279  12.431
22305W        W94565  40.015  10.335  13.322
22306W        W94566   3.305   5.241  14.822
22307W        W94567  39.936  28.612  13.431
22308W        W94568  32.051  38.420  13.027
22309W        W94569  31.411   8.386  13.805
22310W        W94570  38.547  31.123  12.528
22311W        W94571  35.583   2.462   1.890
22312W        W94572  28.944  36.374   2.714
22313W        W94573  28.469  33.617  13.391
22314W        W94574  11.865  38.407   9.995
22315W        W94575  34.982  30.656   0.281
22316W        W94576   0.806  25.090   1.379
22317W        W94577   4.843  21.716  13.379
22318W        W94578  11.794  19.707   3.719
22319W        W94579  17.638  22.995  10.403
22320W        W94580   4.728   0.908  11.890
22321W        W94581  34.027  38.517   4.791
22322W        W94582  20.186   2.356   4.638
22323W        W94583   2.324  19.698   2.332
22324W        W94584  31.089  25.166  10.059
22325W        W94585   6.870  31.121  13.815
22326W        W94586  13.773   3.384   4.633
22327W        W94587   0.961  35.461   2.345
22328W        W94588  14.156  13.195  12.855
22329W        W94589  44.377   7.228  14.830
22330W        W94590  33.590   8.873  10.551
22331W        W94591  20.623   4.438  10.933
22332W        W94592  36.358  43.831  14.344
22333W        W94593  23.239  23.164   4.654
22334W        W94594   5.862  25.058   3.847
22335W        W94595   1.734  42.323   4.319
22336W        W94596  33.611  14.202   3.182
22337W        W94597  22.147   0.450   4.789
22338W        W94598  30.965  25.128  14.790
22339W        W94599  34.987  33.982  12.469
22340W        W94600   8.290   2.751  13.393
22341W        W94601  12.185   6.739  13.981
22342W        W94602  32.416  16.598  12.950
22343W        W94603  24.132  15.746   0.431
22344W        W94604  11.210   2.288   1.220
22345W        W94605  13.222   3.330  12.927
22346W        W94606  15.740  18.147  13.326
22347W        W94607  28.067  10.309   2.864
22348W        W94608   8.362  16.184  11.980
22349W        W94609   0.470  40.329   3.773
22350W        W94610  17.288  42.425   4.647
22351W        W94611   7.909  30.571   2.253
22352W        W94612   4.918   9.724   9.923
22353W        W94613  31.921  43.796   4.243
22354W        W94614   1.430   2.883   2.371
22355W        W94615  12.239   0.348  14.013
22356W        W94616  24.096  18.673  13.547
22357W        W94617   9.677   7.759   0.414
22358W        W94618  10.784  27.986   2.729
22359W        W94619  39.484  36.491  11.559
22360W        W94620  15.729  30.440  12.552
22361W        W94621  29.520  20.709   3.807
22362W        W94622  10.776   3.452   1.325
22363W        W94623  22.225  11.788  14.839
22364W        W94624  36.387  36.486   2.414
22365W        W94625  27.121   1.456   3.811
22366W        W94626  21.625  39.505  11.416
22367W        W94627  32.531  41.923   4.620
22368W        W94628  22.551  38.569  11.944
22369W        W94629  20.195  29.165   0.893
22370W        W94630  32.952  25.131   4.672
22371W        W94631  38.510  37.563   4.114
22372W        W94632  26.497  19.162  11.942
22373W        W94633  26.671   7.849  13.493
22374W        W94634  26.610  16.747  14.890
22375W        W94635   2.940  40.384  11.396
22376W        W94636  37.971  31.412  12.406
22377W        W94637  40.867  13.825   4.274
22378W        W94638   7.726  15.261  13.501
22379W        W94639  36.053   8.272   3.183
22380W        W94640  39.999  15.808   0.727
22381W        W94641  31.621  22.670   4.339
22382W        W94642  38.534   2.466  13.868
22383W        W94643  27.596  21.614   3.684
22384W        W94644  22.539  33.937  14.293
22385W        W94645  41.372   1.826  12.968
22386W        W94646  17.063  13.653   4.354
22387W        W94647  18.594  27.139  12.904
22388W        W94648  11.676  19.162  13.835
22389W        W94649  29.610  22.108  14.838
22390W        W94650  40.993  39.977  13.830
22391W        W94651  15.249   0.329  13.918
22392W        W94652   4.272  21.628  11.504
22393W        W94653  34.569  13.760   4.708
22394W        W94654  25.586  35.520  10.450
22395W        W94655  42.905  33.616   0.287
22396W        W94656   1.741  11.198   4.335
22397W        W94657  30.925   4.890   2.296
22398W        W94658  30.528  24.068   2.864
22399W        W94659  34.070   4.387   1.927
22400W        W94660  15.127  14.223   0.466
22401W        W94661  10.354   0.911  11.386
22402W        W94662  31.069  35.012  10.923
22403W        W94663  15.761  36.899   3.187
22404W        W94664  35.374  21.110  13.384
22405W        W94665  29.046  16.107   4.138
22406W        W94666  35.104   4.945   2.780
22407W        W94667   4.372  24.191   3.752
22408W        W94668  16.792  11.721   0.951
22409W        W94669  31.527  12.285   3.722
22410W        W94670   0.422  38.944   0.861
22411W        W94671  30.464   9.670   1.222
22412W        W94672  29.596   9.786   3.690
22413W        W94673  20.103   6.886   3.685
22414W        W94674  35.541   2.399  13.955
22415W        W94675  15.781  22.740   2.683
22416W        W94676  42.780  27.447   1.912
22417W        W94677  15.593  42.287  14.812
22418W        W94678   3.857  29.606  12.410
22419W        W94679   7.732  40.978  13.480
22420W        W94680  14.655  39.863  11.079
22421W        W94681  27.971   9.162  14.867
22422W        W94682   9.383  44.389  12.442
22423W        W94683  20.550  31.570  14.324
22424W        W94684   5.344  33.103  12.934
22425W        W94685  41.478  26.118   4.686
22426W        W94686  21.554  14.272   5.266
22427W        W94687  29.945  11.292   2.819
22428W        W94688  31.121  34.045  10.589
22429W        W94689  15.284  40.423   3.738
22430W        W94690  22.699   0.391  14.819
22431W        W94691  10.683  20.079  12.993
22432W        W94692  28.522  31.484   5.083
22433W        W94693  35.965  31.135  14.957
22434W        W94694  30.454  34.900   3.239
22435W        W94695  33.020   7.853   1.785
22436W        W94696  33.445  15.139   4.302
22437W        W94697  24.985  30.940  11.025
22438W        W94698  20.132  21.650   2.702
22439W        W94699  42.359  41.414   1.356
22440W        W94700  44.883  25.127   3.364
22441W        W94701   4.796  37.884   0.948
22442W        W94702  24.567  16.085   1.931
22443W        W94703  19.758   4.301  12.094
22444W        W94704  39.359   8.705   3.237
22445W        W94705   0.336  26.070   0.742
22446W        W94706   6.407   4.770   3.834
22447W        W94707   7.201  17.710   2.754
22448W        W94708  36.999  25.703  14.364
22449W        W94709  21.732  13.112  12.559
22450W        W94710  30.015  17.083  10.910
22451W        W94711  26.992   1.780   1.795
22452W        W94712  20.223  26.095  14.017
22453W        W94713  18.596  28.442  14.820
22454W        W94714  41.292   8.390  13.963
22455W        W94715   5.277  42.855  13.896
22456W        W94716   7.866  37.029  13.366
22457W        W94717   8.690  24.224   4.177
22458W        W94718   9.869  39.513  10.460
22459W        W94719  24.633   0.750   1.311
22460W        W94720  25.030  17.148  10.991
22461W        W94721  41.477  41.005  12.571
22462W        W94722   3.841   1.939   1.867
22463W        W94723  31.578  30.467  11.392
22464W        W94724  13.712  23.060   3.156
22465W        W94725  22.225  42.334  14.870
22466W        W94726  42.378   8.336  12.082
22467W        W94727  25.023   8.282  14.427
22468W        W94728  39.359   9.343   1.770
22469W        W94729   5.896  22.194   2.811
22470W        W94730   2.804  22.534  14.490
22471W        W94731  35.380  26.638   2.796
22472W        W94732   4.264   9.379   0.354
22473W        W94733  32.904  20.234  10.947
22474W        W94734  39.954  33.954   2.764
22475W        W94735   3.242  36.587   1.757
22476W        W94736  41.330  19.544  11.545
22477W        W94737   5.867   2.340  12.377
22478W        W94738  16.779  16.766  11.999
22479W        W94739  37.501  18.088  13.931
22480W        W94740  12.227   3.826   2.699
22481W        W94741  41.404  13.347  14.810
22482W        W94742  11.308   1.265  13.904
22483W        W94743  21.032  13.280  12.827
22484W        W94744  20.038  28.975  13.935
22485W        W94745   7.326  37.887   4.154
22486W        W94746  37.561  33.885  10.515
22487W        W94747   8.361  43.003   2.287
22488W        W94748  44.960  17.303  10.897
22489W        W94749   0.868  34.400   1.877
22490W        W94750  44.342  23.984  12.887
22491W        W94751  39.000  35.398  11.069
22492W        W94752  35.483  30.420  11.927
22493W        W94753   4.312   0.327   2.709
22494W        W94754  11.207  26.085  12.880
22495W        W94755  25.609   5.773  11.080
22496W        W94756  22.602  43.501  12.839
22497W        W94757  42.791  22.629   1.820
22498W        W94758  19.628  25.596   3.736
22499W        W94759   6.280  39.983   0.396
22500W        W94760  15.819  39.906  14.792
22501W        W94761  44.281  33.122   0.746
22502W        W94762  39.374  16.569   3.726
22503W        W94763   2.952  37.533   2.312
22504W        W94764  24.210  34.529  13.005
22505W        W94765   9.755  40.024   3.835
22506W        W94766  43.997  15.708  10.947
22507W        W94767  33.597  18.665   2.189
22508W        W94768   2.310  32.916   1.304
22509W        W94769  23.109  44.980   2.666
22510W        W94770  30.505   4.323  12.485
22511W        W94771  18.072  33.611   1.321
22512W        W94772  36.934  35.992   3.274
22513W        W94773  11.774   6.219  12.382
22514W        W94774   6.701  22.191  10.593
22515W        W94775  43.404  22.736   0.775
22516W        W94776  44.340  30.007  11.087
22517W        W94777  37.894  10.326   1.813
22518W        W94778  37.958  36.867   1.438
22519W        W94779  10.193  36.030   2.738
22520W        W94780  34.981  18.258  11.049
22521W        W94781  24.621  11.679   4.218
22522W        W94782  16.167  18.210  11.478
22523W        W94783  44.879  40.462  10.429
22524W        W94784  23.992  27.511   0.732
22525W        W94785  36.934  42.785   0.746
22526W        W94786  27.965  25.702  13.894
22527W        W94787  42.941  39.444  10.548
22528W        W94788  10.720  29.134  12.026
22529W        W94789   3.846   1.321  14.318
22530W        W94790  26.531  10.354  10.571
22531W        W94791  34.883   9.288  13.506
22532W        W94792  29.517  12.622  12.957
22533W        W94793   5.306   7.266  13.473
22534W        W94794  40.856  16.158  12.357
22535W        W94795  13.116  10.213   2.311
22536W        W94796   5.708  23.557   0.250
22537W        W94797  33.019  13.643   2.257
22538W        W94798  10.728  27.077   0.818
22539W        W94799  17.180  38.937  13.425
22540W        W94800  23.129  21.649   4.331
22541W        W94801  12.249  19.093  14.810
22542W        W94802   8.840  10.709  14.886
22543W        W94803  12.286   2.904  10.939
22544W        W94804  32.029  23.234  14.291
22545W        W94805  37.452  27.682   2.894
22546W        W94806  44.010  39.558  13.024
22547W        W94807  40.455  19.047   3.774
22548W        W94808  42.826  31.515   4.797
22549W        W94809  13.823  37.582  11.992
22550W        W94810  12.121  28.975  11.380
22551W        W94811  35.911   3.258   0.782
22552W        W94812  42.888  33.902   4.131
22553W        W94813  18.577  20.531  12.094
22554W        W94814  21.703  44.440   1.770
22555W        W94815   0.754   4.701   1.804
22556W        W94816  10.749  15.616  14.419
22557W        W94817  16.309  16.575  11.494
22558W        W94818   4.726  33.892   3.749
22559W        W94819  18.282  19.242  13.843
22560W        W94820  31.112  36.058  10.989
22561W        W94821  44.869  12.152  12.559
22562W        W94822   5.749  25.525  11.874
22563W        W94823  27.545   4.734   4.314
22564W        W94824  22.212  34.596  14.341
22565W        W94825  43.939  30.416  12.900
22566W        W94826   2.269   5.792  12.888
22567W        W94827  12.611  25.523  10.904
22568W        W94828  30.146  15.191   1.846
22569W        W94829  38.074  25.509   4.271
22570W        W94830  26.532  42.920   3.317
22571W        W94831   3.826   7.787  14.498
22572W        W94832  11.686  14.310  10.600
22573W        W94833  13.672   1.470   3.246
22574W        W94834  38.058  22.080   3.646
22575W        W94835  43.343  11.185  11.511
22576W        W94836  33.074  14.787   4.264
22577W        W94837  34.494  10.711  10.406
22578W        W94838  22.028  14.303  13.029
22579W        W94839   9.317  43.942   3.845
22580W        W94840  36.925  22.056  10.470
22581W        W94841  10.786  16.681  11.393
22582W        W94842  42.931   8.204   4.808
22583W        W94843  31.005   7.879   1.819
22584W        W94844  17.063   7.225   3.825
22585W        W94845  12.270   1.770  13.796
22586W        W94846  38.527  34.085  12.443
22587W        W94847  29.552  31.959   4.330
22588W        W94848  28.653   3.250   4.267
22589W        W94849  12.784  41.405   2.201
22590W        W94850   9.364  33.583  14.302
22591W        W94851  23.062  14.642  14.471
22592W        W94852  14.303  20.254   3.165
22593W        W94853  26.489  32.397   4.776
22594W        W94854   0.937  30.629  10.578
22595W        W94855  36.356  31.514  13.521
22596W        W94856  27.605  13.774   4.203
22597W        W94857  29.925  41.322  10.490
22598W        W94858  23.728  19.188  10.555
22599W        W94859  23.660  32.890   1.858
22600W        W94860  17.646  32.124  10.525
22601W        W94861  42.507   6.236  12.830
22602W        W94862   8.829  38.448   0.861
22603W        W94863  27.680  37.964  13.432
22604W        W94864  26.551  20.564  13.893
22605W        W94865  23.698  12.845   2.419
22606W        W94866  11.710  20.751  14.420
22607W        W94867  15.096   5.810  13.371
22608W        W94868   7.731  30.611  14.902
22609W        W94869  22.531  42.449   0.904
22610W        W94870   6.249  14.290   4.124
22611W        W94871  35.603  25.108   3.728
22612W        W94872  17.797   3.223  10.418
22613W        W94873  41.948  24.051   4.134
22614W        W94874  20.721  20.207  10.508
22615W        W94875  40.923   8.384   4.626
22616W        W94876  27.002  38.404   3.705
22617W        W94877   3.747  20.758  10.604
22618W        W94878   1.889  35.023  14.444
22619W        W94879  15.725  21.743   1.253
22620W        W94880  39.014  31.937   0.902
22621W        W94881  14.211  27.144   1.258
22622W        W94882  40.008  25.570   1.860
22623W        W94883  39.466  26.610  10.452
22624W        W94884  31.557   1.242   4.183
22625W        W94885  44.276  22.100  13.982
22626W        W94886  33.954  20.209  11.917
22627W        W94887  31.459  13.241   0.820
22628W        W94888  34.562   6.860  12.864
22629W        W94889   5.240  39.529   2.782
22630W        W94890  14.729  37.851  11.928
22631W        W94891   3.385  36.871   0.265
22632W        W94892  31.029  15.110   0.743
22633W        W94893   4.408  21.081  13.308
22634W        W94894  29.639  44.456   1.878
22635W        W94895  24.704  11.861  13.014
22636W        W94896  26.131  30.512   1.868
22637W        W94897  40.963   3.313   3.799
22638W        W94898  40.912   9.349   4.248
22639W        W94899  34.078  31.936  11.912
22640W        W94900  13.146  43.936   4.721
22641W        W94901  39.468  12.709  14.940
22642W        W94902  33.508  24.671  10.472
22643W        W94903   3.270  19.180  14.282
22644W        W94904  40.961  32.501   0.322
22645W        W94905   1.820  44.396  11.863
22646W        W94906  39.471  44.908   1.230
22647W        W94907  18.106  42.313   1.799
22648W        W94908   7.667   7.784   1.829
22649W        W94909  40.398  28.995  13.041
22650W        W94910  23.131   1.307  13.325
22651W        W94911   5.316  34.903   2.276
22652W        W94912  25.189  16.748  12.925
22653W        W94913  22.658  34.922   2.739
22654W        W94914  22.585  29.617  14.853
22655W        W94915   9.305  31.410   0.745
22656W        W94916  23.180  28.086   3.234
22657W        W94917  25.592  31.430  14.787
22658W        W94918   9.260   2.800   3.650
22659W        W94919   5.823  24.191  13.880
22660W        W94920  18.714  18.685  12.355
22661W        W94921  12.141  12.329  11.084
22662W        W94922  17.158  33.959  11.408
22663W        W94923  26.002  13.137   3.279
22664W        W94924  32.518  19.684   3.167
22665W        W94925  15.191  26.649  13.888
22666W        W94926   8.328  34.533   3.316
22667W        W94927  12.295  25.090  11.592
22668W        W94928  14.655   1.855  12.517
22669W        W94929  15.733  33.036  12.091
22670W        W94930   6.187  37.080   4.171
22671W        W94931  34.894  20.707  11.010
22672W        W94932  42.003   7.245  13.847
22673W        W94933  14.199  36.570   1.287
22674W        W94934  40.869  10.824   4.316
22675W        W94935  35.912   4.843  12.860
22676W        W94936  28.462  41.476   2.268
22677W        W94937  23.991   1.273   1.420
22678W        W94938  24.020  32.054  10.974
22679W        W94939  22.121  28.603  12.877
22680W        W94940  15.677  43.863   1.449
22681W        W94941   4.354  32.064  14.925
22682W        W94942  23.194  30.435  14.382
22683W        W94943   6.811  31.453  13.852
22684W        W94944   5.772  38.980  14.911
22685W        W94945   6.182  30.956  10.095
22686W        W94946   8.743  25.603   1.451
22687W        W94947   0.860   0.476  11.418
22688W        W94948   4.254   4.698   1.373
22689W        W94949  29.003  32.924   3.757
22690W        W94950  11.720  12.174   3.765
22691W        W94951  21.017  20.659  12.391
22692W        W94952  27.473   0.447  14.895
22693W        W94953  22.127  37.999   4.224
22694W        W94954  35.558  29.619  13.877
22695W        W94955  21.736  38.489  12.991
22696W        W94956  21.109   2.891  10.619
22697W        W94957  28.028  13.308   2.756
22698W        W94958  26.594  25.057   2.225
22699W        W94959  24.625  29.595  13.482
22700W        W94960  28.601  18.671   1.837
22701W        W94961  20.612  22.667   3.330
22702W        W94962  12.658  32.028  13.952
22703W        W94963  34.454  25.993   1.387
22704W        W94964   6.296  23.706   4.124
22705W        W94965  33.894  42.829   0.391
22706W        W94966  13.733  34.057  12.857
22707W        W94967  23.712  37.964   4.256
22708W        W94968   9.228  31.447   1.340
22709W        W94969  28.575  20.160   1.381
22710W        W94970  35.047  28.654   1.380
22711W        W94971  40.807  20.062   0.934
22712W        W94972  44.905   4.247   4.810
22713W        W94973  44.997  13.184  13.310
22714W        W94974   8.873  29.497   2.268
22715W        W94975   8.819  33.585   1.732
22716W        W94976  11.855  10.216  13.354
22717W        W94977  18.208  20.735  11.098
22718W        W94978  16.193  12.201   3.649
22719W        W94979  13.841  16.141   2.256
22720W        W94980   8.738  38.960   4.659
22721W        W94981  34.607  32.443  11.381
22722W        W94982  15.290   8.235   1.404
22723W        W94983  18.600  38.950   0.816
22724W        W94984  26.095  10.812   0.768
22725W        W94985  30.928  20.038   1.862
22726W        W94986  39.463   9.786  13.029
22727W        W94987  41.826  17.164   4.113
22728W        W94988   0.395  22.192  11.423
22729W        W94989  28.935   9.300  13.871
22730W        W94990  42.910  41.800  14.780
22731W        W94991   0.422  30.458  12.499
22732W        W94992  21.575   4.380   4.316
22733W        W94993  28.109  34.996  10.899
22734W        W94994  17.176  20.595  12.968
22735W        W94995  26.072  27.476   3.787
22736W        W94996  20.083   2.449   0.733
22737W        W94997  25.180   9.237   1.831
22738W        W94998  33.434  40.403  11.522
22739W        W94999   7.379   8.175   0.944
22740W        W95000  11.275  43.463  11.055
22741W        W95001  23.504   8.784  12.021
22742W        W95002  24.651   5.815   1.408
22743W        W95003  25.534  36.086   0.959
22744W        W95004  40.871   5.409   3.385
22745W        W95005  22.026  41.809  11.925
22746W        W95006  20.621  38.463  14.844
22747W        W95007  34.458  10.255   4.825
22748W        W95008  22.612   9.643   1.387
22749W        W95009  35.511   6.235   1.323
22750W        W95010  28.507  16.108  13.511
22751W        W95011  36.997  35.001   3.863
22752W        W95012  37.069  20.544  12.925
22753W        W95013   0.843  25.711  14.397
22754W        W95014  17.284  11.626   4.624
22755W        W95015  17.628  18.776   2.865
22756W        W95016   5.755  43.278   0.346
22757W        W95017   9.266   3.894  11.009
22758W        W95018  25.507  26.124  12.389
22759W        W95019  26.468  11.701   1.386
22760W        W95020   2.722  23.727   2.897
22761W        W95021   8.234   0.826  13.872
22762W        W95022  15.718  31.404  11.058
22763W        W95023  34.549  41.928  14.772
22764W        W95024  40.505  40.326   0.426
22765W        W95025   6.217  19.260   1.222
22766W        W95026  39.832  26.657  10.438
22767W        W95027  22.047   9.809   1.258
22768W        W95028  32.628  25.680  14.936
22769W        W95029  43.286  41.459   4.141
22770W        W95030  22.716  41.302   0.291
22771W        W95031  20.652  27.004   2.865
22772W        W95032   2.282  33.919   4.116
22773W        W95033   1.431  35.562   3.344
22774W        W95034   6.808  29.624  14.950
22775W        W95035  43.368  23.595   3.635
22776W        W95036  23.204  36.095  13.337
22777W        W95037  32.117  37.492   3.692
22778W        W95038  18.089  42.360   2.187
22779W        W95039   3.900  14.706  10.420
22780W        W95040   4.901  30.052  10.492
22781W        W95041  35.461  13.842   4.261
22782W        W95042  31.547  23.186   0.945
22783W        W95043  12.615  27.578   2.284
22784W        W95044  34.963  27.120   4.176
22785W        W95045  36.587  24.595  14.404
22786W        W95046  28.135  24.533   4.606
22787W        W95047   5.431  36.979  10.484
22788W        W95048  40.798  30.922   1.831
22789W        W95049  35.505   8.689   0.838
22790W        W95050  37.517   8.267   0.851
22791W        W95051   6.853  30.642  11.866
22792W        W95052  18.593  25.530   1.840
22793W        W95053   4.235  31.629   1.915
22794W        W95054  36.400   1.279  13.317
22795W        W95055  35.600  22.151   3.799
22796W        W95056  31.526  32.511   9.658
22797W        W95057  40.046  20.738  11.557
22798W        W95058  37.970  40.820  14.432
22799W        W95059  20.564  17.799  13.467
22800W        W95060   7.864  26.552  14.958
22801W        W95061  10.171   2.957   2.192
22802W        W95062  29.106  19.584   2.718
22803W        W95063   2.261  28.071   4.794
22804W        W95064   9.724  27.006   0.448
22805W        W95065  38.972  29.163   0.823
22806W        W95066  32.392   2.303   3.221
22807W        W95067  25.214   6.760   0.472
22808W        W95068  18.667   7.701   0.736
22809W        W95069  37.541  44.287   3.686
22810W        W95070  26.105   0.433  12.906
22811W        W95071  26.596  26.033   3.358
22812W        W95072  20.563   9.878   4.687
22813W        W95073  20.637  29.982  13.465
22814W        W95074  33.107   5.385  11.546
22815W        W95075  38.832  25.060  13.350
22816W        W95076  25.649  27.015   0.330
22817W        W95077  17.641  17.284   4.225
22818W        W95078  41.817  12.755  11.970
22819W        W95079  33.917  21.685   5.783
22820W        W95080   4.904  28.158   2.320
22821W        W95081  10.294  38.076   4.699
22822W        W95082  44.475  11.261   0.413
22823W        W95083  35.436  34.506   3.630
22824W        W95084   3.848  33.598   4.802
22825W        W95085  25.501  22.128  12.423
22826W        W95086  39.353  18.220   1.700
22827W        W95087  22.111  28.452  10.472
22828W        W95088  17.242   9.830  13.480
22829W        W95089  14.160  25.968   0.905
22830W        W95090  42.448  30.511   0.341
22831W        W95091  18.665  19.717   0.893
22832W        W95092  11.314  29.569  14.811
22833W        W95093  16.604  35.486   2.851
22834W        W95094  17.634   6.415   2.199
22835W        W95095  19.189  22.246  14.350
22836W        W95096  38.015  33.029   0.783
22837W        W95097  17.268  34.482  12.344
22838W        W95098  43.855  44.286   2.363
22839W        W95099  20.030  41.999  14.324
22840W        W95100  43.983   7.836  10.448
22841W        W95101  19.663  26.134  13.536
22842W        W95102  30.977  23.047   1.343
22843W        W95103  24.143  27.577   9.611
22844W        W95104  44.849  29.523  11.993
22845W        W95105  19.152  12.743  10.933
22846W        W95106  28.939   8.349  12.438
22847W        W95107   1.278  40.445   3.243
22848W        W95108  35.024  23.663  14.759
22849W        W95109  22.027  19.694   2.671
22850W        W95110  30.550  42.973   5.185
22851W        W95111  38.051  40.344   2.818
22852W        W95112  12.635  41.347   1.258
22853W        W95113  43.880   2.454   2.682
22854W        W95114  10.789  21.573  14.009
22855W        W95115  19.578  14.648  12.365
22856W        W95116  11.802   3.284  11.912
22857W        W95117   9.175  19.053   1.438
22858W        W95118   3.837  40.545  12.504
22859W        W95119  38.468  20.196  11.470
22860W        W95120   2.909  42.826   4.168
22861W        W95121  13.251  33.425  13.378
22862W        W95122  23.723  21.647   4.270
22863W        W95123   1.443  23.095  11.887
22864W        W95124  18.782   2.809  12.424
22865W        W95125  23.093  18.062   3.861
22866W        W95126   7.802   6.405   2.829
22867W        W95127  41.909  38.557  14.400
22868W        W95128  11.853  35.938  12.545
22869W        W95129  32.004  22.602  14.802
22870W        W95130  10.150  21.042  11.401
22871W        W95131  26.024  23.624  10.442
22872W        W95132  33.382  37.918   4.598
22873W        W95133  25.188  42.371  10.066
22874W        W95134   5.887  30.472   2.745
22875W        W95135  23.221  38.487   0.797
22876W        W95136  22.169  25.545   2.381
22877W        W95137  27.664  14.821  10.569
22878W        W95138  18.591  11.373  12.514
22879W        W95139   9.312  23.522   4.645
22880W        W95140   4.417   2.383  12.038
22881W        W95141  11.246  28.134  13.340
22882W        W95142  21.719  17.784   2.369
22883W        W95143  11.300   9.236   4.345
22884W        W95144   5.909  22.723  13.868
22885W        W95145  32.063  24.526  10.437
22886W        W95146  41.474   9.752   3.726
22887W        W95147  10.852  23.237   2.285
22888W        W95148   0.359  12.674   0.939
22889W        W95149  35.562  32.573  10.508
22890W        W95150  22.018  35.382   2.730
22891W        W95151  10.869   0.430  13.348
22892W        W95152   6.695  26.121   5.096
22893W        W95153  42.834  19.141  11.091
22894W        W95154  27.656  11.171  14.425
22895W        W95155  44.317  19.640   3.317
22896W        W95156  41.406  19.176  14.811
22897W        W95157   1.385  38.948  12.411
22898W        W95158  32.067  18.119   3.372
22899W        W95159  22.739  21.113  14.463
22900W        W95160  29.513   6.817   4.612
22901W        W95161  29.157  41.833  13.033
22902W        W95162  31.970  18.094   2.392
22903W        W95163  41.848  17.097   2.663
22904W        W95164  23.126  42.304   2.324
22905W        W95165  21.040  10.704   4.719
22906W        W95166   3.746  10.149  12.079
22907W        W95167  31.907  27.010   1.935
22908W        W95168  17.636  29.452   1.434
22909W        W95169  14.732  23.995   1.858
22910W        W95170  28.592  12.220   2.690
22911W        W95171   0.392  20.085  13.334
22912W        W95172  15.188   1.438   2.752
22913W        W95173  36.442  24.577  10.476
22914W        W95174  21.514  21.144  14.337
22915W        W95175  34.081  20.046  11.499
22916W        W95176  32.941   5.251   2.821
22917W        W95177  32.986  14.605   1.932
22918W        W95178  18.736  21.162  14.827
22919W        W95179  12.126  28.943  14.455
22920W        W95180  24.626   7.834   0.368
22921W        W95181  27.482  31.597  10.404
22922W        W95182   5.728  22.689   3.269
22923W        W95183   2.386  10.799  10.938
22924W        W95184  33.625  19.538  13.803
22925W        W95185   6.813  28.083   5.202
22926W        W95186  40.406  14.170  13.368
22927W        W95187  13.733  35.492  14.409
22928W        W95188  16.738  25.170   3.689
22929W        W95189  35.357  15.647   1.222
22930W        W95190  23.614  44.975   2.791
22931W        W95191  25.517  28.125   3.768
22932W        W95192  11.837  11.808   4.342
22933W        W95193  12.308  31.926  13.895
22934W        W95194   2.303  35.573   2.868
22935W        W95195  28.027  34.437  14.947
22936W        W95196  40.032  28.539  11.492
22937W        W95197  31.409  12.276  10.457
22938W        W95198  34.587  24.660  12.388
22939W        W95199  26.024  43.454   2.412
22940W        W95200   1.760  22.154   3.183
22941W        W95201   6.290  43.896  12.005
22942W        W95202  34.095  33.111   4.830
22943W        W95203  40.974   6.186  13.908
22944W        W95204   0.970  43.488  12.843
22945W        W95205  12.184  20.541  11.126
22946W        W95206   3.428  19.179   1.407
22947W        W95207   2.794  43.871   2.686
22948W        W95208   7.347   3.259   2.712
22949W        W95209   8.860  38.962   1.882
22950W        W95210  33.951  35.081  10.897
22951W        W95211  37.477  27.988   2.896
22952W        W95212  36.900  14.277  12.359
22953W        W95213  38.376  12.633   4.630
22954W        W95214  27.684  43.801   4.232
22955W        W95215  26.471   7.782   0.803
22956W        W95216  13.232  10.841   4.781
22957W        W95217  15.711   9.290  12.900
22958W        W95218   6.884  14.688  12.471
22959W        W95219  11.194  16.210   3.165
22960W        W95220  39.368  35.393  11.468
22961W        W95221   0.863  28.955   9.961
22962W        W95222  17.622  27.978  13.802
22963W        W95223  14.334  10.305  11.470
22964W        W95224   2.836   4.720  14.913
22965W        W95225  33.460  27.068   4.235
22966W        W95226   2.402  37.888  13.984
22967W        W95227  36.534  39.858  11.561
22968W        W95228  18.117  36.536  13.477
22969W        W95229  19.071   5.769   0.770
22970W        W95230  16.145  21.663  12.560
22971W        W95231  33.436  28.584  12.523
22972W        W95232  16.709  10.239   3.348
22973W        W95233  24.646  13.298   2.369
22974W        W95234  30.164  43.797   4.631
22975W        W95235  15.743  12.734   3.168
22976W        W95236  10.290   3.410   3.783
22977W        W95237   9.158   1.951  11.544
22978W        W95238  44.855  32.534  12.876
22979W        W95239   9.161  29.148  14.838
22980W        W95240  35.586  29.040  13.853
22981W        W95241  18.217  43.346  13.490
22982W        W95242  34.930  14.259  10.952
22983W        W95243  29.140   8.392   3.718
22984W        W95244  12.708  25.603   1.424
22985W        W95245  32.925   1.820  13.338
22986W        W95246   3.716   7.189  10.065
22987W        W95247  27.093   1.735   2.208
22988W        W95248   3.444   1.413   0.768
22989W        W95249  33.971  44.478  14.791
22990W        W95250  27.516  30.547   3.379
22991W        W95251  39.044  14.705  10.539
22992W        W95252   5.279  19.111   2.187
22993W        W95253  14.106  34.452  13.847
22994W        W95254  14.325  29.938   4.761
22995W        W95255  41.306   3.426  12.508
22996W        W95256  15.641   2.452  13.380
22997W        W95257  13.657  41.472  14.946
22998W        W95258   6.295  31.151  12.009
22999W        W95259  22.558   3.772   3.683
23000W        W95260  22.028  16.625   3.704
23001W        W95261  31.117  21.600   0.961
23002W        W95262  42.950  44.486  11.127
23003W        W95263  17.597  44.985   2.754
23004W        W95264  28.959  25.154   2.373
23005W        W95265  35.557  21.676  10.138
23006W        W95266  14.190  14.197  14.389
23007W        W95267  18.276  14.110   4.248
23008W        W95268  17.800  39.863   1.736
23009W        W95269  13.813  34.874   1.211
23010W        W95270  31.507  28.976  12.033
23011W        W95271  18.147  25.978  12.963
23012W        W95272  34.889  42.492  12.930
23013W        W95273  30.984   9.778  10.438
23014W        W95274  15.805  12.339  14.842
23015W        W95275   2.358  42.495  14.309
23016W        W95276  31.462  17.173   0.470
23017W        W95277   8.343   0.468   3.833
23018W        W95278  14.742  42.292  13.034
23019W        W95279  21.603  36.477  14.843
23020W        W95280  39.399  39.872  12.959
23021W        W95281   7.672   2.321  13.310
23022W        W95282  17.140  36.041  13.496
23023W        W95283  20.049  39.873  14.351
23024W        W95284  13.244   0.773  12.983
23025W        W95285  22.570   0.897  10.560
23026W        W95286   1.288  38.824  13.026
23027W        W95287  38.416  30.919  10.955
23028W        W95288  20.188   3.325   3.322
23029W        W95289   9.341  22.708  11.006
23030W        W95290  38.522  44.989   1.341
23031W        W95291   0.317  20.623  12.010
23032W        W95292  41.922   6.718   3.147
23033W        W95293  26.614  44.857  14.870
23034W        W95294  44.275  36.464  11.399
23035W        W95295  39.450  11.336   3.301
23036W        W95296   5.865  24.115  12.375
23037W        W95297  29.133  23.051   3.322
23038W        W95298  28.527  30.082   1.735
23039W        W95299  27.102  44.443  10.968
23040W        W95300   4.868   2.795  12.025
23041W        W95301  16.271  26.185   4.283
23042W        W95302  15.770  12.683   0.854
23043W        W95303  27.617  23.057   0.483
23044W        W95304  19.650  19.747  12.530
23045W        W95305  18.091   1.345   2.893
23046W        W95306  36.062  32.111  10.951
23047W        W95307  16.650  37.017  14.945
23048W        W95308  27.623  16.103  14.495
23049W        W95309  43.857  31.524   3.365
23050W        W95310  42.953   2.791   1.210
23051W        W95311  26.503  23.735   0.287
23052W        W95312  33.953  17.735   3.676
23053W        W95313  44.292   4.821  10.933
23054W        W95314  10.248  16.580  14.452
23055W        W95315  43.849   8.190  13.530
23056W        W95316  44.261   0.312  13.969
23057W        W95317   2.380  25.195   0.808
23058W        W95318  43.493  10.326   4.771
23059W        W95319  36.489   7.349   4.188
23060W        W95320   3.757  35.358  13.852
23061W        W95321  31.994  19.606   2.190
23062W        W95322  35.904   1.444  14.004
23063W        W95323  13.716  31.045  11.914
23064W        W95324   5.427  29.174  10.977
23065W        W95325  37.397  12.275  14.790
23066W        W95326  15.776  41.462  11.453
23067W        W95327  34.535  26.201   0.328
23068W        W95328   4.776  10.224  14.466
23069W        W95329   5.277   5.848  14.287
23070W        W95330  10.825  29.954   4.820
23071W        W95331  38.570   3.330  12.395
23072W        W95332  32.392   3.380   2.224
23073W        W95333  30.499   0.306  12.030
23074W        W95334  40.442   3.748  13.908
23075W        W95335  12.739  21.601   4.748
23076W        W95336  19.723   2.317   4.196
23077W        W95337  43.865  22.093   4.644
23078W        W95338  26.986  44.473   2.669
23079W        W95339  36.560   8.748  14.360
23080W        W95340  28.163  35.366   1.330
23081W        W95341  10.742  35.037  11.609
23082W        W95342  21.628   3.277   2.372
23083W        W95343   9.315  40.830   0.260
23084W        W95344  36.924  31.123   4.123
23085W        W95345  19.168  32.079  10.468
23086W        W95346  31.414  33.528  12.466
23087W        W95347   7.392  11.239  11.427
23088W        W95348  35.017   1.812  14.498
23089W        W95349  30.094  19.694  13.489
23090W        W95350  36.007   4.796   5.235
23091W        W95351  17.585  28.027  12.450
23092W        W95352  33.120  21.122  14.015
23093W        W95353  17.567   1.450  13.473
23094W        W95354  31.492  33.435  11.954
23095W        W95355   4.315  16.271  12.363
23096W        W95356  39.889  35.523  11.093
23097W        W95357  28.963   1.953   0.323
23098W        W95358  14.209  44.410   2.283
23099W        W95359  16.081  18.675  14.920
23100W        W95360  22.128  16.127  14.824
23101W        W95361  43.975  34.961   4.655
23102W        W95362  35.448  19.106   3.738
23103W        W95363  29.066  33.012   3.360
23104W        W95364   6.683  40.822   2.725
23105W        W95365   4.809  15.236   2.781
23106W        W95366  38.055  42.484  11.410
23107W        W95367  41.409  44.766   4.799
23108W        W95368  27.010  34.567   3.720
23109W        W95369  27.176  12.729   4.719
23110W        W95370  34.436   7.904  12.374
23111W        W95371  21.244  32.922  10.057
23112W        W95372  42.413  20.192   0.892
23113W        W95373  13.605  32.010  11.066
23114W        W95374  37.034  18.673  14.322
23115W        W95375  23.998  21.263  13.417
23116W        W95376  28.106  20.614   3.837
23117W        W95377  20.694  32.588   0.472
23118W        W95378   3.316  21.707  13.380
23119W        W95379  33.459  23.648  11.968
23120W        W95380  34.390  34.054  12.365
23121W        W95381  30.974  44.389  11.375
23122W        W95382  43.844  21.137  13.534
23123W        W95383  20.258  26.207   0.422
23124W        W95384  14.169   3.759   1.442
23125W        W95385   7.812  14.734  12.896
23126W        W95386  10.634  15.580   3.384
23127W        W95387  17.212   8.345  14.460
23128W        W95388   5.773  39.916  10.635
23129W        W95389  39.052  32.460  12.510
23130W        W95390   0.915  35.904  13.934
23131W        W95391   0.910   0.747  14.498
23132W        W95392  27.153  38.880  14.904
23133W        W95393  28.092  34.423  13.444
23134W        W95394  41.977  12.674   3.668
23135W        W95395  31.941  17.720   2.836
23136W        W95396  16.583   9.787  12.949
23137W        W95397  23.015  33.608   1.259
23138W        W95398   5.339  16.074   3.156
23139W        W95399  28.167  21.554  12.478
23140W        W95400   6.856   3.450   0.865
23141W        W95401  21.637   2.933  11.039
23142W        W95402  29.549  29.131  11.941
23143W        W95403  30.529  43.945   1.712
23144W        W95404   7.302  44.272  10.071
23145W        W95405  34.069   6.832   1.356
23146W        W95406   0.853  42.950  14.312
23147W        W95407   3.430  28.442   0.809
23148W        W95408  44.806  41.395  14.379
23149W        W95409   3.828  12.176   1.330
23150W        W95410  32.128  22.696  12.495
23151W        W95411   8.822  32.951   1.886
23152W        W95412  16.245  17.266   2.724
23153W        W95413   6.335   1.863  10.008
23154W        W95414   3.432  22.643   2.367
23155W        W95415   9.882  18.270   0.835
23156W        W95416   6.724  42.367   3.852
23157W        W95417  24.569   6.890   1.280
23158W        W95418  13.690  44.804  12.361
23159W        W95419  18.591   2.910  13.338
23160W        W95420   6.847  32.496  12.440
23161W        W95421  34.034  30.049  11.862
23162W        W95422  27.500  12.660  11.056
23163W        W95423  34.090  38.462   1.435
23164W        W95424  39.830  28.151  13.459
23165W        W95425   8.724  43.939   4.615
23166W        W95426   2.240  30.949  13.350
23167W        W95427  44.937  26.052   0.734
23168W        W95428  14.111  15.599   0.845
23169W        W95429  36.058  22.693   5.300
23170W        W95430  40.303   6.796  13.831
23171W        W95431  24.987  22.602  13.368
23172W        W95432   1.345   3.250  11.569
23173W        W95433   2.451   1.463   0.454
23174W        W95434  32.133   6.903   4.131
23175W        W95435  23.515   2.275   0.424
23176W        W95436  11.689  30.932  13.995
23177W        W95437  11.733  28.586  11.037
23178W        W95438  13.312  18.791  12.890
23179W        W95439  25.213  35.989   4.624
23180W        W95440  22.093  14.722   1.782
23181W        W95441  13.191  15.224  13.850
23182W        W95442  15.678  13.836  14.508
23183W        W95443  33.883   3.366   0.915
23184W        W95444  39.995   7.734  10.627
23185W        W95445  27.984   3.347  12.580
23186W        W95446   3.750  13.733   2.182
23187W        W95447  24.641  14.339   2.716
23188W        W95448  39.891  19.250   2.708
23189W        W95449  42.987   7.270  13.793
23190W        W95450  10.797  20.170  10.421
23191W        W95451  44.856   7.255  11.501
23192W        W95452   3.789  22.706   4.270
23193W        W95453  31.593  20.569   2.783
23194W        W95454  18.080  29.949   2.780
23195W        W95455  11.164  42.785   5.103
23196W        W95456  10.742   3.946   2.315
23197W        W95457  30.914  13.236   3.305
23198W        W95458   7.725  11.347  12.528
23199W        W95459   0.964  27.981   4.248
23200W        W95460  42.831  42.000   0.462
23201W        W95461   1.352   0.473   4.673
23202W        W95462  42.501  10.262  12.579
23203W        W95463  24.014   7.704  12.903
23204W        W95464  35.929   3.898   4.194
23205W        W95465  19.099  44.820  11.041
23206W        W95466   3.815  12.118  14.349
23207W        W95467  42.849  19.615   3.689
23208W        W95468  43.005   4.811  13.502
23209W        W95469  41.365  17.268  14.433
23210W        W95470  40.815  23.508  14.501
23211W        W95471   3.308   4.732  10.476
23212W        W95472  36.455  37.345  10.438
23213W        W95473   0.764   2.326   2.317
23214W        W95474  44.828  37.392   0.347
23215W        W95475   3.230  28.992   4.222
23216W        W95476  30.617  35.923   1.896
23217W        W95477  32.475  15.662   2.236
23218W        W95478  31.143   6.412   0.811
23219W        W95479  27.604  11.171  12.503
23220W        W95480  43.427  33.586   3.216
23221W        W95481  27.130   4.411  14.943
23222W        W95482  42.017  35.404   3.345
23223W        W95483  20.671  44.475  11.540
23224W        W95484  15.679  14.749   1.296
23225W        W95485  28.170  18.187   1.760
23226W        W95486  19.628  24.014  13.898
23227W        W95487   2.872  21.720   0.748
23228W        W95488  34.550  20.753  12.859
23229W        W95489  15.210  28.130   9.455
23230W        W95490  14.736  25.182  13.899
23231W        W95491  14.753  18.278   4.686
23232W        W95492  29.472  20.673  12.840
23233W        W95493  13.245  33.584   3.166
23234W        W95494   4.932  25.692   0.737
23235W        W95495   4.785  37.022  11.913
23236W        W95496  33.020  15.101   1.401
23237W        W95497   3.358  22.225   1.889
23238W        W95498  12.205  41.928  11.104
23239W        W95499  16.283  15.314  13.831
23240W        W95500  42.489   9.832   3.355
23241W        W95501   0.814  32.532  10.458
23242W        W95502  29.573   3.764   4.251
23243W        W95503  35.584  35.883   4.734
23244W        W95504  17.624  15.759  12.510
23245W        W95505   4.323  31.109  11.060
23246W        W95506  38.026  15.300  14.942
23247W        W95507  18.605  34.515  10.590
23248W        W95508  21.063  22.679   0.328
23249W        W95509  36.551  37.407   2.245
23250W        W95510   6.219  23.042  14.352
23251W        W95511  15.280   7.278   4.723
23252W        W95512   4.749   8.328   0.267
23253W        W95513  24.048  30.479  10.470
23254W        W95514  35.552  32.456   3.217
23255W        W95515  24.154  34.941  14.016
23256W        W95516  38.544   1.843   4.691
23257W        W95517   9.258  18.558   5.120
23258W        W95518  32.027  11.238   0.256
23259W        W95519  17.113  14.603  13.316
23260W        W95520  13.805  15.156  14.431
23261W        W95521   0.901  42.317  12.902
23262W        W95522  40.411   8.829   3.213
23263W        W95523  26.593   5.332   3.665
23264W        W95524  12.265  42.007  14.426
23265W        W95525  18.228  12.772   1.292
23266W        W95526  25.118   1.315   4.182
23267W        W95527  34.391  38.849   4.598
23268W        W95528  36.941   0.895  14.900
23269W        W95529  14.207  10.664   3.850
23270W        W95530  32.927   4.727   1.392
23271W        W95531  36.496  39.812   2.842
23272W        W95532   8.369  44.757   2.187
23273W        W95533  25.191  29.514  10.564
23274W        W95534   6.356  17.727   0.934
23275W        W95535   7.239   4.789   2.353
23276W        W95536  29.925  21.092   0.850
23277W        W95537  17.577   1.749  14.924
23278W        W95538  39.888  30.077   3.754
23279W        W95539   8.398  20.757  12.091
23280W        W95540  33.013  18.293   2.194
23281W        W95541  15.210  27.164   0.913
23282W        W95542   4.935  15.703   4.128
23283W        W95543  38.023   9.709  10.019
23284W        W95544  12.213  41.375  10.897
23285W        W95545  24.106  10.684   3.689
23286W        W95546  14.788   6.246   1.911
23287W        W95547  40.032  20.758  12.451
23288W        W95548  24.604  41.032   4.731
23289W        W95549  29.595   7.253   3.811
23290W        W95550   2.886  13.238  13.803
23291W        W95551  26.686  26.044  10.594
23292W        W95552   8.883   2.945  12.378
23293W        W95553  31.466  30.147   3.849
23294W        W95554  21.636  33.878  12.967
23295W        W95555   0.955  10.809  14.020
23296W        W95556   0.985  28.604   4.806
23297W        W95557  35.873  28.583  13.835
23298W        W95558  17.632   1.320  10.481
23299W        W95559  25.593  22.671  13.001
23300W        W95560  34.086  22.605  14.410
23301W        W95561  12.191   3.435  12.011
23302W        W95562   9.679  22.572   0.856
23303W        W95563  39.914  14.224   2.775
23304W        W95564   5.246  28.595   2.714
23305W        W95565  21.638  42.413   4.285
23306W        W95566  37.447  37.501  10.562
23307W        W95567  21.617   0.917   3.870
23308W        W95568  25.036  31.605   0.758
23309W        W95569  29.526  40.353   4.182
23310W        W95570  28.569  35.432  12.867
23311W        W95571  39.903  31.004  12.569
23312W        W95572  28.045  44.495   3.680
23313W        W95573  10.806  13.330  11.470
23314W        W95574  43.967  35.479  12.556
23315W        W95575   3.865  44.971   4.770
23316W        W95576  38.530  32.501   1.370
23317W        W95577  27.581  19.660  14.930
23318W        W95578   9.883  21.658   2.352
23319W        W95579  19.240  33.600   3.825
23320W        W95580  42.018  31.580  12.490
23321W        W95581  25.472  18.075   2.353
23322W        W95582  28.593  13.331  10.469
23323W        W95583  44.777  36.092   0.248
23324W        W95584  22.249  32.400  10.454
23325W        W95585   6.895  38.502   4.317
23326W        W95586  23.705  18.599  11.891
23327W        W95587  39.524  27.511  10.488
23328W        W95588   7.752  16.245  11.073
23329W        W95589   2.931  37.966   0.766
23330W        W95590  37.532  12.646   3.200
23331W        W95591   0.959  40.827  11.412
23332W        W95592  36.515  30.948   3.815
23333W        W95593  10.275   9.197   3.777
23334W        W95594   2.350  22.154   3.247
23335W        W95595  23.719  20.560  11.008
23336W        W95596  35.091  17.106  14.022
23337W        W95597  14.260  19.543   4.197
23338W        W95598   8.677   4.703  12.839
23339W        W95599  29.480  31.107  13.968
23340W        W95600  24.046  34.930   5.129
23341W        W95601  10.203  26.627   1.756
23342W        W95602  25.203  32.539   4.148
23343W        W95603  12.629  26.572  11.004
23344W        W95604  35.364   6.803  14.781
23345W        W95605  17.793  23.165   0.938
23346W        W95606   1.462   1.889  12.556
23347W        W95607  22.574  21.124   5.278
23348W        W95608  29.039   1.977  13.935
23349W        W95609   1.914   8.758   2.781
23350W        W95610  23.079   0.366  14.943
23351W        W95611  28.676  14.333  10.492
23352W        W95612  39.401  31.506  11.963
23353W        W95613  29.606  36.911  14.427
23354W        W95614  10.820  18.762  11.597
23355W        W95615  26.702   0.276  11.566
23356W        W95616  17.212  44.489  14.788
23357W        W95617   8.775   2.328  14.835
23358W        W95618   1.868  20.031  13.482
23359W        W95619  43.275  32.405  12.547
23360W        W95620  17.163  25.025  13.996
23361W        W95621  13.117   5.439   0.841
23362W        W95622  10.179   4.916   2.744
23363W        W95623   6.308  27.985  11.915
23364W        W95624  21.248  19.059   3.689
23365W        W95625  10.280  19.109   3.349
23366W        W95626  34.011   5.368   1.886
23367W        W95627  32.464  30.070   2.293
23368W        W95628  12.221  28.626   4.632
23369W        W95629  21.055  31.436  11.969
23370W        W95630   8.780   7.823  12.371
23371W        W95631   9.766  31.927  11.513
23372W        W95632  23.563  16.119   4.610
23373W        W95633   7.305  13.647   3.742
23374W        W95634  30.424  41.429  13.426
23375W        W95635  36.912  21.240   2.344
23376W        W95636  31.486  21.186   2.366
23377W        W95637   9.659  43.413  11.972
23378W        W95638  13.152  29.523   5.116
23379W        W95639   3.430  25.658  14.296
23380W        W95640  35.033  37.936   4.792
23381W        W95641   5.781  28.460  12.932
23382W        W95642  41.808   5.356   4.656
23383W        W95643  30.540   9.786   4.307
23384W        W95644  28.134  18.568  10.101
23385W        W95645   5.922  18.225  11.487
23386W        W95646   8.313   7.314   1.731
23387W        W95647   8.747  39.051   2.897
23388W        W95648  16.103   4.904  11.123
23389W        W95649   9.827  35.916   0.337
23390W        W95650  43.847  13.761   2.895
23391W        W95651  17.614  28.477   3.190
23392W        W95652  30.452   2.795  12.921
23393W        W95653  34.457  38.001  10.570
23394W        W95654  17.292  31.489  13.419
23395W        W95655  43.820  36.491   1.841
23396W        W95656  41.959  43.873   4.651
23397W        W95657  36.048  29.662  13.970
23398W        W95658   7.391  14.096  14.853
23399W        W95659  38.546  17.301   4.744
23400W        W95660  38.497  43.346  11.005
23401W        W95661  25.631  11.850  11.075
23402W        W95662  34.077  12.702   4.730
23403W        W95663   6.885  31.553   2.233
23404W        W95664  10.332  19.774  12.369
23405W        W95665  23.545  18.679   3.298
23406W        W95666  21.604  26.624   3.367
23407W        W95667   1.746  11.753   5.225
23408W        W95668  40.803   5.435  13.463
23409W        W95669  41.877  21.123  14.852
23410W        W95670  43.778  38.913   3.676
23411W        W95671  35.010  15.611   5.241
23412W        W95672   3.847  17.205  12.867
23413W        W95673  26.167  20.722   0.342
23414W        W95674   6.794   7.848  11.880
23415W        W95675  25.974  19.697   1.353
23416W        W95676   6.423  24.056   1.866
23417W        W95677  32.085   4.244  14.460
23418W        W95678   6.418  22.212  14.900
23419W        W95679  34.404   3.808  11.081
23420W        W95680  20.122  21.566  12.456
23421W        W95681  20.087   7.321  13.502
23422W        W95682  33.553   8.891   3.161
23423W        W95683  23.125  30.079   2.388
23424W        W95684  11.726  34.405   4.346
23425W        W95685  33.413  17.124  13.048
23426W        W95686  42.786   3.331   1.437
23427W        W95687  15.235  26.181   0.957
23428W        W95688  44.838   8.378  13.025
23429W        W95689  37.025   1.866   4.143
23430W        W95690  35.875   7.785   0.476
23431W        W95691  23.588  24.161   3.768
23432W        W95692  20.675  35.379   0.847
23433W        W95693  24.178   4.328  13.545
23434W        W95694  28.472  25.028   0.854
23435W        W95695  18.099  21.742   3.175
23436W        W95696   2.394   3.757   3.334
23437W        W95697  28.176  32.018  11.125
23438W        W95698   9.265  39.367  11.097
23439W        W95699  27.004   5.716  10.994
23440W        W95700  36.389  27.011  13.896
23441W        W95701  16.612  41.866   3.685
23442W        W95702  17.159  13.735   1.353
23443W        W95703  33.479  19.152   1.721
23444W        W95704  24.012  21.135   3.325
23445W        W95705  21.092  16.803   4.677
23446W        W95706  13.608   3.935  11.974
23447W        W95707  26.085  19.665   0.326
23448W        W95708  23.490  28.494   2.758
23449W        W95709  19.589   3.239  11.471
23450W        W95710  27.549   6.185   1.701
23451W        W95711  29.458  33.565  13.023
23452W        W95712  34.120  35.008  10.535
23453W        W95713  32.535  13.232  13.048
23454W        W95714  25.680  19.151  11.089
23455W        W95715  37.083  18.766  10.029
23456W        W95716  15.261  39.508   0.882
23457W        W95717   0.765  33.603   3.247
23458W        W95718   9.725  37.985  14.940
23459W        W95719  36.030  32.411   3.861
23460W        W95720  41.993  40.050   3.169
23461W        W95721  16.663  42.450  11.606
23462W        W95722   5.776  25.211   0.310
23463W        W95723   6.872   3.385   4.298
23464W        W95724   7.695  12.677   3.253
23465W        W95725  40.503  26.972   4.152
23466W        W95726  29.149  12.742  13.834
23467W        W95727  30.479   3.931   0.870
23468W        W95728  20.099   5.867   0.269
23469W        W95729  16.154  42.999  10.951
23470W        W95730  33.412  44.761   2.238
23471W        W95731   7.310  38.530   0.391
23472W        W95732   9.787  25.662  13.886
23473W        W95733   6.271  36.051  10.504
23474W        W95734  18.587  26.654   0.338
23475W        W95735  14.306  40.897   2.304
23476W        W95736  29.035  37.909   2.361
23477W        W95737  30.605  31.530  14.298
23478W        W95738  12.336  21.551  11.947
23479W        W95739  44.287  10.309   4.230
23480W        W95740  24.532  44.759  13.030
23481W        W95741  22.600  42.385  13.835
23482W        W95742  10.832  18.296   0.737
23483W        W95743  40.848   6.266  14.299
23484W        W95744  19.102   5.259  12.079
23485W        W95745   7.832  26.474  12.010
23486W        W95746   3.861  26.630  10.463
23487W        W95747   9.809   8.834  10.519
23488W        W95748  12.682  44.863  14.002
23489W        W95749  35.542  29.548   3.735
23490W        W95750  39.894  29.541   0.756
23491W        W95751  42.510  38.556   4.258
23492W        W95752   8.209  16.676   1.366
23493W        W95753  23.618  26.029  14.312
23494W        W95754  30.415  30.444  10.527
23495W        W95755  36.543   3.276   0.470
23496W        W95756  23.660   4.719  14.978
23497W        W95757  36.470  19.040  14.369
23498W        W95758   0.300  21.158  13.839
23499W        W95759  33.436  12.345   3.223
23500W        W95760  18.195  38.956   3.819
23501W        W95761   0.856   1.800  10.982
23502W        W95762  39.496  33.576  13.997
23503W        W95763   0.255  19.243  13.816
23504W        W95764  21.567   8.362   2.866
23505W        W95765  22.649   5.797  10.142
23506W        W95766  44.306  37.520   1.819
23507W        W95767  32.908  32.405   1.932
23508W        W95768  34.564  19.538   4.266
23509W        W95769  40.987  39.940   1.242
23510W        W95770  44.341   3.815  13.441
23511W        W95771  14.324  12.708   2.718
23512W        W95772  21.121  26.119   0.954
23513W        W95773  39.323  27.572  13.484
23514W        W95774  37.963   0.886  12.029
23515W        W95775  17.243  18.728   2.754
23516W        W95776   6.235  12.355  13.819
23517W        W95777  44.962  32.072   0.441
23518W        W95778   0.912   8.660  10.590
23519W        W95779  23.207   1.870  11.059
23520W        W95780  25.131  16.688   1.311
23521W        W95781  18.081  22.683  11.569
23522W        W95782  23.606   9.170  11.109
23523W        W95783  20.112  11.754   1.287
23524W        W95784   9.269  41.535   4.253
23525W        W95785  44.358   6.425   5.290
23526W        W95786  13.190  44.407  10.071
23527W        W95787  38.823  30.457  12.008
23528W        W95788  26.509  27.470   3.298
23529W        W95789  36.926   7.855   5.106
23530W        W95790  31.035  18.174   1.805
23531W        W95791  30.160  44.266  14.465
23532W        W95792  30.651  31.604   1.862
23533W        W95793   8.671  15.593  14.862
23534W        W95794   5.921   1.344  13.804
23535W        W95795  33.087  17.571  10.889
23536W        W95796  13.137   3.402  13.523
23537W        W95797  27.678  31.421  13.390
23538W        W95798   6.803  35.549  12.524
23539W        W95799  15.281  38.419   3.292
23540W        W95800   7.711   5.212  14.920
23541W        W95801  36.552  29.496   1.220
23542W        W95802   1.349  40.007  10.605
23543W        W95803   8.396  20.145  14.278
23544W        W95804   0.952  40.910  14.463
23545W        W95805   5.920  31.094   2.663
23546W        W95806  20.695  15.191  13.411
23547W        W95807  31.422  33.613  13.321
23548W        W95808   9.217  28.054   0.315
23549W        W95809  28.161  14.664   0.301
23550W        W95810  31.581  21.214  10.900
23551W        W95811  19.078  25.143   3.760
23552W        W95812   5.434   1.853   3.343
23553W        W95813  29.128  20.256  12.553
23554W        W95814  34.415  37.846  14.446
23555W        W95815   6.281  25.977  12.947
23556W        W95816  10.806   1.247   4.660
23557W        W95817  44.294  29.454  14.448
23558W        W95818  10.140  39.036  14.997
23559W        W95819   3.879  36.488  14.929
23560W        W95820  15.295  27.995   0.876
23561W        W95821  35.867  14.332   0.394
23562W        W95822  24.992  44.311   9.999
23563W        W95823  15.713  12.626  14.773
23564W        W95824  10.739  34.517   1.755
23565W        W95825  34.476  34.457   2.749
23566W        W95826  18.689  34.462   2.411
23567W        W95827  37.059  35.545  12.989
23568W        W95828   6.790  31.128  12.827
23569W        W95829   9.767   5.805   3.251
23570W        W95830  39.064  37.044   1.786
23571W        W95831  13.339  41.903   4.232
23572W        W95832  16.082  15.234   4.343
23573W        W95833  22.995  40.846   2.744
23574W        W95834  36.354  13.228  10.478
23575W        W95835   8.683  24.649   0.272
23576W        W95836  27.523   8.688  10.469
23577W        W95837  37.857  25.193  11.096
23578W        W95838  16.245  31.613   1.713
23579W        W95839   3.783  28.104  12.536
23580W        W95840  30.951  13.336  14.858
23581W        W95841  30.160  24.599  12.889
23582W        W95842  26.105   8.662   1.313
23583W        W95843  33.904  18.705  13.844
23584W        W95844  37.858   6.361   3.154
23585W        W95845  17.279  43.503   3.339
23586W        W95846  26.538  12.673  12.928
23587W        W95847   5.828  40.976   3.704
23588W        W95848  21.747   9.389  14.914
23589W        W95849  41.910  32.904   1.355
23590W        W95850  13.201  14.281   2.833
23591W        W95851   1.252  42.867   0.950
23592W        W95852  37.890  35.876   1.833
23593W        W95853  40.904  10.728  10.951
23594W        W95854  37.388   0.795  12.997
23595W        W95855  29.510  21.530   1.442
23596W        W95856  23.705  18.677   1.355
23597W        W95857  43.840  35.913  10.900
23598W        W95858  24.604  25.161   3.644
23599W        W95859  21.530   1.462   3.241
23600W        W95860  11.717   0.758   1.833
23601W        W95861  34.058   3.790  12.491
23602W        W95862   5.832  27.146   4.820
23603W        W95863  44.867  19.123  14.816
23604W        W95864   1.349  19.182   2.761
23605W        W95865  18.079  33.595  12.553
23606W        W95866  17.172  35.474  14.833
23607W        W95867  36.952  22.569   4.174
23608W        W95868  27.943  27.078  13.340
23609W        W95869  39.327  13.776  11.016
23610W        W95870   6.685  23.197   2.230
23611W        W95871  35.996  37.830   2.849
23612W        W95872  42.927  35.898   3.369
23613W        W95873  34.601  40.427   0.958
23614W        W95874  26.961  17.066   4.631
23615W        W95875  12.719   3.929  12.453
23616W        W95876   1.880  34.064  11.034
23617W        W95877   6.848  27.153  13.808
23618W        W95878  40.377   8.678  11.952
23619W        W95879   7.250  25.521   0.479
23620W        W95880   7.835  10.654   1.920
23621W        W95881   3.949  10.252  11.413
23622W        W95882   0.262  13.770  11.978
23623W        W95883  24.083  43.496  14.806
23624W        W95884  22.736  14.785   4.638
23625W        W95885  33.976  10.291   2.396
23626W        W95886  41.805  26.041  11.855
23627W        W95887  13.315  16.072  13.330
23628W        W95888  16.182  27.066   4.708
23629W        W95889  10.728  24.081  12.882
23630W        W95890  43.835  35.409   3.211
23631W        W95891  21.556  40.009  11.986
23632W        W95892  42.856   0.271   0.336
23633W        W95893   3.783  28.166  11.403
23634W        W95894  16.793  31.944   3.329
23635W        W95895   0.471  32.950  11.888
23636W        W95896  20.617  27.176  13.320
23637W        W95897  44.900  35.855   0.807
23638W        W95898  25.530  16.763   0.940
23639W        W95899  27.095  19.670  12.924
23640W        W95900  16.076   6.301  12.044
23641W        W95901  38.058  19.686  12.542
23642W        W95902  38.923   9.743  13.041
23643W        W95903  37.577  24.630  11.469
23644W        W95904  29.016  13.836  13.443
23645W        W95905  23.049  10.339  12.994
23646W        W95906   9.737  19.750   2.666
23647W        W95907  17.231  33.622  13.036
23648W        W95908  30.519  29.995  13.480
23649W        W95909  42.910  30.629   3.150
23650W        W95910   2.289   3.445  10.122
23651W        W95911  36.021  37.015   4.254
23652W        W95912  23.519  36.407  11.077
23653W        W95913   9.751  43.013  11.487
23654W        W95914  20.756   9.690   2.297
23655W        W95915  34.959  18.053   5.294
23656W        W95916  35.982  16.695   3.768
23657W        W95917  26.575   1.875  14.371
23658W        W95918  25.063  36.053   3.852
23659W        W95919  42.899  25.213   4.792
23660W        W95920  16.134   0.965   9.950
23661W        W95921  26.649  44.774   0.888
23662W        W95922  41.982   3.292  10.970
23663W        W95923   7.299  14.175   0.247
23664W        W95924   0.257  15.701   0.825
23665W        W95925  31.937  22.651   5.171
23666W        W95926   2.438   9.803  12.571
23667W        W95927  25.076   5.745  14.514
23668W        W95928  20.755  16.773  11.967
23669W        W95929  43.823  25.029   0.406
23670W        W95930  36.000  14.677   5.276
23671W        W95931  15.266  23.026  14.928
23672W        W95932   1.786  21.619   0.255
23673W        W95933  24.024  18.209   1.327
23674W        W95934  14.720  39.816   4.721
23675W        W95935  40.029  37.996   2.195
23676W        W95936  27.564  23.649  13.991
23677W        W95937  41.954  23.098   4.249
23678W        W95938   0.325  25.555   3.306
23679W        W95939  21.252  33.047   4.767
23680W        W95940  30.655  20.722   2.356
23681W        W95941  31.646  41.373   3.242
23682W        W95942  32.994  25.058   2.772
23683W        W95943  27.479   0.332   4.615
23684W        W95944  37.361  38.983  14.881
23685W        W95945  10.228  31.146  12.916
23686W        W95946   4.375  43.860  12.998
23687W        W95947  39.890  30.026   0.272
23688W        W95948  34.876  19.114  14.815
23689W        W95949  26.594  38.925  14.835
23690W        W95950  17.682  17.601  12.427
23691W        W95951   5.200   9.765   4.221
23692W        W95952  13.272  38.914   3.359
23693W        W95953  26.118  30.048  13.822
23694W        W95954  39.932  23.609   2.395
23695W        W95955  21.158  36.375  13.033
23696W        W95956  42.939  40.028  14.853
23697W        W95957   7.297  36.982  12.069
23698W        W95958  10.233  38.858  13.865
23699W        W95959   4.796  18.576   3.168
23700W        W95960   0.475  40.884  14.911
23701W        W95961  25.672   3.279   4.759
23702W        W95962  20.730  19.670   1.250
23703W        W95963  34.540  29.036  10.624
23704W        W95964  36.088   5.414  11.406
23705W        W95965  23.040  13.732  10.465
23706W        W95966  16.209  20.198   0.911
23707W        W95967  28.466   8.773  13.320
23708W        W95968   1.774  31.096   4.222
23709W        W95969  33.083   5.820   2.893
23710W        W95970  22.035  36.928  14.366
23711W        W95971  39.371  28.541   0.242
23712W        W95972  35.396  40.436  10.931
23713W        W95973   7.772  28.446  10.135
23714W        W95974  22.203   5.764  10.432
23715W        W95975  44.996  41.867  10.890
23716W        W95976   8.853  42.854  14.025
23717W        W95977  38.512  20.603  11.915
23718W        W95978   4.765  35.063  12.460
23719W        W95979  17.093  39.873  12.053
23720W        W95980  11.244  38.413  14.921
23721W        W95981   5.804  33.545   4.754
23722W        W95982   7.317  16.651   1.433
23723W        W95983  24.667   3.905  14.377
23724W        W95984  25.026  44.453   4.211
23725W        W95985  13.778  27.059  11.447
23726W        W95986  10.809   9.309  14.355
23727W        W95987  11.739  37.918  12.870
23728W        W95988  28.990   2.798  13.538
23729W        W95989  33.116   6.278  14.508
23730W        W95990   9.836  15.780   2.305
23731W        W95991   6.325   4.254  12.942
23732W        W95992  11.323  39.872  12.922
23733W        W95993  26.147   9.323   1.858
23734W        W95994  10.792  31.495  10.606
23735W        W95995  42.321  14.264  13.981
23736W        W95996  18.549   0.388  13.011
23737W        W95997  21.603  27.161   1.298
23738W        W95998   1.826  28.510   4.296
23739W        W95999  28.978   3.827  12.930
23740W        W96000  36.957  29.035   2.376
23741W        W96001  25.613  31.053  14.020
23742W        W96002  37.038   7.864   1.694
23743W        W96003  21.730  25.620   0.318
23744W        W96004  21.628  22.027   4.662
23745W        W96005  42.838  40.898   1.743
23746W        W96006  19.195  13.289  12.078
23747W        W96007  20.045  34.385  14.447
23748W        W96008  38.910  12.725   4.633
23749W        W96009  35.512  41.886  13.351
23750W        W96010   5.752  27.012   3.782
23751W        W96011  39.012   7.206  14.961
23752W        W96012   7.221  39.859   0.277
23753W        W96013  32.020  15.800   0.297
23754W        W96014  38.367  14.695  14.305
23755W        W96015  36.085  33.928   2.730
23756W        W96016  36.504  35.031   3.713
23757W        W96017  40.953  21.033  11.055
23758W        W96018  30.618  11.703  13.965
23759W        W96019  33.403  27.689  10.628
23760W        W96020  25.974  18.098  11.582
23761W        W96021  24.625   0.941  11.604
23762W        W96022  37.458  38.347   9.953
23763W        W96023  27.074  21.024   1.289
23764W        W96024  40.481   8.846  13.822
23765W        W96025  28.651  27.991  11.084
23766W        W96026  23.234  27.142  12.872
23767W        W96027   8.786   9.805  10.968
23768W        W96028  37.867  44.961   2.730
23769W        W96029  24.977  10.292   0.290
23770W        W96030   5.402  34.502  13.866
23771W        W96031  32.026  19.639   3.641
23772W        W96032  28.474   0.469   3.779
23773W        W96033  26.040  36.962  14.461
23774W        W96034  25.008   9.225   2.800
23775W        W96035   9.870   2.804   0.280
23776W        W96036  23.588  14.122  13.851
23777W        W96037  35.943  40.323  10.456
23778W        W96038  34.443  36.983   4.242
23779W        W96039   6.386  21.701   2.716
23780W        W96040  34.380  10.714   0.455
23781W        W96041  21.542   7.297   5.188
23782W        W96042  31.033   6.742  13.881
23783W        W96043  37.032  14.788   0.740
23784W        W96044   2.891  41.999  13.357
23785W        W96045  43.886  38.896   2.842
23786W        W96046  39.420   1.414  11.953
23787W        W96047  11.234  42.031  13.511
23788W        W96048  21.217  22.651  13.815
23789W        W96049  12.239  37.567  10.997
23790W        W96050  18.151  22.712  12.501
23791W        W96051   8.722  14.340  12.930
23792W        W96052   5.753  18.155  14.841
23793W        W96053  38.940  12.784  11.856
23794W        W96054  31.458  34.050   1.926
23795W        W96055  13.651  43.276  11.994
23796W        W96056  39.063  29.666  13.062
23797W        W96057  12.261  23.006  11.442
23798W        W96058  10.255   9.656  14.981
23799W        W96059  44.492   2.283   3.661
23800W        W96060  12.770  37.010   4.204
23801W        W96061  13.164  32.017   2.815
23802W        W96062  19.699  24.058  11.469
23803W        W96063  33.074  17.251   4.667
23804W        W96064  22.533  26.090   5.637
23805W        W96065  26.507   7.688   0.415
23806W        W96066  18.743   0.799   1.287
23807W        W96067  16.292  31.483  12.443
23808W        W96068  38.946   6.727  12.924
23809W        W96069  32.971  39.550  14.952
23810W        W96070  33.909   5.801   4.220
23811W        W96071   8.772  10.786   0.327
23812W        W96072  42.031  13.269   0.479
23813W        W96073  34.474  37.566   4.283
23814W        W96074  26.035  25.970   4.144
23815W        W96075  21.103  19.565  12.841
23816W        W96076   0.446  38.468  14.468
23817W        W96077  17.682  30.497  13.340
23818W        W96078  32.923  32.024  14.504
23819W        W96079  16.103  28.465   1.232
23820W        W96080  16.695   7.269   1.363
23821W        W96081  21.098   4.342   2.335
23822W        W96082   7.767  31.605   2.332
23823W        W96083  31.091   3.916   2.745
23824W        W96084  22.217   9.203  12.387
23825W        W96085  40.509  30.089  10.890
23826W        W96086  36.394  30.575   4.779
23827W        W96087  39.332   2.892  13.821
23828W        W96088  38.964   0.405   4.814
23829W        W96089  13.157  33.538  13.992
23830W        W96090   9.338  36.407  11.054
23831W        W96091  23.643  27.589   1.758
23832W        W96092  24.051  36.084  13.921
23833W        W96093   1.238  41.988   2.789
23834W        W96094   2.423  17.270   2.275
23835W        W96095  38.930  31.537   0.334
23836W        W96096  32.577   1.832  10.905
23837W        W96097  13.682   6.727  14.021
23838W        W96098  31.419   2.894  13.512
23839W        W96099   0.291  40.808   0.371
23840W        W96100  11.751   6.377  10.134
23841W        W96101  44.865  17.299  12.081
23842W        W96102   8.265  33.035  10.567
23843W        W96103  31.645  31.054   0.422
23844W        W96104   3.315  11.172  14.366
23845W        W96105  40.798  40.002  14.784
23846W        W96106  17.780  21.248  11.560
23847W        W96107  10.803   3.305  12.035
23848W        W96108  33.046  11.248  11.053
23849W        W96109  23.685  40.510   2.770
23850W        W96110  18.730  14.658   4.144
23851W        W96111  23.551  29.625  13.983
23852W        W96112   6.917  41.454   2.178
23853W        W96113   5.231  14.144   1.758
23854W        W96114  33.574  20.113   1.442
23855W        W96115   8.275  30.472  11.989
23856W        W96116  14.644  43.899  11.555
23857W        W96117  20.662   5.743  14.395
23858W        W96118  28.044  26.618   1.269
23859W        W96119  31.075  27.953   9.946
23860W        W96120  42.012  24.134  13.497
23861W        W96121   5.807  31.025   2.395
23862W        W96122  41.814  31.028  12.542
23863W        W96123   9.208  40.897  14.495
23864W        W96124  13.165  36.863  11.387
23865W        W96125  21.638  19.118   3.267
23866W        W96126  15.248  28.502  12.574
23867W        W96127   1.893  21.058   0.867
23868W        W96128  27.507  43.915   2.267
23869W        W96129  17.601   8.696   3.719
23870W        W96130  28.151  30.574  10.933
23871W        W96131  25.162  40.338  14.011
23872W        W96132  11.645   1.887   1.793
23873W        W96133  11.237   1.281  11.096
23874W        W96134  20.059  44.476   0.464
23875W        W96135  27.447  14.812   2.783
23876W        W96136   3.947  19.182  12.540
23877W        W96137   1.924   2.765   3.690
23878W        W96138  16.136  26.529  10.104
23879W        W96139  43.482   9.189   2.858
23880W        W96140   0.383   6.877  10.429
23881W        W96141  39.462   2.471  13.840
23882W        W96142  28.968  32.614  11.548
23883W        W96143  30.052  27.079  13.796
23884W        W96144  36.037   3.763  11.939
23885W        W96145  37.524   6.750   0.858
23886W        W96146  25.026  13.707  12.036
23887W        W96147  19.537  12.627  11.011
23888W        W96148  29.658  23.092  13.485
23889W        W96149   2.296  27.512   4.152
23890W        W96150  39.992  20.272  13.991
23891W        W96151   2.276  43.924   2.246
23892W        W96152  22.160   9.250   2.244
23893W        W96153  20.614   9.761  10.424
23894W        W96154  33.130  44.811   1.802
23895W        W96155  17.067   6.212  11.079
23896W        W96156  20.536  14.118   1.814
23897W        W96157  38.862  37.382   0.274
23898W        W96158  12.788  16.783   2.289
23899W        W96159  16.766   7.866   3.728
23900W        W96160  25.181  21.656   0.773
23901W        W96161  28.170   5.242  11.551
23902W        W96162  11.371  34.045  10.894
23903W        W96163  38.420  20.710   3.699
23904W        W96164  43.975  29.584   1.290
23905W        W96165   6.279   6.834  10.937
23906W        W96166  38.936  44.925   1.319
23907W        W96167  12.347  17.583  10.891
23908W        W96168  26.063   0.339   2.702
23909W        W96169  44.371   2.403   2.836
23910W        W96170  20.541  16.801   3.781
23911W        W96171  10.211  43.807  14.329
23912W        W96172  25.644   4.210   2.884
23913W        W96173   8.745  41.356   1.725
23914W        W96174  29.159  30.559  10.965
23915W        W96175  26.050  25.610   1.821
23916W        W96176  18.199  30.437  12.059
23917W        W96177  20.140  28.678  14.505
23918W        W96178  29.996   5.772   3.310
23919W        W96179   8.767  43.895  12.019
23920W        W96180   9.275  15.651  10.901
23921W        W96181  30.659  30.647   1.357
23922W        W96182   7.376  22.703  14.891
23923W        W96183  20.597  40.491   1.856
23924W        W96184   9.727  43.356  13.914
23925W        W96185   6.898  22.080  11.567
23926W        W96186   2.796  17.190   1.880
23927W        W96187  14.148   6.676   4.708
23928W        W96188  22.745   5.273   1.210
23929W        W96189  12.214  29.483  11.538
23930W        W96190  20.766  44.282   0.761
23931W        W96191  17.676  41.326   4.298
23932W        W96192  10.196  21.709  11.482
23933W        W96193   1.237  37.578   3.840
23934W        W96194  42.784  33.407   0.741
23935W        W96195  15.232  22.036   1.369
23936W        W96196   5.393  12.231  12.918
23937W        W96197  22.124   3.944   3.636
23938W        W96198  33.910   9.734  11.017
23939W        W96199  28.991  23.643  14.428
23940W        W96200  21.710  14.163  12.849
23941W        W96201   3.745  27.526   0.349
23942W        W96202   4.918   4.767   2.869
23943W        W96203  33.610   0.931  14.318
23944W        W96204   5.779   0.484  14.377
23945W        W96205   4.244  30.100  12.992
23946W        W96206   9.322  40.918   2.235
23947W        W96207  37.385   9.697   3.804
23948W        W96208   1.255  11.159  10.432
23949W        W96209   1.328  36.064  12.558
23950W        W96210  22.551  17.117  11.568
23951W        W96211  32.558  30.094  14.377
23952W        W96212   8.399  29.068   3.192
23953W        W96213  27.965  21.157   3.274
23954W        W96214   6.293  15.755   3.146
23955W        W96215   6.393   7.240   3.323
23956W        W96216  36.919  43.511   0.898
23957W        W96217  42.954  40.482   0.458
23958W        W96218   1.373  43.334   4.813
23959W        W96219  21.756  16.567  12.078
23960W        W96220  30.647   7.789  13.533
23961W        W96221  21.164  26.666   9.988
23962W        W96222  14.737  13.208  10.533
23963W        W96223  27.944  11.314  11.100
23964W        W96224   7.879  39.556  14.016
23965W        W96225  42.306  37.373   0.892
23966W        W96226  35.093  25.580  12.495
23967W        W96227  33.497  10.633  14.391
23968W        W96228  32.516   9.657   4.273
23969W        W96229  43.869  41.354   2.358
23970W        W96230  43.871  38.554  11.053
23971W        W96231  42.367  15.260  11.600
23972W        W96232  37.579  24.135  14.912
23973W        W96233  44.836   0.283  12.891
23974W        W96234   8.164   5.370   0.905
23975W        W96235   0.320  18.270  14.949
23976W        W96236  38.348   8.324  11.054
23977W        W96237  40.313   4.845  12.455
23978W        W96238  32.478  25.544  14.355
23979W        W96239  31.120  42.353  11.963
23980W        W96240  22.029  11.283   1.751
23981W        W96241  36.936   2.877  12.085
23982W        W96242  37.992  32.110  11.988
23983W        W96243   8.673  32.406  14.010
23984W        W96244  34.880   5.837   4.166
23985W        W96245  25.697  36.423   0.406
23986W        W96246  12.323  10.870  12.528
23987W        W96247  13.275  43.934  10.577
23988W        W96248  15.323  39.944  10.644
23989W        W96249  34.404  19.629  13.477
23990W        W96250  42.909  30.951   3.834
23991W        W96251  15.638  17.657  12.390
23992W        W96252  36.460   9.720   1.895
23993W        W96253  21.018  34.489  13.319
23994W        W96254  10.248  13.657  14.311
23995W        W96255  17.280  28.116   4.702
23996W        W96256  39.392  27.976  11.123
23997W        W96257   6.330  30.951   3.855
23998W        W96258  22.069  14.773  12.013
23999W        W96259  40.459  34.103  14.983
24000W        W96260  41.986   4.352   2.706
24001W        W96261  18.208  39.996   2.731
24002W        W96262  21.610  29.977  10.632
24003W        W96263  22.029   3.303   2.259
24004W        W96264  35.603  11.785  11.862
24005W        W96265  22.061  44.305  12.930
24006W        W96266   5.712  38.013   3.221
24007W        W96267  35.422   5.742  11.533
24008W        W96268  31.439  31.011   9.951
24009W        W96269  24.537  25.028   4.814
24010W        W96270  13.331   1.322   2.806
24011W        W96271  23.642  16.657  11.961
24012W        W96272  10.243  39.975   3.718
24013W        W96273  10.286  40.330  12.883
24014W        W96274   6.895  43.817   2.715
24015W        W96275   8.318  31.935  14.976
24016W        W96276  37.970  39.864  12.471
24017W        W96277   7.867  18.172   1.302
24018W        W96278  40.442   1.316  12.505
24019W        W96279  18.625  16.665  10.502
24020W        W96280  32.005  42.861  12.472
24021W        W96281  21.158  37.579  11.901
24022W        W96282  10.696   9.702  10.893
24023W        W96283   3.401   9.225   3.224
24024W        W96284  28.053  19.052  11.117
24025W        W96285  44.272  26.959  11.014
24026W        W96286  34.484  42.443   1.287
24027W        W96287  39.982  16.129   2.277
24028W        W96288  11.260  36.878   2.761
24029W        W96289   7.341  30.948   2.213
24030W        W96290  32.909  28.044   0.884
24031W        W96291   5.340  31.585   3.849
24032W        W96292  18.635  31.081   3.731
24033W        W96293  26.521  25.664  14.468
24034W        W96294  34.925   0.985  13.935
24035W        W96295   9.734  28.633  12.461
24036W        W96296  41.999   9.804  12.026
24037W        W96297  43.434  14.712  14.515
24038W        W96298   1.340  16.638   4.116
24039W        W96299  26.129  23.191  10.524
24040W        W96300   1.272  33.432   2.888
24041W        W96301  31.639  38.476  12.931
24042W        W96302  43.463  20.750   4.779
24043W        W96303  13.709  25.108  11.075
24044W        W96304  14.193  13.193  11.972
24045W        W96305  10.240  15.102   4.801
24046W        W96306  38.362  37.966   0.259
24047W        W96307  18.702   3.307  10.548
24048W        W96308  38.531  44.862   4.821
24049W        W96309  17.079  25.513  14.506
24050W        W96310  41.438  29.075  11.467
24051W        W96311   9.802  22.251  14.484
24052W        W96312   9.770  22.639   4.194
24053W        W96313  24.989  28.666  13.438
24054W        W96314  41.455  19.570  14.012
24055W        W96315  21.056  14.322  11.539
24056W        W96316   0.464  36.438  14.987
24057W        W96317  16.094  19.682   5.240
24058W        W96318  10.778  31.011  13.348
24059W        W96319  29.946  24.639  13.312
24060W        W96320  37.864  13.625   0.400
24061W        W96321   4.421  38.062  14.404
24062W        W96322  41.293   5.436  12.047
24063W        W96323  42.945  16.223   0.833
24064W        W96324  19.684  36.920   1.343
24065W        W96325   6.308  35.532   4.633
24066W        W96326  23.014  40.869   1.215
24067W        W96327  36.412  36.433   3.798
24068W        W96328  26.082   5.726   1.215
24069W        W96329  23.612   6.284   4.291
24070W        W96330  15.215  21.087   2.691
24071W        W96331  31.514  38.494  14.317
24072W        W96332  18.173  16.703  12.022
24073W        W96333  17.148  30.007  12.931
24074W        W96334  30.435  28.139   5.261
24075W        W96335  43.320  12.156  11.581
24076W        W96336  28.561  14.763  13.326
24077W        W96337   2.403  29.596  11.039
24078W        W96338   1.904  20.262   1.783
24079W        W96339  10.147  28.598   0.863
24080W        W96340  17.169  30.479  13.473
24081W        W96341  28.521  39.390  12.511
24082W        W96342  18.129  31.102  14.914
24083W        W96343   8.202  22.169   1.296
24084W        W96344   3.445  42.372  11.544
24085W        W96345   5.241  40.430  11.497
24086W        W96346  20.584   0.831  14.903
24087W        W96347  18.066  38.992   2.878
24088W        W96348   8.180  23.219   4.165
24089W        W96349  30.511  42.010   2.830
24090W        W96350  10.309  36.030  14.831
24091W        W96351  37.442  39.336  11.482
24092W        W96352  30.529  15.307  14.463
24093W        W96353  28.020  13.320  14.370
24094W        W96354  27.122  27.045  14.960
24095W        W96355  25.654  20.244  11.007
24096W        W96356  42.007  40.432  14.023
24097W        W96357  27.003  38.466  14.761
24098W        W96358   2.875  13.625   1.443
24099W        W96359  13.637  39.547   1.363
24100W        W96360  43.849  24.185  11.467
24101W        W96361  44.459  14.227  10.048
24102W        W96362   6.777  31.636   0.843
24103W        W96363  14.119  21.019   4.119
24104W        W96364  21.532  42.467  14.290
24105W        W96365  19.733  28.468   3.367
24106W        W96366  34.980  27.474  14.856
24107W        W96367   6.701  34.033   0.340
24108W        W96368  36.472  32.047  13.887
24109W        W96369   6.676   9.755   2.698
24110W        W96370  39.999  44.828  14.903
24111W        W96371  41.942  11.827  11.418
24112W        W96372  34.042  37.489   1.445
24113W        W96373   5.801  29.137   1.229
24114W        W96374  14.290  20.628   1.698
24115W        W96375  11.817  26.064   3.170
24116W        W96376   5.216  42.389   0.886
24117W        W96377  20.667   7.716   2.353
24118W        W96378  24.599  11.745  14.497
24119W        W96379  17.594  44.375  14.324
24120W        W96380  37.845  43.875   3.349
24121W        W96381  32.116  32.468  10.999
24122W        W96382   0.438   2.838   3.819
24123W        W96383  32.912  38.425   3.689
24124W        W96384  36.949  10.164   1.245
24125W        W96385  40.451  18.677   2.903
24126W        W96386  37.838  42.512   1.848
24127W        W96387  21.110  15.778   3.306
24128W        W96388   0.957  42.007   2.686
24129W        W96389  31.418   0.975  12.928
24130W        W96390  31.500  23.494   3.262
24131W        W96391  42.486  28.181  13.491
24132W        W96392  21.549  43.514   2.316
24133W        W96393  37.512  31.468  14.867
24134W        W96394  34.581   5.852  12.562
24135W        W96395  34.908  21.672  13.915
24136W        W96396  29.582   6.235  12.939
24137W        W96397  23.533  42.510   0.901
24138W        W96398  29.655  20.635  10.484
24139W        W96399   6.264   4.369  13.506
24140W        W96400  26.488   5.290  11.902
24141W        W96401  36.979   7.392  11.045
24142W        W96402  20.193  30.063   1.804
24143W        W96403  34.388   3.758   4.671
24144W        W96404  10.343  44.374   1.290
24145W        W96405  26.472  26.075   0.741
24146W        W96406  39.866  12.177   3.172
24147W        W96407  13.299  40.517  12.353
24148W        W96408  27.100  32.119   2.198
24149W        W96409   8.378   7.197   0.825
24150W        W96410  25.022  29.961  12.498
24151W        W96411  31.994   7.790   2.747
24152W        W96412   4.907   4.788   3.638
24153W        W96413  16.663  35.874  10.523
24154W        W96414   5.384  22.118  13.057
24155W        W96415  28.184  11.838   4.276
24156W        W96416  37.003  28.447   2.214
24157W        W96417  22.093  33.594   1.323
24158W        W96418  32.921  44.797  14.439
24159W        W96419  28.967  32.917   0.442
24160W        W96420  11.706  42.461  13.954
24161W        W96421   5.411  27.177  11.886
24162W        W96422  34.540  27.169   2.697
24163W        W96423   4.248  42.827  11.413
24164W        W96424  33.604  32.467  10.953
24165W        W96425  37.860  36.443  12.484
24166W        W96426  18.247  31.017   1.328
24167W        W96427  40.530  44.810   3.778
24168W        W96428  10.668  43.846   3.653
24169W        W96429   8.844  24.575  13.405
24170W        W96430  15.643   7.194   5.261
24171W        W96431  41.327  41.976   1.298
24172W        W96432  34.971  35.861  11.517
24173W        W96433  37.348  25.510  12.014
24174W        W96434  43.449  26.570  14.281
24175W        W96435  31.987  12.720   4.795
24176W        W96436  14.198  30.016  14.993
24177W        W96437  21.051  34.993   1.856
24178W        W96438  16.586  32.923   3.664
24179W        W96439  40.349   3.724  14.425
24180W        W96440   6.819  27.535  12.436
24181W        W96441  24.134  34.435  10.950
24182W        W96442  14.143  12.119  13.901
24183W        W96443   2.290  28.104  14.900
24184W        W96444  27.161  11.711   3.863
24185W        W96445  42.891  40.425   4.627
24186W        W96446   5.321  36.082  12.830
24187W        W96447  44.275  42.389  10.909
24188W        W96448  41.521  40.948   2.663
24189W        W96449  14.753  17.604  14.992
24190W        W96450  39.833  27.070  10.409
24191W        W96451   8.675  32.531   4.235
24192W        W96452   3.267   8.849   1.863
24193W        W96453   2.937  27.156  11.448
24194W        W96454  20.199  17.582   3.653
24195W        W96455  24.707  39.858  11.946
24196W        W96456   6.864  42.877  13.053
24197W        W96457  29.932  22.996   1.365
24198W        W96458  11.865  28.114   5.121
24199W        W96459  28.978  44.867   0.285
24200W        W96460  15.151   3.808  11.065
24201W        W96461  21.674  40.798   0.836
24202W        W96462  40.936  42.438  13.962
24203W        W96463  44.900  38.008  12.566
24204W        W96464  43.919   9.808  11.529
24205W        W96465  26.186   9.725   2.773
24206W        W96466  21.721  16.579  14.384
24207W        W96467  30.075  13.113   3.243
24208W        W96468  44.770  12.351   0.761
24209W        W96469  12.210  21.066   3.284
24210W        W96470  42.376  15.271   1.704
24211W        W96471  22.504  15.177   2.887
24212W        W96472   4.718  36.981  13.506
24213W        W96473  16.145  44.260   4.215
24214W        W96474   7.887  29.086   3.175
24215W        W96475   4.295   3.296  11.109
24216W        W96476  14.594  34.884   3.764
24217W        W96477   1.851  39.418  13.854
24218W        W96478  42.367  44.829   4.286
24219W        W96479  36.384  17.095   4.665
24220W        W96480   6.791   5.215  13.976
24221W        W96481  14.212  32.123  12.558
24222W        W96482  17.688  44.390  10.072
24223W        W96483  31.985  15.646   1.282
24224W        W96484  35.507  20.673  10.522
24225W        W96485   4.354  11.855  13.434
24226W        W96486  32.011  17.736   4.837
24227W        W96487   6.895  21.101   0.749
24228W        W96488  36.965   1.880   0.914
24229W        W96489  35.916  17.266  10.936
24230W        W96490  39.959  39.463  14.285
24231W        W96491  40.435  40.803  13.431
24232W        W96492   0.890  39.941  12.027
24233W        W96493   1.364  19.259  13.433
24234W        W96494   1.367  20.081   2.843
24235W        W96495  36.347  27.047   2.773
24236W        W96496  18.107  12.130   4.291
24237W        W96497  32.084  15.681  14.018
24238W        W96498  26.573  44.810  12.523
24239W        W96499  34.401  27.474  14.423
24240W        W96500  22.575  16.622  12.975
24241W        W96501   4.323   9.803   3.681
24242W        W96502  40.459  27.502  12.552
24243W        W96503  31.072  30.936   3.195
24244W        W96504  39.459  30.633   1.788
24245W        W96505  15.298   0.784  12.047
24246W        W96506   3.366  34.376  12.341
24247W        W96507  19.258  22.084  11.963
24248W        W96508   6.897  33.992  11.042
24249W        W96509   9.669  30.616   3.690
24250W        W96510  35.942  25.653  11.398
24251W        W96511  22.544  28.991   9.963
24252W        W96512   3.439  32.562  11.532
24253W        W96513   4.874  20.056   1.874
24254W        W96514  32.400  43.286   4.136
24255W        W96515  21.246   9.211   2.307
24256W        W96516  12.136   3.411   3.748
24257W        W96517  34.452  43.514   4.836
24258W        W96518  14.268  15.684   4.778
24259W        W96519  17.722  24.505  12.439
24260W        W96520   1.415  44.277  12.959
24261W        W96521   8.841  44.463   3.834
24262W        W96522  38.344  12.258   4.819
24263W        W96523  44.888  13.741   4.255
24264W        W96524  23.083  26.165   5.734
24265W        W96525  39.526  12.136   0.821
24266W        W96526  30.105  18.261   2.754
24267W        W96527  21.186   6.840   1.316
24268W        W96528   4.846   6.794   1.851
24269W        W96529  33.984   3.889  11.884
24270W        W96530  31.083  26.657  13.809
24271W        W96531  34.482  30.461  11.100
24272W        W96532   0.824  38.868  10.006
24273W        W96533   4.277  40.883   3.198
24274W        W96534  42.009  37.849  13.961
24275W        W96535   4.812  19.545  12.063
24276W        W96536  23.674  31.459   4.626
24277W        W96537  21.553  12.267  12.391
24278W        W96538   5.900  38.369  13.448
24279W        W96539  12.261  36.006   0.748
24280W        W96540  28.089   6.196   2.340
24281W        W96541  36.983  13.301  14.947
24282W        W96542  40.839   9.861  14.002
24283W        W96543  11.720  23.180   2.396
24284W        W96544  25.015  35.879   0.472
24285W        W96545  25.995  16.282   2.669
24286W        W96546  36.029   6.732  13.401
24287W        W96547  17.647   0.414   3.707
24288W        W96548   0.889  33.572  12.888
24289W        W96549   0.782  43.454   0.285
24290W        W96550  11.185  17.068  11.570
24291W        W96551  19.219  10.857   2.264
24292W        W96552  36.458  29.119  13.355
24293W        W96553   6.739  18.673  10.973
24294W        W96554  20.592  20.554  11.593
24295W        W96555   0.430  13.332   0.457
24296W        W96556  15.654  33.548   0.367
24297W        W96557  10.642  43.346  11.487
24298W        W96558  30.132  30.508  11.468
24299W        W96559  40.370   5.766   2.670
24300W        W96560  16.185  16.588   0.871
24301W        W96561  41.445  29.954   0.340
24302W        W96562  24.549  39.928   4.625
24303W        W96563   3.758  44.450   2.324
24304W        W96564  24.025   5.210   3.181
24305W        W96565  14.709  10.381   2.405
24306W        W96566  11.710  37.551  13.474
24307W        W96567  29.162   7.381   3.337
24308W        W96568  23.175  12.127  10.988
24309W        W96569  23.513   6.711   2.405
24310W        W96570  11.737  29.487   0.347
24311W        W96571  42.465  24.089  12.391
24312W        W96572  12.135   3.769   4.238
24313W        W96573  31.081  34.095   2.708
24314W        W96574  44.818   4.378  12.456
24315W        W96575  12.752  40.899  11.870
24316W        W96576  36.554  33.069   1.302
24317W        W96577  11.738   4.813  11.899
24318W        W96578  10.723  10.212  13.446
24319W        W96579  43.438  16.655  11.077
24320W        W96580  20.238   7.849   9.959
24321W        W96581   0.341  26.519  11.537
24322W        W96582  12.801  36.390  13.476
24323W        W96583   7.222  34.511  12.493
24324W        W96584  20.766  20.199  14.887
24325W        W96585  43.846  41.986   0.423
24326W        W96586   2.448  15.267  11.985
24327W        W96587  13.774  37.075  11.868
24328W        W96588   3.740  42.324   1.445
24329W        W96589   5.869  31.527  14.016
24330W        W96590  39.005  10.324   3.168
24331W        W96591   6.864  14.748   0.452
24332W        W96592  18.285  29.454  10.486
24333W        W96593   9.883  25.603  14.985
24334W        W96594  38.846   7.695  11.111
24335W        W96595  29.078  12.782  10.918
24336W        W96596  41.483  42.398   4.153
24337W        W96597  37.549  34.473  13.313
24338W        W96598  41.854   3.448  14.334
24339W        W96599  16.258   8.372  13.820
24340W        W96600  26.037  11.666   4.734
24341W        W96601  29.567  29.548  13.003
24342W        W96602   1.477  20.072   1.404
24343W        W96603  39.470  41.901   1.439
24344W        W96604   1.416  16.635  12.029
24345W        W96605  44.913  15.753   0.925
24346W        W96606  23.680  36.876  10.962
24347W        W96607   0.362  14.193  14.342
24348W        W96608   6.405  23.057   1.253
24349W        W96609   1.897  44.322   2.299
24350W        W96610  38.023  27.063   1.868
24351W        W96611  15.618  10.748   1.273
24352W        W96612   7.774  14.273   0.752
24353W        W96613  10.281  16.727   3.631
24354W        W96614  25.070  13.314   0.364
24355W        W96615  44.277  16.233  12.548
24356W        W96616  37.068  12.281  12.580
24357W        W96617  28.023   6.828  13.958
24358W        W96618  35.951   6.185  11.022
24359W        W96619  39.890  10.318   3.723
24360W        W96620   8.831  41.419  11.964
24361W        W96621  31.952  24.661  14.987
24362W        W96622  26.123  37.473   3.707
24363W        W96623  33.383  38.448  12.557
24364W        W96624  15.103  29.433   0.408
24365W        W96625   5.217   6.799   2.292
24366W        W96626  10.213  34.999  14.974
24367W        W96627  12.203  27.592   3.865
24368W        W96628   7.273  10.876  12.005
24369W        W96629  44.860  11.346   3.209
24370W        W96630  38.409  16.194  11.506
24371W        W96631  32.018   8.292  13.388
24372W        W96632  28.592  21.158  12.547
24373W        W96633  20.537  32.955   0.872
24374W        W96634   3.767  44.456  12.020
24375W        W96635  40.024   0.309   1.294
24376W        W96636  27.631  26.009  13.871
24377W        W96637  10.157  12.644  10.484
24378W        W96638  19.151  33.568   3.337
24379W        W96639  26.149  28.505  12.054
24380W        W96640  40.914   3.361   4.805
24381W        W96641   9.199   1.329  12.029
24382W        W96642  35.415  41.849  13.848
24383W        W96643  37.507  24.979  12.093
24384W        W96644  34.380   7.722   4.608
24385W        W96645  44.892  42.312   4.349
24386W        W96646  38.390  41.482   1.753
24387W        W96647  34.420  22.541  14.307
24388W        W96648  35.954   0.280  14.465
24389W        W96649  41.039  15.641   3.832
24390W        W96650  33.563  26.595  13.397
24391W        W96651  38.006  31.964   2.274
24392W        W96652   3.907  19.080  13.901
24393W        W96653   3.356  15.698  14.989
24394W        W96654  41.043  30.461  11.903
24395W        W96655  10.292  30.448  12.496
24396W        W96656  44.438   6.279  14.511
24397W        W96657  20.523  11.251   4.788
24398W        W96658   3.357  22.563   2.715
24399W        W96659  18.197  28.015  10.990
24400W        W96660  36.096   3.933   3.740
24401W        W96661   8.826  18.773  13.035
24402W        W96662  36.518  36.527   2.831
24403W        W96663  28.447  31.910  14.454
24404W        W96664  17.586  30.132  14.818
24405W        W96665   0.981  13.764   4.304
24406W        W96666   4.440  10.752  14.316
24407W        W96667  18.231   3.800   0.317
24408W        W96668   0.778  33.608   3.795
24409W        W96669   1.262  43.315  10.551
24410W        W96670  32.913   2.358   3.237
24411W        W96671  40.549  39.481  12.879
24412W        W96672  23.167  37.399   1.766
24413W        W96673  19.206  27.183   3.288
24414W        W96674  33.979  21.134  13.891
24415W        W96675  41.363  28.050   4.297
24416W        W96676  20.768  27.464  11.050
24417W        W96677  28.508  17.757   3.785
24418W        W96678   7.292   4.698   3.822
24419W        W96679   7.836  44.821   1.236
24420W        W96680  34.071  15.617   1.790
24421W        W96681  41.854  14.796  14.369
24422W        W96682  42.870   0.742  14.007
24423W        W96683  25.008  17.796   3.339
24424W        W96684  18.255  30.447   3.676
24425W        W96685  23.550  36.010   1.817
24426W        W96686  11.806  42.477   0.871
24427W        W96687  24.649   1.274  11.902
24428W        W96688  42.791  32.617  11.094
24429W        W96689   5.853  26.055   5.804
24430W        W96690  12.814  27.177   1.246
24431W        W96691  41.384  32.442   0.845
24432W        W96692   6.420  16.128  12.427
24433W        W96693  23.587  25.620  11.376
24434W        W96694  33.929  34.593   0.818
24435W        W96695  28.931  13.284   2.688
24436W        W96696  10.147  34.491  10.914
24437W        W96697  43.278  25.690  14.356
24438W        W96698  42.946  22.030   4.821
24439W        W96699   5.688  10.719  12.460
24440W        W96700  38.823  16.132  14.478
24441W        W96701  34.494   6.320   2.752
24442W        W96702  24.045   6.914  11.544
24443W        W96703  15.263   8.803   3.658
24444W        W96704  36.938  41.954  12.861
24445W        W96705  13.156   5.896   3.832
24446W        W96706  31.933  34.005   4.168
24447W        W96707  36.019   9.300  13.896
24448W        W96708  18.222  42.285   4.158
24449W        W96709  44.759   5.397   0.915
24450W        W96710  37.578   9.335   4.816
24451W        W96711  19.122   2.849  13.412
24452W        W96712   4.744  24.721  13.863
24453W        W96713  38.561  42.817  14.934
24454W        W96714  11.725  27.532   1.353
24455W        W96715  17.300   6.907   2.187
24456W        W96716  20.248  38.960   2.824
24457W        W96717  40.963   0.373  13.518
24458W        W96718  38.559  14.607   2.337
24459W        W96719  44.468  41.451  14.422
24460W        W96720  43.293  32.597  14.796
24461W        W96721  35.063  11.779   1.266
24462W        W96722  24.672  25.633   2.714
24463W        W96723  32.476  37.936  14.004
24464W        W96724  22.084  35.564   1.414
24465W        W96725   8.222  20.721   4.250
24466W        W96726  11.163   2.438  11.916
24467W        W96727  31.441  40.844   4.724
24468W        W96728  28.574  42.524   4.662
24469W        W96729  22.219  18.141   4.197
24470W        W96730  28.967  25.573   4.651
24471W        W96731   1.347  30.501  12.460
24472W        W96732   9.154  37.364  13.828
24473W        W96733  26.616  30.643   4.120
24474W        W96734   6.866   3.429  10.545
24475W        W96735  14.244  28.041  13.879
24476W        W96736  13.625  30.145   4.202
24477W        W96737   7.251  32.621   0.318
24478W        W96738  32.934   7.274   3.164
24479W        W96739   8.293  18.238   0.948
24480W        W96740  18.736  23.159  13.421
24481W        W96741   9.288   8.243   2.850
24482W        W96742  23.212   9.710   2.256
24483W        W96743  25.995   2.282  11.598
24484W        W96744  44.447  18.789   0.373
24485W        W96745   1.803   9.168   2.381
24486W        W96746  38.076  17.574   0.793
24487W        W96747  41.992  25.047  12.342
24488W        W96748  36.042  44.416  14.347
24489W        W96749  10.657  36.961   3.760
24490W        W96750  37.968  38.373  14.425
24491W        W96751  18.214  44.011   3.308
24492W        W96752  43.953   0.333   0.924
24493W        W96753  29.458  41.455   5.103
24494W        W96754   8.666  33.596   2.883
24495W        W96755  23.221  41.842  12.374
24496W        W96756  32.099  31.644  12.343
24497W        W96757   8.238  31.564  10.979
24498W        W96758  17.218  33.989  12.573
24499W        W96759  30.994  31.504  12.061
24500W        W96760  36.911  17.067  13.373
24501W        W96761  43.990   6.373  11.612
24502W        W96762  28.454  17.153  11.413
24503W        W96763  23.664   3.745  14.399
24504W        W96764  33.002  32.528   3.828
24505W        W96765  17.732   2.256  12.970
24506W        W96766  27.653   6.383   3.723
24507W        W96767   5.899  34.397   4.793
24508W        W96768  13.599  14.148  12.848
24509W        W96769  15.097  21.581   2.195
24510W        W96770  36.466  31.416  13.815
24511W        W96771  18.206  38.873   4.705
24512W        W96772   9.730  11.218   4.239
24513W        W96773  28.600  11.779  13.404
24514W        W96774  43.426   7.215   4.310
24515W        W96775  44.825   2.470  10.568
24516W        W96776  22.587   2.797   3.677
24517W        W96777  42.980  31.622  11.436
24518W        W96778  33.553  21.227   3.294
24519W        W96779  26.073  12.621   4.658
24520W        W96780  19.540   6.685  12.457
24521W        W96781  21.647  24.156   2.396
24522W        W96782  10.248  27.683  13.998
24523W        W96783  12.229  41.388   4.144
24524W        W96784  43.402  42.464  11.923
24525W        W96785  15.746  40.410   5.201
24526W        W96786  18.233  12.183  14.021
24527W        W96787  30.990  34.869  14.028
24528W        W96788  13.334  10.325   2.765
24529W        W96789  12.342  28.111   9.491
24530W        W96790  32.584  39.355   2.312
24531W        W96791  24.538  26.547   3.285
24532W        W96792  11.652  20.651   0.334
24533W        W96793   0.772  39.501  14.998
24534W        W96794  20.118   1.872  12.365
24535W        W96795   5.296  13.295   0.940
24536W        W96796  44.798  22.640   4.645
24537W        W96797  17.252  22.692  10.633
24538W        W96798  40.384  13.168  13.896
24539W        W96799   5.812   5.273   2.880
24540W        W96800  12.185   8.768   1.891
24541W        W96801   0.972  41.292   1.736
24542W        W96802  38.948  20.641  11.965
24543W        W96803  34.424  15.116  11.981
24544W        W96804   1.890  31.532  13.015
24545W        W96805  28.622  20.656  10.989
24546W        W96806  36.017  43.377  13.372
24547W        W96807   5.923  20.641  11.066
24548W        W96808  19.156   3.871  11.903
24549W        W96809  18.752  18.138   3.163
24550W        W96810  41.345  31.502  13.038
24551W        W96811  14.788  11.359  12.971
24552W        W96812  23.649  12.308   2.272
24553W        W96813   9.292  17.097   0.343
24554W        W96814  41.831  21.521   2.406
24555W        W96815   8.755   8.261   2.900
24556W        W96816  44.430  31.504  14.926
24557W        W96817  39.560  10.656  11.999
24558W        W96818   9.214  18.549  11.377
24559W        W96819  26.047  22.689   3.811
24560W        W96820   5.360  40.456  12.015
24561W        W96821  11.830  33.935  10.553
24562W        W96822  12.641  32.468  12.012
24563W        W96823   1.251  23.641   2.271
24564W        W96824  30.647  44.804   4.836
24565W        W96825   0.439  44.305  11.065
24566W        W96826  42.440  11.170  12.943
24567W        W96827  23.598   5.288   1.925
24568W        W96828  38.908  28.450   1.396
24569W        W96829  42.363  37.044  14.005
24570W        W96830  21.666  28.607  12.089
24571W        W96831  40.996  13.667  12.075
24572W        W96832  39.382   6.680   4.783
24573W        W96833   5.408   4.846   4.826
24574W        W96834  44.271  43.300   1.227
24575W        W96835   7.757   9.800   2.250
24576W        W96836  44.798  29.087  13.991
24577W        W96837  23.637   5.230   3.228
24578W        W96838  21.040  24.189  14.330
24579W        W96839   3.795  17.694  12.889
24580W        W96840  21.738  24.058  12.878
24581W        W96841  18.160  24.105  14.425
24582W        W96842  13.834  20.751   3.347
24583W        W96843  26.456  11.320  10.554
24584W        W96844  43.458  26.178  13.520
24585W        W96845  27.024   6.789  14.414
24586W        W96846  23.625  20.698   0.360
24587W        W96847   6.760  20.752   0.923
24588W        W96848   0.943  35.591   0.315
24589W        W96849   2.737  41.461   2.208
24590W        W96850  27.683  15.600   2.842
24591W        W96851  30.099  39.826  12.845
24592W        W96852  14.207  33.590   3.265
24593W        W96853  40.899  26.556  11.520
24594W        W96854  32.963  14.610   3.294
24595W        W96855  19.773  41.873   3.743
24596W        W96856  36.023  42.833   2.815
24597W        W96857   3.292  43.927   1.844
24598W        W96858  28.170  33.014   3.861
24599W        W96859  15.807  31.095  14.889
24600W        W96860  12.734  34.026   0.470
24601W        W96861  42.015  30.937   3.232
24602W        W96862  28.474  43.344   4.227
24603W        W96863  10.733  38.827  11.373
24604W        W96864  13.347  42.830  14.836
24605W        W96865  19.609  37.343  12.366
24606W        W96866  31.064  25.965  11.611
24607W        W96867   5.701  14.797   2.335
24608W        W96868  12.151  35.942  14.822
24609W        W96869  15.761  29.553   0.845
24610W        W96870  26.039  22.610   0.279
24611W        W96871  36.015  12.167   0.828
24612W        W96872  33.069  12.660   2.825
24613W        W96873   5.909  26.077  13.541
24614W        W96874  14.198  23.192  12.035
24615W        W96875  13.351  14.255   1.352
24616W        W96876  20.617  12.702   3.172
24617W        W96877  17.211  37.503  10.907
24618W        W96878   8.755   5.866  14.896
24619W        W96879   5.755   1.762   2.376
24620W        W96880  36.535  43.017   4.614
24621W        W96881  32.081  18.189  11.480
24622W        W96882  43.914   5.769   1.907
24623W        W96883  19.763  31.056   1.903
24624W        W96884  34.448  32.021   3.182
24625W        W96885   2.915  35.959   0.824
24626W        W96886  27.484  43.514  12.488
24627W        W96887  20.241   8.404   3.348
24628W        W96888   0.802  19.629  10.025
24629W        W96889  30.102  17.752  13.461
24630W        W96890  33.081  19.198  13.500
24631W        W96891  36.097  14.796  12.966
24632W        W96892  16.266  30.101  14.854
24633W        W96893  17.143  23.540   0.932
24634W        W96894  37.447  27.552   2.262
24635W        W96895   2.467  27.589   1.375
24636W        W96896   2.852  37.349   2.707
24637W        W96897  28.554  21.720   2.377
24638W        W96898  28.494  11.199   1.778
24639W        W96899  32.047  28.070  10.404
24640W        W96900  31.005  21.095   1.432
24641W        W96901  25.157  14.132  10.576
24642W        W96902  27.478  15.820  14.426
24643W        W96903  36.449  44.363   1.304
24644W        W96904  25.199  33.061  12.546
24645W        W96905  23.165  11.732  14.992
24646W        W96906  23.521  20.548   2.737
24647W        W96907  12.779  14.252  14.917
24648W        W96908  32.555   5.732  13.922
24649W        W96909  43.855   3.353   2.718
24650W        W96910  22.728   4.705  10.099
24651W        W96911  37.488  23.196   1.291
24652W        W96912  28.954  36.950   0.405
24653W        W96913  13.658  14.621   4.649
24654W        W96914   4.412  32.483   0.732
24655W        W96915   9.782  20.075   0.355
24656W        W96916  33.616  23.596  13.985
24657W        W96917   8.344  43.939   2.310
24658W        W96918  24.533  39.993  10.635
24659W        W96919  27.682  32.974   3.817
24660W        W96920  41.863  43.822  13.883
24661W        W96921  27.043  28.526   1.439
24662W        W96922   6.814  11.689   4.740
24663W        W96923  40.044  10.235  11.927
24664W        W96924  28.501  35.906  14.463
24665W        W96925  13.615  12.318   1.349
24666W        W96926  22.030  35.435   0.956
24667W        W96927  15.191  10.801  11.380
24668W        W96928  35.434  14.609  11.919
24669W        W96929  28.142  26.690   5.230
24670W        W96930  23.118  22.104  11.461
24671W        W96931  12.189  36.482  11.583
24672W        W96932  15.252  27.100   0.469
24673W        W96933  13.284  40.538   2.243
24674W        W96934  38.502   1.926   3.238
24675W        W96935   9.744  37.873  13.311
24676W        W96936  19.567  44.980   4.141
24677W        W96937  25.103  30.510  11.483
24678W        W96938  35.081  35.442  13.935
24679W        W96939   8.782  37.983   3.287
24680W        W96940  37.444  24.486   1.924
24681W        W96941  38.044  34.505  14.908
24682W        W96942   6.386  25.564   1.361
24683W        W96943  12.170   5.811  10.500
24684W        W96944  18.630  44.444  10.106
24685W        W96945  27.072   1.747   4.795
24686W        W96946   3.806  18.719  13.907
24687W        W96947  32.626  39.894   3.677
24688W        W96948  42.446  16.173   4.245
24689W        W96949  25.075  39.349  11.084
24690W        W96950  34.405   3.275  10.460
24691W        W96951   9.249  11.743  13.991
24692W        W96952   5.227  13.619  14.960
24693W        W96953   0.891  37.535   1.789
24694W        W96954   5.871  17.795   0.414
24695W        W96955  18.058  22.177  14.448
24696W        W96956  15.619   1.475   2.666
24697W        W96957  33.431   9.180  12.380
24698W        W96958  34.505  16.204   1.401
24699W        W96959  41.503  34.950   0.330
24700W        W96960  43.498  18.684  10.144
24701W        W96961   7.775   9.251  11.046
24702W        W96962  20.169  27.508  10.945
24703W        W96963  41.924   7.714  14.957
24704W        W96964  31.041  15.267  11.574
24705W        W96965  13.754  12.267   4.157
24706W        W96966  18.225  34.440   4.759
24707W        W96967  19.275  24.609  10.550
24708W        W96968  42.796  25.985  14.296
24709W        W96969   3.903   3.790   4.308
24710W        W96970  31.495  15.646   1.874
24711W        W96971  19.670  20.729   2.227
24712W        W96972  22.727  33.414  11.430
24713W        W96973  19.157  18.600  10.452
24714W        W96974  15.626  22.598   3.805
24715W        W96975  44.358  42.775   2.835
24716W        W96976  24.643  27.589   1.350
24717W        W96977   5.767   4.429  10.420
24718W        W96978  19.240  22.572   2.306
24719W        W96979  44.877   2.810   4.708
24720W        W96980  33.625  17.281   0.741
24721W        W96981  33.058  44.473   4.292
24722W        W96982   6.388  18.550  10.933
24723W        W96983   9.764  30.642  13.522
24724W        W96984  34.114  25.521  12.481
24725W        W96985  40.383  41.034   4.236
24726W        W96986  30.976   6.785   3.665
24727W        W96987  30.493   2.381   3.815
24728W        W96988  17.597  27.582   0.908
24729W        W96989  18.270   7.267  10.958
24730W        W96990  33.583   5.704   3.732
24731W        W96991  29.056  21.158   2.220
24732W        W96992  23.097  23.552   3.277
24733W        W96993  20.719  39.447   3.263
24734W        W96994   6.695   2.266   1.780
24735W        W96995  29.594  18.619   2.318
24736W        W96996  25.041  24.580  12.062
24737W        W96997   0.773  22.126  11.459
24738W        W96998  25.043  19.260   1.288
24739W        W96999  39.850  27.111   4.747
24740W        W97000  34.022  10.709   1.425
24741W        W97001  37.928  23.029   2.896
24742W        W97002   4.217  35.084   2.222
24743W        W97003  27.587  38.924  10.900
24744W        W97004  13.703   8.289   0.462
24745W        W97005  32.537   2.318  14.353
24746W        W97006   8.184  42.527  14.481
24747W        W97007  26.154   9.237   3.155
24748W        W97008   4.283  28.058  10.001
24749W        W97009  37.368  15.651  11.439
24750W        W97010  43.317   9.198  10.592
24751W        W97011   5.798  13.209  12.010
24752W        W97012  18.666   5.882   2.819
24753W        W97013  43.933  36.507   2.248
24754W        W97014  19.656  38.525  14.356
24755W        W97015   8.343   7.901  14.405
24756W        W97016   9.356  35.038   0.341
24757W        W97017  31.899   9.305   3.644
24758W        W97018  31.061   8.226   3.382
24759W        W97019  43.285  38.878  12.524
24760W        W97020  37.894   7.771  14.934
24761W        W97021   7.798  31.406  13.518
24762W        W97022  21.203  44.986  14.504
24763W        W97023  44.772  20.744  10.493
24764W        W97024  14.116  27.191  10.935
24765W        W97025  20.625  25.702  12.528
24766W        W97026   0.881  12.156  10.902
24767W        W97027  17.569  26.008   2.801
24768W        W97028  24.061  29.650  14.354
24769W        W97029  28.155   5.250  13.828
24770W        W97030  21.757  20.051   0.876
24771W        W97031  41.040   1.452  11.485
24772W        W97032  17.174  44.273  14.335
24773W        W97033  19.572  44.959  13.009
24774W        W97034  23.573  31.643   3.747
24775W        W97035  26.204  10.867   4.287
24776W        W97036  15.607  13.776   2.186
24777W        W97037  39.436  29.514   4.155
24778W        W97038  28.615  44.279   1.836
24779W        W97039  13.226  25.662   3.674
24780W        W97040  29.003  22.195  13.007
24781W        W97041   0.925   8.336  14.999
24782W        W97042  21.032  28.075   3.855
24783W        W97043  39.393   3.447   0.775
24784W        W97044  14.128   3.923  10.512
24785W        W97045  16.240  44.420  11.517
24786W        W97046  41.356   1.831   0.294
24787W        W97047   1.365   5.815   1.340
24788W        W97048  16.147  10.298   3.380
24789W        W97049  13.696  12.626  10.993
24790W        W97050   5.839  17.724   2.757
24791W        W97051  31.001   9.818  11.050
24792W        W97052  30.999  21.586  14.767
24793W        W97053  16.099  14.807   4.655
24794W        W97054   3.814  20.090   0.397
24795W        W97055   7.338  44.871  10.914
24796W        W97056  26.183   6.782  11.485
24797W        W97057  42.366  40.470   2.738
24798W        W97058  21.088  21.025  12.519
24799W        W97059  33.993  14.687   0.773
24800W        W97060  20.648  15.286   1.215
24801W        W97061   4.729  12.772  11.589
24802W        W97062   4.852  31.141   2.705
24803W        W97063  36.432  33.417   1.742
24804W        W97064   1.940  18.267   0.342
24805W        W97065   1.968   3.417   0.837
24806W        W97066  35.010  16.661   1.812
24807W        W97067   1.338  32.948  13.401
24808W        W97068   9.353  36.515   2.812
24809W        W97069  29.033  41.986  14.952
24810W        W97070   0.282  11.679  12.071
24811W        W97071  37.050  19.749  14.498
24812W        W97072  35.852   0.824   0.475
24813W        W97073   3.458  17.637  10.918
24814W        W97074  26.197   9.787  10.958
24815W        W97075  11.697  14.268   0.358
24816W        W97076  30.618   3.775  14.428
24817W        W97077  36.982   8.754  12.967
24818W        W97078   6.824  21.685   2.872
24819W        W97079  13.199  34.900   3.329
24820W        W97080  29.567   2.418  11.481
24821W        W97081  38.982  18.670   0.313
24822W        W97082  23.594  43.905  13.898
24823W        W97083   4.250  25.197   2.835
24824W        W97084   0.323  25.677   2.786
24825W        W97085  22.618  42.366  11.103
24826W        W97086  14.703   7.854  10.889
24827W        W97087  17.685  43.277  12.930
24828W        W97088  14.315  23.497  13.942
24829W        W97089  38.874   7.859  13.898
24830W        W97090   9.879  38.893   0.442
24831W        W97091   0.334  16.280   2.238
24832W        W97092  22.998   3.782  10.522
24833W        W97093  29.626  12.220   0.357
24834W        W97094  30.064  16.192   0.850
24835W        W97095  20.032  18.176  14.787
24836W        W97096   9.312   5.928   0.422
24837W        W97097  42.969  36.558  14.805
24838W        W97098  21.716  25.122  11.060
24839W        W97099  30.466  22.613  10.505
24840W        W97100  39.438  25.974   1.401
24841W        W97101  30.962  15.238   4.629
24842W        W97102   9.791  17.101  12.001
24843W        W97103  42.385   1.908  10.476
24844W        W97104  16.735  36.387   1.420
24845W        W97105   4.849  11.356   0.859
24846W        W97106   2.908   9.818   1.367
24847W        W97107  26.006  33.547  12.991
24848W        W97108  38.938  19.237   0.322
24849W        W97109  27.636  15.582   1.773
24850W        W97110   4.730  19.662   2.813
24851W        W97111  12.667  29.572  12.857
24852W        W97112   0.940   3.426   5.219
24853W        W97113  25.164  17.709  13.880
24854W        W97114  13.797  29.437   2.850
24855W        W97115  36.514  14.617   2.268
24856W        W97116   2.727  15.582   2.680
24857W        W97117  10.848  13.291  12.968
24858W        W97118  30.933  37.527   5.189
24859W        W97119  38.543  35.528   0.730
24860W        W97120  33.123   6.833  11.438
24861W        W97121  26.528  42.950  14.924
24862W        W97122   2.922  41.928  14.014
24863W        W97123  30.945  32.013  12.859
24864W        W97124   9.857  40.372  11.860
24865W        W97125  24.598  32.973  10.888
24866W        W97126  26.546  34.482  10.918
24867W        W97127  42.796  34.596  13.442
24868W        W97128  11.249  42.492   3.706
24869W        W97129  43.867   8.775   2.320
24870W        W97130  18.206  32.402   4.311
24871W        W97131  41.989  31.132  12.082
24872W        W97132  43.423  40.507   4.626
24873W        W97133  20.200  35.905   3.648
24874W        W97134  14.734  44.287   4.741
24875W        W97135  19.251   7.266  11.952
24876W        W97136  13.689  33.880  10.517
24877W        W97137  33.493   3.215  11.461
24878W        W97138  38.819  39.044   4.225
24879W        W97139  11.744   5.771   2.883
24880W        W97140  23.151  43.495   4.825
24881W        W97141  35.406  28.098  12.499
24882W        W97142  16.233  24.076   3.152
24883W        W97143  32.460  13.268   3.274
24884W        W97144  35.873   1.788  10.994
24885W        W97145  33.924  24.056  10.405
24886W        W97146  41.354  29.017   0.814
24887W        W97147   8.327  27.111   4.601
24888W        W97148  12.341  21.719   4.160
24889W        W97149   2.964  34.949   4.326
24890W        W97150   9.314   5.310  14.490
24891W        W97151  11.334  40.957   4.166
24892W        W97152  13.128  37.505   1.904
24893W        W97153  42.817   9.835   4.328
24894W        W97154   0.470   6.377  13.825
24895W        W97155  36.001  36.854   3.274
24896W        W97156  38.057  35.097   4.717
24897W        W97157   3.718  34.615   4.297
24898W        W97158  13.666   7.824  11.931
24899W        W97159  39.915  36.024   1.344
24900W        W97160  26.975  39.917   5.614
24901W        W97161  22.543  33.582   1.835
24902W        W97162   9.661  42.442   1.721
24903W        W97163  23.510  44.922   4.144
24904W        W97164  14.598   3.231   0.288
24905W        W97165  42.811  19.095   4.140
24906W        W97166   4.304  28.459  13.038
24907W        W97167  29.007  27.124  13.433
24908W        W97168  32.411  31.019   1.422
24909W        W97169  23.029  21.681  13.501
24910W        W97170  36.452   1.789  10.530
24911W        W97171   2.815  21.599  11.542
24912W        W97172  37.953  32.036   1.698
24913W        W97173  19.113  25.514  10.967
24914W        W97174  10.283  32.433  12.359
24915W        W97175  13.235  29.611   0.934
24916W        W97176  27.570  37.067  11.929
24917W        W97177  36.443   8.674   3.852
24918W        W97178  44.997  18.765   1.343
24919W        W97179   9.222  15.134   2.357
24920W        W97180  40.363   7.908  10.594
24921W        W97181  34.409  28.641   4.258
24922W        W97182  26.558  14.297  12.479
24923W        W97183   8.895  29.490  14.457
24924W        W97184  10.763  29.545   3.270
24925W        W97185   1.835  44.260   2.812
24926W        W97186  44.942  26.690  12.443
24927W        W97187  25.058  37.551  13.539
24928W        W97188  20.725  24.508  13.841
24929W        W97189  14.723  11.277   4.676
24930W        W97190  42.872  35.521  11.557
24931W        W97191  44.443  43.846  12.361
24932W        W97192   3.865  24.541   0.318
24933W        W97193  32.006  22.189  10.051
24934W        W97194  20.530   6.788   1.707
24935W        W97195  36.033  31.027   1.739
24936W        W97196  31.054  21.665   2.844
24937W        W97197  14.649  25.046   5.237
24938W        W97198  22.536  25.508   4.318
24939W        W97199   6.393  15.262  12.380
24940W        W97200   0.961   3.757  11.925
24941W        W97201  40.544  32.947   3.640
24942W        W97202  42.801  25.174   4.168
24943W        W97203  37.512  24.099   1.237
24944W        W97204  26.649  16.125   4.172
24945W        W97205  33.592  35.020   1.428
24946W        W97206  18.159   1.477  14.974
24947W        W97207  13.816  26.588  14.278
24948W        W97208  13.629  28.158   2.351
24949W        W97209  29.618  18.707   5.121
24950W        W97210  12.704  27.680  13.909
24951W        W97211  22.184   8.265   4.178
24952W        W97212  42.011   1.808  10.562
24953W        W97213  35.958  12.746  11.020
24954W        W97214   2.232   2.934   3.657
24955W        W97215  24.057  16.086  14.433
24956W        W97216  10.150  11.344  14.974
24957W        W97217  22.023  14.768  13.342
24958W        W97218  43.274  41.945   2.671
24959W        W97219   0.969  15.115   2.232
24960W        W97220  15.105   5.373   0.282
24961W        W97221  21.757  35.536  11.891
24962W        W97222  16.226  32.574   1.431
24963W        W97223  43.857   4.367   1.270
24964W        W97224  35.093  24.617   1.732
24965W        W97225  39.382  19.641  12.892
24966W        W97226  33.117   8.711  13.319
24967W        W97227   4.936  33.452  11.592
24968W        W97228  38.872  14.251   2.890
24969W        W97229   0.985  21.549  11.045
24970W        W97230   7.799   0.856   2.233
24971W        W97231  26.683   9.286   1.367
24972W        W97232  30.529  10.250  13.790
24973W        W97233  13.733  36.415  13.006
24974W        W97234  20.207  39.533   4.770
24975W        W97235  21.563  36.491   4.334
24976W        W97236  28.170   8.810   1.336
24977W        W97237   9.257  10.343  14.358
24978W        W97238  21.110  28.931  13.004
24979W        W97239   8.302  31.629  12.462
24980W        W97240  26.995  13.643   1.733
24981W        W97241  24.672   2.812  11.964
24982W        W97242  39.497   2.806  10.428
24983W        W97243  38.446   0.810  13.457
24984W        W97244  31.135  38.940   2.787
24985W        W97245  33.582  42.523   4.703
24986W        W97246  38.347   9.197   1.265
24987W        W97247  26.035  29.020  14.464
24988W        W97248  20.636  23.220  10.483
24989W        W97249  33.490   8.284   4.204
24990W        W97250  42.943  15.263   0.917
24991W        W97251  43.370  41.808  13.000
24992W        W97252   0.833  10.655   3.186
24993W        W97253  24.083  23.106  13.508
24994W        W97254  11.656  40.311  10.904
24995W        W97255  13.152   6.386   1.931
24996W        W97256  32.885  32.570  12.091
24997W        W97257  29.107   1.391   4.302
24998W        W97258  38.833  10.758   2.767
24999W        W97259   7.809  24.185   0.892
25000W        W97260  20.564  44.353  10.590
25001W        W97261   4.230  38.056   2.401
25002W        W97262  43.820  19.104  12.060
25003W        W97263  32.501  28.931  14.351
25004W        W97264  17.160  24.538   3.797
25005W        W97265   1.325  14.821   0.843
25006W        W97266  11.202  44.266   2.230
25007W        W97267   5.830  19.587   4.236
25008W        W97268  31.153  40.872  14.447
25009W        W97269  25.687  24.630   4.229
25010W        W97270  29.572  39.917  11.126
25011W        W97271  29.633  19.136   3.843
25012W        W97272   9.246  29.640   1.704
25013W        W97273   4.329  13.731   1.830
25014W        W97274  16.614  37.373  10.581
25015W        W97275  31.084  19.130   0.835
25016W        W97276   9.387   3.940  10.458
25017W        W97277  31.556  12.241   2.815
25018W        W97278  41.822   4.706   1.723
25019W        W97279  21.064  16.668  14.350
25020W        W97280   4.412  13.819  11.122
25021W        W97281  39.543   3.410  11.518
25022W        W97282  28.136  12.820  14.992
25023W        W97283   9.773   7.321  14.934
25024W        W97284  39.515  14.113  12.375
25025W        W97285   1.905  24.611  11.895
25026W        W97286  42.896   4.800   0.947
25027W        W97287  11.774  15.120  14.402
25028W        W97288  42.312  41.819  10.466
25029W        W97289   7.267  35.895  13.371
25030W        W97290  31.544   7.693   1.369
25031W        W97291  20.104  39.514  11.607
25032W        W97292  39.825  25.179   1.225
25033W        W97293  37.011   5.284  14.382
25034W        W97294  14.121  36.581  11.027
25035W        W97295  44.264  17.793   1.790
25036W        W97296  43.352   1.432   3.636
25037W        W97297   2.779   3.216  13.307
25038W        W97298  42.402  27.019   3.161
25039W        W97299   1.782  30.162  12.837
25040W        W97300  31.571  22.631  14.853
25041W        W97301  43.979  17.143   2.216
25042W        W97302   3.303   2.355   1.329
25043W        W97303  22.553  19.246   2.312
25044W        W97304  30.566  26.548  12.370
25045W        W97305  39.851   3.714  12.060
25046W        W97306  32.050  33.112  12.553
25047W        W97307  43.825  17.795  11.495
25048W        W97308  14.719  22.197   2.263
25049W        W97309  32.956  44.974  13.505
25050W        W97310   4.285  35.878   2.272
25051W        W97311  24.720  20.083  10.614
25052W        W97312  12.136  26.457  11.895
25053W        W97313  17.669  35.943  11.891
25054W        W97314  44.454   2.963   1.240
25055W        W97315  14.249  20.648  14.963
25056W        W97316   9.870  26.981  12.986
25057W        W97317  38.504  21.152   1.788
25058W        W97318  11.310  41.855   3.383
25059W        W97319  14.719  41.486   4.822
25060W        W97320   7.666  36.374   0.947
25061W        W97321   8.746  22.221   2.831
25062W        W97322   9.185  32.894   3.629
25063W        W97323  40.991   9.802  10.581
25064W        W97324  13.617   3.355   4.306
25065W        W97325  33.402  36.549  14.512
25066W        W97326  40.032  16.639  14.913
25067W        W97327  23.611  10.650  13.004
25068W        W97328  18.699  36.924  11.464
25069W        W97329   7.270  13.319   1.352
25070W        W97330   3.357  10.289  11.592
25071W        W97331  15.308  41.998  14.986
25072W        W97332  22.171  34.085   2.236
25073W        W97333  39.046  20.117   1.274
25074W        W97334  36.547  18.247   2.326
25075W        W97335   2.763  18.595   2.869
25076W        W97336  15.229  39.981  14.916
25077W        W97337  30.011  35.107  14.452
25078W        W97338   1.872  24.620   4.307
25079W        W97339  10.341   3.937   4.651
25080W        W97340   4.939  34.468  10.558
25081W        W97341  40.320  18.195  12.944
25082W        W97342  28.062  42.013  12.471
25083W        W97343  15.737   9.829  11.433
25084W        W97344   0.484   4.213  14.317
25085W        W97345  23.155   3.921   2.239
25086W        W97346  40.335  43.823  10.425
25087W        W97347  19.719  20.706  10.572
25088W        W97348  12.143  17.297   0.483
25089W        W97349  15.179  37.010   4.250
25090W        W97350  11.750  35.361   0.406
25091W        W97351   8.795  37.010   3.762
25092W        W97352   4.772  35.511  14.497
25093W        W97353  25.169   7.893   3.378
25094W        W97354   2.818  20.258   1.922
25095W        W97355   8.716  29.170  13.486
25096W        W97356   1.895  15.105  12.457
25097W        W97357  28.487  14.706  14.486
25098W        W97358  44.293  33.401   3.304
25099W        W97359  18.113  33.576   2.684
25100W        W97360   7.854  40.393  11.567
25101W        W97361  25.537  33.543  12.483
25102W        W97362  27.623  32.518  14.319
25103W        W97363  37.932   7.769   0.285
25104W        W97364  40.939  28.166  10.502
25105W        W97365  10.698  23.703   1.361
25106W        W97366  19.598  24.633   0.847
25107W        W97367   9.166   6.883  14.484
25108W        W97368   2.466  32.945   4.634
25109W        W97369   8.727  11.815   2.316
25110W        W97370  10.165  35.970  12.944
25111W        W97371   1.252  23.645   3.247
25112W        W97372  19.174  44.302  14.917
25113W        W97373  24.681  12.716   4.327
25114W        W97374  33.101  25.530  12.561
25115W        W97375  30.614   2.743  11.924
25116W        W97376  33.904   3.298   3.379
25117W        W97377  25.121  23.163  14.949
25118W        W97378  28.619  21.072   1.385
25119W        W97379  23.721  33.980   0.816
25120W        W97380   3.919  22.132   0.961
25121W        W97381  22.212   3.368   1.862
25122W        W97382  22.238  20.543   2.339
25123W        W97383  36.513   7.819   5.122
25124W        W97384   7.206  21.709   0.843
25125W        W97385  44.487  35.362  12.963
25126W        W97386  32.997  11.781  13.529
25127W        W97387  26.079   9.873  12.540
25128W        W97388  38.946  14.616   0.435
25129W        W97389   5.729   8.227  10.512
25130W        W97390  18.649   4.815  10.057
25131W        W97391   3.319   4.816   1.363
25132W        W97392  21.234  14.706  14.024
25133W        W97393  42.473  23.191  14.006
25134W        W97394  11.152  21.234  12.917
25135W        W97395  22.080  14.238  12.439
25136W        W97396   6.791  12.841  10.514
25137W        W97397  21.546  42.440  13.495
25138W        W97398  40.831  14.268   0.337
25139W        W97399   2.877  34.520  11.046
25140W        W97400  11.744  32.983  13.861
25141W        W97401  37.425  23.634  12.849
25142W        W97402  33.093  20.116   3.330
25143W        W97403  21.112  40.933  11.006
25144W        W97404  31.419  29.074   2.731
25145W        W97405  36.928  28.483   0.453
25146W        W97406  22.156  39.546   4.232
25147W        W97407  17.237  13.331  14.901
25148W        W97408  42.828   4.770   1.727
25149W        W97409  14.106  19.603   0.727
25150W        W97410  17.285   6.685  12.344
25151W        W97411  44.438   6.292   1.322
25152W        W97412   6.845  43.315  11.891
25153W        W97413  40.539   5.742   4.168
25154W        W97414  17.685  30.446   0.272
25155W        W97415  14.277  30.080  10.010
25156W        W97416   5.355  23.522   4.706
25157W        W97417  42.489  29.994  10.479
25158W        W97418  34.522  20.146  12.424
25159W        W97419  44.849  20.266   0.777
25160W        W97420   2.412   0.961   0.738
25161W        W97421  37.951  33.075  12.891
25162W        W97422  44.930  36.592   2.671
25163W        W97423  32.896  27.526  13.816
25164W        W97424  11.838   7.665  11.010
25165W        W97425  34.391  35.404   3.826
25166W        W97426  12.844  28.468   4.688
25167W        W97427  14.826  35.007  13.397
25168W        W97428   7.349  34.081  10.569
25169W        W97429   9.779  44.771   0.855
25170W        W97430   3.424  37.408   4.336
25171W        W97431  39.425  13.652   4.202
25172W        W97432  15.666  39.879  14.276
25173W        W97433  39.333   1.773   1.410
25174W        W97434  26.161  23.216   0.902
25175W        W97435  15.119  16.079   3.377
25176W        W97436  10.777  35.964  12.491
25177W        W97437  42.381  28.445  11.011
25178W        W97438  26.039  42.285   5.642
25179W        W97439   0.745   1.388   2.674
25180W        W97440  29.648  20.678   1.741
25181W        W97441  43.984  39.893   4.282
25182W        W97442  10.655   8.364   1.291
25183W        W97443  38.348  15.287  10.996
25184W        W97444  42.947  35.008   5.208
25185W        W97445  35.586  40.980   2.225
25186W        W97446  41.517  40.877   2.198
25187W        W97447  41.904  22.559   5.175
25188W        W97448  26.492  23.168   0.825
25189W        W97449  29.665  16.774  13.034
25190W        W97450  15.229  41.981  13.897
25191W        W97451  36.926   0.966  12.953
25192W        W97452   1.885   8.167  13.430
25193W        W97453  28.627  14.191  13.399
25194W        W97454   0.750  36.466  12.884
25195W        W97455  37.876   4.880  11.033
25196W        W97456  34.007   6.873   2.411
25197W        W97457  13.830  15.744   5.242
25198W        W97458  33.930  31.037   4.239
25199W        W97459  33.566  42.322   1.398
25200W        W97460   5.333  19.274   3.731
25201W        W97461   9.719  26.143   4.642
25202W        W97462  12.746  36.548   0.389
25203W        W97463  11.638  24.478   1.405
25204W        W97464  39.503   2.273   4.141
25205W        W97465  12.187  13.298  11.906
25206W        W97466  12.228  14.604  11.572
25207W        W97467  25.541  31.148  13.436
25208W        W97468  43.285  40.018   3.793
25209W        W97469   5.223  12.811   2.295
25210W        W97470  30.483  20.077   1.217
25211W        W97471  27.591  41.423   0.456
25212W        W97472  39.473  34.008  10.888
25213W        W97473  30.145   3.903  13.539
25214W        W97474   7.321   6.391   2.799
25215W        W97475  33.009   9.202   4.224
25216W        W97476  42.522  14.805  11.456
25217W        W97477  12.201  42.336   1.745
25218W        W97478  24.718  36.347  11.042
25219W        W97479  19.597  32.583   3.783
25220W        W97480  27.668   1.875   2.252
25221W        W97481  39.346   8.371   3.846
25222W        W97482  11.798  30.559   2.738
25223W        W97483  27.580  44.348  10.993
25224W        W97484  21.555  14.291   1.842
25225W        W97485  14.238  17.171   0.761
25226W        W97486  12.843  29.064   3.757
25227W        W97487  42.427  14.726  14.464
25228W        W97488  41.914  24.147   3.228
25229W        W97489   8.667   8.887   1.239
25230W        W97490  35.014  30.605   0.781
25231W        W97491   0.816  22.178  10.507
25232W        W97492  20.571  16.624   4.775
25233W        W97493   6.747   9.335   1.438
25234W        W97494  39.986  40.987  12.573
25235W        W97495  14.338   1.340  13.347
25236W        W97496  28.589   7.364   1.900
25237W        W97497  18.690   8.191  13.829
25238W        W97498  39.010  26.541   5.298
25239W        W97499   1.407  31.977   3.165
25240W        W97500  32.954  29.000   1.397
25241W        W97501  28.663  23.545   1.330
25242W        W97502  31.087  22.573   2.867
25243W        W97503  21.524  41.924   4.806
25244W        W97504  43.313  22.219  10.457
25245W        W97505   8.870   0.285   2.322
25246W        W97506  43.849   5.265  13.404
25247W        W97507  36.449  37.886  14.967
25248W        W97508  31.585   5.215  11.375
25249W        W97509  44.336   3.863  14.380
25250W        W97510  21.249   0.464   0.955
25251W        W97511  41.869  22.083  12.970
25252W        W97512  16.748   3.870  11.030
25253W        W97513  10.159  14.183  14.006
25254W        W97514  28.543  33.601   1.339
25255W        W97515  25.552  15.771  14.828
25256W        W97516  28.066  32.092  10.414
25257W        W97517  41.464  31.602   2.817
25258W        W97518   7.836  21.083  14.446
25259W        W97519  14.704  16.234  14.802
25260W        W97520   3.218   9.377  14.782
25261W        W97521  42.834  31.900  12.349
25262W        W97522  39.879   2.927   3.356
25263W        W97523  14.220  22.195   0.397
25264W        W97524  10.751  11.221   2.181
25265W        W97525  35.983  38.865   0.957
25266W        W97526  26.173  36.375   0.801
25267W        W97527  39.032  31.129   1.902
25268W        W97528  23.725  21.644  12.463
25269W        W97529  31.560   0.914  13.985
25270W        W97530  41.861  16.228  12.859
25271W        W97531  30.626   3.438   1.214
25272W        W97532   6.383  37.908   4.730
25273W        W97533  32.605  16.651   0.855
25274W        W97534  33.078   8.848  11.026
25275W        W97535  30.162  37.030   4.291
25276W        W97536  17.189  33.956   3.755
25277W        W97537   1.276  39.347  14.954
25278W        W97538  40.311  44.332  14.821
25279W        W97539  16.135   7.750   4.770
25280W        W97540  42.941  35.374  12.833
25281W        W97541  18.778  28.121  11.033
25282W        W97542   1.928   6.815  11.541
25283W        W97543  25.660  24.124  14.453
25284W        W97544   8.866  19.048  14.383
25285W        W97545  44.910   9.352   1.873
25286W        W97546  35.525  20.555  14.984
25287W        W97547  30.636  17.649   3.248
25288W        W97548  11.654  10.687  14.922
25289W        W97549   5.807  12.361   0.884
25290W        W97550  25.640  35.865  11.479
25291W        W97551  34.113   9.308  11.942
25292W        W97552  38.480  37.568  11.564
25293W        W97553  18.146  34.892  14.775
25294W        W97554   5.418  44.807  12.416
25295W        W97555  44.760  25.085  12.960
25296W        W97556  26.590  37.391   1.444
25297W        W97557  36.981   9.165   9.988
25298W        W97558  37.038  26.666  14.981
25299W        W97559  43.791  37.438  12.881
25300W        W97560  12.124  16.247  10.420
25301W        W97561   1.368  34.566  11.442
25302W        W97562  14.107   6.831   1.263
25303W        W97563  25.478  39.483   2.228
25304W        W97564  37.848   1.419   2.860
25305W        W97565   7.332  40.894  12.002
25306W        W97566  32.094   4.939   1.910
25307W        W97567  24.976   0.430   1.385
25308W        W97568  36.357  31.966  12.449
25309W        W97569  41.030  40.878   1.309
25310W        W97570  13.348  27.554   0.940
25311W        W97571  29.979  13.127  14.410
25312W        W97572  28.182  18.181  10.072
25313W        W97573  25.497   7.865  11.496
25314W        W97574  44.823   8.899   0.440
25315W        W97575  18.085  22.132  12.028
25316W        W97576  28.517   2.251   3.366
25317W        W97577   5.404  32.391   2.760
25318W        W97578  29.084  25.492   2.887
25319W        W97579  39.319   5.868   0.860
25320W        W97580  12.659   9.250  11.535
25321W        W97581  17.660   2.326  11.440
25322W        W97582  19.540  17.193   2.246
25323W        W97583  31.415  22.683   4.598
25324W        W97584   6.321  11.625   3.738
25325W        W97585   7.332  26.167  10.014
25326W        W97586  10.173  41.463   2.257
25327W        W97587  42.929  26.975  13.341
25328W        W97588  36.389  23.129  12.562
25329W        W97589  22.096   0.845  10.440
25330W        W97590  42.008   2.443  11.004
25331W        W97591  35.510  43.445   3.768
25332W        W97592  30.463  27.192  13.890
25333W        W97593  41.528  33.471  10.430
25334W        W97594  21.135  38.008   1.216
25335W        W97595  21.183  16.075   2.406
25336W        W97596  15.594  23.507   0.784
25337W        W97597  10.170  23.043   4.707
25338W        W97598  36.911  34.914  12.569
25339W        W97599  41.304  43.965   3.254
25340W        W97600  35.050  11.219  11.958
25341W        W97601  39.423  29.536   1.872
25342W        W97602  18.286  29.504   4.239
25343W        W97603  20.040   0.843  13.809
25344W        W97604  36.512   7.844  11.477
25345W        W97605  36.582  27.508   1.796
25346W        W97606  42.813  29.492   3.176
25347W        W97607   2.306   7.273  12.965
25348W        W97608  32.101  23.552  14.429
25349W        W97609  25.038  31.114  11.580
25350W        W97610  25.691  28.633  13.507
25351W        W97611   9.765  33.036   1.235
25352W        W97612   6.789  11.216  14.995
25353W        W97613  26.489  18.721  12.939
25354W        W97614  24.665  22.017  11.073
25355W        W97615  32.045  39.489  13.949
25356W        W97616  15.309  40.341  13.056
25357W        W97617  42.909   4.372   2.393
25358W        W97618  15.809   5.759  10.001
25359W        W97619  42.980  13.351   5.221
25360W        W97620   1.431  21.061  12.554
25361W        W97621  11.327  15.745   2.884
25362W        W97622   0.946  19.242   2.725
25363W        W97623  38.898  39.814   4.160
25364W        W97624  39.844  13.755   2.857
25365W        W97625  43.832  13.624   0.432
25366W        W97626   0.902  31.104  14.004
25367W        W97627  25.146  19.187   0.907
25368W        W97628  13.625  28.579  11.064
25369W        W97629  17.621  43.357   1.844
25370W        W97630   5.265  42.010   3.237
25371W        W97631  17.137  20.526  14.373
25372W        W97632  15.115   0.753   1.239
25373W        W97633  16.696  29.616  14.982
25374W        W97634   9.368  42.928  13.517
25375W        W97635  10.364  41.853  12.041
25376W        W97636  12.644  19.224   1.230
25377W        W97637  25.677  38.025   0.456
25378W        W97638   0.346  36.916  14.403
25379W        W97639  12.185  34.964  13.477
25380W        W97640   6.315  29.086  10.412
25381W        W97641  13.109  15.578  12.528
25382W        W97642  44.911  41.344  10.920
25383W        W97643   7.885  11.138   1.280
25384W        W97644   1.788  20.731  13.814
25385W        W97645  36.477  34.421   4.653
25386W        W97646  41.939  32.391   2.843
25387W        W97647  18.093  25.481  13.987
25388W        W97648  23.593  18.277  12.520
25389W        W97649   2.401  44.306  13.946
25390W        W97650  33.584   3.777  11.944
25391W        W97651  22.720  19.237   1.348
25392W        W97652  26.175  28.977   0.316
25393W        W97653  29.621  23.646  14.017
25394W        W97654   7.365  11.676   0.824
25395W        W97655  33.583  30.949  10.605
25396W        W97656   4.774  34.409   0.842
25397W        W97657  27.174  13.147   2.807
25398W        W97658  12.736  18.207  14.454
25399W        W97659   2.325  25.553   3.160
25400W        W97660  20.199  15.201   1.314
25401W        W97661  23.668  23.632   3.852
25402W        W97662  32.067  28.072   3.684
25403W        W97663  26.962  21.106  10.410
25404W        W97664  16.261   9.857  11.107
25405W        W97665  44.895  44.497   0.755
25406W        W97666   7.348  27.573  11.436
25407W        W97667  42.792   5.228   3.200
25408W        W97668  31.967  15.191  12.861
25409W        W97669  41.011  25.570   1.920
25410W        W97670  13.227  42.411   2.190
25411W        W97671  23.200  42.374  11.526
25412W        W97672  16.102  36.470  10.479
25413W        W97673  44.447   2.256   1.885
25414W        W97674  25.183  26.963  10.996
25415W        W97675  41.846   5.892   1.754
25416W        W97676  28.179  23.100  13.528
25417W        W97677  16.573   3.792   3.706
25418W        W97678  25.498  16.584   4.342
25419W        W97679  34.429  29.604  14.936
25420W        W97680  14.105  28.561  14.294
25421W        W97681  11.140  30.473   2.753
25422W        W97682  39.361  23.116   0.339
25423W        W97683   9.263  34.092   0.761
25424W        W97684  43.853   0.875  10.510
25425W        W97685  18.160  38.879  12.445
25426W        W97686  26.194  20.623   4.678
25427W        W97687  41.474   6.851   0.457
25428W        W97688   5.403  24.030  10.888
25429W        W97689  39.484  14.271  13.447
25430W        W97690  29.426   7.301   3.252
25431W        W97691  36.961  34.589  13.029
25432W        W97692  19.044  27.488   1.754
25433W        W97693  17.590  30.027   1.217
25434W        W97694  13.149  42.889  12.470
25435W        W97695  26.164  10.213  11.581
25436W        W97696  37.848  19.535   0.919
25437W        W97697  21.244  36.895   4.653
25438W        W97698  16.303  31.493  14.306
25439W        W97699  10.867  42.490   2.703
25440W        W97700  11.223  31.630  13.824
25441W        W97701  34.105  34.872  11.591
25442W        W97702  34.572   4.212  13.517
25443W        W97703  25.474  44.485  13.911
25444W        W97704  37.420  11.283   4.630
25445W        W97705  10.656   9.248  11.592
25446W        W97706  36.493  25.576  12.973
25447W        W97707  21.171  32.001   9.949
25448W        W97708   9.724  17.760   0.900
25449W        W97709  13.192   4.275   3.784
25450W        W97710  43.946   0.944  12.475
25451W        W97711  21.073   4.913  14.378
25452W        W97712  25.209  26.638   0.407
25453W        W97713  16.594  27.477   4.129
25454W        W97714   4.298   8.399   1.423
25455W        W97715  21.109  40.454  11.924
25456W        W97716  38.921  12.219   0.268
25457W        W97717   4.802   7.233   1.708
25458W        W97718  11.324  31.057  13.322
25459W        W97719  37.537  38.376   4.713
25460W        W97720   0.754  33.383  14.408
25461W        W97721  29.919  31.132  14.986
25462W        W97722  31.068  15.688   3.783
25463W        W97723   1.807  27.520   0.858
25464W        W97724  41.956   1.865  11.056
25465W        W97725  30.563  17.603  14.403
25466W        W97726  25.555  41.862   0.941
25467W        W97727  20.555  17.802  14.824
25468W        W97728  17.230  39.544   0.893
25469W        W97729   4.713  18.153   9.947
25470W        W97730  37.447   1.836  13.931
25471W        W97731  12.255   7.844  11.103
25472W        W97732   1.825  27.687   0.288
25473W        W97733  38.532  28.127   4.649
25474W        W97734  42.512  26.025   2.303
25475W        W97735  20.711  36.001  11.610
25476W        W97736  38.029  12.227   4.342
25477W        W97737  35.900  17.723  12.947
25478W        W97738  31.069  43.866   4.257
25479W        W97739  16.696  20.138   3.779
25480W        W97740   3.929  31.598   2.693
25481W        W97741  35.087   6.716   0.848
25482W        W97742   7.313   3.311  11.948
25483W        W97743  12.153   2.232   0.918
25484W        W97744   0.363   1.366  14.334
25485W        W97745  18.056  11.718  12.564
25486W        W97746  25.044  36.495   1.908
25487W        W97747  12.621   9.303  14.310
25488W        W97748  40.344  30.984  14.931
25489W        W97749  30.515  13.719  12.857
25490W        W97750  16.300   3.222  11.594
25491W        W97751  41.026  32.046  12.380
25492W        W97752  13.790   2.728   2.861
25493W        W97753  42.353   1.248   0.291
25494W        W97754  26.166   8.736  10.603
25495W        W97755  30.058  32.909  14.314
25496W        W97756  10.713  13.192   0.792
25497W        W97757  17.598  25.133  12.905
25498W        W97758   4.777  28.613  10.024
25499W        W97759  41.293  33.943   2.314
25500W        W97760   6.282  33.388  12.963
25501W        W97761  13.629   4.214   0.865
25502W        W97762  20.761  23.167   1.450
25503W        W97763  13.116  36.419   1.922
25504W        W97764  27.117  12.808   1.715
25505W        W97765   5.282  10.280   1.800
25506W        W97766  25.985   2.807  14.322
25507W        W97767  33.950  38.527   3.267
25508W        W97768  38.930  27.624  10.597
25509W        W97769   6.286  39.823  10.428
25510W        W97770   4.819   0.769  12.524
25511W        W97771  29.024  21.188  11.892
25512W        W97772  43.486  42.426  11.048
25513W        W97773   2.834  33.992  11.908
25514W        W97774  22.031  16.133   3.793
25515W        W97775  11.861  30.536   4.835
25516W        W97776  26.059  22.627   1.898
25517W        W97777   0.799  27.154   4.118
25518W        W97778  35.553  27.055   3.371
25519W        W97779  43.356  36.078   0.478
25520W        W97780  13.137  28.183  11.125
25521W        W97781  16.181  43.500  14.417
25522W        W97782   2.858  34.013   3.332
25523W        W97783   1.850  20.078   1.240
25524W        W97784  44.836  20.672  13.010
25525W        W97785  13.817  37.891  12.970
25526W        W97786  18.167   5.804  11.952
25527W        W97787  39.330  11.805   4.184
25528W        W97788  32.573  26.616  13.435
25529W        W97789  19.265   8.211  12.423
25530W        W97790  41.842   3.322   4.307
25531W        W97791  35.075  17.631   1.772
25532W        W97792  29.591  16.137  14.917
25533W        W97793  15.622  36.908   0.736
25534W        W97794  11.350   6.906  14.441
25535W        W97795  41.488  43.949  12.826
25536W        W97796  38.859  21.214  14.406
25537W        W97797   1.460  35.510  10.453
25538W        W97798  22.031  15.748   4.765
25539W        W97799  31.633  16.803  12.952
25540W        W97800   3.286   1.804   1.780
25541W        W97801  38.048  42.921   2.842
25542W        W97802   3.218  39.453  13.902
25543W        W97803   5.297   2.863  13.815
25544W        W97804   1.890  17.605   4.325
25545W        W97805   9.667   2.821  14.001
25546W        W97806  38.479  19.223   4.331
25547W        W97807  39.381   7.221  11.892
25548W        W97808  24.099  16.080  10.505
25549W        W97809  23.223  14.618   0.447
25550W        W97810   1.888  20.217  13.975
25551W        W97811  22.682  23.217   0.958
25552W        W97812  40.391  28.436  11.939
25553W        W97813  15.821  28.137   4.228
25554W        W97814  24.538   5.830  12.943
25555W        W97815  20.196   9.872  13.474
25556W        W97816  22.600  21.619   5.769
25557W        W97817  43.848  41.011  12.913
25558W        W97818  13.838  36.909   2.814
25559W        W97819  35.029  15.282   3.724
25560W        W97820  19.723  44.878   3.726
25561W        W97821  15.803  34.458  13.954
25562W        W97822  35.981  11.147   1.384
25563W        W97823  20.188  13.747  10.955
25564W        W97824  31.061  15.112   1.386
25565W        W97825   4.450   9.804  14.504
25566W        W97826  12.713  36.020   2.266
25567W        W97827  37.350  31.603   0.926
25568W        W97828   3.755  19.190   2.363
25569W        W97829  36.921  16.181   2.759
25570W        W97830   5.377  18.748   4.808
25571W        W97831  22.686  40.925  14.951
25572W        W97832  22.066  18.632  11.515
25573W        W97833   8.897  21.183   2.280
25574W        W97834  13.338  24.112   1.699
25575W        W97835  15.176  23.242   1.851
25576W        W97836  20.739  43.449   1.802
25577W        W97837  36.529  41.370  11.022
25578W        W97838  43.933  16.636   4.746
25579W        W97839  34.487  28.038   0.301
25580W        W97840  16.758  39.485   2.410
25581W        W97841  37.954  33.077  10.958
25582W        W97842  15.216  35.024   0.758
25583W        W97843   3.947  24.626  13.064
25584W        W97844   1.921  17.101  12.844
25585W        W97845  44.008  25.012  14.501
25586W        W97846  34.423  13.312   2.708
25587W        W97847  17.645  11.261   2.737
25588W        W97848  43.335  25.062  11.404
25589W        W97849  41.939  19.699  11.515
25590W        W97850  12.844   2.396   3.298
25591W        W97851   2.960  36.004  13.830
25592W        W97852  26.657  41.909   1.777
25593W        W97853  39.000  13.293   3.352
25594W        W97854  37.404  44.862  14.303
25595W        W97855  21.233  41.370  12.871
25596W        W97856  13.340  28.153  10.531
25597W        W97857  29.015  30.454   2.357
25598W        W97858  24.202  29.925   4.696
25599W        W97859   1.900   5.306   1.298
25600W        W97860  44.987  31.634  10.985
25601W        W97861  29.590  10.229  12.920
25602W        W97862  35.083  33.557  11.372
25603W        W97863  17.098  33.936  11.105
25604W        W97864   3.859  44.802   2.861
25605W        W97865  37.061  12.740   1.710
25606W        W97866  23.144   4.772  12.512
25607W        W97867  32.937  11.306   1.359
25608W        W97868  41.032  15.286   2.836
25609W        W97869  16.611  34.535  10.943
25610W        W97870  44.914  31.614  13.307
25611W        W97871   7.307  34.498  10.444
25612W        W97872  25.630   1.394   4.187
25613W        W97873  34.406   8.279   0.745
25614W        W97874  13.651  12.260   3.758
25615W        W97875  42.353   1.465  12.054
25616W        W97876  10.335  15.197  13.852
25617W        W97877  34.393  13.619  14.375
25618W        W97878   1.251  31.111   0.786
25619W        W97879  17.577  43.795  10.415
25620W        W97880  29.995  20.595  10.538
25621W        W97881  15.585  14.295   4.736
25622W        W97882  38.394   9.827  11.958
25623W        W97883   7.352  21.569  13.475
25624W        W97884  31.115   6.846   3.188
25625W        W97885  14.133  29.960  13.394
25626W        W97886  44.983  41.793  11.943
25627W        W97887  40.034  42.794  12.833
25628W        W97888  39.855   7.805   2.368
25629W        W97889  13.326  20.203  14.425
25630W        W97890  44.895   2.742  14.760
25631W        W97891  41.342  42.318   4.652
25632W        W97892  43.864  31.932  14.407
25633W        W97893  18.692  14.748  10.901
25634W        W97894  34.900  26.676  14.471
25635W        W97895   5.383  26.068  11.885
25636W        W97896  10.722  14.284  12.982
25637W        W97897   8.815   0.301  13.925
25638W        W97898  29.586  25.188   2.772
25639W        W97899  26.058  44.812  14.396
25640W        W97900   3.760  28.929   3.351
25641W        W97901  42.418  14.217  12.423
25642W        W97902   3.783  35.445   4.179
25643W        W97903  11.675   2.451   1.405
25644W        W97904  14.137  23.991  14.455
25645W        W97905   6.688  17.098  13.504
25646W        W97906  19.759  40.382  10.416
25647W        W97907  36.035  15.740   4.341
25648W        W97908  34.950  34.414   3.809
25649W        W97909   4.397  36.443   3.665
25650W        W97910  19.221  26.107  13.399
25651W        W97911  29.570   7.856   2.771
25652W        W97912   4.248  21.755   1.315
25653W        W97913   0.832  22.705  13.847
25654W        W97914  36.465  32.971  13.516
25655W        W97915  28.070   5.762   3.658
25656W        W97916  32.592  10.222  12.882
25657W        W97917   4.420  42.322  13.446
25658W        W97918  24.535   4.750  11.007
25659W        W97919   6.913  22.653  13.907
25660W        W97920  37.854   8.875   5.203
25661W        W97921   2.261  37.025   2.779
25662W        W97922  41.416  25.124   1.277
25663W        W97923  39.997  31.094   1.745
25664W        W97924   7.403  19.595  14.893
25665W        W97925  37.008  15.727   2.714
25666W        W97926  17.631  44.297   0.964
25667W        W97927  10.745  24.658  14.826
25668W        W97928  32.619  24.003  10.558
25669W        W97929   8.165  34.952  11.966
25670W        W97930  16.790  21.139   3.748
25671W        W97931  17.188  33.950   4.322
25672W        W97932  42.330  21.525  10.572
25673W        W97933  26.553  22.084  13.396
25674W        W97934   5.324  36.028   3.341
25675W        W97935  23.578  36.994   4.160
25676W        W97936  35.989  27.998   5.231
25677W        W97937  23.634  39.380   3.148
25678W        W97938  10.798  27.626  13.807
25679W        W97939  35.398  30.145   3.270
25680W        W97940  14.101  22.513  13.943
25681W        W97941   6.881   4.305  14.360
25682W        W97942   2.919  12.282  11.958
25683W        W97943  18.148  36.952   1.438
25684W        W97944  27.941  13.279   2.222
25685W        W97945  16.098  34.532  11.980
25686W        W97946  25.663  36.077  11.890
25687W        W97947  24.053   0.426  14.904
25688W        W97948   9.245  22.512  14.780
25689W        W97949   0.406  44.472  14.427
25690W        W97950  10.801   1.357   0.934
25691W        W97951  18.133   0.771   1.400
25692W        W97952  12.270  25.526   0.929
25693W        W97953  18.089   3.300   4.622
25694W        W97954  31.993   7.858  11.076
25695W        W97955  43.505   9.303   1.416
25696W        W97956  13.769  32.422  11.950
25697W        W97957   8.701  32.597   1.883
25698W        W97958   5.238  43.505   1.834
25699W        W97959  26.650  31.452  13.351
25700W        W97960  19.252  36.993  11.945
25701W        W97961  10.147  28.052  12.956
25702W        W97962  26.647  28.018  14.817
25703W        W97963  12.181   6.209   3.256
25704W        W97964  27.614   2.742  13.437
25705W        W97965  30.160   9.263  12.473
25706W        W97966  18.293  41.900  12.972
25707W        W97967  25.035  39.497  14.987
25708W        W97968  41.849  40.878  10.891
25709W        W97969  24.704  13.842  12.984
25710W        W97970   2.455  29.650  12.348
25711W        W97971  16.697  13.842  13.816
25712W        W97972  29.572  20.626   1.402
25713W        W97973   1.748  12.758   0.284
25714W        W97974   4.717  24.183   0.316
25715W        W97975   4.919  17.587  12.969
25716W        W97976  26.108  33.929   2.694
25717W        W97977  20.719  34.574   4.757
25718W        W97978  41.911  23.155   1.445
25719W        W97979  25.672  39.478  14.998
25720W        W97980  19.071  22.059  10.575
25721W        W97981  38.543  37.836   1.309
25722W        W97982  43.840   6.209  14.982
25723W        W97983  30.998  30.432  14.323
25724W        W97984  33.572  24.489   2.257
25725W        W97985  22.541  14.219   0.729
25726W        W97986   5.211   6.676   3.788
25727W        W97987  19.537  14.300  13.801
25728W        W97988  23.576  33.396  10.574
25729W        W97989  30.018  23.639   0.393
25730W        W97990  17.584  36.953  14.381
25731W        W97991  16.812   3.756  12.421
25732W        W97992   7.206   4.286   2.280
25733W        W97993  44.281  43.373   0.929
25734W        W97994  33.940  22.060  13.825
25735W        W97995   1.423  19.153   4.164
25736W        W97996  11.174  28.019  11.581
25737W        W97997   2.301  30.941  11.994
25738W        W97998  42.801  36.054   0.898
25739W        W97999  10.188  28.104  12.045
25740W        W98000  24.556  42.995   5.139
25741W        W98001  40.321  13.705  13.963
25742W        W98002  38.949   5.199   4.293
25743W        W98003   6.752  32.915  14.277
25744W        W98004  26.112  44.936   1.710
25745W        W98005  43.291  43.021   0.483
25746W        W98006  39.392   7.793   4.788
25747W        W98007   1.467  43.396  14.015
25748W        W98008  39.442   9.201   5.733
25749W        W98009  34.370  33.000   1.399
25750W        W98010  24.674  11.791   0.355
25751W        W98011  16.249  39.006   3.290
25752W        W98012  21.145  42.807   3.668
25753W        W98013  24.226  17.185  11.567
25754W        W98014  31.003  36.499  11.444
25755W        W98015  14.219  40.955  12.448
25756W        W98016  18.094  41.859  10.444
25757W        W98017  31.147  30.546   4.279
25758W        W98018  38.331   3.411   0.375
25759W        W98019  24.649  44.907   3.356
25760W        W98020  40.370  14.645   4.747
25761W        W98021  30.108  24.229  14.471
25762W        W98022  39.918  31.609   1.394
25763W        W98023  18.272  26.539   1.811
25764W        W98024   5.228  22.660  12.972
25765W        W98025  20.581  28.182  12.407
25766W        W98026  30.999  15.292  14.949
25767W        W98027  15.710  35.570  10.952
25768W        W98028   2.460   2.862  12.827
25769W        W98029  20.211  38.896   0.926
25770W        W98030   8.196  42.377   1.814
25771W        W98031  33.555  13.602   2.199
25772W        W98032   4.712  38.058   1.902
25773W        W98033   9.243  23.717   9.999
25774W        W98034  38.939  41.029  14.942
25775W        W98035  24.172   0.365   2.248
25776W        W98036  37.964   8.239   1.441
25777W        W98037  13.760  13.257  14.910
25778W        W98038  27.465  29.942  10.071
25779W        W98039  19.251  28.583   3.181
25780W        W98040  25.135   3.276   2.419
25781W        W98041   4.435  24.102  13.413
25782W        W98042  29.139  32.135   3.730
25783W        W98043  34.585   7.782   0.874
25784W        W98044  27.972  20.213   4.744
25785W        W98045  39.400  39.358   4.203
25786W        W98046  13.755  14.156   3.715
25787W        W98047  11.331  36.556   3.149
25788W        W98048  18.594  34.441  11.855
25789W        W98049  15.704  13.296  13.378
25790W        W98050  23.588  20.527   2.417
25791W        W98051  23.493   5.808   3.382
25792W        W98052  22.044  13.141  11.873
25793W        W98053  16.604  34.925   0.309
25794W        W98054   7.219  18.266  13.347
25795W        W98055  15.094  24.128  12.367
25796W        W98056  14.252  39.492   2.766
25797W        W98057  33.509  32.452   0.741
25798W        W98058   9.314  21.621  12.077
25799W        W98059  39.815  41.406  11.479
25800W        W98060  16.651  23.500  11.875
25801W        W98061   1.871  37.341   3.275
25802W        W98062   2.836  33.595  12.523
25803W        W98063  40.034  33.601  14.323
25804W        W98064  33.524   2.341   3.802
25805W        W98065   7.866  28.524  11.918
25806W        W98066  11.852  17.200  10.023
25807W        W98067  29.521  17.165  13.390
25808W        W98068  38.354  37.468  12.379
25809W        W98069  38.864  39.899   5.164
25810W        W98070   4.445  29.596  14.887
25811W        W98071   5.282  42.925   4.731
25812W        W98072   7.407  25.587   2.182
25813W        W98073  26.965  12.266   1.789
25814W        W98074  32.635   7.337   1.722
25815W        W98075  38.533   8.885   1.290
25816W        W98076  24.479  39.545   1.865
25817W        W98077  30.598   2.466   2.392
25818W        W98078  11.782   6.849   2.725
25819W        W98079  29.546   3.244   2.302
25820W        W98080  25.647  31.938  14.998
25821W        W98081  34.478  37.962   0.425
25822W        W98082  24.490   4.366   2.309
25823W        W98083  35.030  38.430   2.780
25824W        W98084   6.735  44.308  13.882
25825W        W98085  29.993  36.050   1.724
25826W        W98086  31.610  14.163  11.575
25827W        W98087  42.867  28.570  12.383
25828W        W98088  23.193  15.665   1.778
25829W        W98089  44.440  21.597  10.048
25830W        W98090  34.924  12.198  14.354
25831W        W98091  31.485  10.288   2.284
25832W        W98092  37.009  18.290  14.379
25833W        W98093   7.874  36.478  12.568
25834W        W98094  20.036  13.640  10.421
25835W        W98095  15.099  28.053  13.415
25836W        W98096   0.932  14.714  10.921
25837W        W98097  11.816  39.387  13.926
25838W        W98098  10.183   1.463  11.986
25839W        W98099  42.500  42.432   4.304
25840W        W98100  27.640  40.901   0.911
25841W        W98101  21.182   3.216   4.183
25842W        W98102   5.423  35.413   0.407
25843W        W98103  27.535  41.847  14.809
25844W        W98104  23.113  23.130  12.455
25845W        W98105   6.311   0.342  14.018
25846W        W98106  13.214  25.569  10.639
25847W        W98107  28.048   1.940   2.251
25848W        W98108   0.912   1.402   1.740
25849W        W98109  37.856   5.872   3.696
25850W        W98110  32.043  13.198  13.966
25851W        W98111  42.950  29.590   4.722
25852W        W98112  15.185  38.420  14.844
25853W        W98113  19.679   4.448  13.534
25854W        W98114   6.426  10.319   2.763
25855W        W98115  17.702  13.813   4.625
25856W        W98116  30.118   2.885   2.663
25857W        W98117  22.124  21.161   2.863
25858W        W98118   9.698  43.498   2.364
25859W        W98119   8.709  34.106  11.890
25860W        W98120  20.186  35.416  12.399
25861W        W98121  26.457  24.551  13.399
25862W        W98122   4.391  22.152  13.520
25863W        W98123  26.702  44.267   3.685
25864W        W98124  31.460  13.778   4.706
25865W        W98125   5.367   9.330   3.386
25866W        W98126  40.546  12.654  12.054
25867W        W98127  12.207   6.705   0.938
25868W        W98128  43.490  16.598   0.843
25869W        W98129  24.628   2.932   1.398
25870W        W98130   5.274  29.449  13.425
25871W        W98131  20.591  21.709  11.916
25872W        W98132   6.364   8.724   0.246
25873W        W98133   4.339  26.086   0.836
25874W        W98134  36.592  18.284  12.436
25875W        W98135  41.425  43.945   4.621
25876W        W98136  11.652  43.901  12.440
25877W        W98137  44.408   6.716  10.161
25878W        W98138  35.091   4.288  10.613
25879W        W98139  37.963  22.658   1.430
25880W        W98140  30.009  37.346   4.275
25881W        W98141  33.101   4.804  11.110
25882W        W98142   0.374   7.364  13.392
25883W        W98143   8.813  33.502  10.103
25884W        W98144   2.331  31.566   2.703
25885W        W98145   3.309  11.678   3.768
25886W        W98146  24.518  25.666   0.918
25887W        W98147  21.583  29.968   4.351
25888W        W98148  14.680  29.169  10.126
25889W        W98149  11.304  21.527   1.307
25890W        W98150  21.751  20.151  13.870
25891W        W98151  21.148  29.964   4.313
25892W        W98152  13.809  34.061   1.872
25893W        W98153  44.494  17.756   1.293
25894W        W98154   4.353  31.607   1.297
25895W        W98155  27.050  25.186  13.019
25896W        W98156  40.994  32.020  10.122
25897W        W98157  37.948   4.439  10.611
25898W        W98158  15.577  28.633   1.399
25899W        W98159  43.468  25.164   1.308
25900W        W98160  24.021  43.436  11.929
25901W        W98161   5.696  31.408   3.788
25902W        W98162  40.321   4.780   9.978
25903W        W98163  17.748  39.369   0.832
25904W        W98164  31.599  31.084   2.330
25905W        W98165  13.607  36.500  12.391
25906W        W98166  17.106  17.092   1.715
25907W        W98167  16.149   0.271  10.548
25908W        W98168   0.906  41.332   0.827
25909W        W98169  29.028  16.207  13.393
25910W        W98170  44.504  38.536  13.873
25911W        W98171  35.582  44.347  13.792
25912W        W98172  16.774  34.046   0.755
25913W        W98173  30.127  21.175  12.345
25914W        W98174  40.346  25.643  10.569
25915W        W98175  17.154  25.547   0.939
25916W        W98176  20.254  36.416  13.852
25917W        W98177  25.509  41.929   5.189
25918W        W98178  17.631  10.638   1.757
25919W        W98179  28.552   6.328   2.678
25920W        W98180  39.384  43.016  12.576
25921W        W98181  39.996  29.502  14.918
25922W        W98182  35.052  29.930   2.369
25923W        W98183  29.002  16.647   0.821
25924W        W98184  17.159  43.773  14.419
25925W        W98185  25.590  14.267   2.227
25926W        W98186   1.792  18.259  13.352
25927W        W98187  40.414  32.633   1.729
25928W        W98188  25.048  14.212  10.917
25929W        W98189   6.255  29.569  12.531
25930W        W98190  20.712  38.500   0.849
25931W        W98191  11.771  21.051   3.793
25932W        W98192  10.714   5.381   4.125
25933W        W98193  10.141  36.896  13.488
25934W        W98194  44.948   7.701   1.771
25935W        W98195  43.476  32.405   4.160
25936W        W98196  17.227  40.004   0.302
25937W        W98197  26.099   3.426  13.461
25938W        W98198   9.174  36.461   0.813
25939W        W98199  25.573  37.457  11.894
25940W        W98200   0.787  12.165  10.555
25941W        W98201  34.575  43.947   4.747
25942W        W98202   1.371  28.110  10.584
25943W        W98203   7.235  24.720   4.344
25944W        W98204   2.946  43.312   0.398
25945W        W98205  26.018  19.126   3.718
25946W        W98206  21.263  31.414   0.374
25947W        W98207  14.121  13.252   1.784
25948W        W98208  14.611  41.415  13.547
25949W        W98209  28.540  39.331  13.937
25950W        W98210  33.403   5.290   3.658
25951W        W98211  28.556  27.009   2.832
25952W        W98212   5.861  42.316  14.822
25953W        W98213  19.276   0.450  12.475
25954W        W98214  44.477  10.152  14.350
25955W        W98215  35.883  21.610  13.468
25956W        W98216  25.167   5.795  10.487
25957W        W98217  13.173  32.484  14.470
25958W        W98218  27.553   6.232  13.335
25959W        W98219  37.961  36.438   4.124
25960W        W98220  44.332  37.837   0.281
25961W        W98221   1.935  19.724   1.214
25962W        W98222  22.217  14.272   1.353
25963W        W98223   9.251  43.458   0.730
25964W        W98224  12.743  23.674  11.598
25965W        W98225  43.455  25.487  12.830
25966W        W98226  11.719   1.362  14.381
25967W        W98227   5.407  10.348   0.826
25968W        W98228   9.162   9.828  14.808
25969W        W98229   7.226   4.904  11.501
25970W        W98230   9.359   0.280   2.184
25971W        W98231  22.542  41.040   2.812
25972W        W98232  41.387  43.503   1.370
25973W        W98233  28.057  29.175  12.921
25974W        W98234  20.569   0.984  10.473
25975W        W98235  23.730  16.629  10.945
25976W        W98236  24.055  12.765   4.178
25977W        W98237   9.173   1.354  10.989
25978W        W98238  18.110  40.511  13.020
25979W        W98239  30.654  25.218  11.870
25980W        W98240  16.581  36.974  12.340
25981W        W98241   1.842  34.389   2.361
25982W        W98242  31.988   2.341  10.610
25983W        W98243  19.122   8.795  12.995
25984W        W98244  24.035   4.217   4.221
25985W        W98245  29.113  39.029   4.773
25986W        W98246  21.527  27.966   5.777
25987W        W98247  20.661  16.170  11.122
25988W        W98248  16.722  16.776   0.452
25989W        W98249   7.788   1.301   0.829
25990W        W98250  13.649  43.855   2.752
25991W        W98251  18.187  15.651  11.538
25992W        W98252  36.566  31.533   4.601
25993W        W98253  26.095  23.212   3.845
25994W        W98254  13.329  10.685   4.151
25995W        W98255   8.694  39.500   1.889
25996W        W98256  42.882  43.291  12.487
25997W        W98257  22.560  31.571  12.405
25998W        W98258   7.827  24.715  14.417
25999W        W98259  30.931   6.409  10.138
26000W        W98260  32.527  19.144  13.036
26001W        W98261   7.373  39.529  11.534
26002W        W98262  44.325   0.809  14.339
26003W        W98263  37.949  40.382  12.095
26004W        W98264  13.656   3.310  10.977
26005W        W98265  28.125   5.436   4.691
26006W        W98266  31.022   3.822  11.427
26007W        W98267   3.837  21.739   1.920
26008W        W98268   3.844  35.513   0.793
26009W        W98269  12.255  18.134   3.257
26010W        W98270   5.248  19.645  11.980
26011W        W98271  10.843   7.693  12.521
26012W        W98272  44.785  40.545  12.867
26013W        W98273  38.884  11.311  11.534
26014W        W98274  31.956   6.272  13.041
26015W        W98275  27.984  23.497   3.785
26016W        W98276   5.369   1.884   1.333
26017W        W98277  38.391  23.589   0.880
26018W        W98278   4.717  10.721   2.679
26019W        W98279  25.977  43.860   0.769
26020W        W98280  10.364  23.555  11.075
26021W        W98281   3.737  16.241  11.462
26022W        W98282  19.045   2.941  10.552
26023W        W98283  12.336   0.974  11.470
26024W        W98284  35.036  13.175   1.366
26025W        W98285   5.730  22.027  11.977
26026W        W98286  20.626  37.365  11.447
26027W        W98287  30.492   9.199   4.248
26028W        W98288   6.291  28.096   3.387
26029W        W98289  34.917  33.523  10.574
26030W        W98290  40.377  12.820   2.791
26031W        W98291   6.374  31.457  14.830
26032W        W98292   6.762  17.582   0.309
26033W        W98293  22.198  34.012  14.882
26034W        W98294  26.195  30.658  11.604
26035W        W98295  16.156  20.719   2.667
26036W        W98296  39.838  37.886  11.546
26037W        W98297  27.164  15.159  10.894
26038W        W98298  24.174   6.196   5.309
26039W        W98299  17.283  18.168  10.578
26040W        W98300   8.212  13.791   2.838
26041W        W98301  41.994   3.402  14.927
26042W        W98302  43.298   8.839   1.731
26043W        W98303  22.085  41.318   2.237
26044W        W98304  10.713  10.730  14.822
26045W        W98305  42.412  37.411  10.506
26046W        W98306   8.768  35.454  11.423
26047W        W98307  26.591  17.760   4.695
26048W        W98308   7.219  28.993  13.329
26049W        W98309   0.840  38.030  12.866
26050W        W98310  38.377  15.757  12.917
26051W        W98311  35.995   9.654   2.758
26052W        W98312  20.729  14.769   0.273
26053W        W98313  43.838  19.049   3.776
26054W        W98314   2.837  11.649   0.762
26055W        W98315  44.007   3.773  10.583
26056W        W98316   6.881  39.383   2.765
26057W        W98317  14.633  27.545  14.918
26058W        W98318  21.541  14.711   4.707
26059W        W98319   0.771  16.772  13.970
26060W        W98320  44.973  31.517   3.193
26061W        W98321  28.480  21.158   2.316
26062W        W98322  43.988   4.237  11.127
26063W        W98323  19.580  42.908  10.552
26064W        W98324  14.242   2.763  11.374
26065W        W98325  41.915  37.571   2.845
26066W        W98326   6.221  26.638   1.769
26067W        W98327  43.994  32.615   4.193
26068W        W98328  10.718  24.651  14.469
26069W        W98329   7.870  20.114   2.740
26070W        W98330  28.121  12.854  10.141
26071W        W98331  41.911  14.233   4.831
26072W        W98332   9.151   4.883   4.721
26073W        W98333  27.501  30.921   0.914
26074W        W98334   2.800  23.098   1.300
26075W        W98335  27.962   4.906   1.333
26076W        W98336  33.981   4.214   0.250
26077W        W98337  10.761   4.218   1.871
26078W        W98338  27.480  33.047  12.484
26079W        W98339  40.820  32.066   3.637
26080W        W98340  19.672  22.503  12.572
26081W        W98341  29.523  25.685   4.296
26082W        W98342  26.104   2.404  12.362
26083W        W98343   3.291  13.646  12.547
26084W        W98344  34.889  12.659   2.345
26085W        W98345  40.929  29.522  10.566
26086W        W98346   4.898   8.278   2.335
26087W        W98347  13.350  23.017   3.170
26088W        W98348  11.664   0.782   3.293
26089W        W98349  22.113  12.120   1.714
26090W        W98350  19.707  33.007  10.488
26091W        W98351  35.941   7.778   4.733
26092W        W98352  29.965  27.538  14.866
26093W        W98353  33.011  33.954   2.902
26094W        W98354  42.886  33.889  12.907
26095W        W98355  11.262   7.792   4.808
26096W        W98356  44.437   3.385  10.041
26097W        W98357  25.638  15.778  10.101
26098W        W98358  35.957  31.934   3.671
26099W        W98359  33.879   0.308   2.891
26100W        W98360  21.565  32.039   0.885
26101W        W98361  20.262   5.824   5.148
26102W        W98362  35.938   5.773   1.774
26103W        W98363  41.483   8.810  13.872
26104W        W98364   8.843  37.056   2.670
26105W        W98365  30.132   6.322  11.575
26106W        W98366  22.093  21.557   0.737
26107W        W98367  24.055  25.657   3.228
26108W        W98368  11.768  31.147   4.320
26109W        W98369  25.049   8.395  10.430
26110W        W98370  41.913  17.123  14.456
26111W        W98371  27.627  40.445  11.036
26112W        W98372   3.381  31.094   1.898
26113W        W98373  29.491  15.753   3.381
26114W        W98374  44.979   3.948   0.328
26115W        W98375   7.319  37.838  14.905
26116W        W98376  43.922  15.715   4.823
26117W        W98377  43.870  23.734  10.523
26118W        W98378   8.735  22.561  11.029
26119W        W98379   0.370  11.186  10.973
26120W        W98380  44.317  19.661  11.565
26121W        W98381  10.249  20.258  12.514
26122W        W98382  16.624  10.701   1.385
26123W        W98383  34.373   3.744  13.006
26124W        W98384  16.100  38.904  10.032
26125W        W98385   3.841  25.014   4.210
26126W        W98386  20.245   6.338  12.856
26127W        W98387  34.518  28.513  14.413
26128W        W98388   9.254   2.844   3.358
26129W        W98389   9.318  17.307   0.930
26130W        W98390  12.292  13.308   0.439
26131W        W98391  10.665  30.507   4.751
26132W        W98392  14.835  12.362  14.425
26133W        W98393  21.089  32.399   2.744
26134W        W98394   9.176   3.895   3.359
26135W        W98395  21.542  17.116   2.362
26136W        W98396   6.679  37.366   0.777
26137W        W98397  37.080  30.109  13.045
26138W        W98398  40.014  17.179  13.436
26139W        W98399  28.601  23.017   0.449
26140W        W98400  43.380  16.786  11.991
26141W        W98401  40.427  42.955   0.801
26142W        W98402  44.473  22.639   2.811
26143W        W98403  20.060  40.469   1.284
26144W        W98404  28.556  39.828   1.278
26145W        W98405   3.307  39.821   3.814
26146W        W98406  38.044  43.889   0.450
26147W        W98407  20.134  12.852   4.757
26148W        W98408  30.467  22.505   3.795
26149W        W98409  15.631  36.543   1.851
26150W        W98410  36.363  21.218   4.286
26151W        W98411  34.102   2.327   2.272
26152W        W98412  16.757   7.768   3.304
26153W        W98413  43.968  23.215   4.213
26154W        W98414  10.201  32.455   2.277
26155W        W98415  15.621  10.696   4.191
26156W        W98416  21.636  25.711  12.461
26157W        W98417  14.713   6.250  13.307
26158W        W98418  23.147  18.195   3.200
26159W        W98419   2.875  37.036  12.895
26160W        W98420  18.729  24.525   2.296
26161W        W98421   1.854   7.347  14.384
26162W        W98422   7.245  35.913  10.493
26163W        W98423   5.433  20.129  11.508
26164W        W98424  16.759  36.917   1.245
26165W        W98425  27.627  24.134   4.739
26166W        W98426  10.767  16.074  11.447
26167W        W98427  13.247  42.883   1.408
26168W        W98428  29.616  27.073  11.522
26169W        W98429  29.510   2.333   1.847
26170W        W98430  44.944  42.508  11.949
26171W        W98431  23.678   7.903  11.406
26172W        W98432  41.005  44.491  14.880
26173W        W98433  26.466   2.230  11.933
26174W        W98434  29.547  39.862   3.696
26175W        W98435  34.476   3.856   3.259
26176W        W98436   4.394  22.619  12.828
26177W        W98437   5.196  11.163   4.204
26178W        W98438  26.031  29.930   1.376
26179W        W98439  42.514  10.743  14.279
26180W        W98440  11.732   2.733  13.893
26181W        W98441  30.929  41.966  11.961
26182W        W98442   3.809  17.231  14.338
26183W        W98443  16.765  26.170   3.181
26184W        W98444  22.073   0.922   0.262
26185W        W98445  27.510  12.359   2.403
26186W        W98446  29.492  28.677   4.705
26187W        W98447  31.411  42.411  12.892
26188W        W98448  35.855  43.899  14.351
26189W        W98449  21.757  19.692   1.746
26190W        W98450  22.711  39.891   3.747
26191W        W98451  19.079  26.100  14.799
26192W        W98452  23.616  33.104   2.300
26193W        W98453  24.207   7.825   1.859
26194W        W98454  19.117  32.994  14.350
26195W        W98455  21.714  17.274   4.727
26196W        W98456   9.314  32.985   3.256
26197W        W98457  35.422  14.767   1.401
26198W        W98458  30.135   7.416   1.292
26199W        W98459   7.240   7.284   2.375
26200W        W98460  27.511  29.055   4.185
26201W        W98461  24.643  36.555   3.264
26202W        W98462  15.205  42.818   1.763
26203W        W98463  15.329  39.899   0.741
26204W        W98464   8.886   4.204   3.228
26205W        W98465   3.748  11.335   1.375
26206W        W98466  41.851  13.106  10.482
26207W        W98467   2.884   3.448   2.823
26208W        W98468   4.369  25.085  13.992
26209W        W98469  38.925  27.044   0.878
26210W        W98470  15.085  25.691   3.247
26211W        W98471  32.060  43.976  11.508
26212W        W98472  21.072  26.086   1.371
26213W        W98473  40.022  38.006  14.364
26214W        W98474  35.382  42.816   1.883
26215W        W98475  11.830  37.351  14.493
26216W        W98476  25.476  11.320   2.857
26217W        W98477  23.532   9.184  13.833
26218W        W98478  24.681  36.098   3.262
26219W        W98479   9.857   2.344  13.849
26220W        W98480  40.471   7.341   0.387
26221W        W98481  34.430   7.791  10.514
26222W        W98482  44.458   2.393  13.525
26223W        W98483  26.459   2.368  10.516
26224W        W98484  43.409  26.062   2.209
26225W        W98485  36.036  42.944  10.638
26226W        W98486  33.885  22.179   0.444
26227W        W98487  44.409  42.861   1.706
26228W        W98488  35.075   8.821   1.922
26229W        W98489  28.618  12.285  10.410
26230W        W98490   4.808   1.385   1.226
26231W        W98491  26.522  18.114  10.598
26232W        W98492  38.394  14.274   4.352
26233W        W98493  39.348  32.393   2.254
26234W        W98494   5.749  11.190   1.392
26235W        W98495  41.994  30.519  10.482
26236W        W98496  11.743  25.531  11.436
26237W        W98497  43.899  39.888   2.317
26238W        W98498  19.169  13.812  12.849
26239W        W98499  26.671  23.236   2.303
26240W        W98500  10.333  16.237   3.835
26241W        W98501  35.570  27.071   3.777
26242W        W98502  33.125  19.261  11.484
26243W        W98503  42.916  15.608  12.040
26244W        W98504  42.961  20.710   3.674
26245W        W98505  36.515   5.721  11.087
26246W        W98506   9.875  23.021  11.973
26247W        W98507  32.470  34.580  13.980
26248W        W98508  42.496  30.030  11.603
26249W        W98509  38.570  21.582   2.707
26250W        W98510  11.646  19.122   2.674
26251W        W98511  42.400  12.822   4.271
26252W        W98512   0.451   3.446   1.344
26253W        W98513   8.780  27.447  12.006
26254W        W98514  43.859  34.983   2.318
26255W        W98515  13.272   9.285   4.620
26256W        W98516  11.351  36.551   1.409
26257W        W98517  25.137   7.826   2.838
26258W        W98518  22.559   4.738   0.933
26259W        W98519   6.233   8.350  11.594
26260W        W98520  15.256  24.998  11.047
26261W        W98521  21.736  20.764  11.066
26262W        W98522   7.726  29.978   0.468
26263W        W98523  44.003  41.308  11.070
26264W        W98524  21.653  21.203  13.535
26265W        W98525  30.607  22.122   2.750
26266W        W98526   9.279  32.943  10.966
26267W        W98527   9.213  16.661   0.484
26268W        W98528   0.951   0.766  11.988
26269W        W98529   5.417  10.704   1.247
26270W        W98530  18.619  27.610  10.482
26271W        W98531  21.644  42.844  13.313
26272W        W98532  26.491  39.554   9.476
26273W        W98533   8.727  15.724   1.791
26274W        W98534   2.436  34.952  11.970
26275W        W98535  32.464  27.589  12.415
26276W        W98536  13.695  39.042   2.819
26277W        W98537  14.603  39.447   4.644
26278W        W98538  22.589  20.635   4.236
26279W        W98539   2.437  31.968  10.606
26280W        W98540   8.177  38.069  10.511
26281W        W98541  14.652  27.478   9.669
26282W        W98542  29.620  44.969   1.405
26283W        W98543  23.055  32.523  12.947
26284W        W98544   0.807   2.787   0.458
26285W        W98545  36.090  41.498  12.482
26286W        W98546  28.066   2.929   1.340
26287W        W98547  39.318  39.428  10.468
26288W        W98548  35.588   9.797   1.433
26289W        W98549  32.535  16.580  13.840
26290W        W98550   1.906  25.533  13.502
26291W        W98551  17.715  20.035   2.259
26292W        W98552  24.977  29.948  13.885
26293W        W98553   2.340  43.299   3.867
26294W        W98554  30.117  22.041   3.629
26295W        W98555  40.443   3.453  13.418
26296W        W98556  22.179  36.545  10.951
26297W        W98557  19.778  32.467  11.390
26298W        W98558  23.662  26.635   0.296
26299W        W98559  29.972  12.143  11.564
26300W        W98560  33.514  27.084  13.019
26301W        W98561  25.478  36.380  12.839
26302W        W98562  16.299  15.697   3.217
26303W        W98563  44.937  23.682   1.745
26304W        W98564  30.636   6.380  12.086
26305W        W98565  19.557  44.463   1.883
26306W        W98566  32.543  20.129   4.798
26307W        W98567  36.925  40.851  11.069
26308W        W98568  26.500   7.823  12.088
26309W        W98569  27.144   0.436   1.367
26310W        W98570  16.649  17.306  13.926
26311W        W98571  41.301  29.021   2.840
26312W        W98572  32.971  10.721   2.404
26313W        W98573  13.726   3.951   2.317
26314W        W98574  15.152  18.617  12.020
26315W        W98575  42.941  33.476  11.549
26316W        W98576  27.033  31.574  10.519
26317W        W98577  26.506  39.415  11.998
26318W        W98578   3.403  37.911  11.406
26319W        W98579  25.572  42.030   5.713
26320W        W98580  35.583  30.130   2.322
26321W        W98581  41.840  20.548  11.066
26322W        W98582   5.349  40.314  12.412
26323W        W98583   0.464  41.403   4.192
26324W        W98584  33.942  19.768  14.478
26325W        W98585  40.450  43.995  14.407
26326W        W98586  34.544  10.741  12.569
26327W        W98587  43.810   4.899  10.515
26328W        W98588  24.595  31.911  10.495
26329W        W98589   1.767  33.593   4.335
26330W        W98590   5.729  11.227  11.892
26331W        W98591  24.097  10.301   1.714
26332W        W98592  34.393   0.304  11.113
26333W        W98593  30.453  29.967   4.215
26334W        W98594  14.708  33.948  14.974
26335W        W98595  19.108   8.171   4.240
26336W        W98596   2.346  34.524  10.932
26337W        W98597   4.916   1.909  14.360
26338W        W98598   7.346  43.971  10.537
26339W        W98599  28.602   2.392  13.044
26340W        W98600  38.004   2.753   0.332
26341W        W98601   8.733  12.770  14.481
26342W        W98602  21.031  16.711  10.566
26343W        W98603  22.162  38.951  12.493
26344W        W98604  22.662  41.836  12.464
26345W        W98605  32.142   4.246   2.806
26346W        W98606  17.799  27.003   4.229
26347W        W98607  41.943   3.746  13.921
26348W        W98608  38.920  19.138   4.134
26349W        W98609   7.854  32.052  13.319
26350W        W98610  33.456  35.495   5.105
26351W        W98611  32.042  34.983   3.292
26352W        W98612  41.466   3.821   0.394
26353W        W98613  38.939  21.224  13.953
26354W        W98614  40.953  13.790  13.971
26355W        W98615  44.963  34.085   4.214
26356W        W98616   8.355  29.976   4.735
26357W        W98617   7.346   1.756  11.512
26358W        W98618  26.115  15.224  12.044
26359W        W98619  13.174  38.333  11.395
26360W        W98620  10.643  30.022   2.741
26361W        W98621   1.323   4.255   0.425
26362W        W98622  22.744   4.861   4.620
26363W        W98623   9.253   4.795   4.257
26364W        W98624  29.138  30.479  12.417
26365W        W98625   5.276   1.737  14.289
26366W        W98626   8.747   8.197  11.983
26367W        W98627   2.293  44.918  14.014
26368W        W98628  38.401  10.289  11.055
26369W        W98629  34.574   3.861  14.806
26370W        W98630   7.375  34.912  12.970
26371W        W98631  10.293  31.481   0.358
26372W        W98632  35.962  10.159   1.800
26373W        W98633   3.309   5.300  12.547
26374W        W98634  30.478  42.998  10.620
26375W        W98635  23.725   2.440   2.871
26376W        W98636  11.663  12.149   2.859
26377W        W98637  16.575  26.031  13.503
26378W        W98638  20.643   3.288   1.317
26379W        W98639  43.890  28.441   1.326
26380W        W98640  28.618  10.244   3.356
26381W        W98641  32.535   2.350  10.527
26382W        W98642  10.151  34.981   2.317
26383W        W98643  27.587  24.658  10.895
26384W        W98644  42.284  21.555   3.704
26385W        W98645  12.329  28.989  11.932
26386W        W98646  32.944   2.885   4.639
26387W        W98647  36.008  41.863  13.951
26388W        W98648  16.229  12.733  11.109
26389W        W98649  11.181  20.187  14.909
26390W        W98650  24.178  31.152  10.529
26391W        W98651  26.517  35.532   3.775
26392W        W98652  23.139  27.457  13.531
26393W        W98653   3.233  44.288  14.856
26394W        W98654   3.375  11.634  13.899
26395W        W98655  44.910  31.469   2.755
26396W        W98656  33.534  32.602   4.667
26397W        W98657   0.298   2.352  10.932
26398W        W98658  17.726  38.371   3.869
26399W        W98659   6.251   5.860   9.966
26400W        W98660  20.038  14.115  12.377
26401W        W98661   4.241  38.903  10.919
26402W        W98662   6.332  12.696   2.349
26403W        W98663  44.281  32.125  11.457
26404W        W98664  44.859  12.217  12.824
26405W        W98665  19.551   5.239  14.005
26406W        W98666   3.928  40.032   2.854
26407W        W98667  27.162   1.798  11.397
26408W        W98668  27.456  40.015  10.474
26409W        W98669  20.544   7.673   1.728
26410W        W98670  15.307  26.482   2.271
26411W        W98671  36.401   1.941   5.186
26412W        W98672  37.447  10.710  13.938
26413W        W98673  44.313   9.359  10.557
26414W        W98674  43.975  42.420   0.945
26415W        W98675  23.155  13.776   2.212
26416W        W98676  25.583  13.607   4.785
26417W        W98677   2.342  13.228  14.762
26418W        W98678  20.698  17.136   1.842
26419W        W98679   5.383  14.809  12.445
26420W        W98680  32.567  35.086   4.664
26421W        W98681  36.522  10.159  11.923
26422W        W98682  28.986  43.321  11.099
26423W        W98683  32.491  43.928   1.883
26424W        W98684   6.415  20.757  10.564
26425W        W98685  24.601  44.818  14.312
26426W        W98686  38.018  37.962  13.324
26427W        W98687  10.818   4.897  12.065
26428W        W98688  42.984  34.551   1.418
26429W        W98689  42.806  37.058   2.238
26430W        W98690  12.795  25.468  11.872
26431W        W98691  15.718  13.298  12.962
26432W        W98692  23.226  39.932   4.127
26433W        W98693  16.717  23.144  12.488
26434W        W98694  29.047  30.098   5.623
26435W        W98695   7.375   3.836  12.523
26436W        W98696  37.956  23.989  11.011
26437W        W98697  23.047  28.186   0.425
26438W        W98698  22.008  36.493   0.346
26439W        W98699  39.465  44.285   1.700
26440W        W98700  22.729  21.628  14.477
26441W        W98701  13.810   5.218   2.839
26442W        W98702  40.970  21.753   1.843
26443W        W98703  41.421  25.561  14.864
26444W        W98704  23.547   4.230   1.402
26445W        W98705  25.658  41.899  11.946
26446W        W98706  14.603  26.597  13.051
26447W        W98707  28.051   4.276   2.204
26448W        W98708  24.190  22.054  13.376
26449W        W98709  38.819  35.530  14.391
26450W        W98710  40.903  12.688   3.262
26451W        W98711  38.975  27.945  13.333
26452W        W98712  37.830   1.783   3.851
26453W        W98713  30.116  23.225   4.689
26454W        W98714  18.267  21.036   3.642
26455W        W98715  17.168   6.833   4.694
26456W        W98716  36.523  38.377   2.758
26457W        W98717   7.339   9.323  13.907
26458W        W98718  18.764  40.405  14.772
26459W        W98719  37.881  31.043  12.950
26460W        W98720  10.723  10.298   1.383
26461W        W98721  44.785  26.118   4.815
26462W        W98722  33.613  13.651   2.802
26463W        W98723  22.163  31.430  11.941
26464W        W98724  34.593  20.632  14.853
26465W        W98725  31.958  21.746  10.499
26466W        W98726  10.346   7.396  10.419
26467W        W98727  13.686  42.029  14.900
26468W        W98728  41.328  34.440   1.374
26469W        W98729  36.404  43.478   2.216
26470W        W98730  13.799  18.119  13.448
26471W        W98731  25.511  33.459   4.328
26472W        W98732  35.865   7.387   0.795
26473W        W98733  40.832  18.551   2.299
26474W        W98734   5.719   5.912   4.792
26475W        W98735   3.279  26.132  13.358
26476W        W98736  11.338  12.185  10.631
26477W        W98737  20.618  30.042   2.784
26478W        W98738   8.367  19.224  12.544
26479W        W98739  23.531  15.206   1.294
26480W        W98740  35.981  32.929   4.145
26481W        W98741   5.897   5.349   4.118
26482W        W98742  43.971  28.081   4.642
26483W        W98743  34.484  43.912  12.568
26484W        W98744  44.838  33.578   0.850
26485W        W98745  28.034  23.114  14.408
26486W        W98746  31.106  36.877   3.684
26487W        W98747  31.151  44.478   0.823
26488W        W98748  38.335   6.306   2.687
26489W        W98749  23.547   5.209   3.808
26490W        W98750  38.865   4.366   1.318
26491W        W98751  19.119  42.776   0.364
26492W        W98752  39.036  13.663  11.009
26493W        W98753  42.847  19.212   2.769
26494W        W98754   5.206   7.302  11.001
26495W        W98755   3.304  20.165  14.501
26496W        W98756   7.712  30.040  10.971
26497W        W98757   8.887  29.155  10.405
26498W        W98758   3.789  44.809   4.323
26499W        W98759   1.403  38.930  13.321
26500W        W98760  12.251  33.913   1.725
26501W        W98761  44.329   4.896  12.012
26502W        W98762   5.925   5.830   2.737
26503W        W98763  42.467  43.954   2.882
26504W        W98764  36.442  32.931   3.235
26505W        W98765  26.610  35.899   3.845
26506W        W98766  23.130  30.073  13.032
26507W        W98767  12.651  10.302  13.536
26508W        W98768   8.250  28.505  13.957
26509W        W98769  42.376  43.389   1.770
26510W        W98770  38.373  37.457   2.843
26511W        W98771   9.378  40.355  11.116
26512W        W98772   2.377  12.190   1.821
26513W        W98773  37.067  26.060  13.509
26514W        W98774  22.099  30.594   1.774
26515W        W98775  17.231  29.504  10.595
26516W        W98776  26.484  12.835   2.778
26517W        W98777  44.272  19.630   1.240
26518W        W98778   1.472  20.226   0.842
26519W        W98779  31.911  26.672  11.416
26520W        W98780  33.428  27.038   4.781
26521W        W98781  16.808  25.561   1.264
26522W        W98782  33.619  13.147   3.173
26523W        W98783   1.417  41.935  13.488
26524W        W98784   4.880  19.137   2.341
26525W        W98785  26.536  10.753  12.917
26526W        W98786   3.250  33.450  11.405
26527W        W98787  36.505   1.945   4.219
26528W        W98788  21.749  44.276  12.839
26529W        W98789  18.278  35.902   1.898
26530W        W98790   9.716  29.625   0.843
26531W        W98791  20.139  25.692   0.458
26532W        W98792  12.175  24.120  13.058
26533W        W98793  17.148  32.501   2.240
26534W        W98794  24.156  38.059  14.839
26535W        W98795   6.919  33.104   1.816
26536W        W98796  15.308  33.961  14.001
26537W        W98797  28.508  43.777  12.924
26538W        W98798  44.340  21.072  12.928
26539W        W98799  29.164   4.216  12.048
26540W        W98800  31.454  37.431   1.308
26541W        W98801  18.079  14.635   1.347
26542W        W98802  33.124   4.864  12.509
26543W        W98803  44.811  34.590  14.460
26544W        W98804   1.947   7.783  10.530
26545W        W98805   3.220  31.418  10.609
26546W        W98806  10.220  20.751   5.138
26547W        W98807  13.717  26.981   1.741
26548W        W98808  26.191  19.614  14.304
26549W        W98809  18.605  30.158  12.052
26550W        W98810  11.813  40.891  13.427
26551W        W98811  22.599  30.963   4.609
26552W        W98812  37.483  13.615   0.272
26553W        W98813  36.889  20.704   2.902
26554W        W98814  20.210  17.257   3.829
26555W        W98815  37.879  29.599  12.560
26556W        W98816  21.065  42.343  10.424
26557W        W98817  24.563  30.972  11.994
26558W        W98818   7.246  11.204   4.156
26559W        W98819  14.203   9.819  10.473
26560W        W98820  40.969  20.573  13.039
26561W        W98821  14.306  14.820   1.264
26562W        W98822   1.411  17.680   4.129
26563W        W98823   5.765  42.506   3.284
26564W        W98824  16.218  33.441  14.985
26565W        W98825  22.665  28.162  12.056
26566W        W98826   8.844  10.850   4.139
26567W        W98827  31.944  23.071   2.808
26568W        W98828   6.409  44.442  11.917
26569W        W98829  33.933  36.944   0.834
26570W        W98830  43.876  25.473  13.314
26571W        W98831  14.656  42.316   4.166
26572W        W98832   2.808  39.034  12.853
26573W        W98833  22.050  34.967  14.280
26574W        W98834  38.042   1.288   0.395
26575W        W98835  29.526  26.200  12.343
26576W        W98836  34.877  28.076  10.123
26577W        W98837  37.036  21.583  10.915
26578W        W98838  25.094  24.102   5.097
26579W        W98839   2.954   4.394  14.764
26580W        W98840  13.695   0.782  12.448
26581W        W98841   5.920  43.952   3.372
26582W        W98842  18.773  17.173   9.963
26583W        W98843  29.923  23.145  14.863
26584W        W98844  14.277  29.930   5.780
26585W        W98845   7.837  32.058   4.616
26586W        W98846  17.102   3.751  11.009
26587W        W98847  27.572  24.030   1.373
26588W        W98848  20.720  11.129  11.412
26589W        W98849  22.613  23.622   3.151
26590W        W98850   7.203   8.318   3.328
26591W        W98851  22.093   8.831   1.841
26592W        W98852   3.863   2.929   0.869
26593W        W98853   5.229  23.585   0.474
26594W        W98854  15.316  20.706   1.824
26595W        W98855  30.025   1.446  12.086
26596W        W98856   8.251  26.087  14.023
26597W        W98857  41.791   2.360   0.745
26598W        W98858  22.041  30.541  12.533
26599W        W98859  36.349   1.895  11.054
26600W        W98860   4.907  12.234  14.852
26601W        W98861  23.196   5.706  10.897
26602W        W98862  39.872  16.607   0.817
26603W        W98863   4.839   2.806  13.320
26604W        W98864  43.012  29.483  12.009
26605W        W98865  12.827   9.226   1.247
26606W        W98866  16.141  36.354   3.810
26607W        W98867  14.595  15.659   3.299
26608W        W98868  38.546  15.232   0.378
26609W        W98869  10.334  29.482  11.885
26610W        W98870  35.012  44.265  12.914
26611W        W98871  44.918  42.455  11.557
26612W        W98872  42.463  11.256   1.907
26613W        W98873  14.621  14.209   0.726
26614W        W98874  30.998  44.371  10.632
26615W        W98875  12.723   4.936   3.780
26616W        W98876  23.988  41.925   3.710
26617W        W98877   8.372   3.788   0.800
26618W        W98878   3.790   6.330  13.512
26619W        W98879  17.299  18.642   1.332
26620W        W98880  41.847  34.388   2.266
26621W        W98881  25.183  31.110  12.095
26622W        W98882  19.218  10.315   4.706
26623W        W98883  25.075  10.691  10.527
26624W        W98884  31.004  24.594  14.411
26625W        W98885  15.655  13.166   2.182
26626W        W98886   8.710   2.722  10.904
26627W        W98887  37.917   0.942  10.988
26628W        W98888  15.221  35.549   0.940
26629W        W98889  19.666  13.680   4.751
26630W        W98890   4.732  43.932   2.191
26631W        W98891  38.070   3.780   0.435
26632W        W98892  14.598  11.313  13.927
26633W        W98893   3.274  28.466   4.785
26634W        W98894  36.384  30.119   1.294
26635W        W98895  42.899   4.301  10.462
26636W        W98896  39.478  23.534  13.012
26637W        W98897  36.098  37.877   3.655
26638W        W98898  11.724  38.960  13.818
26639W        W98899  15.798  21.560   4.335
26640W        W98900  12.335  17.700  11.399
26641W        W98901  41.386  13.290   2.395
26642W        W98902  42.988  26.000   2.719
26643W        W98903   7.875  26.524  13.311
26644W        W98904  24.720  14.795  13.064
26645W        W98905  26.986   4.709  11.484
26646W        W98906  43.868  15.187  13.946
26647W        W98907  13.798   6.354   3.378
26648W        W98908  24.203  28.041   0.838
26649W        W98909  37.371  24.169   1.721
26650W        W98910   2.277   0.296  14.910
26651W        W98911  24.086   5.819  13.877
26652W        W98912   9.731   7.232  13.415
26653W        W98913  39.386  41.965   2.888
26654W        W98914  41.433   7.412  13.372
26655W        W98915   6.768  33.061  10.918
26656W        W98916   5.802   7.224  13.485
26657W        W98917  20.073   3.909   2.292
26658W        W98918  44.259   1.331  11.945
26659W        W98919  20.531   2.771  11.063
26660W        W98920  21.118  25.596  13.980
26661W        W98921  44.438   8.177   1.761
26662W        W98922  41.018  24.506   0.311
26663W        W98923  23.695  38.544  10.504
26664W        W98924  28.109   0.344  10.896
26665W        W98925   3.398  40.400   3.853
26666W        W98926  30.099  30.934  13.541
26667W        W98927  14.143   2.945   4.316
26668W        W98928  10.258   9.659   3.861
26669W        W98929  20.186   6.197   1.392
26670W        W98930  32.902  38.878  11.599
26671W        W98931  28.187  13.313   3.831
26672W        W98932  23.103  28.535   2.788
26673W        W98933  14.204  29.940   3.245
26674W        W98934  40.045  12.687   2.201
26675W        W98935   3.245  22.178  11.019
26676W        W98936  19.552  28.968  13.939
26677W        W98937  28.991  11.683   3.246
26678W        W98938  14.338  36.361  14.455
26679W        W98939   8.209  25.635   3.168
26680W        W98940  16.798   1.816  11.026
26681W        W98941  18.064  36.083   1.273
26682W        W98942  16.175  15.114  11.079
26683W        W98943  42.027  31.068  10.554
26684W        W98944   0.450  31.079  11.978
26685W        W98945  22.644  37.979  12.413
26686W        W98946   6.337  18.266  14.366
26687W        W98947   7.329   6.334   3.717
26688W        W98948  41.873   1.774  12.506
26689W        W98949   5.783  23.584  14.831
26690W        W98950  23.149   5.241   1.783
26691W        W98951  30.094   6.398  14.796
26692W        W98952  43.863  15.083   1.768
26693W        W98953  40.444  41.892   0.956
26694W        W98954  39.535   0.802  12.574
26695W        W98955  24.075  10.670   4.271
26696W        W98956  26.645   2.227  11.535
26697W        W98957  30.088  40.040  12.046
26698W        W98958  40.468  14.305   3.173
26699W        W98959  36.416  10.383   1.317
26700W        W98960  12.204  42.361  12.001
26701W        W98961  10.200  29.101  14.429
26702W        W98962  38.000   6.871  13.811
26703W        W98963   8.192  43.960   4.603
26704W        W98964  31.993  41.967   5.242
26705W        W98965  31.444   9.878  12.062
26706W        W98966  32.625  43.312  14.306
26707W        W98967  41.959  23.054   3.652
26708W        W98968  16.770   8.258  13.810
26709W        W98969  20.060   7.302   2.852
26710W        W98970  15.321  25.175   1.900
26711W        W98971   9.788  40.876  14.813
26712W        W98972  30.595   0.768  13.429
26713W        W98973   0.921  31.548   3.346
26714W        W98974  10.297  18.176   1.276
26715W        W98975  35.982  32.533  13.397
26716W        W98976  35.483   8.344  13.901
26717W        W98977  19.747  44.335  11.101
26718W        W98978   3.221  17.739   0.368
26719W        W98979   2.883  11.701   3.707
26720W        W98980  29.934  32.516   0.786
26721W        W98981  24.669  23.008  11.473
26722W        W98982   3.862  15.270   2.418
26723W        W98983   1.452   9.681  11.597
26724W        W98984  22.119  15.200   2.889
26725W        W98985  10.212  23.624   1.248
26726W        W98986  23.654  33.975  14.438
26727W        W98987  23.550  16.794   0.408
26728W        W98988  29.660  25.187   0.799
26729W        W98989  16.098  32.520  12.039
26730W        W98990  18.776  13.168  14.294
26731W        W98991  29.022   1.813  11.482
26732W        W98992  21.091   6.310   3.764
26733W        W98993   5.295  27.016  13.336
26734W        W98994  25.481  40.873  14.981
26735W        W98995  41.321  37.336   1.244
26736W        W98996  30.487  28.983  14.026
26737W        W98997  38.480   7.820   2.866
26738W        W98998   0.839   9.244   3.279
26739W        W98999  15.268   3.743   4.773
26740W        W99000  16.179   2.932   0.733
26741W        W99001   8.282   2.257  10.417
26742W        W99002  34.973  39.986   0.288
26743W        W99003   0.335  40.982  14.018
26744W        W99004  21.555  32.022  13.541
26745W        W99005   6.427   2.368   3.216
26746W        W99006  20.595  31.623  12.919
26747W        W99007   6.756  22.663   0.300
26748W        W99008  24.590  39.371   5.083
26749W        W99009  36.588  12.653   5.315
26750W        W99010  43.770  15.775  10.026
26751W        W99011  39.982  33.891   4.222
26752W        W99012  23.059  23.676   4.740
26753W        W99013   6.354  17.800  14.808
26754W        W99014  39.509  23.073  14.866
26755W        W99015  21.202  40.992  12.540
26756W        W99016  25.498  15.220   3.819
26757W        W99017  10.745  22.167  12.365
26758W        W99018   6.724   9.210  10.486
26759W        W99019  32.437  20.735   4.316
26760W        W99020  11.694   3.241  12.845
26761W        W99021  41.923  35.081  14.477
26762W        W99022  41.991  10.321   2.820
26763W        W99023  15.180   5.909   0.432
26764W        W99024  16.151  25.498  14.878
26765W        W99025  37.344  37.424   1.844
26766W        W99026  30.460  42.852   0.363
26767W        W99027  31.635  17.226   3.772
26768W        W99028  31.899   1.456  11.442
26769W        W99029  21.572  35.949  12.859
26770W        W99030  38.874  39.054  13.434
26771W        W99031  32.105  37.985  12.837
26772W        W99032  23.205   6.780  14.455
26773W        W99033  24.482  29.035  12.522
26774W        W99034  42.982  37.433  12.482
26775W        W99035  21.660  10.147  13.377
26776W        W99036  44.872  14.778  10.941
26777W        W99037  17.557  24.493   4.151
26778W        W99038  15.282  34.567  12.089
26779W        W99039  18.222   2.264   0.955
26780W        W99040  35.987  24.975   3.362
26781W        W99041  38.562   1.316  13.838
26782W        W99042  44.385  26.550  10.610
26783W        W99043  10.712  34.425  14.340
26784W        W99044   6.254   6.698  14.863
26785W        W99045  42.852  39.470   2.224
26786W        W99046   5.839  30.502  14.963
26787W        W99047  15.241  21.543   0.245
26788W        W99048  26.998  29.054   0.255
26789W        W99049  41.013  34.386  11.913
26790W        W99050  13.702  44.010  13.018
26791W        W99051  30.065  42.332   2.348
26792W        W99052   7.411  43.972   4.670
26793W        W99053   9.244  43.414  12.544
26794W        W99054   2.859  43.906   2.272
26795W        W99055  44.402  29.081   2.184
26796W        W99056  40.449  27.563  14.356
26797W        W99057  29.556  30.115   0.829
26798W        W99058  34.007  12.145   3.274
26799W        W99059  27.941  27.469  14.760
26800W        W99060  28.174  13.210   1.372
26801W        W99061   9.806  17.294   0.738
26802W        W99062   2.768  37.084  14.410
26803W        W99063  44.308   0.947   3.341
26804W        W99064   2.811  28.072  12.563
26805W        W99065  44.007  32.505  11.501
26806W        W99066   5.916  14.286   4.188
26807W        W99067  44.793  33.379   2.737
26808W        W99068   1.906  10.695   0.781
26809W        W99069  43.991  12.302   4.272
26810W        W99070  34.510  17.597   1.903
26811W        W99071  19.683  12.136   4.291
26812W        W99072   5.210  39.822  14.773
26813W        W99073   7.247  21.697   0.243
26814W        W99074  27.048  21.542  13.471
26815W        W99075  34.512  14.649  12.521
26816W        W99076  13.657  41.897  12.547
26817W        W99077  42.876  43.497  10.533
26818W        W99078  27.675  24.150  10.511
26819W        W99079  40.312   7.750  10.970
26820W        W99080  18.672  13.629  11.929
26821W        W99081  41.350  38.519   1.366
26822W        W99082  37.010  37.350  11.068
26823W        W99083  21.250  31.107   1.777
26824W        W99084  37.079  35.933   2.861
26825W        W99085  13.165  29.552  12.888
26826W        W99086  14.612  21.252   0.845
26827W        W99087   7.332   8.400   0.366
26828W        W99088   1.290   3.921   2.286
26829W        W99089  18.260   7.904  12.351
26830W        W99090  25.505  31.123   1.736
26831W        W99091  23.625  38.450   3.641
26832W        W99092  37.886   0.926  14.861
26833W        W99093  42.016  16.116  11.931
26834W        W99094  17.647  40.324  12.094
26835W        W99095   8.797  13.184   4.130
26836W        W99096  14.156  38.400   4.794
26837W        W99097   3.414  30.539  13.047
26838W        W99098  11.295  28.454   3.300
26839W        W99099  13.277   9.346   0.933
26840W        W99100  17.098  31.920   0.362
26841W        W99101  25.655  12.137   3.338
26842W        W99102  43.421   3.395  10.466
26843W        W99103   3.934  44.821   3.228
26844W        W99104  31.644  26.570   4.651
26845W        W99105  17.609  12.278   1.904
26846W        W99106  44.319  15.311  12.923
26847W        W99107  19.562  32.404  12.916
26848W        W99108   6.285   2.822  14.498
26849W        W99109  32.567  43.804   2.332
26850W        W99110  29.024  37.342  12.544
26851W        W99111  27.998  24.009   3.241
26852W        W99112   1.878   9.846   2.367
26853W        W99113   8.769   7.879   2.885
26854W        W99114  12.807  40.018  10.560
26855W        W99115  44.918  15.208   2.349
26856W        W99116  19.110   7.718   3.172
26857W        W99117   9.839  13.352  11.413
26858W        W99118  38.857  29.565  11.476
26859W        W99119  17.132  12.344  12.068
26860W        W99120   8.846  15.600  13.909
26861W        W99121  28.073  44.998  12.983
26862W        W99122   1.780   7.839   1.286
26863W        W99123   8.772  33.004  14.438
26864W        W99124  27.949  33.414   4.259
26865W        W99125   3.294  11.667  13.463
26866W        W99126   2.265  19.135   2.364
26867W        W99127   0.806  31.550   1.302
26868W        W99128   3.790  32.045  10.909
26869W        W99129   9.746  23.028  13.544
26870W        W99130   7.247  15.717  11.473
26871W        W99131  37.853   4.710   4.751
26872W        W99132  16.576  28.050   2.181
26873W        W99133  44.414  12.682  14.376
26874W        W99134  19.551  33.432  13.046
26875W        W99135   5.328   3.874   0.809
26876W        W99136  40.862  41.005   4.318
26877W        W99137  32.024  18.109  13.512
26878W        W99138  38.442  12.782   3.274
26879W        W99139  20.636  24.702   2.663
26880W        W99140  34.041  14.128  10.617
26881W        W99141  17.580   3.949   0.258
26882W        W99142   4.265  37.336  12.428
26883W        W99143  34.381  29.930   2.288
26884W        W99144  23.221   4.375  11.373
26885W        W99145  22.197  27.512  14.843
26886W        W99146  34.405  14.672  14.946
26887W        W99147   4.342   3.864  14.434
26888W        W99148  23.555  22.185   3.706
26889W        W99149  30.421  42.334   3.300
26890W        W99150   3.842  35.021  14.841
26891W        W99151  33.070   9.256   0.896
26892W        W99152  32.458  43.820  11.528
26893W        W99153  17.714  39.808   3.705
26894W        W99154  16.265  33.395   3.748
26895W        W99155  10.331  43.816   1.788
26896W        W99156  19.670  44.294  12.556
26897W        W99157  23.719  28.086  14.801
26898W        W99158   8.162   9.870   1.279
26899W        W99159  23.105   4.240  10.403
26900W        W99160  29.039  43.834   2.330
26901W        W99161  38.850  23.592   3.292
26902W        W99162  30.644  25.130   0.919
26903W        W99163  37.001  41.909   4.264
26904W        W99164  29.555  24.717   3.341
26905W        W99165  15.118  20.698  10.585
26906W        W99166  36.401  23.059  13.999
26907W        W99167  14.745  38.052   4.809
26908W        W99168  34.614  32.958  10.903
26909W        W99169  13.293   2.413   4.315
26910W        W99170  24.107  14.607   1.895
26911W        W99171  16.190  39.034   0.798
26912W        W99172  40.496   9.361   0.764
26913W        W99173  31.470  11.211   4.330
26914W        W99174  22.720  30.494   0.865
26915W        W99175   4.435  43.279   0.804
26916W        W99176  33.054   6.219  12.472
26917W        W99177   3.832  31.602   1.345
26918W        W99178  17.767  28.572  14.396
26919W        W99179  28.018  18.122  12.958
26920W        W99180  15.613  27.658  10.460
26921W        W99181  38.027  15.197  12.396
26922W        W99182  13.336  14.756   3.752
26923W        W99183  39.900   8.759  10.934
26924W        W99184  14.679  12.357   0.468
26925W        W99185  35.088  15.702   0.341
26926W        W99186  29.066  42.434  13.482
26927W        W99187  38.984  23.527  13.467
26928W        W99188  21.617  30.923   3.708
26929W        W99189  25.637  12.315  10.557
26930W        W99190   4.384  31.499   3.146
26931W        W99191  34.589  28.130  11.860
26932W        W99192  23.704  27.068   3.261
26933W        W99193   0.359  42.856  10.956
26934W        W99194  31.595  23.159  11.450
26935W        W99195  42.032  35.093   0.483
26936W        W99196  33.455  39.027   3.347
26937W        W99197   4.799  43.771  14.835
26938W        W99198  43.475  10.225   3.751
26939W        W99199  18.240   9.231  10.150
26940W        W99200   6.181  12.688   1.845
26941W        W99201  15.689  19.777  14.484
26942W        W99202   8.228  44.320  11.607
26943W        W99203   2.739   1.879  14.851
26944W        W99204   4.310  17.135   2.680
26945W        W99205  30.531  24.226  13.827
26946W        W99206  12.202  35.558   4.247
26947W        W99207  26.595   4.773   3.684
26948W        W99208  42.312  37.390   2.291
26949W        W99209   2.935   0.304  10.612
26950W        W99210  28.018  44.976  13.850
26951W        W99211   5.817  34.576   3.345
26952W        W99212  43.463  12.694   2.354
26953W        W99213  36.048  32.527   2.698
26954W        W99214  35.521  10.216   3.810
26955W        W99215  10.206  16.687   2.404
26956W        W99216  22.680  39.815  11.985
26957W        W99217  26.151  11.814  11.447
26958W        W99218   4.885  13.694   4.728
26959W        W99219  44.468   9.745   4.190
26960W        W99220   5.878  38.466  10.931
26961W        W99221  29.473  25.663   2.271
26962W        W99222  26.107  41.797   0.758
26963W        W99223  24.552  42.385   1.887
26964W        W99224  12.189  26.460  14.759
26965W        W99225  27.077  22.118  11.965
26966W        W99226   1.263  13.127   3.834
26967W        W99227  19.285  41.384   3.226
26968W        W99228  41.528  35.058  12.962
26969W        W99229  39.874  19.109   1.341
26970W        W99230   3.762  27.143  14.977
26971W        W99231   7.375  32.463  12.823
26972W        W99232  21.062  10.291  13.460
26973W        W99233  10.234   5.878   2.713
26974W        W99234  41.840   3.232   1.916
26975W        W99235  19.100  30.981  10.570
26976W        W99236  31.983   6.290  11.375
26977W        W99237  22.670  11.291  11.018
26978W        W99238  41.442  15.252   4.308
26979W        W99239  33.886   2.802   2.882
26980W        W99240   2.792  28.461   2.259
26981W        W99241   0.925  44.455  14.906
26982W        W99242  33.947   7.833   2.225
26983W        W99243   3.378  31.600   2.860
26984W        W99244  30.973  37.414  13.031
26985W        W99245  42.954  44.884  14.933
26986W        W99246  21.666  37.362   4.223
26987W        W99247   0.459   0.830  14.292
26988W        W99248  24.684  36.946   4.306
26989W        W99249  26.526   1.307   4.159
26990W        W99250  32.590  24.169   3.797
26991W        W99251  43.306  34.496   2.691
26992W        W99252   3.381  40.875  14.282
26993W        W99253  28.082  22.222  14.302
26994W        W99254  43.371   8.691  11.047
26995W        W99255  14.704  19.686   1.853
26996W        W99256  36.936  10.253  14.785
26997W        W99257  25.099  37.396  10.466
26998W        W99258  19.583  31.970  14.393
26999W        W99259  34.998  35.108   0.741
27000W        W99260  21.613  28.462  12.564
27001W        W99261   1.244  11.277  12.928
27002W        W99262  13.215  34.565   2.211
27003W        W99263  32.586  27.682  14.476
27004W        W99264  44.295  34.495   0.415
27005W        W99265  33.590  31.449  11.469
27006W        W99266  21.049  44.438  14.385
27007W        W99267   6.746   8.193  10.908
27008W        W99268  30.952   7.677  11.987
27009W        W99269   9.352  38.376  11.572
27010W        W99270   3.437   4.838  13.016
27011W        W99271  23.164  32.583  14.461
27012W        W99272  23.030   3.752   4.614
27013W        W99273   8.837  20.547   2.762
27014W        W99274  26.574  23.638  11.100
27015W        W99275  17.286  14.121  13.923
27016W        W99276  26.057  20.664   1.221
27017W        W99277   0.331   2.311   2.663
27018W        W99278   3.443   6.277   1.285
27019W        W99279  20.139  24.018  12.433
27020W        W99280  32.111   2.233  14.504
27021W        W99281   5.922  11.229  12.874
27022W        W99282  32.620   1.471   0.849
27023W        W99283   2.427  40.986   0.337
27024W        W99284  43.354  34.988  12.557
27025W        W99285  28.645  29.530   2.218
27026W        W99286  12.758  39.464  11.440
27027W        W99287  27.555   5.904  13.487
27028W        W99288  11.373  31.423  12.547
27029W        W99289  44.424   2.340  12.449
27030W        W99290   4.228  12.362   3.279
27031W        W99291  22.146  39.972  13.347
27032W        W99292  40.045  19.243   2.405
27033W        W99293  25.969  30.110  10.972
27034W        W99294  33.024  43.822   1.700
27035W        W99295  26.564  37.559   4.695
27036W        W99296  38.840  19.176  13.994
27037W        W99297   4.366  15.268  11.579
27038W        W99298   8.396  18.177   2.741
27039W        W99299   9.644  22.585   1.769
27040W        W99300  42.490  20.088  12.486
27041W        W99301  10.640  34.083   2.398
27042W        W99302  36.991   9.730  11.607
27043W        W99303  35.539  42.883   4.654
27044W        W99304  12.213  33.114  10.464
27045W        W99305   4.806  35.888  11.589
27046W        W99306   9.395  43.801  14.493
27047W        W99307   8.236  19.283   3.850
27048W        W99308   6.381  39.526  13.883
27049W        W99309  19.742  19.733   0.242
27050W        W99310  43.403  33.026  13.916
27051W        W99311  14.810   4.313  14.835
27052W        W99312   8.682  22.658   5.293
27053W        W99313  27.477  23.679  14.491
27054W        W99314   7.693   7.189   4.755
27055W        W99315   3.450   8.836  10.088
27056W        W99316  24.514  18.772   3.746
27057W        W99317  11.838  35.072  14.399
27058W        W99318  19.571  22.502   1.882
27059W        W99319  21.654  28.939  12.364
27060W        W99320  12.622  29.964  12.422
27061W        W99321   8.283  27.445  10.478
27062W        W99322   4.243  20.602  13.054
27063W        W99323  27.588  39.403  10.545
27064W        W99324   7.284  33.927   2.306
27065W        W99325  10.652  26.146   4.237
27066W        W99326  43.786   6.716   3.338
27067W        W99327   0.921  13.215   2.754
27068W        W99328  15.748  39.999   0.927
27069W        W99329  32.988  41.342   4.194
27070W        W99330  38.422   9.266   0.808
27071W        W99331   9.269  22.246   4.192
27072W        W99332   1.815  22.714  13.497
27073W        W99333  15.135  38.329   0.804
27074W        W99334  35.000  31.074   3.310
27075W        W99335  27.113  28.186  14.004
27076W        W99336  35.406   8.175   1.311
27077W        W99337  19.086  28.013   3.152
27078W        W99338  12.819  17.190   1.721
27079W        W99339  10.279  43.941  12.370
27080W        W99340  10.234  28.046  13.398
27081W        W99341  34.548  42.354  14.021
27082W        W99342  41.839  43.358   3.642
27083W        W99343  15.237   9.168   0.873
27084W        W99344  34.974   7.836  10.554
27085W        W99345  13.209  39.518   2.207
27086W        W99346  24.627  41.938  10.896
27087W        W99347   3.342  30.970  13.437
27088W        W99348  33.976  19.563  13.477
27089W        W99349  40.384  20.105   3.231
27090W        W99350  41.888  21.658   0.830
27091W        W99351  13.234  12.128   0.419
27092W        W99352  36.390  33.963   2.899
27093W        W99353  36.927  11.363  12.994
27094W        W99354  40.902  16.608   3.870
27095W        W99355  32.467  16.182  10.999
27096W        W99356  11.867  44.434  11.981
27097W        W99357   1.304   8.890  12.893
27098W        W99358   9.198  33.542   4.230
27099W        W99359  44.456   7.398  12.572
27100W        W99360  35.067   1.853  13.334
27101W        W99361  33.959  13.239  11.386
27102W        W99362   9.879  40.419  10.618
27103W        W99363  18.074  37.088   4.833
27104W        W99364  34.534   0.958  12.945
27105W        W99365  43.921  32.064   3.693
27106W        W99366   3.919   8.281  11.442
27107W        W99367  18.665  11.627  14.826
27108W        W99368  44.386  33.881   2.388
27109W        W99369   9.338   5.336   0.836
27110W        W99370  15.672  43.861  12.003
27111W        W99371  12.774  39.443   0.451
27112W        W99372  26.084   4.909  11.508
27113W        W99373   9.202  26.488  11.948
27114W        W99374  11.193  29.531   2.668
27115W        W99375  26.604  40.468  14.483
27116W        W99376   1.874  35.022  11.420
27117W        W99377  11.172  22.172  10.912
27118W        W99378  39.554  22.693   2.888
27119W        W99379  27.597   3.820   3.151
27120W        W99380   5.784  12.258   1.270
27121W        W99381  30.570  21.195  11.535
27122W        W99382   1.862  33.064  12.427
27123W        W99383  42.954   4.888   0.265
27124W        W99384  31.147  29.934  12.966
27125W        W99385  42.316  25.118   1.909
27126W        W99386  28.480  16.750  12.884
27127W        W99387  24.613   4.807   3.741
27128W        W99388  23.166  19.133   1.728
27129W        W99389  28.653  32.478  11.969
27130W        W99390   6.228  35.091  13.332
27131W        W99391  23.063   4.877   1.393
27132W        W99392  17.300  12.266  10.498
27133W        W99393  25.505  27.197   2.309
27134W        W99394  18.746  43.019  12.938
27135W        W99395  43.947  32.137   2.884
27136W        W99396   7.760   7.217   4.196
27137W        W99397  39.912  33.906   4.717
27138W        W99398  15.606   2.346   2.858
27139W        W99399  44.756  15.625  14.765
27140W        W99400  17.249   0.383  13.811
27141W        W99401  31.458   4.327   2.785
27142W        W99402  14.645  27.578  14.435
27143W        W99403  15.780   9.803   4.345
27144W        W99404  41.383   4.793  12.828
27145W        W99405  31.593  33.556  11.073
27146W        W99406   5.344  18.243  14.366
27147W        W99407  16.711  36.076  12.852
27148W        W99408  25.017   9.888  11.022
27149W        W99409   5.429   8.376   0.905
27150W        W99410  18.772   6.182   4.816
27151W        W99411  17.761   5.738  13.910
27152W        W99412  34.053  21.599  10.457
27153W        W99413  35.553   2.292   0.328
27154W        W99414  18.568   5.352  12.934
27155W        W99415  32.978  35.984  10.955
27156W        W99416   1.315  25.065   2.382
27157W        W99417  29.963  25.050  11.425
27158W        W99418  26.121  26.042   2.313
27159W        W99419  36.010  28.479   2.388
27160W        W99420  42.346  28.140  12.570
27161W        W99421  10.682  29.969   1.865
27162W        W99422  36.481  29.924  12.031
27163W        W99423   4.229  11.246  13.518
27164W        W99424   8.872  26.607  12.869
27165W        W99425  44.964  10.327   0.331
27166W        W99426  31.523  35.076   0.312
27167W        W99427  16.304  38.826  13.380
27168W        W99428  16.201  22.590  14.295
27169W        W99429  42.906  34.104  12.435
27170W        W99430  24.554  39.405   3.774
27171W        W99431  17.234  16.074  14.906
27172W        W99432  25.665  10.245   0.258
27173W        W99433  10.290  18.755  14.408
27174W        W99434  25.654  42.815   5.231
27175W        W99435  25.685  33.974   4.203
27176W        W99436  13.635  10.807   4.775
27177W        W99437   5.336  24.025  12.898
27178W        W99438  28.458   0.918   1.758
27179W        W99439   5.355  19.660   3.684
27180W        W99440   9.757  10.874  10.522
27181W        W99441  24.073  21.613  14.988
27182W        W99442  28.469  35.395  13.452
27183W        W99443  15.323  32.429   1.818
27184W        W99444  14.602  19.557  12.909
27185W        W99445  28.642  10.288  14.788
27186W        W99446  20.063  31.618  13.356
27187W        W99447  24.489  38.990   4.120
27188W        W99448  10.189  38.948  14.462
27189W        W99449  30.071  27.113   4.351
27190W        W99450  41.968   1.812   1.336
27191W        W99451  22.632  35.088   0.456
27192W        W99452  42.434   4.927   3.832
27193W        W99453  36.038  13.348   2.298
27194W        W99454  37.993   1.978  11.550
27195W        W99455  13.704   1.385   0.450
27196W        W99456  38.472  28.977   1.392
27197W        W99457  31.413  42.960   3.287
27198W        W99458   3.447  13.200   5.175
27199W        W99459  34.905  15.646   4.188
27200W        W99460  33.506  40.520   2.229
27201W        W99461  10.261  16.599   4.193
27202W        W99462  44.442  35.879  12.991
27203W        W99463  24.211   9.852  12.870
27204W        W99464  10.749  25.070  12.465
27205W        W99465  21.106  27.461   4.210
27206W        W99466   6.221  11.629   0.916
27207W        W99467  30.156  25.581  13.511
27208W        W99468   7.278   0.490  14.461
27209W        W99469   6.416  34.461   2.182
27210W        W99470  27.961  28.075   1.852
27211W        W99471  11.337   9.649   1.896
27212W        W99472  23.496  32.987  13.526
27213W        W99473  11.309  21.052  10.087
27214W        W99474  21.181  34.119  11.596
27215W        W99475  36.385  33.464   4.175
27216W        W99476  22.504  11.317  13.003
27217W        W99477   5.856   3.856  10.644
27218W        W99478  16.656  14.269   5.227
27219W        W99479  25.696  31.568   0.760
27220W        W99480  23.605  37.481  11.974
27221W        W99481  43.429  39.548   4.117
27222W        W99482  41.360  27.009  14.775
27223W        W99483  17.065   8.878   2.263
27224W        W99484   0.835   8.773  11.078
27225W        W99485   5.858  35.068  13.515
27226W        W99486   4.302  33.966   1.392
27227W        W99487  25.199  25.633   2.294
27228W        W99488  12.182  14.712   3.305
27229W        W99489  26.128  24.589   4.275
27230W        W99490  32.070  18.772   4.131
27231W        W99491  44.985  18.171   1.912
27232W        W99492  21.226  27.455  14.825
27233W        W99493  27.126  16.685  12.340
27234W        W99494  24.578  27.993   1.259
27235W        W99495  15.103   9.379   1.774
27236W        W99496  33.104  30.579   2.739
27237W        W99497  28.186   5.806  11.906
27238W        W99498  38.847  32.626   3.355
27239W        W99499  19.729  15.313  13.846
27240W        W99500  12.795  21.029   3.781
27241W        W99501  21.102  19.185   1.765
27242W        W99502  12.812  12.620   0.843
27243W        W99503   8.267  34.500  13.358
27244W        W99504  10.743  10.177   0.918
27245W        W99505  10.652  34.527   3.167
27246W        W99506   8.676  33.983  10.528
27247W        W99507  23.182  21.718   5.703
27248W        W99508  10.875  22.092   0.755
27249W        W99509  27.051  32.634   2.799
27250W        W99510  39.380  19.654   1.261
27251W        W99511  32.016   6.272   2.840
27252W        W99512  23.560  43.388   4.743
27253W        W99513  14.680   7.842   1.833
27254W        W99514  10.759  33.061   4.133
27255W        W99515  13.244  34.456   3.814
27256W        W99516  34.090  30.006   3.790
27257W        W99517  17.568   3.262  13.998
27258W        W99518  19.568   9.317   0.913
27259W        W99519  33.923  36.531   4.613
27260W        W99520  12.842  40.414  13.941
27261W        W99521  24.572  23.731  14.962
27262W        W99522  15.585  32.915  14.428
27263W        W99523  37.580  17.154   1.860
27264W        W99524  36.434  28.465  10.979
27265W        W99525  22.618  36.027  10.027
27266W        W99526  12.342  10.740  11.900
27267W        W99527  21.176  41.407   3.237
27268W        W99528  19.148  21.193  11.510
27269W        W99529  12.699   6.406  12.569
27270W        W99530   2.288   6.792  12.062
27271W        W99531  21.185   8.734  14.507
27272W        W99532  36.590  40.419   3.743
27273W        W99533  44.463  31.630  11.502
27274W        W99534  37.341  12.338   4.780
27275W        W99535  30.468  12.652  14.834
27276W        W99536  36.432   7.666   3.779
27277W        W99537  19.150  30.440  12.563
27278W        W99538  22.215  35.386   0.274
27279W        W99539  25.527  37.469  13.955
27280W        W99540  13.709   4.719   0.749
27281W        W99541  23.118  18.546   2.227
27282W        W99542  11.682   3.398   0.302
27283W        W99543  19.081   7.852   0.347
27284W        W99544  17.148  17.648   0.858
27285W        W99545  15.812   4.394   4.345
27286W        W99546  38.986  41.389  12.454
27287W        W99547  10.139  41.462   0.848
27288W        W99548  40.543  11.733   4.689
27289W        W99549   9.648   0.752  12.905
27290W        W99550  17.589  34.533  12.442
27291W        W99551  29.622   7.775  11.897
27292W        W99552  12.735  17.721  11.547
27293W        W99553   3.243   9.214  12.094
27294W        W99554  24.696  22.503  11.989
27295W        W99555  23.147   6.728   2.185
27296W        W99556  22.070   6.276   0.765
27297W        W99557  19.240  17.269   2.325
27298W        W99558  32.032  33.982  13.037
27299W        W99559  24.544  33.506  13.831
27300W        W99560   4.281   8.870   3.203
27301W        W99561  20.089  15.093  14.026
27302W        W99562  43.905  21.539   1.897
27303W        W99563  13.822  12.133  13.799
27304W        W99564  22.694  34.485   3.249
27305W        W99565   9.796  13.626  11.535
27306W        W99566  21.072  21.587   2.262
27307W        W99567  29.540  17.770   3.163
27308W        W99568  24.721  31.084  14.923
27309W        W99569  22.192  32.634  13.948
27310W        W99570  44.476  39.003   5.217
27311W        W99571  43.788  14.119  11.605
27312W        W99572  33.423  26.133  10.016
27313W        W99573  38.548   3.318  10.965
27314W        W99574  24.567  35.534   4.728
27315W        W99575  26.562  23.713  13.444
27316W        W99576  15.642  20.759   0.468
27317W        W99577  37.896  23.663  10.551
27318W        W99578   1.275  11.143   3.704
27319W        W99579  20.104  43.947   0.795
27320W        W99580  14.139  32.143   4.664
27321W        W99581  38.027  27.945  11.892
27322W        W99582  37.997  21.678  11.983
27323W        W99583   0.983  28.089  13.000
27324W        W99584  23.507  30.453   3.302
27325W        W99585  17.127  39.380   0.294
27326W        W99586   4.240  42.452   1.279
27327W        W99587  40.549  19.186   0.473
27328W        W99588  13.702  14.807   0.807
27329W        W99589  41.338  39.373   4.274
27330W        W99590  22.504  40.496  11.399
27331W        W99591  12.166  43.483   1.759
27332W        W99592  16.596   8.694   0.297
27333W        W99593  29.005  26.609  14.998
27334W        W99594   5.418  10.817   3.297
27335W        W99595  27.015   3.360   3.232
27336W        W99596  15.211  43.792  10.483
27337W        W99597  38.065  35.083   1.449
27338W        W99598  37.401  10.792   2.405
27339W        W99599  38.939   6.678   2.351
27340W        W99600  35.959  20.243  11.126
27341W        W99601  36.970  20.110  13.540
27342W        W99602  27.538  19.194   1.759
27343W        W99603  38.973   1.866  13.527
27344W        W99604  21.625  14.713   1.848
27345W        W99605  38.524  29.127   0.465
27346W        W99606   3.725  36.936  13.510
27347W        W99607  21.096  18.629   4.819
27348W        W99608   0.393  23.655   0.808
27349W        W99609  40.377   8.864  11.546
27350W        W99610  23.078  29.119  13.458
27351W        W99611  39.859  42.909   1.761
27352W        W99612  28.516  36.496   3.791
27353W        W99613  31.017   7.214  12.914
27354W        W99614   4.703  26.530   0.798
27355W        W99615   2.894  36.397   3.327
27356W        W99616  28.603  44.783  14.967
27357W        W99617  28.539  28.541  12.395
27358W        W99618  41.444  14.609  13.466
27359W        W99619  30.922  24.661   3.641
27360W        W99620  35.087  35.953   5.211
27361W        W99621  13.320  18.082   0.961
27362W        W99622  14.668   1.341   2.364
27363W        W99623  32.950  27.480  14.797
27364W        W99624   8.184  23.100   2.739
27365W        W99625  26.669  36.453   5.270
27366W        W99626  13.290  39.902  14.309
27367W        W99627  15.639  11.308   2.282
27368W        W99628  28.615  11.252  12.349
27369W        W99629  17.158  11.346   4.635
27370W        W99630  17.772   8.393   1.296
27371W        W99631  27.181   0.841   3.868
27372W        W99632  21.138  43.497  11.434
27373W        W99633  17.772   2.931   3.146
27374W        W99634  35.602  38.064  13.943
27375W        W99635  21.085  33.898   4.734
27376W        W99636  44.459  20.715  13.930
27377W        W99637  10.337  30.081  13.485
27378W        W99638  36.934  11.657  14.448
27379W        W99639  41.849  34.478   4.116
27380W        W99640   1.379  35.992   2.744
27381W        W99641  11.215  15.163   4.301
27382W        W99642   4.436  44.885  12.556
27383W        W99643   2.412  30.437  11.400
27384W        W99644  28.044  35.002  13.404
27385W        W99645  20.264  40.813  13.906
27386W        W99646  27.615   5.902  14.763
27387W        W99647  30.650  26.524   4.332
27388W        W99648  26.543  39.041   3.167
27389W        W99649  18.567  15.122   3.251
27390W        W99650  15.723  38.873   2.790
27391W        W99651  20.593   3.278  12.432
27392W        W99652  36.848  27.118  10.942
27393W        W99653  14.170  14.143  12.415
27394W        W99654   8.270  14.332  13.892
27395W        W99655  19.616  41.816   2.205
27396W        W99656  11.714  34.013   1.924
27397W        W99657  39.827   9.359  10.952
27398W        W99658  24.693  23.490  12.396
27399W        W99659  24.664  23.232   0.434
27400W        W99660  28.569  12.302  11.079
27401W        W99661  38.330   0.387  12.905
27402W        W99662  34.036  20.038  14.847
27403W        W99663  33.015  25.017  10.508
27404W        W99664  16.307  11.700   1.791
27405W        W99665  36.993  25.712   4.704
27406W        W99666  35.598  25.657  10.943
27407W        W99667  18.193  18.187   1.275
27408W        W99668  44.290   0.349   4.217
27409W        W99669  28.480   6.819   1.253
27410W        W99670   7.698  13.287  14.804
27411W        W99671  39.942  35.085   4.135
27412W        W99672   0.483  34.018   3.632
27413W        W99673   2.411  40.310  13.419
27414W        W99674  18.635  36.374  12.046
27415W        W99675  24.685  24.127  12.463
27416W        W99676   1.316  22.681   0.907
27417W        W99677  12.687  41.318  14.379
27418W        W99678  28.598  26.032  12.029
27419W        W99679   3.842  13.671  12.553
27420W        W99680  12.133  13.326  14.814
27421W        W99681  35.374  40.827  14.981
27422W        W99682  24.589  32.531  14.470
27423W        W99683  39.321  27.676   0.387
27424W        W99684  23.127   7.200   4.261
27425W        W99685  16.779  20.093   1.220
27426W        W99686  26.084   7.253   4.690
27427W        W99687   9.175   8.686   1.931
27428W        W99688  11.314   7.364   4.773
27429W        W99689  41.920  30.142  11.067
27430W        W99690  43.395  29.961  12.431
27431W        W99691   5.711  38.961   1.807
27432W        W99692  21.683   9.269  11.047
27433W        W99693  43.781   2.291  13.878
27434W        W99694  30.139  43.271   0.401
27435W        W99695  42.409  17.777  11.515
27436W        W99696  34.539  29.468   3.150
27437W        W99697  43.941   8.181  14.465
27438W        W99698  33.902  17.119  12.451
27439W        W99699  26.154  17.120   2.821
27440W        W99700   6.713  11.853  13.870
27441W        W99701  33.540   2.861   0.864
27442W        W99702   5.250   6.714  13.010
27443W        W99703  26.598  34.530   2.353
27444W        W99704  20.097  32.461  12.998
27445W        W99705  43.839  17.604  12.937
27446W        W99706   0.879   7.295   1.364
27447W        W99707   0.918  24.522   2.693
27448W        W99708  26.125   2.814   4.678
27449W        W99709  25.519  32.087  13.537
27450W        W99710  19.566  16.119   1.332
27451W        W99711  35.068  34.077   4.297
27452W        W99712  35.031  32.910   2.193
27453W        W99713  14.710  32.517   2.894
27454W        W99714  33.406  41.343   0.794
27455W        W99715   5.852   6.833   3.318
27456W        W99716  10.277   7.863   1.398
27457W        W99717  29.944  38.963  11.508
27458W        W99718   8.234  37.395  12.867
27459W        W99719  18.632   4.236  11.605
27460W        W99720   1.768   9.206   2.845
27461W        W99721   8.828   9.728   4.697
27462W        W99722  35.598  10.716  11.917
27463W        W99723  31.142   1.373  12.482
27464W        W99724   7.274  34.459  14.298
27465W        W99725  37.016   6.679  13.945
27466W        W99726  24.215  14.629  11.065
27467W        W99727  15.629   6.694   4.294
27468W        W99728  11.779  14.217   1.779
27469W        W99729  11.801  43.361  12.993
27470W        W99730   9.657  40.427   2.215
27471W        W99731  41.973  16.268   0.962
27472W        W99732   5.208  44.827  14.813
27473W        W99733   7.779  14.627   4.633
27474W        W99734   3.730  12.359  14.799
27475W        W99735   9.160  25.051  10.125
27476W        W99736   1.242   7.749  13.381
27477W        W99737  10.851  23.528  13.356
27478W        W99738  17.559  44.833  12.066
27479W        W99739   0.833  25.611  10.533
27480W        W99740  23.050  12.347   0.370
27481W        W99741  40.377  34.955  13.025
27482W        W99742  36.396   6.800   3.811
27483W        W99743   0.485   2.723  10.577
27484W        W99744   6.360   2.444   0.772
27485W        W99745  13.818  16.149   4.837
27486W        W99746  23.617  17.145  10.523
27487W        W99747  23.092  41.413  10.465
27488W        W99748  21.756  23.210  13.504
27489W        W99749  43.805  40.487   2.218
27490W        W99750  39.516  41.017  11.956
27491W        W99751   3.880   7.326  14.778
27492W        W99752  13.839  23.656   0.840
27493W        W99753  32.513  19.268   1.280
27494W        W99754  20.668   6.239   3.201
27495W        W99755  38.862  20.703   2.679
27496W        W99756  41.997   4.340  14.925
27497W        W99757  35.001  41.452  11.079
27498W        W99758   4.379   5.316  14.344
27499W        W99759  23.587  23.519   0.335
27500W        W99760  44.935  15.645   3.209
27501W        W99761  18.667   1.315   3.307
27502W        W99762   8.279  23.698  11.071
27503W        W99763  35.532   2.454   3.751
27504W        W99764  23.046  13.322  11.884
27505W        W99765  21.637  12.199   2.751
27506W        W99766  10.640  33.414  12.073
27507W        W99767  22.014  42.428  13.418
27508W        W99768  28.937  42.334   3.170
27509W        W99769  13.760   7.815  13.946
27510W        W99770  23.149  25.136   2.297
27511W        W99771  10.823  25.096  10.937
27512W        W99772   6.384  32.633   2.685
27513W        W99773  10.633  30.127  12.526
27514W        W99774  22.089   4.936   0.935
27515W        W99775  10.655  34.074  12.423
27516W        W99776  38.859  32.904   3.222
27517W        W99777   1.767  24.603   2.405
27518W        W99778   9.365  16.176  11.054
27519W        W99779  36.993  10.217   0.465
27520W        W99780  37.504  27.007   1.350
27521W        W99781  22.180   5.353   3.670
27522W        W99782   8.391  34.097   0.287
27523W        W99783  24.142   9.806  11.529
27524W        W99784   8.880   2.274   3.744
27525W        W99785   7.304  23.152  13.011
27526W        W99786   9.751  10.875   2.709
27527W        W99787  19.257  20.250   1.764
27528W        W99788  26.550  24.014  11.955
27529W        W99789   5.849   4.276   3.660
27530W        W99790  32.474  21.072  10.926
27531W        W99791   9.749   0.434  14.475
27532W        W99792  18.668  22.685  10.561
27533W        W99793  31.605  37.436   0.458
27534W        W99794  25.200   4.739  10.593
27535W        W99795  11.222  30.057  10.014
27536W        W99796  19.211  35.012   0.901
27537W        W99797  27.140  16.270   0.743
27538W        W99798  39.905   0.422  13.878
27539W        W99799  43.381  14.132  13.051
27540W        W99800   3.717  21.248   0.278
27541W        W99801  38.831   2.442   2.305
27542W        W99802  11.142  14.288   4.822
27543W        W99803  12.719   9.883   1.818
27544W        W99804   0.746  42.453  11.048
27545W        W99805  39.902  30.539   1.842
27546W        W99806   7.411  27.503   9.964
27547W        W99807  26.673  15.275  13.325
27548W        W99808  25.177  30.489  12.574
27549W        W99809   7.264  12.829  11.436
27550W        W99810  31.575  11.824   4.135
27551W        W99811   9.224   1.806   1.715
27552W        W99812  36.461  13.171   1.384
27553W        W99813  30.131  32.092   3.736
27554W        W99814  32.087  31.939  11.053
27555W        W99815  19.238  36.581  11.404
27556W        W99816  12.304   8.347  11.941
27557W        W99817  36.479   7.360  12.490
27558W        W99818  17.761  17.676  14.323
27559W        W99819   5.908  25.590   1.439
27560W        W99820  27.059  44.759  14.919
27561W        W99821  37.989   2.311   4.699
27562W        W99822   4.333  29.145   2.290
27563W        W99823  31.991  12.843   9.956
27564W        W99824  43.910   0.293  12.419
27565W        W99825   6.843  36.931  10.534
27566W        W99826  16.587  20.608   4.173
27567W        W99827   7.398  37.919  11.456
27568W        W99828  25.021  21.723  11.385
27569W        W99829   9.392   8.401  14.336
27570W        W99830  44.301  12.611  10.953
27571W        W99831  38.335  17.215  14.997
27572W        W99832  28.949  35.907  13.413
27573W        W99833  13.614   8.358   4.243
27574W        W99834   8.665  37.832  13.814
27575W        W99835  40.039  16.242   0.956
27576W        W99836   4.863  12.798   2.828
27577W        W99837   0.829  34.460   3.633
27578W        W99838  19.718  27.978   1.786
27579W        W99839  17.223   7.761  10.558
27580W        W99840  17.622  10.672   1.218
27581W        W99841  35.405  37.404  11.968
27582W        W99842  15.272  22.558  10.432
27583W        W99843  12.262  37.060  11.995
27584W        W99844  38.824  35.433  11.919
27585W        W99845   5.880  16.637  13.527
27586W        W99846  21.029  20.600  11.378
27587W        W99847  18.159  16.302  13.460
27588W        W99848   3.909  23.556  13.937
27589W        W99849  30.645  43.357  14.850
27590W        W99850  12.793   0.258   2.385
27591W        W99851  37.872  40.912   0.833
27592W        W99852  42.328  37.446  13.984
27593W        W99853  43.883   4.908  13.987
27594W        W99854   2.246  31.976   2.181
27595W        W99855  23.162  41.822   0.474
27596W        W99856  42.418  34.554  12.940
27597W        W99857  17.270  12.784  12.497
27598W        W99858  37.472  43.991  12.835
27599W        W99859   3.373  21.061   2.803
27600W        W99860  21.716   4.875  12.536
27601W        W99861  15.703  22.028  10.907
27602W        W99862  34.028  22.197  11.120
27603W        W99863  42.485   7.702  14.795
27604W        W99864  17.582   5.365   2.797
27605W        W99865   7.751  40.529   4.233
27606W        W99866  16.211  17.737  10.427
27607W        W99867  15.766  18.223  14.347
27608W        W99868   2.320   9.848   0.322
27609W        W99869  42.525  38.874   1.806
27610W        W99870   8.753  40.965  10.953
27611W        W99871  19.577  31.146   2.875
27612W        W99872  17.118  43.956  10.431
27613W        W99873  21.021  11.130   0.866
27614W        W99874  24.499  31.898  13.923
27615W        W99875  34.919   4.342  11.863
27616W        W99876  33.429  26.964   3.377
27617W        W99877   7.765  11.793   2.215
27618W        W99878  43.822  30.642  10.527
27619W        W99879  39.525   6.215  12.354
27620W        W99880  24.010  17.294   9.936
27621W        W99881   4.214  42.901  14.863
27622W        W99882  25.536  14.221  13.399
27623W        W99883  35.548   4.407   2.793
27624W        W99884  34.899  35.942   3.328
27625W        W99885   2.333  17.223   2.687
27626W        W99886  30.068  32.952   2.374
27627W        W99887  19.281  37.460  10.569
27628W        W99888   5.838  44.820  14.406
27629W        W99889  43.895   2.946   3.221
27630W        W99890  14.643   0.948  14.015
27631W        W99891   4.812  25.990   3.383
27632W        W99892  44.397  29.054  13.394
27633W        W99893  39.009  11.808   2.792
27634W        W99894  25.550  19.146  10.462
27635W        W99895  36.061  14.109  11.070
27636W        W99896  42.407  39.001   2.238
27637W        W99897  39.856  33.579   3.809
27638W        W99898  37.343  14.629   1.787
27639W        W99899   8.389  38.921  13.527
27640W        W99900   9.290   1.454   1.312
27641W        W99901  11.133  12.286   3.646
27642W        W99902  14.798   5.230  12.347
27643W        W99903   8.676  23.721  14.423
27644W        W99904  14.819   4.921   1.433
27645W        W99905  23.989  26.471   0.870
27646W        W99906  22.251   3.767   0.256
27647W        W99907   7.235  22.710   4.351
27648W        W99908  36.079  12.119   4.297
27649W        W99909   5.774  31.151   0.396
27650W        W99910  26.142   4.739   2.327
27651W        W99911  20.615  33.569  11.954
27652W        W99912  31.503  10.379   4.273
27653W        W99913   5.757  31.904  11.454
27654W        W99914   2.261   3.870   4.814
27655W        W99915  20.731  31.431   0.399
27656W        W99916  18.269  41.384   4.748
27657W        W99917  35.965   2.897  14.810
27658W        W99918  44.961  25.491   2.701
27659W        W99919  39.838   2.233  14.430
27660W        W99920  27.633  34.097  14.857
27661W        W99921  17.236   7.819  13.523
27662W        W99922   2.404  43.804   1.304
27663W        W99923   5.378  28.049  11.954
27664W        W99924   0.916  13.246  13.945
27665W        W99925  35.071  35.879  12.359
27666W        W99926  14.834  22.176   4.642
27667W        W99927  23.163   7.762  11.398
27668W        W99928  30.424  39.340   3.790
27669W        W99929  40.456  23.684  12.387
27670W        W99930  18.285  15.304   2.341
27671W        W99931  36.492  20.580  14.773
27672W        W99932  14.595  24.603   1.918
27673W        W99933  11.796  36.002  13.893
27674W        W99934  14.673   1.838  12.028
27675W        W99935  21.553  13.148  11.915
27676W        W99936  32.398  35.857  11.012
27677W        W99937  10.364  42.778  13.049
27678W        W99938   1.860  37.530   3.851
27679W        W99939  37.395  12.734   4.171
27680W        W99940  16.631  17.765  12.527
27681W        W99941  43.302   3.412  14.474
27682W        W99942  24.148  39.913   9.654
27683W        W99943  35.864  24.175   4.163
27684W        W99944  19.123  15.644   1.839
27685W        W99945  19.126  25.636   1.376
27686W        W99946  43.482  23.671   1.289
27687W        W99947  30.127  23.608  11.496
27688W        W99948   1.357  44.920   4.123
27689W        W99949  27.649  35.001   3.794
27690W        W99950  31.554  41.529   0.316
27691W        W99951  33.887  34.996  13.353
27692W        W99952  42.332  20.701  12.467
27693W        W99953  26.512  38.500   0.809
27694W        W99954   2.378  27.566   1.850
27695W        W99955  30.036   0.321   1.316
27696W        W99956  16.591  41.336   3.380
27697W        W99957  10.788  17.285   1.263
27698W        W99958   2.264  38.543   2.367
27699W        W99959  28.596  31.640   4.339
27700W        W99960   1.334  44.977  13.458
27701W        W99961  43.819   4.325   0.434
27702W        W99962  22.183  20.166   3.641
27703W        W99963   4.394  12.295  13.462
27704W        W99964  25.010   2.798  11.501
27705W        W99965   1.923  18.637  13.310
27706W        W99966  28.116  30.148   5.719
27707W        W99967   6.314  25.564   2.362
27708W        W99968  18.579  11.194  10.926
27709W        W99969  16.098  26.037   1.807
27710W        W99970   8.246  41.977   0.858
27711W        W99971  38.992  14.740   3.722
27712W        W99972  17.780   3.308  12.524
27713W        W99973   5.870  15.610  13.999
27714W        W99974  26.963  29.069  11.594
27715W        W99975  37.485  28.546  14.473
27716W        W99976  10.180  15.627   5.204
27717W        W99977   0.471  17.129   0.967
27718W        W99978  43.795  25.062   2.773
27719W        W99979   5.870  26.065   1.451
27720W        W99980  28.044  32.989   3.329
27721W        W99981  33.551  22.096   4.266
27722W        W99982   7.334  18.652  12.437
27723W        W99983  22.579  21.748   0.793
27724W        W99984  40.504  31.898  10.509
27725W        W99985  44.924  23.223   3.165
27726W        W99986  21.548   8.248   0.472
27727W        W99987   0.759  26.639   3.358
27728W        W99988   5.282  38.870   1.281
27729W        W99989  33.106  29.095   0.882
27730W        W99990  38.331  21.539  13.319
27731W        W99991  37.852  26.995  13.010
27732W        W99992  16.188  23.493   3.859
27733W        W99993   7.217  21.534   2.289
27734W        W99994  10.693   6.424   3.153
27735W        W99995   4.719  33.940  12.358
27736W        W99996   0.877  29.006   3.773
27737W        W99997  34.002   7.735  13.386
27738W        W99998  26.677   9.191   3.850
27739W        W99999   4.252   8.744   4.722
27740W        W    0  26.002  20.088  13.835
27741W        W    1   3.221  39.406   2.346
27742W        W    2  23.505   3.313  14.817
27743W        W    3  13.129  10.243  12.387
27744W        W    4  30.993  34.612   4.686
27745W        W    5  41.824   4.748  11.934
27746W        W    6  22.072  43.516   0.733
27747W        W    7  27.121   5.367   2.746
27748W        W    8  19.211  12.809   2.283
27749W        W    9  34.545  11.176   0.408
27750W        W   10  37.061  32.596  12.951
27751W        W   11  13.830   5.267   3.181
27752W        W   12  27.194  10.722  13.816
27753W        W   13  16.712  40.424   3.765
27754W        W   14  18.628  16.782  12.952
27755W        W   15   4.448  18.729  10.577
27756W        W   16   0.747   1.833   2.763
27757W        W   17  40.506  10.674   2.823
27758W        W   18   9.276  40.459  12.391
27759W        W   19   7.226  26.969   3.211
27760W        W   20   8.694  31.533   3.260
27761W        W   21  26.492  23.552  10.075
27762W        W   22  28.940  33.024   1.730
27763W        W   23  40.379  22.566   2.784
27764W        W   24  23.586  43.994  14.389
27765W        W   25  39.476  11.795   2.287
27766W        W   26  42.947   1.832  11.376
27767W        W   27  35.602   6.248  13.853
27768W        W   28  27.157  27.157   3.347
27769W        W   29  16.073  33.600  13.429
27770W        W   30   8.855  15.274   1.443
27771W        W   31  23.106  41.501  13.379
27772W        W   32   9.223  38.416   1.914
27773W        W   33  32.994  22.568  14.963
27774W        W   34  28.049  36.987   2.329
27775W        W   35  38.027  10.288  12.017
27776W        W   36  44.954  29.652   4.771
27777W        W   37  14.778  21.238   1.799
27778W        W   38  32.965   5.697  11.054
27779W        W   39  19.189  14.186  12.367
27780W        W   40  16.230  38.064  10.582
27781W        W   41  31.443   0.832   0.293
27782W        W   42  25.571   2.300   1.311
27783W        W   43  31.574  22.571  14.316
27784W        W   44  10.348   7.403   4.351
27785W        W   45  32.985  40.509  11.870
27786W        W   46  11.728  26.128   3.814
27787W        W   47  11.839  40.394   5.277
27788W        W   48  12.122   7.415  14.496
27789W        W   49  26.985  33.495   4.143
27790W        W   50  41.911   7.181  11.410
27791W        W   51  26.558   7.275   3.257
27792W        W   52  38.567  40.913   1.744
27793W        W   53  20.711  37.054   3.377
27794W        W   54  16.148  43.932  13.421
27795W        W   55  10.243  21.121   0.754
27796W        W   56  31.954  37.897   2.361
27797W        W   57   3.369  33.555   1.414
27798W        W   58  20.620   1.970  14.910
27799W        W   59  33.093  29.141   2.194
27800W        W   60   9.873   6.238   1.299
27801W        W   61  39.389  40.515   3.808
27802W        W   62  11.639   1.396   1.273
27803W        W   63  32.943  11.810   3.166
27804W        W   64  40.521   8.791   4.338
27805W        W   65  17.123  35.543   1.832
27806W        W   66  26.494  19.247  10.479
27807W        W   67   0.858   5.285  11.863
27808W        W   68  36.412  24.633  12.382
27809W        W   69  19.218   4.211  14.288
27810W        W   70  33.397   9.820   0.306
27811W        W   71  18.208  12.832   3.807
27812W        W   72  20.171  41.009  11.122
27813W        W   73  39.883  44.458   0.767
27814W        W   74   7.734  38.954   2.727
27815W        W   75  23.612  37.505   2.351
27816W        W   76  11.138   3.724   0.840
27817W        W   77   8.771  24.156   2.893
27818W        W   78  28.071  28.436  11.015
27819W        W   79  17.575  33.096  11.388
27820W        W   80  10.765   6.420  11.928
27821W        W   81   8.881  28.589   2.314
27822W        W   82  24.680  26.589  10.894
27823W        W   83   6.849  25.645   3.387
27824W        W   84  37.379  17.605  12.470
27825W        W   85   3.268  24.490   2.282
27826W        W   86  17.168  20.660  10.968
27827W        W   87  42.850  44.404  13.324
27828W        W   88  35.904  24.160   1.390
27829W        W   89   3.732  27.983  14.347
27830W        W   90  13.737  10.198  12.518
27831W        W   91  17.676  34.594   2.256
27832W        W   92  12.227   6.328   0.439
27833W        W   93  22.154  10.641   3.714
27834W        W   94  10.199  40.386  14.904
27835W        W   95   8.700  36.063   3.845
27836W        W   96  25.061  34.516   0.247
27837W        W   97  39.986  26.961  13.337
27838W        W   98   6.846  25.543  11.475
27839W        W   99  39.380   3.865   3.275
27840W        W  100   8.255  21.143  11.079
27841W        W  101  25.708  13.330   2.357
27842W        W  102   8.748   7.320   1.282
27843W        W  103  36.520  30.436  10.055
27844W        W  104  20.269  26.639   3.696
27845W        W  105  41.861  41.021  13.967
27846W        W  106  12.698  31.631  10.895
27847W        W  107  38.369  38.503  11.439
27848W        W  108  43.926  25.518   2.348
27849W        W  109  24.642  43.943  12.837
27850W        W  110  32.562  36.901  13.888
27851W        W  111  32.572   9.779  11.932
27852W        W  112  14.248  23.510   4.301
27853W        W  113  42.471  12.273  13.520
27854W        W  114  17.164   7.368   5.218
27855W        W  115   9.766  39.899   2.689
27856W        W  116   7.882   0.409  12.368
27857W        W  117  18.767  14.169   4.608
27858W        W  118  14.333  10.634   4.203
27859W        W  119   9.296  13.676   1.755
27860W        W  120  23.014   0.957  14.349
27861W        W  121  25.962  29.529  14.320
27862W        W  122  31.902  38.456   0.800
27863W        W  123  13.134   3.447   1.891
27864W        W  124  29.027  28.158  10.561
27865W        W  125  29.570   9.279   1.240
27866W        W  126  42.870   1.824   0.831
27867W        W  127  35.107   1.841  14.826
27868W        W  128  12.336  28.523   3.820
27869W        W  129  10.640  26.577  12.570
27870W        W  130  18.295   9.354   1.791
27871W        W  131  42.970  30.612   4.702
27872W        W  132  41.373  44.991   0.935
27873W        W  133  25.973  23.716   0.967
27874W        W  134  38.875   6.248  11.565
27875W        W  135  29.426  20.764  13.546
27876W        W  136  21.053  17.560  11.600
27877W        W  137  12.772  34.903   3.318
27878W        W  138   6.381  36.898   3.646
27879W        W  139   2.283  17.566   0.276
27880W        W  140  29.486   4.806   5.161
27881W        W  141  10.235  41.351  10.424
27882W        W  142  41.517  34.993   2.818
27883W        W  143   2.743  13.309   4.314
27884W        W  144  19.637  44.305  11.868
27885W        W  145   0.269  44.448   0.934
27886W        W  146  19.577  44.828  12.576
27887W        W  147  11.739  20.158  12.086
27888W        W  148  37.851  26.196   2.748
27889W        W  149  22.229  23.086  11.479
27890W        W  150  13.351  16.223  14.298
27891W        W  151  25.037   5.310   1.699
27892W        W  152   5.879  41.807  13.949
27893W        W  153   4.924  40.876   5.295
27894W        W  154   5.306  26.634  13.886
27895W        W  155   7.319  30.163   1.815
27896W        W  156  28.612  23.729   2.344
27897W        W  157  34.390  38.439  12.349
27898W        W  158  40.409  42.939   2.258
27899W        W  159  27.450  39.472  10.924
27900W        W  160  16.232   9.852   3.825
27901W        W  161  14.295  29.933   1.230
27902W        W  162   1.478  43.798   4.714
27903W        W  163  41.989   7.823   2.747
27904W        W  164  12.679   2.386  11.863
27905W        W  165  23.623  27.132   2.178
27906W        W  166   4.270  10.343   3.271
27907W        W  167   7.340  23.672   1.881
27908W        W  168  15.661   1.744  10.941
27909W        W  169  25.680  12.850  14.495
27910W        W  170  31.083   5.831   1.823
27911W        W  171  36.951  11.332   0.730
27912W        W  172  29.928  42.414  11.488
27913W        W  173  26.596   0.369   2.401
27914W        W  174  10.781  35.951   3.681
27915W        W  175  36.466  42.292  12.550
27916W        W  176  28.478  44.344   4.240
27917W        W  177  43.513  15.189   1.352
27918W        W  178  11.673   9.275  14.015
27919W        W  179  40.828  23.563  12.541
27920W        W  180  33.619  43.501  14.028
27921W        W  181  20.654  23.090  13.834
27922W        W  182  12.682  13.221  14.487
27923W        W  183  20.709  25.638   0.442
27924W        W  184  39.811   2.965  12.564
27925W        W  185  17.077  15.275  11.006
27926W        W  186  14.268  43.922   1.433
27927W        W  187   1.396  30.099  12.038
27928W        W  188  12.204   5.913   0.480
27929W        W  189  41.481  15.595  11.606
27930W        W  190  25.609  34.865   2.675
27931W        W  191  12.773  15.796   5.653
27932W        W  192  15.587  34.913  13.523
27933W        W  193  14.199  35.596  13.003
27934W        W  194  18.629  42.993   2.183
27935W        W  195  36.565  12.152   1.728
27936W        W  196  23.615  37.062   1.884
27937W        W  197  37.929   3.865  10.972
27938W        W  198  37.410  38.511   4.165
27939W        W  199  30.925  42.413   2.714
27940W        W  200  43.873  14.315  13.495
27941W        W  201  44.779   2.850   4.224
27942W        W  202  22.574  12.218   2.768
27943W        W  203  40.915  25.648  13.796
27944W        W  204   8.215  28.024   4.777
27945W        W  205  39.362   3.455   2.206
27946W        W  206  18.547   4.384   3.315
27947W        W  207  21.634   1.825  14.887
27948W        W  208  43.449  39.920  14.926
27949W        W  209  36.853  15.706  13.441
27950W        W  210  15.608   8.262  10.914
27951W        W  211  31.418   8.340  13.485
27952W        W  212  11.802  30.626  10.455
27953W        W  213  19.103   5.204  12.549
27954W        W  214  40.811  27.014   2.407
27955W        W  215  29.664  35.044  11.082
27956W        W  216   1.920   7.706   1.793
27957W        W  217  44.338  11.247   2.841
27958W        W  218  16.295  22.551  11.955
27959W        W  219  10.836  11.750   0.779
27960W        W  220   9.231  14.608  11.075
27961W        W  221   3.365  40.525  12.441
27962W        W  222  23.677  33.061  14.025
27963W        W  223   1.836   2.726   2.846
27964W        W  224  28.004  21.696  14.828
27965W        W  225  43.999  38.984   2.402
27966W        W  226   1.786  43.379  12.960
27967W        W  227  29.659  36.505   3.262
27968W        W  228  18.274  33.928   3.731
27969W        W  229  30.589   7.793   3.333
27970W        W  230  37.551  30.028  11.882
27971W        W  231  34.493  20.241  12.044
27972W        W  232   8.217  13.720  14.806
27973W        W  233  26.957   0.943  14.851
27974W        W  234  25.705  32.442   1.861
27975W        W  235  24.664  29.972   4.707
27976W        W  236   9.359  41.443   4.787
27977W        W  237  40.840  21.543   3.248
27978W        W  238  15.259   3.297   4.800
27979W        W  239   9.298   2.381   1.433
27980W        W  240  12.292   8.729   0.397
27981W        W  241  42.472  13.720   2.199
27982W        W  242   8.780   1.897  13.516
27983W        W  243  43.334  11.824   0.909
27984W        W  244  10.663  29.006   4.783
27985W        W  245  43.437   6.867   2.767
27986W        W  246   9.217  33.567   4.823
27987W        W  247  41.994  27.541   3.771
27988W        W  248   8.241  41.859  13.807
27989W        W  249  13.234  39.399   1.442
27990W        W  250  20.211  32.042  11.504
27991W        W  251  36.043  16.738  13.397
27992W        W  252  37.901  28.474   1.779
27993W        W  253  32.433  43.003   4.145
27994W        W  254  32.926  28.592  12.000
27995W        W  255   0.886  24.104  11.050
27996W        W  256  44.299   3.768   3.670
27997W        W  257  41.860  17.095  10.422
27998W        W  258  42.498  25.685  10.993
27999W        W  259   8.360  33.545  11.574
28000W        W  260  40.901  31.629   0.250
28001W        W  261   3.303  24.122   4.241
28002W        W  262  13.670  28.572  11.607
28003W        W  263  12.195   3.451   4.610
28004W        W  264  16.173  20.538   1.716
28005W        W  265  33.488  22.604   3.647
28006W        W  266  18.149  19.169  10.963
28007W        W  267  21.134  11.220  14.018
28008W        W  268   1.366  27.560  10.623
28009W        W  269  20.731  38.903  14.973
28010W        W  270  18.630  34.993   0.329
28011W        W  271  25.015  30.057   1.269
28012W        W  272  11.223  25.534   4.235
28013W        W  273  34.552  41.897  10.943
28014W        W  274  13.599  14.747   5.768
28015W        W  275  25.004  39.027  10.622
28016W        W  276  24.170   8.752   2.388
28017W        W  277  31.084  19.205  11.903
28018W        W  278  23.023  35.977   5.211
28019W        W  279  14.669  16.712   4.283
28020W        W  280   0.765  27.108   2.664
28021W        W  281  29.572  39.336   4.705
28022W        W  282  44.461  20.195  13.064
28023W        W  283   8.283  12.708   2.681
28024W        W  284   4.714  37.344   0.913
28025W        W  285  28.462   3.312   2.895
28026W        W  286  44.481  18.146  10.599
28027W        W  287  42.011  35.892  12.925
28028W        W  288  15.136  38.383   4.195
28029W        W  289  16.700   6.214   5.307
28030W        W  290  38.044  25.549  11.061
28031W        W  291   7.745  31.921   5.110
28032W        W  292  25.662  29.538   1.264
28033W        W  293  38.852   5.799   0.273
28034W        W  294   1.943  15.293   4.729
28035W        W  295   0.275  44.815  14.389
28036W        W  296  16.226   1.284   1.243
28037W        W  297  32.525   6.898   4.824
28038W        W  298   7.193  37.578   0.397
28039W        W  299  44.959  13.704  12.900
28040W        W  300   0.454  44.987   0.277
28041W        W  301  21.574  19.192  10.065
28042W        W  302  20.711  22.054   0.747
28043W        W  303  33.103  42.448   3.864
28044W        W  304   5.336  27.947   0.305
28045W        W  305  27.133   6.706  11.518
28046W        W  306  25.132  14.123   3.354
28047W        W  307  39.980  32.563  13.528
28048W        W  308  14.677  27.683   2.675
28049W        W  309  16.611  27.944  14.359
28050W        W  310  42.476  34.404   1.885
28051W        W  311  36.850  10.334   3.383
28052W        W  312  32.508  42.463   3.848
28053W        W  313  24.106   3.376  12.960
28054W        W  314  23.599  26.690   2.683
28055W        W  315  17.159  19.549  13.938
28056W        W  316  44.409  25.523  12.872
28057W        W  317   3.407  25.035  12.060
28058W        W  318   3.344  22.503  14.872
28059W        W  319  38.562   9.772  11.074
28060W        W  320  41.305  22.604   4.296
28061W        W  321  32.091   7.863   2.261
28062W        W  322  14.153  44.308  11.404
28063W        W  323  15.683  38.523  13.446
28064W        W  324  28.992  40.460   0.345
28065W        W  325  39.902  41.878  13.801
28066W        W  326  29.116  39.000  13.954
28067W        W  327  20.183  12.346   1.928
28068W        W  328  16.617  30.626   3.163
28069W        W  329  37.394  17.166  12.370
28070W        W  330   2.955  19.138   0.365
28071W        W  331  14.145  15.248  12.449
28072W        W  332  17.239  22.099   1.237
28073W        W  333  39.897  28.499  11.862
28074W        W  334   8.716  19.582  13.995
28075W        W  335  14.125  43.421   0.474
28076W        W  336  24.638  43.488   0.247
28077W        W  337   4.779   8.304   0.818
28078W        W  338  28.999  29.466  14.983
28079W        W  339  16.681  18.228  11.988
28080W        W  340  43.937  16.766   1.424
28081W        W  341  10.355  22.619  12.479
28082W        W  342   6.883  10.833   2.410
28083W        W  343  13.692   6.254  14.504
28084W        W  344  29.173  27.953  14.400
28085W        W  345  36.414  19.226   1.410
28086W        W  346  24.174  32.582  11.371
28087W        W  347  43.398  27.007   0.962
28088W        W  348  27.944  36.971  13.893
28089W        W  349  20.135  10.357  13.955
28090W        W  350  43.935  43.387   1.296
28091W        W  351  38.947  31.129   0.887
28092W        W  352  32.540  33.061  12.432
28093W        W  353  29.976   1.958   0.789
28094W        W  354  24.636  39.835   9.952
28095W        W  355  32.988  32.531   4.206
28096W        W  356  40.391   6.232  12.492
28097W        W  357  17.729  14.610   1.840
28098W        W  358   5.213  36.080   1.269
28099W        W  359  19.622  25.666  10.523
28100W        W  360  11.811  34.557   1.291
28101W        W  361   7.735   0.460  14.938
28102W        W  362   6.355  10.869   0.872
28103W        W  363  33.995   2.353  14.432
28104W        W  364  40.867  12.754  10.569
28105W        W  365  24.499   9.780   1.800
28106W        W  366  24.133   0.258  12.441
28107W        W  367  19.209  35.528  13.387
28108W        W  368  41.295  42.476   1.850
28109W        W  369  39.889  32.623   3.227
28110W        W  370  35.105  39.422  10.587
28111W        W  371  13.679  43.009  10.975
28112W        W  372   1.836  35.439   0.863
28113W        W  373   9.680   8.753   1.726
28114W        W  374  43.913  13.193  10.982
28115W        W  375  14.207  43.291   3.319
28116W        W  376  37.518  31.958   3.252
28117W        W  377  39.976   2.779   4.292
28118W        W  378   2.305  12.313   0.814
28119W        W  379  42.946  41.516   0.417
28120W        W  380  35.923   3.314  11.071
28121W        W  381  43.821  11.242   4.212
28122W        W  382   4.859  40.875  11.376
28123W        W  383  18.647  33.002   3.698
28124W        W  384  44.794  20.696   1.922
28125W        W  385  29.042  42.327   2.395
28126W        W  386  41.500  19.756  13.510
28127W        W  387  29.636  34.029  11.525
28128W        W  388  22.011  17.621   3.272
28129W        W  389  30.921  19.567  10.020
28130W        W  390   2.237  18.623   4.174
28131W        W  391  23.678  36.460  14.017
28132W        W  392  34.103  43.008  13.026
28133W        W  393   7.734  16.315  10.448
28134W        W  394  11.308  26.970  12.969
28135W        W  395  13.735   8.820  12.342
28136W        W  396  33.063  42.366   3.365
28137W        W  397  14.123  36.046  10.433
28138W        W  398  24.619  19.256   3.350
28139W        W  399  43.777  39.423   0.255
28140W        W  400  36.943  40.911  13.868
28141W        W  401  11.760   0.862  10.636
28142W        W  402   2.955  44.940  10.905
28143W        W  403  35.994   3.872  12.431
28144W        W  404  24.152   6.903  12.467
28145W        W  405  20.544  38.906   2.240
28146W        W  406  36.039   8.171  13.995
28147W        W  407  23.205   6.877   1.881
28148W        W  408   4.905  32.061   2.717
28149W        W  409   4.933  20.056   3.869
28150W        W  410  13.175  16.155  14.759
28151W        W  411   9.184  25.690  14.484
28152W        W  412  33.381  37.411  10.491
28153W        W  413  41.975  39.023   2.261
28154W        W  414  27.623   3.375  11.952
28155W        W  415  36.877   7.885  11.379
28156W        W  416  37.410  29.557   1.861
28157W        W  417  44.375  25.978  13.973
28158W        W  418  24.229  43.410  12.510
28159W        W  419  16.111  21.104   1.839
28160W        W  420  27.185  18.706   2.855
28161W        W  421  30.112  19.612   1.895
28162W        W  422  39.513  20.071   2.247
28163W        W  423  40.479  19.606  11.872
28164W        W  424  20.137  18.242  10.924
28165W        W  425  12.729  43.834  13.317
28166W        W  426  16.767  44.370  11.539
28167W        W  427   5.351  26.025  14.849
28168W        W  428  24.599  30.064   1.935
28169W        W  429  33.463  26.584  13.805
28170W        W  430  39.507  24.714   2.869
28171W        W  431  35.496   9.811   2.744
28172W        W  432  41.990  29.586   0.449
28173W        W  433  29.524  12.116   1.428
28174W        W  434  33.602  23.557   1.700
28175W        W  435  23.010  43.423  10.925
28176W        W  436   1.370  44.971  13.858
28177W        W  437  27.942  36.096   2.841
28178W        W  438  27.148  32.919  13.497
28179W        W  439  21.092  41.997   2.720
28180W        W  440  13.119  11.855  10.424
28181W        W  441   4.864  36.484  13.327
28182W        W  442  27.470  40.304   5.579
28183W        W  443  13.257  30.425   0.882
28184W        W  444   5.752  12.662  11.592
28185W        W  445  16.666   1.932   3.870
28186W        W  446  39.960  33.011   4.807
28187W        W  447   8.761  29.540   1.259
28188W        W  448  34.445  36.586   2.236
28189W        W  449  27.597  36.979  14.818
28190W        W  450  12.249  24.102  12.032
28191W        W  451   8.347   7.239  14.354
28192W        W  452   4.861  13.254  14.412
28193W        W  453  25.654  27.153   3.156
28194W        W  454  43.804  38.397   3.174
28195W        W  455  42.315  36.542  13.969
28196W        W  456  34.087   5.227  11.952
28197W        W  457  34.904  11.318   2.678
28198W        W  458  29.566  26.174   2.410
28199W        W  459  37.889  30.120  10.467
28200W        W  460  39.982  26.604   2.663
28201W        W  461   7.849  33.021   3.832
28202W        W  462  34.501   1.435  13.323
28203W        W  463  31.474   3.256   3.192
28204W        W  464  42.445  41.791  12.018
28205W        W  465  21.755   2.793  14.900
28206W        W  466  23.514   8.326  12.855
28207W        W  467  16.728   2.767  11.388
28208W        W  468   6.372  44.445  12.370
28209W        W  469   5.201  29.659  13.054
28210W        W  470  40.463  21.559   3.247
28211W        W  471   3.357  21.570   1.374
28212W        W  472  10.366  37.422   1.829
28213W        W  473  24.670  13.621  13.367
28214W        W  474  34.411  39.871  11.088
28215W        W  475  10.346  12.850   2.381
28216W        W  476  25.019  31.496   4.758
28217W        W  477  40.856  29.003  13.351
28218W        W  478  16.759  34.536   2.824
28219W        W  479  29.624   8.284  13.984
28220W        W  480  30.986  39.469  10.493
28221W        W  481  15.783  16.084  13.866
28222W        W  482   8.369   1.272  14.352
28223W        W  483   1.298  28.000  12.939
28224W        W  484  19.098  41.396   3.709
28225W        W  485  43.309  37.365  12.029
28226W        W  486  26.142  23.057   1.779
28227W        W  487  35.360   4.811   0.260
28228W        W  488  20.198   8.165  12.045
28229W        W  489  14.299  40.030   1.380
28230W        W  490   6.384  18.223  13.480
28231W        W  491  31.904  25.703   0.814
28232W        W  492  28.110  34.383  12.035
28233W        W  493  21.625  41.000   3.378
28234W        W  494  13.661  10.140  14.880
28235W        W  495  40.877  32.087   3.378
28236W        W  496  17.702  40.542   3.349
28237W        W  497  15.175  44.831   1.379
28238W        W  498   0.324  33.042   0.903
28239W        W  499  22.672  30.158   0.853
28240W        W  500  14.331   9.234  13.039
28241W        W  501  41.410  25.599  13.316
28242W        W  502   5.342  26.639  13.507
28243W        W  503  11.709  15.659   2.801
28244W        W  504  25.198  33.064  12.064
28245W        W  505  31.925  18.271  10.955
28246W        W  506   2.894  25.700   4.168
28247W        W  507  34.001  43.326  13.029
28248W        W  508   5.843  20.083   0.877
28249W        W  509   7.707  15.087   1.361
28250W        W  510   1.461   1.741  13.409
28251W        W  511  12.324   1.332  13.524
28252W        W  512  18.072   2.348   0.388
28253W        W  513  23.730  30.937  11.431
28254W        W  514  36.914  40.040   3.227
28255W        W  515  14.706  20.556  14.281
28256W        W  516  32.595   0.856   2.338
28257W        W  517  31.475  37.925   0.366
28258W        W  518  38.385  27.637   3.254
28259W        W  519   5.899   4.302   2.291
28260W        W  520  44.935  27.652   4.801
28261W        W  521   6.863  14.217   3.146
28262W        W  522  14.175  44.835  13.331
28263W        W  523  39.036   8.782  10.459
28264W        W  524   6.763  41.341  11.462
28265W        W  525  27.099  33.504  14.009
28266W        W  526  40.387   5.275  13.498
28267W        W  527  19.270   0.332   2.382
28268W        W  528  43.923  36.963   1.799
28269W        W  529   3.945   9.875  10.630
28270W        W  530  43.387  12.224  12.840
28271W        W  531   1.435  35.960  11.999
28272W        W  532  20.525   7.188  14.981
28273W        W  533  34.011  11.743   9.983
28274W        W  534  32.610  42.352   2.359
28275W        W  535  36.007  37.364  13.454
28276W        W  536  26.666   3.250  10.440
28277W        W  537  18.733  34.967  11.455
28278W        W  538   2.793  31.937  14.365
28279W        W  539  40.852   9.365   4.606
28280W        W  540  20.648  44.885   1.356
28281W        W  541  36.877  23.663   3.146
28282W        W  542  26.023  41.530  12.575
28283W        W  543  36.865   0.838   2.691
28284W        W  544  28.457   5.331   4.729
28285W        W  545  22.246  39.422  12.410
28286W        W  546   3.287  34.567   0.390
28287W        W  547  10.711  19.762   1.832
28288W        W  548  17.597  37.499  14.409
28289W        W  549  13.232  23.023   3.806
28290W        W  550  43.001  15.797   2.386
28291W        W  551  18.280  39.013  14.908
28292W        W  552  42.371   7.360   2.755
28293W        W  553  15.132  22.038  13.053
28294W        W  554  15.210  31.991   1.932
28295W        W  555   0.938  43.324  13.919
28296W        W  556  43.836   1.330  13.989
28297W        W  557  16.633  37.990  14.028
28298W        W  558  11.332  19.555   0.793
28299W        W  559  34.607  39.322  10.929
28300W        W  560  11.203  39.834  14.032
28301W        W  561  10.380  21.681   5.115
28302W        W  562  15.744  18.578  13.961
28303W        W  563  11.360  43.274  13.329
28304W        W  564   4.353  19.600  10.503
28305W        W  565  13.263  13.782   0.312
28306W        W  566   1.262  31.450  10.616
28307W        W  567   6.406  27.679  10.026
28308W        W  568   8.818  40.350   0.853
28309W        W  569  27.073  13.842  12.365
28310W        W  570  26.482  20.193   3.657
28311W        W  571  21.554  26.671   3.863
28312W        W  572  20.737  28.116   1.899
28313W        W  573  31.982  44.955   1.845
28314W        W  574   7.763  14.712  10.985
28315W        W  575  22.164  39.021   4.774
28316W        W  576  21.253  18.709   5.206
28317W        W  577  41.426  27.448   2.318
28318W        W  578   1.317  35.014   4.208
28319W        W  579  34.576  26.475  14.463
28320W        W  580  40.878  13.301  11.466
28321W        W  581  21.051  24.500  11.953
28322W        W  582  20.160  23.120   3.243
28323W        W  583  10.145  24.025   2.787
28324W        W  584   6.743  25.180   2.881
28325W        W  585  24.018   5.802  14.325
28326W        W  586  33.457  16.217  14.877
28327W        W  587   9.240  33.970  14.922
28328W        W  588  30.929  33.395  11.040
28329W        W  589  34.062  42.521   0.435
28330W        W  590  30.579  35.060   1.869
28331W        W  591  17.250  10.163  12.940
28332W        W  592   9.381  26.585  10.048
28333W        W  593  35.372  32.521  13.478
28334W        W  594  27.473  19.065   0.376
28335W        W  595  30.495  20.575  11.882
28336W        W  596   9.705  17.201   4.818
28337W        W  597  19.548  28.067   3.651
28338W        W  598  19.630   2.780   4.296
28339W        W  599  43.849   8.367  12.005
28340W        W  600  12.117  26.687  10.988
28341W        W  601  21.602  22.182   0.336
28342W        W  602  29.042  25.119   3.683
28343W        W  603  26.698   4.784   0.781
28344W        W  604   7.793  25.614  13.946
28345W        W  605   4.713   0.367   1.819
28346W        W  606  16.625   9.863  10.961
28347W        W  607  11.273  25.704   0.386
28348W        W  608   5.793  44.866  13.903
28349W        W  609  25.123  19.206  12.964
28350W        W  610  35.410  41.325   2.388
28351W        W  611  26.634   4.726  11.574
28352W        W  612  10.295  36.535  10.626
28353W        W  613  15.162  14.112  14.457
28354W        W  614  33.064  20.553  12.064
28355W        W  615  19.609  27.629  12.443
28356W        W  616  37.937  24.008  12.020
28357W        W  617  43.880  41.909  14.382
28358W        W  618  13.172  44.487   1.899
28359W        W  619  22.035   2.756  10.454
28360W        W  620  42.447  17.260  13.020
28361W        W  621  13.337  13.640  13.973
28362W        W  622  44.313   7.807   1.436
28363W        W  623  39.487  40.477   4.608
28364W        W  624  24.147   3.327   3.720
28365W        W  625   6.826  18.712   1.401
28366W        W  626   8.324  26.033   4.316
28367W        W  627   5.892  15.277   2.213
28368W        W  628  16.707  38.031   1.912
28369W        W  629  36.007   2.881   2.333
28370W        W  630  17.294  33.554   0.791
28371W        W  631   4.210  25.544   4.656
28372W        W  632  32.390  30.096  12.825
28373W        W  633   6.209  34.579  10.503
28374W        W  634  15.196  25.489  11.427
28375W        W  635   8.782  18.553   4.661
28376W        W  636  10.643  22.203  10.513
28377W        W  637   7.210  37.860   0.248
28378W        W  638   1.455  17.769   0.297
28379W        W  639  21.048  36.865  10.551
28380W        W  640   5.777  32.907   2.874
28381W        W  641  19.082  27.074  14.294
28382W        W  642  34.078  36.945   1.284
28383W        W  643   8.787  26.098   1.747
28384W        W  644  33.903  39.853  11.396
28385W        W  645  11.234  38.398   1.742
28386W        W  646  28.488   5.354   2.728
28387W        W  647  17.137   7.717   2.293
28388W        W  648  20.183  43.340   0.294
28389W        W  649  40.323  14.804   1.774
28390W        W  650   1.370  37.016  12.408
28391W        W  651  22.035  20.136  13.374
28392W        W  652   2.793   6.301  14.474
28393W        W  653   7.904  25.662   2.182
28394W        W  654   0.488  44.475   1.732
28395W        W  655   7.220  30.141  12.351
28396W        W  656  33.384  32.464  13.497
28397W        W  657  27.191  40.993  12.037
28398W        W  658   8.199  18.077   1.721
28399W        W  659  44.368  27.449  10.588
28400W        W  660  24.584   3.811   1.781
28401W        W  661  32.114  13.613  12.939
28402W        W  662   2.413  40.870  14.977
28403W        W  663  33.109  33.490  13.387
28404W        W  664  32.474  18.182   3.698
28405W        W  665  28.543  40.970   3.281
28406W        W  666   3.724  28.525  12.572
28407W        W  667   7.318  34.026  11.887
28408W        W  668   7.343  18.571   1.867
28409W        W  669  26.147  16.154  11.047
28410W        W  670  16.641   4.939   2.704
28411W        W  671  32.516  39.354  14.287
28412W        W  672  12.207  17.234  12.947
28413W        W  673  14.619  41.938   0.823
28414W        W  674  14.708  37.548  11.612
28415W        W  675  26.663  31.464  10.568
28416W        W  676  43.309   1.248   1.289
28417W        W  677  14.633  31.953   0.912
28418W        W  678   2.282   7.194  10.951
28419W        W  679  44.455  15.799  11.445
28420W        W  680  27.013  34.427  13.371
28421W        W  681  27.051  31.559  13.477
28422W        W  682   9.665  27.609  12.944
28423W        W  683  33.919  28.676  11.496
28424W        W  684  29.127  34.983  13.324
28425W        W  685   4.916  10.282  10.901
28426W        W  686  44.384  21.120   0.295
28427W        W  687   9.387  27.116   3.826
28428W        W  688  21.167  39.010  13.334
28429W        W  689  39.510  38.075  13.807
28430W        W  690  31.434  35.873  14.409
28431W        W  691  20.091  10.164  13.372
28432W        W  692  18.097  19.670  14.293
28433W        W  693   5.246  21.061   1.220
28434W        W  694  35.405  14.222   0.879
28435W        W  695  10.826  37.002   0.887
28436W        W  696  37.521  39.440  12.093
28437W        W  697  25.621  29.107   3.720
28438W        W  698  34.561   5.711   4.635
28439W        W  699  21.700  19.128   1.389
28440W        W  700  34.119  12.315  14.303
28441W        W  701   0.772   0.424   0.861
28442W        W  702  22.741  39.369  14.403
28443W        W  703  24.482  37.856   1.257
28444W        W  704   5.800  19.164  13.534
28445W        W  705  38.047  25.646   4.628
28446W        W  706  24.709   5.292  14.411
28447W        W  707   3.876  11.684   3.808
28448W        W  708  38.429  43.942  12.911
28449W        W  709  17.801  29.512  14.945
28450W        W  710  42.994   6.382  14.882
28451W        W  711  44.756  22.642  14.419
28452W        W  712  24.640  19.563   0.926
28453W        W  713  34.557   9.741  10.488
28454W        W  714  27.586  27.951   3.667
28455W        W  715  32.002  30.988  13.347
28456W        W  716  41.332  24.986  11.425
28457W        W  717  44.954  22.513  11.532
28458W        W  718   5.348  24.639   4.677
28459W        W  719   6.308  41.405   2.866
28460W        W  720  24.017  29.634   1.266
28461W        W  721  19.170  15.176   1.430
28462W        W  722  43.510  26.057  11.008
28463W        W  723  15.272  10.250   3.248
28464W        W  724  17.133  16.786  14.828
28465W        W  725  38.984   9.250  13.486
28466W        W  726   6.274  36.519  12.500
28467W        W  727  41.409  44.875  11.476
28468W        W  728  36.401  11.286   0.314
28469W        W  729  11.322  20.088   1.352
28470W        W  730  15.112  22.081  13.467
28471W        W  731  11.743   2.864  11.039
28472W        W  732  22.572  24.562   0.277
28473W        W  733  19.155  18.615  13.877
28474W        W  734  29.618  42.323  14.974
28475W        W  735  44.262  19.053   1.842
28476W        W  736  18.688  32.092   9.978
28477W        W  737   7.719  35.553  10.493
28478W        W  738  24.093  19.261   0.329
28479W        W  739   5.709  41.963  12.027
28480W        W  740  14.228   4.760  13.811
28481W        W  741  14.295  22.252   1.916
28482W        W  742  13.270  42.387   3.805
28483W        W  743  30.140  35.937  11.560
28484W        W  744   8.900  27.454   1.451
28485W        W  745  32.573   9.210  11.998
28486W        W  746  16.110  16.780   1.747
28487W        W  747   3.395  16.767  14.410
28488W        W  748   0.444   4.266  12.401
28489W        W  749  40.504  25.678   2.756
28490W        W  750  34.401  19.549  12.057
28491W        W  751  11.164  43.993  10.419
28492W        W  752   1.248  23.064   3.832
28493W        W  753  39.431  33.426   4.149
28494W        W  754   4.731   1.249  11.448
28495W        W  755  32.479  19.634  14.440
28496W        W  756  38.892  29.438   3.380
28497W        W  757  24.481   7.185  12.530
28498W        W  758  28.005  40.943  13.009
28499W        W  759   0.946   7.771   4.145
28500W        W  760  18.100  11.766   4.763
28501W        W  761  40.808  42.512  14.972
28502W        W  762  37.008  32.898   3.740
28503W        W  763  41.334  38.404   4.259
28504W        W  764   8.311   0.301  10.923
28505W        W  765  31.449  41.836   3.686
28506W        W  766  15.808  21.203  10.542
28507W        W  767  36.872   3.427  11.478
28508W        W  768  35.374  13.347   3.847
28509W        W  769  16.213  42.947  12.922
28510W        W  770  41.513  30.986   1.834
28511W        W  771   2.743   8.239  14.948
28512W        W  772  17.220  40.863   4.210
28513W        W  773  33.404   8.359   0.296
28514W        W  774  12.814  44.999  12.339
28515W        W  775  31.133  38.868   4.820
28516W        W  776  15.781  31.986   0.468
28517W        W  777   1.443   5.776   0.442
28518W        W  778  17.267   5.855   5.267
28519W        W  779  17.143  17.095   0.394
28520W        W  780  38.865  34.522   2.792
28521W        W  781  39.339  34.440  14.923
28522W        W  782  29.541   7.759   0.836
28523W        W  783   1.379   0.264  11.933
28524W        W  784   4.832  33.623  12.484
28525W        W  785   4.749  18.287  12.396
28526W        W  786  17.615   8.844  14.293
28527W        W  787   0.910  44.470  12.970
28528W        W  788   5.897  43.466  10.482
28529W        W  789  22.202  19.072   3.162
28530W        W  790  31.135  39.051  14.388
28531W        W  791   2.944  15.768   4.793
28532W        W  792  38.931  29.169   2.736
28533W        W  793  21.106  23.099   5.314
28534W        W  794   2.728  40.320   0.906
28535W        W  795  44.272  16.169   4.186
28536W        W  796  13.645  25.599   2.323
28537W        W  797  31.485  21.684   0.794
28538W        W  798   4.852  38.427  14.862
28539W        W  799  40.537  40.532  13.379
28540W        W  800   0.281  31.514   4.834
28541W        W  801  25.196  10.748  14.985
28542W        W  802  18.695  37.377   0.381
28543W        W  803   4.279  24.186   4.306
28544W        W  804  28.121  30.533   0.354
28545W        W  805  35.524   3.446   1.838
28546W        W  806   2.855  35.500  11.053
28547W        W  807  23.521   7.231  12.057
28548W        W  808   4.447  40.321   0.754
28549W        W  809  12.659  11.237   1.826
28550W        W  810   2.460   0.348  13.434
28551W        W  811  15.326  37.556  12.876
28552W        W  812  11.245   8.320   1.367
28553W        W  813  32.567  25.089   4.665
28554W        W  814  33.924  21.101   5.583
28555W        W  815  44.876  30.557   2.782
28556W        W  816  33.546  33.947   2.686
28557W        W  817   9.264  10.816   0.406
28558W        W  818  31.905   3.795  13.815
28559W        W  819  31.464  33.896   2.249
28560W        W  820   7.787  38.973   3.748
28561W        W  821  14.674  16.608  12.843
28562W        W  822  44.318  19.766  14.970
28563W        W  823  38.388  18.743   4.644
28564W        W  824  21.211  33.065   0.311
28565W        W  825  43.392  13.702  11.943
28566W        W  826   0.266   9.701  10.512
28567W        W  827  11.324  36.097   4.217
28568W        W  828   0.491  17.124  13.409
28569W        W  829  20.596   3.752   0.401
28570W        W  830  19.196  34.603  10.999
28571W        W  831  22.995  41.424  13.826
28572W        W  832  14.165   5.312   3.680
28573W        W  833  34.375  31.925   4.636
28574W        W  834   1.825  41.825   3.274
28575W        W  835  14.785  17.295   1.715
28576W        W  836   0.290  10.748   3.382
28577W        W  837  40.387  12.651   4.160
28578W        W  838  40.913  35.866   4.732
28579W        W  839  44.976  42.913   1.757
28580W        W  840  33.458  17.272  11.092
28581W        W  841  15.123   0.381  11.404
28582W        W  842  42.347   1.833  11.535
28583W        W  843  11.708  34.530   2.810
28584W        W  844  20.713  12.244   2.734
28585W        W  845  33.059  16.225  14.924
28586W        W  846  23.531  12.692  10.949
28587W        W  847  40.398  22.171   1.374
28588W        W  848  37.492  12.815  12.840
28589W        W  849  14.745  16.264   3.288
28590W        W  850   0.316  37.551  12.011
28591W        W  851  17.090  10.177   0.331
28592W        W  852  22.607  25.605   5.218
28593W        W  853   8.200   5.727   3.260
28594W        W  854   0.303  31.045  10.419
28595W        W  855  15.613  15.304  14.501
28596W        W  856   6.828  34.945   2.240
28597W        W  857  33.030  35.931   1.913
28598W        W  858  28.948  29.639   2.371
28599W        W  859  35.392  44.491  11.489
28600W        W  860  26.645  40.904   2.684
28601W        W  861  29.601  17.715  10.981
28602W        W  862   6.243  38.900   4.119
28603W        W  863  15.626  25.153  11.951
28604W        W  864   1.267  12.727  10.613
28605W        W  865  16.229  19.693   0.799
28606W        W  866  38.439  37.535   1.870
28607W        W  867  36.905  41.441   4.249
28608W        W  868  12.801  29.635   3.238
28609W        W  869  41.958  29.651   3.355
28610W        W  870  27.644  42.381   1.844
28611W        W  871  25.126  30.471  11.030
28612W        W  872  12.163  18.710  10.941
28613W        W  873  12.186  44.378   0.257
28614W        W  874  22.126  30.084  12.570
28615W        W  875   8.663  43.872   2.418
28616W        W  876  32.913  22.214   2.738
28617W        W  877   7.834  26.491  12.544
28618W        W  878  18.667   4.805  12.996
28619W        W  879  23.720  37.393   3.241
28620W        W  880  16.307  32.596  12.862
28621W        W  881   3.392  38.329  10.414
28622W        W  882  28.497   0.266  13.515
28623W        W  883  33.098  19.041   0.930
28624W        W  884  42.931  12.723   4.812
28625W        W  885  25.616   4.861   4.244
28626W        W  886  25.516   2.438  10.553
28627W        W  887  15.811  21.236  14.428
28628W        W  888   9.300  32.601   4.814
28629W        W  889  16.679  43.841   4.318
28630W        W  890  23.642  35.865   4.720
28631W        W  891  12.815   0.825  13.476
28632W        W  892  43.881  14.249   1.809
28633W        W  893  37.865   0.794  14.480
28634W        W  894  29.600  23.072   1.770
28635W        W  895   8.705   1.812   3.310
28636W        W  896  24.176  37.385  13.836
28637W        W  897  39.540   2.320   2.239
28638W        W  898  32.408  24.036  14.488
28639W        W  899  22.156  41.478   1.739
28640W        W  900  24.029  41.994   4.650
28641W        W  901  41.794   5.347   2.688
28642W        W  902  34.943  34.553  14.765
28643W        W  903  39.921  15.605   1.828
28644W        W  904  33.000  44.966  12.927
28645W        W  905  18.637  39.831  11.421
28646W        W  906  22.006   2.363   4.796
28647W        W  907  38.366  12.642  11.077
28648W        W  908  37.987  31.974  11.086
28649W        W  909  19.102   0.825  11.877
28650W        W  910  26.014   1.953  12.918
28651W        W  911  12.269  32.546   4.197
28652W        W  912   1.745  13.246   2.267
28653W        W  913  13.720  20.547   2.751
28654W        W  914  19.236  25.966   0.912
28655W        W  915   9.286  32.928   1.894
28656W        W  916  26.959   8.768   3.689
28657W        W  917  39.519  13.761   4.722
28658W        W  918  15.299  25.470  12.092
28659W        W  919  24.523  29.609  14.955
28660W        W  920   5.312  19.083  12.487
28661W        W  921  31.565  34.588   1.340
28662W        W  922  20.728  34.082  12.045
28663W        W  923  29.048  40.386   2.371
28664W        W  924   9.856   7.851  14.009
28665W        W  925  22.170  13.277   0.272
28666W        W  926  23.594  27.019   1.757
28667W        W  927  18.127  44.496   3.237
28668W        W  928  18.056  17.233   3.721
28669W        W  929   5.323  28.459  13.419
28670W        W  930  11.247  15.194  12.945
28671W        W  931  10.280  21.030  12.379
28672W        W  932  33.093  27.128   3.861
28673W        W  933   1.422   8.160   3.296
28674W        W  934  32.052  42.485  14.405
28675W        W  935  20.699  17.781   4.291
28676W        W  936  24.073  24.648   2.795
28677W        W  937  26.955  24.083   1.823
28678W        W  938  30.979   3.805   0.309
28679W        W  939   3.889  43.459  13.499
28680W        W  940  16.081   9.774  13.880
28681W        W  941  22.640  14.131   5.283
28682W        W  942  44.270  10.272   3.827
28683W        W  943  17.679  41.306  12.882
28684W        W  944   0.905  29.669  11.060
28685W        W  945  40.994  11.727  11.897
28686W        W  946  22.119  21.753  10.097
28687W        W  947  42.028   9.652  12.370
28688W        W  948  23.508   9.784  11.961
28689W        W  949   1.817   7.305   2.417
28690W        W  950  34.458  35.857   4.291
28691W        W  951  31.620   4.885   2.852
28692W        W  952  26.207  43.279  14.774
28693W        W  953   2.453   1.779   3.270
28694W        W  954  23.196  32.035   3.746
28695W        W  955  25.650   4.757  11.990
28696W        W  956  21.592  13.739  13.031
28697W        W  957  19.625  24.642   0.245
28698W        W  958   3.709  20.143   2.299
28699W        W  959  24.008  39.345  12.941
28700W        W  960  30.131   2.294   0.792
28701W        W  961   9.201  41.855  12.963
28702W        W  962  26.504  13.816   0.839
28703W        W  963  16.781   5.239   4.125
28704W        W  964   6.320   2.425  12.942
28705W        W  965  15.200  33.624   3.849
28706W        W  966   2.365  18.683   2.372
28707W        W  967  42.966  38.976   1.319
28708W        W  968  13.632  24.025   1.434
28709W        W  969   9.255  35.968  10.478
28710W        W  970  23.160  13.605  11.575
28711W        W  971  41.528  42.924  14.313
28712W        W  972  24.009   8.229   0.741
28713W        W  973   0.303  13.737   2.387
28714W        W  974  27.463  10.772  10.431
28715W        W  975  24.113  32.928   4.326
28716W        W  976   9.334  19.101   4.693
28717W        W  977   8.688  34.014  11.386
28718W        W  978   8.286  43.327   2.284
28719W        W  979  14.250   6.196   0.317
28720W        W  980  18.644  44.763  12.922
28721W        W  981  12.652  13.628   0.852
28722W        W  982   5.298  28.109   3.766
28723W        W  983  30.970  27.602   3.735
28724W        W  984   2.799  32.943   1.362
28725W        W  985   8.734  17.670   0.743
28726W        W  986  32.888  44.320  10.912
28727W        W  987   0.335  17.729  12.876
28728W        W  988  20.668  37.507   3.235
28729W        W  989  13.137  40.890   1.712
28730W        W  990  32.511  24.608  12.899
28731W        W  991   7.216   7.251  11.574
28732W        W  992  20.680   5.338  13.992
28733W        W  993  36.880  29.505  14.464
28734W        W  994  17.277  37.906  10.483
28735W        W  995  27.041   0.477  13.005
28736W        W  996  21.641  27.677   1.902
28737W        W  997   2.287  32.021   4.121
28738W        W  998  41.439   3.375  10.558
28739W        W  999  17.617  10.682   4.123
28740W        W 1000  24.640  12.211  10.536
28741W        W 1001  18.101  29.959  10.511
28742W        W 1002  27.680  17.784  10.970
28743W        W 1003  39.883  31.416  13.981
28744W        W 1004  43.926   1.428   1.785
28745W        W 1005  40.050  26.594  10.936
28746W        W 1006  35.868   4.393   4.263
28747W        W 1007  38.826   2.355   4.148
28748W        W 1008  38.841   4.417  12.065
28749W        W 1009  16.721  44.309  11.914
28750W        W 1010   4.796  30.639  14.951
28751W        W 1011   5.306  33.971  12.417
28752W        W 1012  22.237  21.631  14.000
28753W        W 1013  27.179   7.185  14.350
28754W        W 1014  17.609  38.560  14.842
28755W        W 1015  34.926  16.108  14.300
28756W        W 1016  12.196  26.185  10.598
28757W        W 1017   7.201   1.773  14.820
28758W        W 1018  33.490  24.097  13.883
28759W        W 1019  29.534   0.953  12.973
28760W        W 1020   1.417  40.817  11.456
28761W        W 1021   9.861  19.186  12.526
28762W        W 1022  35.970  23.186   3.660
28763W        W 1023  42.434   8.745  11.441
28764W        W 1024  43.495   8.375  11.862
28765W        W 1025  23.670  26.642  13.512
28766W        W 1026  11.333  44.877   0.771
28767W        W 1027  32.412  12.836   1.805
28768W        W 1028  17.777  10.307  14.451
28769W        W 1029  28.062  28.954  10.423
28770W        W 1030  25.031  36.973   0.860
28771W        W 1031   3.293  35.917   0.806
28772W        W 1032  21.134  36.369   5.116
28773W        W 1033  17.082  11.201  10.602
28774W        W 1034  42.886   3.448  13.954
28775W        W 1035   0.419  30.593   4.225
28776W        W 1036  22.099  32.070   1.907
28777W        W 1037   7.392  26.096  12.877
28778W        W 1038   2.863   2.845  12.980
28779W        W 1039  19.217  37.543  14.854
28780W        W 1040  17.156  13.105   4.118
28781W        W 1041  39.056  15.171   2.896
28782W        W 1042   2.343  38.513   1.218
28783W        W 1043  22.008  29.628  11.589
28784W        W 1044  21.223  33.983  14.973
28785W        W 1045  44.275  15.199  10.576
28786W        W 1046  37.364   7.830   4.125
28787W        W 1047   9.774  38.450   2.372
28788W        W 1048  22.006   9.296   3.264
28789W        W 1049  41.018  41.994  11.041
28790W        W 1050  12.138  41.389  14.437
28791W        W 1051  29.479  43.938  12.355
28792W        W 1052  14.815  17.718  13.004
28793W        W 1053  22.657   6.374   4.712
28794W        W 1054  24.552  30.501  11.006
28795W        W 1055   4.884   8.679   4.681
28796W        W 1056  38.382   4.713   3.732
28797W        W 1057  34.961  44.381  14.447
28798W        W 1058   8.378  21.052  12.545
28799W        W 1059  43.339  28.522   1.700
28800W        W 1060   3.293  24.067   3.803
28801W        W 1061  11.858  33.404  14.362
28802W        W 1062  27.129   9.384  10.408
28803W        W 1063   4.410   0.963  12.839
28804W        W 1064  37.001  10.800   4.598
28805W        W 1065  40.840  38.955  11.076
28806W        W 1066  16.617  23.500   3.741
28807W        W 1067  43.991  20.179   0.325
28808W        W 1068  39.346  36.069  14.883
28809W        W 1069  21.616  33.444  11.043
28810W        W 1070  19.194  14.677  12.936
28811W        W 1071  31.011  14.148   2.740
28812W        W 1072   8.217  10.734  12.462
28813W        W 1073  19.218  35.440  14.877
28814W        W 1074   6.339  17.685  12.560
28815W        W 1075  27.054  34.895  11.451
28816W        W 1076  24.531  41.446  13.992
28817W        W 1077   8.290  35.074  12.433
28818W        W 1078   1.744  37.842   2.335
28819W        W 1079  40.461  35.601   1.381
28820W        W 1080  33.122  43.277   0.872
28821W        W 1081  33.412  30.476   3.189
28822W        W 1082  42.319   7.717  10.464
28823W        W 1083  38.048  41.972  13.809
28824W        W 1084  16.268  12.614   3.282
28825W        W 1085   8.694  24.720   2.838
28826W        W 1086  10.143  21.637   2.804
28827W        W 1087  44.424   8.706  11.022
28828W        W 1088  28.982  38.495   3.336
28829W        W 1089  13.829  39.910   3.793
28830W        W 1090  31.989  36.919  12.407
28831W        W 1091  32.409  40.928   0.286
28832W        W 1092  26.992   7.380   3.341
28833W        W 1093  15.200  12.717   4.276
28834W        W 1094  10.672  35.363  13.956
28835W        W 1095   7.710   6.256  14.866
28836W        W 1096  35.080   0.896   2.284
28837W        W 1097  17.643  22.035   4.169
28838W        W 1098   6.238  26.032  13.800
28839W        W 1099  22.166  21.591   3.647
28840W        W 1100   5.699  36.989  11.383
28841W        W 1101   0.261  30.432   4.664
28842W        W 1102   8.267  22.138  13.490
28843W        W 1103   1.302   8.371   1.912
28844W        W 1104  25.580  31.506  13.850
28845W        W 1105  38.566   6.731   9.631
28846W        W 1106  41.961  10.715  12.073
28847W        W 1107  23.627  42.427   2.877
28848W        W 1108  19.746  22.179  12.864
28849W        W 1109   7.239  16.266   0.249
28850W        W 1110   7.337  15.251   4.611
28851W        W 1111   9.887  15.728   4.179
28852W        W 1112  24.723   5.791   0.798
28853W        W 1113   1.394  12.160  12.994
28854W        W 1114   2.341  23.000   4.825
28855W        W 1115  25.588   6.699   2.367
28856W        W 1116   9.704  37.448   1.720
28857W        W 1117  24.085   2.254  11.101
28858W        W 1118  23.594  14.113   4.193
28859W        W 1119   0.791  18.567   3.822
28860W        W 1120  24.197   1.441   3.245
28861W        W 1121  28.954   7.912  12.862
28862W        W 1122  14.220  22.682   5.119
28863W        W 1123  16.233  22.998  13.468
28864W        W 1124  32.492  29.034   1.372
28865W        W 1125  34.038  39.391   2.405
28866W        W 1126  24.625  19.537   1.905
28867W        W 1127   6.906  29.597  13.531
28868W        W 1128  20.659  22.537   0.245
28869W        W 1129  15.244  38.071  12.375
28870W        W 1130  40.409  40.346  11.512
28871W        W 1131  30.446  28.998  14.828
28872W        W 1132  19.060   3.832   4.305
28873W        W 1133  31.110   7.758  10.983
28874W        W 1134  15.169   4.306   4.186
28875W        W 1135  29.040  18.777   1.440
28876W        W 1136  35.096   3.714   0.242
28877W        W 1137   0.794  41.306   4.653
28878W        W 1138  27.664   2.912  12.407
28879W        W 1139  40.868  28.094  14.796
28880W        W 1140  19.650  16.766   1.801
28881W        W 1141  27.036   0.960  10.481
28882W        W 1142  41.813   5.378   0.738
28883W        W 1143   3.415   2.409   3.238
28884W        W 1144  29.645   0.908   0.439
28885W        W 1145  34.927   4.233   4.150
28886W        W 1146  22.509  33.914   0.381
28887W        W 1147   1.463   3.717  14.402
28888W        W 1148  17.684  11.324   4.735
28889W        W 1149  27.944   0.329  10.109
28890W        W 1150   6.869  12.631   4.634
28891W        W 1151  44.917  42.448  12.932
28892W        W 1152  20.528  14.630  10.589
28893W        W 1153  28.954  37.891  11.088
28894W        W 1154  43.374  28.536  12.038
28895W        W 1155   9.669  39.452  12.933
28896W        W 1156  18.242  34.118  13.505
28897W        W 1157   8.688   2.348   4.138
28898W        W 1158   1.423  29.944   2.274
28899W        W 1159  28.132  44.415   4.215
28900W        W 1160  20.105  22.021   4.265
28901W        W 1161  29.563  40.340   3.352
28902W        W 1162   3.886   0.398   5.171
28903W        W 1163  36.357  31.520  12.423
28904W        W 1164  20.218  33.594   5.226
28905W        W 1165  37.417   0.377   3.822
28906W        W 1166  31.426  32.985   0.750
28907W        W 1167   1.339  21.617  10.509
28908W        W 1168  17.104  19.047   3.169
28909W        W 1169  27.122   2.746   0.389
28910W        W 1170  34.398  14.710   2.284
28911W        W 1171   2.847  33.393  11.504
28912W        W 1172   4.225   9.339  13.468
28913W        W 1173  44.986  43.878  14.946
28914W        W 1174  21.100  26.477  14.345
28915W        W 1175  44.355  33.077  11.982
28916W        W 1176  22.082  12.682   1.701
28917W        W 1177  31.530  32.943   2.262
28918W        W 1178   9.658  22.630  10.600
28919W        W 1179  10.839  15.246  11.457
28920W        W 1180  10.705  27.491   2.711
28921W        W 1181  44.310  44.844  12.022
28922W        W 1182  19.154   3.284  11.998
28923W        W 1183   7.291  24.687  10.935
28924W        W 1184  32.917  31.622  13.356
28925W        W 1185  33.473  30.036  12.851
28926W        W 1186  24.099  42.966  10.619
28927W        W 1187   8.369  13.604  13.997
28928W        W 1188   7.892  19.202   3.817
28929W        W 1189   4.840  35.518   3.385
28930W        W 1190  35.510  27.447  12.463
28931W        W 1191  30.583   2.740   4.313
28932W        W 1192  12.139  16.569   1.797
28933W        W 1193  24.504   7.305   3.708
28934W        W 1194   9.382  16.685  11.586
28935W        W 1195  30.946  37.362   2.693
28936W        W 1196   9.155  16.316   4.779
28937W        W 1197   9.687  42.499  12.829
28938W        W 1198  25.092   8.761  10.412
28939W        W 1199  30.572  25.145   4.187
28940W        W 1200  29.617   0.965  13.344
28941W        W 1201   9.391  19.057   0.955
28942W        W 1202  15.678  42.890   4.293
28943W        W 1203  37.840  20.198   0.893
28944W        W 1204  15.283  44.782  13.517
28945W        W 1205  34.517  20.197   0.254
28946W        W 1206  19.210  23.157  10.993
28947W        W 1207   7.314  30.460   4.820
28948W        W 1208  23.582  38.953  11.388
28949W        W 1209  17.192  20.122   0.409
28950W        W 1210  26.006  11.692  14.922
28951W        W 1211  44.294   2.932   3.173
28952W        W 1212  19.556  10.168  10.889
28953W        W 1213  19.142  32.978  10.618
28954W        W 1214  17.177  29.945   2.845
28955W        W 1215  34.593   8.197  13.961
28956W        W 1216  44.776  34.049   4.814
28957W        W 1217   6.257  39.896   3.721
28958W        W 1218  28.947  30.925  13.364
28959W        W 1219  41.854  23.078   1.735
28960W        W 1220  13.237  27.020  13.946
28961W        W 1221  20.223  42.781  12.084
28962W        W 1222  34.086  42.463  13.960
28963W        W 1223  23.166  33.407  11.431
28964W        W 1224   7.259  43.384  10.974
28965W        W 1225  27.170  15.235  12.838
28966W        W 1226  27.665   1.895  12.490
28967W        W 1227  40.980  14.767   0.252
28968W        W 1228  25.510  33.473  14.294
28969W        W 1229   0.427   5.819   3.817
28970W        W 1230  33.573  12.824   3.668
28971W        W 1231   6.866   4.245   0.416
28972W        W 1232   6.920  44.376   2.312
28973W        W 1233   0.831  36.433   1.297
28974W        W 1234   8.298  43.885   0.350
28975W        W 1235  29.015  31.934  11.074
28976W        W 1236  30.620  33.555   2.346
28977W        W 1237  40.044  37.471  10.475
28978W        W 1238  38.992  12.752   0.474
28979W        W 1239  35.029  33.511  12.373
28980W        W 1240  20.032   3.782   2.763
28981W        W 1241   2.473   1.760  11.590
28982W        W 1242  16.772  42.955  12.486
28983W        W 1243  32.127   7.377  12.071
28984W        W 1244  44.386  12.699  11.378
28985W        W 1245  31.994  19.624  11.483
28986W        W 1246  38.069  26.550  14.779
28987W        W 1247  40.393  17.129  10.626
28988W        W 1248   8.900   7.898  13.932
28989W        W 1249  33.024   3.784   3.308
28990W        W 1250  27.043   4.933   0.827
28991W        W 1251  15.261   0.814  10.417
28992W        W 1252  35.416  35.398   3.362
28993W        W 1253  32.495  23.641  11.406
28994W        W 1254  20.752  42.866   1.411
28995W        W 1255  12.727  12.839  12.857
28996W        W 1256  11.839  30.436  14.832
28997W        W 1257  37.441  29.995   1.777
28998W        W 1258  31.096  40.888   4.190
28999W        W 1259  36.509  21.593  11.485
29000W        W 1260  20.205  39.994   2.696
29001W        W 1261  41.435  16.228   0.421
29002W        W 1262  25.471   1.920   0.404
29003W        W 1263  13.107   6.871  12.056
29004W        W 1264  16.289   6.188  13.313
29005W        W 1265   7.332  13.336   4.275
29006W        W 1266  30.065  41.825   3.221
29007W        W 1267   0.453   8.362   1.842
29008W        W 1268   9.256  19.560   3.795
29009W        W 1269  27.025  24.621   4.717
29010W        W 1270  22.584  41.527  13.525
29011W        W 1271  12.764  40.816  11.407
29012W        W 1272  30.934  39.981   4.765
29013W        W 1273  13.679  27.133   3.271
29014W        W 1274  21.191  21.701   3.770
29015W        W 1275   6.877   7.223  11.546
29016W        W 1276  26.020  21.566   2.773
29017W        W 1277  37.031  38.019   4.770
29018W        W 1278  22.235  38.501  13.944
29019W        W 1279  34.518  25.081   3.377
29020W        W 1280  16.186  16.191  12.975
29021W        W 1281   9.763  34.591  14.970
29022W        W 1282  44.948  18.245  10.593
29023W        W 1283  39.467  37.881  13.476
29024W        W 1284  40.482  33.474  14.378
29025W        W 1285  36.384   8.880   1.380
29026W        W 1286  39.967   3.950  12.575
29027W        W 1287   5.299  25.691   0.853
29028W        W 1288  28.017  34.448   0.380
29029W        W 1289  43.856  16.570   4.135
29030W        W 1290  18.749  42.832   0.814
29031W        W 1291   9.675  32.976  12.467
29032W        W 1292  27.185  15.733   1.721
29033W        W 1293  15.310  14.625   0.326
29034W        W 1294  32.082  34.007  13.354
29035W        W 1295   6.862  26.655   3.714
29036W        W 1296  11.341   3.287   2.683
29037W        W 1297  12.836   8.378   3.820
29038W        W 1298   6.769  30.498  10.518
29039W        W 1299   1.421  16.764  13.828
29040W        W 1300   3.237   4.836   5.124
29041W        W 1301   5.912  23.021  14.901
29042W        W 1302   4.764  26.570   3.368
29043W        W 1303  14.142  35.367   0.311
29044W        W 1304   6.234  24.226  11.581
29045W        W 1305   7.792  15.655  10.080
29046W        W 1306  11.844   5.423  14.759
29047W        W 1307  32.008  37.489   4.636
29048W        W 1308   8.256   5.762   1.823
29049W        W 1309  18.120  32.904   4.312
29050W        W 1310  41.414   3.896   4.335
29051W        W 1311  25.024  34.501   0.886
29052W        W 1312  22.619  16.260   1.270
29053W        W 1313  33.901   0.304   4.788
29054W        W 1314  19.127  25.694   3.217
29055W        W 1315  39.045  34.005  14.494
29056W        W 1316  32.569  15.651   4.344
29057W        W 1317  26.617  36.074   9.970
29058W        W 1318  37.080  29.638  13.476
29059W        W 1319  14.647  40.005  10.093
29060W        W 1320  25.154  12.252   0.838
29061W        W 1321  14.600  35.996   1.918
29062W        W 1322   1.293  41.312   2.319
29063W        W 1323  10.698  21.155  12.487
29064W        W 1324  17.722  42.428   4.252
29065W        W 1325   0.341   8.283  10.600
29066W        W 1326  22.006  31.951   0.435
29067W        W 1327   7.680  36.964   2.362
29068W        W 1328  27.143   3.435  13.352
29069W        W 1329  33.130   0.416  13.500
29070W        W 1330  15.665  12.186  11.994
29071W        W 1331  40.851  29.526  12.497
29072W        W 1332  36.477  20.225   0.278
29073W        W 1333   1.393  17.775   4.780
29074W        W 1334  18.109   4.899  14.944
29075W        W 1335  27.011  40.835   4.180
29076W        W 1336   5.930  16.652   2.179
29077W        W 1337   0.248   4.232  14.844
29078W        W 1338  11.319  23.054   2.812
29079W        W 1339  33.954   1.919   3.189
29080W        W 1340   7.260   6.845  12.019
29081W        W 1341   6.680  27.167   0.342
29082W        W 1342  31.087  34.950  10.411
29083W        W 1343  35.584  38.425  13.886
29084W        W 1344  27.529  31.405   1.417
29085W        W 1345  37.032  31.579  11.405
29086W        W 1346  35.974  38.920  11.065
29087W        W 1347   6.335   8.860   5.132
29088W        W 1348   1.266  32.446  12.009
29089W        W 1349  42.802  11.779  14.290
29090W        W 1350  28.460  20.568   1.840
29091W        W 1351  25.070  25.618   0.870
29092W        W 1352  18.756   8.200   5.652
29093W        W 1353   2.781  15.588  14.514
29094W        W 1354  12.230  32.540  10.417
29095W        W 1355  37.465  36.530  14.427
29096W        W 1356   5.887  17.153  12.927
29097W        W 1357  34.577  23.003   0.827
29098W        W 1358  42.960  41.820  11.064
29099W        W 1359  29.962  24.484  13.820
29100W        W 1360  31.067  28.093   0.863
29101W        W 1361  17.746  31.428  14.759
29102W        W 1362  31.147  28.041   3.284
29103W        W 1363   9.747  10.722  14.841
29104W        W 1364  30.092  40.372  12.978
29105W        W 1365  40.856  20.131  11.103
29106W        W 1366   4.759   5.401   3.316
29107W        W 1367  31.988  39.825   0.900
29108W        W 1368  26.611  44.850  10.943
29109W        W 1369  28.051  18.670  15.000
29110W        W 1370  26.982  39.899   1.860
29111W        W 1371  21.152   7.411  11.505
29112W        W 1372  14.324   6.275   2.276
29113W        W 1373   2.796  14.680  13.970
29114W        W 1374  29.117  20.098  10.447
29115W        W 1375  42.288   1.367  11.590
29116W        W 1376  33.971   4.842  13.380
29117W        W 1377   1.325  14.625   3.667
29118W        W 1378  20.585  20.643   3.340
29119W        W 1379  10.775  40.510  11.596
29120W        W 1380  29.949  22.592   3.768
29121W        W 1381   7.730  42.805  10.003
29122W        W 1382  25.688   6.826   0.323
29123W        W 1383   5.840   6.687  13.957
29124W        W 1384  22.704  18.196   1.242
29125W        W 1385   8.215  30.924   3.291
29126W        W 1386  15.174  13.293  11.374
29127W        W 1387  25.140  35.406  13.426
29128W        W 1388  16.101   7.406  14.489
29129W        W 1389  41.879  36.095   4.692
29130W        W 1390   5.264   5.853  11.069
29131W        W 1391  10.728  19.674   4.783
29132W        W 1392  28.664  31.919  14.867
29133W        W 1393   3.843   1.328  10.502
29134W        W 1394  38.539  41.914  12.362
29135W        W 1395  13.663   2.841  11.524
29136W        W 1396  30.140  43.939  12.027
29137W        W 1397  15.651   1.900  10.107
29138W        W 1398  44.794  19.726  13.845
29139W        W 1399  23.138  36.897   4.176
29140W        W 1400  13.187  36.481   2.758
29141W        W 1401  25.151  44.769  13.864
29142W        W 1402  30.081  23.715   4.741
29143W        W 1403  22.118   3.249  13.351
29144W        W 1404  17.110   9.227  13.397
29145W        W 1405  30.127  26.601  10.464
29146W        W 1406  38.516  34.481  13.888
29147W        W 1407  39.503  30.441  12.037
29148W        W 1408  18.221  43.495   3.833
29149W        W 1409  36.408  33.085  11.442
29150W        W 1410  41.346  26.031  14.463
29151W        W 1411  28.937  38.381  11.465
29152W        W 1412  24.221   6.344   1.244
29153W        W 1413  30.950   8.228  11.012
29154W        W 1414   7.184  28.101  11.561
29155W        W 1415  26.185  31.980  11.101
29156W        W 1416   7.821   7.901   2.675
29157W        W 1417   5.717  36.396   1.297
29158W        W 1418  28.168  43.786   1.744
29159W        W 1419  25.708  28.089   4.203
29160W        W 1420  12.632  20.556   3.267
29161W        W 1421  23.663   0.766   2.835
29162W        W 1422  16.571  25.590  14.985
29163W        W 1423   6.368  15.325  11.886
29164W        W 1424   6.364  35.396  13.352
29165W        W 1425   7.732  38.866  10.139
29166W        W 1426  44.335  38.844  11.489
29167W        W 1427  13.799  10.150   3.864
29168W        W 1428  10.736  13.809  10.538
29169W        W 1429  32.544  19.230  14.004
29170W        W 1430  13.292   4.717  13.880
29171W        W 1431  32.409  39.954  14.829
29172W        W 1432  28.446   7.370   2.391
29173W        W 1433  12.166  29.520  14.947
29174W        W 1434  38.830  18.177  14.889
29175W        W 1435  43.001  31.911  13.530
29176W        W 1436  25.998   8.289   1.894
29177W        W 1437  21.556   4.898  14.941
29178W        W 1438  39.840  44.806  12.341
29179W        W 1439   4.222  34.532  10.899
29180W        W 1440  25.000  27.639   3.164
29181W        W 1441  20.700  20.139  11.873
29182W        W 1442  39.527  27.141   2.280
29183W        W 1443  21.572  10.871   3.221
29184W        W 1444  28.604  25.549   0.350
29185W        W 1445   4.410  26.158  13.010
29186W        W 1446   1.328  32.588   1.839
29187W        W 1447  24.682  29.170  13.536
29188W        W 1448  30.628  25.971   1.814
29189W        W 1449  36.931  22.171  13.310
29190W        W 1450  38.064  23.610   4.127
29191W        W 1451  11.719   3.255   2.750
29192W        W 1452  14.786   3.892   1.710
29193W        W 1453   4.931  26.038  11.512
29194W        W 1454   0.376   9.772   4.702
29195W        W 1455  23.123   4.376  13.992
29196W        W 1456  34.613  21.058  10.429
29197W        W 1457  15.300  12.241   1.914
29198W        W 1458  26.965  28.962  13.879
29199W        W 1459  12.277   5.259   0.275
29200W        W 1460   3.443  18.650  11.467
29201W        W 1461  33.955  12.307   0.795
29202W        W 1462  11.204  40.374  13.054
29203W        W 1463  43.490   8.681   0.788
29204W        W 1464  25.671   9.826  12.470
29205W        W 1465   1.264  37.082  13.398
29206W        W 1466  23.136  24.605   0.961
29207W        W 1467  10.846  40.366   0.394
29208W        W 1468  21.597  29.664  13.978
29209W        W 1469  18.080  28.961   3.827
29210W        W 1470  33.036   1.926  13.923
29211W        W 1471  43.961  43.401   4.737
29212W        W 1472  26.977   1.422  14.872
29213W        W 1473  22.147  39.404  12.833
29214W        W 1474  26.098  32.472  11.929
29215W        W 1475   3.769  36.860  11.029
29216W        W 1476  36.873  25.612   3.669
29217W        W 1477  31.523  42.000   0.862
29218W        W 1478  27.499  23.511  11.553
29219W        W 1479   3.932  42.922   1.810
29220W        W 1480  25.158  30.090   4.731
29221W        W 1481  20.236  12.655   3.657
29222W        W 1482  17.168  29.153  13.472
29223W        W 1483  13.325  12.310  12.525
29224W        W 1484  42.806  14.693  11.421
29225W        W 1485  14.138  17.665   3.367
29226W        W 1486  32.056  18.681  14.013
29227W        W 1487  32.943  22.606   1.224
29228W        W 1488   3.296   8.226  11.105
29229W        W 1489  21.214  11.746   0.277
29230W        W 1490   7.302  14.788  13.435
29231W        W 1491  33.031  35.488   3.289
29232W        W 1492  21.744  30.537   0.389
29233W        W 1493  15.117  32.419   2.398
29234W        W 1494  35.923  22.204  12.024
29235W        W 1495  23.660  41.435  10.631
29236W        W 1496   7.671  42.969  10.562
29237W        W 1497  25.010   6.363   0.417
29238W        W 1498   8.743  15.701   0.454
29239W        W 1499  38.855  20.728   1.751
29240W        W 1500  18.730   3.766  10.485
29241W        W 1501  37.833  16.636   1.766
29242W        W 1502   4.871   9.231  12.408
29243W        W 1503  40.054  43.990  10.933
29244W        W 1504  19.639   8.847   2.888
29245W        W 1505  41.437  28.063  14.957
29246W        W 1506  18.050  32.501   3.788
29247W        W 1507  30.117  19.739   5.089
29248W        W 1508   0.478  19.705  11.612
29249W        W 1509  37.456  21.632  12.389
29250W        W 1510  28.031   0.787  13.022
29251W        W 1511  23.029  41.522  11.045
29252W        W 1512  18.241   8.892   1.314
29253W        W 1513  29.047  13.755  11.053
29254W        W 1514   8.201   7.908  11.991
29255W        W 1515   9.356  24.083   2.902
29256W        W 1516   9.861  22.532  13.507
29257W        W 1517  14.285  24.007  10.431
29258W        W 1518  29.463  44.497   9.946
29259W        W 1519  32.964   2.253   0.317
29260W        W 1520   3.858   5.692   1.832
29261W        W 1521  13.804  12.148   2.740
29262W        W 1522  24.019  16.778  13.017
29263W        W 1523  34.600  11.716  10.996
29264W        W 1524   5.296  27.480   2.388
29265W        W 1525  19.120  32.491   0.416
29266W        W 1526  42.922   9.326  10.409
29267W        W 1527  20.052   9.373  12.986
29268W        W 1528  15.233  28.522   3.836
29269W        W 1529  44.858  26.480   3.837
29270W        W 1530  36.401  20.131   2.741
29271W        W 1531   1.375  36.417  10.594
29272W        W 1532  27.166  16.073  12.486
29273W        W 1533  30.639  24.008  11.937
29274W        W 1534  33.449  34.458   1.276
29275W        W 1535  24.508  30.937   3.204
29276W        W 1536   0.259   1.400  13.340
29277W        W 1537  26.957  26.196   2.767
29278W        W 1538  38.006  37.835  13.061
29279W        W 1539  30.534  14.589  12.548
29280W        W 1540  19.575  33.388   1.357
29281W        W 1541  28.457  43.931  12.522
29282W        W 1542  41.412  24.034  12.996
29283W        W 1543  35.543   1.797  12.386
29284W        W 1544   4.268  41.822  13.895
29285W        W 1545   5.793  41.834   1.322
29286W        W 1546  10.644  31.133   4.813
29287W        W 1547   1.313  15.809  11.064
29288W        W 1548   4.213  27.690  12.981
29289W        W 1549  26.961   9.824   2.361
29290W        W 1550  15.759  42.511  11.017
29291W        W 1551  29.612  10.337  10.153
29292W        W 1552  19.070  33.906  12.829
29293W        W 1553  14.779  42.923   3.154
29294W        W 1554  35.473  27.592   0.927
29295W        W 1555  30.521  11.256  11.976
29296W        W 1556   0.372  44.008   3.850
29297W        W 1557  19.652  38.910  13.943
29298W        W 1558  18.554  24.208  14.310
29299W        W 1559  40.918  14.233   5.293
29300W        W 1560  33.575  38.950  11.595
29301W        W 1561  17.637  13.155   4.120
29302W        W 1562  10.871  28.972   2.851
29303W        W 1563  33.113  12.854   4.281
29304W        W 1564   4.399   5.289  11.545
29305W        W 1565   8.378   1.779   1.818
29306W        W 1566   2.334  32.486  12.395
29307W        W 1567  31.050  40.956   0.402
29308W        W 1568  13.194   8.392   3.807
29309W        W 1569   4.445  13.246   0.363
29310W        W 1570   7.414  37.384   3.156
29311W        W 1571  28.538  19.643  13.010
29312W        W 1572  23.630   6.699  10.573
29313W        W 1573  20.080  31.020  14.763
29314W        W 1574  12.752  38.447   3.645
29315W        W 1575  23.134  21.691   1.315
29316W        W 1576  31.139  15.725  14.381
29317W        W 1577  42.906  35.459   2.317
29318W        W 1578  39.995   3.825   0.268
29319W        W 1579   9.861  35.394  11.127
29320W        W 1580   5.711  42.305   1.306
29321W        W 1581  13.276   2.241   3.331
29322W        W 1582  11.650  10.206  10.425
29323W        W 1583  38.512   1.877   2.207
29324W        W 1584  21.094  12.128   1.396
29325W        W 1585  13.681  15.768  10.109
29326W        W 1586  12.766  15.183  14.394
29327W        W 1587  38.071  30.162   2.684
29328W        W 1588  25.207  14.136   2.672
29329W        W 1589   2.818  28.169  13.962
29330W        W 1590  39.513  17.762   0.352
29331W        W 1591  21.180  29.574  14.871
29332W        W 1592  31.622  15.259  13.445
29333W        W 1593  23.034   0.387  14.418
29334W        W 1594  28.027   8.733   2.834
29335W        W 1595   9.340  25.572  12.435
29336W        W 1596  15.288  17.208  11.437
29337W        W 1597  41.490  38.497   3.829
29338W        W 1598  14.735  21.594   2.862
29339W        W 1599   3.343  23.649   3.227
29340W        W 1600  31.074  10.181   3.638
29341W        W 1601  35.006  35.971  14.886
29342W        W 1602  24.545  17.227   1.331
29343W        W 1603   3.327  37.408  10.903
29344W        W 1604   2.894  40.963   0.274
29345W        W 1605  41.829  19.636  14.490
29346W        W 1606  39.351  28.630  13.442
29347W        W 1607  44.763   5.230  13.459
29348W        W 1608  30.513   8.659   4.720
29349W        W 1609  36.096   4.896  11.475
29350W        W 1610  40.414  40.839  12.537
29351W        W 1611  27.068  21.730   4.693
29352W        W 1612  40.910  28.513   4.149
29353W        W 1613  36.442  15.656  13.505
29354W        W 1614  36.421   3.435  11.072
29355W        W 1615  18.662  29.654   3.370
29356W        W 1616  23.031  17.673  11.976
29357W        W 1617  39.878  42.284   4.618
29358W        W 1618  29.960  37.941  12.074
29359W        W 1619  33.002  13.237  14.837
29360W        W 1620  44.858   6.386  10.073
29361W        W 1621  25.667  33.462   5.197
29362W        W 1622  15.153  34.929   1.796
29363W        W 1623  40.920   2.297   1.702
29364W        W 1624  44.466  35.084   3.244
29365W        W 1625  33.090   7.686  13.997
29366W        W 1626  25.088  41.398   0.293
29367W        W 1627   2.342   8.802  14.330
29368W        W 1628  44.911   7.766  14.760
29369W        W 1629  21.029  29.518   2.250
29370W        W 1630  34.960  31.063   4.296
29371W        W 1631  39.889  31.957  10.911
29372W        W 1632   5.315  20.260   0.359
29373W        W 1633  24.607  38.359   0.351
29374W        W 1634  25.589  38.038   4.282
29375W        W 1635  35.864  44.460   1.220
29376W        W 1636   8.763  12.647   1.735
29377W        W 1637  40.051  37.531   1.256
29378W        W 1638   9.286  31.095  13.494
29379W        W 1639   1.338   0.431   2.417
29380W        W 1640   1.864  43.962   0.949
29381W        W 1641  21.069  23.612  12.882
29382W        W 1642  27.189   7.774   4.743
29383W        W 1643   4.918  15.643   3.268
29384W        W 1644  34.564  36.055   3.253
29385W        W 1645  23.195  43.337  12.834
29386W        W 1646  21.065  27.967   3.306
29387W        W 1647  44.307  14.606  12.983
29388W        W 1648  28.002  27.649  14.011
29389W        W 1649  34.538  36.431   1.232
29390W        W 1650  25.172  13.741   4.760
29391W        W 1651  42.901  28.084  11.900
29392W        W 1652  37.889  20.582  11.519
29393W        W 1653  35.555  36.015   3.782
29394W        W 1654  41.041  15.635  11.008
29395W        W 1655   7.697  33.040   1.244
29396W        W 1656  25.204  33.981  13.375
29397W        W 1657  26.961  31.989  14.408
29398W        W 1658  39.899  42.335   2.359
29399W        W 1659  28.015  34.580   1.380
29400W        W 1660  13.811   1.327   2.699
29401W        W 1661  15.317  41.953   1.311
29402W        W 1662   2.905  27.169  13.524
29403W        W 1663  44.463  10.725  13.933
29404W        W 1664   5.743  38.906  13.313
29405W        W 1665  10.324  15.810  11.374
29406W        W 1666  16.576  26.533  11.462
29407W        W 1667  37.888  28.487  11.544
29408W        W 1668   2.247  34.392  12.834
29409W        W 1669  28.124  42.884   1.284
29410W        W 1670  42.458  27.528   0.259
29411W        W 1671   5.857   7.188   4.335
29412W        W 1672  26.056  39.428   5.600
29413W        W 1673  26.130   6.723  14.471
29414W        W 1674  19.605  27.659  11.430
29415W        W 1675  23.064   0.933  10.917
29416W        W 1676  44.967   3.941  11.117
29417W        W 1677  23.990  12.149  14.469
29418W        W 1678  39.034  38.352  13.343
29419W        W 1679  18.265   4.919   3.354
29420W        W 1680  36.923  43.865  13.886
29421W        W 1681   1.878  11.851  13.429
29422W        W 1682  44.914   3.951   1.260
29423W        W 1683  12.129   1.819   3.322
29424W        W 1684  17.112  25.477  10.488
29425W        W 1685  20.049  10.259  14.383
29426W        W 1686  24.592  38.558  11.069
29427W        W 1687  25.683   2.854  14.480
29428W        W 1688   0.386  34.949  10.568
29429W        W 1689  13.740  28.581  13.047
29430W        W 1690   1.877  36.927  10.937
29431W        W 1691  43.362  23.008  14.758
29432W        W 1692  36.882  23.200   0.873
29433W        W 1693  40.932  16.193   2.212
29434W        W 1694  13.227   2.289  14.886
29435W        W 1695  28.678  23.640   0.260
29436W        W 1696   2.739  24.102   0.820
29437W        W 1697  34.909  35.368  13.352
29438W        W 1698  25.616  16.127   3.226
29439W        W 1699   9.159  28.474   4.650
29440W        W 1700  13.341   2.927   3.833
29441W        W 1701   5.288  18.246  11.577
29442W        W 1702  33.562   7.753  13.408
29443W        W 1703  44.314  41.880  10.519
29444W        W 1704  17.785  31.071   2.679
29445W        W 1705  10.262  37.042  12.437
29446W        W 1706   0.851  25.160  12.876
29447W        W 1707  38.950  39.455  13.398
29448W        W 1708  17.603  43.826   2.242
29449W        W 1709  15.235  35.500   3.255
29450W        W 1710  27.686  37.375  12.360
29451W        W 1711  29.028  36.533   1.340
29452W        W 1712  38.956  17.564  11.428
29453W        W 1713  10.158   8.833  14.779
29454W        W 1714  10.723  43.314   0.776
29455W        W 1715  36.001   4.318   2.856
29456W        W 1716  39.510  40.797  13.038
29457W        W 1717   6.914  30.953  14.868
29458W        W 1718  11.320  18.730  11.580
29459W        W 1719  36.845  35.876  11.862
29460W        W 1720  26.694  24.032   0.376
29461W        W 1721   4.744  38.980   4.751
29462W        W 1722  43.428  36.065  11.069
29463W        W 1723  33.490  21.135  12.531
29464W        W 1724   2.380  36.020  13.358
29465W        W 1725  17.737   9.265  11.935
29466W        W 1726  25.663  41.534   9.554
29467W        W 1727  41.472  27.630   3.285
29468W        W 1728  16.257   7.881   0.402
29469W        W 1729  44.500  18.746  13.873
29470W        W 1730  17.796   7.806  10.909
29471W        W 1731  21.170  17.161   0.786
29472W        W 1732  21.224   7.689  13.837
29473W        W 1733  24.716  13.258  11.927
29474W        W 1734  35.873  14.194  14.370
29475W        W 1735  41.306  20.566  13.487
29476W        W 1736  40.039  30.459   3.864
29477W        W 1737  41.943  36.532  14.397
29478W        W 1738   7.322  22.071   4.598
29479W        W 1739  32.905  29.580   2.414
29480W        W 1740  23.147  36.899   4.776
29481W        W 1741  17.303  17.620   4.793
29482W        W 1742  18.087  11.820   1.694
29483W        W 1743  28.099  34.406  11.574
29484W        W 1744   0.765  17.687  13.824
29485W        W 1745   6.808   2.961  13.936
29486W        W 1746   9.843  34.454   4.612
29487W        W 1747   8.670  35.884   0.479
29488W        W 1748   6.704   8.369  14.888
29489W        W 1749  18.607  37.834  13.358
29490W        W 1750  33.557   4.803   3.852
29491W        W 1751   4.267  43.504   4.807
29492W        W 1752  16.723  16.249   3.751
29493W        W 1753   1.760  29.520  14.875
29494W        W 1754  17.092  29.017  11.873
29495W        W 1755   8.663  22.251   2.291
29496W        W 1756   3.330  38.844   1.934
29497W        W 1757  20.033   2.921   3.214
29498W        W 1758  16.213  22.732   3.275
29499W        W 1759   4.817  44.298   0.333
29500W        W 1760  27.195  17.745   1.713
29501W        W 1761  16.624  32.123  10.504
29502W        W 1762  37.387  41.001   3.770
29503W        W 1763  25.563   3.829   1.279
29504W        W 1764  16.168  13.786  11.398
29505W        W 1765  43.392  27.564   3.183
29506W        W 1766  33.560   9.735  13.528
29507W        W 1767  41.942  19.671  12.437
29508W        W 1768  36.873  38.546  10.561
29509W        W 1769  29.426  41.445   4.180
29510W        W 1770   0.902  16.695   0.406
29511W        W 1771   2.926  12.213   1.403
29512W        W 1772  19.687   2.833  12.373
29513W        W 1773  21.539  24.133  13.377
29514W        W 1774  44.840  35.376   2.672
29515W        W 1775  41.019  31.501   1.853
29516W        W 1776   9.302  18.559  13.944
29517W        W 1777  44.281  43.444   1.716
29518W        W 1778  25.662  32.416   2.813
29519W        W 1779  17.286  41.407  12.029
29520W        W 1780   2.410  42.376  11.470
29521W        W 1781  23.501   1.476   2.395
29522W        W 1782  32.068  34.580  12.486
29523W        W 1783  35.030  43.894   3.368
29524W        W 1784  12.225  27.580   4.346
29525W        W 1785  18.676  42.497   0.867
29526W        W 1786  26.471  16.635  12.998
29527W        W 1787  11.358  41.826  12.468
29528W        W 1788  43.414  42.414   4.155
29529W        W 1789   1.857  42.415  11.372
29530W        W 1790  27.952  13.334  13.801
29531W        W 1791  43.318  25.504   4.812
29532W        W 1792  30.464  17.088  14.390
29533W        W 1793  18.201   5.917  13.416
29534W        W 1794  36.886  37.504  10.636
29535W        W 1795  11.151  40.371  14.811
29536W        W 1796   9.754   1.867  14.908
29537W        W 1797  35.522   6.343   3.282
29538W        W 1798  24.061  34.066  11.114
29539W        W 1799  35.874  41.018   4.618
29540W        W 1800   2.395  21.596  10.545
29541W        W 1801   5.816  33.469  11.433
29542W        W 1802  19.195  29.646  13.379
29543W        W 1803  33.441   4.796  13.871
29544W        W 1804  26.493   7.696   1.915
29545W        W 1805  43.001  15.656  11.467
29546W        W 1806  42.998  33.981  10.448
29547W        W 1807  29.584  24.568  11.919
29548W        W 1808  22.575   2.410   3.759
29549W        W 1809   4.371  39.889   4.125
29550W        W 1810   6.378   9.186  13.847
29551W        W 1811  40.371  43.776  12.434
29552W        W 1812  42.030  34.085  13.330
29553W        W 1813  39.969  15.814   0.472
29554W        W 1814  25.220  24.509   2.723
29555W        W 1815  14.242  43.373  14.482
29556W        W 1816  41.937  12.848  14.824
29557W        W 1817   8.755   4.786   1.427
29558W        W 1818  31.436  44.807  12.436
29559W        W 1819  26.988  39.438   5.631
29560W        W 1820  32.424   0.471  10.927
29561W        W 1821   3.374  43.917  12.993
29562W        W 1822  15.777  11.786   2.765
29563W        W 1823  41.298  18.711  10.565
29564W        W 1824  14.762  12.684   2.224
29565W        W 1825  34.049  23.694   2.666
29566W        W 1826  20.226   7.881   1.349
29567W        W 1827  10.340   2.772  11.048
29568W        W 1828  17.301  36.013  11.489
29569W        W 1829  26.028  28.976   4.811
29570W        W 1830   8.346  12.301  10.630
29571W        W 1831  25.516  12.803  11.029
29572W        W 1832  41.869  23.128  14.440
29573W        W 1833  30.575   4.881   0.461
29574W        W 1834  36.002   6.300  12.018
29575W        W 1835   6.748  28.169   4.274
29576W        W 1836   5.374  11.811   3.219
29577W        W 1837  27.627  30.573   2.729
29578W        W 1838  17.090  23.514   2.814
29579W        W 1839  22.241  26.605  12.873
29580W        W 1840  24.175  14.288  11.546
29581W        W 1841   2.265  14.123   3.233
29582W        W 1842  33.512  35.444  12.499
29583W        W 1843  20.730   0.430   2.879
29584W        W 1844  39.344  11.788  14.010
29585W        W 1845   6.886   7.830  14.327
29586W        W 1846  27.454   1.241   2.327
29587W        W 1847   1.343  19.197   3.655
29588W        W 1848  36.505  12.804   1.748
29589W        W 1849  13.260   3.261  11.866
29590W        W 1850  22.144   9.697   3.386
29591W        W 1851  30.941   8.212   2.898
29592W        W 1852  21.606  17.681   0.302
29593W        W 1853  40.390  35.997  14.357
29594W        W 1854   2.269  29.442  12.922
29595W        W 1855   6.271   8.851   2.675
29596W        W 1856  22.229  15.766  14.390
29597W        W 1857  10.356   2.290  14.436
29598W        W 1858  11.757   8.824  13.516
29599W        W 1859  39.351  21.168  11.974
29600W        W 1860  17.689  31.961  12.936
29601W        W 1861  29.977   1.391   3.153
29602W        W 1862  42.012  29.982   4.686
29603W        W 1863  29.172  41.864   2.226
29604W        W 1864  39.448  41.803  14.883
29605W        W 1865  14.692  11.741  11.052
29606W        W 1866  37.856  25.205  10.507
29607W        W 1867  34.450  15.282  14.872
29608W        W 1868   2.780  12.617  11.458
29609W        W 1869  43.390  31.628  13.805
29610W        W 1870   6.722  42.843   4.340
29611W        W 1871  15.092  31.527  13.450
29612W        W 1872  20.117  35.995  13.377
29613W        W 1873   7.345   2.906  11.858
29614W        W 1874  14.204  39.017  12.051
29615W        W 1875  11.326  33.517  13.891
29616W        W 1876  30.019  39.425  10.589
29617W        W 1877  19.140   3.811   1.913
29618W        W 1878  19.182  17.732  12.448
29619W        W 1879  27.030  35.061  11.944
29620W        W 1880  22.612   0.847   5.104
29621W        W 1881  33.971   0.302   0.398
29622W        W 1882  32.473  30.474   4.323
29623W        W 1883  11.669  17.747  12.848
29624W        W 1884  22.088  20.234   1.886
29625W        W 1885  23.719  18.133  10.528
29626W        W 1886  35.043  27.089  10.914
29627W        W 1887  31.934  18.712   1.244
29628W        W 1888  22.692  12.775  14.393
29629W        W 1889  24.656   5.288  13.926
29630W        W 1890   1.257  11.737   4.298
29631W        W 1891  12.688   4.206   1.882
29632W        W 1892   9.809  14.104   2.896
29633W        W 1893  31.458  40.993  14.510
29634W        W 1894  18.291  42.870  12.515
29635W        W 1895  14.178   0.851  14.306
29636W        W 1896  36.968  32.107   1.902
29637W        W 1897  29.522  16.778   1.279
29638W        W 1898   9.794  42.864   2.262
29639W        W 1899  18.723  31.479  11.521
29640W        W 1900  15.689  28.977   4.253
29641W        W 1901  35.108  19.200  12.361
29642W        W 1902  14.158  20.674  12.058
29643W        W 1903   5.893  31.499   4.662
29644W        W 1904  16.120  13.296  13.845
29645W        W 1905  35.376  10.752   3.804
29646W        W 1906  34.950  18.097  13.878
29647W        W 1907  39.830  21.198   0.341
29648W        W 1908  12.834  20.159  13.542
29649W        W 1909  25.118  43.415   1.272
29650W        W 1910   5.280  24.686   2.737
29651W        W 1911  43.010  18.275  14.420
29652W        W 1912  32.120  19.053  14.884
29653W        W 1913  16.301  24.227   4.645
29654W        W 1914  12.643  25.986  14.955
29655W        W 1915  40.356   2.837  10.914
29656W        W 1916  25.110  24.070   3.325
29657W        W 1917   7.395  14.600  12.834
29658W        W 1918  22.734  29.132  10.976
29659W        W 1919  36.057  38.018  12.920
29660W        W 1920  12.758  29.115  11.117
29661W        W 1921  18.643  38.033  12.476
29662W        W 1922  28.961  39.980   1.444
29663W        W 1923  34.388  16.251  11.557
29664W        W 1924  42.784   1.320  11.592
29665W        W 1925   9.653   7.817  14.840
29666W        W 1926  36.475  15.814   4.764
29667W        W 1927  36.457  26.512   1.743
29668W        W 1928  14.595  20.195  11.549
29669W        W 1929  17.641  10.706  14.951
29670W        W 1930  25.709   3.239   1.751
29671W        W 1931  44.458   9.864  14.913
29672W        W 1932  43.344  31.898   2.359
29673W        W 1933  38.910  36.475  12.999
29674W        W 1934   4.871  20.665   1.366
29675W        W 1935  29.668   6.761  14.007
29676W        W 1936  34.095  16.211   3.380
29677W        W 1937   0.349  36.556  14.335
29678W        W 1938   8.220  28.661   2.902
29679W        W 1939  11.701  23.234  14.383
29680W        W 1940  14.100  37.524  14.361
29681W        W 1941  39.459  12.826  11.553
29682W        W 1942   6.236  42.292   1.901
29683W        W 1943  35.576  31.603   3.270
29684W        W 1944   7.316  17.299   3.253
29685W        W 1945  18.096  38.920  13.972
29686W        W 1946  32.503  31.616  10.422
29687W        W 1947  15.731   2.372  10.923
29688W        W 1948  38.513  24.628  11.971
29689W        W 1949  17.172  42.424   1.885
29690W        W 1950   1.386  30.499   1.282
29691W        W 1951  35.058  38.474  10.552
29692W        W 1952  33.016  12.686   2.187
29693W        W 1953   5.408   2.359   2.412
29694W        W 1954  43.835  23.605  13.040
29695W        W 1955   8.253   6.914   4.630
29696W        W 1956   2.307  21.183   3.193
29697W        W 1957  23.490  13.118  13.894
29698W        W 1958   3.736   9.344   2.258
29699W        W 1959  29.955   8.891  14.958
29700W        W 1960  14.255   0.891   4.641
29701W        W 1961  23.087  34.960   4.234
29702W        W 1962  35.866  22.642  10.895
29703W        W 1963  43.325  31.144   1.711
29704W        W 1964  26.074   9.838  10.632
29705W        W 1965  26.665  20.234   0.889
29706W        W 1966   0.906  16.267   4.737
29707W        W 1967  26.079   6.681   3.303
29708W        W 1968   0.465  43.952  14.032
29709W        W 1969  20.156  38.890  14.823
29710W        W 1970  33.875  38.477  14.472
29711W        W 1971  20.639  42.416  12.569
29712W        W 1972  23.511  10.875  13.446
29713W        W 1973   4.377  13.257  14.464
29714W        W 1974  15.687   3.839   3.754
29715W        W 1975  32.113  14.793   1.271
29716W        W 1976  39.024  36.056  14.367
29717W        W 1977   2.293  36.544   1.327
29718W        W 1978  23.069  25.713  14.492
29719W        W 1979  24.523  25.969  14.834
29720W        W 1980  33.980   9.770   3.310
29721W        W 1981   1.936  32.996   0.297
29722W        W 1982  37.061  27.983  10.572
29723W        W 1983  24.018  25.532   3.719
29724W        W 1984  37.469  37.876  11.562
29725W        W 1985  24.658  34.112   3.381
29726W        W 1986  28.077   6.306   4.116
29727W        W 1987  12.145  33.102  12.948
29728W        W 1988  30.097  41.407   4.150
29729W        W 1989  42.886  19.620   4.639
29730W        W 1990  39.909  34.871  13.326
29731W        W 1991  18.240  16.287   2.186
29732W        W 1992  25.563  25.075   0.792
29733W        W 1993  18.268  40.895  12.385
29734W        W 1994  42.031   4.715  13.936
29735W        W 1995   8.719   1.428  11.996
29736W        W 1996  21.641  33.590  13.479
29737W        W 1997  37.076  11.359  12.561
29738W        W 1998  42.509  27.143  12.905
29739W        W 1999  31.055  15.660   1.925
29740W        W 2000  36.857   7.906  13.362
29741W        W 2001  15.753  41.491  14.449
29742W        W 2002  40.818  18.706   1.837
29743W        W 2003  31.082   4.239  11.458
29744W        W 2004  22.505  32.023   3.269
29745W        W 2005   8.707  24.681   3.743
29746W        W 2006   9.384   8.263   0.422
29747W        W 2007   0.784  23.712  10.109
29748W        W 2008  12.169  19.749   1.814
29749W        W 2009  37.412   3.872   4.353
29750W        W 2010  34.556  10.827   3.353
29751W        W 2011   1.240  19.232   0.448
29752W        W 2012  32.983  29.642   3.260
29753W        W 2013   3.914  10.685   1.290
29754W        W 2014  25.554  22.583   0.429
29755W        W 2015  36.858  36.086   2.321
29756W        W 2016  32.494  26.013  14.761
29757W        W 2017  33.451  36.935  11.947
29758W        W 2018   8.715  33.447   0.767
29759W        W 2019  28.595  42.318   0.962
29760W        W 2020  38.500  27.133   0.927
29761W        W 2021   9.334  15.750   0.926
29762W        W 2022  13.767   5.925  12.993
29763W        W 2023  31.907  14.715  14.306
29764W        W 2024  13.621  24.064   2.310
29765W        W 2025  25.660   6.918   1.694
29766W        W 2026   8.219  29.473  11.082
29767W        W 2027   6.348  29.097  13.021
29768W        W 2028   1.241  14.659   1.764
29769W        W 2029  15.271  21.737   2.790
29770W        W 2030  37.402   4.867   1.726
29771W        W 2031  17.078  33.064   4.214
29772W        W 2032  35.092   7.738   3.209
29773W        W 2033  26.702  31.084  11.490
29774W        W 2034  31.069  28.566   0.841
29775W        W 2035  38.855  33.610  13.886
29776W        W 2036  40.316  17.621  11.129
29777W        W 2037  39.517  12.668  12.055
29778W        W 2038   6.760   4.890  11.883
29779W        W 2039  20.750  32.414   4.321
29780W        W 2040  36.074  42.898  11.106
29781W        W 2041  30.000  33.474   1.889
29782W        W 2042  15.709  25.145  14.779
29783W        W 2043  16.780  16.247  10.994
29784W        W 2044  24.666  25.668   0.264
29785W        W 2045  42.927  33.124  10.420
29786W        W 2046   4.389   9.319   1.441
29787W        W 2047   4.410  24.560   0.889
29788W        W 2048  38.070  23.580   1.842
29789W        W 2049  18.141  24.510   3.330
29790W        W 2050  13.717  19.180  12.435
29791W        W 2051  44.935  43.327  12.503
29792W        W 2052  30.539  37.568   4.666
29793W        W 2053  17.062  34.485  10.100
29794W        W 2054  39.393  25.659  12.945
29795W        W 2055  19.151  25.572   0.960
29796W        W 2056  39.322  10.709   1.443
29797W        W 2057  14.263  35.481  10.901
29798W        W 2058   3.757   2.897  13.527
29799W        W 2059  36.431  13.183   0.416
29800W        W 2060   4.712  29.128   2.257
29801W        W 2061  11.264  39.403   3.176
29802W        W 2062  39.948  43.856   2.247
29803W        W 2063  20.760  29.954   0.775
29804W        W 2064  21.037  15.693  12.522
29805W        W 2065  34.040   1.845   2.891
29806W        W 2066  33.390   0.371  14.355
29807W        W 2067  11.625  34.421  14.988
29808W        W 2068  22.066  32.541  12.091
29809W        W 2069  22.162   4.391   3.239
29810W        W 2070   3.399  42.436   2.341
29811W        W 2071  31.477   3.934  11.959
29812W        W 2072   0.281  32.111   2.314
29813W        W 2073  35.565  24.005   0.730
29814W        W 2074  18.239   6.916   1.724
29815W        W 2075  18.218  10.707   4.608
29816W        W 2076  26.025  38.553   1.754
29817W        W 2077  29.174   3.880   2.380
29818W        W 2078  12.806   8.723  14.885
29819W        W 2079  30.141  18.771   1.265
29820W        W 2080   8.286  14.317   4.260
29821W        W 2081  39.848  26.205  12.031
29822W        W 2082   4.244   1.432   0.876
29823W        W 2083   7.184  39.912   4.814
29824W        W 2084  10.820  11.192   1.248
29825W        W 2085  27.108  32.434  14.304
29826W        W 2086   8.369  40.954   1.743
29827W        W 2087  29.047  33.459   2.675
29828W        W 2088  41.038  32.116  10.474
29829W        W 2089   5.837   5.305  14.481
29830W        W 2090  15.773  41.825   3.184
29831W        W 2091  27.089   5.798   0.792
29832W        W 2092  12.323   2.344  13.919
29833W        W 2093  20.677   5.742  14.867
29834W        W 2094  11.291   6.378   3.647
29835W        W 2095  26.476  12.319   1.875
29836W        W 2096  36.432  14.660   0.449
29837W        W 2097   7.728  14.741  13.968
29838W        W 2098  33.023   6.350   3.234
29839W        W 2099  13.286  41.292  12.389
29840W        W 2100   6.326  26.149  10.003
29841W        W 2101  11.253   5.689  12.956
29842W        W 2102  37.554  38.432   0.758
29843W        W 2103  26.667  41.318  10.060
29844W        W 2104  40.861  25.641  11.902
29845W        W 2105  41.449  17.072   2.322
29846W        W 2106  35.387  25.049   2.729
29847W        W 2107  15.308  35.031   3.230
29848W        W 2108   8.311  34.977  13.837
29849W        W 2109  39.440  37.874  13.011
29850W        W 2110  10.808  27.612   1.241
29851W        W 2111  30.611   0.860   3.691
29852W        W 2112  43.421  31.040  12.924
29853W        W 2113  31.984  39.062  10.932
29854W        W 2114  22.644   1.395   3.636
29855W        W 2115  24.110  13.345   2.780
29856W        W 2116  33.913   7.230   4.741
29857W        W 2117  27.033  24.218   3.193
29858W        W 2118  27.567  31.414  11.532
29859W        W 2119  28.558  28.957  12.423
29860W        W 2120  19.730  16.651  10.441
29861W        W 2121  13.182  13.812  14.951
29862W        W 2122  14.156  41.011   0.904
29863W        W 2123  38.073  20.105   1.871
29864W        W 2124  28.955   9.653  11.084
29865W        W 2125  38.826  42.878   0.371
29866W        W 2126  17.684   6.766   2.331
29867W        W 2127  44.837  28.180   1.417
29868W        W 2128   2.870  42.349   1.213
29869W        W 2129  10.708  37.991  14.845
29870W        W 2130  15.762  28.954   2.831
29871W        W 2131  38.546  22.629   4.279
29872W        W 2132  12.304  19.143   4.217
29873W        W 2133  36.445  33.880   3.787
29874W        W 2134  19.683   7.887   2.183
29875W        W 2135   8.686  12.688  12.512
29876W        W 2136  37.342  13.702   2.728
29877W        W 2137   8.783   8.745  11.930
29878W        W 2138  24.007  27.013  11.562
29879W        W 2139  25.480  25.129  12.529
29880W        W 2140  29.098  37.339  13.064
29881W        W 2141  36.092  33.477   4.246
29882W        W 2142   2.736   1.403   1.827
29883W        W 2143  26.504  41.429   5.749
29884W        W 2144  26.144  40.313   2.768
29885W        W 2145  19.775   3.347   1.293
29886W        W 2146  20.710  24.187  10.921
29887W        W 2147  15.581  14.098   5.308
29888W        W 2148  43.020   1.750   4.762
29889W        W 2149  37.446  16.283   1.915
29890W        W 2150  10.814  29.456   2.313
29891W        W 2151  41.898   1.463   3.803
29892W        W 2152  29.442  17.259   1.854
29893W        W 2153  23.225  42.357  14.389
29894W        W 2154  32.035  40.938  14.351
29895W        W 2155  20.529  10.680   2.264
29896W        W 2156  31.952  34.921   2.853
29897W        W 2157  28.056  16.130  10.564
29898W        W 2158  13.339  25.468  12.065
29899W        W 2159  23.131  26.141   0.739
29900W        W 2160  17.091  35.986  10.974
29901W        W 2161  28.568  44.273   2.854
29902W        W 2162  40.350  39.990  13.490
29903W        W 2163  24.021  15.734   4.660
29904W        W 2164  39.005  30.437  14.803
29905W        W 2165  25.656  32.635  13.361
29906W        W 2166   6.755  16.161  10.542
29907W        W 2167  42.932  17.670   1.439
29908W        W 2168  35.923  41.513   3.268
29909W        W 2169   5.791  43.844  13.474
29910W        W 2170  31.051  37.856   0.851
29911W        W 2171   3.301  38.512  13.895
29912W        W 2172  14.757   0.915  10.062
29913W        W 2173   5.218   4.740  13.023
29914W        W 2174  32.987  12.249  14.831
29915W        W 2175  26.995  22.193   4.194
29916W        W 2176   8.167  40.396   0.747
29917W        W 2177  35.952  41.435  10.561
29918W        W 2178   1.969  26.129  14.500
29919W        W 2179  12.229  40.314  11.437
29920W        W 2180  26.630  42.514   3.384
29921W        W 2181  42.012  18.785   2.307
29922W        W 2182  20.107  22.541   0.930
29923W        W 2183  15.668  11.349   9.929
29924W        W 2184   9.241   9.370   4.321
29925W        W 2185   2.455  13.621  13.486
29926W        W 2186  18.197  28.938  10.419
29927W        W 2187  19.182  27.517  14.373
29928W        W 2188   8.233  44.843   1.423
29929W        W 2189  26.651  39.376   2.827
29930W        W 2190  12.837  25.553   4.631
29931W        W 2191  18.622   3.861  12.079
29932W        W 2192  29.494  20.062  10.467
29933W        W 2193  10.792  30.950   0.766
29934W        W 2194  30.930  27.950   3.813
29935W        W 2195   1.874  26.186   1.435
29936W        W 2196  32.522  15.089  12.084
29937W        W 2197  37.899   9.319  11.067
29938W        W 2198  20.059  37.902   4.767
29939W        W 2199   1.388  37.455  12.423
29940W        W 2200   7.841  23.013   2.221
29941W        W 2201  15.628  14.604   5.731
29942W        W 2202  22.624  21.743  10.443
29943W        W 2203  43.400  31.998   3.378
29944W        W 2204  13.207  18.643  12.448
29945W        W 2205  29.985  19.584  10.494
29946W        W 2206  37.564  33.415   1.706
29947W        W 2207  22.637  30.420  12.884
29948W        W 2208  32.984  19.134  10.410
29949W        W 2209  26.962   8.176  13.457
29950W        W 2210  30.466   8.251   2.871
29951W        W 2211  33.561  31.947  13.861
29952W        W 2212  40.878  30.023  10.425
29953W        W 2213  28.642  36.027  10.540
29954W        W 2214  25.667  19.259   3.249
29955W        W 2215   4.783  31.411   2.233
29956W        W 2216  15.677   4.866   0.927
29957W        W 2217   6.790  13.157   0.943
29958W        W 2218  34.601  21.096   5.293
29959W        W 2219  42.426  42.883  11.495
29960W        W 2220   2.414  34.531   3.278
29961W        W 2221  21.246  18.288  11.896
29962W        W 2222  44.438  36.022   4.726
29963W        W 2223   4.796  20.649   4.335
29964W        W 2224  25.045   9.222   3.809
29965W        W 2225  15.264  29.478  13.925
29966W        W 2226  30.068  42.819   0.468
29967W        W 2227  34.490   8.763  14.012
29968W        W 2228  18.775  38.844  11.461
29969W        W 2229  11.363  37.534   1.298
29970W        W 2230  11.146  27.074   4.242
29971W        W 2231  22.608  31.528  14.337
29972W        W 2232  32.442  30.010   0.946
29973W        W 2233  20.083  15.628  12.849
29974W        W 2234  15.127  38.029   0.278
29975W        W 2235  16.713  40.053  12.367
29976W        W 2236   4.820   9.713  11.546
29977W        W 2237   1.871   1.375  11.386
29978W        W 2238  21.127  14.157   2.220
29979W        W 2239  34.473  27.508  14.896
29980W        W 2240  27.505   7.406   4.148
29981W        W 2241  17.282  38.496  12.525
29982W        W 2242  18.096  41.942   2.414
29983W        W 2243  42.472  24.685  11.019
29984W        W 2244  11.741   0.806  12.897
29985W        W 2245  41.320  32.393   1.717
29986W        W 2246  15.303   2.394   2.394
29987W        W 2247  14.103   6.264   2.785
29988W        W 2248  39.022  30.140  14.333
29989W        W 2249   0.424   3.777   4.660
29990W        W 2250  25.193  21.642  11.045
29991W        W 2251  34.008  13.768  11.054
29992W        W 2252  14.301   2.233   1.850
29993W        W 2253   6.416  18.239  13.013
29994W        W 2254   6.324  14.622   4.126
29995W        W 2255  33.601  36.914  10.561
29996W        W 2256   5.360   8.306  14.915
29997W        W 2257   3.940   9.823  14.983
29998W        W 2258  10.331  30.533  11.460
29999W        W 2259  31.638  12.691   4.727
30000W        W 2260  13.351   0.251   1.220
30001W        W 2261  41.044  43.004   9.938
30002W        W 2262   2.296   5.910   3.855
30003W        W 2263  29.541  18.214  12.493
30004W        W 2264  30.083  16.686  14.854
30005W        W 2265  42.433  25.694   2.755
30006W        W 2266  17.289  34.492   2.719
30007W        W 2267  31.416   2.389  14.958
30008W        W 2268  18.132  14.096  11.556
30009W        W 2269  13.219  24.520  14.398
30010W        W 2270   2.732  38.015  13.034
30011W        W 2271  35.097  31.444  14.465
30012W        W 2272  18.091  14.278  13.792
30013W        W 2273  29.583   7.802   2.398
30014W        W 2274  38.475   1.798   3.684
30015W        W 2275  16.717  26.977   0.352
30016W        W 2276  19.683  41.407  13.944
30017W        W 2277  15.816   9.318  14.361
30018W        W 2278   7.845  17.707  12.032
30019W        W 2279  31.938  31.564   3.719
30020W        W 2280  33.584  27.511   0.362
30021W        W 2281  40.888  24.111  12.413
30022W        W 2282  17.616  22.183   1.823
30023W        W 2283   2.818  38.565   2.784
30024W        W 2284  40.460  42.775   4.214
30025W        W 2285  22.562  15.122  14.941
30026W        W 2286   3.816  40.466   4.262
30027W        W 2287  19.769   3.751  14.811
30028W        W 2288  13.761  19.652  11.118
30029W        W 2289   1.318  31.898  14.410
30030W        W 2290  15.291  20.124   2.383
30031W        W 2291  38.073   8.829  13.481
30032W        W 2292   3.399  31.462  14.385
30033W        W 2293   4.884  25.578   1.825
30034W        W 2294  40.466  33.389  14.978
30035W        W 2295  27.028  39.529  14.020
30036W        W 2296  43.851  12.779  13.338
30037W        W 2297  26.022   2.851   1.387
30038W        W 2298   9.709  32.403   4.643
30039W        W 2299  44.387  31.620  13.817
30040W        W 2300  20.086  31.554   2.345
30041W        W 2301  39.042   3.833  11.561
30042W        W 2302  36.081   6.332  12.965
30043W        W 2303  17.209  17.760   2.771
30044W        W 2304  27.613  11.688  13.809
30045W        W 2305   5.822  32.505   3.302
30046W        W 2306  32.554  12.798   1.384
30047W        W 2307  10.798  16.630   4.162
30048W        W 2308  43.808  30.143  12.882
30049W        W 2309  19.102  34.970   0.271
30050W        W 2310  29.988  40.417  11.865
30051W        W 2311  29.937  13.141   1.433
30052W        W 2312  40.008  41.841   4.796
30053W        W 2313   4.821  19.549  10.506
30054W        W 2314  11.307  17.670  11.442
30055W        W 2315  14.768  36.379  12.935
30056W        W 2316  22.112  30.117   2.737
30057W        W 2317  16.580  11.722  12.067
30058W        W 2318  17.742   1.244   2.315
30059W        W 2319  11.841  27.519  13.443
30060W        W 2320  39.847  19.218   0.819
30061W        W 2321   1.474  24.196  12.095
30062W        W 2322   6.861  30.588  11.123
30063W        W 2323  10.297   7.310  12.342
30064W        W 2324   1.312  28.995   2.329
30065W        W 2325  10.785  25.115   0.450
30066W        W 2326  36.505  11.318   0.894
30067W        W 2327  19.119  36.911  13.051
30068W        W 2328  26.977  37.370  10.585
30069W        W 2329   5.350  38.989   9.981
30070W        W 2330  12.635   7.870  13.526
30071W        W 2331  43.516  38.931  12.087
30072W        W 2332  22.505  43.827   1.230
30073W        W 2333  14.792  27.101   1.274
30074W        W 2334  44.350  29.952   2.406
30075W        W 2335  23.694  42.501  13.428
30076W        W 2336   2.782  30.936   1.440
30077W        W 2337  18.745  41.789   4.801
30078W        W 2338  35.485  38.916   1.702
30079W        W 2339   1.292   2.378   2.354
30080W        W 2340  19.113  22.644  14.503
30081W        W 2341  35.027  17.240  14.447
30082W        W 2342  27.987  25.577   3.730
30083W        W 2343  39.522  16.742   0.885
30084W        W 2344  41.417  39.550  11.858
30085W        W 2345  33.604  32.964   3.752
30086W        W 2346   4.914  42.804   3.204
30087W        W 2347  27.034  10.223  10.988
30088W        W 2348  31.079  42.806  12.395
30089W        W 2349  42.824   0.771  12.823
30090W        W 2350   7.277  20.266  11.521
30091W        W 2351  34.934  25.544   0.821
30092W        W 2352  26.646  11.676   2.342
30093W        W 2353  37.394  24.977   4.818
30094W        W 2354  16.790  11.160   2.853
30095W        W 2355  41.367  20.091  13.824
30096W        W 2356  43.834  15.602   0.377
30097W        W 2357   3.902  10.721   2.195
30098W        W 2358  27.537   3.417   5.124
30099W        W 2359  44.823   5.319  13.791
30100W        W 2360   7.912  20.713   4.271
30101W        W 2361  27.535   3.391  14.029
30102W        W 2362  44.816  41.513   2.397
30103W        W 2363  39.961   3.363   0.891
30104W        W 2364  28.080  37.956  11.124
30105W        W 2365   3.236  29.029  13.879
30106W        W 2366  10.369   2.748   0.343
30107W        W 2367  37.922   1.910   1.221
30108W        W 2368  12.205  17.188   3.693
30109W        W 2369   1.273  12.631   1.302
30110W        W 2370  13.204   6.203  14.821
30111W        W 2371  19.657  24.520   3.807
30112W        W 2372  26.188   3.937   4.743
30113W        W 2373  38.487  38.556   2.704
30114W        W 2374   5.383   9.220   4.665
30115W        W 2375   8.691  20.558   3.719
30116W        W 2376  37.903  26.507  11.575
30117W        W 2377   9.163  43.422  12.950
30118W        W 2378   2.855  14.324   0.808
30119W        W 2379  30.578   0.986  14.340
30120W        W 2380  27.569  32.609  10.516
30121W        W 2381   8.718  19.773  13.504
30122W        W 2382  22.184  14.589   3.743
30123W        W 2383  21.124  38.494   0.836
30124W        W 2384  25.520  13.647  11.886
30125W        W 2385   3.446  34.400   3.254
30126W        W 2386  17.145   0.443   1.883
30127W        W 2387  41.796  41.001  11.518
30128W        W 2388  43.844   3.228   3.639
30129W        W 2389   5.223   5.841   4.790
30130W        W 2390  26.680   9.714   2.874
30131W        W 2391  37.355  18.161   0.825
30132W        W 2392  22.599   8.718   0.454
30133W        W 2393   7.220  19.537  12.940
30134W        W 2394  35.991  32.481  11.988
30135W        W 2395  36.996  44.263  12.447
30136W        W 2396   8.397  15.181   2.339
30137W        W 2397   7.755   0.451   3.866
30138W        W 2398   1.311   3.838   4.172
30139W        W 2399   5.831  32.513  14.909
30140W        W 2400  35.409   8.358   1.772
30141W        W 2401  17.705  22.096   0.405
30142W        W 2402   4.276  34.432   0.477
30143W        W 2403   4.342  44.798  13.041
30144W        W 2404  10.333  31.610  12.485
30145W        W 2405  36.888   8.319   3.314
30146W        W 2406  33.563  29.018   4.779
30147W        W 2407  20.540  41.804   4.832
30148W        W 2408  27.669   6.703   0.343
30149W        W 2409  39.552   8.164  10.573
30150W        W 2410  25.631   1.459   0.339
30151W        W 2411   9.305  42.513   3.340
30152W        W 2412  15.708  22.505  12.043
30153W        W 2413  43.000  30.002  12.498
30154W        W 2414   4.815  12.180   4.651
30155W        W 2415  35.522   2.958  14.758
30156W        W 2416  29.986   0.915  10.558
30157W        W 2417   7.698  10.152  14.797
30158W        W 2418  37.522   0.312   4.617
30159W        W 2419  15.702  33.901   4.328
30160W        W 2420  18.775  31.433  12.920
30161W        W 2421  38.513  28.452  13.826
30162W        W 2422  24.670  28.599   2.386
30163W        W 2423   5.301  35.853   2.807
30164W        W 2424  27.051  23.163  12.394
30165W        W 2425  26.114   1.333   2.343
30166W        W 2426  22.635  10.694  11.997
30167W        W 2427  27.186  19.646  11.900
30168W        W 2428   1.910  22.508  11.529
30169W        W 2429   0.422  13.248   4.640
30170W        W 2430  13.624  32.037   1.254
30171W        W 2431  22.506  17.586   3.375
30172W        W 2432  16.649  19.252   1.354
30173W        W 2433  10.684  16.074  10.481
30174W        W 2434  39.554   3.437   1.249
30175W        W 2435  33.620   0.764   3.307
30176W        W 2436   4.425  25.164   2.355
30177W        W 2437  22.084  27.960  13.337
30178W        W 2438   8.758  40.963  14.935
30179W        W 2439  12.615   9.865   1.374
30180W        W 2440  28.034  13.214  12.425
30181W        W 2441  35.864  34.570   2.855
30182W        W 2442  42.922  15.252   4.177
30183W        W 2443   1.955   3.825  13.965
30184W        W 2444  24.506  15.214  12.035
30185W        W 2445  36.014  22.682  12.912
30186W        W 2446  43.461   0.447   3.360
30187W        W 2447   9.772  41.298   2.816
30188W        W 2448  27.989  19.722   1.778
30189W        W 2449  25.210   1.365  12.444
30190W        W 2450  20.723   6.336   2.418
30191W        W 2451  11.222  40.504  11.577
30192W        W 2452  23.222  34.979  11.573
30193W        W 2453   0.817   5.907   0.920
30194W        W 2454   4.940   2.334  14.844
30195W        W 2455  32.030  14.629   0.955
30196W        W 2456  25.150  17.708  10.902
30197W        W 2457  20.760  24.063  14.485
30198W        W 2458   7.884  41.417   1.447
30199W        W 2459   1.930  19.142  10.522
30200W        W 2460  13.831  26.167  14.284
30201W        W 2461  22.087  34.910  13.893
30202W        W 2462  14.203   6.836   0.312
30203W        W 2463  12.350  17.703   3.256
30204W        W 2464   7.209  39.894  10.586
30205W        W 2465  18.547   3.862  13.884
30206W        W 2466  42.863  10.278   2.302
30207W        W 2467  33.000  13.640   2.755
30208W        W 2468  33.618  28.639   1.334
30209W        W 2469  26.470  17.080   3.835
30210W        W 2470  14.648  24.100   3.842
30211W        W 2471  25.562  19.678  11.402
30212W        W 2472  27.133   0.268  11.120
30213W        W 2473  13.128  20.714  11.563
30214W        W 2474   7.845  42.853  13.358
30215W        W 2475  35.371   7.883  12.383
30216W        W 2476  31.941   5.907  14.832
30217W        W 2477   6.306   7.324   0.892
30218W        W 2478  15.136  42.301   3.644
30219W        W 2479  28.473  38.860  10.582
30220W        W 2480  10.273  39.966  13.942
30221W        W 2481   3.847  38.878  13.900
30222W        W 2482  36.876  22.664  14.841
30223W        W 2483   8.282  26.491   5.098
30224W        W 2484  31.621   9.274   1.349
30225W        W 2485  31.478  33.490   0.343
30226W        W 2486   1.361  39.901  13.362
30227W        W 2487  43.976   7.815   0.803
30228W        W 2488  32.426  27.063  13.824
30229W        W 2489  43.963  29.092  11.419
30230W        W 2490   0.924  27.042   0.904
30231W        W 2491   2.430  26.953   1.260
30232W        W 2492   8.687  10.362  13.905
30233W        W 2493   4.343  44.412   4.727
30234W        W 2494  39.424  10.160  10.949
30235W        W 2495  29.092  20.722  12.993
30236W        W 2496  37.847  28.012   1.280
30237W        W 2497  40.798  22.633  14.284
30238W        W 2498   9.346  21.678  12.950
30239W        W 2499  23.140  29.959  12.381
30240W        W 2500  13.202  10.871   0.967
30241W        W 2501  44.421  44.767  12.405
30242W        W 2502  40.483  13.274   3.253
30243W        W 2503  10.706  29.987  13.852
30244W        W 2504  39.850  37.387  13.457
30245W        W 2505  44.410  33.441  12.404
30246W        W 2506   4.934  12.809  11.032
30247W        W 2507   2.948  32.623   3.742
30248W        W 2508  18.290  28.063   4.823
30249W        W 2509  19.600   7.699  12.868
30250W        W 2510  11.368  24.576   0.865
30251W        W 2511  35.003   3.219   2.339
30252W        W 2512  42.867   7.368   0.352
30253W        W 2513  24.116  17.567  12.881
30254W        W 2514   5.870  38.020  14.835
30255W        W 2515  23.637   5.202  12.927
30256W        W 2516  32.578  17.295   2.834
30257W        W 2517  40.306   5.230  14.350
30258W        W 2518  41.896  41.969   4.259
30259W        W 2519   1.844  29.654   2.372
30260W        W 2520  11.853  22.136   2.824
30261W        W 2521  42.380  20.094   4.322
30262W        W 2522   2.380  27.014  14.325
30263W        W 2523  12.767  40.015  11.419
30264W        W 2524  14.622  44.759  13.035
30265W        W 2525  36.433  17.564   2.343
30266W        W 2526  27.968  43.356   4.315
30267W        W 2527   8.193  19.642   2.350
30268W        W 2528   0.377  12.620   1.872
30269W        W 2529  31.601  35.005  11.922
30270W        W 2530  16.628  16.813  11.503
30271W        W 2531  20.637  34.872  12.977
30272W        W 2532  43.417   6.292   2.194
30273W        W 2533  32.566  14.211  10.452
30274W        W 2534  38.960  44.872  14.465
30275W        W 2535  15.252  17.265  13.498
30276W        W 2536   0.977  18.104  11.497
30277W        W 2537  10.731   4.389   4.264
30278W        W 2538  42.862  37.530  10.492
30279W        W 2539  13.336   1.909   4.164
30280W        W 2540  20.055  37.350   3.725
30281W        W 2541   1.455  37.867  11.060
30282W        W 2542  18.590   2.783   2.368
30283W        W 2543  13.603  38.865  13.345
30284W        W 2544  16.768  14.181  14.484
30285W        W 2545  21.080  18.139  13.983
30286W        W 2546  34.885  20.632   5.626
30287W        W 2547  23.099  32.427  11.064
30288W        W 2548  21.084  32.477  14.315
30289W        W 2549  26.079  35.945  12.023
30290W        W 2550  31.642  31.546   1.919
30291W        W 2551  14.115  24.182   4.667
30292W        W 2552  30.420  36.542   0.483
30293W        W 2553  24.682  19.554   2.248
30294W        W 2554  25.524  12.617   2.296
30295W        W 2555  15.694  28.503  13.461
30296W        W 2556  11.681  19.580   4.190
30297W        W 2557   5.819  16.144  10.429
30298W        W 2558  33.911  29.094  11.598
30299W        W 2559  14.305  30.161  12.971
30300W        W 2560  24.545   1.897  13.877
30301W        W 2561  24.661  29.446  12.004
30302W        W 2562  11.329  19.189   3.286
30303W        W 2563  11.736  36.459  14.991
30304W        W 2564  28.951  25.692  10.606
30305W        W 2565  42.523  14.191  11.609
30306W        W 2566  26.149  38.524   5.736
30307W        W 2567   8.674   2.856   1.755
30308W        W 2568   6.770   2.275  14.870
30309W        W 2569  18.202  42.418  14.474
30310W        W 2570  35.518  24.214  13.806
30311W        W 2571   9.882   9.286   1.214
30312W        W 2572  27.958  39.519   2.332
30313W        W 2573  33.528  14.774   0.965
30314W        W 2574   5.867  17.251  14.349
30315W        W 2575   7.893  30.983  12.928
30316W        W 2576  16.707   3.280  14.461
30317W        W 2577   0.753  43.837   4.719
30318W        W 2578   4.253  11.779   2.899
30319W        W 2579  23.566  40.400  11.044
30320W        W 2580  43.971  27.010   2.749
30321W        W 2581  39.887  43.016   0.433
30322W        W 2582  42.394   8.235   1.841
30323W        W 2583  29.486  33.899  13.477
30324W        W 2584  34.468  28.061   4.768
30325W        W 2585  41.309  23.552  13.525
30326W        W 2586  41.879   1.249  14.470
30327W        W 2587   2.858   7.753  10.950
30328W        W 2588  29.011  41.317   0.915
30329W        W 2589  29.141  11.216   1.727
30330W        W 2590  23.140  23.567  12.928
30331W        W 2591  36.445  15.721   1.710
30332W        W 2592  39.896  12.658   3.813
30333W        W 2593  13.156  15.324   3.212
30334W        W 2594   4.221  19.242  11.061
30335W        W 2595  16.307  34.928  13.431
30336W        W 2596  23.548  14.203  13.491
30337W        W 2597  23.648  12.188   0.332
30338W        W 2598  38.830  17.626   1.711
30339W        W 2599  22.591  40.522  12.027
30340W        W 2600  17.607  39.477   4.228
30341W        W 2601  31.080  20.574  14.991
30342W        W 2602  21.190  34.572  12.067
30343W        W 2603  18.053  25.143  10.622
30344W        W 2604  21.220  34.911   5.236
30345W        W 2605   6.302   6.871   0.462
30346W        W 2606  15.282  43.915  12.555
30347W        W 2607   1.333   5.333   1.733
30348W        W 2608  37.840  17.166   9.938
30349W        W 2609  39.526  32.601  10.905
30350W        W 2610   3.922  29.000   0.297
30351W        W 2611  34.603  24.051   0.743
30352W        W 2612  37.059   3.319  10.447
30353W        W 2613  33.448   3.367  11.065
30354W        W 2614  25.116  15.145   0.795
30355W        W 2615  43.940   8.225   4.823
30356W        W 2616  20.057  43.017  13.363
30357W        W 2617  10.357  37.838  10.910
30358W        W 2618  10.233  39.473   4.633
30359W        W 2619  17.064  16.747   4.631
30360W        W 2620  32.494  38.326  11.391
30361W        W 2621  40.846  20.560   1.363
30362W        W 2622  21.041  10.218  11.388
30363W        W 2623  35.044  41.441  10.133
30364W        W 2624  16.766  44.398  12.509
30365W        W 2625  32.473   0.904  12.038
30366W        W 2626  19.155  43.017   4.602
30367W        W 2627  19.537   3.909   4.760
30368W        W 2628  13.115  18.199  12.475
30369W        W 2629  29.991   9.174  14.288
30370W        W 2630   2.931  17.575   1.438
30371W        W 2631  21.257  18.227   1.850
30372W        W 2632   5.417  14.320   0.276
30373W        W 2633   7.300  34.942   3.332
30374W        W 2634   7.228  42.304   4.787
30375W        W 2635  33.120  41.928  13.922
30376W        W 2636  14.258  40.017   1.726
30377W        W 2637  27.571  44.983   0.803
30378W        W 2638  28.446  39.502  11.982
30379W        W 2639  32.028  25.525   2.746
30380W        W 2640  41.439   6.915   1.838
30381W        W 2641  34.946  12.645  13.033
30382W        W 2642   5.232  25.609  13.373
30383W        W 2643  15.655  37.011  10.042
30384W        W 2644  34.401  21.024   2.405
30385W        W 2645  22.236   0.920   4.136
30386W        W 2646   6.709  21.129   0.472
30387W        W 2647  35.578  21.576   4.713
30388W        W 2648  37.368  38.461  11.441
30389W        W 2649  23.006  14.727  10.547
30390W        W 2650  37.352  13.202  11.937
30391W        W 2651  29.938  20.153  14.817
30392W        W 2652   3.226  30.979  12.020
30393W        W 2653  23.688  29.080   0.310
30394W        W 2654  44.419  16.236   0.832
30395W        W 2655  38.963  30.990  12.992
30396W        W 2656  44.996  37.971   2.843
30397W        W 2657  14.785   9.792  11.984
30398W        W 2658   9.336  27.505   4.308
30399W        W 2659  17.151  36.019   1.891
30400W        W 2660  10.240  35.568   4.655
30401W        W 2661  37.994  35.095   1.899
30402W        W 2662  23.598  29.508   1.374
30403W        W 2663   5.710   1.840   1.869
30404W        W 2664  34.501  36.065   1.789
30405W        W 2665  13.321  12.727  11.500
30406W        W 2666  33.998  37.435   1.829
30407W        W 2667   6.773   0.366  14.846
30408W        W 2668   5.741  42.305  11.986
30409W        W 2669  44.329   6.311  11.588
30410W        W 2670  22.193  28.437   9.602
30411W        W 2671  24.589  26.695   1.240
30412W        W 2672  37.031  13.322   2.314
30413W        W 2673  11.826   0.427   3.735
30414W        W 2674  34.443  31.439   0.891
30415W        W 2675   4.348  14.283  10.506
30416W        W 2676  26.695  41.473  14.439
30417W        W 2677  14.132   1.917   2.779
30418W        W 2678  35.406  26.502   0.784
30419W        W 2679  44.974  20.180   3.366
30420W        W 2680  41.449  14.242  11.607
30421W        W 2681  12.334  44.413   0.911
30422W        W 2682  15.800   4.308   2.272
30423W        W 2683  23.167   7.737   1.785
30424W        W 2684   1.459  11.822   2.760
30425W        W 2685  22.128  43.944   4.688
30426W        W 2686   9.757  39.820  12.891
30427W        W 2687  34.568  31.589  10.526
30428W        W 2688  13.619   8.744   3.377
30429W        W 2689  12.208  31.431   0.386
30430W        W 2690  14.797  42.385  10.991
30431W        W 2691   3.835  22.153   0.461
30432W        W 2692  13.631  24.219   1.813
30433W        W 2693   2.931  19.645   3.203
30434W        W 2694  30.550   8.323   4.247
30435W        W 2695   5.330  23.027  11.053
30436W        W 2696  21.754  10.267  10.432
30437W        W 2697  26.559   5.833  11.471
30438W        W 2698   0.928  14.253  14.290
30439W        W 2699  37.492  44.479  12.927
30440W        W 2700   9.797   4.833  14.803
30441W        W 2701  41.479  26.630   3.697
30442W        W 2702  34.501   6.844  10.567
30443W        W 2703  33.499   5.764  13.470
30444W        W 2704  23.135  25.018   5.101
30445W        W 2705   0.440  15.646  13.499
30446W        W 2706  13.814  41.511   0.289
30447W        W 2707  40.453  41.846   4.281
30448W        W 2708   4.270  31.038   4.314
30449W        W 2709   0.795  39.550  10.479
30450W        W 2710  38.863   1.341   1.836
30451W        W 2711  41.342  33.054  13.062
30452W        W 2712  40.310  24.569  11.904
30453W        W 2713   9.849   8.222   4.335
30454W        W 2714  31.562  38.476   1.740
30455W        W 2715  13.308  38.490   3.823
30456W        W 2716  40.337  31.074   4.137
30457W        W 2717  33.399  38.339   4.144
30458W        W 2718  27.074  19.754  13.955
30459W        W 2719   0.843   0.310   3.842
30460W        W 2720   9.850  24.721  14.335
30461W        W 2721   2.414   0.972  14.867
30462W        W 2722  30.036  30.491  13.040
30463W        W 2723  42.836  40.542  13.535
30464W        W 2724   3.344   9.763   3.792
30465W        W 2725  33.475  32.017   3.657
30466W        W 2726  42.821  39.431  13.025
30467W        W 2727  33.471  11.131  14.890
30468W        W 2728  25.197  33.535  11.490
30469W        W 2729  27.033   5.420  10.514
30470W        W 2730   0.456  44.365   0.297
30471W        W 2731   0.438  33.438   3.381
30472W        W 2732  21.134  41.367  11.942
30473W        W 2733  31.121   9.265  13.530
30474W        W 2734  21.681  21.202  12.900
30475W        W 2735   1.308  18.591   4.226
30476W        W 2736  29.445   9.257  10.548
30477W        W 2737  22.102  21.233  13.932
30478W        W 2738  17.692  20.754   4.639
30479W        W 2739  15.141  14.241  14.013
30480W        W 2740  10.156   1.966   4.707
30481W        W 2741  29.444  32.489   1.740
30482W        W 2742   3.735  41.530   0.871
30483W        W 2743  20.752   1.408  11.447
30484W        W 2744  26.510  13.622  14.516
30485W        W 2745  37.878   0.829  12.540
30486W        W 2746  31.918   4.262   1.405
30487W        W 2747   1.767  23.087  14.319
30488W        W 2748  38.875  10.180  13.367
30489W        W 2749  14.154  37.003   0.870
30490W        W 2750  41.858   7.210  10.088
30491W        W 2751  38.462  10.710   4.705
30492W        W 2752  26.677   3.815  12.496
30493W        W 2753  34.942  44.782  10.949
30494W        W 2754  40.903  34.518  13.805
30495W        W 2755  23.685   8.694   1.375
30496W        W 2756  35.362  44.325   2.705
30497W        W 2757  35.101   3.346   3.837
30498W        W 2758   9.793   2.376  14.396
30499W        W 2759  36.520  42.362   1.737
30500W        W 2760  20.692  27.112   0.946
30501W        W 2761  16.728  40.985  14.983
30502W        W 2762  28.438  34.947  11.864
30503W        W 2763  40.331  11.864  11.386
30504W        W 2764  37.548  33.107  12.537
30505W        W 2765   0.343  26.632  13.331
30506W        W 2766  10.696  28.130  14.836
30507W        W 2767  22.063  25.171  10.906
30508W        W 2768  31.481   8.229  13.010
30509W        W 2769  37.372   7.326  10.578
30510W        W 2770  35.362   3.216   3.168
30511W        W 2771   2.304  41.360   4.260
30512W        W 2772   2.903  29.656  14.281
30513W        W 2773  40.471  20.133  14.785
30514W        W 2774  14.109  32.445   3.815
30515W        W 2775  44.368  43.873   3.753
30516W        W 2776  41.352  31.952   0.475
30517W        W 2777   7.229  40.995   4.798
30518W        W 2778  29.466  16.797   0.266
30519W        W 2779   3.716  26.110  11.103
30520W        W 2780   8.360  40.882  11.030
30521W        W 2781  13.197  27.108  11.902
30522W        W 2782  42.509   3.454  13.840
30523W        W 2783  39.529  36.900   1.728
30524W        W 2784   7.730   3.335   2.757
30525W        W 2785  40.843  38.462  12.940
30526W        W 2786  30.079   3.258  14.465
30527W        W 2787  29.528  43.795   3.354
30528W        W 2788   8.727  29.036   0.773
30529W        W 2789   3.877  26.611  10.026
30530W        W 2790   4.701  13.699  12.454
30531W        W 2791  13.746  39.873  14.896
30532W        W 2792  28.580  34.592   2.288
30533W        W 2793  14.715  34.998   1.803
30534W        W 2794   4.348  43.507   1.700
30535W        W 2795  33.091  23.062   1.287
30536W        W 2796  21.578  22.604   0.883
30537W        W 2797  10.756  19.683   0.824
30538W        W 2798  25.156  17.131   2.255
30539W        W 2799  25.505  23.123   1.401
30540W        W 2800   6.362  13.725   1.833
30541W        W 2801   1.941   9.753  12.004
30542W        W 2802   7.334  14.669   4.707
30543W        W 2803  13.667  13.118   1.222
30544W        W 2804   7.744  39.057   0.361
30545W        W 2805   6.783  11.679   3.635
30546W        W 2806  35.984   5.751  11.488
30547W        W 2807  32.107  38.463  10.441
30548W        W 2808  13.337  21.181  12.993
30549W        W 2809   9.720   0.803   0.726
30550W        W 2810  42.423  15.218  14.484
30551W        W 2811  14.593  27.574   0.939
30552W        W 2812  36.076  22.538   1.328
30553W        W 2813  13.813  26.027   2.775
30554W        W 2814  11.279   7.726  14.508
30555W        W 2815  42.978   4.404   4.627
30556W        W 2816  44.364  17.135  14.484
30557W        W 2817  32.978  26.474  13.527
30558W        W 2818  30.537  30.072   1.373
30559W        W 2819  26.138  35.870   2.368
30560W        W 2820  25.170  11.352  11.067
30561W        W 2821  33.114  22.738   1.736
30562W        W 2822  42.469  38.970  12.059
30563W        W 2823  18.602   2.411   4.751
30564W        W 2824  10.867  27.655   3.655
30565W        W 2825  28.071  18.704  11.025
30566W        W 2826  18.285   5.885   3.813
30567W        W 2827  31.086  36.949  14.370
30568W        W 2828  13.765   2.296  14.825
30569W        W 2829  23.163  13.286   2.213
30570W        W 2830   1.792   9.768   4.787
30571W        W 2831   4.313  25.627  12.495
30572W        W 2832  23.116  40.932  11.387
30573W        W 2833  23.561   8.793   9.997
30574W        W 2834  29.134  29.496  13.500
30575W        W 2835  31.110  39.061  13.519
30576W        W 2836  43.864  20.121   1.388
30577W        W 2837  16.109  27.485   0.766
30578W        W 2838  38.522   1.744   0.859
30579W        W 2839  19.140  28.130   3.710
30580W        W 2840  14.277  13.170  13.386
30581W        W 2841  43.822  20.167   2.703
30582W        W 2842  28.963  41.898  11.076
30583W        W 2843  15.259   4.749   2.247
30584W        W 2844  38.070   3.337   3.644
30585W        W 2845  12.173  44.975  12.444
30586W        W 2846   6.378   1.869   0.261
30587W        W 2847  29.547  17.091  12.935
30588W        W 2848  10.714  20.085  11.076
30589W        W 2849  26.067   6.887  14.965
30590W        W 2850   0.902   2.442  11.858
30591W        W 2851  14.643  33.586   4.656
30592W        W 2852  28.162  22.223   2.842
30593W        W 2853  32.552   3.461  12.547
30594W        W 2854  33.962  14.781   0.248
30595W        W 2855  25.692  44.267  11.868
30596W        W 2856   7.332  15.112   3.716
30597W        W 2857  17.663  23.038  13.413
30598W        W 2858  43.772  14.284  14.030
30599W        W 2859  19.121  42.310  12.041
30600W        W 2860  40.868   3.747  11.533
30601W        W 2861  21.736  18.778  12.528
30602W        W 2862  20.236  37.349  11.409
30603W        W 2863  33.062  20.765  13.406
30604W        W 2864  23.207  29.649  11.995
30605W        W 2865  19.141  14.274  11.013
30606W        W 2866  36.950   8.251   4.217
30607W        W 2867  27.101  39.391  14.469
30608W        W 2868  19.732  35.378  12.487
30609W        W 2869  39.430   1.479  13.326
30610W        W 2870   3.238  35.109  13.486
30611W        W 2871  44.884   7.316   4.167
30612W        W 2872   4.308   2.887  14.334
30613W        W 2873  12.195  34.445   0.870
30614W        W 2874  23.148  11.643   4.277
30615W        W 2875  22.044  37.545  12.943
30616W        W 2876   4.413  40.332  13.921
30617W        W 2877  32.073  28.970  14.383
30618W        W 2878  14.621  36.348  10.478
30619W        W 2879  29.162  29.463   5.242
30620W        W 2880   3.252  19.666   0.357
30621W        W 2881  10.286   4.796   5.245
30622W        W 2882  19.553  11.252  14.959
30623W        W 2883  16.307  20.261   3.793
30624W        W 2884  35.036   9.231  11.505
30625W        W 2885  24.185  41.453  14.495
30626W        W 2886  43.923   9.356  10.939
30627W        W 2887  44.323   5.258  12.001
30628W        W 2888  18.680  20.140  10.422
30629W        W 2889  20.721   5.840  13.374
30630W        W 2890  10.164  44.339  12.073
30631W        W 2891  24.640  24.222  10.600
30632W        W 2892  18.645   2.927   2.821
30633W        W 2893  26.099  27.643  10.422
30634W        W 2894  29.020  10.302   2.312
30635W        W 2895  28.525   4.445  12.948
30636W        W 2896  19.270   2.462  14.406
30637W        W 2897   4.421  27.987  14.003
30638W        W 2898  41.796  35.518   1.277
30639W        W 2899  41.331  33.064  11.096
30640W        W 2900  24.124  35.365   3.794
30641W        W 2901  35.581  23.583  11.545
30642W        W 2902  25.168  20.186   0.904
30643W        W 2903  25.631  33.587   0.355
30644W        W 2904   4.796  18.750   4.697
30645W        W 2905   5.363  40.353  12.826
30646W        W 2906  29.553   4.824   1.309
30647W        W 2907  28.948   4.885   0.442
30648W        W 2908   6.717   4.881  10.483
30649W        W 2909  42.964  26.486   2.251
30650W        W 2910   5.865  20.092  14.396
30651W        W 2911  31.567  36.032  10.606
30652W        W 2912   2.933  15.105   1.860
30653W        W 2913  19.550   3.392   4.632
30654W        W 2914   0.379  41.310  14.940
30655W        W 2915  38.530  19.541  11.498
30656W        W 2916  21.239   0.822   4.610
30657W        W 2917  28.028  24.517  13.811
30658W        W 2918  28.669  15.696  13.027
30659W        W 2919  20.214  41.484  14.789
30660W        W 2920  34.400  10.192   2.339
30661W        W 2921  13.341  21.691  13.047
30662W        W 2922  11.645  16.186   4.738
30663W        W 2923  10.256  11.304  11.029
30664W        W 2924   0.962  37.342  12.468
30665W        W 2925  38.536  29.931  11.497
30666W        W 2926  30.155  36.967   1.770
30667W        W 2927  10.771  34.924   0.465
30668W        W 2928  20.578  25.973  14.336
30669W        W 2929  18.259   7.325   4.288
30670W        W 2930   4.941  36.384  10.915
30671W        W 2931  11.202   5.781  11.552
30672W        W 2932  15.693   5.883   0.307
30673W        W 2933  16.712  14.155  14.804
30674W        W 2934   3.891   3.238   3.185
30675W        W 2935  34.543  25.599  13.443
30676W        W 2936  31.586  27.109  11.439
30677W        W 2937  28.654  14.177   3.179
30678W        W 2938   6.300  13.833  13.930
30679W        W 2939  13.187  16.578  12.884
30680W        W 2940  16.183  26.154  12.824
30681W        W 2941  37.995   2.330  12.533
30682W        W 2942  36.975  34.056   2.391
30683W        W 2943  21.726  24.643   4.308
30684W        W 2944  28.113  29.992  13.417
30685W        W 2945  24.175  12.296   2.687
30686W        W 2946  30.612  40.807   2.344
30687W        W 2947  18.145   2.355  12.435
30688W        W 2948  14.324  38.923   4.828
30689W        W 2949  22.022  35.459  14.372
30690W        W 2950  41.398  39.559  10.498
30691W        W 2951  35.440  25.596   2.227
30692W        W 2952  31.529  39.323   4.115
30693W        W 2953  39.043  43.852   1.841
30694W        W 2954   6.699  10.752   0.922
30695W        W 2955  18.259  26.141   1.244
30696W        W 2956  32.021  25.041   2.729
30697W        W 2957  30.483  17.779  13.530
30698W        W 2958  24.154  28.066  11.481
30699W        W 2959  38.051  27.115  13.467
30700W        W 2960   8.280  32.057   2.200
30701W        W 2961  31.092  16.699  10.632
30702W        W 2962  38.058  17.779  13.546
30703W        W 2963  15.586  21.550  11.430
30704W        W 2964  13.294  32.983   3.795
30705W        W 2965   9.189   5.217  14.866
30706W        W 2966  18.634  10.181   1.861
30707W        W 2967  40.378  15.201  10.992
30708W        W 2968  42.353  31.621   3.342
30709W        W 2969  17.188  29.137   0.258
30710W        W 2970   5.823  24.639  13.061
30711W        W 2971  18.574   0.983  14.810
30712W        W 2972  35.986  24.643  13.527
30713W        W 2973  20.243   6.281   5.116
30714W        W 2974  30.576  17.647  14.880
30715W        W 2975  33.015  39.001  14.444
30716W        W 2976  30.933   1.942  13.035
30717W        W 2977  12.348  44.394  13.494
30718W        W 2978  44.869   7.707  10.468
30719W        W 2979   7.292   4.849  10.583
30720W        W 2980  44.376  37.539   3.846
30721W        W 2981  35.086  44.947  10.621
30722W        W 2982  33.611  24.535   1.279
30723W        W 2983   1.757  32.401  13.941
30724W        W 2984  26.695  15.185   0.781
30725W        W 2985  15.587  24.122  13.318
30726W        W 2986  21.173  23.536  14.918
30727W        W 2987   7.305  29.162  13.951
30728W        W 2988  16.120  15.298  11.515
30729W        W 2989   1.823  23.116   2.218
30730W        W 2990  36.417  35.097   3.341
30731W        W 2991  38.376   8.666  13.934
30732W        W 2992  12.811   0.493  14.361
30733W        W 2993  19.585   4.823  13.042
30734W        W 2994  40.445  18.707  11.424
30735W        W 2995  19.173   1.836   0.342
30736W        W 2996   6.837  34.566   2.665
30737W        W 2997   3.928  20.225  14.369
30738W        W 2998  14.160  34.015  11.521
30739W        W 2999  39.446  26.618   5.268
30740W        W 3000  28.104  19.242  11.963
30741W        W 3001   9.221   1.835   4.755
30742W        W 3002  29.496   7.789  11.069
30743W        W 3003  40.466  22.582  13.995
30744W        W 3004  23.549  35.435   2.238
30745W        W 3005  18.722  40.888  12.086
30746W        W 3006  15.694   8.315  11.461
30747W        W 3007   0.289  18.114  14.380
30748W        W 3008  30.579   8.225  13.930
30749W        W 3009  10.238  27.648   0.354
30750W        W 3010  14.834   2.235   2.394
30751W        W 3011   1.265  43.957   2.204
30752W        W 3012  17.138  16.654  10.157
30753W        W 3013  22.521   5.838   2.786
30754W        W 3014  13.255  29.609   2.328
30755W        W 3015   1.952  41.799  14.848
30756W        W 3016  32.049  34.968  10.639
30757W        W 3017  12.317  11.849  14.792
30758W        W 3018  37.861  44.800   4.204
30759W        W 3019  17.771  29.108  11.028
30760W        W 3020  19.769  28.594   2.682
30761W        W 3021   7.234  28.523  12.083
30762W        W 3022  17.282  19.595  11.493
30763W        W 3023  41.868  15.216  10.912
30764W        W 3024  10.847  20.537   2.852
30765W        W 3025  37.969  30.529   2.892
30766W        W 3026  33.488  17.118   0.352
30767W        W 3027   0.475  36.476   3.369
30768W        W 3028  37.555  11.233  13.864
30769W        W 3029  38.981  28.591  12.850
30770W        W 3030  31.999  14.640  14.982
30771W        W 3031  43.982   2.374  14.435
30772W        W 3032   6.287  40.857  13.800
30773W        W 3033   5.330   3.458  13.440
30774W        W 3034  25.467  32.060   4.139
30775W        W 3035   5.850   7.191  11.950
30776W        W 3036  18.671  42.522   2.341
30777W        W 3037  28.081  24.549  10.138
30778W        W 3038  12.279  21.180  10.419
30779W        W 3039  33.023   9.704  13.343
30780W        W 3040  11.127  17.232  14.976
30781W        W 3041  28.676  12.128  14.388
30782W        W 3042  44.853  28.975  12.908
30783W        W 3043  30.545  36.010   4.750
30784W        W 3044  20.695   1.359   4.821
30785W        W 3045   1.351  40.450  12.981
30786W        W 3046   9.363   4.404   3.647
30787W        W 3047   6.861  27.548   1.234
30788W        W 3048   4.790  15.276  10.016
30789W        W 3049  41.804   2.771  14.913
30790W        W 3050  29.461  27.565  11.020
30791W        W 3051  25.118  38.824   4.221
30792W        W 3052  23.565  18.667   2.325
30793W        W 3053   1.834  31.477  14.352
30794W        W 3054  37.926  37.531  10.982
30795W        W 3055  14.234  27.034  11.420
30796W        W 3056  33.935   2.461  10.560
30797W        W 3057  18.602  33.959   0.245
30798W        W 3058  44.275  38.505   2.739
30799W        W 3059  34.054  12.358   3.860
30800W        W 3060  10.347  34.067   2.395
30801W        W 3061  18.169  21.042  13.526
30802W        W 3062   9.688  42.952  10.408
30803W        W 3063  42.807   0.879  11.874
30804W        W 3064  25.574  11.323  11.979
30805W        W 3065  22.202  35.908   2.289
30806W        W 3066  23.203  30.909  13.041
30807W        W 3067  33.100   2.774   1.851
30808W        W 3068  24.173  40.333   5.789
30809W        W 3069  21.591  26.200   4.176
30810W        W 3070   9.161  29.432  14.396
30811W        W 3071  29.649  17.673  12.909
30812W        W 3072   6.225  11.128  12.402
30813W        W 3073  33.505  23.102   3.669
30814W        W 3074  40.935  41.015   4.686
30815W        W 3075   6.753  13.326  13.008
30816W        W 3076  10.857  13.622   2.380
30817W        W 3077   3.456  14.296  12.362
30818W        W 3078  39.416  10.287  14.509
30819W        W 3079  39.908  43.939   2.794
30820W        W 3080  27.097  13.112   4.804
30821W        W 3081  31.572  32.449  13.934
30822W        W 3082   8.838   2.226   4.720
30823W        W 3083  42.942  29.932   2.190
30824W        W 3084  27.539  41.897   5.132
30825W        W 3085  27.038  15.199  14.966
30826W        W 3086   6.233  27.498  14.025
30827W        W 3087  25.559  17.738  13.432
30828W        W 3088  11.164  24.049   3.222
30829W        W 3089  12.651   6.267  10.946
30830W        W 3090   2.337   8.397   4.604
30831W        W 3091  33.528  31.138   1.776
30832W        W 3092   6.224  27.461   1.892
30833W        W 3093   7.680   2.276   2.353
30834W        W 3094  21.151  41.359  13.526
30835W        W 3095  35.085  36.500   0.965
30836W        W 3096  29.057  22.556   0.459
30837W        W 3097   7.745  18.664  13.334
30838W        W 3098  37.579  10.741   3.708
30839W        W 3099  42.485   5.921  13.992
30840W        W 3100  27.000  17.560  13.335
30841W        W 3101  39.325  35.033  12.470
30842W        W 3102   4.820  43.460   3.737
30843W        W 3103   2.939  15.135   3.319
30844W        W 3104  33.019  28.180   2.260
30845W        W 3105   0.405  44.425   4.679
30846W        W 3106   0.784   2.801  10.934
30847W        W 3107  30.961  40.496   0.269
30848W        W 3108   8.772  44.259  12.369
30849W        W 3109  37.896   2.364  13.984
30850W        W 3110  41.464  29.517   3.364
30851W        W 3111  35.071  15.676   4.699
30852W        W 3112   1.821  34.545   4.726
30853W        W 3113   8.853  32.129  10.458
30854W        W 3114  12.699  41.824  14.014
30855W        W 3115  44.474   9.205  14.917
30856W        W 3116  30.019  34.980  12.973
30857W        W 3117  11.715  33.492  13.989
30858W        W 3118  39.518   8.345  12.927
30859W        W 3119   4.849  35.490   0.806
30860W        W 3120  17.569   6.692   3.680
30861W        W 3121  29.016  40.824   2.248
30862W        W 3122  36.516  36.876   2.865
30863W        W 3123   0.914  28.590   3.801
30864W        W 3124  23.716  10.376   3.180
30865W        W 3125   4.870  20.114   5.290
30866W        W 3126  26.695  42.028  10.959
30867W        W 3127  38.499   2.238   1.753
30868W        W 3128  24.218  24.641  10.479
30869W        W 3129  27.621   7.259  12.055
30870W        W 3130   1.833  31.569  11.503
30871W        W 3131  13.211  42.933  10.912
30872W        W 3132  21.095   3.218  13.428
30873W        W 3133  42.293  27.460  13.867
30874W        W 3134  27.570  33.523  10.904
30875W        W 3135  10.853  38.014   1.445
30876W        W 3136  40.497  17.289   4.293
30877W        W 3137  13.308  12.760   2.276
30878W        W 3138   9.197  21.207   3.701
30879W        W 3139  28.968  33.574  13.346
30880W        W 3140  28.611  29.432  10.534
30881W        W 3141  16.117  17.176  10.461
30882W        W 3142  18.130  31.017  10.480
30883W        W 3143  15.701  21.196   4.246
30884W        W 3144   8.829  38.406  12.064
30885W        W 3145  23.583  32.628  14.316
30886W        W 3146  21.124  42.387   5.293
30887W        W 3147   6.261   6.875   3.681
30888W        W 3148  13.261  18.101   5.219
30889W        W 3149  27.511  14.730  13.545
30890W        W 3150  15.638  27.474  10.072
30891W        W 3151   5.885  24.195   1.867
30892W        W 3152  35.979   1.430  12.547
30893W        W 3153   5.772  21.729   3.765
30894W        W 3154   2.754  18.124   3.283
30895W        W 3155  24.521  41.786   3.668
30896W        W 3156  20.561   2.312   0.769
30897W        W 3157   3.429  29.972  13.839
30898W        W 3158  24.561  23.537  11.603
30899W        W 3159  43.383  19.206  12.068
30900W        W 3160  41.395  16.203   1.894
30901W        W 3161  17.647  18.232  14.790
30902W        W 3162  26.971  24.046  13.830
30903W        W 3163  29.472  24.986  12.486
30904W        W 3164   6.883  40.400   2.753
30905W        W 3165  21.741  16.759   9.998
30906W        W 3166   0.783  25.514  13.458
30907W        W 3167  14.626   6.276   3.752
30908W        W 3168  17.640  17.298  13.507
30909W        W 3169  21.644  22.196   2.849
30910W        W 3170  22.132   6.258   3.282
30911W        W 3171  11.150  20.218   2.821
30912W        W 3172  23.551   4.866  12.453
30913W        W 3173  21.523   2.247   2.690
30914W        W 3174  11.707  32.068   0.338
30915W        W 3175  12.733  14.794  14.404
30916W        W 3176  17.278   2.251   1.388
30917W        W 3177  11.755  22.504  13.314
30918W        W 3178  36.354  30.622  14.936
30919W        W 3179   1.271  33.557   1.707
30920W        W 3180   3.844  15.257   4.129
30921W        W 3181  32.563  12.337  13.875
30922W        W 3182  11.659  36.412  11.568
30923W        W 3183  10.777  39.897   0.314
30924W        W 3184   8.824  34.488  11.552
30925W        W 3185  30.954  18.138  10.064
30926W        W 3186   3.836  36.065  14.438
30927W        W 3187  41.329  39.939  11.394
30928W        W 3188   0.453   5.812  10.429
30929W        W 3189   1.424   2.278  12.087
30930W        W 3190   0.931  19.564   4.782
30931W        W 3191  14.607  15.197  14.431
30932W        W 3192  12.127  21.699   3.798
30933W        W 3193  24.632  18.634   3.203
30934W        W 3194   5.347  36.046   4.113
30935W        W 3195   9.285  41.933   4.776
30936W        W 3196   7.911  41.844   0.905
30937W        W 3197  29.533  31.929   5.703
30938W        W 3198   8.749  21.667   4.340
30939W        W 3199   2.351  28.619   0.440
30940W        W 3200  42.354  43.429   3.702
30941W        W 3201  32.401  28.025  14.379
30942W        W 3202   8.896  13.781  11.929
30943W        W 3203   8.299  11.183   2.903
30944W        W 3204  23.071  43.774   4.133
30945W        W 3205   8.222   6.774   3.170
30946W        W 3206  22.652  18.628   9.677
30947W        W 3207   6.807  10.269   2.222
30948W        W 3208  25.698  42.898   3.763
30949W        W 3209  44.312   0.445   9.958
30950W        W 3210   5.904  29.464   2.795
30951W        W 3211   8.363  32.509   4.314
30952W        W 3212   1.477  41.928  14.892
30953W        W 3213  35.599   3.712   2.272
30954W        W 3214  20.206   1.392  11.423
30955W        W 3215  39.332  21.690   0.481
30956W        W 3216  13.679  33.403   1.411
30957W        W 3217  25.570  39.877   5.123
30958W        W 3218  22.089  20.136   0.947
30959W        W 3219  20.746  31.516   4.683
30960W        W 3220  43.975  31.951   0.297
30961W        W 3221  33.449  37.033   4.318
30962W        W 3222  36.536   0.428   2.341
30963W        W 3223  34.392  23.674  13.943
30964W        W 3224  16.613   8.719  12.030
30965W        W 3225   0.333  10.159  12.440
30966W        W 3226   9.391   2.804  10.519
30967W        W 3227  33.570  17.753   3.735
30968W        W 3228  33.589  42.933   4.115
30969W        W 3229  29.503   1.320  13.520
30970W        W 3230  34.116  32.412   1.245
30971W        W 3231  19.554  43.434  14.367
30972W        W 3232  37.040  35.488  10.911
30973W        W 3233  37.549  12.765   2.725
30974W        W 3234   2.304  38.357  13.839
30975W        W 3235  16.094  31.954  12.427
30976W        W 3236  35.477  18.264  10.631
30977W        W 3237  44.948  18.239  11.975
30978W        W 3238  30.592  31.961  12.952
30979W        W 3239  15.686  12.299  10.480
30980W        W 3240  21.258   5.776   3.734
30981W        W 3241  35.557   7.754  14.763
30982W        W 3242  12.623  21.700   1.877
30983W        W 3243  41.828  30.443   1.709
30984W        W 3244  30.599  26.568   2.717
30985W        W 3245  32.557   7.765  14.383
30986W        W 3246  30.951  21.582   4.771
30987W        W 3247  34.390  18.778   4.752
30988W        W 3248  39.962   9.676  14.344
30989W        W 3249  40.445  30.534   0.406
30990W        W 3250  27.183  40.998  14.906
30991W        W 3251   7.718  18.112   2.829
30992W        W 3252  30.593   1.803  14.807
30993W        W 3253  29.599  40.814  14.511
30994W        W 3254  38.999  39.958   9.938
30995W        W 3255  32.913  39.419  14.491
30996W        W 3256  38.912   7.207   3.363
30997W        W 3257  24.085  42.442  12.539
30998W        W 3258  44.841   4.431  11.553
30999W        W 3259  40.886  35.376   1.857
31000W        W 3260  29.069  28.100  14.010
31001W        W 3261  15.179  24.529   0.772
31002W        W 3262   7.406  26.514  12.873
31003W        W 3263  18.648  32.074  14.313
31004W        W 3264  42.442  17.271   0.265
31005W        W 3265  39.818  19.621   3.278
31006W        W 3266  25.473  23.575  12.407
31007W        W 3267  34.940  39.935   3.771
31008W        W 3268  43.942  16.133   1.883
31009W        W 3269  16.638  15.799  10.098
31010W        W 3270  36.949  14.624   2.835
31011W        W 3271  15.593  39.555  12.876
31012W        W 3272   4.786  40.506  14.797
31013W        W 3273   1.914  33.607   0.314
31014W        W 3274  23.081  42.384   0.384
31015W        W 3275  27.023  27.573   0.444
31016W        W 3276  34.033  19.246   0.347
31017W        W 3277   2.437  12.133  10.547
31018W        W 3278  31.588  37.006  12.957
31019W        W 3279  34.535  37.384  12.532
31020W        W 3280  32.568  25.597  11.106
31021W        W 3281  39.440  11.222  12.400
31022W        W 3282  24.557  32.080   2.358
31023W        W 3283  42.431   3.852   2.714
31024W        W 3284  29.029  11.188   0.449
31025W        W 3285  28.952  32.397   4.671
31026W        W 3286   7.712  25.151  14.865
31027W        W 3287  36.067  32.436   1.283
31028W        W 3288  36.520  12.349   2.697
31029W        W 3289   6.236  17.571  13.844
31030W        W 3290  22.017  36.499   4.128
31031W        W 3291  15.310  30.961  12.427
31032W        W 3292  38.346  10.740   3.748
31033W        W 3293  42.026  10.229   1.355
31034W        W 3294  36.521  39.472  12.973
31035W        W 3295  24.513  34.369  14.390
31036W        W 3296  32.623  42.907   5.316
31037W        W 3297  24.104  20.213   2.848
31038W        W 3298  23.239  31.142  14.288
31039W        W 3299  14.780  44.429  11.507
31040W        W 3300  41.941  13.123  13.312
31041W        W 3301  27.004  20.693  14.800
31042W        W 3302  28.605  10.293   4.810
31043W        W 3303  36.550  37.566   4.723
31044W        W 3304   9.646  17.195   0.284
31045W        W 3305  41.506  22.717  10.948
31046W        W 3306  24.168  22.641  14.954
31047W        W 3307   9.350  39.880   0.889
31048W        W 3308   6.336   4.855  11.403
31049W        W 3309   5.273   0.301   3.665
31050W        W 3310  13.207  10.806   1.319
31051W        W 3311  25.700  38.831  12.442
31052W        W 3312  19.673  35.921  13.453
31053W        W 3313   2.279  33.540   3.736
31054W        W 3314   3.943  23.157  10.627
31055W        W 3315  37.963  31.041   2.667
31056W        W 3316  20.238   5.769   4.182
31057W        W 3317  39.388  14.219   0.243
31058W        W 3318   5.407   2.773  12.367
31059W        W 3319  20.230  39.867   3.202
31060W        W 3320  40.527  15.161  11.467
31061W        W 3321  10.706  29.592  14.380
31062W        W 3322  21.518  18.755  11.083
31063W        W 3323  12.827   8.849   4.137
31064W        W 3324  29.940  25.107   1.746
31065W        W 3325  42.436  32.591  11.505
31066W        W 3326  30.419  20.692   3.644
31067W        W 3327  12.297  33.939  14.506
31068W        W 3328  15.793   9.810   2.179
31069W        W 3329  27.481  43.971   3.195
31070W        W 3330   7.371  18.081  11.557
31071W        W 3331  23.665   3.714  12.931
31072W        W 3332  44.299  12.684  11.984
31073W        W 3333  28.944  40.827   4.346
31074W        W 3334  41.505  34.110  14.279
31075W        W 3335  22.536  13.109  14.454
31076W        W 3336  13.108  14.823   4.188
31077W        W 3337  23.649   6.223   4.804
31078W        W 3338  21.715  16.278   4.229
31079W        W 3339  43.948  15.289   3.670
31080W        W 3340  27.054  19.738   4.781
31081W        W 3341  21.725   0.311   0.372
31082W        W 3342   1.912  11.290   1.813
31083W        W 3343  36.868   8.834   3.316
31084W        W 3344  29.941  42.403  11.055
31085W        W 3345  31.058  18.153   4.135
31086W        W 3346  36.843  44.424  10.553
31087W        W 3347  44.884  14.173  13.958
31088W        W 3348  18.125   9.263   4.719
31089W        W 3349  44.293   2.452  10.917
31090W        W 3350  13.786  33.129   3.788
31091W        W 3351   3.955  10.733  13.307
31092W        W 3352   6.242  35.931  14.015
31093W        W 3353  34.509  17.208   4.783
31094W        W 3354  13.668  17.265   0.375
31095W        W 3355  19.082  35.484  10.421
31096W        W 3356   1.959   9.155  13.365
31097W        W 3357  44.807  36.868  12.863
31098W        W 3358  14.153  15.674  12.902
31099W        W 3359  31.962  34.421   0.322
31100W        W 3360  20.533  29.517   1.897
31101W        W 3361  15.180   3.235   4.144
31102W        W 3362  29.523   1.478   3.259
31103W        W 3363   2.952   5.806  12.861
31104W        W 3364  16.171  30.553  12.040
31105W        W 3365   4.809   6.798   3.790
31106W        W 3366  11.167  38.569   2.190
31107W        W 3367  20.617  33.881   3.198
31108W        W 3368  24.595  37.559   4.276
31109W        W 3369  21.026  12.173   0.313
31110W        W 3370  16.596   5.288  14.313
31111W        W 3371  22.154  33.024   1.270
31112W        W 3372   4.944  15.241  13.047
31113W        W 3373  42.363  24.230   0.434
31114W        W 3374  33.386  27.950  14.820
31115W        W 3375  32.072  13.662  13.459
31116W        W 3376  26.681  25.562   3.834
31117W        W 3377  26.150  24.684  13.057
31118W        W 3378  30.573   2.924  14.420
31119W        W 3379   6.756  32.990  10.423
31120W        W 3380   3.342  22.203  10.534
31121W        W 3381  16.775  43.018   3.332
31122W        W 3382  35.492  13.312  10.448
31123W        W 3383  14.688   8.204  10.600
31124W        W 3384  13.793  17.763   5.580
31125W        W 3385   2.357   0.296   9.951
31126W        W 3386  11.294   0.466  11.118
31127W        W 3387  14.200   5.382   4.807
31128W        W 3388  18.269  38.070   0.777
31129W        W 3389  29.975   5.391  11.541
31130W        W 3390   1.782  17.166   4.176
31131W        W 3391  39.549  29.015   1.790
31132W        W 3392  20.162  33.901   1.438
31133W        W 3393  21.574  25.492  11.548
31134W        W 3394  29.928   2.938  11.874
31135W        W 3395  19.622  10.312   3.158
31136W        W 3396  36.905  21.018  12.959
31137W        W 3397  38.391  31.501   3.639
31138W        W 3398   9.215   8.680  10.465
31139W        W 3399  30.056   3.916   2.769
31140W        W 3400   4.434  40.343   2.376
31141W        W 3401  38.937   8.325   2.316
31142W        W 3402  32.460  17.700   4.606
31143W        W 3403  25.705  17.642  10.893
31144W        W 3404   2.733  16.646  14.974
31145W        W 3405  36.027   7.375  12.057
31146W        W 3406  33.426   7.695  10.995
31147W        W 3407  42.857  39.544   1.298
31148W        W 3408  35.504  27.948   1.743
31149W        W 3409  36.489  21.155   3.237
31150W        W 3410  19.598  25.492   0.940
31151W        W 3411  10.794  32.524   0.968
31152W        W 3412  11.819  43.848   3.815
31153W        W 3413  23.174   7.898   3.668
31154W        W 3414   3.425   1.468  13.804
31155W        W 3415  36.037  36.406   3.213
31156W        W 3416  40.313  17.618  12.379
31157W        W 3417  17.212  31.056   0.946
31158W        W 3418   8.785  26.613   1.331
31159W        W 3419  42.527   6.256  11.551
31160W        W 3420   7.779  31.561  14.999
31161W        W 3421   9.231  26.026   2.798
31162W        W 3422  17.628  42.283   2.363
31163W        W 3423  36.564  36.415  10.415
31164W        W 3424  14.618  23.696   4.818
31165W        W 3425   5.335  36.892  13.414
31166W        W 3426  43.008  39.009   0.352
31167W        W 3427  25.144  30.547   3.193
31168W        W 3428  33.875   1.896  10.897
31169W        W 3429  10.806  27.009   0.401
31170W        W 3430  12.645   7.878  10.454
31171W        W 3431  11.660  17.218  11.102
31172W        W 3432  37.540   2.352  10.604
31173W        W 3433  11.755  36.868  14.807
31174W        W 3434  31.083  22.037  13.970
31175W        W 3435   5.882   2.311  13.900
31176W        W 3436  44.482  25.624   2.830
31177W        W 3437   9.283  15.218   1.338
31178W        W 3438   3.224  36.099   9.985
31179W        W 3439  31.114  26.958   1.333
31180W        W 3440  30.477  31.538   5.168
31181W        W 3441  17.156  16.800  12.472
31182W        W 3442   4.243  31.108   0.958
31183W        W 3443   3.454  29.074   4.823
31184W        W 3444  13.700  28.130   9.444
31185W        W 3445  41.003  39.349   3.239
31186W        W 3446   8.865  23.008  14.308
31187W        W 3447  44.430  18.272   2.707
31188W        W 3448   2.814  39.519  10.481
31189W        W 3449  41.426  30.097   0.924
31190W        W 3450  30.119   9.715   3.354
31191W        W 3451  16.785   5.885   4.670
31192W        W 3452  34.938  20.179  10.631
31193W        W 3453  21.044  14.163  10.599
31194W        W 3454  38.503  40.458   3.656
31195W        W 3455   1.741   8.697   1.241
31196W        W 3456  29.126  15.796   1.279
31197W        W 3457  26.697  28.547   3.178
31198W        W 3458  41.836  43.346  13.440
31199W        W 3459  11.153   0.494  11.598
31200W        W 3460  11.799  42.905  12.979
31201W        W 3461   8.781  13.839  14.360
31202W        W 3462  30.129   5.422  11.922
31203W        W 3463  15.161  18.697   0.277
31204W        W 3464  42.920  21.629  12.347
31205W        W 3465  25.535  13.197   2.872
31206W        W 3466   9.295   9.688  12.074
31207W        W 3467  14.738  37.571   3.734
31208W        W 3468  23.502  16.210   1.323
31209W        W 3469  10.705  41.521   0.875
31210W        W 3470  32.540   3.218   0.904
31211W        W 3471  12.335  11.671  13.854
31212W        W 3472  36.968  15.210   4.137
31213W        W 3473  26.102  31.456  14.812
31214W        W 3474   7.702  22.112   2.317
31215W        W 3475  32.431  44.759   1.286
31216W        W 3476   8.656  33.120  14.901
31217W        W 3477  30.435  13.189  14.804
31218W        W 3478  38.511  18.704  14.425
31219W        W 3479   4.837  15.202  13.862
31220W        W 3480  44.453  28.160   4.268
31221W        W 3481  35.535   6.831  10.412
31222W        W 3482  37.963  32.902  12.427
31223W        W 3483  21.223  17.176  14.834
31224W        W 3484  32.996  42.472  13.828
31225W        W 3485  21.158  22.529   2.389
31226W        W 3486  26.009   8.384   4.678
31227W        W 3487   4.292  17.107  13.442
31228W        W 3488   2.444  22.701   3.789
31229W        W 3489  18.672  39.847   1.433
31230W        W 3490  41.991  11.150   3.836
31231W        W 3491  18.165   7.760  11.102
31232W        W 3492  38.060  41.017  12.474
31233W        W 3493  43.802  44.813  14.324
31234W        W 3494   7.263  22.035   1.869
31235W        W 3495  19.100  38.012   4.606
31236W        W 3496  26.479  31.917   0.367
31237W        W 3497   5.787  37.975  13.437
31238W        W 3498  28.131  28.543  14.830
31239W        W 3499  30.419  36.588  13.996
31240W        W 3500  28.107  43.488  12.536
31241W        W 3501  41.333   6.276   4.306
31242W        W 3502  32.629  18.689   3.794
31243W        W 3503  16.765  29.639  12.555
31244W        W 3504  28.148  19.162  10.404
31245W        W 3505  34.516  21.553   1.284
31246W        W 3506  17.253  15.590   0.284
31247W        W 3507  34.482  27.961  12.476
31248W        W 3508  32.929   4.859   4.127
31249W        W 3509  26.567  10.824  11.005
31250W        W 3510  18.055  33.933  12.545
31251W        W 3511  10.256  27.113  13.971
31252W        W 3512  15.817  14.304  12.507
31253W        W 3513  26.022  40.895   1.874
31254W        W 3514  27.643  36.087  14.406
31255W        W 3515   9.261  10.250  14.011
31256W        W 3516  30.641  43.280   2.805
31257W        W 3517  43.331  12.340   2.900
31258W        W 3518  32.569  39.842  12.420
31259W        W 3519   4.304  19.157   4.333
31260W        W 3520  17.302  34.488   3.727
31261W        W 3521   2.948  31.480  10.599
31262W        W 3522  41.464  12.362   2.830
31263W        W 3523  22.572  23.703  12.894
31264W        W 3524  37.556  30.956  10.984
31265W        W 3525  26.544  22.056  10.034
31266W        W 3526  44.429   3.389   4.807
31267W        W 3527  36.876  24.617   4.640
31268W        W 3528  38.968   6.413   1.856
31269W        W 3529  30.991  31.091   0.764
31270W        W 3530  37.859   6.685  13.455
31271W        W 3531  40.932   2.324  11.998
31272W        W 3532  23.235  36.053  11.016
31273W        W 3533   2.373  14.620  12.954
31274W        W 3534   9.869  10.691   1.731
31275W        W 3535  17.152  35.004  13.832
31276W        W 3536   2.948  36.440  11.059
31277W        W 3537  13.610   8.744   5.168
31278W        W 3538  23.642  13.130  13.393
31279W        W 3539  33.503   2.875  11.882
31280W        W 3540   8.775  26.994   2.782
31281W        W 3541  34.869  38.031  12.468
31282W        W 3542   0.278  40.375  14.816
31283W        W 3543  26.663  22.617   4.780
31284W        W 3544   5.423  13.844   1.798
31285W        W 3545  41.352  36.449   4.176
31286W        W 3546  32.635  19.667  12.372
31287W        W 3547  10.264   3.950  11.921
31288W        W 3548  28.607   9.284  11.059
31289W        W 3549   2.418  19.269   4.686
31290W        W 3550  40.939   6.346   3.660
31291W        W 3551  42.843  29.164  11.879
31292W        W 3552  32.624  31.999   4.697
31293W        W 3553  17.098  11.739  12.938
31294W        W 3554   4.846  35.852  14.494
31295W        W 3555  11.298  23.667  12.929
31296W        W 3556  41.842  18.205   0.727
31297W        W 3557  30.923   7.260   3.163
31298W        W 3558  36.876   6.803   2.739
31299W        W 3559  15.204  11.861   1.243
31300W        W 3560  17.073  16.149  11.613
31301W        W 3561  12.780  41.468  13.895
31302W        W 3562  21.144   4.787   1.769
31303W        W 3563  41.363  14.288  10.454
31304W        W 3564  36.505  31.095   0.884
31305W        W 3565   1.974  32.619   0.356
31306W        W 3566  43.275  39.052   3.637
31307W        W 3567  24.632  15.738   2.880
31308W        W 3568  32.527  20.233   2.338
31309W        W 3569  12.813  35.897  10.567
31310W        W 3570  11.638  24.099   1.403
31311W        W 3571  10.714  38.372   2.674
31312W        W 3572  41.917   8.398  14.421
31313W        W 3573   9.259  17.078   3.753
31314W        W 3574  40.332  14.111   1.242
31315W        W 3575  34.882  41.367  13.845
31316W        W 3576  34.464  11.243  13.055
31317W        W 3577  23.577  22.634   1.934
31318W        W 3578   3.924  36.513   1.348
31319W        W 3579   5.891  12.787   4.166
31320W        W 3580  31.423  42.397  14.356
31321W        W 3581  41.341  12.200   1.366
31322W        W 3582   3.758  24.041  11.931
31323W        W 3583  29.961  15.152   3.864
31324W        W 3584   6.723  28.629   5.697
31325W        W 3585  39.460  44.423  12.960
31326W        W 3586  14.625  32.621   1.749
31327W        W 3587  13.312   4.340   2.883
31328W        W 3588  14.335  28.051   5.684
31329W        W 3589  20.578  37.451   0.381
31330W        W 3590  31.558  15.163   3.292
31331W        W 3591  13.834  23.105  14.890
31332W        W 3592  17.071  17.569  13.448
31333W        W 3593   8.714  25.136  13.992
31334W        W 3594  39.063  31.030  14.960
31335W        W 3595   4.304   7.247  13.518
31336W        W 3596   1.906  42.487   2.827
31337W        W 3597  34.492  28.559   0.386
31338W        W 3598   7.322  11.229  12.826
31339W        W 3599   2.383  44.452  12.504
31340W        W 3600  20.131  12.213   0.249
31341W        W 3601  27.646  42.800  12.432
31342W        W 3602  36.958  43.934  12.956
31343W        W 3603  13.319  18.675   2.879
31344W        W 3604  13.739   2.726   4.329
31345W        W 3605  41.827  35.496   4.141
31346W        W 3606  29.659  33.073   9.581
31347W        W 3607  31.967  10.856   2.289
31348W        W 3608   6.867   1.833  13.839
31349W        W 3609  19.110  39.867  13.437
31350W        W 3610  20.182  33.131  10.942
31351W        W 3611  15.228  27.511   4.776
31352W        W 3612  44.452   3.934  13.027
31353W        W 3613  16.298  17.692   2.839
31354W        W 3614  24.039   7.857  10.528
31355W        W 3615  39.382   7.862   3.300
31356W        W 3616  27.018  32.044   0.936
31357W        W 3617  35.028  21.679   3.174
31358W        W 3618   3.428  25.659  11.944
31359W        W 3619  19.207   2.371  11.057
31360W        W 3620  32.578  27.994   0.471
31361W        W 3621  10.225  43.801  10.024
31362W        W 3622   1.808  30.030  13.878
31363W        W 3623  43.824  42.358  13.981
31364W        W 3624  15.093  27.992   1.451
31365W        W 3625  10.330  30.019  13.906
31366W        W 3626  38.977  14.217   5.155
31367W        W 3627  23.986  28.453   5.310
31368W        W 3628   4.763   7.857   3.270
31369W        W 3629   8.853  27.979  11.978
31370W        W 3630  19.095  38.894   2.419
31371W        W 3631  27.662   2.723   4.133
31372W        W 3632  42.787   7.805   3.823
31373W        W 3633  20.254  40.940   1.860
31374W        W 3634  11.689   9.786  14.416
31375W        W 3635  32.020  29.597  11.442
31376W        W 3636  37.502  37.535  14.328
31377W        W 3637  31.943   1.874  14.398
31378W        W 3638  42.005   8.732  13.510
31379W        W 3639   8.824  32.894  10.537
31380W        W 3640  12.795   3.861  14.337
31381W        W 3641  44.908  39.515   0.353
31382W        W 3642  41.449  30.051   2.390
31383W        W 3643   2.799  16.215   2.860
31384W        W 3644  10.720   5.206  14.459
31385W        W 3645  41.298   2.768   1.828
31386W        W 3646  11.783  31.521  11.414
31387W        W 3647  44.846  32.424  10.532
31388W        W 3648  22.502  33.403   1.292
31389W        W 3649  38.347  23.188   0.923
31390W        W 3650  29.138   5.739  10.522
31391W        W 3651  16.237  42.452  11.118
31392W        W 3652  13.756   4.414   4.196
31393W        W 3653  35.924  38.882  13.998
31394W        W 3654  44.360  30.574  12.426
31395W        W 3655  29.158  11.327  13.441
31396W        W 3656  38.855   3.815   2.834
31397W        W 3657   5.857  40.495  13.917
31398W        W 3658  13.646   6.877   0.853
31399W        W 3659  22.613  21.546  12.373
31400W        W 3660   3.256  20.588   1.712
31401W        W 3661   3.790   0.863   3.866
31402W        W 3662   2.754  40.402   0.302
31403W        W 3663  44.469  22.564  10.538
31404W        W 3664  28.443  38.443   4.272
31405W        W 3665  44.813  29.953  10.957
31406W        W 3666  38.983  29.552   2.398
31407W        W 3667  10.347  23.152  11.426
31408W        W 3668  27.164   9.769   3.833
31409W        W 3669  41.417  14.134  12.412
31410W        W 3670  38.413  40.804  13.472
31411W        W 3671  39.964  26.124  10.413
31412W        W 3672   5.241  24.016  14.797
31413W        W 3673  12.292  22.225   4.285
31414W        W 3674   0.748  42.302  14.930
31415W        W 3675  10.243   1.951  14.342
31416W        W 3676  28.989   4.239   3.187
31417W        W 3677  33.407  11.276   0.472
31418W        W 3678  44.813  40.028   3.281
31419W        W 3679  27.595  33.381   4.339
31420W        W 3680   2.335  19.615   4.827
31421W        W 3681  16.656  37.566   0.429
31422W        W 3682   9.770  41.475   3.330
31423W        W 3683  28.481   0.262   2.754
31424W        W 3684  19.180  20.260  14.453
31425W        W 3685  36.011  42.947  12.839
31426W        W 3686  39.353  21.695   2.333
31427W        W 3687  30.547   8.334  13.509
31428W        W 3688  17.789  40.928  10.466
31429W        W 3689  22.532  21.518  11.988
31430W        W 3690  39.484  35.912   2.772
31431W        W 3691  42.457  31.626  11.860
31432W        W 3692  42.437  40.459  11.105
31433W        W 3693  28.636  44.899   4.692
31434W        W 3694  32.886   5.754  14.376
31435W        W 3695  42.457   6.706   0.833
31436W        W 3696  31.024  22.696  12.349
31437W        W 3697  34.057  23.227   4.793
31438W        W 3698  20.220  35.975   2.670
31439W        W 3699  17.226  26.965   0.282
31440W        W 3700  28.502  32.138  12.401
31441W        W 3701  43.355  36.485   4.836
31442W        W 3702  31.541  33.589   0.789
31443W        W 3703  31.505  36.425   4.682
31444W        W 3704  12.274  38.952   4.632
31445W        W 3705  17.114   6.781   3.643
31446W        W 3706  30.474  38.009  14.844
31447W        W 3707  28.505  34.008  14.809
31448W        W 3708  37.873  21.618  13.314
31449W        W 3709  34.538   3.251  14.320
31450W        W 3710  19.240  32.465  11.125
31451W        W 3711  41.319  16.089   2.836
31452W        W 3712  14.213  41.955   1.233
31453W        W 3713   5.695  38.411  11.877
31454W        W 3714  34.077  16.086   1.218
31455W        W 3715  38.539   0.286  11.496
31456W        W 3716  26.175  40.038  10.535
31457W        W 3717  38.050  19.052   3.248
31458W        W 3718  40.342  14.647   0.282
31459W        W 3719  25.076  38.486   0.947
31460W        W 3720  42.499  34.072   0.941
31461W        W 3721  22.650  18.163   0.401
31462W        W 3722  24.129  17.116   3.146
31463W        W 3723  21.113  14.685   4.318
31464W        W 3724  43.389  24.019   3.274
31465W        W 3725   5.773  12.306   4.259
31466W        W 3726  14.227   4.794   3.360
31467W        W 3727   7.263  40.048  10.887
31468W        W 3728   6.382  28.553   1.426
31469W        W 3729   8.196  13.148  14.953
31470W        W 3730  14.722  33.527  10.959
31471W        W 3731  25.964  38.951   3.334
31472W        W 3732   3.848  13.667  12.890
31473W        W 3733  25.016   4.908   5.298
31474W        W 3734  43.379  31.898  12.888
31475W        W 3735   8.699  10.718   3.691
31476W        W 3736  20.231  31.034  11.449
31477W        W 3737   1.273  22.545  12.394
31478W        W 3738  20.734  13.147   3.688
31479W        W 3739   7.270  24.635  14.013
31480W        W 3740  16.650  43.516   1.237
31481W        W 3741  26.179   0.259  14.981
31482W        W 3742  16.210  37.889  13.399
31483W        W 3743  23.614   0.413  13.456
31484W        W 3744  25.646  14.180   0.875
31485W        W 3745  17.138  24.500  13.942
31486W        W 3746  23.608  21.168   2.680
31487W        W 3747  28.486  33.066  11.429
31488W        W 3748  10.303  30.110   1.851
31489W        W 3749   6.319  27.673  14.451
31490W        W 3750  38.470  33.410  10.910
31491W        W 3751  14.705  42.301  12.067
31492W        W 3752  40.514  31.559  14.016
31493W        W 3753  26.135  38.921   1.247
31494W        W 3754  26.090  22.186  11.065
31495W        W 3755  16.229  39.020  12.916
31496W        W 3756  43.504  43.917   1.439
31497W        W 3757  40.349  22.697  10.577
31498W        W 3758  19.780  29.165   0.419
31499W        W 3759  40.964  25.041   3.702
31500W        W 3760   4.841  31.461  12.918
31501W        W 3761   4.233  43.018   1.825
31502W        W 3762  12.308  34.500  13.845
31503W        W 3763  36.016  14.783  14.882
31504W        W 3764   7.200  32.021   4.262
31505W        W 3765  41.005  20.212  14.974
31506W        W 3766  31.645  18.699   4.346
31507W        W 3767  11.687  13.636  14.360
31508W        W 3768  17.231  36.998  12.865
31509W        W 3769   1.907  27.146   0.733
31510W        W 3770  28.051  25.043   1.443
31511W        W 3771  11.690  30.977   3.185
31512W        W 3772  28.449   5.327   3.643
31513W        W 3773  37.531   2.420   1.818
31514W        W 3774  11.314   3.268  11.580
31515W        W 3775   0.953  21.225   4.662
31516W        W 3776  29.542   2.927   0.438
31517W        W 3777   2.814  10.177   1.415
31518W        W 3778  33.488   6.392   2.803
31519W        W 3779  11.296  44.844  12.076
31520W        W 3780  24.570   5.726   4.169
31521W        W 3781  18.177  11.821  13.791
31522W        W 3782  34.060  24.082  14.475
31523W        W 3783   7.204   5.720  12.889
31524W        W 3784   9.226  14.720   2.336
31525W        W 3785   8.294  12.704  10.900
31526W        W 3786  38.549   9.718   1.405
31527W        W 3787  14.329   3.231  13.797
31528W        W 3788  14.329   0.894   2.757
31529W        W 3789   2.237  32.565   0.965
31530W        W 3790  27.147  30.101  14.791
31531W        W 3791  25.541  20.757  14.823
31532W        W 3792  32.478   2.334  11.941
31533W        W 3793  31.414  12.703  13.966
31534W        W 3794  10.823  44.902  14.410
31535W        W 3795  21.059  44.844  11.545
31536W        W 3796  21.050  44.937   0.758
31537W        W 3797  29.599  19.611  13.999
31538W        W 3798  33.126  40.312   2.292
31539W        W 3799  10.863  32.095   0.894
31540W        W 3800  25.201   0.487   3.196
31541W        W 3801  16.762  31.620   0.893
31542W        W 3802  15.095  38.474   4.833
31543W        W 3803  35.518  36.003  13.897
31544W        W 3804  23.222  17.125  14.317
31545W        W 3805   7.219  43.445  10.464
31546W        W 3806  14.306  34.022  10.600
31547W        W 3807  18.739   0.851   3.361
31548W        W 3808  26.038   8.255  13.039
31549W        W 3809  18.161   7.400   0.920
31550W        W 3810  13.121   4.304  11.547
31551W        W 3811  44.473  22.102   1.309
31552W        W 3812  38.946  40.418  13.951
31553W        W 3813  20.239  24.195  13.315
31554W        W 3814   9.298  38.938   3.630
31555W        W 3815  37.490  15.323   0.879
31556W        W 3816  40.968  17.769  12.363
31557W        W 3817   2.435  43.305   2.225
31558W        W 3818  42.843  28.089   0.730
31559W        W 3819  10.828  24.555  13.449
31560W        W 3820  16.196  22.097   4.291
31561W        W 3821   5.379   2.256   2.849
31562W        W 3822  13.228  31.028   0.881
31563W        W 3823  12.680  21.557   0.438
31564W        W 3824  35.524  44.848   4.708
31565W        W 3825   2.357   5.365   2.213
31566W        W 3826  23.686  35.445   0.371
31567W        W 3827   0.904  30.422  14.798
31568W        W 3828  13.260  40.922   0.330
31569W        W 3829  25.557  19.708  14.340
31570W        W 3830  11.794  11.687   4.678
31571W        W 3831  20.249  10.322   5.230
31572W        W 3832  42.998   7.252  12.977
31573W        W 3833  30.507  26.492   4.699
31574W        W 3834  35.049  11.235  13.979
31575W        W 3835  30.496   3.417   3.271
31576W        W 3836  12.127   6.185   4.276
31577W        W 3837  38.887   3.220   4.274
31578W        W 3838  12.215   6.200  10.982
31579W        W 3839  13.811  43.975  12.477
31580W        W 3840  36.025  36.507   0.251
31581W        W 3841  14.734  26.120  11.923
31582W        W 3842   7.756  13.348  11.446
31583W        W 3843   8.674  42.467   2.288
31584W        W 3844  38.011  10.239   0.761
31585W        W 3845  14.133  42.977  12.082
31586W        W 3846   9.652  25.108   2.371
31587W        W 3847  38.882  19.736   3.793
31588W        W 3848  37.569  29.159   2.320
31589W        W 3849  32.472   7.707   3.188
31590W        W 3850   3.458  10.709  13.860
31591W        W 3851   4.257  22.120  11.376
31592W        W 3852   0.821  41.949  14.826
31593W        W 3853  33.608  41.424  10.526
31594W        W 3854  24.522  11.254   1.346
31595W        W 3855  37.459  44.396   0.872
31596W        W 3856  40.805  25.621  14.297
31597W        W 3857  37.351  44.415  11.401
31598W        W 3858  19.186  30.072   2.831
31599W        W 3859  31.535  25.174  13.418
31600W        W 3860   4.805  36.894   4.723
31601W        W 3861  12.209  37.386   3.304
31602W        W 3862  25.503  35.088   3.834
31603W        W 3863  31.948  36.421  12.954
31604W        W 3864   4.338  27.488   4.676
31605W        W 3865   2.887  34.910  11.503
31606W        W 3866  32.973  41.888   4.312
31607W        W 3867  44.963  39.335  13.900
31608W        W 3868  44.865  15.639   2.343
31609W        W 3869  28.503  44.771  12.397
31610W        W 3870  26.618   5.281  10.639
31611W        W 3871  44.007  26.102  14.913
31612W        W 3872  25.553  29.658  14.964
31613W        W 3873  38.475  13.312   0.941
31614W        W 3874   2.284  11.755   2.226
31615W        W 3875  43.868  39.343  11.028
31616W        W 3876  32.133  18.696   5.173
31617W        W 3877  24.227   8.189  13.485
31618W        W 3878  37.359  15.164  14.918
31619W        W 3879  17.670  14.694  12.017
31620W        W 3880  42.785  15.136  10.125
31621W        W 3881  43.969   4.410  10.411
31622W        W 3882   0.420   9.665   3.357
31623W        W 3883  44.808  44.265  13.954
31624W        W 3884  27.589  44.873   3.762
31625W        W 3885  23.493  32.614  10.940
31626W        W 3886  23.188   6.257   2.683
31627W        W 3887  28.675  33.917   1.279
31628W        W 3888  12.688  44.471  11.059
31629W        W 3889   0.303  37.850  11.017
31630W        W 3890  20.054  21.702  14.317
31631W        W 3891  27.037  15.729   3.808
31632W        W 3892  31.952  16.791  10.624
31633W        W 3893  21.745  30.047  10.950
31634W        W 3894  16.110  12.787   0.863
31635W        W 3895  21.615   3.279   1.818
31636W        W 3896  11.623  19.149  13.025
31637W        W 3897  19.099  11.649  12.962
31638W        W 3898  23.495  38.429  12.876
31639W        W 3899  34.541  24.139  11.037
31640W        W 3900  16.289   4.765  13.863
31641W        W 3901   3.280  10.373  10.084
31642W        W 3902  26.143   4.434   3.279
31643W        W 3903  38.072  44.317  11.024
31644W        W 3904  15.127  27.992  13.983
31645W        W 3905  22.689   7.316  13.315
31646W        W 3906  12.760  24.189  10.923
31647W        W 3907  25.199  19.652  10.458
31648W        W 3908  22.570  10.157  12.342
31649W        W 3909  15.274  37.874   4.691
31650W        W 3910  11.130  35.470   3.375
31651W        W 3911  43.018   8.882  12.567
31652W        W 3912   6.682  21.720   4.203
31653W        W 3913  25.178  16.725  14.512
31654W        W 3914  31.507  39.062   2.751
31655W        W 3915  20.192  38.843  12.941
31656W        W 3916  19.263   4.902  14.811
31657W        W 3917  40.311  35.882   1.406
31658W        W 3918  11.288  27.501   1.288
31659W        W 3919   2.813  43.981  12.492
31660W        W 3920  21.528  19.201   4.722
31661W        W 3921  20.693  38.445  13.045
31662W        W 3922  21.135   2.325   1.331
31663W        W 3923  12.668   9.728  10.530
31664W        W 3924  28.160  41.437  11.974
31665W        W 3925  11.180  17.236  14.312
31666W        W 3926  27.072   0.875  14.380
31667W        W 3927   1.300  40.837   0.349
31668W        W 3928   7.789   2.463   4.691
31669W        W 3929  13.190  25.147   5.252
31670W        W 3930  22.646  33.560   3.654
31671W        W 3931  42.502  12.625  13.454
31672W        W 3932  32.012  28.670  11.038
31673W        W 3933  38.452  26.022   1.341
31674W        W 3934  40.995   9.751  13.332
31675W        W 3935  37.447  19.680  13.013
31676W        W 3936  13.833  30.615   0.269
31677W        W 3937  10.300  19.105  12.503
31678W        W 3938  12.785   6.231  12.996
31679W        W 3939   9.378   3.914   0.463
31680W        W 3940   6.890   1.286   1.749
31681W        W 3941   2.366   7.869  11.918
31682W        W 3942   8.299  29.594   1.396
31683W        W 3943  29.442  42.335   1.210
31684W        W 3944  18.755  14.675   0.415
31685W        W 3945  16.131  20.527  10.503
31686W        W 3946  19.041   9.389   0.901
31687W        W 3947  26.010  11.283   4.209
31688W        W 3948  23.703  31.428  14.983
31689W        W 3949  31.036   9.345  11.418
31690W        W 3950  33.489  22.074   4.780
31691W        W 3951  13.203   2.227  14.426
31692W        W 3952  36.916  19.736   5.763
31693W        W 3953  27.574  21.651   4.138
31694W        W 3954  16.313  18.285   2.903
31695W        W 3955  27.456  21.092  14.405
31696W        W 3956   6.402   3.947  13.536
31697W        W 3957  38.034  30.626   0.849
31698W        W 3958  11.811  27.020  12.878
31699W        W 3959  22.173  26.059   4.702
31700W        W 3960  35.373  15.648  12.550
31701W        W 3961   2.841  35.105   1.903
31702W        W 3962  38.379  20.207  14.810
31703W        W 3963  42.387  31.031   1.907
31704W        W 3964  33.930  19.155  10.484
31705W        W 3965  34.535   9.195  13.454
31706W        W 3966  11.194   5.199  14.976
31707W        W 3967  28.982  19.057  11.058
31708W        W 3968  17.673   1.963   1.380
31709W        W 3969  13.617  11.343  10.924
31710W        W 3970  42.846  17.156  14.940
31711W        W 3971   3.944  33.550   2.414
31712W        W 3972  25.198  11.868   3.280
31713W        W 3973   1.779  20.669   0.451
31714W        W 3974   2.310   5.267  12.397
31715W        W 3975  36.874  36.862   3.703
31716W        W 3976  31.455   4.319  10.559
31717W        W 3977  27.099  39.400   2.681
31718W        W 3978  41.417  32.899   0.416
31719W        W 3979   3.217  10.317   1.312
31720W        W 3980   7.738  23.517  12.009
31721W        W 3981  15.249  40.984   2.887
31722W        W 3982  37.536   3.456   0.401
31723W        W 3983  32.411  41.405  11.592
31724W        W 3984  15.823  25.104   2.759
31725W        W 3985   4.273  12.769   3.307
31726W        W 3986   1.300   0.888   3.160
31727W        W 3987  42.448   5.377  12.359
31728W        W 3988  16.079  14.638   3.237
31729W        W 3989  12.841   2.329  11.082
31730W        W 3990   7.726  11.652   3.221
31731W        W 3991  14.247  13.770   1.825
31732W        W 3992  23.692  17.774   4.723
31733W        W 3993  42.487   6.873  10.931
31734W        W 3994  17.220   7.339  12.418
31735W        W 3995  24.651   3.856   4.139
31736W        W 3996  43.996  21.567   0.850
31737W        W 3997  11.810  34.067  10.917
31738W        W 3998  24.991  21.092   2.208
31739W        W 3999  20.208   2.820   0.350
31740W        W 4000  25.650  17.797  10.631
31741W        W 4001  10.193  14.675  14.889
31742W        W 4002  14.107   0.367   0.301
31743W        W 4003  20.746  35.412   2.349
31744W        W 4004  30.952  11.204  12.893
31745W        W 4005  11.149   6.760   4.179
31746W        W 4006   5.430   6.866  12.481
31747W        W 4007  42.993  37.022  13.497
31748W        W 4008  26.494  40.847  13.008
31749W        W 4009  44.477  35.941   3.669
31750W        W 4010  35.524  26.024  12.976
31751W        W 4011  11.327  27.988   2.313
31752W        W 4012  29.607  14.599   2.829
31753W        W 4013  33.475  22.584   1.272
31754W        W 4014  36.943  32.501  11.458
31755W        W 4015  20.609  37.842   3.341
31756W        W 4016  11.828  30.063   5.742
31757W        W 4017  42.470   6.261   2.694
31758W        W 4018   7.183  22.573   4.611
31759W        W 4019  17.570  32.588  12.874
31760W        W 4020  44.500  27.191   2.410
31761W        W 4021   8.764  41.787   4.801
31762W        W 4022  40.000  25.647  14.848
31763W        W 4023  29.956  42.985  12.840
31764W        W 4024   4.863  26.565   2.881
31765W        W 4025   4.827  31.464   3.869
31766W        W 4026  38.930  26.139   3.750
31767W        W 4027  29.995  39.397   2.341
31768W        W 4028   8.747  11.154   0.315
31769W        W 4029  12.644  38.827  12.358
31770W        W 4030  29.044  10.258  14.944
31771W        W 4031  28.170  27.097  13.987
31772W        W 4032  22.746   5.858   4.826
31773W        W 4033   4.786  11.224   2.210
31774W        W 4034  38.879  24.720  11.442
31775W        W 4035  30.069  31.626   3.704
31776W        W 4036  28.931  17.095  11.888
31777W        W 4037   7.237  16.590   2.752
31778W        W 4038  20.233   4.701   2.193
31779W        W 4039  21.111   4.402  12.041
31780W        W 4040  14.278  20.179   4.799
31781W        W 4041   3.369  43.776  14.824
31782W        W 4042  39.388  35.566   0.791
31783W        W 4043  24.157  43.454   4.169
31784W        W 4044  36.972   7.757   3.229
31785W        W 4045  25.657  18.102   2.704
31786W        W 4046  28.474   0.828  13.913
31787W        W 4047  35.461  19.577  13.319
31788W        W 4048  15.286   8.721  13.439
31789W        W 4049  30.960  30.025  13.337
31790W        W 4050  41.513   2.839  13.516
31791W        W 4051   7.876  26.508   4.233
31792W        W 4052   5.255  30.949   3.386
31793W        W 4053   2.283  38.569   1.730
31794W        W 4054  12.803  36.554   2.263
31795W        W 4055   5.387  23.042   1.297
31796W        W 4056   8.831   0.272  10.410
31797W        W 4057  19.235   0.949   1.413
31798W        W 4058  10.721  44.822   2.686
31799W        W 4059  10.872   7.786  12.036
31800W        W 4060  28.639  34.044  12.019
31801W        W 4061  10.833   4.322  12.547
31802W        W 4062   4.216  29.462   3.644
31803W        W 4063  26.094  20.744   0.840
31804W        W 4064  28.675  38.444  11.937
31805W        W 4065  25.548  35.902   3.744
31806W        W 4066  30.002  28.115  13.342
31807W        W 4067  18.569  35.970   1.447
31808W        W 4068  34.923  19.180  12.085
31809W        W 4069   7.372   1.840   3.260
31810W        W 4070   6.902  10.370   1.845
31811W        W 4071  38.924   4.841   2.881
31812W        W 4072  34.097   2.938   4.323
31813W        W 4073   4.705  15.657  13.967
31814W        W 4074  15.683  10.810  13.058
31815W        W 4075   3.456  40.945  14.930
31816W        W 4076  43.810   4.706  13.330
31817W        W 4077   5.226  42.987   5.321
31818W        W 4078  30.129  39.930   3.853
31819W        W 4079  14.267  27.142   2.807
31820W        W 4080  14.616  44.885   2.665
31821W        W 4081  30.955  43.463   3.238
31822W        W 4082   9.648  24.998  10.459
31823W        W 4083  27.665  20.241   0.466
31824W        W 4084  14.630  32.085  14.902
31825W        W 4085  24.021  31.902  14.956
31826W        W 4086  20.210  38.421  13.407
31827W        W 4087  13.198  23.152   0.245
31828W        W 4088  28.165  29.563  10.961
31829W        W 4089  40.332  42.303  10.463
31830W        W 4090  24.153  27.589  10.522
31831W        W 4091   8.230  22.188   4.798
31832W        W 4092  15.178  14.297   4.793
31833W        W 4093  23.133  32.091  12.514
31834W        W 4094  25.587  16.129  13.884
31835W        W 4095  11.271  40.383   1.852
31836W        W 4096   6.741  37.875   4.757
31837W        W 4097  20.523  13.773  14.870
31838W        W 4098  33.071  12.267   3.793
31839W        W 4099  11.799  11.850   2.401
31840W        W 4100  38.063   7.866   4.824
31841W        W 4101  30.616  15.789   1.916
31842W        W 4102   1.841  28.111  12.524
31843W        W 4103  36.063   3.253   2.195
31844W        W 4104  12.806  43.935   4.754
31845W        W 4105  15.161  22.061  12.073
31846W        W 4106  27.475  20.732   0.940
31847W        W 4107  38.552  27.646  10.966
31848W        W 4108  14.309  42.987   4.623
31849W        W 4109  20.591  12.689  14.277
31850W        W 4110  32.582  15.812  12.381
31851W        W 4111  13.339  29.609   4.708
31852W        W 4112  24.633   1.250  12.442
31853W        W 4113   4.828   8.243  14.008
31854W        W 4114  29.949  20.152   2.765
31855W        W 4115  44.942  34.888  13.373
31856W        W 4116  27.576  29.978  13.923
31857W        W 4117  17.263  17.099   2.417
31858W        W 4118  43.965  36.887  13.394
31859W        W 4119   5.223  33.442   1.247
31860W        W 4120  18.100  31.583   1.796
31861W        W 4121  43.506   5.432  14.422
31862W        W 4122  34.093  32.619   2.769
31863W        W 4123  21.647  37.944   0.435
31864W        W 4124  17.690  20.030  11.471
31865W        W 4125  39.927  19.570  11.565
31866W        W 4126  27.461  11.803  12.056
31867W        W 4127  31.003  37.018   1.253
31868W        W 4128   4.895  38.935  11.459
31869W        W 4129   8.709  12.359  11.955
31870W        W 4130  30.163  17.690   2.377
31871W        W 4131  16.302  21.716  11.538
31872W        W 4132  31.977   6.754   1.860
31873W        W 4133  30.550   6.821  12.369
31874W        W 4134  41.484  16.114  11.455
31875W        W 4135  21.645   0.800   3.240
31876W        W 4136  39.420  35.432  13.971
31877W        W 4137  33.013  12.355  10.917
31878W        W 4138   6.852  17.628   1.839
31879W        W 4139  19.720  22.513   3.858
31880W        W 4140   5.855  22.121  11.594
31881W        W 4141   5.743   4.915   1.928
31882W        W 4142  11.314  39.052   3.321
31883W        W 4143   2.939  12.761  13.402
31884W        W 4144  38.841   8.705  13.444
31885W        W 4145   1.299  41.001  12.552
31886W        W 4146   5.438   3.760   3.712
31887W        W 4147  18.767  30.656  14.825
31888W        W 4148  38.891  39.441   1.340
31889W        W 4149  24.688  20.696   0.831
31890W        W 4150  11.729  25.963   1.877
31891W        W 4151  27.583   6.770  14.466
31892W        W 4152  33.477  30.452  10.582
31893W        W 4153  24.716   4.259  10.513
31894W        W 4154  36.848  11.737   4.761
31895W        W 4155  30.490  38.568   0.440
31896W        W 4156   4.892  16.703   2.375
31897W        W 4157  33.418  21.214  11.896
31898W        W 4158  15.631  35.430  14.450
31899W        W 4159  14.222  29.101   3.856
31900W        W 4160  44.431  27.040   3.355
31901W        W 4161  36.970  26.145  10.496
31902W        W 4162  43.460   6.758  14.795
31903W        W 4163  25.068  26.519   1.804
31904W        W 4164   9.214   2.802   2.412
31905W        W 4165  14.298  18.197   1.341
31906W        W 4166  35.093   7.674   4.189
31907W        W 4167  17.720  34.080  10.593
31908W        W 4168   0.272   5.380  11.593
31909W        W 4169  39.377  18.581  11.955
31910W        W 4170  27.103  42.926   2.884
31911W        W 4171  15.300  21.715  14.486
31912W        W 4172  35.459   6.230   4.272
31913W        W 4173  37.517  22.624  11.492
31914W        W 4174  33.917  37.944  14.468
31915W        W 4175  17.188  28.012   0.823
31916W        W 4176   4.252   6.803  12.375
31917W        W 4177  14.163   2.941  12.384
31918W        W 4178  17.662   3.325  11.470
31919W        W 4179  23.612  29.475   1.933
31920W        W 4180  23.624   0.249   4.709
31921W        W 4181  14.279  10.679   4.752
31922W        W 4182  31.014  19.661   0.266
31923W        W 4183  15.691   9.760  12.088
31924W        W 4184  28.101  21.710  13.395
31925W        W 4185  29.640   1.321  14.284
31926W        W 4186  35.957  40.523   0.879
31927W        W 4187  15.243  23.523  13.512
31928W        W 4188  24.113  39.384  14.317
31929W        W 4189   0.948  22.209  12.980
31930W        W 4190   7.867  23.523  12.540
31931W        W 4191  19.729   2.399  11.471
31932W        W 4192  40.020  30.501   2.843
31933W        W 4193   4.338  21.585   4.606
31934W        W 4194  22.550   9.774   4.313
31935W        W 4195  16.191   5.383   1.916
31936W        W 4196  31.009  11.199  10.464
31937W        W 4197  29.024  15.304   4.691
31938W        W 4198  22.113  40.323  13.382
31939W        W 4199  27.038  25.214  14.997
31940W        W 4200  20.062   4.727   4.668
31941W        W 4201  26.688  16.074  12.038
31942W        W 4202  24.129  36.947  10.975
31943W        W 4203  15.105   2.906   2.230
31944W        W 4204  13.243  40.004  10.644
31945W        W 4205  13.280  15.805   9.966
31946W        W 4206  27.085  43.855  12.520
31947W        W 4207  12.700  44.473   0.815
31948W        W 4208  35.998  12.632  13.037
31949W        W 4209   4.245  39.532   1.819
31950W        W 4210  11.763  27.953   9.950
31951W        W 4211  31.117  31.108  12.482
31952W        W 4212  41.942  20.050   4.693
31953W        W 4213  22.603  26.508   3.743
31954W        W 4214  21.188  26.554   0.389
31955W        W 4215   6.223  24.493   0.923
31956W        W 4216  27.101  39.930  12.021
31957W        W 4217  16.648  25.112   2.250
31958W        W 4218  20.524  13.704   1.811
31959W        W 4219  12.212  20.637  12.903
31960W        W 4220  17.723  16.792   4.797
31961W        W 4221  22.054  43.380  12.474
31962W        W 4222  20.030  23.675   2.824
31963W        W 4223  19.622  39.360   3.212
31964W        W 4224  44.856  22.507  10.915
31965W        W 4225  32.123  15.105  13.526
31966W        W 4226   0.393  35.392   2.743
31967W        W 4227  36.400  31.996  10.488
31968W        W 4228  32.400  11.222   1.415
31969W        W 4229   0.974  43.906  13.037
31970W        W 4230  13.625  12.145  11.035
31971W        W 4231  19.236  14.625   2.874
31972W        W 4232  28.454  33.588  12.973
31973W        W 4233  19.241  40.386  13.861
31974W        W 4234  28.107  12.285   4.117
31975W        W 4235   5.721  34.399   4.114
31976W        W 4236  44.803  22.111  12.485
31977W        W 4237  32.135   0.369   4.772
31978W        W 4238  32.571  27.678   1.261
31979W        W 4239   4.930  38.459  10.426
31980W        W 4240   5.817  25.645   1.694
31981W        W 4241   1.453  22.541  11.563
31982W        W 4242  33.020  39.996  11.925
31983W        W 4243  12.741  17.090   4.758
31984W        W 4244  11.670  35.959   4.130
31985W        W 4245  44.345  41.346  10.574
31986W        W 4246  42.456  40.818   4.258
31987W        W 4247  14.129  28.565   0.906
31988W        W 4248  27.677   6.328  14.288
31989W        W 4249   5.747  23.549  13.881
31990W        W 4250  15.789  13.750  10.555
31991W        W 4251  18.724  36.395   1.786
31992W        W 4252  20.725   6.798   0.813
31993W        W 4253  37.968  20.658   2.200
31994W        W 4254  37.955   3.221  10.463
31995W        W 4255  33.381   5.732  14.019
31996W        W 4256  36.364  25.201   2.843
31997W        W 4257  38.479   7.382   0.946
31998W        W 4258  17.758   1.267   3.703
31999W        W 4259  30.599  35.573  14.463
32000W        W 4260  14.241   6.354  11.041
32001W        W 4261  31.462  14.683  12.887
32002W        W 4262  16.228  34.903   0.842
32003W        W 4263  12.656  19.673   1.697
32004W        W 4264  15.722  44.396   4.349
32005W        W 4265  20.685  13.630  10.609
32006W        W 4266  44.944  36.361   2.192
32007W        W 4267  13.311  36.999   2.324
32008W        W 4268  39.426  10.222   4.753
32009W        W 4269  42.906  39.007   0.762
32010W        W 4270  27.057  21.106  14.338
32011W        W 4271  36.988  23.020   2.894
32012W        W 4272  23.037   2.230   3.652
32013W        W 4273   1.891  17.690   2.234
32014W        W 4274  27.021   6.804   2.210
32015W        W 4275   2.453  33.554   4.738
32016W        W 4276   7.351  20.251  13.544
32017W        W 4277  12.194  26.011  14.398
32018W        W 4278  25.558  44.890   3.716
32019W        W 4279  10.317   7.731   5.153
32020W        W 4280   1.297  26.166   0.901
32021W        W 4281  16.600   1.366  12.002
32022W        W 4282  17.094   1.947   5.269
32023W        W 4283   7.848  44.956   3.807
32024W        W 4284  23.548  18.713   0.431
32025W        W 4285  22.049  37.983   0.866
32026W        W 4286  11.219  25.494  14.809
32027W        W 4287  23.171  11.212  13.876
32028W        W 4288  43.788  33.437   3.294
32029W        W 4289   2.875  28.511  10.422
32030W        W 4290  20.084  27.163   3.377
32031W        W 4291  34.544  34.973  13.966
32032W        W 4292  24.625  23.669  11.911
32033W        W 4293  40.904   7.767   2.724
32034W        W 4294   4.235  35.967   0.395
32035W        W 4295  36.408  30.911  14.436
32036W        W 4296  22.016   6.831   2.749
32037W        W 4297  33.390   9.219   0.372
32038W        W 4298  12.280   3.900  13.412
32039W        W 4299   1.900   7.833  13.531
32040W        W 4300  32.098  19.593  12.444
32041W        W 4301  35.526  24.150   2.242
32042W        W 4302  19.765  27.582   3.794
32043W        W 4303  38.409  19.687  14.868
32044W        W 4304  14.284   1.859  10.903
32045W        W 4305  42.792  10.307  10.161
32046W        W 4306   4.270  20.066  10.593
32047W        W 4307  38.422   4.889  14.384
32048W        W 4308  14.251   3.279  11.535
32049W        W 4309  21.100  16.747   1.729
32050W        W 4310  31.422  30.445   0.814
32051W        W 4311   3.804  25.017  12.490
32052W        W 4312  39.370  14.326   3.162
32053W        W 4313   9.726  20.121   3.322
32054W        W 4314   3.239  39.477  10.463
32055W        W 4315  32.512  16.206  14.290
32056W        W 4316  27.659   6.775   1.724
32057W        W 4317   2.809  15.146  13.470
32058W        W 4318  37.379  15.663  13.480
32059W        W 4319  16.730   7.901  12.506
32060W        W 4320  30.606  28.017  11.856
32061W        W 4321  15.675  18.119   4.643
32062W        W 4322  38.507  13.182  11.972
32063W        W 4323   8.335  29.531  13.869
32064W        W 4324  13.197   7.213  11.374
32065W        W 4325  32.061   0.975   3.792
32066W        W 4326  28.054  32.630   2.190
32067W        W 4327  18.295  19.058  14.449
32068W        W 4328  29.640  13.794  10.922
32069W        W 4329  12.631  26.988  11.487
32070W        W 4330  27.968  42.990   1.709
32071W        W 4331   3.345  39.054   3.245
32072W        W 4332  38.460  18.145  14.994
32073W        W 4333  31.976  30.027  12.826
32074W        W 4334  40.319   3.733   3.768
32075W        W 4335  24.979   5.209  12.357
32076W        W 4336  15.743  33.547   9.998
32077W        W 4337  27.071  21.662  14.796
32078W        W 4338  39.042   0.307  12.509
32079W        W 4339  13.322  23.052  14.430
32080W        W 4340  14.246  20.662   2.291
32081W        W 4341   0.958  14.613  12.458
32082W        W 4342  26.596   3.747  12.040
32083W        W 4343  36.874  23.601   1.786
32084W        W 4344  30.938  29.079  14.378
32085W        W 4345  32.034  34.022   1.837
32086W        W 4346  44.367  38.459  10.440
32087W        W 4347   8.237  20.555  13.794
32088W        W 4348  23.018  39.403   4.699
32089W        W 4349  27.196  43.393   2.891
32090W        W 4350  26.671  37.483  10.062
32091W        W 4351  22.218  16.701  13.008
32092W        W 4352  18.225  16.649  12.878
32093W        W 4353   5.342  37.898  12.455
32094W        W 4354  12.729   7.790   3.235
32095W        W 4355  44.464   8.743  12.561
32096W        W 4356  28.018  43.368   1.737
32097W        W 4357  22.147  31.412  12.869
32098W        W 4358  24.119  11.165   0.353
32099W        W 4359  35.427  29.102  12.900
32100W        W 4360  37.464  37.439  13.795
32101W        W 4361  28.170  43.904   3.193
32102W        W 4362   6.422  43.493  10.621
32103W        W 4363  41.524  26.474   3.164
32104W        W 4364  23.158  26.072  14.026
32105W        W 4365   1.817  41.406  14.345
32106W        W 4366  10.290  17.223  14.469
32107W        W 4367  14.616  13.251  10.910
32108W        W 4368   4.417  28.077   0.861
32109W        W 4369  29.511  22.660   1.231
32110W        W 4370   0.796  22.681   0.445
32111W        W 4371  11.622   2.249  14.452
32112W        W 4372   4.746  28.639   0.868
32113W        W 4373  34.402   9.739   3.217
32114W        W 4374  10.259  10.164   0.887
32115W        W 4375  42.009  16.203  14.467
32116W        W 4376  28.444   7.241   0.259
32117W        W 4377  38.928  39.027  14.329
32118W        W 4378  11.778  44.845  12.994
32119W        W 4379  34.110  43.352   0.947
32120W        W 4380   0.335   2.310   0.942
32121W        W 4381  26.192  28.434  11.052
32122W        W 4382  21.188  18.629  11.508
32123W        W 4383  22.180   9.712   0.852
32124W        W 4384  17.225  35.084  12.934
32125W        W 4385   7.675  12.241   4.157
32126W        W 4386  15.791  43.883   0.945
32127W        W 4387  23.155  16.304   1.355
32128W        W 4388   4.804   2.244   4.829
32129W        W 4389  26.106  16.222   3.740
32130W        W 4390  23.694  36.531   0.474
32131W        W 4391   2.896   6.386  11.073
32132W        W 4392  29.430  32.539  13.809
32133W        W 4393  15.790  14.611  10.005
32134W        W 4394  30.427   6.395  12.486
32135W        W 4395  39.819  30.439  12.001
32136W        W 4396   4.936  16.261   4.661
32137W        W 4397  12.681  27.144   2.368
32138W        W 4398  28.625   2.253   0.921
32139W        W 4399   1.292  29.144   0.805
32140W        W 4400  30.001  34.867  14.897
32141W        W 4401  23.111  12.357  14.471
32142W        W 4402  21.051  14.614  10.645
32143W        W 4403  14.314  34.561   3.674
32144W        W 4404  10.156  17.158   4.651
32145W        W 4405  18.292  29.948  13.345
32146W        W 4406  42.393   0.949  12.346
32147W        W 4407   0.964  24.651  11.441
32148W        W 4408  17.232  35.512  11.105
32149W        W 4409   1.811  18.188   4.347
32150W        W 4410  25.179  37.003   4.677
32151W        W 4411  30.450  22.584  12.547
32152W        W 4412  36.420  17.149   0.384
32153W        W 4413  29.638  21.740   3.836
32154W        W 4414  14.625  24.039  14.788
32155W        W 4415   7.791   1.365   2.409
32156W        W 4416   0.882  26.102   4.264
32157W        W 4417  15.286   2.824  10.923
32158W        W 4418  29.640  11.809  11.021
32159W        W 4419  19.594  13.203  12.888
32160W        W 4420  43.509  37.342   2.292
32161W        W 4421  25.176  34.051   1.828
32162W        W 4422  40.409  19.715  10.967
32163W        W 4423   1.301   8.808  14.820
32164W        W 4424   0.811  13.813   2.238
32165W        W 4425  31.026  10.382   0.862
32166W        W 4426   2.258  14.339   2.719
32167W        W 4427   9.685   3.935  11.900
32168W        W 4428  30.019  38.438   2.210
32169W        W 4429  17.694   1.414  11.431
32170W        W 4430  24.145  27.003   2.702
32171W        W 4431  39.918  43.423   3.846
32172W        W 4432   6.798  27.982  11.068
32173W        W 4433  33.500  44.307  11.923
32174W        W 4434  16.813  36.912  13.419
32175W        W 4435  42.006  11.862   3.697
32176W        W 4436  32.621  40.360   3.793
32177W        W 4437   9.298   4.316   3.217
32178W        W 4438   0.921  13.339   4.152
32179W        W 4439  21.692  15.308  11.420
32180W        W 4440  25.556  20.627   0.952
32181W        W 4441  41.427  14.782   3.384
32182W        W 4442  21.630  36.478  12.859
32183W        W 4443  19.096  29.072   4.748
32184W        W 4444   9.659  27.940   3.276
32185W        W 4445   8.858  35.929   2.376
32186W        W 4446  27.949  23.020   4.836
32187W        W 4447  18.696  44.971   2.312
32188W        W 4448  35.461  26.495  12.490
32189W        W 4449   3.446   5.363   4.114
32190W        W 4450  36.076  25.570   2.291
32191W        W 4451   8.361  22.157   0.289
32192W        W 4452   0.888  30.112   4.183
32193W        W 4453  16.259  26.033  12.435
32194W        W 4454   9.261  21.743   1.801
32195W        W 4455  14.120  44.888  11.498
32196W        W 4456  44.368  13.127  14.370
32197W        W 4457  16.309   3.431  14.396
32198W        W 4458  26.005  11.861   2.794
32199W        W 4459  44.271  34.948  12.388
32200W        W 4460  30.127  34.021   3.332
32201W        W 4461   5.909  44.464   3.175
32202W        W 4462   1.474  22.661   4.314
32203W        W 4463  27.039   9.783   2.862
32204W        W 4464  11.649  29.516  11.088
32205W        W 4465  35.928  38.401  14.014
32206W        W 4466  37.363  23.067   4.138
32207W        W 4467  41.338  31.149  14.025
32208W        W 4468  25.571   8.386   0.833
32209W        W 4469  43.356  21.078   4.340
32210W        W 4470  29.103   6.279   0.887
32211W        W 4471  12.309  13.713   2.418
32212W        W 4472  20.218  19.195  10.630
32213W        W 4473   0.893  29.994   1.230
32214W        W 4474  33.023  40.496  12.431
32215W        W 4475   6.678  34.590   3.155
32216W        W 4476  22.681  39.041  14.859
32217W        W 4477   0.316  28.603   4.783
32218W        W 4478  16.149  25.050   0.941
32219W        W 4479  31.134  42.406   1.697
32220W        W 4480  14.295   9.711  12.921
32221W        W 4481  43.486  38.457   2.245
32222W        W 4482  42.941   2.726   2.849
32223W        W 4483  16.778   0.400  12.366
32224W        W 4484  11.648  27.491   9.958
32225W        W 4485  38.438  29.629  11.433
32226W        W 4486  15.205  16.182  14.441
32227W        W 4487  42.782   9.745  10.479
32228W        W 4488  26.017  35.063   1.384
32229W        W 4489  14.099  32.055  13.029
32230W        W 4490   8.344   6.901   3.651
32231W        W 4491  30.107  42.339  12.533
32232W        W 4492   6.764  29.092   2.889
32233W        W 4493  21.575  24.654   2.788
32234W        W 4494  34.473  38.073   0.844
32235W        W 4495  44.279  42.033   0.289
32236W        W 4496   9.181  32.069  13.919
32237W        W 4497  40.349  13.730  12.385
32238W        W 4498  24.526  29.072  10.942
32239W        W 4499  26.619  18.773  13.901
32240W        W 4500  30.061   0.792   4.640
32241W        W 4501  38.430   7.906  13.022
32242W        W 4502  41.994  29.505   2.802
32243W        W 4503  33.397  10.851   2.834
32244W        W 4504   8.900  36.930   4.828
32245W        W 4505  37.014   6.849   0.361
32246W        W 4506  14.602  37.495   2.371
32247W        W 4507  28.677  33.012   1.388
32248W        W 4508  12.769  18.260  11.025
32249W        W 4509  27.669  41.976   0.937
32250W        W 4510  24.479   4.435   4.812
32251W        W 4511  36.986  17.297   3.717
32252W        W 4512  35.993  40.327   2.840
32253W        W 4513  38.018  10.208  13.841
32254W        W 4514   7.885  42.995  13.046
32255W        W 4515  40.329   4.388  12.038
32256W        W 4516  19.614   0.882  13.522
32257W        W 4517  19.671  10.644  12.522
32258W        W 4518  15.685  32.970  13.828
32259W        W 4519  44.418   1.733   2.249
32260W        W 4520  30.060  19.538  11.458
32261W        W 4521   8.235  39.889   1.867
32262W        W 4522  25.210  10.175   0.879
32263W        W 4523   9.301   8.254   4.706
32264W        W 4524  34.453  29.955   0.934
32265W        W 4525  20.131   2.961   2.277
32266W        W 4526  15.217  20.642   2.795
32267W        W 4527   0.380  11.782   0.325
32268W        W 4528   1.245  44.969  10.464
32269W        W 4529  39.322  22.585  13.463
32270W        W 4530   8.340  36.039   1.322
32271W        W 4531  43.867  41.921  14.921
32272W        W 4532   1.886  16.085   2.319
32273W        W 4533  19.158  21.161   1.345
32274W        W 4534   9.336  21.232  10.902
32275W        W 4535  19.134  16.153   1.241
32276W        W 4536   3.886  25.542  12.839
32277W        W 4537  27.561   4.364   0.958
32278W        W 4538   2.906  29.170   4.767
32279W        W 4539  19.541  36.088  10.449
32280W        W 4540   7.855  11.246  11.515
32281W        W 4541   5.248  42.025  11.031
32282W        W 4542  43.314  11.653  12.488
32283W        W 4543  33.443  35.908  13.033
32284W        W 4544  10.684   7.804   3.847
32285W        W 4545  12.345   1.857  11.063
32286W        W 4546   2.243  28.461   1.886
32287W        W 4547  33.883  36.880   2.870
32288W        W 4548  42.024  27.161  11.405
32289W        W 4549  24.133  39.414   2.292
32290W        W 4550  15.598  20.150   2.867
32291W        W 4551  36.866  44.392   0.901
32292W        W 4552  10.329  26.202  11.501
32293W        W 4553  27.513  13.206  12.467
32294W        W 4554  36.950  24.681   1.696
32295W        W 4555  18.220  14.156   1.435
32296W        W 4556  15.276  33.911   4.255
32297W        W 4557  24.689  27.142  13.431
32298W        W 4558   8.837  43.891  13.064
32299W        W 4559  19.084   1.877  13.433
32300W        W 4560   9.795   5.263  12.500
32301W        W 4561  19.554  40.336  13.052
32302W        W 4562  14.198  13.341   4.698
32303W        W 4563  19.263  39.030  12.899
32304W        W 4564  19.537  36.908   3.844
32305W        W 4565  29.669  14.640   2.275
32306W        W 4566  13.196  31.146  13.860
32307W        W 4567   2.400   2.947  11.426
32308W        W 4568   3.363   0.863   0.854
32309W        W 4569   5.789  26.081   1.845
32310W        W 4570  24.500  31.055  14.382
32311W        W 4571  35.868  30.452  13.526
32312W        W 4572  34.902  32.020  14.453
32313W        W 4573  38.543  19.094   4.694
32314W        W 4574  18.107  43.015  10.932
32315W        W 4575  36.449  14.678  11.589
32316W        W 4576  14.831  41.986   2.856
32317W        W 4577  33.100  33.617  10.978
32318W        W 4578  19.081  44.973   0.769
32319W        W 4579  25.148  43.413  13.317
32320W        W 4580  36.493  44.262   3.323
32321W        W 4581  10.295  32.563  11.524
32322W        W 4582  21.706   9.829  11.565
32323W        W 4583  17.080  14.211   5.150
32324W        W 4584  44.345   7.723  13.391
32325W        W 4585  41.031   1.926  10.491
32326W        W 4586  20.052  26.633  12.889
32327W        W 4587  23.094  35.054  14.950
32328W        W 4588  12.665  28.045   0.932
32329W        W 4589  34.918   3.395   3.354
32330W        W 4590  27.584   4.429   4.837
32331W        W 4591  16.595  19.720  12.946
32332W        W 4592   7.782  23.706  14.818
32333W        W 4593  43.774  18.272   0.416
32334W        W 4594  18.257  41.311   2.868
32335W        W 4595   6.395   6.844   2.198
32336W        W 4596  14.754  29.623   4.790
32337W        W 4597  17.685   4.751   1.274
32338W        W 4598  14.646  34.038  11.547
32339W        W 4599  16.770   0.474  13.474
32340W        W 4600  41.895  30.505   4.216
32341W        W 4601  44.979  30.423   3.726
32342W        W 4602  17.133  24.618   1.755
32343W        W 4603  21.046   8.822   2.204
32344W        W 4604   2.370   0.373   3.223
32345W        W 4605  11.212  14.314  14.993
32346W        W 4606   6.869  33.509   0.454
32347W        W 4607  38.827  27.670  13.476
32348W        W 4608  23.506   4.260   0.289
32349W        W 4609  34.534  25.693  10.526
32350W        W 4610  35.059  24.066   0.761
32351W        W 4611  32.470   2.336   2.829
32352W        W 4612  31.432   0.461  14.442
32353W        W 4613  36.410   2.772   4.183
32354W        W 4614  21.124   5.861  10.502
32355W        W 4615  32.022  40.446  14.943
32356W        W 4616  16.639  22.184   4.176
32357W        W 4617   9.871  28.005   0.259
32358W        W 4618   3.858  30.464   0.771
32359W        W 4619  36.360  40.534  14.776
32360W        W 4620  28.495  31.953   1.870
32361W        W 4621   1.938  15.138   1.776
32362W        W 4622   2.337  35.971  11.994
32363W        W 4623  12.781  10.372  14.374
32364W        W 4624  39.531  16.709   2.684
32365W        W 4625  15.660  26.565  13.486
32366W        W 4626   7.830  10.142  13.014
32367W        W 4627  29.570  39.915  12.023
32368W        W 4628  22.066   0.806   4.656
32369W        W 4629  19.647  27.655   2.894
32370W        W 4630  29.669  15.286   3.352
32371W        W 4631  24.551  26.551   3.688
32372W        W 4632  26.954  34.868   1.898
32373W        W 4633  44.369  19.185   5.314
32374W        W 4634  30.067  24.655   3.699
32375W        W 4635  30.494  11.158  12.430
32376W        W 4636  36.495  35.980  11.924
32377W        W 4637  38.898  34.035  13.474
32378W        W 4638  30.081  28.002   1.913
32379W        W 4639  31.060  28.953  13.955
32380W        W 4640  21.673   3.382  10.409
32381W        W 4641   4.838  16.145  10.504
32382W        W 4642  34.550   8.294  11.384
32383W        W 4643  24.040  20.738  14.472
32384W        W 4644  17.723  12.705   1.210
32385W        W 4645  44.403  23.559   2.786
32386W        W 4646  39.438  31.629   2.325
32387W        W 4647  27.483   5.225  14.900
32388W        W 4648  22.155  28.485  14.835
32389W        W 4649  36.943  40.406  12.969
32390W        W 4650  34.410  13.297   2.339
32391W        W 4651  42.986   2.943   4.241
32392W        W 4652  30.556  34.505   0.375
32393W        W 4653  13.158   5.885  14.335
32394W        W 4654   5.854  10.828  13.918
32395W        W 4655  33.461  31.100  14.295
32396W        W 4656  29.507  24.149  11.916
32397W        W 4657  21.542  26.638  11.007
32398W        W 4658   4.332  22.654   0.937
32399W        W 4659  27.960  29.526  11.450
32400W        W 4660  25.196  33.562  13.005
32401W        W 4661  40.357   4.927   0.417
32402W        W 4662  19.586   6.201   4.597
32403W        W 4663  31.477  44.981   1.326
32404W        W 4664  34.474   9.645  12.873
32405W        W 4665   0.370  19.051  10.490
32406W        W 4666  11.703  11.321  13.342
32407W        W 4667   8.213  38.488  12.950
32408W        W 4668  30.083  33.023   4.271
32409W        W 4669  15.726  37.540  13.385
32410W        W 4670  41.840  28.489  13.894
32411W        W 4671  13.722   2.456  13.480
32412W        W 4672  43.832  21.529  13.048
32413W        W 4673  40.543  15.319   2.789
32414W        W 4674  35.102  42.901   0.910
32415W        W 4675  27.193  20.050   0.785
32416W        W 4676  14.110  27.999  11.465
32417W        W 4677  10.322   3.231   0.449
32418W        W 4678  24.672  34.930  13.806
32419W        W 4679  28.630   3.946   3.765
32420W        W 4680  44.326  24.518   1.698
32421W        W 4681  18.095  25.549   3.334
32422W        W 4682  13.274  24.099   4.626
32423W        W 4683  29.132  43.369   1.439
32424W        W 4684   5.334  33.404   1.861
32425W        W 4685  21.576  29.967   0.820
32426W        W 4686  41.391   0.323  11.550
32427W        W 4687   8.260   2.956  11.084
32428W        W 4688   2.849  15.314   4.725
32429W        W 4689  28.963   5.408   3.756
32430W        W 4690  15.198   8.796   4.129
32431W        W 4691  36.887  22.714  12.945
32432W        W 4692  16.108  17.623   2.286
32433W        W 4693  11.331   9.240   3.668
32434W        W 4694   3.791  27.125   4.146
32435W        W 4695  22.689  10.872  10.545
32436W        W 4696  30.579  14.612   0.740
32437W        W 4697  21.171  22.648   3.384
32438W        W 4698  27.171  40.913  11.124
32439W        W 4699  42.912  34.458   0.931
32440W        W 4700  11.251   9.155   0.853
32441W        W 4701  20.644  31.117  13.918
32442W        W 4702   4.817   6.797  13.049
32443W        W 4703   5.289  34.973   4.760
32444W        W 4704  41.323  42.419   0.437
32445W        W 4705  25.962  20.757  13.037
32446W        W 4706   4.238  28.478   2.235
32447W        W 4707  20.220  39.018  10.524
32448W        W 4708  23.219  29.600   2.861
32449W        W 4709  43.936  11.274  10.458
32450W        W 4710  10.187  26.189   1.923
32451W        W 4711  42.970   6.237  10.930
32452W        W 4712   8.824  16.230  13.335
32453W        W 4713  21.082  36.462   3.378
32454W        W 4714  11.157  16.189  10.599
32455W        W 4715  42.864  16.801   3.327
32456W        W 4716  23.996  31.646   2.304
32457W        W 4717  35.880  25.544   0.834
32458W        W 4718  37.541  14.807   1.225
32459W        W 4719   7.766   7.764  14.956
32460W        W 4720  38.042  22.712  12.454
32461W        W 4721   0.827  35.084   5.174
32462W        W 4722   9.762  41.365  14.458
32463W        W 4723   5.818  16.586   4.784
32464W        W 4724  20.211  11.652   0.255
32465W        W 4725   9.885  40.436   0.247
32466W        W 4726  12.835   0.429  12.507
32467W        W 4727   6.705   6.891   2.187
32468W        W 4728  37.845  12.807  12.054
32469W        W 4729  21.237   2.401  11.447
32470W        W 4730  32.526  23.212  11.965
32471W        W 4731   8.324   6.213   0.380
32472W        W 4732  31.900  42.850   2.835
32473W        W 4733  15.581  35.399   0.362
32474W        W 4734  28.621  29.661  12.998
32475W        W 4735   1.383  16.809   4.722
32476W        W 4736   4.399  13.693   3.704
32477W        W 4737  25.543  28.457  11.971
32478W        W 4738  11.814  25.032   4.140
32479W        W 4739  39.024  36.042  11.545
32480W        W 4740  21.577   0.938   4.298
32481W        W 4741   2.897  12.307  11.454
32482W        W 4742  32.509  23.138  10.973
32483W        W 4743   3.914  23.987   3.219
32484W        W 4744  23.201   5.223   3.666
32485W        W 4745  12.173   5.202  13.340
32486W        W 4746  34.934  34.459  11.872
32487W        W 4747  40.887  19.100  12.431
32488W        W 4748   9.777  37.473   0.934
32489W        W 4749   1.417  39.011   3.363
32490W        W 4750   4.830  30.918  10.406
32491W        W 4751  42.352   8.816  14.000
32492W        W 4752  21.572  19.249  11.607
32493W        W 4753  18.158  41.912  12.036
32494W        W 4754  39.355  17.581  11.460
32495W        W 4755  11.627  25.219  14.368
32496W        W 4756  24.648   4.877   2.233
32497W        W 4757  34.900   9.667   1.758
32498W        W 4758  17.221   8.284   4.652
32499W        W 4759   9.359  11.675  14.485
32500W        W 4760  44.343  38.854  10.156
32501W        W 4761  22.741  16.146  14.937
32502W        W 4762  23.198   6.747   0.740
32503W        W 4763  17.267  22.743   0.936
32504W        W 4764  26.069   4.706   0.414
32505W        W 4765  11.863  11.271   2.360
32506W        W 4766  42.780  16.750  11.916
32507W        W 4767   9.249  27.036   2.401
32508W        W 4768  17.143  31.486  12.351
32509W        W 4769  23.515  27.446   9.950
32510W        W 4770  27.954  19.078   2.853
32511W        W 4771  40.411  41.900   1.425
32512W        W 4772   5.934  40.411   3.766
32513W        W 4773  42.945   5.832  12.577
32514W        W 4774  30.485   7.894  13.032
32515W        W 4775  12.633   5.836  14.406
32516W        W 4776   6.392  18.747  13.884
32517W        W 4777  31.147  35.484   4.769
32518W        W 4778  12.682  16.150   0.274
32519W        W 4779  16.582  39.520   3.245
32520W        W 4780  17.727  25.648   1.806
32521W        W 4781  13.152  17.207  14.955
32522W        W 4782  14.098  31.055   9.665
32523W        W 4783  35.010  42.914  11.107
32524W        W 4784  35.985  38.422   3.774
32525W        W 4785  17.185  37.972  11.455
32526W        W 4786  12.651  34.444  13.994
32527W        W 4787  18.619   1.324  14.479
32528W        W 4788  13.131   5.280  13.381
32529W        W 4789  20.219   8.840   1.733
32530W        W 4790  13.761  39.979   1.924
32531W        W 4791  41.342  29.661  11.117
32532W        W 4792  28.003  18.710  14.340
32533W        W 4793   5.231  43.284  10.936
32534W        W 4794  42.432  38.860   4.143
32535W        W 4795  42.946  19.735  11.114
32536W        W 4796  33.984  15.273   2.901
32537W        W 4797  11.233  29.542   5.095
32538W        W 4798  16.667   4.887   0.397
32539W        W 4799  27.573  43.987   1.405
32540W        W 4800  23.152  29.099  13.853
32541W        W 4801  12.142   9.149  13.509
32542W        W 4802   9.823   5.830   1.695
32543W        W 4803  18.090   3.789   4.605
32544W        W 4804  35.573  16.183  14.845
32545W        W 4805  32.467  34.081   4.822
32546W        W 4806  10.377   1.413   4.751
32547W        W 4807  43.991  13.726  11.108
32548W        W 4808  24.632   2.918  13.802
32549W        W 4809  43.357  33.110   0.781
32550W        W 4810  19.078  42.915  13.021
32551W        W 4811  27.183  15.787  11.072
32552W        W 4812  28.121  36.046   0.779
32553W        W 4813  17.202  21.076  10.914
32554W        W 4814  36.346  40.817   2.867
32555W        W 4815  33.936  32.586   0.867
32556W        W 4816  22.038  37.453   4.119
32557W        W 4817  16.278   3.375   3.770
32558W        W 4818  40.800  17.077  11.935
32559W        W 4819  44.268  25.038  11.572
32560W        W 4820   6.823  28.085  10.591
32561W        W 4821  18.149  41.873   0.285
32562W        W 4822  21.666  41.530   4.741
32563W        W 4823  37.941  28.537   4.829
32564W        W 4824  33.030  28.514   4.706
32565W        W 4825  30.975   8.891   0.258
32566W        W 4826  28.507  21.090  13.424
32567W        W 4827  20.112  32.504   4.627
32568W        W 4828  23.004  32.552  10.593
32569W        W 4829   9.196  12.281  10.428
32570W        W 4830  36.012  35.377  12.378
32571W        W 4831  41.950  42.934  11.409
32572W        W 4832  28.992  44.809  11.574
32573W        W 4833  28.941   9.810  11.476
32574W        W 4834  22.567   7.792  12.926
32575W        W 4835  15.594  40.853  14.988
32576W        W 4836   8.263  42.290  13.994
32577W        W 4837  31.921   2.847   2.185
32578W        W 4838  11.359  40.889  14.383
32579W        W 4839  37.540   0.767   5.139
32580W        W 4840  26.970  14.158   0.779
32581W        W 4841  43.385  23.576  14.478
32582W        W 4842  17.628  24.677   3.870
32583W        W 4843  43.828  31.477  13.381
32584W        W 4844  16.154  21.660  13.014
32585W        W 4845  19.266  43.889  13.050
32586W        W 4846  42.823  44.797   0.734
32587W        W 4847   2.754  43.451  14.328
32588W        W 4848   4.435  41.945   0.312
32589W        W 4849  14.835  36.998  13.479
32590W        W 4850  21.647   7.708   3.830
32591W        W 4851  32.613  24.493  14.380
32592W        W 4852  41.395   7.784   3.783
32593W        W 4853  43.361  25.203   2.392
32594W        W 4854  23.173  37.938   3.371
32595W        W 4855  25.670  19.581  12.497
32596W        W 4856  13.658  36.436   3.386
32597W        W 4857  10.779   5.392   4.649
32598W        W 4858  20.674  36.466  14.790
32599W        W 4859   3.725  40.816   0.815
32600W        W 4860  20.726  27.457   4.261
32601W        W 4861  18.667  37.397   1.450
32602W        W 4862  21.074   8.897   0.475
32603W        W 4863   3.383  19.258   4.166
32604W        W 4864  32.480  41.877  11.426
32605W        W 4865  32.637  22.698   4.184
32606W        W 4866  37.337  42.821  11.868
32607W        W 4867  18.079   5.378  11.858
32608W        W 4868  16.260  28.020  12.458
32609W        W 4869   6.685   2.293  12.398
32610W        W 4870   9.673   1.791   3.344
32611W        W 4871  35.083  12.827  10.528
32612W        W 4872  41.906   3.297  11.434
32613W        W 4873   9.867   0.262   0.370
32614W        W 4874   1.946  31.648  13.513
32615W        W 4875   0.936  27.628   0.377
32616W        W 4876  24.677   3.310  13.836
32617W        W 4877   9.836  22.036   4.114
32618W        W 4878   9.705  21.039   4.176
32619W        W 4879  13.158  30.572   0.284
32620W        W 4880  29.660  13.186  10.445
32621W        W 4881  21.218  20.538  11.897
32622W        W 4882  17.213   7.293  12.910
32623W        W 4883  42.951  13.268  10.976
32624W        W 4884  41.505  34.050  10.417
32625W        W 4885   1.966   4.313  14.965
32626W        W 4886  16.146  33.428   0.777
32627W        W 4887  31.025  41.884  14.281
32628W        W 4888  38.421  19.266  13.933
32629W        W 4889   9.791  24.991   4.833
32630W        W 4890  40.477  30.037   2.797
32631W        W 4891  17.730  44.431   2.242
32632W        W 4892  16.597  29.613   0.808
32633W        W 4893  24.495  12.127   2.799
32634W        W 4894  38.073   2.932   4.787
32635W        W 4895  39.848  28.978  10.572
32636W        W 4896   9.668  30.154  14.808
32637W        W 4897  11.313  28.566  11.479
32638W        W 4898   8.849  15.212   0.260
32639W        W 4899   7.862  25.087  13.370
32640W        W 4900  36.967  15.720  12.390
32641W        W 4901  42.888  41.485   4.675
32642W        W 4902   9.881  31.590  13.031
32643W        W 4903  33.902  36.519   0.753
32644W        W 4904   9.227   6.237   4.733
32645W        W 4905   5.234  15.770  13.007
32646W        W 4906  35.051  22.188   0.734
32647W        W 4907  25.545   7.319   3.298
32648W        W 4908  33.887  27.545   0.959
32649W        W 4909  10.799  13.169  10.503
32650W        W 4910  34.872  40.861   4.705
32651W        W 4911  22.574   3.829   2.236
32652W        W 4912   8.706  19.178   0.344
32653W        W 4913  11.348  19.099   4.320
32654W        W 4914  28.505   6.203  13.480
32655W        W 4915  27.097  36.091   0.285
32656W        W 4916  17.714  22.136  14.447
32657W        W 4917  34.603  44.921   1.836
32658W        W 4918  27.590  14.734  11.894
32659W        W 4919  14.589  37.515  10.013
32660W        W 4920   1.823  43.325  11.495
32661W        W 4921   2.945  12.193  12.892
32662W        W 4922  29.107   4.304  13.860
32663W        W 4923  40.944  35.012   2.314
32664W        W 4924  41.447   0.395  14.482
32665W        W 4925  31.061  43.903   2.247
32666W        W 4926   7.317  13.234   4.755
32667W        W 4927  30.596   6.326  10.432
32668W        W 4928   0.938  26.024  11.479
32669W        W 4929  22.098   2.917  13.028
32670W        W 4930  37.051  33.480   3.244
32671W        W 4931  41.461  11.178  11.066
32672W        W 4932  39.064  16.785  12.025
32673W        W 4933  12.776  14.706  10.414
32674W        W 4934  14.176  24.610   1.828
32675W        W 4935  32.579  17.090  14.821
32676W        W 4936  31.096  10.765  13.356
32677W        W 4937   4.865  31.106  14.447
32678W        W 4938  33.884  44.769  14.823
32679W        W 4939  30.501  36.410   0.746
32680W        W 4940  22.621  27.054  14.918
32681W        W 4941  34.943   0.850   0.277
32682W        W 4942   1.445  30.035   4.145
32683W        W 4943  38.436  41.043   2.208
32684W        W 4944  34.427  17.111   1.824
32685W        W 4945  33.908  33.971   2.344
32686W        W 4946  15.653  22.150  12.979
32687W        W 4947  31.563  42.471  14.936
32688W        W 4948  26.034  35.386   4.224
32689W        W 4949  24.591   9.167  14.292
32690W        W 4950  25.617  20.759   2.359
32691W        W 4951  32.945  27.482   0.398
32692W        W 4952  44.852   7.671  12.516
32693W        W 4953   8.190  16.182   1.780
32694W        W 4954  21.211  28.080  14.357
32695W        W 4955  34.525  35.555  14.433
32696W        W 4956  39.901  34.035  14.838
32697W        W 4957  30.139  23.647   0.963
32698W        W 4958  15.643   6.420  10.471
32699W        W 4959  12.856  30.971  11.914
32700W        W 4960  36.917  10.652  12.008
32701W        W 4961  33.033  35.109  11.965
32702W        W 4962  32.520   4.806  10.102
32703W        W 4963  21.738   2.756   0.325
32704W        W 4964  21.047  14.178  11.110
32705W        W 4965  29.510  12.758   5.210
32706W        W 4966   5.199  37.859  14.031
32707W        W 4967  41.304  43.833  11.597
32708W        W 4968   8.718  37.348  12.367
32709W        W 4969  37.487   9.213   1.696
32710W        W 4970  37.441   7.902  11.565
32711W        W 4971   7.689  12.838   1.235
32712W        W 4972  39.362  14.780  11.606
32713W        W 4973   0.811   3.891  13.904
32714W        W 4974  43.423   6.250   1.743
32715W        W 4975  33.604  32.541   0.282
32716W        W 4976  30.579  38.833  14.311
32717W        W 4977  44.486  32.054   2.403
32718W        W 4978   2.400   3.720   3.835
32719W        W 4979   4.329  22.701   2.419
32720W        W 4980  14.168   9.848   1.294
32721W        W 4981  10.204  42.328   1.805
32722W        W 4982  13.217  11.171  13.890
32723W        W 4983  23.107  41.532  14.331
32724W        W 4984   1.305  17.133   0.737
32725W        W 4985  41.033   6.761  14.902
32726W        W 4986  15.619  43.506   0.907
32727W        W 4987  30.478  40.907   1.870
32728W        W 4988  31.936  39.868  12.553
32729W        W 4989  23.011   6.697  13.931
32730W        W 4990  38.030  26.657   0.764
32731W        W 4991  14.233  38.405  10.545
32732W        W 4992  40.858  21.122   0.465
32733W        W 4993  10.634   3.927   1.917
32734W        W 4994  36.890  39.871  12.536
32735W        W 4995   7.793  26.679  14.026
32736W        W 4996  15.273  16.727  10.107
32737W        W 4997  31.908  42.966   9.960
32738W        W 4998  11.746   5.292  12.545
32739W        W 4999  15.699  29.425  12.395
32740W        W 5000   2.732  17.165  10.466
32741W        W 5001  24.557   6.297  14.926
32742W        W 5002  41.985  25.164  14.423
32743W        W 5003  43.859  28.638  13.894
32744W        W 5004  25.704  10.290   3.242
32745W        W 5005   6.383  21.248   2.276
32746W        W 5006  24.533  14.770  10.483
32747W        W 5007  35.478  29.562  11.523
32748W        W 5008  11.697   7.783  13.525
32749W        W 5009  22.123  20.543  13.882
32750W        W 5010  18.595  24.221  12.365
32751W        W 5011  31.533  33.481   1.306
32752W        W 5012  23.495  13.649  10.589
32753W        W 5013  10.217  13.291   3.338
32754W        W 5014  15.746   0.438   1.758
32755W        W 5015  18.249   2.349   3.751
32756W        W 5016  25.568   0.805  11.601
32757W        W 5017  26.653  26.191   1.777
32758W        W 5018  34.569  18.166  12.390
32759W        W 5019  29.069  40.819   0.786
32760W        W 5020  41.492  34.976   2.212
32761W        W 5021  27.566  26.084  11.997
32762W        W 5022  28.600  19.775  11.938
32763W        W 5023  21.172  17.776   1.329
32764W        W 5024  27.127   3.449   2.183
32765W        W 5025  42.291  34.116  14.910
32766W        W 5026  21.571   1.268  11.503
32767W        W 5027  19.640  43.889   0.776
32768W        W 5028  31.006  43.360  14.829
32769W        W 5029   5.303  27.616   4.762
32770W        W 5030  19.685  27.166   2.884
32771W        W 5031  34.396  35.391  13.512
32772W        W 5032  32.547  41.392  13.931
32773W        W 5033   8.825  27.126  14.868
32774W        W 5034  17.075  37.425   3.220
32775W        W 5035  23.694  24.100  13.912
32776W        W 5036  42.782  17.163  13.794
32777W        W 5037   2.278  33.459  13.988
32778W        W 5038  36.482  36.971  13.472
32779W        W 5039  30.029  35.565   3.764
32780W        W 5040  36.580  37.856  14.395
32781W        W 5041  39.878  16.308  12.915
32782W        W 5042  22.546   2.737  12.432
32783W        W 5043  36.497  20.141   4.779
32784W        W 5044  11.131  23.685  13.949
32785W        W 5045  27.449  23.625  11.109
32786W        W 5046   0.809  13.633  11.465
32787W        W 5047  18.170   5.412   0.464
32788W        W 5048   2.858  10.339   1.892
32789W        W 5049   7.809  13.802  14.834
32790W        W 5050  15.720   4.405  13.350
32791W        W 5051  12.844  11.737   3.356
32792W        W 5052  27.124  23.520  12.493
32793W        W 5053   2.261  43.315  12.837
32794W        W 5054  29.140  20.704  10.511
32795W        W 5055  34.516   8.174  12.957
32796W        W 5056  15.197  38.470  12.065
32797W        W 5057  38.360   4.929  12.089
32798W        W 5058  29.091   0.424  13.331
32799W        W 5059  14.233  14.214  10.442
32800W        W 5060   6.784  35.372   1.251
32801W        W 5061  19.242   3.321  10.999
32802W        W 5062  31.955  12.742  14.871
32803W        W 5063  39.847  31.958  14.925
32804W        W 5064  10.306  29.601  11.442
32805W        W 5065  20.193   6.764   3.215
32806W        W 5066   8.279  39.492  12.940
32807W        W 5067  16.178  27.989  13.973
32808W        W 5068  23.592  20.629   5.697
32809W        W 5069  44.414  35.025  11.046
32810W        W 5070   3.827  13.834   4.285
32811W        W 5071  10.650   3.446   0.268
32812W        W 5072   6.733  35.027  12.411
32813W        W 5073  43.019  30.019  11.488
32814W        W 5074  39.027  11.179  10.569
32815W        W 5075  11.176  34.374  12.072
32816W        W 5076  13.201   9.807  11.484
32817W        W 5077  10.766   8.764  10.893
32818W        W 5078  19.277  39.433   1.776
32819W        W 5079   9.819  16.767  11.077
32820W        W 5080  16.283   5.215   0.771
32821W        W 5081   7.912  37.361  13.511
32822W        W 5082  38.845  33.566  12.853
32823W        W 5083  34.480  35.512  12.012
32824W        W 5084  11.849  28.584   1.853
32825W        W 5085  11.326  38.008   3.717
32826W        W 5086  19.754  18.698   3.790
32827W        W 5087  10.725  22.740   3.289
32828W        W 5088   9.794  31.629  10.996
32829W        W 5089  14.303  27.967   0.398
32830W        W 5090  43.938   6.183  12.945
32831W        W 5091  29.496  13.250  14.283
32832W        W 5092  29.938  40.901  10.942
32833W        W 5093  43.374  13.153   4.143
32834W        W 5094  26.131  37.007  12.999
32835W        W 5095   4.317  41.322   1.915
32836W        W 5096  31.613  13.624   2.320
32837W        W 5097  30.128  10.670  11.922
32838W        W 5098  26.091  15.743  10.136
32839W        W 5099  37.061  30.590   3.245
32840W        W 5100  15.186  39.907  10.916
32841W        W 5101  18.147  23.031  13.339
32842W        W 5102  14.225  28.990   1.763
32843W        W 5103  36.881  30.630  11.415
32844W        W 5104  31.426  39.488   3.364
32845W        W 5105  40.547  13.274  14.857
32846W        W 5106  28.640  26.489   3.348
32847W        W 5107  10.149  33.583   4.279
32848W        W 5108   4.797   6.236  12.512
32849W        W 5109  30.487  20.627   0.845
32850W        W 5110   8.769  35.933  11.876
32851W        W 5111  31.093   6.349  13.801
32852W        W 5112  27.687  15.121   1.752
32853W        W 5113  38.420  17.588   3.857
32854W        W 5114  42.481   9.309  13.952
32855W        W 5115  20.264   6.421   2.860
32856W        W 5116   6.692  18.275  14.418
32857W        W 5117  16.708   8.886  10.970
32858W        W 5118  20.718  28.539  13.863
32859W        W 5119  36.592  20.073  10.005
32860W        W 5120  23.598  16.652  12.342
32861W        W 5121   6.816  42.298   0.929
32862W        W 5122  22.238  15.168  13.028
32863W        W 5123   9.220  28.616   1.241
32864W        W 5124   8.773  28.929   2.284
32865W        W 5125  17.646  43.932   0.287
32866W        W 5126   5.384  30.519  11.407
32867W        W 5127  31.969  31.440  11.591
32868W        W 5128  19.680  23.082  11.009
32869W        W 5129  40.811  22.184  12.847
32870W        W 5130  35.947  40.464  13.938
32871W        W 5131  38.035   9.816  11.599
32872W        W 5132  10.184   3.304  13.813
32873W        W 5133  44.916  25.679  12.854
32874W        W 5134  30.101   2.946   4.144
32875W        W 5135  25.561   3.215   5.139
32876W        W 5136  30.010   4.297  14.002
32877W        W 5137  14.828  21.623  10.552
32878W        W 5138  15.810  19.651  13.901
32879W        W 5139  38.960   1.382   3.322
32880W        W 5140   6.684  38.444   1.390
32881W        W 5141  38.053  40.382   0.879
32882W        W 5142  38.956  39.343  13.026
32883W        W 5143  32.474  10.291   3.146
32884W        W 5144  29.969  37.555  10.988
32885W        W 5145  34.440  27.543  11.114
32886W        W 5146  41.491   8.223   1.371
32887W        W 5147  33.581  12.361  11.455
32888W        W 5148  30.102   4.771   4.790
32889W        W 5149  19.271  42.439  10.930
32890W        W 5150   1.756   4.832   4.721
32891W        W 5151  37.354  22.516  13.951
32892W        W 5152  32.132   2.920   1.328
32893W        W 5153  21.260  41.299   0.890
32894W        W 5154   9.153  38.070  12.437
32895W        W 5155  19.585  32.084  14.888
32896W        W 5156  33.564  13.105   1.290
32897W        W 5157  22.017  18.700  14.837
32898W        W 5158   2.935  43.450   2.759
32899W        W 5159  28.106   2.317  13.338
32900W        W 5160  36.492  24.187  11.529
32901W        W 5161  34.098  25.021   0.897
32902W        W 5162  39.008   2.238   1.411
32903W        W 5163  27.654  17.671   2.407
32904W        W 5164  36.984  30.036  14.453
32905W        W 5165  32.982  10.817   1.929
32906W        W 5166  29.495  36.557   4.677
32907W        W 5167  22.528  16.751  12.066
32908W        W 5168  43.280  19.747  10.602
32909W        W 5169  30.974  31.477   1.294
32910W        W 5170  33.926  43.453   4.316
32911W        W 5171  18.165   6.753  13.797
32912W        W 5172  44.794   5.787  12.542
32913W        W 5173  35.913  18.115   2.763
32914W        W 5174  25.174   5.247  10.576
32915W        W 5175   0.392  24.136  11.416
32916W        W 5176  44.301  17.198  13.479
32917W        W 5177  35.926  14.818   4.711
32918W        W 5178  26.996  12.239  13.542
32919W        W 5179   1.305  18.155   1.884
32920W        W 5180  27.621   4.308   1.373
32921W        W 5181  39.367  30.556  12.569
32922W        W 5182  16.289  21.255  10.942
32923W        W 5183  22.678   7.298  14.393
32924W        W 5184  17.580   5.425  10.492
32925W        W 5185  37.509  30.574  14.905
32926W        W 5186  44.462  19.100  13.906
32927W        W 5187   5.894  15.189   0.768
32928W        W 5188  13.189  30.427  14.403
32929W        W 5189  35.938   8.774   0.830
32930W        W 5190  21.034  30.073  14.411
32931W        W 5191  12.617  37.392   4.305
32932W        W 5192  33.625  25.531  13.337
32933W        W 5193  19.126  35.424  10.893
32934W        W 5194  21.745  21.095   1.801
32935W        W 5195  34.048   0.893   0.745
32936W        W 5196   4.245  34.373  11.445
32937W        W 5197  35.511  18.230  11.111
32938W        W 5198  23.192  36.540  13.025
32939W        W 5199  36.426  13.800  12.833
32940W        W 5200   7.901  26.108   5.315
32941W        W 5201   0.268   9.841   2.768
32942W        W 5202  22.035   3.864   4.705
32943W        W 5203  30.541   5.434   2.787
32944W        W 5204  24.541   7.305  14.368
32945W        W 5205  27.064  21.754   1.444
32946W        W 5206  34.486  13.133   1.799
32947W        W 5207  26.625  19.755  13.802
32948W        W 5208  25.990  29.032  10.641
32949W        W 5209  31.531  11.727  13.945
32950W        W 5210  26.021  40.878   1.280
32951W        W 5211  33.502  31.970  10.037
32952W        W 5212  44.287   9.194   1.932
32953W        W 5213  19.252   3.906   2.306
32954W        W 5214  41.972  41.867   3.176
32955W        W 5215  12.692  23.217   2.752
32956W        W 5216  33.119  30.630  14.905
32957W        W 5217  12.195  24.145  14.943
32958W        W 5218  30.568  32.479  12.838
32959W        W 5219  31.592  12.730   4.273
32960W        W 5220  25.573  21.055   3.848
32961W        W 5221   7.825  24.548   2.340
32962W        W 5222  40.549  31.043   3.167
32963W        W 5223   2.346  17.259  10.019
32964W        W 5224  42.284  28.446   4.728
32965W        W 5225  39.479  39.402   3.163
32966W        W 5226  22.202  19.276  11.542
32967W        W 5227  38.073  38.417  11.032
32968W        W 5228   5.319  26.488   1.314
32969W        W 5229  38.445  24.070  12.055
32970W        W 5230   5.307  26.106  13.377
32971W        W 5231   9.854  37.404   5.128
32972W        W 5232  12.668  18.246   2.261
32973W        W 5233  12.674  31.127   5.296
32974W        W 5234  40.370  41.835  14.025
32975W        W 5235  19.758  16.314  14.024
32976W        W 5236  14.732  40.882   0.832
32977W        W 5237   9.809  39.491  11.922
32978W        W 5238  25.131   5.377   3.272
32979W        W 5239  29.036   8.793   3.817
32980W        W 5240   8.850  28.018   3.638
32981W        W 5241  24.657  31.898  12.949
32982W        W 5242  28.516  44.801  13.947
32983W        W 5243  38.411  43.424   2.894
32984W        W 5244  28.153  27.447   3.160
32985W        W 5245  18.190  26.194  11.027
32986W        W 5246  20.687  32.537  13.525
32987W        W 5247  15.308  22.252  14.290
32988W        W 5248   2.876  43.431  11.926
32989W        W 5249  36.567  19.655  12.972
32990W        W 5250  19.751  16.734   4.795
32991W        W 5251  16.261  18.208  10.916
32992W        W 5252  30.106   8.167  13.058
32993W        W 5253  28.434  18.693  10.413
32994W        W 5254  14.602  38.828  13.512
32995W        W 5255  39.985  37.073   0.772
32996W        W 5256  12.855  24.519   3.824
32997W        W 5257  12.777   1.881  10.920
32998W        W 5258  22.084  25.145   0.920
32999W        W 5259  21.612   7.266  12.096
33000W        W 5260  30.587   7.795   1.764
33001W        W 5261  26.670  28.046   1.426
33002W        W 5262  40.984  28.148  14.331
33003W        W 5263  14.643  36.374   0.355
33004W        W 5264  24.563  29.493   2.378
33005W        W 5265  17.217  39.845  14.897
33006W        W 5266   5.268  31.510   0.422
33007W        W 5267  28.153   5.699   2.764
33008W        W 5268  43.500  42.483  13.487
33009W        W 5269  28.118  27.653   4.813
33010W        W 5270  12.265  20.182  11.534
33011W        W 5271   2.950  22.111  13.324
33012W        W 5272  38.475  36.551  12.092
33013W        W 5273  14.203  26.137   1.393
33014W        W 5274  26.483  26.505  10.535
33015W        W 5275  22.152  43.465   3.376
33016W        W 5276  17.192  25.476  12.433
33017W        W 5277  16.761  35.361  10.450
33018W        W 5278  38.515  15.095   3.673
33019W        W 5279  32.052  19.219   3.653
33020W        W 5280   2.837  30.475  12.484
33021W        W 5281  29.523   4.778  13.938
33022W        W 5282  32.579  14.630  14.276
33023W        W 5283  43.971  21.087  11.040
33024W        W 5284  27.663  38.421   4.237
33025W        W 5285  11.289  13.301   1.374
33026W        W 5286  31.427  41.532   4.303
33027W        W 5287  42.342   0.945  11.856
33028W        W 5288  17.302  40.903  14.969
33029W        W 5289  44.348  39.921  14.978
33030W        W 5290   7.414  18.235   2.790
33031W        W 5291  37.497  35.092   1.285
33032W        W 5292  18.284  17.664  14.424
33033W        W 5293  21.700  38.398  11.082
33034W        W 5294  34.913   2.777   1.420
33035W        W 5295  29.976  31.471  12.564
33036W        W 5296  43.777  12.274  12.027
33037W        W 5297  23.572   3.221   3.752
33038W        W 5298  35.914   8.224   4.181
33039W        W 5299  30.634  43.787  10.588
33040W        W 5300  35.089  27.004   0.347
33041W        W 5301  29.501  18.111   0.350
33042W        W 5302  31.917  38.927  12.877
33043W        W 5303  30.575  30.424   9.592
33044W        W 5304  33.465  31.009   3.222
33045W        W 5305  25.167  43.478  10.588
33046W        W 5306   9.738  14.722  13.915
33047W        W 5307  22.662  22.536   4.262
33048W        W 5308  40.436  25.510   1.799
33049W        W 5309   2.272  28.172   4.292
33050W        W 5310  27.582  22.546   0.947
33051W        W 5311  17.230  19.083  10.618
33052W        W 5312  20.674   6.370   1.318
33053W        W 5313  12.240  42.831   2.793
33054W        W 5314  18.718  41.789   3.655
33055W        W 5315  39.529  20.158  13.527
33056W        W 5316   8.873  26.517   0.287
33057W        W 5317  43.393   4.799  12.496
33058W        W 5318  24.660  25.557   4.802
33059W        W 5319  33.539   4.709  10.586
33060W        W 5320  13.131  44.825   3.361
33061W        W 5321  11.174  29.964   9.509
33062W        W 5322   1.279  19.690  13.401
33063W        W 5323  12.717  10.257   3.722
33064W        W 5324  21.526  10.366  14.783
33065W        W 5325   8.790  42.858   1.298
33066W        W 5326   6.217  14.703   1.344
33067W        W 5327   8.696   5.394   4.630
33068W        W 5328   6.268  19.115   3.825
33069W        W 5329  10.766  33.567  14.342
33070W        W 5330   1.451  31.044   4.743
33071W        W 5331  22.574  32.089  11.923
33072W        W 5332  12.773   2.284  10.582
33073W        W 5333   2.271  28.976   1.281
33074W        W 5334  41.354   1.842  10.962
33075W        W 5335  31.898  17.685   1.764
33076W        W 5336  38.461  41.877  13.417
33077W        W 5337  44.971  29.008  13.422
33078W        W 5338   6.199   1.896  13.376
33079W        W 5339  40.897  44.956  10.991
33080W        W 5340   7.780   4.707   2.189
33081W        W 5341   9.384   0.984   4.670
33082W        W 5342   8.228  19.099   1.732
33083W        W 5343  17.077  14.679   4.666
33084W        W 5344  10.696  38.002  10.440
33085W        W 5345  30.029  38.455   0.959
33086W        W 5346  25.558   3.343   2.201
33087W        W 5347   5.290   2.247   0.446
33088W        W 5348  16.644   6.864  12.486
33089W        W 5349  37.964  40.926  14.768
33090W        W 5350  28.966  42.943   3.631
33091W        W 5351   2.891  28.155  10.957
33092W        W 5352  12.706  25.519   0.298
33093W        W 5353  22.520  42.967   0.433
33094W        W 5354   1.374   4.817   2.419
33095W        W 5355  15.691  44.394   2.684
33096W        W 5356  28.080   6.745   0.414
33097W        W 5357   9.286  35.479   1.416
33098W        W 5358  35.033   0.362  12.551
33099W        W 5359  35.108  16.187   1.295
33100W        W 5360  21.059  31.587   3.301
33101W        W 5361  30.999  30.530  11.034
33102W        W 5362  31.469  36.351   0.261
33103W        W 5363   0.987   2.763  12.493
33104W        W 5364  17.639  18.670   3.739
33105W        W 5365  42.810  36.853   0.261
33106W        W 5366  15.813  14.680   3.636
33107W        W 5367   0.383   7.797  12.840
33108W        W 5368  12.126   5.736   3.833
33109W        W 5369  39.851   1.791   4.815
33110W        W 5370  41.412   6.199  11.863
33111W        W 5371  41.451   2.327  11.971
33112W        W 5372   7.397   2.237   0.394
33113W        W 5373   8.756   8.171   3.146
33114W        W 5374  26.481  24.654  10.590
33115W        W 5375   0.366  17.132  11.107
33116W        W 5376   1.767  22.071  12.405
33117W        W 5377  38.533   7.797   3.850
33118W        W 5378  15.686   5.204   9.946
33119W        W 5379   1.311   5.898   3.284
33120W        W 5380  21.075  30.570  13.524
33121W        W 5381   0.456  14.722  13.968
33122W        W 5382  38.472  42.904   1.799
33123W        W 5383  33.452  10.837   3.345
33124W        W 5384   2.900  26.483   2.304
33125W        W 5385   2.266   7.903   3.676
33126W        W 5386  14.662  17.136  12.062
33127W        W 5387  34.091  34.069   2.746
33128W        W 5388  25.039  25.482  14.477
33129W        W 5389  10.692  38.372  10.521
33130W        W 5390  38.996  21.745  13.852
33131W        W 5391  28.606  31.059   2.874
33132W        W 5392  20.138  10.851  11.371
33133W        W 5393  10.672  34.543  11.057
33134W        W 5394  27.493   8.710   3.728
33135W        W 5395  43.282  24.091   4.688
33136W        W 5396  27.599   6.734   4.682
33137W        W 5397   8.183  33.458  14.416
33138W        W 5398  24.064  19.202   3.799
33139W        W 5399  14.733  22.557  11.877
33140W        W 5400  31.946  20.204  11.411
33141W        W 5401  38.490  25.586  12.957
33142W        W 5402   2.355  44.471   2.894
33143W        W 5403  30.062   0.762   0.401
33144W        W 5404  22.610  26.976  10.061
33145W        W 5405  25.620  13.686  11.081
33146W        W 5406  39.957  43.384  14.833
33147W        W 5407  11.163  19.271  13.539
33148W        W 5408  21.736  29.594  14.828
33149W        W 5409  44.821  38.898  12.449
33150W        W 5410  22.528  32.975   1.301
33151W        W 5411  11.845  22.186   4.330
33152W        W 5412  29.519  38.398  13.983
33153W        W 5413  29.487  30.445   1.289
33154W        W 5414  19.173   0.422   3.678
33155W        W 5415  10.714   8.869  13.905
33156W        W 5416  37.336  36.560   5.210
33157W        W 5417  38.507  42.850  12.955
33158W        W 5418   3.251  44.939   2.341
33159W        W 5419  37.978  27.456   4.634
33160W        W 5420   6.718   4.236  12.894
33161W        W 5421  29.109  43.405  13.504
33162W        W 5422  18.206  34.876  10.892
33163W        W 5423  13.237   2.936   2.706
33164W        W 5424  34.104  14.260   1.232
33165W        W 5425  33.995  27.983  11.964
33166W        W 5426  13.705  40.419  13.886
33167W        W 5427  30.419  34.607   4.826
33168W        W 5428  18.688  36.030   0.763
33169W        W 5429  28.636  35.441  11.042
33170W        W 5430  38.923  17.608  14.032
33171W        W 5431   9.748  37.084  12.929
33172W        W 5432  29.610  28.101  14.954
33173W        W 5433   0.867  11.201   3.657
33174W        W 5434  11.330  22.686  12.506
33175W        W 5435  31.521  21.060  11.860
33176W        W 5436  24.618  38.413  12.478
33177W        W 5437  43.425  12.834  10.098
33178W        W 5438  36.005   1.851   2.834
33179W        W 5439  29.012  19.644  14.823
33180W        W 5440   1.336  15.196  14.282
33181W        W 5441  33.384  39.505   2.683
33182W        W 5442  33.556  11.307  11.125
33183W        W 5443   1.385  41.001  11.125
33184W        W 5444  39.386  24.616   3.868
33185W        W 5445  42.781  19.725   2.680
33186W        W 5446   7.218  37.903  13.940
33187W        W 5447  24.519  26.149  12.970
33188W        W 5448   6.314  36.429   3.779
33189W        W 5449  25.592   8.821   0.761
33190W        W 5450   2.962  22.579   1.215
33191W        W 5451  31.017  35.449  13.832
33192W        W 5452  25.613  11.793   2.321
33193W        W 5453  11.623  29.535   5.247
33194W        W 5454  33.989  36.058   3.240
33195W        W 5455  41.401  43.502  10.412
33196W        W 5456  36.968  44.968   4.346
33197W        W 5457   0.351  34.114   0.387
33198W        W 5458  26.550  17.154   0.455
33199W        W 5459   3.732  11.687   0.907
33200W        W 5460  16.298  17.300  12.455
33201W        W 5461   4.801  19.750   0.787
33202W        W 5462  44.885  42.291   3.251
33203W        W 5463  17.791  30.135  12.480
33204W        W 5464  20.735  40.412  12.407
33205W        W 5465   7.212  28.655  14.365
33206W        W 5466  10.772  17.620  12.544
33207W        W 5467   4.362  34.425   3.702
33208W        W 5468  43.450  30.100  14.993
33209W        W 5469  40.988  33.045   1.835
33210W        W 5470  23.023   1.945  13.855
33211W        W 5471  39.433  12.679   3.240
33212W        W 5472  18.697  31.960  10.618
33213W        W 5473  36.351  27.639  11.600
33214W        W 5474   4.860  18.679   0.374
33215W        W 5475  20.566  22.131  11.001
33216W        W 5476  15.823  16.613   3.721
33217W        W 5477  37.362  44.999  13.399
33218W        W 5478   5.202   8.221  14.029
33219W        W 5479  35.597  34.456  10.980
33220W        W 5480  40.333  31.509   4.640
33221W        W 5481  40.450  12.698  13.811
33222W        W 5482  11.772  12.650  12.512
33223W        W 5483  41.478  14.811   1.416
33224W        W 5484  37.024  27.549  10.610
33225W        W 5485  37.978  37.020  12.472
33226W        W 5486  11.632  41.343   5.180
33227W        W 5487  35.422  33.466  12.495
33228W        W 5488  14.324   1.819  14.331
33229W        W 5489  20.703  15.707   2.722
33230W        W 5490  13.108  39.423   0.898
33231W        W 5491   2.940  42.386  14.862
33232W        W 5492  14.635   2.359   4.763
33233W        W 5493   3.844   3.820  12.832
33234W        W 5494  18.640  23.522  14.290
33235W        W 5495  42.896  27.044  11.572
33236W        W 5496   3.848   0.883   0.310
33237W        W 5497  26.957  33.963   1.337
33238W        W 5498  39.032  15.197  14.832
33239W        W 5499  15.247  20.715   2.301
33240W        W 5500  21.192  11.187  13.419
33241W        W 5501  19.265  10.746   1.761
33242W        W 5502  23.143  37.463  10.040
33243W        W 5503  19.243  43.774  14.456
33244W        W 5504  17.092  29.656   1.337
33245W        W 5505  17.093   8.362   2.410
33246W        W 5506  35.885   8.175  11.095
33247W        W 5507  14.111   2.870   0.376
33248W        W 5508   7.793  13.257   3.347
33249W        W 5509   9.734   3.342  11.478
33250W        W 5510   6.403  25.023  14.806
33251W        W 5511  43.822  21.653   4.688
33252W        W 5512  29.509  10.224  13.424
33253W        W 5513   5.328  41.903   4.129
33254W        W 5514  32.034  43.333  13.972
33255W        W 5515   9.739   0.750  11.055
33256W        W 5516  42.369  12.818  11.009
33257W        W 5517   9.176  16.769   4.655
33258W        W 5518   5.325  15.587   3.260
33259W        W 5519  38.415  35.573  14.833
33260W        W 5520  12.769  24.531   4.698
33261W        W 5521   7.846   7.209  12.859
33262W        W 5522  40.441  23.146   2.743
33263W        W 5523  37.866  29.450  14.957
33264W        W 5524  13.250  22.033  14.860
33265W        W 5525  17.713  39.852  13.470
33266W        W 5526   2.317  19.732   1.801
33267W        W 5527  26.586  20.117   2.348
33268W        W 5528  42.026   5.801   2.290
33269W        W 5529   6.189   8.792  11.417
33270W        W 5530  16.306  30.078  10.958
33271W        W 5531  14.594  17.731   0.436
33272W        W 5532  32.436  38.533   2.185
33273W        W 5533  28.133   1.467  10.951
33274W        W 5534  26.560   9.348   4.809
33275W        W 5535  39.845   7.349  11.517
33276W        W 5536  35.059  17.583   0.863
33277W        W 5537  19.258  31.025  13.935
33278W        W 5538   4.384  24.649   2.860
33279W        W 5539   5.218   7.862  10.941
33280W        W 5540   0.335  39.954  14.446
33281W        W 5541  32.482  43.836   2.780
33282W        W 5542  42.958  26.134   4.242
33283W        W 5543  20.148  18.217  13.036
33284W        W 5544  27.127   0.448  11.419
33285W        W 5545   4.434  31.005   1.432
33286W        W 5546  38.914   7.775  11.416
33287W        W 5547  41.395  19.675  11.101
33288W        W 5548   0.787  43.512   2.203
33289W        W 5549  30.114  11.281  11.122
33290W        W 5550  34.081  30.940   1.905
33291W        W 5551   0.771   3.885   0.728
33292W        W 5552   1.872  11.251   2.416
33293W        W 5553   6.425   5.903   0.893
33294W        W 5554   6.300  32.099   4.702
33295W        W 5555  24.999  24.117   1.448
33296W        W 5556  41.793  26.535   0.895
33297W        W 5557  25.154  36.497  14.780
33298W        W 5558  40.505  29.100   4.607
33299W        W 5559   9.766   7.186  13.795
33300W        W 5560  21.680   9.257   0.300
33301W        W 5561  31.990  31.571  13.313
33302W        W 5562  39.022  26.472  13.419
33303W        W 5563  22.157  28.599  11.397
33304W        W 5564  43.439   9.714  13.440
33305W        W 5565  33.877  17.215   4.140
33306W        W 5566  33.949  17.601  11.898
33307W        W 5567  11.346  42.804   4.721
33308W        W 5568  20.212  29.653   0.884
33309W        W 5569  31.925  40.016  13.372
33310W        W 5570  11.862   0.801  11.084
33311W        W 5571  22.665   5.849   1.290
33312W        W 5572  44.424  24.722  10.903
33313W        W 5573  33.077  30.559  11.863
33314W        W 5574  35.564  20.188   2.409
33315W        W 5575   1.415   7.395   3.176
33316W        W 5576  39.890  22.507   3.269
33317W        W 5577  40.020  12.641  14.449
33318W        W 5578  26.703  30.596  10.539
33319W        W 5579  10.354  16.610  11.068
33320W        W 5580  23.157  39.441   2.701
33321W        W 5581  40.308  23.987   1.803
33322W        W 5582   4.813   4.945  13.988
33323W        W 5583  38.500   4.705   2.806
33324W        W 5584  11.199   0.484   0.888
33325W        W 5585  25.967  19.187  10.432
33326W        W 5586   8.250   1.427   0.921
33327W        W 5587  17.731  22.224   4.676
33328W        W 5588  36.394   7.750  13.822
33329W        W 5589   8.682  21.579   1.868
33330W        W 5590  13.198  37.073  11.916
33331W        W 5591   4.782   2.464   1.413
33332W        W 5592  38.551  11.786   1.843
33333W        W 5593   1.934  35.087   0.319
33334W        W 5594  17.601  37.901   4.734
33335W        W 5595   1.254   9.705   2.704
33336W        W 5596  43.993  40.032  12.522
33337W        W 5597  25.545  23.115  12.880
33338W        W 5598  20.081  10.770  10.622
33339W        W 5599   0.281  21.722  11.406
33340W        W 5600   8.869  40.049  11.387
33341W        W 5601  18.174  25.204   2.183
33342W        W 5602  24.611  39.831  11.507
33343W        W 5603  19.693  43.794  13.793
33344W        W 5604  36.501  22.108  14.412
33345W        W 5605  39.364   8.745   0.917
33346W        W 5606   3.799  23.507  14.912
33347W        W 5607   2.940   4.853   2.888
33348W        W 5608   6.280  14.301  13.004
33349W        W 5609   5.296  30.137   3.234
33350W        W 5610  34.892  30.055  11.468
33351W        W 5611  21.162  27.610   5.317
33352W        W 5612  16.584   6.216  12.938
33353W        W 5613  27.620  15.122   0.727
33354W        W 5614   9.726  36.915   4.123
33355W        W 5615  38.968  20.620   2.364
33356W        W 5616   7.820  17.186   0.472
33357W        W 5617  43.429  28.655  13.458
33358W        W 5618  38.898  22.162   1.428
33359W        W 5619   1.737   0.897   2.706
33360W        W 5620  17.215   9.335   3.369
33361W        W 5621   6.317  22.030   0.399
33362W        W 5622  38.459  18.723   1.712
33363W        W 5623  25.013  41.350  13.055
33364W        W 5624  27.625  44.900  14.474
33365W        W 5625  17.718  19.280   0.272
33366W        W 5626   2.385   1.849   4.602
33367W        W 5627  40.971  19.242   3.150
33368W        W 5628  40.542  13.138   0.289
33369W        W 5629  19.145   3.321   2.393
33370W        W 5630  32.002  36.560   3.356
33371W        W 5631   7.242   1.940  13.860
33372W        W 5632   9.235  42.325  12.966
33373W        W 5633  36.588  15.272  13.007
33374W        W 5634  39.048  42.519  12.362
33375W        W 5635   6.859  38.445  14.782
33376W        W 5636  17.700  16.147   3.781
33377W        W 5637  31.949   8.671   2.812
33378W        W 5638   2.764  27.465   3.229
33379W        W 5639  29.147  43.945   3.684
33380W        W 5640  43.987  44.956  14.008
33381W        W 5641  35.392  21.228   1.895
33382W        W 5642  30.950   0.249   4.774
33383W        W 5643  31.602  24.532   0.939
33384W        W 5644  18.652  37.431  12.482
33385W        W 5645  27.453   8.269   3.274
33386W        W 5646   3.275  26.980  12.533
33387W        W 5647  27.634   6.385   1.443
33388W        W 5648  35.030  30.550  14.349
33389W        W 5649  35.504  15.207  12.510
33390W        W 5650   7.826  19.058   3.371
33391W        W 5651  32.977  36.043   2.352
33392W        W 5652  14.339  37.461  13.950
33393W        W 5653   0.771  13.820  14.437
33394W        W 5654  25.971  11.264   2.754
33395W        W 5655  11.790  21.128   1.932
33396W        W 5656  43.959  39.558  11.435
33397W        W 5657  16.679   5.734   4.158
33398W        W 5658  42.336  31.085   2.341
33399W        W 5659  30.084  14.780   2.667
33400W        W 5660  42.362  26.003  13.429
33401W        W 5661   2.413  11.342   1.339
33402W        W 5662  43.505  22.244  11.055
33403W        W 5663  27.553   6.244  14.771
33404W        W 5664  10.842  42.981  11.516
33405W        W 5665  44.285  14.632  10.990
33406W        W 5666  28.952  34.561   0.815
33407W        W 5667   9.326  41.399  14.006
33408W        W 5668  31.937  42.023  14.876
33409W        W 5669   4.856   3.780  13.341
33410W        W 5670  17.576  19.544  12.967
33411W        W 5671  25.005  24.138  11.596
33412W        W 5672  35.920  26.990  14.383
33413W        W 5673  30.126   3.731   0.918
33414W        W 5674  27.163  36.873   3.780
33415W        W 5675  32.942  37.031  13.525
33416W        W 5676   6.799  21.140  11.999
33417W        W 5677  32.925   7.828  14.985
33418W        W 5678  42.295  44.006   0.356
33419W        W 5679  34.595  22.162  14.309
33420W        W 5680  27.190  43.020   4.249
33421W        W 5681  16.716   6.905   3.757
33422W        W 5682  43.835  24.579  13.797
33423W        W 5683  25.669   3.877  13.850
33424W        W 5684  31.909  39.340   4.766
33425W        W 5685  40.972  16.207   4.308
33426W        W 5686  36.962  18.231  11.003
33427W        W 5687  11.849  10.316   1.386
33428W        W 5688  31.016  32.530   4.705
33429W        W 5689  19.738  16.231   0.897
33430W        W 5690  41.862  20.044   2.295
33431W        W 5691  43.322  34.593  13.837
33432W        W 5692   3.805  44.898  12.016
33433W        W 5693  32.982  20.256   4.790
33434W        W 5694  30.414  34.925  14.312
33435W        W 5695  40.541  24.517  10.602
33436W        W 5696  34.376   1.914  12.049
33437W        W 5697  39.382   5.246  14.312
33438W        W 5698   5.281  12.612   0.267
33439W        W 5699  16.107  19.652  13.866
33440W        W 5700  29.951  22.112   1.286
33441W        W 5701  19.177  26.613   1.243
33442W        W 5702  17.690   2.834  13.525
33443W        W 5703  25.508  23.025  10.412
33444W        W 5704   0.380  28.470   1.428
33445W        W 5705  15.208   4.248  11.443
33446W        W 5706  44.813  28.968  12.015
33447W        W 5707  16.587   3.273   4.295
33448W        W 5708  23.732  34.875   1.433
33449W        W 5709  16.629   0.897   1.732
33450W        W 5710  39.050  41.513   4.620
33451W        W 5711  27.960  11.647   4.614
33452W        W 5712   2.351   6.209   4.323
33453W        W 5713   3.336   4.268   4.655
33454W        W 5714  41.839  17.566  11.964
33455W        W 5715  11.218  14.239  13.323
33456W        W 5716  33.404  16.664  11.467
33457W        W 5717  31.569  39.931   0.428
33458W        W 5718   0.308   1.974   4.246
33459W        W 5719  15.257  10.236  13.033
33460W        W 5720  26.017  39.391   4.223
33461W        W 5721  32.074   9.831  11.518
33462W        W 5722  36.537  32.585  14.382
33463W        W 5723  37.550  16.185   0.265
33464W        W 5724  35.025   9.874  14.838
33465W        W 5725  42.409  37.836   2.328
33466W        W 5726   8.202  42.494  11.960
33467W        W 5727   8.400   3.372  13.419
33468W        W 5728   4.342  23.505  11.094
33469W        W 5729  25.032   6.258  12.550
33470W        W 5730  12.247  16.804   3.870
33471W        W 5731  16.620   6.779   4.599
33472W        W 5732  33.102   5.350   3.848
33473W        W 5733  42.862  28.950   4.205
33474W        W 5734  34.604  26.624   1.348
33475W        W 5735  26.182  41.335   5.566
33476W        W 5736  15.171   8.222  14.438
33477W        W 5737   0.982   1.824  14.328
33478W        W 5738  30.064   2.863   2.190
33479W        W 5739   8.354  37.011  14.473
33480W        W 5740  19.589  33.073   2.776
33481W        W 5741  32.001  35.358  14.347
33482W        W 5742   5.695  24.994   4.355
33483W        W 5743  21.513  18.206   3.186
33484W        W 5744   9.229  37.551   4.792
33485W        W 5745   2.959  15.633   3.761
33486W        W 5746  40.404   2.280  13.490
33487W        W 5747  32.399  17.776   0.855
33488W        W 5748  23.069  20.185  11.581
33489W        W 5749  33.456  24.721  13.904
33490W        W 5750  32.961   7.319  14.012
33491W        W 5751  16.286  13.756  13.453
33492W        W 5752  31.905  35.393  11.581
33493W        W 5753  37.417  18.628   5.246
33494W        W 5754   8.402  17.207   1.793
33495W        W 5755  36.468  29.631  11.971
33496W        W 5756   9.750  19.039   2.718
33497W        W 5757  38.074  30.140   3.822
33498W        W 5758   2.361  18.096   1.339
33499W        W 5759  10.818   3.251  13.875
33500W        W 5760  22.084  24.048   0.881
33501W        W 5761  13.615   3.939  12.894
33502W        W 5762  40.816  38.859   4.747
33503W        W 5763  43.322  13.222  14.991
33504W        W 5764  15.232  38.008  11.600
33505W        W 5765  43.456  20.030   1.823
33506W        W 5766  22.549  26.134   9.481
33507W        W 5767  30.071  10.710   2.721
33508W        W 5768  21.077  33.507   3.721
33509W        W 5769  43.292  31.011   4.637
33510W        W 5770  36.094  31.585  13.852
33511W        W 5771  35.601  21.122  10.965
33512W        W 5772   2.440  13.732   4.349
33513W        W 5773  36.058  13.773   3.805
33514W        W 5774   3.461   6.253   0.398
33515W        W 5775  16.581  31.426  10.966
33516W        W 5776  42.901  43.852   3.705
33517W        W 5777  39.853  31.990  14.012
33518W        W 5778  27.516  27.542   2.225
33519W        W 5779  10.782  23.239  12.830
33520W        W 5780   2.446  29.926   1.237
33521W        W 5781   0.805  18.282   2.679
33522W        W 5782  39.437  32.429   0.454
33523W        W 5783   3.864   3.830   2.261
33524W        W 5784  28.565  41.794   1.422
33525W        W 5785  31.069  35.546  11.994
33526W        W 5786  35.527  14.650  14.886
33527W        W 5787  34.425  29.977  14.390
33528W        W 5788   6.393  28.152   4.803
33529W        W 5789  21.148  31.152  13.456
33530W        W 5790  20.047  12.211  12.935
33531W        W 5791  21.090  38.003   2.298
33532W        W 5792  11.726  25.682   1.261
33533W        W 5793  25.005  28.578  11.472
33534W        W 5794  34.951  23.013  12.571
33535W        W 5795  28.026  31.595  14.962
33536W        W 5796  18.591  12.741  10.977
33537W        W 5797  11.786  29.124   0.829
33538W        W 5798  13.205  32.974   0.326
33539W        W 5799  20.639  13.608  11.923
33540W        W 5800  21.022  19.234   5.662
33541W        W 5801  24.209  19.708  10.922
33542W        W 5802   7.359  39.474   1.393
33543W        W 5803  38.025   3.333  13.955
33544W        W 5804  43.962  28.045   0.251
33545W        W 5805  36.506  34.028   3.291
33546W        W 5806  26.604  35.939   1.853
33547W        W 5807  18.121  19.562  13.546
33548W        W 5808   0.401  21.522   3.802
33549W        W 5809  36.951  12.849   4.294
33550W        W 5810   1.455  35.906   1.716
33551W        W 5811  34.012  25.068  12.536
33552W        W 5812  31.515   8.293   1.405
33553W        W 5813  38.510  42.842  10.629
33554W        W 5814   3.952  27.589   4.240
33555W        W 5815  43.413  21.171   3.799
33556W        W 5816  25.016  24.688   2.267
33557W        W 5817   6.707  40.489  13.398
33558W        W 5818  15.660  28.616   2.311
33559W        W 5819   5.281  29.039   0.955
33560W        W 5820   7.295  11.754   2.288
33561W        W 5821  38.496  15.244   1.899
33562W        W 5822  11.802  11.739  11.061
33563W        W 5823  41.366  12.362   4.126
33564W        W 5824  43.476  29.620  13.966
33565W        W 5825  10.824  22.584   2.317
33566W        W 5826   8.244  15.286  10.596
33567W        W 5827  15.802  19.274  14.948
33568W        W 5828  23.122  22.523   3.845
33569W        W 5829  40.534  18.554  14.403
33570W        W 5830  10.260   8.240   0.439
33571W        W 5831  32.108   9.799   4.307
33572W        W 5832  11.712  44.442  10.000
33573W        W 5833   0.266  26.986  14.866
33574W        W 5834  40.986   2.904  10.957
33575W        W 5835  42.406   2.450  13.407
33576W        W 5836  33.550  36.518   3.753
33577W        W 5837   3.797   9.712   2.183
33578W        W 5838  26.639   2.412   1.727
33579W        W 5839  38.932   4.743  11.882
33580W        W 5840   8.384   2.326  10.964
33581W        W 5841  18.154  41.325  12.927
33582W        W 5842  42.303   4.218   2.311
33583W        W 5843  28.065   1.291   2.662
33584W        W 5844   1.824  34.005   0.333
33585W        W 5845  40.480   6.899  10.964
33586W        W 5846  42.526  28.159  12.071
33587W        W 5847  18.269   5.921   2.759
33588W        W 5848   5.768   5.266   2.279
33589W        W 5849  44.490  23.099  14.004
33590W        W 5850   0.929  16.263  10.628
33591W        W 5851   9.234  12.715   3.770
33592W        W 5852   5.914  24.620   2.325
33593W        W 5853  43.444  34.081   3.761
33594W        W 5854   3.404  22.020   2.877
33595W        W 5855   3.279  40.482   4.171
33596W        W 5856  28.645  36.093  10.932
33597W        W 5857  38.970  16.083  12.882
33598W        W 5858  30.002  34.596  13.371
33599W        W 5859  24.202  16.721  13.928
33600W        W 5860  13.281  12.787   9.957
33601W        W 5861   5.923  37.576   3.200
33602W        W 5862  35.909   9.768   1.273
33603W        W 5863  32.137  32.459  11.965
33604W        W 5864  36.585   8.762   5.151
33605W        W 5865  14.132  34.459   2.676
33606W        W 5866  10.159  29.437   3.719
33607W        W 5867  34.591  34.914  12.067
33608W        W 5868  33.484  26.004   4.652
33609W        W 5869  36.947   8.734  11.995
33610W        W 5870  28.523  43.395   4.750
33611W        W 5871   8.213   0.808   0.866
33612W        W 5872  38.025   6.922  14.487
33613W        W 5873  17.228  20.207  12.961
33614W        W 5874  11.163   9.724   3.722
33615W        W 5875   9.276  39.062  12.869
33616W        W 5876  27.153   5.876  14.316
33617W        W 5877  16.178  33.385  12.077
33618W        W 5878  17.714  20.545   0.293
33619W        W 5879  26.098  11.823   4.228
33620W        W 5880  37.904   2.366  10.974
33621W        W 5881  13.833  43.916  10.431
33622W        W 5882  39.959  18.159   3.817
33623W        W 5883  37.460   6.328  14.346
33624W        W 5884  22.695  26.143  11.540
33625W        W 5885  25.643   1.769  11.439
33626W        W 5886   9.848  31.422   4.208
33627W        W 5887  41.925  11.256   2.259
33628W        W 5888   8.167  42.005  10.570
33629W        W 5889  13.842  38.920   0.908
33630W        W 5890  16.809  18.742  11.506
33631W        W 5891   8.738   5.775   0.891
33632W        W 5892   9.870   6.918   1.911
33633W        W 5893   7.714  32.115  11.606
33634W        W 5894  34.117  10.815  12.385
33635W        W 5895  21.668  18.237  11.508
33636W        W 5896  37.433  30.503  10.903
33637W        W 5897  24.588  25.209  12.036
33638W        W 5898  24.519   2.285  11.412
33639W        W 5899  44.293  20.671   5.212
33640W        W 5900  31.903  12.639  13.943
33641W        W 5901  37.407  14.226  13.855
33642W        W 5902   3.841  40.965   3.312
33643W        W 5903  38.931   0.888  14.297
33644W        W 5904  34.967  22.049  12.827
33645W        W 5905  28.439  28.993  14.303
33646W        W 5906  21.522  39.473   0.749
33647W        W 5907  44.805  43.897   1.800
33648W        W 5908  25.076  36.091   0.906
33649W        W 5909   8.186  15.119   2.872
33650W        W 5910  13.769   4.431   0.391
33651W        W 5911  24.978   5.230  13.796
33652W        W 5912  29.158  23.099   0.327
33653W        W 5913  26.048  19.690  11.956
33654W        W 5914  39.936   0.978  10.412
33655W        W 5915  32.034  41.324   3.782
33656W        W 5916  34.507  25.067   3.674
33657W        W 5917  34.468  33.900   3.333
33658W        W 5918   7.851  15.790  10.997
33659W        W 5919  44.302  32.596   2.792
33660W        W 5920  17.634  22.569  12.013
33661W        W 5921   5.408  40.323  10.497
33662W        W 5922  17.584   0.895   1.731
33663W        W 5923  18.640  39.434  13.944
33664W        W 5924  31.610  44.940   2.300
33665W        W 5925  18.155   4.844  10.975
33666W        W 5926  31.448  21.249   4.693
33667W        W 5927  16.765  14.826  11.107
33668W        W 5928  18.611  18.788   1.849
33669W        W 5929  44.824  36.967  12.457
33670W        W 5930   9.796   9.735  11.941
33671W        W 5931  31.066   5.294   3.358
33672W        W 5932  35.971  28.585   3.870
33673W        W 5933   2.296  27.549  12.362
33674W        W 5934  19.718   0.321  14.496
33675W        W 5935  36.351  34.073  14.428
33676W        W 5936  31.029  12.744   4.632
33677W        W 5937  20.067  29.047   1.778
33678W        W 5938  16.578  32.104  13.328
33679W        W 5939  19.605  21.564   0.435
33680W        W 5940  40.917  29.084   3.194
33681W        W 5941   4.930  34.483  14.850
33682W        W 5942   9.705  21.019   3.821
33683W        W 5943   5.318  41.357  12.070
33684W        W 5944   0.901  42.386   0.265
33685W        W 5945  11.699  13.662  10.896
33686W        W 5946  11.774  14.330  13.514
33687W        W 5947  26.068   6.396  11.598
33688W        W 5948  40.817  22.119  14.471
33689W        W 5949  10.146  44.274   0.314
33690W        W 5950   6.747  15.669   9.991
33691W        W 5951  29.430  41.312   1.407
33692W        W 5952   3.232   7.901  14.500
33693W        W 5953   2.779   3.296   0.350
33694W        W 5954  42.473  41.873   3.167
33695W        W 5955  33.024  44.366  11.917
33696W        W 5956   8.360  10.820  13.878
33697W        W 5957  44.983  20.203  14.852
33698W        W 5958  11.151  18.104   2.212
33699W        W 5959   0.382  35.439  11.443
33700W        W 5960  21.717  34.044  14.925
33701W        W 5961   7.880  36.528   0.432
33702W        W 5962  23.719  40.052   4.730
33703W        W 5963   7.246   2.744   0.881
33704W        W 5964  28.448  32.634   1.867
33705W        W 5965  41.867  42.930   0.860
33706W        W 5966  30.620  19.748   3.348
33707W        W 5967  26.030   9.713  12.900
33708W        W 5968   9.862  16.203  12.054
33709W        W 5969  39.536  19.170  14.281
33710W        W 5970  17.179  27.528  10.582
33711W        W 5971   4.908  17.627   1.274
33712W        W 5972   1.337   1.883   1.901
33713W        W 5973  14.125  11.636   4.834
33714W        W 5974  28.028  39.377  11.388
33715W        W 5975  31.411  32.952  14.358
33716W        W 5976  39.883  11.702  10.906
33717W        W 5977  29.042  13.270  13.015
33718W        W 5978  41.833   1.744   0.946
33719W        W 5979  23.679  15.130  14.420
33720W        W 5980  39.822  31.129  12.031
33721W        W 5981  38.063  26.051   0.299
33722W        W 5982  26.031  38.539   5.315
33723W        W 5983   0.299  30.956   1.910
33724W        W 5984  20.254  17.800  14.863
33725W        W 5985   8.816  14.713  11.594
33726W        W 5986  20.703  31.968  10.453
33727W        W 5987  21.229   8.184   5.318
33728W        W 5988  11.273  26.025  11.987
33729W        W 5989  26.033  42.359   0.891
33730W        W 5990  15.817  26.146  10.521
33731W        W 5991  16.804   6.688   4.349
33732W        W 5992  18.595  41.517  13.945
33733W        W 5993  23.681  37.903  13.016
33734W        W 5994  34.000  40.016   1.288
33735W        W 5995  40.363   1.773   2.719
33736W        W 5996  44.936   5.305  14.792
33737W        W 5997   0.807   2.835   9.989
33738W        W 5998   2.839  10.754  12.848
33739W        W 5999  26.190  28.514   1.315
33740W        W 6000  16.229  10.762   4.671
33741W        W 6001  38.923  34.437   2.225
33742W        W 6002  14.287  13.283  12.469
33743W        W 6003  42.906   9.650  14.384
33744W        W 6004  15.172  40.020  14.407
33745W        W 6005   9.668   9.833  11.097
33746W        W 6006  29.997  25.550   2.281
33747W        W 6007  15.270  35.974   2.404
33748W        W 6008  35.487  24.679  12.892
33749W        W 6009  19.546  37.393   4.721
33750W        W 6010  24.693   0.391   3.759
33751W        W 6011  30.990  23.028   4.257
33752W        W 6012  10.194  13.257  12.025
33753W        W 6013  32.423  18.129   2.826
33754W        W 6014  37.831  26.203  13.335
33755W        W 6015  43.973  21.730  11.554
33756W        W 6016  21.550   6.816   3.146
33757W        W 6017   4.862  15.632  14.308
33758W        W 6018  38.556   4.400   1.844
33759W        W 6019  33.474  18.708   3.233
33760W        W 6020  11.300  16.208  11.034
33761W        W 6021  30.967  15.647   1.211
33762W        W 6022  22.628   3.245   5.289
33763W        W 6023  42.500  20.079  13.320
33764W        W 6024   6.736  23.101  12.420
33765W        W 6025   8.892  41.935  12.845
33766W        W 6026  33.531  28.083   0.245
33767W        W 6027  11.716  28.129  11.951
33768W        W 6028  24.516   9.681   0.753
33769W        W 6029  11.330  35.402   0.913
33770W        W 6030  43.380  34.084   3.308
33771W        W 6031  28.970  26.697   1.391
33772W        W 6032  27.165  11.260   0.463
33773W        W 6033  20.053  35.491  14.431
33774W        W 6034  21.190   2.938   0.895
33775W        W 6035   9.868  11.168  12.015
33776W        W 6036  33.407  14.134  10.545
33777W        W 6037   3.287  28.038   4.213
33778W        W 6038   8.745  11.859   0.885
33779W        W 6039   8.804   5.401   2.836
33780W        W 6040  16.663  43.307   0.820
33781W        W 6041  43.014  36.360   2.697
33782W        W 6042  11.669  10.769   4.819
33783W        W 6043  21.563   6.849  14.456
33784W        W 6044  20.561  32.448   1.249
33785W        W 6045  19.171  15.781   2.398
33786W        W 6046  39.368   7.229  10.501
33787W        W 6047  44.308  33.906   3.835
33788W        W 6048  31.588  36.899   0.408
33789W        W 6049  42.024  26.664  11.911
33790W        W 6050  18.591  16.721   3.352
33791W        W 6051  35.412  15.645   4.164
33792W        W 6052   4.839  23.664  12.032
33793W        W 6053  39.339   6.859   5.593
33794W        W 6054  14.295   4.350  13.422
33795W        W 6055  26.061  33.529   2.694
33796W        W 6056  42.298  33.436  12.072
33797W        W 6057  30.961   5.396   4.792
33798W        W 6058  32.911  19.086   9.477
33799W        W 6059   0.882  39.488   2.246
33800W        W 6060   9.209  29.539   4.760
33801W        W 6061  17.692   9.856   1.312
33802W        W 6062  28.549  20.163  11.997
33803W        W 6063  19.194  42.843   1.847
33804W        W 6064  16.114   7.198   0.428
33805W        W 6065  29.943  22.728  10.629
33806W        W 6066  25.001   9.384   4.742
33807W        W 6067  40.327  22.572   2.342
33808W        W 6068   4.875  32.993   3.674
33809W        W 6069  11.748  12.741  13.986
33810W        W 6070  36.373  19.650  14.814
33811W        W 6071  13.168  40.897   4.731
33812W        W 6072  16.198   5.795   1.737
33813W        W 6073  14.590  33.877   4.113
33814W        W 6074  40.510  36.396   2.198
33815W        W 6075  18.755   4.749  14.899
33816W        W 6076  22.550   3.807   4.193
33817W        W 6077  19.609   1.471   1.314
33818W        W 6078  31.024  19.730   2.731
33819W        W 6079  40.501   2.324  10.438
33820W        W 6080  30.975   7.676  10.487
33821W        W 6081  20.747  38.849   1.832
33822W        W 6082   5.405  41.947  14.842
33823W        W 6083  21.189   6.903  11.518
33824W        W 6084   5.858  20.536  11.437
33825W        W 6085  13.163  12.187  11.531
33826W        W 6086   5.931  27.644   1.266
33827W        W 6087   3.284  27.689   1.797
33828W        W 6088  44.805  37.425  13.444
33829W        W 6089  14.133  18.295  10.935
33830W        W 6090  24.619  18.765  11.434
33831W        W 6091  43.341  24.986  14.417
33832W        W 6092  16.281  23.079   0.385
33833W        W 6093   6.313  38.844  10.995
33834W        W 6094  22.612  39.929   4.610
33835W        W 6095  40.517   7.405   4.334
33836W        W 6096   9.381  13.177  13.542
33837W        W 6097   5.742  30.083   2.209
33838W        W 6098  35.431  27.198  13.506
33839W        W 6099  42.988  21.158   2.758
33840W        W 6100  19.727   3.885   0.255
33841W        W 6101  18.698  42.831   5.159
33842W        W 6102  42.449  29.170   2.321
33843W        W 6103  12.265   2.250   0.429
33844W        W 6104  24.992  18.052  10.968
33845W        W 6105  36.052  31.969  10.423
33846W        W 6106  37.873   2.233   3.769
33847W        W 6107  33.930  13.217  14.482
33848W        W 6108  23.514  17.619   1.777
33849W        W 6109  35.532   7.804  14.480
33850W        W 6110  43.910  33.059   4.307
33851W        W 6111   7.684   6.207  12.412
33852W        W 6112  18.727  29.616  13.393
33853W        W 6113  15.671   7.377  11.414
33854W        W 6114  32.624  21.665  14.915
33855W        W 6115  39.939   2.871   0.739
33856W        W 6116  24.138   7.716   3.794
33857W        W 6117  20.765  42.915   2.217
33858W        W 6118   9.278   2.281  10.892
33859W        W 6119   7.389  16.304   2.874
33860W        W 6120  38.434   6.272   1.781
33861W        W 6121  28.051  22.075   3.145
33862W        W 6122  31.499  28.026  13.812
33863W        W 6123  36.065  37.582  12.409
33864W        W 6124  43.446   5.421   1.360
33865W        W 6125  36.981  31.060   2.197
33866W        W 6126  21.216  31.070  14.419
33867W        W 6127  16.654  13.824  12.491
33868W        W 6128   7.329  13.637   4.710
33869W        W 6129   0.300  39.486   4.699
33870W        W 6130  38.455  44.844  13.543
33871W        W 6131   5.794  19.158  14.377
33872W        W 6132  28.159  28.179  13.870
33873W        W 6133   7.316  20.573  13.011
33874W        W 6134  42.844  34.551  10.558
33875W        W 6135  21.146   6.401  11.935
33876W        W 6136  34.924  22.727   1.246
33877W        W 6137   9.691  27.956   2.263
33878W        W 6138  31.079  31.593   3.827
33879W        W 6139  20.112  29.959  11.104
33880W        W 6140   7.873  25.984   2.664
33881W        W 6141  36.962  18.158  13.990
33882W        W 6142  18.636  34.525   4.218
33883W        W 6143  36.880   1.448  11.426
33884W        W 6144  43.417  17.270   2.874
33885W        W 6145  26.136  31.062  10.544
33886W        W 6146   8.175  29.615   3.640
33887W        W 6147   1.860  13.710  10.429
33888W        W 6148  29.032  39.933  12.466
33889W        W 6149   9.311  37.861   1.827
33890W        W 6150  35.084   2.243  13.023
33891W        W 6151   8.712  23.677   4.241
33892W        W 6152   1.399   0.369   1.725
33893W        W 6153  23.231  10.667   3.321
33894W        W 6154   1.775  23.491   3.692
33895W        W 6155  29.965  33.129   9.659
33896W        W 6156  31.910  41.985   4.628
33897W        W 6157  11.177  37.976  11.490
33898W        W 6158  21.186   7.214  10.636
33899W        W 6159  37.569  16.595  11.609
33900W        W 6160  40.967   8.806   1.267
33901W        W 6161   4.722  44.414   2.726
33902W        W 6162  15.177  14.746  13.356
33903W        W 6163  18.786   3.395  14.461
33904W        W 6164  44.376  13.269   0.304
33905W        W 6165  24.108  26.647   9.936
33906W        W 6166  18.577  37.457  11.559
33907W        W 6167  32.530  33.116  14.378
33908W        W 6168  31.009  14.821   2.670
33909W        W 6169  41.910   2.851  11.448
33910W        W 6170   4.742  44.315   4.688
33911W        W 6171  37.869  21.514   4.189
33912W        W 6172  41.388  22.631  13.387
33913W        W 6173  44.787   0.966   0.825
33914W        W 6174  42.431  29.925   1.799
33915W        W 6175  31.897  41.039   3.317
33916W        W 6176   6.916  22.520  11.989
33917W        W 6177  12.669   5.840   0.268
33918W        W 6178   3.264  34.380  10.991
33919W        W 6179  39.515  19.253  12.929
33920W        W 6180  38.367  43.768   0.268
33921W        W 6181  39.905   1.806  13.523
33922W        W 6182  10.232  40.844   1.796
33923W        W 6183  27.049   0.315   2.379
33924W        W 6184  43.376  16.087   2.787
33925W        W 6185  28.595  34.476   3.340
33926W        W 6186  34.374  30.565  10.578
33927W        W 6187  21.609  44.377   3.674
33928W        W 6188  13.823  37.952  13.902
33929W        W 6189  42.500  23.603  14.475
33930W        W 6190   8.875   4.890   3.817
33931W        W 6191  27.001   0.983   1.816
33932W        W 6192  19.658  43.949   2.729
33933W        W 6193  15.256  28.958   9.926
33934W        W 6194  21.081  32.466   2.251
33935W        W 6195  15.687   2.772   2.820
33936W        W 6196  43.783  36.551   0.782
33937W        W 6197  31.955  37.052   3.723
33938W        W 6198  26.693  14.109  12.948
33939W        W 6199   0.408   5.290  14.020
33940W        W 6200  27.014  30.512   2.863
33941W        W 6201  37.498  38.532   3.871
33942W        W 6202  35.504  20.080  10.583
33943W        W 6203  11.730  20.139   1.744
33944W        W 6204  34.512   4.760  14.301
33945W        W 6205   6.701  44.763  11.074
33946W        W 6206  26.500  38.900   3.665
33947W        W 6207  36.485  41.315   2.861
33948W        W 6208  37.833  16.805   0.474
33949W        W 6209  25.673  14.196  12.398
33950W        W 6210  20.695  20.239   1.834
33951W        W 6211  38.479   8.890   1.753
33952W        W 6212   6.761  19.163  14.990
33953W        W 6213  25.494  42.517  13.454
33954W        W 6214  44.766  30.497   3.175
33955W        W 6215  26.505  29.455  11.447
33956W        W 6216  44.498   4.291  12.026
33957W        W 6217  32.037  12.306   1.785
33958W        W 6218   2.830  12.707  10.535
33959W        W 6219  42.432  43.932  14.451
33960W        W 6220  27.577  27.610  14.494
33961W        W 6221  32.138  16.296  13.011
33962W        W 6222   6.821   7.404  10.414
33963W        W 6223  33.442  40.467  12.022
33964W        W 6224   9.877  44.389  13.349
33965W        W 6225  29.968  44.304   4.244
33966W        W 6226  16.581   2.459  11.497
33967W        W 6227  10.738  14.340   0.261
33968W        W 6228  16.621  38.882   4.601
33969W        W 6229  29.979  18.602  12.474
33970W        W 6230  28.057  27.559   0.868
33971W        W 6231  19.233  40.963  10.643
33972W        W 6232  36.092  33.523   4.745
33973W        W 6233  23.003   5.285   3.347
33974W        W 6234  24.991   7.723  13.439
33975W        W 6235   4.728  25.694   0.444
33976W        W 6236  33.955  24.012   4.796
33977W        W 6237  30.937  34.426  12.010
33978W        W 6238   4.797   5.910  14.439
33979W        W 6239  41.845  34.587   1.390
33980W        W 6240  43.923  40.891   0.752
33981W        W 6241   9.875   6.892  13.893
33982W        W 6242  43.464  26.651   4.208
33983W        W 6243  43.304  30.429  11.984
33984W        W 6244  31.082  24.654   4.802
33985W        W 6245  34.991   6.385   4.236
33986W        W 6246  28.567   9.862   2.227
33987W        W 6247  17.653  32.632   4.151
33988W        W 6248  12.838   9.290  11.875
33989W        W 6249  30.132   3.393  14.993
33990W        W 6250   6.885  43.785  11.551
33991W        W 6251  26.619   8.184  14.402
33992W        W 6252  43.798   1.304   2.215
33993W        W 6253   1.919  23.664  13.918
33994W        W 6254  28.592  40.464   3.662
33995W        W 6255   1.886  29.496  14.411
33996W        W 6256  13.732   2.286   3.263
33997W        W 6257  10.257  28.625   0.397
33998W        W 6258  33.990  39.968   3.167
33999W        W 6259  13.698   6.248   4.182
34000W        W 6260  20.138   3.359  13.036
34001W        W 6261  20.746  26.122   1.387
34002W        W 6262  33.468  30.632  12.383
34003W        W 6263   6.312   6.186  13.332
34004W        W 6264   4.365   3.901  13.381
34005W        W 6265  40.410  15.234   4.725
34006W        W 6266  32.431  38.060   3.845
34007W        W 6267  11.149  32.067  13.454
34008W        W 6268  22.167  13.223   4.192
34009W        W 6269  24.679   1.863  11.377
34010W        W 6270  24.513  17.240   4.625
34011W        W 6271  24.134  30.510   1.313
34012W        W 6272  17.768  27.165   1.394
34013W        W 6273  38.905  39.334  13.858
34014W        W 6274   6.901  21.533   2.376
34015W        W 6275   4.220  27.124  11.935
34016W        W 6276  38.827  12.173   1.863
34017W        W 6277  37.888  24.604  14.428
34018W        W 6278  13.268  17.274   4.744
34019W        W 6279  20.265  21.699  11.572
34020W        W 6280  19.116  40.972   1.749
34021W        W 6281   4.311   6.331   1.786
34022W        W 6282  19.233  17.180  11.915
34023W        W 6283  23.122  33.888   4.248
34024W        W 6284  34.884  38.545  14.280
34025W        W 6285  23.559  22.032  11.392
34026W        W 6286  20.530  26.637  13.040
34027W        W 6287   7.666  42.821  11.894
34028W        W 6288  36.021  38.548  11.492
34029W        W 6289  27.079  29.513  10.961
34030W        W 6290  34.434  35.958  13.883
34031W        W 6291  33.459  33.432  11.436
34032W        W 6292  40.968  27.612  14.440
34033W        W 6293  42.019  12.211   3.856
34034W        W 6294   0.395  10.634  12.885
34035W        W 6295  25.525  24.659  13.841
34036W        W 6296  22.154  14.215   0.964
34037W        W 6297  13.304  25.111   3.181
34038W        W 6298  27.461  16.149   3.852
34039W        W 6299   2.849  44.926   0.317
34040W        W 6300  27.980  40.921   4.288
34041W        W 6301  38.961   8.167  11.887
34042W        W 6302   5.204   3.835  13.044
34043W        W 6303   1.252  12.685   2.345
34044W        W 6304  36.014  36.437   4.211
34045W        W 6305   2.305  10.866   3.845
34046W        W 6306  12.304  42.879   4.653
34047W        W 6307  29.599  33.979   1.271
34048W        W 6308  41.458   2.721  14.789
34049W        W 6309   9.393  29.157  13.489
34050W        W 6310   7.417  17.129  14.281
34051W        W 6311   1.450   4.709   1.747
34052W        W 6312  39.048   6.420   4.317
34053W        W 6313  15.150  27.101   4.160
34054W        W 6314  29.434  38.824  12.946
34055W        W 6315  33.027   8.163  11.436
34056W        W 6316   4.297   0.474  11.484
34057W        W 6317  33.469  20.661  12.055
34058W        W 6318  26.562  22.625   0.871
34059W        W 6319   8.743   3.955   0.826
34060W        W 6320  20.750   5.925   5.709
34061W        W 6321   0.457  37.902  12.984
34062W        W 6322  16.735  20.201  12.416
34063W        W 6323  36.370  44.464  13.510
34064W        W 6324  30.059  11.178  12.462
34065W        W 6325  32.431  25.095   3.196
34066W        W 6326   8.315  15.323  12.957
34067W        W 6327  34.114  16.578   0.393
34068W        W 6328  32.097   8.172   0.314
34069W        W 6329  23.584  38.852  10.453
34070W        W 6330   3.770   4.913  11.438
34071W        W 6331  12.648  11.178  11.472
34072W        W 6332  20.100   8.786  12.436
34073W        W 6333  44.945  29.491   2.270
34074W        W 6334  13.775  30.450  14.365
34075W        W 6335   2.393   9.278  13.945
34076W        W 6336  30.604  27.067  14.396
34077W        W 6337  23.235   2.849   4.680
34078W        W 6338   4.389   6.719  12.041
34079W        W 6339  25.993  39.023  14.914
34080W        W 6340  23.241  31.002   0.896
34081W        W 6341  24.073  36.969  12.848
34082W        W 6342  32.982  29.154  11.087
34083W        W 6343   5.287  22.587  12.453
34084W        W 6344  27.166  32.898   1.393
34085W        W 6345  16.125  22.172  11.470
34086W        W 6346  35.362  11.264   3.375
34087W        W 6347  11.841  29.508  10.570
34088W        W 6348   7.192  21.731   1.722
34089W        W 6349  37.050  32.532   2.898
34090W        W 6350  34.056  10.352   4.301
34091W        W 6351  44.914  20.106   0.381
34092W        W 6352  10.678  38.962  10.628
34093W        W 6353   4.356   6.264   0.454
34094W        W 6354  28.133  26.150  14.417
34095W        W 6355  20.600   4.774   4.286
34096W        W 6356  26.079  26.561   3.150
34097W        W 6357  29.004   4.699   2.756
34098W        W 6358  17.117  16.806  13.514
34099W        W 6359  19.760  20.717  12.981
34100W        W 6360  17.652  24.572  12.938
34101W        W 6361  30.986  44.913  14.809
34102W        W 6362  19.544  39.404  11.467
34103W        W 6363  39.845  11.696  13.870
34104W        W 6364  19.535  16.202  11.533
34105W        W 6365  18.790   2.821   4.332
34106W        W 6366  19.594  44.804  13.462
34107W        W 6367  11.816   4.333   1.780
34108W        W 6368  16.241  44.887  12.470
34109W        W 6369   3.404  24.063  11.430
34110W        W 6370  28.522   8.312   1.792
34111W        W 6371  32.598  16.103  13.818
34112W        W 6372  10.752  42.821   2.257
34113W        W 6373  22.538  41.313  10.493
34114W        W 6374  38.856  10.683   1.231
34115W        W 6375  24.711  44.961   4.340
34116W        W 6376  26.554  21.555   4.792
34117W        W 6377  18.710  11.687  13.927
34118W        W 6378  20.567   5.356  14.999
34119W        W 6379  11.295  26.020   4.331
34120W        W 6380   3.321  12.769   3.248
34121W        W 6381  33.076  36.552   1.834
34122W        W 6382   3.716   2.463   4.123
34123W        W 6383  25.517  42.808   0.918
34124W        W 6384  34.121  29.013   2.343
34125W        W 6385  25.497   3.331   2.798
34126W        W 6386  18.264   5.889   1.830
34127W        W 6387  43.485  27.102   3.835
34128W        W 6388  18.545   7.852   3.385
34129W        W 6389  30.043  26.195   3.367
34130W        W 6390  17.668   8.725  11.527
34131W        W 6391  28.491  21.686   3.818
34132W        W 6392  43.888  43.371   1.777
34133W        W 6393   9.296  35.898   1.890
34134W        W 6394  32.946  32.575   0.361
34135W        W 6395  10.770  20.033   3.835
34136W        W 6396  32.900  37.439  12.947
34137W        W 6397   3.228  34.544   1.396
34138W        W 6398  36.495  33.503  10.511
34139W        W 6399  23.618  19.744   1.812
34140W        W 6400  37.444   2.831  13.842
34141W        W 6401  23.610  37.837   3.367
34142W        W 6402  20.042  25.714  13.370
34143W        W 6403  32.955  42.500  12.075
34144W        W 6404  13.283  22.151  10.910
34145W        W 6405  25.205  14.131   0.769
34146W        W 6406  37.050   3.818  13.464
34147W        W 6407   0.886  15.705  10.619
34148W        W 6408  33.049  44.367  10.438
34149W        W 6409  43.020  17.729   1.893
34150W        W 6410  16.294  38.448  14.501
34151W        W 6411  25.694  20.156  11.436
34152W        W 6412  33.602  44.771  13.394
34153W        W 6413   9.341  26.174   4.142
34154W        W 6414  10.286  33.563  10.917
34155W        W 6415  42.489  41.351  11.002
34156W        W 6416  31.058  41.504  14.993
34157W        W 6417   9.743   9.741  11.480
34158W        W 6418  19.692  30.151   0.789
34159W        W 6419   7.361  16.645  11.379
34160W        W 6420  43.398  27.183  12.090
34161W        W 6421  36.444  39.834  13.351
34162W        W 6422  23.025  36.453   3.773
34163W        W 6423   3.816  40.449  14.927
34164W        W 6424  20.577  18.765  12.353
34165W        W 6425  29.074  34.375  13.466
34166W        W 6426  25.096  41.866   0.333
34167W        W 6427  13.190  43.432  13.359
34168W        W 6428  28.539  33.099   0.803
34169W        W 6429  42.514   1.891   3.173
34170W        W 6430   4.785   5.255  11.421
34171W        W 6431   6.774  27.454  12.840
34172W        W 6432  28.541  17.211  13.370
34173W        W 6433  18.289   3.946   1.410
34174W        W 6434   3.372  16.625   2.717
34175W        W 6435  39.963  18.628  14.857
34176W        W 6436  34.433  10.695   0.958
34177W        W 6437  18.717   0.799   5.081
34178W        W 6438  37.953   5.381   1.267
34179W        W 6439  28.612  24.019   4.338
34180W        W 6440  14.782  10.739   3.284
34181W        W 6441  35.902   0.281   4.627
34182W        W 6442  39.939  37.440  10.906
34183W        W 6443  43.289  20.050   0.733
34184W        W 6444  14.122  33.966   4.687
34185W        W 6445  19.589   8.685  11.003
34186W        W 6446  27.106   1.373   4.174
34187W        W 6447  25.092  15.272  11.479
34188W        W 6448  18.144   4.414   3.215
34189W        W 6449  14.695  12.842  10.944
34190W        W 6450  14.601  30.020  14.795
34191W        W 6451  35.976  43.969   4.148
34192W        W 6452  11.202  12.659   2.885
34193W        W 6453  40.323  12.276   1.742
34194W        W 6454  35.968  32.436   5.108
34195W        W 6455  11.242   7.883  10.939
34196W        W 6456  17.780  19.207   0.909
34197W        W 6457  29.465  10.689   1.322
34198W        W 6458  43.425  30.953  12.074
34199W        W 6459  30.065  29.625   2.393
34200W        W 6460  17.306  19.732  10.568
34201W        W 6461  32.486  34.552   1.891
34202W        W 6462  44.840   3.402  12.877
34203W        W 6463  14.260  27.464  11.100
34204W        W 6464  33.900  16.155  11.000
34205W        W 6465  44.327  20.668  11.523
34206W        W 6466   0.988  16.675   3.223
34207W        W 6467  40.398  25.170   9.935
34208W        W 6468  17.727  11.807  10.610
34209W        W 6469  29.000   2.889   2.712
34210W        W 6470  32.436  33.926  13.412
34211W        W 6471  44.862  10.673  13.889
34212W        W 6472  19.280  33.031  13.882
34213W        W 6473  34.577  34.386  12.444
34214W        W 6474  32.432  20.624   1.868
34215W        W 6475  27.618   9.259  11.605
34216W        W 6476   1.948  20.591  12.503
34217W        W 6477  36.581   7.756   0.742
34218W        W 6478  26.954  41.450   9.499
34219W        W 6479  14.594   9.847  13.965
34220W        W 6480  11.691  39.355  10.993
34221W        W 6481  23.586  33.469  12.568
34222W        W 6482  28.159  44.795   4.761
34223W        W 6483  25.635   0.780  10.473
34224W        W 6484  21.145  26.703  11.939
34225W        W 6485  21.687  43.892   1.790
34226W        W 6486  12.668  18.749   1.312
34227W        W 6487  40.849  23.048   0.338
34228W        W 6488  37.060   5.354  11.543
34229W        W 6489  36.984  36.861   0.917
34230W        W 6490   6.769  20.730  14.901
34231W        W 6491  14.161  43.782  14.874
34232W        W 6492  10.305  24.129  14.436
34233W        W 6493  29.630  27.192   3.225
34234W        W 6494  40.354  39.370  11.881
34235W        W 6495  34.916  18.132   9.491
34236W        W 6496  18.148  29.978  11.948
34237W        W 6497  24.052   0.404  13.885
34238W        W 6498  38.867  42.915   5.230
34239W        W 6499  27.066  40.482  12.893
34240W        W 6500  34.978  40.948  12.561
34241W        W 6501  22.642  40.355  12.488
34242W        W 6502  24.220  21.174   1.709
34243W        W 6503   3.291  37.372  14.791
34244W        W 6504  42.401  35.588  12.010
34245W        W 6505  16.253  18.175   1.231
34246W        W 6506  35.048   4.827   0.405
34247W        W 6507  26.199  13.641   0.907
34248W        W 6508  19.732  41.379   1.284
34249W        W 6509  12.679  30.613   5.614
34250W        W 6510  23.032  39.926   1.343
34251W        W 6511  21.699  20.685   4.685
34252W        W 6512   7.766  19.146   1.400
34253W        W 6513  23.073  18.754   4.146
34254W        W 6514  23.204  34.922  13.966
34255W        W 6515   5.287  19.124  12.016
34256W        W 6516  42.021   7.384  14.791
34257W        W 6517   3.447  38.052   3.292
34258W        W 6518  26.477   5.867   4.121
34259W        W 6519   8.704  43.011   3.667
34260W        W 6520  43.901   6.806   2.774
34261W        W 6521  18.244  14.803   0.916
34262W        W 6522  21.106  21.633  13.959
34263W        W 6523  24.586  16.684  13.451
34264W        W 6524  27.478  13.626   3.226
34265W        W 6525   7.217  34.094   0.836
34266W        W 6526   7.898  37.074   0.314
34267W        W 6527  11.250   1.372  14.772
34268W        W 6528  26.965  28.443  13.344
34269W        W 6529   5.842   3.274  11.114
34270W        W 6530  15.772  37.839   0.918
34271W        W 6531  38.444  24.601   2.408
34272W        W 6532  11.293  12.243  13.538
34273W        W 6533  32.575  44.273  10.552
34274W        W 6534  22.573  36.025   3.666
34275W        W 6535  17.229  31.438  14.336
34276W        W 6536   2.726  19.563   1.838
34277W        W 6537  24.667  39.499   5.708
34278W        W 6538  34.579  25.655   0.309
34279W        W 6539  39.452   2.888   0.424
34280W        W 6540  30.590   0.883   0.925
34281W        W 6541   6.357  28.617   0.856
34282W        W 6542   0.454  16.798  14.812
34283W        W 6543  13.132  36.431   4.732
34284W        W 6544  13.732   1.805   1.376
34285W        W 6545  33.402  14.139   4.305
34286W        W 6546  31.625  29.068   2.219
34287W        W 6547  27.531  15.213   3.869
34288W        W 6548  20.670   4.847   3.678
34289W        W 6549  22.586  29.521  11.461
34290W        W 6550  13.723   0.932   1.931
34291W        W 6551   2.865   3.896  12.896
34292W        W 6552  27.105  31.985   1.216
34293W        W 6553  11.849  12.850  13.043
34294W        W 6554  40.320  11.343   1.274
34295W        W 6555  14.691  31.042  12.476
34296W        W 6556  19.719  21.128  12.985
34297W        W 6557  23.717   2.327  11.516
34298W        W 6558  38.478  38.062  14.353
34299W        W 6559  22.147  34.082   1.927
34300W        W 6560  42.294  20.569  12.937
34301W        W 6561  16.577  35.940  12.435
34302W        W 6562   2.822  35.890  10.898
34303W        W 6563  22.206  43.783   4.312
34304W        W 6564  22.217  34.557  13.355
34305W        W 6565  33.876  16.586   3.245
34306W        W 6566  10.383  19.050  11.033
34307W        W 6567  11.341  15.298   2.806
34308W        W 6568  25.180  27.486   4.776
34309W        W 6569  32.069  39.367  13.393
34310W        W 6570   5.416  34.585   1.224
34311W        W 6571  31.071  19.685  10.508
34312W        W 6572  13.307  18.140  10.624
34313W        W 6573  34.448   1.336  14.462
34314W        W 6574  15.187  24.152   1.821
34315W        W 6575  16.600  37.356  14.976
34316W        W 6576  37.565  10.201   1.407
34317W        W 6577  36.445   9.237   4.127
34318W        W 6578   9.262  44.503   4.263
34319W        W 6579   9.698   7.176  11.466
34320W        W 6580  38.850   3.262  14.808
34321W        W 6581  10.335  41.430  14.820
34322W        W 6582  38.492   7.298  11.855
34323W        W 6583  40.344   9.856  13.032
34324W        W 6584  17.263   1.813  12.077
34325W        W 6585  40.991  16.579   2.675
34326W        W 6586  18.737  15.191   1.358
34327W        W 6587  44.449  26.009   2.261
34328W        W 6588   1.432   1.327  12.874
34329W        W 6589   9.181  19.168   4.202
34330W        W 6590  15.309  34.448   1.893
34331W        W 6591  30.086   4.923   3.254
34332W        W 6592  17.712  35.502  11.570
34333W        W 6593  19.666   9.778  10.497
34334W        W 6594  40.385  29.461  12.929
34335W        W 6595  30.620   1.828  12.086
34336W        W 6596  12.221  40.811  11.925
34337W        W 6597  18.293  29.105   0.813
34338W        W 6598  41.891  43.896   3.281
34339W        W 6599  30.955  17.293  14.476
34340W        W 6600  39.434  39.517   0.818
34341W        W 6601   4.220  26.057   1.369
34342W        W 6602  11.838  13.158   4.630
34343W        W 6603   6.900  26.952  14.423
34344W        W 6604  22.044   7.755  14.906
34345W        W 6605  38.466  30.978  13.823
34346W        W 6606  41.319  30.562  13.370
34347W        W 6607  29.126  20.110  11.384
34348W        W 6608  42.455  14.830   0.952
34349W        W 6609  19.151  22.570  10.599
34350W        W 6610  17.267  43.509   4.334
34351W        W 6611  29.553  28.103   5.271
34352W        W 6612  31.986  17.648  10.519
34353W        W 6613  26.172   7.712   1.874
34354W        W 6614  20.216  20.086   0.363
34355W        W 6615  25.547  42.861   4.300
34356W        W 6616   8.837  44.955  11.979
34357W        W 6617  16.199  29.501  12.087
34358W        W 6618   9.284  20.103   0.742
34359W        W 6619  41.037  32.924  11.914
34360W        W 6620  44.994   7.274  12.081
34361W        W 6621  30.523  34.575  11.493
34362W        W 6622  41.441  43.948   3.762
34363W        W 6623  39.980  14.154   5.259
34364W        W 6624  30.929   1.829  11.958
34365W        W 6625  39.024  27.078   1.274
34366W        W 6626  13.345  13.650   0.961
34367W        W 6627  27.534  34.093   4.788
34368W        W 6628  29.149  41.946   1.892
34369W        W 6629   6.821  28.458   1.270
34370W        W 6630  42.836   7.777   1.263
34371W        W 6631  10.169  28.454   2.854
34372W        W 6632  24.198  39.050  14.963
34373W        W 6633  37.339  35.934  14.488
34374W        W 6634  27.974   8.229  14.377
34375W        W 6635  43.982   3.347  13.967
34376W        W 6636  31.098   3.837   3.739
34377W        W 6637  28.585  15.677  10.961
34378W        W 6638  39.949   3.917  11.373
34379W        W 6639  13.822  39.809  10.987
34380W        W 6640  32.555  17.596   3.857
34381W        W 6641  14.825  27.615  10.024
34382W        W 6642  11.660  16.286   1.380
34383W        W 6643   1.836  16.764   3.264
34384W        W 6644   3.259  32.480   2.228
34385W        W 6645  43.781  40.894  10.448
34386W        W 6646  30.431   0.969  13.845
34387W        W 6647   9.810   1.316   3.333
34388W        W 6648  26.955  31.140   1.323
34389W        W 6649  11.841  40.936  13.887
34390W        W 6650   6.707   9.379   4.281
34391W        W 6651  41.311   1.912  13.356
34392W        W 6652  15.234  12.258  10.539
34393W        W 6653  26.618  17.691   3.652
34394W        W 6654  16.232  15.603   4.196
34395W        W 6655  39.938  34.019   0.337
34396W        W 6656  24.033  26.538   0.353
34397W        W 6657  33.539  17.730  10.133
34398W        W 6658   1.931  37.414   1.245
34399W        W 6659  22.152   1.831  12.486
34400W        W 6660  25.162  20.584  10.420
34401W        W 6661   8.869  41.368  13.808
34402W        W 6662  12.195  29.569   0.325
34403W        W 6663  37.020  13.325  12.554
34404W        W 6664  26.540  32.126   3.187
34405W        W 6665  39.414  12.175   4.626
34406W        W 6666  21.243  10.221  14.512
34407W        W 6667  27.053   8.252  11.076
34408W        W 6668  34.007  44.826  13.532
34409W        W 6669  21.050   2.287   2.181
34410W        W 6670   9.384  44.923  11.861
34411W        W 6671   6.184  17.696  11.587
34412W        W 6672   3.842  39.930  12.459
34413W        W 6673  32.492  44.875  11.924
34414W        W 6674  19.182  26.595  13.360
34415W        W 6675  23.598   6.264  11.068
34416W        W 6676  40.481  26.658  14.516
34417W        W 6677  43.848  33.076  10.900
34418W        W 6678  15.769  26.097  10.918
34419W        W 6679  24.974   8.257   4.670
34420W        W 6680  34.610  42.302  10.594
34421W        W 6681  13.647  37.402  14.819
34422W        W 6682  28.186  25.004   2.262
34423W        W 6683   7.180  41.515   4.180
34424W        W 6684  33.510  10.854  10.593
34425W        W 6685  28.617  34.590   0.462
34426W        W 6686   1.871  34.980   1.842
34427W        W 6687  13.784   0.771   3.368
34428W        W 6688  12.643  31.482   1.372
34429W        W 6689  12.747  14.275  14.453
34430W        W 6690   2.839  18.645  14.946
34431W        W 6691  36.887  33.068   1.418
34432W        W 6692  43.285  18.791  11.939
34433W        W 6693  19.150  36.888   4.764
34434W        W 6694  44.466  32.474  14.817
34435W        W 6695  13.238  30.010   3.722
34436W        W 6696  15.738  18.585   1.270
34437W        W 6697  14.789  12.352  13.510
34438W        W 6698  33.063  29.533  12.842
34439W        W 6699  14.749   3.867   2.841
34440W        W 6700  19.644  26.180  10.480
34441W        W 6701  38.944  39.358  10.888
34442W        W 6702   2.848  20.068  12.524
34443W        W 6703  18.254  19.140   3.180
34444W        W 6704  22.107  35.456   4.737
34445W        W 6705   5.297   4.798   0.302
34446W        W 6706   1.454  28.493  13.474
34447W        W 6707  35.872  20.054   1.777
34448W        W 6708   2.802  38.982  13.513
34449W        W 6709  29.026  16.749  10.502
34450W        W 6710  26.158   1.741  14.874
34451W        W 6711  20.028   6.286   4.743
34452W        W 6712  17.275  11.674   1.763
34453W        W 6713  16.211  34.535   0.889
34454W        W 6714  31.641  35.555   2.380
34455W        W 6715  13.699  20.198   1.317
34456W        W 6716  43.897  36.400  12.014
34457W        W 6717  32.092  16.776  11.018
34458W        W 6718  23.680  43.021  11.900
34459W        W 6719  40.012  35.077   1.713
34460W        W 6720  35.950  15.649  12.846
34461W        W 6721   0.369   0.491  11.406
34462W        W 6722  11.793   8.794   1.769
34463W        W 6723  31.417   5.856  11.867
34464W        W 6724   5.365  43.006  14.966
34465W        W 6725  12.142  23.060   2.247
34466W        W 6726   6.792  38.413   3.696
34467W        W 6727   9.165  24.172   2.286
34468W        W 6728  35.884  36.045   1.451
34469W        W 6729   1.954  42.296  10.975
34470W        W 6730  36.935   0.816   2.204
34471W        W 6731  12.614  20.176  12.427
34472W        W 6732  39.962  41.928  12.565
34473W        W 6733  11.237  30.148  11.612
34474W        W 6734  26.111   2.277  10.410
34475W        W 6735  12.295  14.825   4.601
34476W        W 6736  12.631   0.772  10.416
34477W        W 6737  25.995  25.612  11.009
34478W        W 6738   9.643  12.272  12.859
34479W        W 6739   4.243  44.418   2.412
34480W        W 6740  33.039   8.756   1.373
34481W        W 6741  44.832  17.165  10.475
34482W        W 6742  43.955  27.958  12.562
34483W        W 6743  25.625  20.694  13.317
34484W        W 6744   8.403  21.735  14.878
34485W        W 6745  32.011  37.961   3.377
34486W        W 6746  23.101  21.521   0.405
34487W        W 6747  42.850  24.068   0.871
34488W        W 6748  27.045   3.352  12.018
34489W        W 6749  22.050  29.516  14.953
34490W        W 6750   8.176  42.785   0.391
34491W        W 6751  36.369  42.007  12.839
34492W        W 6752  35.931  10.804  13.341
34493W        W 6753  27.112  16.190   4.724
34494W        W 6754  15.763  37.486  12.920
34495W        W 6755  35.409  39.862   3.281
34496W        W 6756  43.426   0.809  11.966
34497W        W 6757  31.414  31.081  13.850
34498W        W 6758  11.654  42.907  10.059
34499W        W 6759  11.760  27.498  14.872
34500W        W 6760  25.518  17.796  14.028
34501W        W 6761  19.148  24.662   1.758
34502W        W 6762  33.041  21.523   2.378
34503W        W 6763  22.720   3.300  14.460
34504W        W 6764   1.785  28.933  14.380
34505W        W 6765  22.055  16.216   0.384
34506W        W 6766  41.017  23.224  11.868
34507W        W 6767  24.529  36.009   1.871
34508W        W 6768  35.048  42.908   1.226
34509W        W 6769  18.283  16.579   0.399
34510W        W 6770   5.887  43.352   0.801
34511W        W 6771  20.109  18.619   0.321
34512W        W 6772  43.334  21.130  14.303
34513W        W 6773  42.337   4.940  10.585
34514W        W 6774  27.995  32.994  12.009
34515W        W 6775   6.838  31.633   3.311
34516W        W 6776  44.271  26.957   0.445
34517W        W 6777  13.302  33.125  14.278
34518W        W 6778   3.368  14.615  11.927
34519W        W 6779  44.946  29.939  13.321
34520W        W 6780   4.373  39.381  10.613
34521W        W 6781  19.712  13.274  11.958
34522W        W 6782   1.863  39.554  10.439
34523W        W 6783  37.867  38.412   0.742
34524W        W 6784  40.830  34.383   4.281
34525W        W 6785  22.996  30.148   2.867
34526W        W 6786   0.986  23.598   0.848
34527W        W 6787  10.333  28.576  10.580
34528W        W 6788   8.196  17.627   1.434
34529W        W 6789   1.452  26.628   4.688
34530W        W 6790  28.066  14.221  13.962
34531W        W 6791   2.239   8.783  13.389
34532W        W 6792   5.870  28.493  14.454
34533W        W 6793  31.501  37.898   1.865
34534W        W 6794  19.145  11.827   0.421
34535W        W 6795  19.728   8.876   0.326
34536W        W 6796  25.634  10.692  13.027
34537W        W 6797  22.600  24.045   2.237
34538W        W 6798  37.052  23.607  11.573
34539W        W 6799  26.099   7.289   3.833
34540W        W 6800   9.281  28.473   1.696
34541W        W 6801  41.421  35.064  11.033
34542W        W 6802  41.931  32.929   4.259
34543W        W 6803  22.052  12.640   1.333
34544W        W 6804  15.606  14.146   3.263
34545W        W 6805  25.587   4.776  13.914
34546W        W 6806   7.825  20.677   4.607
34547W        W 6807  26.536  15.615  13.380
34548W        W 6808  29.098  20.620   3.291
34549W        W 6809  40.398  41.038  14.795
34550W        W 6810   3.430  39.872  10.102
34551W        W 6811  19.703  34.072  11.466
34552W        W 6812  17.691   4.891  11.600
34553W        W 6813  33.945  18.233   3.785
34554W        W 6814  23.736  18.158  12.885
34555W        W 6815  25.219  37.570  13.032
34556W        W 6816   9.376  23.029   0.388
34557W        W 6817   9.666  29.107   1.275
34558W        W 6818  40.920  38.441  11.451
34559W        W 6819  32.125  27.616  11.375
34560W        W 6820  10.714   1.440  13.818
34561W        W 6821  37.940  26.494   2.296
34562W        W 6822  33.391  38.976   4.326
34563W        W 6823   6.375  11.650  11.085
34564W        W 6824  15.653  18.549   2.347
34565W        W 6825  32.027  44.943  13.954
34566W        W 6826   6.378  44.443   3.785
34567W        W 6827  29.106  21.596  14.366
34568W        W 6828  28.672   4.865   2.217
34569W        W 6829   9.741   3.787   2.193
34570W        W 6830  17.681   6.826  10.462
34571W        W 6831  14.751  28.989   4.824
34572W        W 6832  33.562  17.103   2.670
34573W        W 6833  43.476  37.995   3.294
34574W        W 6834  24.721   7.283   0.747
34575W        W 6835  15.746  10.376   2.744
34576W        W 6836  22.146   3.365  12.066
34577W        W 6837   6.419  34.890   0.444
34578W        W 6838  23.691  19.160   9.520
34579W        W 6839   2.869  13.139  12.090
34580W        W 6840  34.024   2.917  12.383
34581W        W 6841  41.317   8.764  10.451
34582W        W 6842  35.995   8.381   2.233
34583W        W 6843  17.726   5.279   2.276
34584W        W 6844  24.659  15.581  10.525
34585W        W 6845   0.248  16.113   0.311
34586W        W 6846  41.906  37.934  12.420
34587W        W 6847   7.901  24.001  14.775
34588W        W 6848  27.986  43.779  13.851
34589W        W 6849  32.564  37.059  14.284
34590W        W 6850  35.518  37.408  11.117
34591W        W 6851  19.044  11.628  12.529
34592W        W 6852  42.987  44.922   2.770
34593W        W 6853  42.861   5.420  14.972
34594W        W 6854  31.110  42.777   4.165
34595W        W 6855  30.047   1.977   3.765
34596W        W 6856  20.146  10.164  12.070
34597W        W 6857  13.245  31.953  13.993
34598W        W 6858  39.883  18.585   0.930
34599W        W 6859  28.551  26.491   0.390
34600W        W 6860  20.692  37.983  11.402
34601W        W 6861  28.543  10.634   2.277
34602W        W 6862  39.462  33.596  12.390
34603W        W 6863  30.539   8.722   0.270
34604W        W 6864  41.449  42.778   0.380
34605W        W 6865  37.935  29.958  12.971
34606W        W 6866  33.602  26.525   0.739
34607W        W 6867  12.253  23.099   4.715
34608W        W 6868   5.334  42.838   0.324
34609W        W 6869  39.056  25.531  13.433
34610W        W 6870  11.137  33.579  14.414
34611W        W 6871   9.286   3.738   0.906
34612W        W 6872  30.969  44.868  10.433
34613W        W 6873  19.676   7.364   4.804
34614W        W 6874  24.620   7.287   4.664
34615W        W 6875  22.670  39.894   2.861
34616W        W 6876  28.151  22.514   3.848
34617W        W 6877  32.946   7.230  12.080
34618W        W 6878  16.126   5.239   1.298
34619W        W 6879  33.394  26.670  14.791
34620W        W 6880  25.076  29.094  14.885
34621W        W 6881  37.561   0.382  12.399
34622W        W 6882  32.541  33.401  14.919
34623W        W 6883  41.836   4.227   4.343
34624W        W 6884  30.923   0.875  13.455
34625W        W 6885   3.296  29.167  10.484
34626W        W 6886  28.185   4.245   3.722
34627W        W 6887   8.356  13.614   4.146
34628W        W 6888  42.339  43.304  12.029
34629W        W 6889  21.733  37.385   1.922
34630W        W 6890  43.020  20.145  13.030
34631W        W 6891  30.157  14.659   0.483
34632W        W 6892   9.766  34.879  10.410
34633W        W 6893  32.038  29.132   2.838
34634W        W 6894   0.448   0.885   1.910
34635W        W 6895  39.855  37.854   3.673
34636W        W 6896  14.642  11.177  12.079
34637W        W 6897  40.896  14.218  13.416
34638W        W 6898  26.569   9.875   1.217
34639W        W 6899  34.003  40.394  11.045
34640W        W 6900  11.740  13.771  13.975
34641W        W 6901  37.494  44.500   4.181
34642W        W 6902  10.144   9.366   0.837
34643W        W 6903  33.011  22.249  13.063
34644W        W 6904  33.978  36.379   3.736
34645W        W 6905  29.424  33.880  14.971
34646W        W 6906  39.479   9.317  11.905
34647W        W 6907  31.031  19.548  12.058
34648W        W 6908  13.674  36.956   2.314
34649W        W 6909  12.747  21.156  13.908
34650W        W 6910  35.013   3.263  13.836
34651W        W 6911  17.711  37.501  10.893
34652W        W 6912  24.649  36.480   4.155
34653W        W 6913  11.191  41.032   0.267
34654W        W 6914  31.120  25.598   0.371
34655W        W 6915  12.243  44.419   4.598
34656W        W 6916  19.055  43.500   0.440
34657W        W 6917  27.174  20.225  11.944
34658W        W 6918   5.910   1.246  14.371
34659W        W 6919  42.929  13.792   3.641
34660W        W 6920   8.826   3.798   2.306
34661W        W 6921  18.276   6.711   2.306
34662W        W 6922  37.939  11.247   4.610
34663W        W 6923  33.965  24.181  13.922
34664W        W 6924  20.152  41.796  13.803
34665W        W 6925  20.554   6.352  11.117
34666W        W 6926  33.880  21.608   2.743
34667W        W 6927   4.372  30.995  12.561
34668W        W 6928  36.851  37.414   4.352
34669W        W 6929  23.669   3.820  10.615
34670W        W 6930  36.001  10.197   2.799
34671W        W 6931  36.955  31.016   1.275
34672W        W 6932  25.644   5.346   1.875
34673W        W 6933   4.390   0.784   1.218
34674W        W 6934   7.684  30.111   0.885
34675W        W 6935   9.359   6.826  12.397
34676W        W 6936  24.557  41.470  13.044
34677W        W 6937  41.000  24.062  14.973
34678W        W 6938  17.630   7.715  14.318
34679W        W 6939  42.956  34.975  14.456
34680W        W 6940  39.928  12.668  13.860
34681W        W 6941  40.420  21.673   2.370
34682W        W 6942  31.977  29.608  14.021
34683W        W 6943  22.566  10.303   2.706
34684W        W 6944  11.175  32.442   0.761
34685W        W 6945  22.009  27.962  12.953
34686W        W 6946  15.280  12.304   3.269
34687W        W 6947   0.381  20.111  11.479
34688W        W 6948  32.559   5.785   4.727
34689W        W 6949  17.754  40.345   1.257
34690W        W 6950  23.691  29.960  13.062
34691W        W 6951  42.786  40.351   3.195
34692W        W 6952  17.584  11.858   0.460
34693W        W 6953  12.796  24.525  13.534
34694W        W 6954  21.547  36.885   1.362
34695W        W 6955  36.512  41.962  11.525
34696W        W 6956  34.950  10.779   3.315
34697W        W 6957  11.849  16.145  12.550
34698W        W 6958  21.247  30.069  11.071
34699W        W 6959  13.212   1.860   1.282
34700W        W 6960  22.055  39.829  13.947
34701W        W 6961  34.992  10.178  10.145
34702W        W 6962  13.307   9.733  11.972
34703W        W 6963  42.357  32.096  13.348
34704W        W 6964  20.526  11.294  13.539
34705W        W 6965  31.463  35.512  14.800
34706W        W 6966  15.752  14.685  12.505
34707W        W 6967  38.017  35.063  13.319
34708W        W 6968  44.479  16.168   3.828
34709W        W 6969  10.312  15.214   3.669
34710W        W 6970  15.162  30.028   3.246
34711W        W 6971  29.530  16.756   2.864
34712W        W 6972  34.961   1.439  11.112
34713W        W 6973  26.107  41.833  14.851
34714W        W 6974   8.405  21.186  10.583
34715W        W 6975  37.358  13.238  14.878
34716W        W 6976  32.917  33.943   1.387
34717W        W 6977  20.258  33.480   3.300
34718W        W 6978  33.985  12.752   1.911
34719W        W 6979  27.003  10.833  13.383
34720W        W 6980  32.489  22.685   3.158
34721W        W 6981   1.247   5.392   3.327
34722W        W 6982  35.890  15.153  12.557
34723W        W 6983  40.390   3.794   3.346
34724W        W 6984  13.235  24.620   1.389
34725W        W 6985  40.376  14.768  11.863
34726W        W 6986  34.601  35.491   1.409
34727W        W 6987  38.963  29.124  11.467
34728W        W 6988  35.883  33.471   1.893
34729W        W 6989  16.254  40.835  12.063
34730W        W 6990  43.002  14.177  12.033
34731W        W 6991  22.150  24.562  12.508
34732W        W 6992  15.711  43.457   1.873
34733W        W 6993  41.314  12.276   0.347
34734W        W 6994   1.936  20.597   2.823
34735W        W 6995   1.926  29.555  13.375
34736W        W 6996   9.330  23.989   3.324
34737W        W 6997  41.870  25.006   3.206
34738W        W 6998  35.946  33.976  10.623
34739W        W 6999  30.491  33.578   1.767
34740W        W 7000  42.427  20.605  11.918
34741W        W 7001   1.407  33.452   4.753
34742W        W 7002   6.834   0.955  10.505
34743W        W 7003  38.990  26.499  14.012
34744W        W 7004   9.297   9.267   0.870
34745W        W 7005  34.464  37.893   2.671
34746W        W 7006  14.660  24.517   0.861
34747W        W 7007  27.127  40.842   3.372
34748W        W 7008  22.222  29.025  10.461
34749W        W 7009  30.924   9.200   1.377
34750W        W 7010  26.090  33.895   3.769
34751W        W 7011  12.324   3.719   0.322
34752W        W 7012  22.612  35.921   4.229
34753W        W 7013  24.184  16.806   4.166
34754W        W 7014  16.741   3.875   0.827
34755W        W 7015  23.242   0.889  13.805
34756W        W 7016  14.636  19.195   1.909
34757W        W 7017  28.516  39.007  11.946
34758W        W 7018  14.229  12.751   3.651
34759W        W 7019  11.279  29.095   0.288
34760W        W 7020  13.213  29.170   4.224
34761W        W 7021  41.001  11.292  11.962
34762W        W 7022  31.035  29.024  12.986
34763W        W 7023  21.647  28.645   1.283
34764W        W 7024   8.162  28.673   4.803
34765W        W 7025  43.987  33.576   4.628
34766W        W 7026  30.131  18.143   4.738
34767W        W 7027  36.005  32.520  13.961
34768W        W 7028  40.995   9.686  11.080
34769W        W 7029  36.889   2.297   2.747
34770W        W 7030   1.776   2.427  12.430
34771W        W 7031  23.555  21.065  12.969
34772W        W 7032   1.947  12.319   2.346
34773W        W 7033   5.256  25.988   1.849
34774W        W 7034  13.775  18.758  10.966
34775W        W 7035  20.086  41.920   3.721
34776W        W 7036   4.235  16.719   2.834
34777W        W 7037  14.737  16.805  14.286
34778W        W 7038  43.457  39.914   1.874
34779W        W 7039   0.490  36.593   0.835
34780W        W 7040   1.958  27.549   1.930
34781W        W 7041   6.802   9.845   1.891
34782W        W 7042  13.772  32.414   3.665
34783W        W 7043  11.160  23.994  11.114
34784W        W 7044  18.199  24.602  13.430
34785W        W 7045   4.296   9.305  13.035
34786W        W 7046  37.519  26.100   0.865
34787W        W 7047  33.924  21.612  11.579
34788W        W 7048  16.112  35.004   4.186
34789W        W 7049  24.082   9.706   3.341
34790W        W 7050  14.635   6.866   4.606
34791W        W 7051  41.978  34.437  12.934
34792W        W 7052  27.180  15.703  11.610
34793W        W 7053  42.480  36.431  11.508
34794W        W 7054   4.744  20.070   1.220
34795W        W 7055  16.584   3.872   4.260
34796W        W 7056  13.795   0.958   4.259
34797W        W 7057  39.527  40.022   0.946
34798W        W 7058  43.322  23.237   2.698
34799W        W 7059   9.755  34.397   1.238
34800W        W 7060  33.394  25.062  11.106
34801W        W 7061   8.259  30.634  12.419
34802W        W 7062  28.632  28.553  14.809
34803W        W 7063  36.892  18.195   4.721
34804W        W 7064   8.263  21.144   0.352
34805W        W 7065   8.178   5.389  11.558
34806W        W 7066  10.336  42.780   4.812
34807W        W 7067  10.200   5.825   4.144
34808W        W 7068   1.462  34.527  12.827
34809W        W 7069  18.162  23.718   0.323
34810W        W 7070   6.402  30.555   2.292
34811W        W 7071  25.180  24.606   0.320
34812W        W 7072   4.768  20.643  12.550
34813W        W 7073  24.005  10.262  11.380
34814W        W 7074  15.663  17.117   5.281
34815W        W 7075   7.871  41.330   1.905
34816W        W 7076   3.786  21.169   5.133
34817W        W 7077   2.377  33.050  11.497
34818W        W 7078  32.462   1.393  14.511
34819W        W 7079  32.471  14.630  13.793
34820W        W 7080  24.058  32.609   4.777
34821W        W 7081  27.678  41.527   4.753
34822W        W 7082  12.186  36.557   0.800
34823W        W 7083  15.299  29.663   5.263
34824W        W 7084   3.865  16.758  12.844
34825W        W 7085  37.036  36.009  10.454
34826W        W 7086  14.247  12.825  10.527
34827W        W 7087  39.492  28.955  14.026
34828W        W 7088  36.549  20.233   0.857
34829W        W 7089  33.574   2.841  14.888
34830W        W 7090  31.991  26.060   1.759
34831W        W 7091   8.206   3.946   2.813
34832W        W 7092  19.152  19.708  10.514
34833W        W 7093  32.023  17.159  14.301
34834W        W 7094  37.841  22.027  14.321
34835W        W 7095  24.082  28.025   3.155
34836W        W 7096  40.813  11.359  12.864
34837W        W 7097   7.821  34.513   2.348
34838W        W 7098  42.374  13.816  14.794
34839W        W 7099   9.694  39.522  13.822
34840W        W 7100  38.544  24.182   2.748
34841W        W 7101   5.768  10.825   2.895
34842W        W 7102  30.073   8.227  13.402
34843W        W 7103  18.128  27.941  14.959
34844W        W 7104   1.782   9.175   1.752
34845W        W 7105  35.494  20.728   4.351
34846W        W 7106  38.842  15.679   3.183
34847W        W 7107  31.079  19.612   0.925
34848W        W 7108  38.977  24.578  12.036
34849W        W 7109  17.070  26.460   3.823
34850W        W 7110  43.372  36.852  13.349
34851W        W 7111   4.791  25.511   3.812
34852W        W 7112   3.222  23.136   1.860
34853W        W 7113   6.295  14.266   5.236
34854W        W 7114   1.372  37.512   2.830
34855W        W 7115  41.366  19.150  13.023
34856W        W 7116  35.894  19.741   1.792
34857W        W 7117  27.551  20.604  12.487
34858W        W 7118  24.544   1.929   2.274
34859W        W 7119  31.932   4.208   2.393
34860W        W 7120   1.884  11.639  13.892
34861W        W 7121  23.150   0.470  12.423
34862W        W 7122  11.171   0.383   3.749
34863W        W 7123  25.191  34.034   3.840
34864W        W 7124  33.922   6.210   0.382
34865W        W 7125  18.587  19.547   1.772
34866W        W 7126  31.061  33.984  14.455
34867W        W 7127  17.212   1.871   0.825
34868W        W 7128  27.004  17.787   3.377
34869W        W 7129   1.887   2.464  10.900
34870W        W 7130  11.301   0.951  12.405
34871W        W 7131  14.684  43.764  14.438
34872W        W 7132   1.957  19.284  13.479
34873W        W 7133   3.873   2.800   1.231
34874W        W 7134   1.764   1.937   4.198
34875W        W 7135  28.097  37.079   2.791
34876W        W 7136  14.200   7.720  14.478
34877W        W 7137   9.859  20.679  13.480
34878W        W 7138  35.103   2.319  11.410
34879W        W 7139  17.749  39.864  11.594
34880W        W 7140  11.312  29.150   1.230
34881W        W 7141  39.867  36.849   2.265
34882W        W 7142  40.039  22.591  12.388
34883W        W 7143   6.715  26.101  11.562
34884W        W 7144  22.252  18.759  14.516
34885W        W 7145   8.234  22.593   1.727
34886W        W 7146  34.021  32.442  10.415
34887W        W 7147  43.275  44.786  13.951
34888W        W 7148   1.326  11.658   4.727
34889W        W 7149  15.288  22.035   3.208
34890W        W 7150  44.986  11.867  10.428
34891W        W 7151  19.131  21.585   2.304
34892W        W 7152  17.681  18.628   0.860
34893W        W 7153  24.120  32.963   1.923
34894W        W 7154  25.501  42.883   0.401
34895W        W 7155   7.697  40.959  13.802
34896W        W 7156  17.220  13.676   3.871
34897W        W 7157   6.884  40.838   0.357
34898W        W 7158  26.619  33.934   4.220
34899W        W 7159  33.411   8.797  12.340
34900W        W 7160  18.074   2.852  13.955
34901W        W 7161  29.484  12.272  11.911
34902W        W 7162  40.878  20.537   0.409
34903W        W 7163  11.164   8.782   1.346
34904W        W 7164  35.602  22.030  10.619
34905W        W 7165   2.754  32.981  10.451
34906W        W 7166  42.409  35.538   0.764
34907W        W 7167  39.361  32.596  11.481
34908W        W 7168  29.470  32.902   2.312
34909W        W 7169   2.357   2.430  10.527
34910W        W 7170  12.731   0.349  11.008
34911W        W 7171  26.171  31.929   3.332
34912W        W 7172  13.779  23.513  14.451
34913W        W 7173   6.807  36.998  14.966
34914W        W 7174  36.998  34.397  13.339
34915W        W 7175  10.299  22.610  13.376
34916W        W 7176  27.091   0.798   3.247
34917W        W 7177  36.027  37.387   5.169
34918W        W 7178  27.587  12.835   2.247
34919W        W 7179   5.214  32.445  14.414
34920W        W 7180  11.691  15.812  14.845
34921W        W 7181  14.771  43.864   0.262
34922W        W 7182   5.284  24.096   2.676
34923W        W 7183  10.677  25.204   3.868
34924W        W 7184  24.543   8.863  14.336
34925W        W 7185  23.521   9.184   0.732
34926W        W 7186  15.813  21.527  11.867
34927W        W 7187  39.834  33.445  11.448
34928W        W 7188   1.778   5.800  14.950
34929W        W 7189  16.169  27.992   4.636
34930W        W 7190  29.434  17.637  13.850
34931W        W 7191   3.817  26.190  14.830
34932W        W 7192  34.500  26.635   4.617
34933W        W 7193  27.130  35.379  10.575
34934W        W 7194  22.725  14.804  14.325
34935W        W 7195  41.930   3.830   3.271
34936W        W 7196  36.477  36.534   0.470
34937W        W 7197  43.768  37.398  14.420
34938W        W 7198   2.406  33.931  10.905
34939W        W 7199  11.182  25.678   2.339
34940W        W 7200  36.555   1.427  14.483
34941W        W 7201  34.590  40.481  13.800
34942W        W 7202  30.086  15.255   2.887
34943W        W 7203  39.489  35.914   4.806
34944W        W 7204  15.108  10.382   3.768
34945W        W 7205  22.508  22.560  11.112
34946W        W 7206  18.106  19.119  12.991
34947W        W 7207  15.314  35.903   4.626
34948W        W 7208  37.445  44.803  10.905
34949W        W 7209  32.047  14.801   3.190
34950W        W 7210  25.138  34.599   3.273
34951W        W 7211  11.708   8.657  14.437
34952W        W 7212   1.269  11.236  14.932
34953W        W 7213  34.586  36.555  13.030
34954W        W 7214  24.186  18.073   0.862
34955W        W 7215   1.849  14.280   4.334
34956W        W 7216  30.529  25.710  13.483
34957W        W 7217   8.739  28.637   0.449
34958W        W 7218   9.289  18.057  10.527
34959W        W 7219  30.151  21.191  14.961
34960W        W 7220  13.264  33.121   4.283
34961W        W 7221   8.779  42.383   3.196
34962W        W 7222  20.038  36.921   3.154
34963W        W 7223  10.321   1.327   1.264
34964W        W 7224  34.481  21.083  12.032
34965W        W 7225  19.239   8.794  11.024
34966W        W 7226  42.297  26.063   1.221
34967W        W 7227   9.771  41.496  13.909
34968W        W 7228   0.966  37.920   4.725
34969W        W 7229  39.862  22.052  13.988
34970W        W 7230  20.243  38.970  10.926
34971W        W 7231  10.802  32.029   3.247
34972W        W 7232   3.310  25.687   4.603
34973W        W 7233  44.459  40.530  13.487
34974W        W 7234  11.324  26.557   3.208
34975W        W 7235  32.901  23.150   2.259
34976W        W 7236  25.047   8.711   1.736
34977W        W 7237  30.445  29.125   3.658
34978W        W 7238  30.532  25.500   2.813
34979W        W 7239  28.049  26.105   2.236
34980W        W 7240   4.729  25.142   2.740
34981W        W 7241  19.277  25.150  10.512
34982W        W 7242  12.747  33.008  11.437
34983W        W 7243  41.313   4.744  11.471
34984W        W 7244  40.466  25.983   0.272
34985W        W 7245  30.618   7.249  10.593
34986W        W 7246  44.363  44.813   1.908
34987W        W 7247  16.770  16.266  13.517
34988W        W 7248  38.069  14.652   3.309
34989W        W 7249   7.179   8.333   4.678
34990W        W 7250  43.816  20.758  14.474
34991W        W 7251   8.209  30.522  10.483
34992W        W 7252   0.939  33.590  12.500
34993W        W 7253  29.947  10.209  12.092
34994W        W 7254  42.024  21.043   0.794
34995W        W 7255  16.624   6.778  10.409
34996W        W 7256  25.643  39.407  11.438
34997W        W 7257  32.938  25.068  11.590
34998W        W 7258  43.494   5.783  13.420
34999W        W 7259  27.105  34.054  11.564
35000W        W 7260   5.399  38.377   0.289
35001W        W 7261  31.440  20.547   4.203
35002W        W 7262  41.975  40.393  11.379
35003W        W 7263   6.796  19.539  13.308
35004W        W 7264  10.842  19.081  14.282
35005W        W 7265  12.321  29.660   4.776
35006W        W 7266   4.367  33.902  14.332
35007W        W 7267  31.417  31.597   2.868
35008W        W 7268  32.568  39.351   0.407
35009W        W 7269   1.757   3.861  11.544
35010W        W 7270  34.451  39.462   2.682
35011W        W 7271  15.097  34.467  13.373
35012W        W 7272   0.846  24.650  13.848
35013W        W 7273  14.590  35.475  11.612
35014W        W 7274  33.511  22.632   5.113
35015W        W 7275  15.583   6.784  14.793
35016W        W 7276   3.880  12.800   0.451
35017W        W 7277  18.104  20.546   2.737
35018W        W 7278  33.123  35.928  13.460
35019W        W 7279  28.946  24.193  12.409
35020W        W 7280   5.386   5.871   0.894
35021W        W 7281  40.528  30.590  14.930
35022W        W 7282  29.924  40.908  11.885
35023W        W 7283   5.379  16.588  11.544
35024W        W 7284  13.621  17.177   3.850
35025W        W 7285   7.818  24.987   1.857
35026W        W 7286  13.156  10.707   2.686
35027W        W 7287  41.798  23.636  14.783
35028W        W 7288   2.384  11.283  11.901
35029W        W 7289  40.035  40.843  13.325
35030W        W 7290  41.325  40.913   0.782
35031W        W 7291  44.797   1.431  11.532
35032W        W 7292  13.168  40.513  11.517
35033W        W 7293   4.204   2.255  12.553
35034W        W 7294  41.346  14.186  12.978
35035W        W 7295  26.148  42.802  13.844
35036W        W 7296  28.581  14.629   3.275
35037W        W 7297  44.754  44.819  14.859
35038W        W 7298  26.159  23.088  13.006
35039W        W 7299  31.142  17.184   4.283
35040W        W 7300  11.148  30.080   2.678
35041W        W 7301  35.912   6.915  10.963
35042W        W 7302  32.517  42.833  13.966
35043W        W 7303  14.220  33.110  12.498
35044W        W 7304  21.745   5.282  10.581
35045W        W 7305  10.199  28.632  14.994
35046W        W 7306  38.371   4.260   0.268
35047W        W 7307  44.393  10.649  10.599
35048W        W 7308  29.563  17.161   2.417
35049W        W 7309  18.233   8.791   4.178
35050W        W 7310  34.462  10.636   3.661
35051W        W 7311   2.870   6.705  12.386
35052W        W 7312   3.821  32.418  11.922
35053W        W 7313  27.605  32.928  10.946
35054W        W 7314  30.658  42.310  11.510
35055W        W 7315  39.540  39.966  13.481
35056W        W 7316  42.378  24.636   4.702
35057W        W 7317  33.409   7.312   1.840
35058W        W 7318  15.798  20.272   3.215
35059W        W 7319  16.145  24.615  12.904
35060W        W 7320  17.267  22.200  14.364
35061W        W 7321  37.903  27.044  11.560
35062W        W 7322  27.516  35.383   1.332
35063W        W 7323   0.780  13.844  13.398
35064W        W 7324  10.635  37.084  11.937
35065W        W 7325  37.901  23.722  14.319
35066W        W 7326  25.127  17.085   1.364
35067W        W 7327  32.957  37.394  11.551
35068W        W 7328  42.892  20.237  12.478
35069W        W 7329   7.695   8.263  10.448
35070W        W 7330  36.379  15.259  11.990
35071W        W 7331  36.885  38.889   0.347
35072W        W 7332  43.493  37.883   4.721
35073W        W 7333  39.016   0.794   3.282
35074W        W 7334  44.367  41.956   3.646
35075W        W 7335  22.746  30.624  14.981
35076W        W 7336  23.114  27.058   0.892
35077W        W 7337  34.462  40.911  12.542
35078W        W 7338  20.182  24.022  14.825
35079W        W 7339  11.286  36.477  13.915
35080W        W 7340  42.284  39.808  13.044
35081W        W 7341   9.378  41.452   2.683
35082W        W 7342   2.942  11.792  11.423
35083W        W 7343  37.559  17.713   2.400
35084W        W 7344  40.512   1.883  13.058
35085W        W 7345  28.441  36.086  12.022
35086W        W 7346   8.333  27.529   2.869
35087W        W 7347  15.299   9.869  10.577
35088W        W 7348  29.521  12.120  12.868
35089W        W 7349  29.062  24.089  11.391
35090W        W 7350  38.442   3.858   3.180
35091W        W 7351  41.385   1.847  11.545
35092W        W 7352  38.418  11.326  13.513
35093W        W 7353  34.519  12.654   4.612
35094W        W 7354  21.188  30.964  12.420
35095W        W 7355   4.903  34.527   2.400
35096W        W 7356  42.974  13.759   2.317
35097W        W 7357   5.882   4.909   0.822
35098W        W 7358  19.597  42.789   1.378
35099W        W 7359   7.272  12.645   0.733
35100W        W 7360   0.772  28.448  10.496
35101W        W 7361  17.304  40.339  10.432
35102W        W 7362  29.096  37.392  13.323
35103W        W 7363  12.743  33.046  14.768
35104W        W 7364  37.968   6.337  11.883
35105W        W 7365   4.704  28.934  12.418
35106W        W 7366  38.024   8.728  14.430
35107W        W 7367   7.290  43.791   3.347
35108W        W 7368   2.456  31.627  13.426
35109W        W 7369  39.980  28.505   4.622
35110W        W 7370  23.060   6.696  11.605
35111W        W 7371  35.976  34.508   2.196
35112W        W 7372  23.067  38.329  13.475
35113W        W 7373  17.068  21.120   2.233
35114W        W 7374  27.066  15.297   3.216
35115W        W 7375   9.678  39.491   0.431
35116W        W 7376  18.095  44.433   3.789
35117W        W 7377  44.409  38.041   3.257
35118W        W 7378  44.478  15.749   4.266
35119W        W 7379  26.490  39.418  11.009
35120W        W 7380  39.912  13.219   1.438
35121W        W 7381   9.189  25.119  14.924
35122W        W 7382  38.021  35.944  10.551
35123W        W 7383   0.454  39.009  12.909
35124W        W 7384  11.730  44.445   1.704
35125W        W 7385   9.291   2.426   4.320
35126W        W 7386  16.161  44.949   1.924
35127W        W 7387  18.694  33.124  11.999
35128W        W 7388  26.184   1.438  12.452
35129W        W 7389   2.849  15.821  11.444
35130W        W 7390  15.603  35.931   4.156
35131W        W 7391  16.722  36.912  12.079
35132W        W 7392  40.383  35.585  12.873
35133W        W 7393  31.516  17.105   0.933
35134W        W 7394  38.415  26.617   3.772
35135W        W 7395  44.365  20.177  14.776
35136W        W 7396  30.651  43.830  13.351
35137W        W 7397  31.591   5.878   0.278
35138W        W 7398   7.279   6.702   0.796
35139W        W 7399  40.845  28.590  13.940
35140W        W 7400  20.707  19.578   5.630
35141W        W 7401   1.390  32.620  12.974
35142W        W 7402   7.391  43.951  14.468
35143W        W 7403   7.261  26.614  13.330
35144W        W 7404  15.730  23.566   3.152
35145W        W 7405   3.398  30.579  10.910
35146W        W 7406  20.147  36.556  11.092
35147W        W 7407  34.434  11.303  14.355
35148W        W 7408  42.929  43.280   5.142
35149W        W 7409  39.416   3.773   4.284
35150W        W 7410  33.895  36.544  11.441
35151W        W 7411  29.637  40.429  13.480
35152W        W 7412  23.046  14.130  13.799
35153W        W 7413  25.614  18.051   0.286
35154W        W 7414  16.601   9.871   4.836
35155W        W 7415  26.193  41.906  12.965
35156W        W 7416   6.378   0.937  13.891
35157W        W 7417  17.191   5.238  11.577
35158W        W 7418  13.748  22.236  11.521
35159W        W 7419  11.656  17.196   4.345
35160W        W 7420   9.694  43.363  13.336
35161W        W 7421  31.616   8.668   1.437
35162W        W 7422   5.851   2.837   2.268
35163W        W 7423  17.130  33.027   4.675
35164W        W 7424  11.738   9.389  13.432
35165W        W 7425  42.952  36.989  10.406
35166W        W 7426  29.646   5.702   0.931
35167W        W 7427  20.154  44.875   0.804
35168W        W 7428  38.904  25.645   3.792
35169W        W 7429   2.789  14.626   1.927
35170W        W 7430  12.168  28.162  11.978
35171W        W 7431  42.441  22.724  14.319
35172W        W 7432  20.676   7.792   1.278
35173W        W 7433  14.769  10.256  14.325
35174W        W 7434  38.836   5.292   1.709
35175W        W 7435  19.723  23.986  11.946
35176W        W 7436  23.542  36.388   2.350
35177W        W 7437   1.365   9.365   3.745
35178W        W 7438  43.807  13.740   3.365
35179W        W 7439  20.093  12.824   0.948
35180W        W 7440  18.687  33.581   1.849
35181W        W 7441  41.449   8.796  12.053
35182W        W 7442  43.834  12.730  13.959
35183W        W 7443  17.648   7.201  13.949
35184W        W 7444  10.731  24.102  11.569
35185W        W 7445  12.128  10.175   1.372
35186W        W 7446  42.813  37.853   0.455
35187W        W 7447  41.355  39.544   4.824
35188W        W 7448   6.389  35.555  13.938
35189W        W 7449  22.153  23.623  13.849
35190W        W 7450   3.423  40.307   5.193
35191W        W 7451  20.696   9.781   0.303
35192W        W 7452  11.340  15.215   1.409
35193W        W 7453  27.548  31.129   1.415
35194W        W 7454   3.736  11.671   2.277
35195W        W 7455  43.777   1.947   2.336
35196W        W 7456  38.470  12.191   1.268
35197W        W 7457  25.193   7.855  11.075
35198W        W 7458  28.154  31.517   4.639
35199W        W 7459  28.555  14.717   0.244
35200W        W 7460   0.337  39.014  14.934
35201W        W 7461  15.122  23.568  11.075
35202W        W 7462  14.111  14.590  12.956
35203W        W 7463  12.349  36.010  13.024
35204W        W 7464  25.091  42.992   1.744
35205W        W 7465   4.214   2.939  11.543
35206W        W 7466   5.702  25.525   4.157
35207W        W 7467  40.506  17.226  12.573
35208W        W 7468  14.127   0.457   1.258
35209W        W 7469  15.593  42.942   3.668
35210W        W 7470  36.540  15.610  12.027
35211W        W 7471  23.677  22.729   2.843
35212W        W 7472  27.150  39.374  12.898
35213W        W 7473  28.594  13.674   3.787
35214W        W 7474  21.111  28.679  14.970
35215W        W 7475   9.196  38.488   2.404
35216W        W 7476  19.559   5.772  11.604
35217W        W 7477  35.516  34.372   2.702
35218W        W 7478  19.732  16.794  13.908
35219W        W 7479  35.438  23.014   2.306
35220W        W 7480   5.823  21.082   4.810
35221W        W 7481   6.777  35.925  12.922
35222W        W 7482   1.877  25.031  14.944
35223W        W 7483  14.213   6.310  14.987
35224W        W 7484  35.109   3.242  11.899
35225W        W 7485  32.582  34.865   2.778
35226W        W 7486  27.525  34.463   0.308
35227W        W 7487  22.127   2.261   3.756
35228W        W 7488  28.595   0.352  10.513
35229W        W 7489  44.438   2.785  10.079
35230W        W 7490  20.175   2.457  14.456
35231W        W 7491  23.567  28.997  11.472
35232W        W 7492  33.038  39.809  12.921
35233W        W 7493   7.723   1.862  12.575
35234W        W 7494  40.472  40.464   0.948
35235W        W 7495  27.657   0.403   2.314
35236W        W 7496  42.467  28.177   3.258
35237W        W 7497  20.262  34.424  10.586
35238W        W 7498  21.637   8.749   0.357
35239W        W 7499  34.878  39.537   2.383
35240W        W 7500  38.016   7.803   0.759
35241W        W 7501  19.120  25.672  14.419
35242W        W 7502  31.032  28.470  13.373
35243W        W 7503  40.529  43.997   0.369
35244W        W 7504  43.311  35.537   2.181
35245W        W 7505  14.313  21.524   4.280
35246W        W 7506  22.220  35.364  12.072
35247W        W 7507   1.242  44.370  10.996
35248W        W 7508  20.046   7.800   2.803
35249W        W 7509   2.229  37.390   2.816
35250W        W 7510  15.728  12.690  13.425
35251W        W 7511  25.523  22.075   2.250
35252W        W 7512  16.776  43.350  14.001
35253W        W 7513  41.349  26.525   1.371
35254W        W 7514  21.076   6.747   2.312
35255W        W 7515   8.763  21.703   0.420
35256W        W 7516  12.248   6.389   3.835
35257W        W 7517  11.276   7.398  10.933
35258W        W 7518  28.450  19.239   3.186
35259W        W 7519  43.836  39.499   0.752
35260W        W 7520   6.396   6.383   4.318
35261W        W 7521  30.956   7.223   4.791
35262W        W 7522   6.905  36.558   1.334
35263W        W 7523  11.864   4.741   0.809
35264W        W 7524   4.444  43.506   2.217
35265W        W 7525  26.998   4.295   3.369
35266W        W 7526  12.298  41.955  14.881
35267W        W 7527  32.013  35.015   0.358
35268W        W 7528  10.657   0.973   1.800
35269W        W 7529  31.046  32.418   2.796
35270W        W 7530  44.873  11.261  12.427
35271W        W 7531  17.194   9.889   0.461
35272W        W 7532  39.403  37.961   1.347
35273W        W 7533  28.604  39.016  13.828
35274W        W 7534  42.387   7.854  11.040
35275W        W 7535   1.834  10.787  13.019
35276W        W 7536  35.426  39.811   4.337
35277W        W 7537  20.610  19.741  13.516
35278W        W 7538  40.034  40.861   1.407
35279W        W 7539   5.804  44.001   1.770
35280W        W 7540  44.948  22.698   1.736
35281W        W 7541  21.105  30.632   3.822
35282W        W 7542  32.559  27.581   0.350
35283W        W 7543  29.946  19.706  12.890
35284W        W 7544  42.322   0.446  12.883
35285W        W 7545  27.984  24.187   1.406
35286W        W 7546  38.953   8.281   4.622
35287W        W 7547  38.959  27.461  14.341
35288W        W 7548   7.904  42.942   3.757
35289W        W 7549  33.527  11.769   0.901
35290W        W 7550  44.869  24.682  14.882
35291W        W 7551  32.439  36.047   3.812
35292W        W 7552  41.985  26.667   4.741
35293W        W 7553  42.972  22.233  12.060
35294W        W 7554  23.651  13.250  14.821
35295W        W 7555   0.879  28.665  14.285
35296W        W 7556  17.788  31.042  14.843
35297W        W 7557  44.263  36.422   4.789
35298W        W 7558  32.894  26.693  10.491
35299W        W 7559   5.804  31.537  11.542
35300W        W 7560  40.055  16.303  12.563
35301W        W 7561   8.822  16.716  11.374
35302W        W 7562   7.800  23.023   0.862
35303W        W 7563  36.503   6.888  14.829
35304W        W 7564  11.325  27.957   4.138
35305W        W 7565  19.697  41.501  10.948
35306W        W 7566  41.531   1.316  11.388
35307W        W 7567  12.846  17.105  12.863
35308W        W 7568   9.645  31.127  13.843
35309W        W 7569  15.702  20.689   1.420
35310W        W 7570   0.481  35.900  10.928
35311W        W 7571  21.050  44.355   0.924
35312W        W 7572  29.487  24.985   4.335
35313W        W 7573  11.736   9.391   2.202
35314W        W 7574  15.164  18.698  13.918
35315W        W 7575   2.841  18.143  10.412
35316W        W 7576  31.057   2.432  11.886
35317W        W 7577   4.314  36.453  13.539
35318W        W 7578  42.485  25.543  11.421
35319W        W 7579   3.927  15.265   0.808
35320W        W 7580  33.070   3.928  13.503
35321W        W 7581  39.975   5.721  12.030
35322W        W 7582  38.384  15.672   4.769
35323W        W 7583  29.650  12.675  12.358
35324W        W 7584  24.591  30.927   0.438
35325W        W 7585   0.912   6.834   4.268
35326W        W 7586  15.127   0.294   1.425
35327W        W 7587   2.811  17.640   1.819
35328W        W 7588  18.689  38.445   0.432
35329W        W 7589  41.405  16.304  13.827
35330W        W 7590  33.518  42.950  14.998
35331W        W 7591  42.852  15.654  14.477
35332W        W 7592   4.248  10.362  10.423
35333W        W 7593  30.028  12.727   3.702
35334W        W 7594  28.008  24.538   0.405
35335W        W 7595   2.880   4.349   2.724
35336W        W 7596  10.236  44.922   1.348
35337W        W 7597   5.811  30.420   3.843
35338W        W 7598  40.991  27.656   1.877
35339W        W 7599  32.395  22.180   4.780
35340W        W 7600  29.528   2.850   4.685
35341W        W 7601  34.893  27.619  12.395
35342W        W 7602  37.838  12.715  11.565
35343W        W 7603   7.862  33.603  13.904
35344W        W 7604  24.697  42.971   2.873
35345W        W 7605   1.382  33.080   0.746
35346W        W 7606  26.458  20.163  14.414
35347W        W 7607   3.331  29.989  14.939
35348W        W 7608  14.286  16.756   5.189
35349W        W 7609  25.598  15.695   3.378
35350W        W 7610  11.325  21.664   3.349
35351W        W 7611  12.144  33.119   2.773
35352W        W 7612  22.093  19.607   0.391
35353W        W 7613  31.597  11.258  10.611
35354W        W 7614  31.081   7.834   0.349
35355W        W 7615   4.249   9.854  11.874
35356W        W 7616  11.839  27.063   0.385
35357W        W 7617  39.813  15.094  14.943
35358W        W 7618   3.309  22.595  13.427
35359W        W 7619  25.487   0.369  11.076
35360W        W 7620  32.507   9.355   3.206
35361W        W 7621   4.434  19.159   0.359
35362W        W 7622  38.076  14.242   1.214
35363W        W 7623  31.543  22.634  12.941
35364W        W 7624  23.072  44.812   3.761
35365W        W 7625  35.548   8.743  10.443
35366W        W 7626  34.479   7.304  13.928
35367W        W 7627  39.811  17.112   4.619
35368W        W 7628   9.668  17.195  10.532
35369W        W 7629  15.772  28.467  12.541
35370W        W 7630  30.610  20.269   4.275
35371W        W 7631  16.576   8.852  13.841
35372W        W 7632  15.226  25.685   1.345
35373W        W 7633  31.046  27.159  13.933
35374W        W 7634  27.112  22.668   0.832
35375W        W 7635   6.695  22.518  14.964
35376W        W 7636   2.312  29.997  10.516
35377W        W 7637  38.820  35.089   0.344
35378W        W 7638   4.297   5.435  12.431
35379W        W 7639  28.520  23.150   1.915
35380W        W 7640   8.218  11.658   4.775
35381W        W 7641   5.895  32.487   4.273
35382W        W 7642  42.441  10.379  10.986
35383W        W 7643   6.916  36.049   4.816
35384W        W 7644  43.838  38.074   1.722
35385W        W 7645   4.711  14.280   4.118
35386W        W 7646  29.612  21.257   4.279
35387W        W 7647  29.643  18.100  12.935
35388W        W 7648  22.685  17.253  13.911
35389W        W 7649  42.968  41.889   1.264
35390W        W 7650  34.580   3.263  13.384
35391W        W 7651  43.439  44.394   9.943
35392W        W 7652  25.473  41.387  12.044
35393W        W 7653   1.910  10.251   2.718
35394W        W 7654  43.932  18.666   1.271
35395W        W 7655  39.385  29.961   3.169
35396W        W 7656   9.876  33.384   3.238
35397W        W 7657  28.997  18.290  14.308
35398W        W 7658  26.120  27.159   2.364
35399W        W 7659  20.132  27.588  11.408
35400W        W 7660  30.043  14.330   0.433
35401W        W 7661  29.500   7.815   0.400
35402W        W 7662  32.460  36.931   1.312
35403W        W 7663  32.919  29.555  10.918
35404W        W 7664  37.839  32.477  10.616
35405W        W 7665  37.432  43.292   4.619
35406W        W 7666  11.820  30.998  14.859
35407W        W 7667  33.060  42.959   2.827
35408W        W 7668   0.270   5.890  11.517
35409W        W 7669  25.099  39.371   4.166
35410W        W 7670  11.255  28.081  12.982
35411W        W 7671  36.083   4.771   0.832
35412W        W 7672  40.803   1.762   1.906
35413W        W 7673  23.019  33.895   0.792
35414W        W 7674  28.069   1.792  12.526
35415W        W 7675   0.962  10.358   0.261
35416W        W 7676   3.792  16.609  11.887
35417W        W 7677  12.283  16.591  12.826
35418W        W 7678  11.362  41.825   0.930
35419W        W 7679  17.189  17.273  13.362
35420W        W 7680   4.791   2.350  11.940
35421W        W 7681  14.219  31.999  14.032
35422W        W 7682  42.424  35.042  13.518
35423W        W 7683  12.669  41.852  14.849
35424W        W 7684   6.231  37.407  13.535
35425W        W 7685  19.736  23.160   4.242
35426W        W 7686  14.595  13.213   0.303
35427W        W 7687  13.643  18.686   4.739
35428W        W 7688  11.155  27.499   0.310
35429W        W 7689  24.603  15.690   4.199
35430W        W 7690   8.862   3.440  14.325
35431W        W 7691  20.138  38.834   1.809
35432W        W 7692  44.851  21.152   2.852
35433W        W 7693  32.456   6.266  14.976
35434W        W 7694  28.029  35.474   4.619
35435W        W 7695   3.223  28.013  11.031
35436W        W 7696  29.032  37.554  14.283
35437W        W 7697  12.696  42.402   3.656
35438W        W 7698  16.789  41.967   4.286
35439W        W 7699  33.440  18.160   1.700
35440W        W 7700  13.221  13.240   2.730
35441W        W 7701   7.805  19.703  10.636
35442W        W 7702  11.194  11.339   0.937
35443W        W 7703  44.320  14.264   2.180
35444W        W 7704  31.971  23.021  10.980
35445W        W 7705  39.505  38.964  10.474
35446W        W 7706  39.508  11.149  13.993
35447W        W 7707  23.228  19.063  13.027
35448W        W 7708  12.748  18.290   2.900
35449W        W 7709   6.915  43.915   4.315
35450W        W 7710  28.602  41.524  10.440
35451W        W 7711  25.479  33.515  13.840
35452W        W 7712   9.210  27.045   3.213
35453W        W 7713  40.955   1.903   3.760
35454W        W 7714  40.544  19.627   9.971
35455W        W 7715  27.031   7.239   1.905
35456W        W 7716  27.151  39.060   3.300
35457W        W 7717  15.203  15.820  12.032
35458W        W 7718  20.734   2.397   4.830
35459W        W 7719  32.014   1.433  10.515
35460W        W 7720  12.671  19.185  11.026
35461W        W 7721  37.536   8.184  11.059
35462W        W 7722  38.482  35.377  10.437
35463W        W 7723  11.866  19.191  11.942
35464W        W 7724  26.990  17.274   0.946
35465W        W 7725  14.097  26.083  11.923
35466W        W 7726  18.154   0.985  14.408
35467W        W 7727   2.956  37.563  13.852
35468W        W 7728  40.440  43.946  10.920
35469W        W 7729  43.476  42.979   0.800
35470W        W 7730  38.451   8.188  10.117
35471W        W 7731  34.052   0.756   1.744
35472W        W 7732  26.116  20.593  11.406
35473W        W 7733  27.502  14.153   3.379
35474W        W 7734   5.281  11.856   2.310
35475W        W 7735  24.680  26.601  14.355
35476W        W 7736  30.974   6.245  14.369
35477W        W 7737  26.996   7.361   1.431
35478W        W 7738  26.990  25.670   4.180
35479W        W 7739   9.769  23.139   4.238
35480W        W 7740  23.501  24.554  13.491
35481W        W 7741  15.202  14.598   5.776
35482W        W 7742   9.305  39.921   0.455
35483W        W 7743   0.301   6.381   0.881
35484W        W 7744  44.787  19.742  14.377
35485W        W 7745  28.107  23.068   1.336
35486W        W 7746  28.021  32.086  12.016
35487W        W 7747  31.019  10.240   4.192
35488W        W 7748  30.042  21.655   3.282
35489W        W 7749  30.642  34.581   2.676
35490W        W 7750  35.481  34.516  11.959
35491W        W 7751  10.275  22.546  14.928
35492W        W 7752  42.430   1.426  10.409
35493W        W 7753  27.953  41.972  12.875
35494W        W 7754  22.115  23.657   2.870
35495W        W 7755  28.569  42.950  14.014
35496W        W 7756  24.692   8.375   3.310
35497W        W 7757   9.762   1.279   3.856
35498W        W 7758  26.962  25.605   4.695
35499W        W 7759  33.950  20.658   9.506
35500W        W 7760   3.806   7.704   0.474
35501W        W 7761  23.534  32.543  10.443
35502W        W 7762  18.199   0.365   1.427
35503W        W 7763  42.837  34.607  12.005
35504W        W 7764  16.714  20.206   3.381
35505W        W 7765  23.992  43.384   4.728
35506W        W 7766   2.942  37.998  14.458
35507W        W 7767  23.182  32.454   3.800
35508W        W 7768   6.844  41.464  10.904
35509W        W 7769  28.677  15.751  12.397
35510W        W 7770  41.839  31.044  12.839
35511W        W 7771  43.955   0.794  13.935
35512W        W 7772  39.317   8.780   5.208
35513W        W 7773  22.672  15.762  12.988
35514W        W 7774  14.751  25.063   1.785
35515W        W 7775   0.838  21.560  13.319
35516W        W 7776  19.607  36.557   1.771
35517W        W 7777  26.951  13.635   1.220
35518W        W 7778  39.543  38.949  10.979
35519W        W 7779  27.548  42.019  13.877
35520W        W 7780  31.927  20.049  12.465
35521W        W 7781   3.456  32.426   3.699
35522W        W 7782   2.450  39.920   3.831
35523W        W 7783  19.775  30.970  14.943
35524W        W 7784  43.394   2.870  13.499
35525W        W 7785  25.574  30.489  14.455
35526W        W 7786  20.183   1.896   1.343
35527W        W 7787  14.675   7.709  14.298
35528W        W 7788  18.100  27.002   4.158
35529W        W 7789  34.380  10.271   4.339
35530W        W 7790  37.578  14.147  13.013
35531W        W 7791   6.800   6.313  14.874
35532W        W 7792  34.447   0.950  14.405
35533W        W 7793   5.330  40.370   4.215
35534W        W 7794  21.591  28.447   2.844
35535W        W 7795   7.172   8.704  11.032
35536W        W 7796  16.680  31.903  14.444
35537W        W 7797  13.608  32.443   2.757
35538W        W 7798  33.031  12.804   1.282
35539W        W 7799  21.061  39.034  14.021
35540W        W 7800  10.878  37.967   0.906
35541W        W 7801  22.162   8.861  11.962
35542W        W 7802  17.236  22.131  10.612
35543W        W 7803  27.156  44.844   4.796
35544W        W 7804  24.994  35.004   4.661
35545W        W 7805   6.906   2.920   2.678
35546W        W 7806  29.943  16.715  11.937
35547W        W 7807   6.885  21.532   4.811
35548W        W 7808  12.661   8.899  10.506
35549W        W 7809  27.983  10.803   0.272
35550W        W 7810  44.505   0.295   5.272
35551W        W 7811   8.360  23.186   1.245
35552W        W 7812  36.422  14.102  11.036
35553W        W 7813  35.457  29.003   3.149
35554W        W 7814   2.261  24.625   4.176
35555W        W 7815  27.175  27.186  10.556
35556W        W 7816  27.186   5.792  12.935
35557W        W 7817  34.455  31.134  10.471
35558W        W 7818  14.230  44.359   5.248
35559W        W 7819  22.698  13.769   0.313
35560W        W 7820  39.950  36.031   3.849
35561W        W 7821  30.977  14.835   1.714
35562W        W 7822  35.363  38.474   3.788
35563W        W 7823  37.870  42.392  12.864
35564W        W 7824  29.512  29.134   1.771
35565W        W 7825  15.114  43.334   1.384
35566W        W 7826  39.905  25.153   3.821
35567W        W 7827  25.511  26.126   4.749
35568W        W 7828  14.676   0.750   2.225
35569W        W 7829  21.561  14.211  12.368
35570W        W 7830  20.611  41.912  13.366
35571W        W 7831  34.113  25.707  10.519
35572W        W 7832  12.155  25.533  11.938
35573W        W 7833  23.129  44.504   2.835
35574W        W 7834  14.148  40.882   4.803
35575W        W 7835  39.920  13.119  11.862
35576W        W 7836  24.628  26.961   3.854
35577W        W 7837  31.085  31.408  10.623
35578W        W 7838  33.413  41.319   3.763
35579W        W 7839   0.379  33.071   1.312
35580W        W 7840  43.306  38.991  13.378
35581W        W 7841  30.975   1.889  13.479
35582W        W 7842  13.116  24.146  14.923
35583W        W 7843  35.040  37.863  11.390
35584W        W 7844  31.426   6.716  12.360
35585W        W 7845  25.976  28.132  12.383
35586W        W 7846  44.474  44.819   0.952
35587W        W 7847   7.376  28.616   4.130
35588W        W 7848  34.457  19.098  10.565
35589W        W 7849  24.500  30.617  13.824
35590W        W 7850  37.353  12.666  14.938
35591W        W 7851   0.949  24.518  11.941
35592W        W 7852  19.546  24.512  14.455
35593W        W 7853  36.902  16.266  13.463
35594W        W 7854   2.243  14.280   0.924
35595W        W 7855   6.238  19.191  11.466
35596W        W 7856   0.867  19.643  11.382
35597W        W 7857  38.480  19.742  10.595
35598W        W 7858  43.287  44.482   2.903
35599W        W 7859   9.735  43.426  12.450
35600W        W 7860   1.766  18.675   1.781
35601W        W 7861   1.312  10.142   0.935
35602W        W 7862  41.912  23.511   0.334
35603W        W 7863  33.984  30.536   1.437
35604W        W 7864  36.872  41.486  10.431
35605W        W 7865  10.350   3.322  12.970
35606W        W 7866  39.346  15.192  13.973
35607W        W 7867  23.721  43.461  10.623
35608W        W 7868   4.908  22.046   0.797
35609W        W 7869  25.525  44.855  10.454
35610W        W 7870  10.740  32.553   2.318
35611W        W 7871  30.520  15.700   0.481
35612W        W 7872   0.259   6.274   1.256
35613W        W 7873  24.482  14.179  14.867
35614W        W 7874  42.321   5.344  13.825
35615W        W 7875  43.908  25.561  10.565
35616W        W 7876  26.636  18.729  12.446
35617W        W 7877  36.398  38.074   3.215
35618W        W 7878   8.253  36.409   1.879
35619W        W 7879  12.179  29.459  10.058
35620W        W 7880  31.913   2.362   0.297
35621W        W 7881  20.253  10.690  13.484
35622W        W 7882   8.733   1.967  10.935
35623W        W 7883  18.789  41.369   4.282
35624W        W 7884   3.397  31.052   5.137
35625W        W 7885  39.374  13.289  11.399
35626W        W 7886  11.332  31.049  11.556
35627W        W 7887  42.447  14.685  13.336
35628W        W 7888  20.576  12.614   1.307
35629W        W 7889  24.231  30.044   2.209
35630W        W 7890  23.095  18.632  13.809
35631W        W 7891  17.800  21.219   1.872
35632W        W 7892  15.175   2.779  12.360
35633W        W 7893   3.358  34.877   0.843
35634W        W 7894  18.548  31.607  11.093
35635W        W 7895  14.594  35.007  12.043
35636W        W 7896  23.632  32.514   1.431
35637W        W 7897  27.562  11.745   3.698
35638W        W 7898  27.595  43.296   2.695
35639W        W 7899  17.556  10.827   3.704
35640W        W 7900  20.174  21.084  13.957
35641W        W 7901  39.553  23.231  12.394
35642W        W 7902  21.040  43.422  11.119
35643W        W 7903  42.374  17.161  14.483
35644W        W 7904  31.506   8.192   2.193
35645W        W 7905  20.725   0.359   0.447
35646W        W 7906  38.932  18.590   3.788
35647W        W 7907  33.489  30.436   4.316
35648W        W 7908  35.538  10.299  11.864
35649W        W 7909  10.676  27.959  11.027
35650W        W 7910  10.771  44.920   4.735
35651W        W 7911  32.579  17.659   0.257
35652W        W 7912  19.536  42.940  11.454
35653W        W 7913  42.933  30.126  11.067
35654W        W 7914  31.050   8.813   4.760
35655W        W 7915  22.624  13.186  12.910
35656W        W 7916  17.289  42.442   1.343
35657W        W 7917  38.841  40.886  11.446
35658W        W 7918  37.042   1.896   1.752
35659W        W 7919  29.597  16.661   4.239
35660W        W 7920  11.147  30.498  11.509
35661W        W 7921  44.259  16.765  12.936
35662W        W 7922  11.631  42.021  12.871
35663W        W 7923  35.360  29.970  13.505
35664W        W 7924  10.252   8.859  12.936
35665W        W 7925  35.878   3.233  14.307
35666W        W 7926   5.361  19.780   1.297
35667W        W 7927  17.619  34.100  13.493
35668W        W 7928  26.193  23.497   2.717
35669W        W 7929  41.487   6.867   1.446
35670W        W 7930   2.398  33.026   3.644
35671W        W 7931  31.977  28.669  12.438
35672W        W 7932  39.061   6.355  13.928
35673W        W 7933  12.350   1.370  12.972
35674W        W 7934  21.673  38.484  10.562
35675W        W 7935  15.734   7.908   0.894
35676W        W 7936  44.309  13.663  14.789
35677W        W 7937  31.085  24.489  14.932
35678W        W 7938  16.284  28.066   2.288
35679W        W 7939  31.468  33.580  14.313
35680W        W 7940  12.274  28.443   1.374
35681W        W 7941  22.199  32.437  13.463
35682W        W 7942   4.765   3.753  11.481
35683W        W 7943   8.895  29.442   4.742
35684W        W 7944  25.004  33.040  12.934
35685W        W 7945  10.174  24.981   3.842
35686W        W 7946   2.358  41.990   2.693
35687W        W 7947   4.448  22.657   3.733
35688W        W 7948  17.155  13.159  11.864
35689W        W 7949  18.678  22.092  13.982
35690W        W 7950   7.682  15.652  14.496
35691W        W 7951  14.157  44.008   3.188
35692W        W 7952  35.398   3.461   2.281
35693W        W 7953  42.868  20.719   4.116
35694W        W 7954  34.988  39.439  13.799
35695W        W 7955  29.063  34.003  13.526
35696W        W 7956  41.007  36.019   0.942
35697W        W 7957  14.224  27.130   4.311
35698W        W 7958  38.350  26.554  12.017
35699W        W 7959  30.483  34.895   0.263
35700W        W 7960  18.649  29.577   4.191
35701W        W 7961  28.650  31.954   0.456
35702W        W 7962  39.003   1.876  11.052
35703W        W 7963  33.087  35.061   2.897
35704W        W 7964  18.583   8.859  13.841
35705W        W 7965   3.828  29.488   2.298
35706W        W 7966  40.036  27.540   2.178
35707W        W 7967  40.394   0.300  12.043
35708W        W 7968  18.644  40.812  12.553
35709W        W 7969  27.015  38.478  11.077
35710W        W 7970  28.437  21.711  12.486
35711W        W 7971  38.858  35.054   1.764
35712W        W 7972  38.525  27.113  10.983
35713W        W 7973  31.917  26.200  13.443
35714W        W 7974   6.899  31.547  12.980
35715W        W 7975  28.134  15.176  10.072
35716W        W 7976   3.216  40.460   1.838
35717W        W 7977   0.300  17.247   1.882
35718W        W 7978  27.677  28.058  14.474
35719W        W 7979   8.795  31.568   3.778
35720W        W 7980  31.133  18.553   4.713
35721W        W 7981  21.144  29.099  13.325
35722W        W 7982  34.415  27.192   4.698
35723W        W 7983  31.958  10.831  11.051
35724W        W 7984  19.047  27.616   2.208
35725W        W 7985  33.401  29.044  11.106
35726W        W 7986  36.567  10.831   0.789
35727W        W 7987  13.322  38.535  14.297
35728W        W 7988  33.018   8.399   2.729
35729W        W 7989  18.767  36.852  12.514
35730W        W 7990  14.749   2.792   1.839
35731W        W 7991  28.004  21.080   1.246
35732W        W 7992   3.377  27.639   0.847
35733W        W 7993   9.687  18.605   3.725
35734W        W 7994  16.590  42.399   0.325
35735W        W 7995  44.308  21.628   0.376
35736W        W 7996  26.960  30.028   0.837
35737W        W 7997  15.326  17.756  13.838
35738W        W 7998  36.515  20.555   0.368
35739W        W 7999  40.972  18.628  10.956
35740W        W 8000   5.848  26.133  11.054
35741W        W 8001  33.890   9.743  13.491
35742W        W 8002  33.920   3.237   2.859
35743W        W 8003  34.882  28.559   0.780
35744W        W 8004  40.016  24.010   4.822
35745W        W 8005   2.808  14.189   2.697
35746W        W 8006   4.346  21.521  11.899
35747W        W 8007  20.550   5.817   2.871
35748W        W 8008  36.083  30.076  10.428
35749W        W 8009   3.818  24.565  12.411
35750W        W 8010  34.411   0.987   4.741
35751W        W 8011  34.389  25.971   1.766
35752W        W 8012  19.212  26.204   2.419
35753W        W 8013  33.395  34.050   1.402
35754W        W 8014  36.901  17.737   4.676
35755W        W 8015  20.618  29.038   3.246
35756W        W 8016  18.661   5.794   2.197
35757W        W 8017   8.378  44.495  10.432
35758W        W 8018  22.040  10.727  13.432
35759W        W 8019   4.879   5.395  14.938
35760W        W 8020  43.328  17.616   3.235
35761W        W 8021  14.702  20.138   3.823
35762W        W 8022  23.023  37.000   1.733
35763W        W 8023  42.832  43.002   1.254
35764W        W 8024  29.484  34.563   2.368
35765W        W 8025  16.284  34.425   4.636
35766W        W 8026  16.802   6.186   1.764
35767W        W 8027  43.942  16.247  11.935
35768W        W 8028   6.399  13.760  11.974
35769W        W 8029  25.596   9.215   1.427
35770W        W 8030  30.581  18.627  10.523
35771W        W 8031   6.411  33.618   2.290
35772W        W 8032   4.884   9.750   3.817
35773W        W 8033  31.955  32.458   3.353
35774W        W 8034  26.191  13.197   2.854
35775W        W 8035   1.762   2.916   0.463
35776W        W 8036  36.513  14.138  12.535
35777W        W 8037  24.171   3.285  11.603
35778W        W 8038  16.237  36.540   0.892
35779W        W 8039  37.001  10.688   2.702
35780W        W 8040   8.676  42.447  12.352
35781W        W 8041  13.224  33.606   9.982
35782W        W 8042  23.098  15.616  10.052
35783W        W 8043  10.314  42.497   0.288
35784W        W 8044  38.898  33.986   2.257
35785W        W 8045  29.443   5.783   4.759
35786W        W 8046  17.782  35.417  12.382
35787W        W 8047  15.222   7.788   4.625
35788W        W 8048  32.076  37.969  14.345
35789W        W 8049  38.451  41.516   3.639
35790W        W 8050  19.252  38.420  11.079
35791W        W 8051   5.740  12.207   0.397
35792W        W 8052  14.644  11.730   3.849
35793W        W 8053   1.245  41.325  12.537
35794W        W 8054  10.328  11.336   2.668
35795W        W 8055  22.700  39.425  13.345
35796W        W 8056   5.380   6.749   3.165
35797W        W 8057  31.455   4.382   3.245
35798W        W 8058  44.332  28.541   2.254
35799W        W 8059  44.342  19.220   2.712
35800W        W 8060  40.998  40.465  10.621
35801W        W 8061  25.092  13.827   3.854
35802W        W 8062   6.393  38.981  10.091
35803W        W 8063  30.039  26.162  14.813
35804W        W 8064  32.466  15.266   4.640
35805W        W 8065   8.405  13.659  12.339
35806W        W 8066  19.580  40.837   1.899
35807W        W 8067   1.434   1.411   4.614
35808W        W 8068  15.190  44.440   0.399
35809W        W 8069  21.679  33.564   0.264
35810W        W 8070  26.088  36.870   0.417
35811W        W 8071  19.068  23.018  13.831
35812W        W 8072  14.303  40.843   2.796
35813W        W 8073   9.807  33.881  14.430
35814W        W 8074   4.407  20.152  13.952
35815W        W 8075  12.342  32.489   1.794
35816W        W 8076  32.012  39.025  14.401
35817W        W 8077  43.400  21.543  11.107
35818W        W 8078  26.533  13.214   4.178
35819W        W 8079  18.175  30.465  10.943
35820W        W 8080  24.183  40.844   0.781
35821W        W 8081  34.002  40.481  13.375
35822W        W 8082   2.449  26.468  11.553
35823W        W 8083  25.079  31.515  14.931
35824W        W 8084  24.025   9.792   2.193
35825W        W 8085  34.879  29.948  11.988
35826W        W 8086  30.496   5.783   0.892
35827W        W 8087  14.229  16.584   1.730
35828W        W 8088   1.915  29.621   4.805
35829W        W 8089  43.006  31.087  12.953
35830W        W 8090  18.749  10.216  10.460
35831W        W 8091  10.182   4.826  11.412
35832W        W 8092   5.923  26.062  10.496
35833W        W 8093  38.831  17.115  14.455
35834W        W 8094  18.770  11.166  11.382
35835W        W 8095   6.306  31.590  11.025
35836W        W 8096   1.877  19.756   0.735
35837W        W 8097   5.833  26.660  14.989
35838W        W 8098  20.155  16.796  14.923
35839W        W 8099  18.604  23.126   1.240
35840W        W 8100  15.238   0.815   2.748
35841W        W 8101  37.851   3.834   3.360
35842W        W 8102   3.945  12.736  13.394
35843W        W 8103   3.868  29.077  13.431
35844W        W 8104  38.877   6.867   3.697
35845W        W 8105  32.428  24.587   2.811
35846W        W 8106  36.364  20.730  12.393
35847W        W 8107  35.876  34.017   3.791
35848W        W 8108  41.461   2.774  11.968
35849W        W 8109  15.134  33.022   1.864
35850W        W 8110  24.064  11.210  14.773
35851W        W 8111  19.551  16.598   0.773
35852W        W 8112  16.088  32.963   3.744
35853W        W 8113  25.218   4.383  11.073
35854W        W 8114   8.789  32.433  11.126
35855W        W 8115   2.359  17.105   0.908
35856W        W 8116  24.541  24.558   4.290
35857W        W 8117   3.459  17.592   2.711
35858W        W 8118  23.234   4.770   4.728
35859W        W 8119  26.063   1.321   3.845
35860W        W 8120  31.591  23.505  13.363
35861W        W 8121  39.440  23.016   4.255
35862W        W 8122  21.600  21.245   9.979
35863W        W 8123  36.376   9.853   0.244
35864W        W 8124  40.042  26.189   4.725
35865W        W 8125  27.015  28.135  11.612
35866W        W 8126  29.036  30.436   0.386
35867W        W 8127  10.698  18.706  12.955
35868W        W 8128  30.070  12.361   3.192
35869W        W 8129  25.066  18.287  11.587
35870W        W 8130  39.809   1.418   4.745
35871W        W 8131  35.537  39.958   3.837
35872W        W 8132  10.312  33.416  11.881
35873W        W 8133  24.490  32.079   0.362
35874W        W 8134  18.242  21.030   2.836
35875W        W 8135  17.225  42.506  14.482
35876W        W 8136  20.763  18.601  14.357
35877W        W 8137  21.571   4.419  13.475
35878W        W 8138   5.254  22.116   0.345
35879W        W 8139  37.838  17.623   1.212
35880W        W 8140  27.514  35.451  11.386
35881W        W 8141  12.737  34.119   4.150
35882W        W 8142  32.068  25.596  13.401
35883W        W 8143  22.625  44.400  14.831
35884W        W 8144  43.362  19.113  14.298
35885W        W 8145  28.485  35.006  10.535
35886W        W 8146  44.339  37.054  13.825
35887W        W 8147  29.018  13.804  10.538
35888W        W 8148  18.104   9.875  12.491
35889W        W 8149  14.234   5.823  11.548
35890W        W 8150   2.810  12.306  14.926
35891W        W 8151   8.725   5.344   3.790
35892W        W 8152  20.649  31.610   2.857
35893W        W 8153   7.377  42.012   0.386
35894W        W 8154  14.137  19.575  11.980
35895W        W 8155  44.999  31.115  12.917
35896W        W 8156  34.092  19.694   0.915
35897W        W 8157  31.123  11.736   3.378
35898W        W 8158  38.518   9.185  10.629
35899W        W 8159  20.039  18.142   4.171
35900W        W 8160   4.781  42.835  10.496
35901W        W 8161  22.171  30.048  14.982
35902W        W 8162  20.717  18.161  11.548
35903W        W 8163  41.015  30.123  13.442
35904W        W 8164   9.706  26.149   0.739
35905W        W 8165  36.575  28.036  11.954
35906W        W 8166  36.414  23.497  14.912
35907W        W 8167  19.724  37.389  12.044
35908W        W 8168  29.998   2.436   4.632
35909W        W 8169  42.360   2.927   3.340
35910W        W 8170  38.474  11.696   0.872
35911W        W 8171  29.606  36.418  13.988
35912W        W 8172  35.021  37.413   1.761
35913W        W 8173   8.239  32.529  13.891
35914W        W 8174   0.954  20.533  13.941
35915W        W 8175  36.932  43.982  13.394
35916W        W 8176   2.827   0.927  11.390
35917W        W 8177  32.049   5.755   0.463
35918W        W 8178  36.540  40.950  13.843
35919W        W 8179  40.997   0.391   2.693
35920W        W 8180  37.896   4.330   2.845
35921W        W 8181  20.224  41.401  12.004
35922W        W 8182  33.479  23.141   2.363
35923W        W 8183   2.811  11.372  12.525
35924W        W 8184  15.136  26.694  11.408
35925W        W 8185   0.286   6.399  12.580
35926W        W 8186  27.588  38.326  12.059
35927W        W 8187  35.070  29.024   2.824
35928W        W 8188  38.422   8.799  11.528
35929W        W 8189  38.065   9.295   1.246
35930W        W 8190  37.941  10.663   0.369
35931W        W 8191   7.691  26.123  11.901
35932W        W 8192  11.129  28.512   1.862
35933W        W 8193  11.259  22.237  12.462
35934W        W 8194  31.080  37.992   2.665
35935W        W 8195   1.310  26.676   0.258
35936W        W 8196   5.249  19.558  11.003
35937W        W 8197  31.599  28.643   4.193
35938W        W 8198  44.935  32.635   3.763
35939W        W 8199  33.986  15.138   0.253
35940W        W 8200  19.123  43.470  12.417
35941W        W 8201  12.178  37.999  14.909
35942W        W 8202   1.322  30.516  14.382
35943W        W 8203   9.232  30.049  10.984
35944W        W 8204  19.048  40.005   4.799
35945W        W 8205  44.995  42.870   3.745
35946W        W 8206  12.308  23.520   0.785
35947W        W 8207  36.537  33.602  14.009
35948W        W 8208   0.842  34.515  14.345
35949W        W 8209   8.719  24.146  14.004
35950W        W 8210  27.634   6.706  13.488
35951W        W 8211  20.546  21.528   5.734
35952W        W 8212  27.556   9.350   4.725
35953W        W 8213  35.912  23.133   2.877
35954W        W 8214   7.332  36.440   1.411
35955W        W 8215  25.477  22.677  14.457
35956W        W 8216  25.571  32.555   1.381
35957W        W 8217  28.520   4.418   4.823
35958W        W 8218  24.215  13.771  11.904
35959W        W 8219  29.591  32.408   2.301
35960W        W 8220  11.155  22.537  11.410
35961W        W 8221  30.130  18.058  13.497
35962W        W 8222   5.688  14.340  10.591
35963W        W 8223  44.469  17.303  11.857
35964W        W 8224  20.129  36.377  11.586
35965W        W 8225   2.405   5.853  13.516
35966W        W 8226   0.938   4.368  11.117
35967W        W 8227  24.679  43.403   1.878
35968W        W 8228  36.095   8.214  13.058
35969W        W 8229   7.280  13.820   3.383
35970W        W 8230  29.954  21.242   4.706
35971W        W 8231   7.204  38.958   0.476
35972W        W 8232  42.925   3.913  11.482
35973W        W 8233  30.640  14.125   0.802
35974W        W 8234  38.465  10.832   2.308
35975W        W 8235   5.375  28.055  13.954
35976W        W 8236   0.291  36.849   1.789
35977W        W 8237  21.035  37.359  11.100
35978W        W 8238  20.259  26.618  14.412
35979W        W 8239  25.085  43.918   3.218
35980W        W 8240  29.034  39.430   4.196
35981W        W 8241  23.069  11.748   1.268
35982W        W 8242  44.470  30.965   3.838
35983W        W 8243  28.053  21.731  13.832
35984W        W 8244  21.207  12.643   2.409
35985W        W 8245  13.260   1.320   4.151
35986W        W 8246  21.623  41.503   3.177
35987W        W 8247  16.798  33.118   3.353
35988W        W 8248  36.012  26.666  13.465
35989W        W 8249  11.632  22.043   1.447
35990W        W 8250  42.929  40.812  13.489
35991W        W 8251  30.968  27.518  12.977
35992W        W 8252   7.840  31.937   3.788
35993W        W 8253  33.011  31.935  14.979
35994W        W 8254  42.860   8.302  12.096
35995W        W 8255  22.022  31.056   2.684
35996W        W 8256  33.382   4.753  11.010
35997W        W 8257  16.753  19.215   0.422
35998W        W 8258  17.106  15.279  13.380
35999W        W 8259   9.814  31.547   2.752
36000W        W 8260  13.790   5.419   4.120
36001W        W 8261  21.097   1.433  10.546
36002W        W 8262  14.757  18.679   0.384
36003W        W 8263   0.927  24.527  13.039
36004W        W 8264  15.822  27.012  14.398
36005W        W 8265  21.588  11.813   4.812
36006W        W 8266   8.659  22.093   4.719
36007W        W 8267  31.458  17.656  14.020
36008W        W 8268  15.688  10.637  10.548
36009W        W 8269  21.237   1.880  12.834
36010W        W 8270  38.394  42.947   1.223
36011W        W 8271   7.377   6.189  13.521
36012W        W 8272   7.669  33.488  13.442
36013W        W 8273  36.010  15.768  14.902
36014W        W 8274  34.953  41.822  10.441
36015W        W 8275  44.305   7.900   3.702
36016W        W 8276   4.877  26.993  13.053
36017W        W 8277  35.058   7.186  10.519
36018W        W 8278  17.723  26.040  12.473
36019W        W 8279  36.849  40.462   0.803
36020W        W 8280  12.696  32.465   1.353
36021W        W 8281  17.719  18.719   1.316
36022W        W 8282  12.345   4.237  13.017
36023W        W 8283   4.919  22.197  11.877
36024W        W 8284  38.481   6.384   0.391
36025W        W 8285  19.732   8.844   1.845
36026W        W 8286  43.367  33.104  12.013
36027W        W 8287   0.491  37.054   4.617
36028W        W 8288  24.706  25.506   4.198
36029W        W 8289  35.096  20.753   9.540
36030W        W 8290   3.840  25.517  11.586
36031W        W 8291  38.428  20.064   2.666
36032W        W 8292  20.227   3.946   4.144
36033W        W 8293  42.340   8.875  10.993
36034W        W 8294  10.878   2.289  11.521
36035W        W 8295  16.724  19.736  13.498
36036W        W 8296  42.365   5.372   3.775
36037W        W 8297  16.254  22.630   2.843
36038W        W 8298   3.299  13.719   3.334
36039W        W 8299  37.427  26.514   3.863
36040W        W 8300   9.282  14.655   4.598
36041W        W 8301  29.942  19.635  13.911
36042W        W 8302  35.062  28.660   2.297
36043W        W 8303  13.207  42.982   2.842
36044W        W 8304  17.611   1.937  13.534
36045W        W 8305  21.668   4.825   1.800
36046W        W 8306   8.821  41.484   0.833
36047W        W 8307  13.201  12.793  13.548
36048W        W 8308  18.693  34.908  14.804
36049W        W 8309   5.222  21.653   2.306
36050W        W 8310  15.668  13.255  10.901
36051W        W 8311  26.605   5.852  13.334
36052W        W 8312  27.551   7.218  14.799
36053W        W 8313   5.761   1.306   3.208
36054W        W 8314  27.561  38.017   4.330
36055W        W 8315  18.235  25.493   0.248
36056W        W 8316  23.178   1.886   2.865
36057W        W 8317  36.944  22.056   1.399
36058W        W 8318  25.490  33.562  11.964
36059W        W 8319  33.027  18.274   4.703
36060W        W 8320  22.599  28.602   1.932
36061W        W 8321   7.293  24.695   1.856
36062W        W 8322   8.664  29.078  12.910
36063W        W 8323  20.674  30.614  14.354
36064W        W 8324  14.810  16.110  12.993
36065W        W 8325  10.216  35.518  12.875
36066W        W 8326  41.490  31.510  12.454
36067W        W 8327  27.601  23.230  14.781
36068W        W 8328  23.660   7.202  11.009
36069W        W 8329  32.535  25.673   1.428
36070W        W 8330  33.527  36.000   0.432
36071W        W 8331  14.267   4.762   2.300
36072W        W 8332  14.588  29.066   0.368
36073W        W 8333  24.998  37.555  11.869
36074W        W 8334  36.893  11.256   3.163
36075W        W 8335  19.187  20.763   1.830
36076W        W 8336  31.969  10.192  14.467
36077W        W 8337  23.716  12.618   0.280
36078W        W 8338  11.276   6.311   1.382
36079W        W 8339  25.184  11.131  14.364
36080W        W 8340  42.445  22.649  13.329
36081W        W 8341  12.274  13.844   4.320
36082W        W 8342   9.735  14.696   2.859
36083W        W 8343   2.350  29.999   0.479
36084W        W 8344  27.495  39.396  12.026
36085W        W 8345  28.047   6.904  14.302
36086W        W 8346  16.783  35.027   3.244
36087W        W 8347  43.779  38.047   0.785
36088W        W 8348  20.182  41.473   1.330
36089W        W 8349  41.358  27.658  14.826
36090W        W 8350  38.387  15.770   1.769
36091W        W 8351  11.806  34.021   4.701
36092W        W 8352   5.342  25.061  12.519
36093W        W 8353   6.252  27.679  10.408
36094W        W 8354  35.095   9.363   4.169
36095W        W 8355  28.173  42.461   3.643
36096W        W 8356  20.186  14.734  11.009
36097W        W 8357  27.963  21.243   9.998
36098W        W 8358  17.611  18.652  13.320
36099W        W 8359   9.736  42.298   3.195
36100W        W 8360  13.190  11.705   2.318
36101W        W 8361  41.980  14.208  13.325
36102W        W 8362  37.453  41.528  10.588
36103W        W 8363   2.785   0.485   1.773
36104W        W 8364  13.302  12.673  14.898
36105W        W 8365   1.963   2.836  11.492
36106W        W 8366  37.396  16.597   3.330
36107W        W 8367  12.308  28.059  14.404
36108W        W 8368   3.914  34.959   3.661
36109W        W 8369   9.306  17.752  12.026
36110W        W 8370  23.084  41.484   2.704
36111W        W 8371  15.181  13.759  11.916
36112W        W 8372   2.802  11.257   0.808
36113W        W 8373  44.456  28.979   4.769
36114W        W 8374  15.274  17.180   1.317
36115W        W 8375  15.299  36.885   1.394
36116W        W 8376  40.332  25.080   4.294
36117W        W 8377  44.928  18.050  11.607
36118W        W 8378  13.331   5.235  12.422
36119W        W 8379  15.261  39.529   4.829
36120W        W 8380  38.376  41.498  10.446
36121W        W 8381  21.071  36.040   3.385
36122W        W 8382  27.963  23.175   2.335
36123W        W 8383  28.024  35.599   0.779
36124W        W 8384  42.308  32.491  13.821
36125W        W 8385   6.253  36.074   0.471
36126W        W 8386  10.375  43.357  11.601
36127W        W 8387  25.557  35.597   1.761
36128W        W 8388  36.579  25.133   1.311
36129W        W 8389  44.295  15.296  12.073
36130W        W 8390  43.497  15.748   1.734
36131W        W 8391  27.020   6.774  13.390
36132W        W 8392   9.385  34.032   1.818
36133W        W 8393  43.330  13.640   0.381
36134W        W 8394  42.807   5.798  11.484
36135W        W 8395  12.816  11.180   3.303
36136W        W 8396  24.168  41.936   4.308
36137W        W 8397  29.985  16.567  10.929
36138W        W 8398  36.588  17.792  13.929
36139W        W 8399  24.037  15.760   1.400
36140W        W 8400  33.044  36.925   4.290
36141W        W 8401  32.130  20.732  12.534
36142W        W 8402  23.629  15.250   0.286
36143W        W 8403   0.840   3.221  12.572
36144W        W 8404  40.043  29.921  13.312
36145W        W 8405  36.016   2.252   4.675
36146W        W 8406  36.028  36.855  11.563
36147W        W 8407  12.315  35.397  13.359
36148W        W 8408  33.089  19.143   4.301
36149W        W 8409  31.502   4.857  14.887
36150W        W 8410  28.025   6.736   2.879
36151W        W 8411  39.896   9.356  14.851
36152W        W 8412   1.749  15.765  11.099
36153W        W 8413  16.784  39.989  10.612
36154W        W 8414  14.770  11.290   3.206
36155W        W 8415  16.770  12.268  13.863
36156W        W 8416  14.188  17.605   1.417
36157W        W 8417  17.619  38.059   4.343
36158W        W 8418  39.940  34.530   4.188
36159W        W 8419   0.418  37.460   3.237
36160W        W 8420  10.183  19.078  10.625
36161W        W 8421   5.698   9.862  11.905
36162W        W 8422   3.839  12.784   1.424
36163W        W 8423  20.625  42.960   3.151
36164W        W 8424   3.772  18.219  13.997
36165W        W 8425  42.354  39.490   4.243
36166W        W 8426  41.445  16.168  11.920
36167W        W 8427  40.939  31.960  11.988
36168W        W 8428   5.288  19.558  11.514
36169W        W 8429  42.381  20.669   1.218
36170W        W 8430  23.518  13.213  12.914
36171W        W 8431  24.006   1.844   4.143
36172W        W 8432  30.972  30.047   9.922
36173W        W 8433  10.699  12.151  14.374
36174W        W 8434  15.204  20.155   1.426
36175W        W 8435  15.106  20.226   2.901
36176W        W 8436  15.721  11.803  11.990
36177W        W 8437   7.364   6.694   3.341
36178W        W 8438  22.721  22.636  14.406
36179W        W 8439   5.891  31.074  14.865
36180W        W 8440   2.881  26.622   1.358
36181W        W 8441  18.764   8.221   0.321
36182W        W 8442  26.545  12.185   0.917
36183W        W 8443   7.715  10.264  10.951
36184W        W 8444   7.862   8.189  14.010
36185W        W 8445  15.750  44.332  13.896
36186W        W 8446  17.268   4.938   1.273
36187W        W 8447   6.852   5.802   3.175
36188W        W 8448  44.857   6.327  13.041
36189W        W 8449   5.807  35.906  12.503
36190W        W 8450  32.092  41.438   0.797
36191W        W 8451  12.328  42.468   2.801
36192W        W 8452  18.609  40.461   0.388
36193W        W 8453  41.975   2.278  14.493
36194W        W 8454  29.004  23.674   4.824
36195W        W 8455  18.203  11.358  14.990
36196W        W 8456  28.623  29.998   0.836
36197W        W 8457  11.769  20.739   4.615
36198W        W 8458   9.774  40.302  14.816
36199W        W 8459  25.134   6.276   5.096
36200W        W 8460  15.203  35.974   0.964
36201W        W 8461   0.870  38.568   4.312
36202W        W 8462  34.409  30.022  13.472
36203W        W 8463  30.946  23.711  14.010
36204W        W 8464   9.795  17.073  14.802
36205W        W 8465  42.777   1.480   2.202
36206W        W 8466  21.212  15.632  13.494
36207W        W 8467  42.474  27.627  11.975
36208W        W 8468  31.979   3.369  14.395
36209W        W 8469  14.672  17.214  12.917
36210W        W 8470  23.650  10.203   2.754
36211W        W 8471  37.375  41.011   4.680
36212W        W 8472  22.546  28.648   4.337
36213W        W 8473  17.276  19.159   0.809
36214W        W 8474  23.224  20.746  12.068
36215W        W 8475  17.189   6.860  13.814
36216W        W 8476   2.736  12.817  13.856
36217W        W 8477  31.051   0.250   4.171
36218W        W 8478  40.877  23.071  13.873
36219W        W 8479  19.223   8.836  14.835
36220W        W 8480  13.681  41.397   4.628
36221W        W 8481  36.050   0.301  13.001
36222W        W 8482  26.551  41.836   0.260
36223W        W 8483  11.691   3.739  14.469
36224W        W 8484  20.269  38.949   4.172
36225W        W 8485   8.282  20.127   1.384
36226W        W 8486   4.840   7.798  10.956
36227W        W 8487  27.626  28.439  10.972
36228W        W 8488   5.830  39.514  11.487
36229W        W 8489  25.535   1.406   2.349
36230W        W 8490  13.225  23.234   1.397
36231W        W 8491  34.093  10.163  11.472
36232W        W 8492   1.252  20.679   1.757
36233W        W 8493  30.067  21.150   2.332
36234W        W 8494  38.444  41.819   1.844
36235W        W 8495   7.332  15.631   3.242
36236W        W 8496  41.003  41.386   1.286
36237W        W 8497  37.394  18.712   4.189
36238W        W 8498  24.637  16.091  11.884
36239W        W 8499  26.571  44.848   2.836
36240W        W 8500   7.416  36.002   3.868
36241W        W 8501   0.955  41.359  11.433
36242W        W 8502  32.922  11.260  14.484
36243W        W 8503  39.473   4.715   1.735
36244W        W 8504  34.879  44.785  12.869
36245W        W 8505  22.508   6.221  10.517
36246W        W 8506  35.971  37.339   3.633
36247W        W 8507  25.536  25.195  13.861
36248W        W 8508  22.593  21.600   4.604
36249W        W 8509  27.680  22.647   4.761
36250W        W 8510  14.677  30.529  11.988
36251W        W 8511  22.716   9.812   4.711
36252W        W 8512  25.091  29.571  12.079
36253W        W 8513  16.653  20.132  11.606
36254W        W 8514  31.123   6.893   4.710
36255W        W 8515   8.783   5.274  11.456
36256W        W 8516  40.814   3.433   1.741
36257W        W 8517  18.176  11.645  10.637
36258W        W 8518  29.962  31.449   1.765
36259W        W 8519   5.796  35.922  11.946
36260W        W 8520  43.446  15.796   0.756
36261W        W 8521  38.991  40.976  13.419
36262W        W 8522   3.746  22.564  10.557
36263W        W 8523  22.506  41.793  13.348
36264W        W 8524  34.415  32.064   1.783
36265W        W 8525  42.399  38.363   1.391
36266W        W 8526  34.384   9.329   1.907
36267W        W 8527  42.390  28.535  10.638
36268W        W 8528   7.686  15.105   2.720
36269W        W 8529  36.437  32.044   0.799
36270W        W 8530   4.745  16.661  10.934
36271W        W 8531  39.997  18.234  11.092
36272W        W 8532  32.575  17.781  12.464
36273W        W 8533   9.829  27.475   2.201
36274W        W 8534   4.912  27.008   0.278
36275W        W 8535  43.985  29.061   4.757
36276W        W 8536  24.596   2.830  11.478
36277W        W 8537  26.548   5.194   0.469
36278W        W 8538  36.980  29.058  13.834
36279W        W 8539   8.182  11.838  11.454
36280W        W 8540  41.499  40.416  10.956
36281W        W 8541  11.187  22.694  13.850
36282W        W 8542  14.337  24.144   0.349
36283W        W 8543  34.579   7.368   1.761
36284W        W 8544  30.621  41.998   3.254
36285W        W 8545  24.488  37.026   4.753
36286W        W 8546  15.114  16.295   9.579
36287W        W 8547  15.110  12.786   1.768
36288W        W 8548  24.581  35.566  11.097
36289W        W 8549  38.939  31.630  10.500
36290W        W 8550   4.867   2.825   1.920
36291W        W 8551   3.799  44.992   0.470
36292W        W 8552  39.045  24.001  14.493
36293W        W 8553  24.057  21.734  13.897
36294W        W 8554  12.351  23.045  12.081
36295W        W 8555   1.799  25.540   2.667
36296W        W 8556   0.975  27.157   3.792
36297W        W 8557   4.405  33.543   4.638
36298W        W 8558   3.415  26.541   3.299
36299W        W 8559   4.254   2.899   3.365
36300W        W 8560   1.460   8.198   0.251
36301W        W 8561  17.223  35.863   0.430
36302W        W 8562  35.942  31.073  12.990
36303W        W 8563  24.169  44.315  12.074
36304W        W 8564  36.580   7.300  10.930
36305W        W 8565   4.853   9.149  10.935
36306W        W 8566  20.617  23.679  12.402
36307W        W 8567   8.225  18.153   1.370
36308W        W 8568  37.885  11.179  12.550
36309W        W 8569  16.627  17.779   1.389
36310W        W 8570  29.036   4.716   2.347
36311W        W 8571  29.652   5.848   2.847
36312W        W 8572   5.702   4.720   3.777
36313W        W 8573  13.316   0.892   2.365
36314W        W 8574  26.010  44.979   2.903
36315W        W 8575  40.377  41.301   2.663
36316W        W 8576  13.188  34.495   0.893
36317W        W 8577  24.218  29.926   1.333
36318W        W 8578   9.765  28.149  12.900
36319W        W 8579   5.806  21.540   1.444
36320W        W 8580  21.105  21.612   0.784
36321W        W 8581  31.493  10.741  12.843
36322W        W 8582  13.286  20.144   2.700
36323W        W 8583  42.775  21.212  13.364
36324W        W 8584  26.151  23.684  13.959
36325W        W 8585  33.910  21.618   0.247
36326W        W 8586  20.081  25.699  14.885
36327W        W 8587  22.101  28.158  13.944
36328W        W 8588   3.324   5.790  12.406
36329W        W 8589   8.209   2.782   1.848
36330W        W 8590   0.379  16.118   3.660
36331W        W 8591  10.723   6.873   2.220
36332W        W 8592  38.544  23.092  12.428
36333W        W 8593  17.260  38.485   4.259
36334W        W 8594  40.518  25.553  12.003
36335W        W 8595  17.706  41.016  11.120
36336W        W 8596  25.685  26.652   3.281
36337W        W 8597   8.765  34.984   1.744
36338W        W 8598  22.543  26.203  13.361
36339W        W 8599  15.733  43.408  12.538
36340W        W 8600  37.883   3.841  14.499
36341W        W 8601   9.274  31.011  14.339
36342W        W 8602   0.772  33.883   0.352
36343W        W 8603  29.524  12.297   4.240
36344W        W 8604  14.736  17.573   0.809
36345W        W 8605  24.134  42.973   2.385
36346W        W 8606  43.996  15.601   5.277
36347W        W 8607  14.812  41.003  13.312
36348W        W 8608   4.208  35.941   1.338
36349W        W 8609  14.698  15.102  11.526
36350W        W 8610  32.012  10.247   0.265
36351W        W 8611   6.690  30.141   4.782
36352W        W 8612   3.835  18.118  11.438
36353W        W 8613  40.962   6.818   4.293
36354W        W 8614  18.163   7.319   1.325
36355W        W 8615  26.191  27.191  13.935
36356W        W 8616  21.649  23.086   2.680
36357W        W 8617  26.021  43.830   4.332
36358W        W 8618  17.069  23.702  14.911
36359W        W 8619   6.681  24.066  11.591
36360W        W 8620   7.881  41.479  13.436
36361W        W 8621  10.747  23.619   3.354
36362W        W 8622   6.346  28.020  13.384
36363W        W 8623  39.412  10.370   0.257
36364W        W 8624  23.570  36.914   2.393
36365W        W 8625  34.059  32.070  10.635
36366W        W 8626  17.593  44.371  13.414
36367W        W 8627  39.404   9.355   2.193
36368W        W 8628  36.478  35.583  12.891
36369W        W 8629  14.261  42.516  12.867
36370W        W 8630  12.848  35.982   3.153
36371W        W 8631   3.390  12.831   0.429
36372W        W 8632  11.332  39.314  11.386
36373W        W 8633  16.073  13.775   3.644
36374W        W 8634  31.127  21.758   3.379
36375W        W 8635  29.974  27.960   1.240
36376W        W 8636  42.284   3.276  13.459
36377W        W 8637  23.212  23.525  11.541
36378W        W 8638  22.046  40.953  11.022
36379W        W 8639   2.371  17.158  12.394
36380W        W 8640  36.568  32.114   3.280
36381W        W 8641  31.105  33.595   4.122
36382W        W 8642  24.596   1.405   2.772
36383W        W 8643  12.835   4.309  13.503
36384W        W 8644  15.244   5.709   1.392
36385W        W 8645  33.395  37.346   3.704
36386W        W 8646  18.610  28.182   2.804
36387W        W 8647  11.247   3.773   3.371
36388W        W 8648  18.242  11.841  10.958
36389W        W 8649   9.889   2.841  10.577
36390W        W 8650  10.295  41.988  14.862
36391W        W 8651   3.285  41.002  12.356
36392W        W 8652  15.193   8.866   0.431
36393W        W 8653  18.760  28.487  12.032
36394W        W 8654  25.638  44.486  12.901
36395W        W 8655  21.582  21.252   3.632
36396W        W 8656  28.509  33.517  12.489
36397W        W 8657   4.770  32.439  10.923
36398W        W 8658  24.150   9.822   2.880
36399W        W 8659   0.823   8.881   4.702
36400W        W 8660   0.939  34.438  11.372
36401W        W 8661  10.729  19.180  12.823
36402W        W 8662   7.838  31.924   0.366
36403W        W 8663  25.153  32.063   3.671
36404W        W 8664  23.151  33.930  13.936
36405W        W 8665  11.851  27.514  12.566
36406W        W 8666  44.453  35.972  14.294
36407W        W 8667  17.241  14.693  10.512
36408W        W 8668  29.571  42.801   0.832
36409W        W 8669  16.571  23.685  14.300
36410W        W 8670  26.513  27.161   2.279
36411W        W 8671  33.948  33.586  14.886
36412W        W 8672  23.087  34.386  11.422
36413W        W 8673  14.729  15.812   4.794
36414W        W 8674  22.109  18.673   9.636
36415W        W 8675  11.176   8.236   1.813
36416W        W 8676  20.591  28.578  14.943
36417W        W 8677  36.891  19.053  12.010
36418W        W 8678  37.363  26.119  14.444
36419W        W 8679  30.934  18.126  12.467
36420W        W 8680  17.148  19.046   1.368
36421W        W 8681  42.907  33.610   4.271
36422W        W 8682  17.668  29.066   0.405
36423W        W 8683  13.623  26.474  12.431
36424W        W 8684  16.701   0.267  14.932
36425W        W 8685   1.345   0.790  11.121
36426W        W 8686  34.970   8.309   0.292
36427W        W 8687  37.063  38.488   3.322
36428W        W 8688  38.495   1.778  11.570
36429W        W 8689  11.182  20.762   4.764
36430W        W 8690  18.661  38.510  12.443
36431W        W 8691  36.847  13.680   4.220
36432W        W 8692  22.076   8.807  12.360
36433W        W 8693  36.347  10.804  14.313
36434W        W 8694  41.504  18.175  12.060
36435W        W 8695  26.141  26.462   4.617
36436W        W 8696  12.777   1.439  14.428
36437W        W 8697  18.740  32.451   0.918
36438W        W 8698  38.457  31.414  11.863
36439W        W 8699  10.674  13.651   2.759
36440W        W 8700  32.998  36.081   4.127
36441W        W 8701  11.220  27.520  13.505
36442W        W 8702  33.016  37.975  14.478
36443W        W 8703   4.889   6.400  14.863
36444W        W 8704  13.252  32.896  12.461
36445W        W 8705  15.194  22.120  10.964
36446W        W 8706  42.974  24.588   2.344
36447W        W 8707  36.518  33.608   2.240
36448W        W 8708  35.935  24.643   1.401
36449W        W 8709   5.205  28.020  12.439
36450W        W 8710  14.170  12.761   1.365
36451W        W 8711  16.177  28.643   0.904
36452W        W 8712  26.635  16.588   3.749
36453W        W 8713  25.009  31.072   4.652
36454W        W 8714  39.475  44.872  13.332
36455W        W 8715   6.368  33.951   2.379
36456W        W 8716  15.155   3.377   2.686
36457W        W 8717  44.503   5.906   1.797
36458W        W 8718  25.163  29.614   4.693
36459W        W 8719  23.621   0.811  13.382
36460W        W 8720   9.261   7.176  14.768
36461W        W 8721  25.048  19.711  13.517
36462W        W 8722   0.846  29.616  14.513
36463W        W 8723  35.902  31.990  13.927
36464W        W 8724  29.013  23.238   3.788
36465W        W 8725  37.476  22.682   0.281
36466W        W 8726  10.835   5.307   3.787
36467W        W 8727  25.043  36.424   1.401
36468W        W 8728  24.676  41.964  12.900
36469W        W 8729  32.482   7.857   4.681
36470W        W 8730  36.031  36.387  12.961
36471W        W 8731   8.777  29.077   1.275
36472W        W 8732  18.073   2.833   0.420
36473W        W 8733  25.179  30.649   0.475
36474W        W 8734   9.351  40.912   4.617
36475W        W 8735  23.550  40.447  10.515
36476W        W 8736   0.321  44.960  12.946
36477W        W 8737   8.308  40.055  12.862
36478W        W 8738  30.439   1.293  12.471
36479W        W 8739  11.738  13.216   1.877
36480W        W 8740  13.700  42.981   0.448
36481W        W 8741  13.180  12.292  10.410
36482W        W 8742   5.849  26.109   2.726
36483W        W 8743  36.931   8.661   0.877
36484W        W 8744   7.314  19.210   0.370
36485W        W 8745  17.690  33.486   3.254
36486W        W 8746  35.390  32.075  13.375
36487W        W 8747  31.568  37.021   4.651
36488W        W 8748  42.410  27.006  13.824
36489W        W 8749  25.597  20.591  13.967
36490W        W 8750  16.626  20.632  11.934
36491W        W 8751  34.042   7.335  10.907
36492W        W 8752   5.807  29.019  13.461
36493W        W 8753   0.328  42.017  13.373
36494W        W 8754   1.842  38.349   0.962
36495W        W 8755  10.715  17.644  11.495
36496W        W 8756  28.583  11.814  12.399
36497W        W 8757  43.895  13.691   1.414
36498W        W 8758  12.820   6.401   0.879
36499W        W 8759  39.398  13.817  12.073
36500W        W 8760  22.590   0.968  13.383
36501W        W 8761   8.227  15.109   4.612
36502W        W 8762  11.782   0.936   4.238
36503W        W 8763  11.239   0.349  12.461
36504W        W 8764  41.010  27.141  13.309
36505W        W 8765  13.220   0.838   0.350
36506W        W 8766   6.333   9.653   4.819
36507W        W 8767  10.175   3.914   2.237
36508W        W 8768   2.298  11.682   4.152
36509W        W 8769  12.315  41.449   1.731
36510W        W 8770  13.312  31.135  13.419
36511W        W 8771  19.183   9.394  14.277
36512W        W 8772  39.938   4.729  12.505
36513W        W 8773  27.996   9.149   3.190
36514W        W 8774  32.493  31.001  12.895
36515W        W 8775  13.249  22.532   2.785
36516W        W 8776  22.633  25.005   0.452
36517W        W 8777  34.917  27.537  13.355
36518W        W 8778  39.029  41.852  12.386
36519W        W 8779  20.206  39.937   3.851
36520W        W 8780  43.966  33.559   1.913
36521W        W 8781  32.520   0.345  14.471
36522W        W 8782  40.451   6.190   1.342
36523W        W 8783  12.854  22.250   3.362
36524W        W 8784  12.647  16.642  10.153
36525W        W 8785  24.627  16.204   0.438
36526W        W 8786  32.521  30.928   4.833
36527W        W 8787  32.558   5.267   4.676
36528W        W 8788   0.327  40.807   4.819
36529W        W 8789  42.804  27.589   4.740
36530W        W 8790  24.061  33.048  11.440
36531W        W 8791  28.961   0.491   1.760
36532W        W 8792  35.476  16.122   2.397
36533W        W 8793  18.687  31.426  12.541
36534W        W 8794  24.158  44.452  11.427
36535W        W 8795  39.322  14.697  13.909
36536W        W 8796  38.502  15.315  13.986
36537W        W 8797  36.904  25.983  14.913
36538W        W 8798   3.372  43.396   1.274
36539W        W 8799   8.164  15.168  13.816
36540W        W 8800   9.873  29.961   0.735
36541W        W 8801  30.089  15.253  12.083
36542W        W 8802  22.144  38.856  11.433
36543W        W 8803  30.479  13.701   0.442
36544W        W 8804  10.660  12.188   2.781
36545W        W 8805  16.171  19.597   2.353
36546W        W 8806  38.370  19.211  10.952
36547W        W 8807   3.404  43.444  12.052
36548W        W 8808   6.273  39.362   2.319
36549W        W 8809   1.401  16.576   1.378
36550W        W 8810  23.042  40.377   0.842
36551W        W 8811  20.229   0.349  12.554
36552W        W 8812  44.467   0.262   1.916
36553W        W 8813  19.147  43.851   1.915
36554W        W 8814   5.356   5.365   0.902
36555W        W 8815  41.386  24.719   4.663
36556W        W 8816  39.004  26.536  14.475
36557W        W 8817  39.524  34.513   3.723
36558W        W 8818  34.995  37.441  11.372
36559W        W 8819  27.638   0.816   1.803
36560W        W 8820   9.185   5.809  13.913
36561W        W 8821  20.556   4.443  11.968
36562W        W 8822  24.198   8.305   3.697
36563W        W 8823  43.776  21.716   2.271
36564W        W 8824  28.577  12.774   1.221
36565W        W 8825   3.414  10.255  14.494
36566W        W 8826   4.781   8.384  11.881
36567W        W 8827  29.567  28.973  12.501
36568W        W 8828  33.885  37.953  13.314
36569W        W 8829   8.217  34.476   0.405
36570W        W 8830  13.335   3.765  12.507
36571W        W 8831  40.828  24.987   0.304
36572W        W 8832  27.039  32.043  11.472
36573W        W 8833  28.106  38.490   4.821
36574W        W 8834   8.186  39.321   2.734
36575W        W 8835  16.685   1.872  13.866
36576W        W 8836  21.673  28.589  11.540
36577W        W 8837  33.573   6.338   3.296
36578W        W 8838  10.718  43.479  14.460
36579W        W 8839  22.626   8.861   0.878
36580W        W 8840   5.405   0.819   1.215
36581W        W 8841  42.435  14.230   0.258
36582W        W 8842  37.975  11.166  14.880
36583W        W 8843  11.180  10.288  13.982
36584W        W 8844   2.237  41.877   2.394
36585W        W 8845  10.653  32.103   1.774
36586W        W 8846  21.215  32.943  12.892
36587W        W 8847  39.384  38.396   3.766
36588W        W 8848  41.406  11.783   1.805
36589W        W 8849  27.452  12.220   4.635
36590W        W 8850  30.037  34.437   4.717
36591W        W 8851   4.342  44.868   0.368
36592W        W 8852  14.213   6.719  14.417
36593W        W 8853  11.324  33.050  11.032
36594W        W 8854  43.421  25.119   4.753
36595W        W 8855  38.972  42.917  10.539
36596W        W 8856  22.055  25.032  13.538
36597W        W 8857  14.602  29.587  10.033
36598W        W 8858  11.148   6.277  12.356
36599W        W 8859  36.991  36.593  14.443
36600W        W 8860  18.168  43.361  11.513
36601W        W 8861   4.260  14.771   1.251
36602W        W 8862  35.440  16.266  10.418
36603W        W 8863   1.869  44.403   4.722
36604W        W 8864  42.829  17.661   2.759
36605W        W 8865  16.609   4.273  14.816
36606W        W 8866  35.372   9.822   4.149
36607W        W 8867  27.176  27.490   3.245
36608W        W 8868  28.655   6.683  12.889
36609W        W 8869  35.895  30.145  12.567
36610W        W 8870  16.205   6.422   2.295
36611W        W 8871  18.127  24.119  14.882
36612W        W 8872  10.851  32.394  11.608
36613W        W 8873  19.260   7.772  12.480
36614W        W 8874  14.330   8.299  10.640
36615W        W 8875  37.505  12.329  12.076
36616W        W 8876  29.508  12.629   4.722
36617W        W 8877  19.721   9.889   3.335
36618W        W 8878  20.546  44.916   0.755
36619W        W 8879  18.760   0.397   0.759
36620W        W 8880  43.917  11.130  11.904
36621W        W 8881  27.013  31.916   0.373
36622W        W 8882  17.589  41.942   0.890
36623W        W 8883   9.728   5.267  11.860
36624W        W 8884  34.409  17.736  11.888
36625W        W 8885  29.653  44.939  13.817
36626W        W 8886  37.386   9.381  13.486
36627W        W 8887  10.252  12.346   3.815
36628W        W 8888  14.308  17.734  14.329
36629W        W 8889  30.146   1.972   1.766
36630W        W 8890   8.792  16.787   3.319
36631W        W 8891  14.314  29.996   0.463
36632W        W 8892  40.023  13.818   0.326
36633W        W 8893  12.334  34.929   3.250
36634W        W 8894  23.702  27.669  11.891
36635W        W 8895  30.427  34.042   2.837
36636W        W 8896  21.661  27.062   1.909
36637W        W 8897  32.406  10.196   1.328
36638W        W 8898  22.008  37.428  14.355
36639W        W 8899  14.320  41.911   4.232
36640W        W 8900   8.371  42.386  11.038
36641W        W 8901  21.208  25.662   4.809
36642W        W 8902   3.724  36.480  10.580
36643W        W 8903  11.773  24.218  13.969
36644W        W 8904  21.688  27.475  11.877
36645W        W 8905  14.316   9.823  14.440
36646W        W 8906  22.206  33.456   4.151
36647W        W 8907  16.713  40.978   4.679
36648W        W 8908  14.807  29.564  13.528
36649W        W 8909  27.618  30.092   0.446
36650W        W 8910  12.270   6.411  10.617
36651W        W 8911   6.307  12.288   4.237
36652W        W 8912  32.510   7.843   2.663
36653W        W 8913  32.418   8.343  13.421
36654W        W 8914  18.729  18.160   1.367
36655W        W 8915  19.596  43.345   3.350
36656W        W 8916  34.533  11.740   4.184
36657W        W 8917  22.996  35.509   4.745
36658W        W 8918   9.676  35.024  11.571
36659W        W 8919  30.589  39.932   2.376
36660W        W 8920  38.943  30.031   4.228
36661W        W 8921  21.718   7.819   0.868
36662W        W 8922   8.212  17.748  11.945
36663W        W 8923  23.652  39.028  12.893
36664W        W 8924  29.118  13.239   3.146
36665W        W 8925  12.339  19.169   4.809
36666W        W 8926  21.135  44.973   0.349
36667W        W 8927  39.352  43.374  14.768
36668W        W 8928  42.832   5.241  14.311
36669W        W 8929  21.649  19.625  14.856
36670W        W 8930  26.197  21.603   3.350
36671W        W 8931  32.458  13.675  13.849
36672W        W 8932  38.895  35.427   2.207
36673W        W 8933  27.087  27.956  10.891
36674W        W 8934  21.110  39.013   5.160
36675W        W 8935  20.695  27.671   5.139
36676W        W 8936  34.521  11.187   3.714
36677W        W 8937   5.925  41.829   3.798
36678W        W 8938  33.439  29.052   1.852
36679W        W 8939  21.187  17.114  12.363
36680W        W 8940  31.593  32.093  10.472
36681W        W 8941  25.568   7.188  10.513
36682W        W 8942   4.902  32.116  14.022
36683W        W 8943  11.809  31.010  11.864
36684W        W 8944  37.543  26.510  10.935
36685W        W 8945  16.167  33.119   2.220
36686W        W 8946   2.362   3.426   2.312
36687W        W 8947  37.548  22.688  12.984
36688W        W 8948  15.815   0.925  11.551
36689W        W 8949   7.719  35.371  11.866
36690W        W 8950  21.245  30.603   4.617
36691W        W 8951   3.897  34.073  13.521
36692W        W 8952  16.236  40.378   0.843
36693W        W 8953   7.731   2.766   0.938
36694W        W 8954   5.359   1.868   1.790
36695W        W 8955   9.747  39.996   2.394
36696W        W 8956  33.555   4.735   3.331
36697W        W 8957  36.352   6.380   4.653
36698W        W 8958  36.952  30.505   0.891
36699W        W 8959   7.847   3.798   0.769
36700W        W 8960  19.106  14.210   2.788
36701W        W 8961  30.562  33.583  14.912
36702W        W 8962  37.013  14.297  10.606
36703W        W 8963  12.284  23.095   1.268
36704W        W 8964  32.406  41.340  14.417
36705W        W 8965   7.694  31.443   1.387
36706W        W 8966  38.434  41.400  14.360
36707W        W 8967  19.653  32.971   2.341
36708W        W 8968  19.121  23.637  12.974
36709W        W 8969  13.238   4.325   1.218
36710W        W 8970  19.076  31.153   1.295
36711W        W 8971  27.672   6.904   4.182
36712W        W 8972   0.448  30.615  10.922
36713W        W 8973  34.595  16.768   2.386
36714W        W 8974  27.687  33.397  11.581
36715W        W 8975  24.559  36.038   2.291
36716W        W 8976  27.525  25.482  14.991
36717W        W 8977   9.861   8.864   0.387
36718W        W 8978  26.146  27.197  11.541
36719W        W 8979  11.256   5.297  12.048
36720W        W 8980  12.182  31.564   3.171
36721W        W 8981  23.672  30.055   4.649
36722W        W 8982  17.071  31.414   4.776
36723W        W 8983  42.485  38.015   1.246
36724W        W 8984   7.274  44.401  11.075
36725W        W 8985  21.183   1.471   3.744
36726W        W 8986  43.881  26.206   2.368
36727W        W 8987  37.374  33.382   4.814
36728W        W 8988  12.620  18.752  11.061
36729W        W 8989  23.503   2.276  14.803
36730W        W 8990   8.738  23.136   2.276
36731W        W 8991  22.516  31.454  12.863
36732W        W 8992  43.940  26.140   3.379
36733W        W 8993   3.243  28.530   4.299
36734W        W 8994  17.170   0.963  14.320
36735W        W 8995  43.481  25.691   1.211
36736W        W 8996  16.181  29.590  13.411
36737W        W 8997  43.005  33.033   2.861
36738W        W 8998   6.872  39.846  12.856
36739W        W 8999  11.640  40.019   1.327
36740W        W 9000  43.311  38.838   2.256
36741W        W 9001  23.006  14.707   1.412
36742W        W 9002  19.662  35.086   3.200
36743W        W 9003  11.855   4.730   2.267
36744W        W 9004  10.152  30.010   2.284
36745W        W 9005  24.540  11.347  13.001
36746W        W 9006  34.863  19.127  13.362
36747W        W 9007  43.903   1.374   0.882
36748W        W 9008  27.170   2.458  11.059
36749W        W 9009   1.945  44.862   0.431
36750W        W 9010  14.213  19.235   3.765
36751W        W 9011   4.847   7.896   1.754
36752W        W 9012  41.343  27.593  13.039
36753W        W 9013  44.851  23.056   1.714
36754W        W 9014   8.899   4.244   4.322
36755W        W 9015  33.505  42.814   5.274
36756W        W 9016  20.689  32.446   2.226
36757W        W 9017  15.254  21.072  12.850
36758W        W 9018  42.367   4.709  13.821
36759W        W 9019  26.495  32.034   3.765
36760W        W 9020  18.265   6.237  10.101
36761W        W 9021  33.501  24.484   4.651
36762W        W 9022  25.014  40.857   1.360
36763W        W 9023  42.480  32.629  13.323
36764W        W 9024  22.098  10.716  10.532
36765W        W 9025  25.056  36.939   1.725
36766W        W 9026  35.915  41.809   4.346
36767W        W 9027  39.017  43.993  13.992
36768W        W 9028  44.473  44.781   0.435
36769W        W 9029  36.504   3.856  11.903
36770W        W 9030  44.353  18.643   4.353
36771W        W 9031  28.173   8.242   3.697
36772W        W 9032  25.989  12.197   2.823
36773W        W 9033  25.628  12.165   4.774
36774W        W 9034  40.905  15.270  14.800
36775W        W 9035  25.123  10.218   1.734
36776W        W 9036   5.781   5.798  13.888
36777W        W 9037  27.192   6.921  13.016
36778W        W 9038  18.695   3.914  12.849
36779W        W 9039  18.665  14.128   2.362
36780W        W 9040  12.709  16.687   3.273
36781W        W 9041  39.326  38.561   4.604
36782W        W 9042   4.885  25.599  10.439
36783W        W 9043  10.873  26.542  11.591
36784W        W 9044  22.122  32.556  14.834
36785W        W 9045   1.332  28.086  12.445
36786W        W 9046   9.844  44.320   1.274
36787W        W 9047  24.517  11.791  11.125
36788W        W 9048   3.244  40.019  14.494
36789W        W 9049  13.604  29.031  10.533
36790W        W 9050  31.952  44.874  13.542
36791W        W 9051  14.129  42.786  12.505
36792W        W 9052  22.574  37.422  14.994
36793W        W 9053   1.413   3.875   3.654
36794W        W 9054  15.798  15.126  11.066
36795W        W 9055   7.752   2.379  13.046
36796W        W 9056  40.460   5.326   2.864
36797W        W 9057  29.583  22.697  14.372
36798W        W 9058  10.241   6.183  11.995
36799W        W 9059  19.577   8.659  11.562
36800W        W 9060  12.740  14.094  12.519
36801W        W 9061  15.148  16.197  11.994
36802W        W 9062  23.035   6.405  14.479
36803W        W 9063  42.884  13.111  14.818
36804W        W 9064  23.190   9.785  14.976
36805W        W 9065  38.860  35.964   3.348
36806W        W 9066  43.914  34.881  14.511
36807W        W 9067  32.126   0.757   4.199
36808W        W 9068   5.283  16.160  11.596
36809W        W 9069  19.658  14.140  12.566
36810W        W 9070  32.087   0.418  10.918
36811W        W 9071  14.095  43.916   2.253
36812W        W 9072  13.713  17.603   3.158
36813W        W 9073   1.385  12.708  11.054
36814W        W 9074  16.575   3.860  13.893
36815W        W 9075  16.294  29.559  11.086
36816W        W 9076  38.908  11.801   5.294
36817W        W 9077   7.683  11.321   3.192
36818W        W 9078   7.350  19.150   0.859
36819W        W 9079  39.424   2.744   1.256
36820W        W 9080  39.031  15.698   0.966
36821W        W 9081  43.775  28.028   2.224
36822W        W 9082  15.739  27.653   4.352
36823W        W 9083  36.465  11.766  13.921
36824W        W 9084   7.842  38.484   3.729
36825W        W 9085   0.793  35.477   3.308
36826W        W 9086   2.857  29.536   3.275
36827W        W 9087  29.947  14.248   2.695
36828W        W 9088   7.828  22.695  14.970
36829W        W 9089  31.083   1.771   0.905
36830W        W 9090  16.155   2.400   1.745
36831W        W 9091   4.372   6.359  10.626
36832W        W 9092  26.147  41.019  10.609
36833W        W 9093   5.413  42.376  14.352
36834W        W 9094   3.358  12.155  12.416
36835W        W 9095  44.965  15.749  11.119
36836W        W 9096   1.448   2.899  14.909
36837W        W 9097  19.659  14.676   4.785
36838W        W 9098   4.933  12.233  13.918
36839W        W 9099  11.673  31.904   5.248
36840W        W 9100  10.854  13.786  11.033
36841W        W 9101  10.751  20.124   1.891
36842W        W 9102   9.362  21.096   2.738
36843W        W 9103  27.507  31.068  10.059
36844W        W 9104   8.682  44.482  14.761
36845W        W 9105  13.778  20.551   1.445
36846W        W 9106  17.177  20.594  13.913
36847W        W 9107   3.327  41.795  10.966
36848W        W 9108  31.120   1.440   3.653
36849W        W 9109  11.252  18.258   3.378
36850W        W 9110  33.416  10.353   2.402
36851W        W 9111  30.977  15.789   4.331
36852W        W 9112   7.699  30.596   3.656
36853W        W 9113   1.845  29.453  13.826
36854W        W 9114   9.225  38.957  10.100
36855W        W 9115  31.993  10.309  10.984
36856W        W 9116  18.270  36.006   2.882
36857W        W 9117  26.508  17.607  10.607
36858W        W 9118   4.332  16.756   2.342
36859W        W 9119  42.305  36.092   1.272
36860W        W 9120  40.494   4.915   2.711
36861W        W 9121  23.998  43.932  14.347
36862W        W 9122  18.159  17.687  13.525
36863W        W 9123  36.960  44.397   3.250
36864W        W 9124  43.448  17.102  11.431
36865W        W 9125  33.557  41.884   3.644
36866W        W 9126  31.086   8.326  13.340
36867W        W 9127  28.019  27.652  10.503
36868W        W 9128  25.519  16.269   0.380
36869W        W 9129  27.675  11.703   2.844
36870W        W 9130  44.449  31.024  13.971
36871W        W 9131  21.251   6.370  14.433
36872W        W 9132  22.650  41.959  11.468
36873W        W 9133  26.635   8.797  10.460
36874W        W 9134  19.538  15.627  12.549
36875W        W 9135  34.493  31.097  14.315
36876W        W 9136  43.496  22.140   0.291
36877W        W 9137  19.166  15.237  10.890
36878W        W 9138  21.191   0.263  10.635
36879W        W 9139  17.799   3.810  13.038
36880W        W 9140  23.038   0.787   1.324
36881W        W 9141  25.119   6.278  14.490
36882W        W 9142  34.075  32.911  12.055
36883W        W 9143  12.341  37.564  14.009
36884W        W 9144  24.209  18.768   3.303
36885W        W 9145  33.493  32.481  13.062
36886W        W 9146  40.470  37.056   3.343
36887W        W 9147  18.583  36.554  13.823
36888W        W 9148  20.065  41.871   1.736
36889W        W 9149  15.132  21.586  10.426
36890W        W 9150  38.006  16.300   4.131
36891W        W 9151   8.729  35.086  13.825
36892W        W 9152  33.428  11.776   4.193
36893W        W 9153  25.564  19.638   3.671
36894W        W 9154   5.307  18.789  10.473
36895W        W 9155  23.616  27.078   0.880
36896W        W 9156  23.127  17.158   2.346
36897W        W 9157  20.108  15.807  14.915
36898W        W 9158  33.889  31.013   0.894
36899W        W 9159  16.790  32.008  14.764
36900W        W 9160  22.668  12.243   0.897
36901W        W 9161  34.377  39.905  11.400
36902W        W 9162  41.892  41.325   2.324
36903W        W 9163  14.816   4.347  10.596
36904W        W 9164  34.089  14.103  14.332
36905W        W 9165  19.739  44.908   1.287
36906W        W 9166  33.561  20.213   3.294
36907W        W 9167  28.442   4.215  10.584
36908W        W 9168  27.676  28.024  11.885
36909W        W 9169  31.422  21.687  14.930
36910W        W 9170  25.655   5.705  12.380
36911W        W 9171  15.779  42.409  11.940
36912W        W 9172  44.442  36.976  13.043
36913W        W 9173   2.732  44.464   9.951
36914W        W 9174  13.309   9.831  13.411
36915W        W 9175  39.550  34.601   0.483
36916W        W 9176  32.060  27.589   0.887
36917W        W 9177  32.489   0.906   0.938
36918W        W 9178  10.864  11.847  12.084
36919W        W 9179   3.296   8.397   2.320
36920W        W 9180   9.846  18.205   3.315
36921W        W 9181  18.092   6.695  13.483
36922W        W 9182  19.555  23.596  11.975
36923W        W 9183  18.268  23.139  14.338
36924W        W 9184  11.841  24.574   4.716
36925W        W 9185  37.920  33.051   2.809
36926W        W 9186  29.479  23.111  10.486
36927W        W 9187  43.487  30.924   1.416
36928W        W 9188  26.965  23.512   0.430
36929W        W 9189  28.941  25.558   3.693
36930W        W 9190   0.305  31.152  11.531
36931W        W 9191   1.415  37.487  14.350
36932W        W 9192  11.214   3.402  12.341
36933W        W 9193  29.580  23.030   4.162
36934W        W 9194   3.305   5.816   3.850
36935W        W 9195  14.697  43.905  12.394
36936W        W 9196  24.975  38.061   2.192
36937W        W 9197  41.340   9.834  13.377
36938W        W 9198  14.245  14.782   4.181
36939W        W 9199  37.930  27.450   1.321
36940W        W 9200  36.544  19.260  13.916
36941W        W 9201  18.744  34.902  10.062
36942W        W 9202  16.700  14.691   9.662
36943W        W 9203   3.271   1.404  12.832
36944W        W 9204   6.212  32.441   4.752
36945W        W 9205  29.504   8.811   1.314
36946W        W 9206  40.042  41.927  11.490
36947W        W 9207  38.513  22.662   2.271
36948W        W 9208  33.963   0.414   0.877
36949W        W 9209  25.005  16.204  14.822
36950W        W 9210  38.364  16.123  12.439
36951W        W 9211  44.365  14.323   2.832
36952W        W 9212  23.139  22.121  11.032
36953W        W 9213  34.057  43.366   0.478
36954W        W 9214  18.203   3.313   1.252
36955W        W 9215   3.770  42.417  13.037
36956W        W 9216  38.334  43.296  13.793
36957W        W 9217   6.909  37.428   2.301
36958W        W 9218   3.928  14.265   0.250
36959W        W 9219  27.164   4.439  13.366
36960W        W 9220  44.936  44.762  11.385
36961W        W 9221   2.871  29.021  10.551
36962W        W 9222  43.305  30.026   1.271
36963W        W 9223  19.201  32.044   1.913
36964W        W 9224   6.223  42.943   3.152
36965W        W 9225   0.795  16.689  13.420
36966W        W 9226  17.091  17.293   3.274
36967W        W 9227  15.809  23.046   4.315
36968W        W 9228  44.769  32.028  14.365
36969W        W 9229  41.402  33.450   2.273
36970W        W 9230  25.219  33.099  13.548
36971W        W 9231  41.830  19.593  14.898
36972W        W 9232  27.028  27.585  10.453
36973W        W 9233  23.543  41.992  14.330
36974W        W 9234  24.654  31.571   1.864
36975W        W 9235  13.659  20.599   1.909
36976W        W 9236  13.811  43.441  12.403
36977W        W 9237  41.926   1.413   2.399
36978W        W 9238  28.564   8.693   2.364
36979W        W 9239  36.987   4.284   3.657
36980W        W 9240  10.649  28.088   1.921
36981W        W 9241  13.622  24.657   2.349
36982W        W 9242  34.601  18.275   9.968
36983W        W 9243  15.610  13.610   0.905
36984W        W 9244  36.036  31.965  13.062
36985W        W 9245   8.287  15.110  12.492
36986W        W 9246  29.615  44.990  11.477
36987W        W 9247  32.486  34.545   4.268
36988W        W 9248  30.565  33.449  12.867
36989W        W 9249  18.692  31.446  11.883
36990W        W 9250  27.971   9.888   1.400
36991W        W 9251  44.999  25.099   4.240
36992W        W 9252   8.363  30.624   2.749
36993W        W 9253   2.418  31.414   1.871
36994W        W 9254  34.898  43.309  12.028
36995W        W 9255  27.471  35.915  11.035
36996W        W 9256  23.101  13.665   4.748
36997W        W 9257  39.541  27.105  11.903
36998W        W 9258  30.624  30.992   0.308
36999W        W 9259  42.322  40.957  11.443
37000W        W 9260  35.515  27.565   1.376
37001W        W 9261  43.996  44.396   3.671
37002W        W 9262  28.562  35.437  13.810
37003W        W 9263   4.410   6.851   3.678
37004W        W 9264   8.888  19.717   3.150
37005W        W 9265   6.843  18.695   1.870
37006W        W 9266   0.269   7.899   2.890
37007W        W 9267  21.172  11.770   5.129
37008W        W 9268  13.277  14.609   2.790
37009W        W 9269  37.544  32.425  13.479
37010W        W 9270  44.948   5.369  11.560
37011W        W 9271  19.666  36.982  14.338
37012W        W 9272  14.312  44.941   1.745
37013W        W 9273  15.607   5.781  13.011
37014W        W 9274  33.559  15.601  13.059
37015W        W 9275  32.101  21.142   1.906
37016W        W 9276  29.128  35.048   3.291
37017W        W 9277  13.811  35.961  13.534
37018W        W 9278  41.409  23.228  14.298
37019W        W 9279  27.191  22.518   3.260
37020W        W 9280   4.868  27.550  11.883
37021W        W 9281  23.013  10.361   0.419
37022W        W 9282  40.373  26.158  10.900
37023W        W 9283  40.915  40.815   1.895
37024W        W 9284  41.964   0.376  10.110
37025W        W 9285   1.264  13.152  13.961
37026W        W 9286  22.011  39.862  14.414
37027W        W 9287  30.463  37.550   2.341
37028W        W 9288  14.224   6.816  12.913
37029W        W 9289  13.660  20.645   0.817
37030W        W 9290  25.592  23.011  14.455
37031W        W 9291   6.769  17.183  11.473
37032W        W 9292   8.686   9.708   0.252
37033W        W 9293  10.865  21.030  11.997
37034W        W 9294  17.722  32.958  14.285
37035W        W 9295  32.485  34.518  11.566
37036W        W 9296   7.365   2.838  13.390
37037W        W 9297  28.531  13.622  13.360
37038W        W 9298   6.752   0.297   3.374
37039W        W 9299  12.153  25.545  13.994
37040W        W 9300  42.358  33.042   1.794
37041W        W 9301  25.142  11.347   4.786
37042W        W 9302  13.145  37.885  13.850
37043W        W 9303  40.411  20.757   1.778
37044W        W 9304   8.838  38.501  11.038
37045W        W 9305  37.855  21.021  11.971
37046W        W 9306  35.099  13.826   1.371
37047W        W 9307   7.276  27.152   2.720
37048W        W 9308  39.359  35.467  14.328
37049W        W 9309  38.343  23.734   2.299
37050W        W 9310   6.251  27.112   1.706
37051W        W 9311  19.271  13.758  13.933
37052W        W 9312  15.234   9.872   4.812
37053W        W 9313   0.427   4.443   2.233
37054W        W 9314  40.938   2.418   2.734
37055W        W 9315  22.164   4.320  10.943
37056W        W 9316  19.714  28.136   0.398
37057W        W 9317   9.353  43.454  10.988
37058W        W 9318  25.066  20.263   4.818
37059W        W 9319   0.484  31.544  12.941
37060W        W 9320  36.870  15.100   0.354
37061W        W 9321  12.632  20.656   4.177
37062W        W 9322   2.731  14.714  11.572
37063W        W 9323  13.246  30.620   1.748
37064W        W 9324  39.980  18.560   2.832
37065W        W 9325   5.745  21.256   1.875
37066W        W 9326   1.804  37.543  12.905
37067W        W 9327  42.860  19.667  12.863
37068W        W 9328  17.665  37.542  13.319
37069W        W 9329   4.873  36.426   1.302
37070W        W 9330  36.370  23.652   0.811
37071W        W 9331   2.436  44.285  14.389
37072W        W 9332  23.660  38.513  11.434
37073W        W 9333  31.960  17.072   0.481
37074W        W 9334  39.330  16.159  13.845
37075W        W 9335  14.191  22.701  10.645
37076W        W 9336  11.164  11.175  12.452
37077W        W 9337  10.348   8.765  10.977
37078W        W 9338  22.008  20.126  11.032
37079W        W 9339  29.963  44.955   4.750
37080W        W 9340  29.515  36.927   4.260
37081W        W 9341  14.680   6.329  11.948
37082W        W 9342   6.889  16.568   2.197
37083W        W 9343  22.504  17.621  14.360
37084W        W 9344   1.976  20.254   3.791
37085W        W 9345  42.946  38.380   2.244
37086W        W 9346  25.073   9.222  14.460
37087W        W 9347  15.735  41.449   2.215
37088W        W 9348  42.374  42.516  11.951
37089W        W 9349  24.547  38.401   2.289
37090W        W 9350  21.157  18.614   1.315
37091W        W 9351  25.645  13.294  10.973
37092W        W 9352  11.819  34.099  14.398
37093W        W 9353   4.827  31.995   4.291
37094W        W 9354  15.704   2.769  11.012
37095W        W 9355  34.545  21.713   2.398
37096W        W 9356  36.428  39.906  12.568
37097W        W 9357  18.141  17.236   3.234
37098W        W 9358  19.668  29.654  11.590
37099W        W 9359   1.368   4.339   2.791
37100W        W 9360  29.096   5.295   0.288
37101W        W 9361  12.157  28.981   3.270
37102W        W 9362  37.485  32.981   0.459
37103W        W 9363  29.074   1.276   2.857
37104W        W 9364  14.711  42.928  12.998
37105W        W 9365  34.402  41.889   0.818
37106W        W 9366  22.030  44.756  14.777
37107W        W 9367   4.393  30.948   2.320
37108W        W 9368  12.632  16.722  13.000
37109W        W 9369  18.690  12.263  13.317
37110W        W 9370  44.342  29.937  13.439
37111W        W 9371  41.914   7.808   0.433
37112W        W 9372  15.104  44.497  13.894
37113W        W 9373  28.147   7.225   1.909
37114W        W 9374  20.624  21.049   1.811
37115W        W 9375  44.305  38.332  13.476
37116W        W 9376   8.777  18.172  13.435
37117W        W 9377  31.127  35.942   2.700
37118W        W 9378  17.103  15.654  13.420
37119W        W 9379   8.708  12.240  12.864
37120W        W 9380  26.510  16.102   2.320
37121W        W 9381  20.065  13.257   1.355
37122W        W 9382  21.189   0.417   1.702
37123W        W 9383  28.443  41.023   2.329
37124W        W 9384  44.311  21.037   3.322
37125W        W 9385  16.157  32.561   0.453
37126W        W 9386  31.119  33.432   1.808
37127W        W 9387  15.184   8.715  14.423
37128W        W 9388  31.108  23.184   1.914
37129W        W 9389  42.011  19.230  11.430
37130W        W 9390  23.214  18.128  13.036
37131W        W 9391  30.936  27.018  10.919
37132W        W 9392  30.579  31.958   4.142
37133W        W 9393   3.448   7.311  11.024
37134W        W 9394  34.530  27.147   1.818
37135W        W 9395  14.643  30.472  13.393
37136W        W 9396   2.308  26.471  11.886
37137W        W 9397  34.891  37.408  12.427
37138W        W 9398  23.518  26.077   2.800
37139W        W 9399  33.954  28.625  11.965
37140W        W 9400   2.908   3.745   0.430
37141W        W 9401  21.094   7.687   3.330
37142W        W 9402  22.673  20.586  14.341
37143W        W 9403  42.909  37.359   4.710
37144W        W 9404  37.920  15.213   3.821
37145W        W 9405  17.730  31.528   4.264
37146W        W 9406  41.301   2.384  10.992
37147W        W 9407  22.717  25.651   4.609
37148W        W 9408  37.358   9.323   9.958
37149W        W 9409  43.887  44.400   9.947
37150W        W 9410  16.280  35.500  14.804
37151W        W 9411   1.819  23.668  11.438
37152W        W 9412   8.349  44.361  12.973
37153W        W 9413  10.841  10.820   3.677
37154W        W 9414  44.502  20.098   2.223
37155W        W 9415  32.550  24.073  12.564
37156W        W 9416  36.080  13.225   3.803
37157W        W 9417  43.312  38.448   4.648
37158W        W 9418   9.767  13.813   3.171
37159W        W 9419  13.729   3.356  13.842
37160W        W 9420  16.777   0.260   2.811
37161W        W 9421  33.075  29.528   1.814
37162W        W 9422  32.124  30.127   0.391
37163W        W 9423  17.670  43.442   0.473
37164W        W 9424  12.806  34.969   4.727
37165W        W 9425  36.027   7.691   5.100
37166W        W 9426   5.419   4.259  11.400
37167W        W 9427  11.778  31.056   2.376
37168W        W 9428  16.661   2.355  14.373
37169W        W 9429  23.625  40.406  13.987
37170W        W 9430  31.433  41.836  11.602
37171W        W 9431  21.137  34.965  11.982
37172W        W 9432  35.425  12.331   1.725
37173W        W 9433  20.763  20.697  14.833
37174W        W 9434  14.676  42.837   1.363
37175W        W 9435  43.966   6.385   2.785
37176W        W 9436  29.014  19.266  12.042
37177W        W 9437  18.151  31.423   0.801
37178W        W 9438  38.406   9.802   5.221
37179W        W 9439  25.971   8.884   0.802
37180W        W 9440  34.032  23.209  11.898
37181W        W 9441  43.847  42.483   1.800
37182W        W 9442  23.513   8.672  12.839
37183W        W 9443  37.063  16.809  12.917
37184W        W 9444  27.539  24.487   3.207
37185W        W 9445  22.103  44.283  12.019
37186W        W 9446  29.582  40.444   1.903
37187W        W 9447  22.605  16.768  14.456
37188W        W 9448  18.689  18.736  10.450
37189W        W 9449  29.513  43.370   0.955
37190W        W 9450  40.532  23.000   3.320
37191W        W 9451  26.087   3.939  14.313
37192W        W 9452   3.267  19.626   1.405
37193W        W 9453  35.381  15.770  12.934
37194W        W 9454   1.792   9.704  11.085
37195W        W 9455  23.202  36.043   4.197
37196W        W 9456  37.443  34.955   4.752
37197W        W 9457  32.482  10.869  11.017
37198W        W 9458  15.134  39.428  11.481
37199W        W 9459  44.272  24.040   1.367
37200W        W 9460  18.092  16.644  13.370
37201W        W 9461  10.255  20.693  12.066
37202W        W 9462  21.559  42.965   3.282
37203W        W 9463  36.399  32.934   4.606
37204W        W 9464  21.187  10.677  13.999
37205W        W 9465   2.832  30.453   1.218
37206W        W 9466  22.705  27.179  10.942
37207W        W 9467   1.254  34.017  12.997
37208W        W 9468  42.468   7.242  12.956
37209W        W 9469  16.681   1.787   1.409
37210W        W 9470   0.355  32.075  13.059
37211W        W 9471  41.928   0.893  11.533
37212W        W 9472  14.199   8.725  14.489
37213W        W 9473  18.611   6.355   1.221
37214W        W 9474  18.162  11.179   1.856
37215W        W 9475   2.802  36.912   2.388
37216W        W 9476  26.098  37.575   2.867
37217W        W 9477  26.607   7.789  12.426
37218W        W 9478  30.605  42.857  12.009
37219W        W 9479   6.338  34.476   9.930
37220W        W 9480  38.028  12.213  13.473
37221W        W 9481  25.999  14.662   4.775
37222W        W 9482  20.085   2.790   4.730
37223W        W 9483  35.060  32.394  12.059
37224W        W 9484  18.759   9.176  12.934
37225W        W 9485  10.257  23.651   1.712
37226W        W 9486   4.738  14.203  14.446
37227W        W 9487   9.175  23.581   0.761
37228W        W 9488   1.303  18.121  11.078
37229W        W 9489  25.968  25.118  13.855
37230W        W 9490   3.364  30.132  14.400
37231W        W 9491  35.084  43.513   2.278
37232W        W 9492  33.029  32.414  11.035
37233W        W 9493   0.459  19.625   0.871
37234W        W 9494  36.058   0.877   0.824
37235W        W 9495   1.340   0.450  10.501
37236W        W 9496  23.116  19.656   2.741
37237W        W 9497   0.340  40.355   4.635
37238W        W 9498  15.153  31.016  13.524
37239W        W 9499  44.822  18.603  10.606
37240W        W 9500  39.350  34.973   4.155
37241W        W 9501  44.262  44.336  12.457
37242W        W 9502   8.824  38.941   3.766
37243W        W 9503  14.292  12.750   3.313
37244W        W 9504  14.286  37.073  10.449
37245W        W 9505  33.961  44.773   1.920
37246W        W 9506  16.611  15.708  14.300
37247W        W 9507  11.222  25.057   3.236
37248W        W 9508  37.491   9.788  11.985
37249W        W 9509  33.550   3.368   4.792
37250W        W 9510  13.845  42.905   2.785
37251W        W 9511  12.696  27.143   0.289
37252W        W 9512  20.128   8.261   4.255
37253W        W 9513  29.444  33.464   5.168
37254W        W 9514  17.279  36.965   1.238
37255W        W 9515   5.437  13.213   4.610
37256W        W 9516  26.506  43.279  11.561
37257W        W 9517  21.692  37.400  12.480
37258W        W 9518  32.587  30.584  14.274
37259W        W 9519  19.079  38.434  14.820
37260W        W 9520  30.999  33.062   2.876
37261W        W 9521  16.571   6.333  12.503
37262W        W 9522   5.743  13.331   4.728
37263W        W 9523  16.715  13.248  11.928
37264W        W 9524  18.683   4.870  10.445
37265W        W 9525  32.550   2.952  13.375
37266W        W 9526  33.020  19.231  13.801
37267W        W 9527  14.174  13.280   0.945
37268W        W 9528  18.647   5.863  12.954
37269W        W 9529  36.048  43.911   4.622
37270W        W 9530  36.041   6.197   1.708
37271W        W 9531  26.186  20.222   0.441
37272W        W 9532  12.620  37.838  12.365
37273W        W 9533  17.189  26.605   0.421
37274W        W 9534  26.199  25.678  10.568
37275W        W 9535  31.919  33.899  12.529
37276W        W 9536  31.403  27.046  12.039
37277W        W 9537  22.031  36.503   1.448
37278W        W 9538  18.171  18.653   3.303
37279W        W 9539  11.842  16.792   3.332
37280W        W 9540  39.951  19.720  13.429
37281W        W 9541  10.333   6.425   2.381
37282W        W 9542  43.826  30.032  14.387
37283W        W 9543  18.586  39.528   2.778
37284W        W 9544  31.145   2.835   1.365
37285W        W 9545   1.452  11.253   0.320
37286W        W 9546  16.170  41.491  10.941
37287W        W 9547  29.613   7.174  10.624
37288W        W 9548  40.924  38.988  13.491
37289W        W 9549  21.090  43.764  14.995
37290W        W 9550  25.487  11.726  10.448
37291W        W 9551  14.264  36.895  14.941
37292W        W 9552  41.320  28.937   1.361
37293W        W 9553  16.670  41.928   2.361
37294W        W 9554  36.943  31.549  11.912
37295W        W 9555  15.685  44.261   0.377
37296W        W 9556  40.485  34.915  11.035
37297W        W 9557  22.647  25.670  10.445
37298W        W 9558  41.888  17.783  12.929
37299W        W 9559  39.427  11.282  10.466
37300W        W 9560   0.913   4.786   2.734
37301W        W 9561  17.193  13.319   0.929
37302W        W 9562  14.256  41.982   3.847
37303W        W 9563  26.005  20.206   4.726
37304W        W 9564  21.231  15.097  12.063
37305W        W 9565  25.127   2.940   1.296
37306W        W 9566  27.510  27.554  11.573
37307W        W 9567   7.337  26.624  10.043
37308W        W 9568  13.320  26.089  11.408
37309W        W 9569  12.281  33.968  11.421
37310W        W 9570  30.076  11.237   4.275
37311W        W 9571  21.587   9.868  10.943
37312W        W 9572  10.682  41.971  10.470
37313W        W 9573  29.540  20.524   2.184
37314W        W 9574  20.536  10.787  12.961
37315W        W 9575   9.249   1.770   3.682
37316W        W 9576  25.501  19.080  14.365
37317W        W 9577  20.768  42.439   4.731
37318W        W 9578  14.740  40.965   4.837
37319W        W 9579   0.853  15.122   0.938
37320W        W 9580  26.480  43.380  14.382
37321W        W 9581  12.164  31.077   4.139
37322W        W 9582  22.219  18.261  13.439
37323W        W 9583  44.895  39.982   0.435
37324W        W 9584  18.573  31.118   2.789
37325W        W 9585  18.210  34.078   1.733
37326W        W 9586   4.416  21.180   0.733
37327W        W 9587  38.022  40.305  12.478
37328W        W 9588   4.332  20.527  14.428
37329W        W 9589  20.220   5.323  13.497
37330W        W 9590   8.356  17.577   3.709
37331W        W 9591  29.471  44.463  11.597
37332W        W 9592  21.139  38.985  10.907
37333W        W 9593  20.522  42.496   2.818
37334W        W 9594  27.182  33.898   3.210
37335W        W 9595  27.160   4.276  14.488
37336W        W 9596  31.600   2.383   3.172
37337W        W 9597  32.622   0.889   4.174
37338W        W 9598  37.060  38.409   0.328
37339W        W 9599   5.797   2.401  14.880
37340W        W 9600  13.176   8.757  13.924
37341W        W 9601   1.745   7.800  14.406
37342W        W 9602  17.761   2.895   2.746
37343W        W 9603   8.870  41.963   2.716
37344W        W 9604  16.639  33.453   2.229
37345W        W 9605  39.511  35.439   3.818
37346W        W 9606  38.389  23.507  11.496
37347W        W 9607  23.112  36.947  11.961
37348W        W 9608  14.186   7.384   1.347
37349W        W 9609  32.049  30.657  11.017
37350W        W 9610  42.775  27.459   2.707
37351W        W 9611   1.287  18.063  11.512
37352W        W 9612  21.696  43.019   2.220
37353W        W 9613  40.388  35.026  13.898
37354W        W 9614   7.852  40.515  14.364
37355W        W 9615  42.941  10.825  10.576
37356W        W 9616   5.809   4.226   0.431
37357W        W 9617  15.217   9.874  11.502
37358W        W 9618   1.885  19.587   3.214
37359W        W 9619   2.912   6.780   1.328
37360W        W 9620  35.496  13.214   2.201
37361W        W 9621  22.723  20.173   4.732
37362W        W 9622  31.930  44.955   3.677
37363W        W 9623   5.350  29.056   2.858
37364W        W 9624  13.844  32.424   3.165
37365W        W 9625  26.138  26.965  12.891
37366W        W 9626  31.991  13.278   1.352
37367W        W 9627   6.835   4.318  13.968
37368W        W 9628   8.169  36.436  14.510
37369W        W 9629  43.359  34.455   0.384
37370W        W 9630  42.962  15.213  12.398
37371W        W 9631  35.546  11.779  10.458
37372W        W 9632  10.708   2.356  13.997
37373W        W 9633  43.288  18.663   0.247
37374W        W 9634  33.890   0.791  14.805
37375W        W 9635  21.031   4.849   0.790
37376W        W 9636  27.049  42.490  12.063
37377W        W 9637  41.488  43.414   2.710
37378W        W 9638  19.160  25.039   2.743
37379W        W 9639  10.844  39.926  14.421
37380W        W 9640  21.688   1.875   0.746
37381W        W 9641  38.541  34.561  10.640
37382W        W 9642  17.278  30.079   0.292
37383W        W 9643  37.909  25.153   2.419
37384W        W 9644  11.684  15.247   2.318
37385W        W 9645   2.337  13.197  13.799
37386W        W 9646  19.588  12.118   2.269
37387W        W 9647  19.759  35.042   4.311
37388W        W 9648  41.811   1.415   4.693
37389W        W 9649   0.315   3.795   2.329
37390W        W 9650   0.747   8.750   2.398
37391W        W 9651  22.619   2.933   4.640
37392W        W 9652  12.184  34.408   2.785
37393W        W 9653  40.833  37.940   0.442
37394W        W 9654  17.637  38.827   4.768
37395W        W 9655  41.019   4.374   0.462
37396W        W 9656   6.855   8.373  12.405
37397W        W 9657   0.250  29.048  14.800
37398W        W 9658  20.698  26.504   1.893
37399W        W 9659   6.292   5.235  11.590
37400W        W 9660  32.039  30.422   4.267
37401W        W 9661  11.132  24.154  14.324
37402W        W 9662  13.767  43.483   0.378
37403W        W 9663  21.024  34.929   2.193
37404W        W 9664  36.365   0.867  13.808
37405W        W 9665   5.202   1.287  13.948
37406W        W 9666  14.271   0.922   3.767
37407W        W 9667  29.011   4.281  14.797
37408W        W 9668  29.429  27.976   0.385
37409W        W 9669  39.446  32.988   2.349
37410W        W 9670   7.270  13.144  13.502
37411W        W 9671  15.695  42.400  14.433
37412W        W 9672  42.485  43.995   3.341
37413W        W 9673  39.861  38.928  14.758
37414W        W 9674   8.692  35.914   3.157
37415W        W 9675  25.127  40.519  11.567
37416W        W 9676  16.787  40.421   1.850
37417W        W 9677  17.084   4.917   0.246
37418W        W 9678  10.730  25.159  12.057
37419W        W 9679  29.032  18.747   1.756
37420W        W 9680  44.363   1.309  13.979
37421W        W 9681  26.145  16.263  10.513
37422W        W 9682  19.080  44.315  13.412
37423W        W 9683  43.829   5.201   0.312
37424W        W 9684  20.087  26.518   5.303
37425W        W 9685  31.549  35.470  14.452
37426W        W 9686   6.703   0.763  13.487
37427W        W 9687  11.842   8.256   9.927
37428W        W 9688  31.082  37.028   2.385
37429W        W 9689  26.669  44.302   0.727
37430W        W 9690   7.782  21.149   1.885
37431W        W 9691  17.702  31.974  13.902
37432W        W 9692  17.095  13.141   2.217
37433W        W 9693  15.240  22.595   4.216
37434W        W 9694  40.454  14.273   0.455
37435W        W 9695  36.378  18.176  11.895
37436W        W 9696   4.357  33.875   1.887
37437W        W 9697  16.745  10.273   3.768
37438W        W 9698   0.954  22.717   2.699
37439W        W 9699  28.562  44.347   0.277
37440W        W 9700  36.960  15.781   0.881
37441W        W 9701  32.563  27.088   4.761
37442W        W 9702  14.687  21.046   0.312
37443W        W 9703  24.047  33.531   1.250
37444W        W 9704  38.553  18.068   1.373
37445W        W 9705   4.861  14.698  14.948
37446W        W 9706   6.228  26.100  10.501
37447W        W 9707   3.852  30.619   2.378
37448W        W 9708  19.081  12.690  13.902
37449W        W 9709  11.631   4.829  11.512
37450W        W 9710   3.833   4.346  12.994
37451W        W 9711  33.576  10.825  10.888
37452W        W 9712   1.935  24.202  12.486
37453W        W 9713  24.172  40.464   1.850
37454W        W 9714  30.573   4.420   0.406
37455W        W 9715  39.998  20.677   0.365
37456W        W 9716   4.743  31.926   2.257
37457W        W 9717  42.449  25.678   2.289
37458W        W 9718  12.277  40.434  12.952
37459W        W 9719  42.896  13.788   3.337
37460W        W 9720  16.617  38.819   2.809
37461W        W 9721  30.127   0.342   3.640
37462W        W 9722  44.907  31.152  13.988
37463W        W 9723  37.970   7.251   4.639
37464W        W 9724  20.623   9.863   3.729
37465W        W 9725  36.972  23.017   0.364
37466W        W 9726  22.745  34.869  12.580
37467W        W 9727  14.662   9.366  12.554
37468W        W 9728   8.290  19.085   2.267
37469W        W 9729   5.386  20.143   1.402
37470W        W 9730  31.108  11.369  14.775
37471W        W 9731  20.164  14.657  14.796
37472W        W 9732  21.148  25.623  11.420
37473W        W 9733  25.603  33.422   4.666
37474W        W 9734  16.734  27.023  14.824
37475W        W 9735  41.309   0.901   4.660
37476W        W 9736  21.698  21.751   4.628
37477W        W 9737  30.476  41.864   5.130
37478W        W 9738   9.784   8.868  11.438
37479W        W 9739  22.736  32.584  13.340
37480W        W 9740  39.823  11.337   1.302
37481W        W 9741   6.414  43.284  13.920
37482W        W 9742  28.636  29.450  14.889
37483W        W 9743  20.624  11.740  14.278
37484W        W 9744  16.735  36.019   1.929
37485W        W 9745  17.595   6.231  12.895
37486W        W 9746  10.800   0.754  14.004
37487W        W 9747  39.876   1.360   0.296
37488W        W 9748  38.866  44.815   3.807
37489W        W 9749  42.523  17.748  13.824
37490W        W 9750  10.241  40.809  11.423
37491W        W 9751   2.298  17.170   4.696
37492W        W 9752  20.222  31.945   3.264
37493W        W 9753   4.417  28.669   0.845
37494W        W 9754  39.949  30.986   1.325
37495W        W 9755  17.597   1.763  10.594
37496W        W 9756  34.429  12.657   3.694
37497W        W 9757  44.923  30.550  11.909
37498W        W 9758  35.483  16.580   1.760
37499W        W 9759  26.593  12.853  13.418
37500W        W 9760  12.771  27.194   3.290
37501W        W 9761  10.686   8.215   3.738
37502W        W 9762  10.775  40.922  13.493
37503W        W 9763   6.839   0.842   1.828
37504W        W 9764  28.016  13.677   0.430
37505W        W 9765  17.702  43.279  13.315
37506W        W 9766  32.000  22.149   1.231
37507W        W 9767  22.141   9.272   3.787
37508W        W 9768   5.694  11.847  13.429
37509W        W 9769  20.142  44.462  14.416
37510W        W 9770   3.293  19.752   2.820
37511W        W 9771  28.438  23.013   3.386
37512W        W 9772  31.525   0.248   2.289
37513W        W 9773  21.664  28.072  11.487
37514W        W 9774  21.205   8.284   3.348
37515W        W 9775   8.279  14.724  10.498
37516W        W 9776  22.603  40.942   1.816
37517W        W 9777  24.220  35.048   3.631
37518W        W 9778  35.492   4.723   2.269
37519W        W 9779  24.147  38.867  11.424
37520W        W 9780  16.198  44.502   0.775
37521W        W 9781  42.305  26.526   4.790
37522W        W 9782  40.466   9.323   2.411
37523W        W 9783  41.313   9.734  11.557
37524W        W 9784  36.966  42.392  12.344
37525W        W 9785  10.775  34.410  13.334
37526W        W 9786  20.760  11.785   4.135
37527W        W 9787  27.554  29.009  12.014
37528W        W 9788   6.713  29.076  13.389
37529W        W 9789  26.518  17.143  14.469
37530W        W 9790  25.069  36.446  12.402
37531W        W 9791  25.648  23.152  11.906
37532W        W 9792  30.161   7.682  13.450
37533W        W 9793   3.920  34.105   2.249
37534W        W 9794  15.272   4.278  11.011
37535W        W 9795  40.873  14.682  14.917
37536W        W 9796  11.174  40.910  14.927
37537W        W 9797  42.288  42.872  14.434
37538W        W 9798  32.019  12.728  11.983
37539W        W 9799   0.248  21.744   4.677
37540W        W 9800  30.440  28.485  14.781
37541W        W 9801  14.312  12.289  14.365
37542W        W 9802  25.515  32.475  12.449
37543W        W 9803   8.721  23.642   3.682
37544W        W 9804  17.172  20.151   3.718
37545W        W 9805  37.436  33.382   2.274
37546W        W 9806  28.947  36.443   4.315
37547W        W 9807  43.323  32.978   3.743
37548W        W 9808  29.975  13.169   4.216
37549W        W 9809  40.045  27.109  11.954
37550W        W 9810  27.624  26.545   4.689
37551W        W 9811  10.717  16.095   3.645
37552W        W 9812   0.384  42.403   0.816
37553W        W 9813   5.779   8.686   2.332
37554W        W 9814  25.625  37.354  13.025
37555W        W 9815  35.476   2.402  14.387
37556W        W 9816   4.803   7.184  13.049
37557W        W 9817   8.732  29.128  11.002
37558W        W 9818  28.964  19.196   2.687
37559W        W 9819  36.041   5.929  14.498
37560W        W 9820  23.119  30.138  14.997
37561W        W 9821   7.341  38.483   4.835
37562W        W 9822  35.430  18.137   9.619
37563W        W 9823  25.505  42.371  11.917
37564W        W 9824  42.405  32.110   1.746
37565W        W 9825  26.678   0.427   1.880
37566W        W 9826  42.381  16.785   4.313
37567W        W 9827  36.085  33.997   2.391
37568W        W 9828  23.645  42.522   3.655
37569W        W 9829  35.029   7.359  11.416
37570W        W 9830  12.635  44.864   3.797
37571W        W 9831   2.852  13.286  11.109
37572W        W 9832  44.482  28.554   1.334
37573W        W 9833  17.654  17.763  11.115
37574W        W 9834  43.508  42.506   2.850
37575W        W 9835  23.065   1.304   1.748
37576W        W 9836  17.646  16.617  13.451
37577W        W 9837  35.574  30.465   0.305
37578W        W 9838  44.864  35.424  10.912
37579W        W 9839  15.742  20.077  14.793
37580W        W 9840   2.949  35.067  11.044
37581W        W 9841  36.042  13.164   4.816
37582W        W 9842  40.370  28.619   4.159
37583W        W 9843  39.046  33.881   3.208
37584W        W 9844  31.635  15.295  14.987
37585W        W 9845  11.344  34.457  13.437
37586W        W 9846   7.413  29.596   3.685
37587W        W 9847  19.061  20.652   0.945
37588W        W 9848  35.866  19.051  14.027
37589W        W 9849   9.357  10.642   4.276
37590W        W 9850  44.270  22.189   4.795
37591W        W 9851  18.143  12.678  12.968
37592W        W 9852   0.361   4.762   0.824
37593W        W 9853  25.700  30.033   0.371
37594W        W 9854  26.656   2.280   3.164
37595W        W 9855   1.430  33.004   2.356
37596W        W 9856  10.711  43.880  10.458
37597W        W 9857  29.144  26.502   3.310
37598W        W 9858  38.888  22.688   4.286
37599W        W 9859   6.722   3.750   0.731
37600W        W 9860  37.345  36.003   1.772
37601W        W 9861  40.851  23.014  11.012
37602W        W 9862  43.768   9.750  10.410
37603W        W 9863  14.307  44.264  14.347
37604W        W 9864  40.002   0.984   3.271
37605W        W 9865  35.087  18.752  11.123
37606W        W 9866  26.992  21.590  11.543
37607W        W 9867  20.685  14.327   0.267
37608W        W 9868   4.364  34.040  10.589
37609W        W 9869   2.382  40.534   4.668
37610W        W 9870  41.410  28.611   3.189
37611W        W 9871  10.173  38.544   0.749
37612W        W 9872  35.856   1.382   2.784
37613W        W 9873  26.670  44.757   4.734
37614W        W 9874  20.255  29.573  11.919
37615W        W 9875  21.157  22.718  10.047
37616W        W 9876  34.537  16.711  11.461
37617W        W 9877  24.078  34.540  11.868
37618W        W 9878  42.297  31.578  14.761
37619W        W 9879  26.209  41.302  14.356
37620W        W 9880  13.258  10.223  10.099
37621W        W 9881  13.109  18.138  14.474
37622W        W 9882  12.764  44.873   2.670
37623W        W 9883  21.047  20.721   0.446
37624W        W 9884  27.993  23.043  11.929
37625W        W 9885  27.089  18.721  13.853
37626W        W 9886   6.313   3.951  11.953
37627W        W 9887   1.797  18.235  12.060
37628W        W 9888  31.578  35.417  13.538
37629W        W 9889  23.177  22.129  14.494
37630W        W 9890  42.401  36.524  10.935
37631W        W 9891  27.064   9.661  14.925
37632W        W 9892   9.693  13.793  13.518
37633W        W 9893  36.998  32.459   4.628
37634W        W 9894  14.821  30.023   0.729
37635W        W 9895   2.238   0.778  13.916
37636W        W 9896   1.732   0.909  12.433
37637W        W 9897   2.950  44.818   4.728
37638W        W 9898  33.953   6.227  12.862
37639W        W 9899  26.511   5.780  11.028
37640W        W 9900  21.178  19.086  12.480
37641W        W 9901   2.263  12.618   2.267
37642W        W 9902   0.266  42.409  11.094
37643W        W 9903  39.559  13.254  10.970
37644W        W 9904  17.065  31.047  10.508
37645W        W 9905   6.397  24.990   4.781
37646W        W 9906  21.075  32.438  13.876
37647W        W 9907  31.560  36.900  10.632
37648W        W 9908  21.168  34.430   2.193
37649W        W 9909  22.691  17.619   0.282
37650W        W 9910  18.642   5.784   9.569
37651W        W 9911  32.091  30.588   2.696
37652W        W 9912  38.435   4.825   1.815
37653W        W 9913  30.648  36.486  14.816
37654W        W 9914  12.284  34.938  14.419
37655W        W 9915  17.256  38.397   2.301
37656W        W 9916  34.034   8.715  14.807
37657W        W 9917  24.715  26.582  14.994
37658W        W 9918  11.260  43.014   4.177
37659W        W 9919  10.317   4.449  11.027
37660W        W 9920   0.266  14.130  12.832
37661W        W 9921   2.951  31.594   4.709
37662W        W 9922  36.390  26.986   0.784
37663W        W 9923  44.916  24.519   2.257
37664W        W 9924   8.670  37.438  13.910
37665W        W 9925  44.003  43.417  13.943
37666W        W 9926  13.179  24.652  11.506
37667W        W 9927   6.360  19.240   0.863
37668W        W 9928  32.085  12.328   4.833
37669W        W 9929  41.794  24.195   2.229
37670W        W 9930   7.274  42.805  11.022
37671W        W 9931  27.008  41.907   3.357
37672W        W 9932  26.631   7.269   1.293
37673W        W 9933   8.387  31.150   4.228
37674W        W 9934   5.883  25.158   5.251
37675W        W 9935  29.583  40.502  12.346
37676W        W 9936   4.706  40.880  12.550
37677W        W 9937  19.126  30.007  12.971
37678W        W 9938   4.710  37.526  11.041
37679W        W 9939  12.265  32.041   0.776
37680W        W 9940  33.608   5.328  13.023
37681W        W 9941   2.229  20.080   2.339
37682W        W 9942   0.345  12.625  12.015
37683W        W 9943  22.521  16.236  13.376
37684W        W 9944   2.255  38.939   2.231
37685W        W 9945  22.120   7.680   2.406
37686W        W 9946  33.965  26.133   1.431
37687W        W 9947  25.700  28.053  14.452
37688W        W 9948  23.576  36.371  14.484
37689W        W 9949   2.829  42.304   4.172
37690W        W 9950  25.601  41.978   0.450
37691W        W 9951   1.757  10.793  12.067
37692W        W 9952   6.798  30.064  11.508
37693W        W 9953  11.636  15.712   0.916
37694W        W 9954  29.040  12.224   4.773
37695W        W 9955   2.805   8.197  12.439
37696W        W 9956  22.094  14.737   4.123
37697W        W 9957   2.847  39.967  12.022
37698W        W 9958  31.460  14.778   0.277
37699W        W 9959   1.465   5.255  13.048
37700W        W 9960  20.726  32.130   2.318
37701W        W 9961  11.146  37.486  14.434
37702W        W 9962  23.134  15.155   4.183
37703W        W 9963  33.954  12.655   0.891
37704W        W 9964  10.218   7.682  14.971
37705W        W 9965  40.433   5.724   3.666
37706W        W 9966  43.959  23.656  11.876
37707W        W 9967  15.823  24.157   4.323
37708W        W 9968  27.471  37.563   4.737
37709W        W 9969  44.471   8.769  14.512
37710W        W 9970  31.056  10.333   4.816
37711W        W 9971  31.994  32.541   1.439
37712W        W 9972   2.906  27.092  10.972
37713W        W 9973  14.147  35.595   4.653
37714W        W 9974  43.513   1.840  11.903
37715W        W 9975  36.851   7.886   4.120
37716W        W 9976  32.120  32.997  13.357
37717W        W 9977  14.177  17.233  14.815
37718W        W 9978  23.227  30.641   0.310
37719W        W 9979  36.532   3.430   3.660
37720W        W 9980  10.736   0.760   2.848
37721W        W 9981  35.545  21.552   2.732
37722W        W 9982  17.591  13.830   1.802
37723W        W 9983  39.457  41.811  10.598
37724W        W 9984  39.485  15.806  12.457
37725W        W 9985  12.309  34.591  11.388
37726W        W 9986  19.778  14.646  12.068
37727W        W 9987   4.885  30.090   1.800
37728W        W 9988  28.598   3.731   1.708
37729W        W 9989  34.054  42.288  12.974
37730W        W 9990   2.877  13.731  14.368
37731W        W 9991  27.586  39.545  13.961
37732W        W 9992  33.084  41.043  11.504
37733W        W 9993  13.327  10.207  10.528
37734W        W 9994  16.254  41.522  14.775
37735W        W 9995  28.476  33.971  10.440
37736W        W 9996  19.246  31.481   0.892
37737W        W 9997  35.447  41.416  11.011
37738W        W 9998  30.062  17.165  12.516
37739W        W 9999   2.793  12.294  12.342
37740W        W10000   7.353  38.014   1.727
37741W        W10001  34.042  17.763   2.712
37742W        W10002  23.731   4.309  10.586
37743W        W10003  43.488  10.285   4.190
37744W        W10004   1.814  34.876  12.481
37745W        W10005   0.971  25.065   2.178
37746W        W10006  42.397  11.797  13.032
37747W        W10007  28.183  36.059   1.850
37748W        W10008  14.119  16.295   2.680
37749W        W10009  16.798  27.095  13.318
37750W        W10010   9.864   2.396  11.562
37751W        W10011  44.777   4.768  10.598
37752W        W10012  29.590  28.095  14.287
37753W        W10013   7.861  25.125   5.284
37754W        W10014   2.347  35.101  11.103
37755W        W10015  41.042   7.720   1.230
37756W        W10016  14.644  22.556  14.434
37757W        W10017  13.841  15.134   5.629
37758W        W10018  38.962   5.708  12.862
37759W        W10019   2.913  42.369   3.868
37760W        W10020  32.607  36.029  14.430
37761W        W10021  22.531  22.212   1.908
37762W        W10022  32.021  22.671   3.239
37763W        W10023  31.441  11.316  11.857
37764W        W10024   1.338   1.372  14.022
37765W        W10025   4.400  20.149   2.322
37766W        W10026   7.390  14.224   1.242
37767W        W10027   7.247  11.249   3.634
37768W        W10028  30.918  35.070   1.416
37769W        W10029  24.997  32.942   1.391
37770W        W10030  32.563  43.511   2.707
37771W        W10031  37.416  38.946   3.325
37772W        W10032  42.460  39.957   3.733
37773W        W10033  42.779  24.493  14.834
37774W        W10034   1.257   6.311  13.800
37775W        W10035   4.737  26.204  13.436
37776W        W10036   1.388  26.201  10.631
37777W        W10037  10.179  23.530  13.047
37778W        W10038   8.828  18.764   2.196
37779W        W10039   6.206   8.878   3.359
37780W        W10040   4.247  26.614   3.215
37781W        W10041  33.914   5.419   1.449
37782W        W10042  15.794  19.540   0.797
37783W        W10043  41.994  36.068  10.078
37784W        W10044  17.661  37.058   3.749
37785W        W10045  30.159  24.719   3.316
37786W        W10046  41.506  26.574   1.697
37787W        W10047   9.671  39.027   1.229
37788W        W10048   5.267  31.947   0.414
37789W        W10049  36.363  34.081  13.880
37790W        W10050  31.644  29.560  14.435
37791W        W10051  29.482  35.014   1.226
37792W        W10052  15.631  34.016  11.393
37793W        W10053  28.132  21.512  11.414
37794W        W10054  25.163  30.588   0.752
37795W        W10055   3.776   9.834  12.885
37796W        W10056   3.410  21.685   3.254
37797W        W10057  25.189  28.947   4.608
37798W        W10058  19.184  30.477  13.060
37799W        W10059  41.500  24.067  13.874
37800W        W10060  36.493  15.162  13.887
37801W        W10061  31.517  24.993   0.930
37802W        W10062  36.064  22.087  11.091
37803W        W10063  10.348  30.437   2.236
37804W        W10064   2.333  41.948   3.641
37805W        W10065   7.721  10.832   2.854
37806W        W10066  41.925  12.236   2.347
37807W        W10067  30.472  33.439   2.668
37808W        W10068  31.976   9.370  10.424
37809W        W10069  39.557  16.300  11.507
37810W        W10070  11.807   4.391  11.886
37811W        W10071  37.833  39.974   0.378
37812W        W10072  19.100  16.680   4.611
37813W        W10073  18.201  39.488   3.822
37814W        W10074  17.705  16.082   1.365
37815W        W10075  28.648  33.078   3.335
37816W        W10076   9.363  29.486   2.693
37817W        W10077  11.141  14.194   0.867
37818W        W10078  39.471  13.624  13.543
37819W        W10079  27.052  33.971  14.468
37820W        W10080  22.126   9.269  13.341
37821W        W10081  19.595  26.021  14.375
37822W        W10082  34.962  30.553  13.049
37823W        W10083  11.179  40.844  12.858
37824W        W10084   4.725  42.953   4.193
37825W        W10085  26.494   5.849  10.513
37826W        W10086  42.992  28.948   4.760
37827W        W10087  36.091  28.145  13.387
37828W        W10088  44.895   2.407  13.504
37829W        W10089  18.774  13.817   4.264
37830W        W10090  27.685  27.509   0.784
37831W        W10091   2.864  12.851   4.118
37832W        W10092  25.553   5.309   0.832
37833W        W10093   5.398  20.122  12.868
37834W        W10094  12.320   2.817  12.070
37835W        W10095  40.413  32.578  13.825
37836W        W10096   3.375   7.322   4.615
37837W        W10097   0.867  17.768  10.610
37838W        W10098  19.716  25.124   1.438
37839W        W10099  28.459  31.054   0.839
37840W        W10100  19.246   7.833   5.582
37841W        W10101  26.017  30.559   2.392
37842W        W10102  19.587  38.072  13.865
37843W        W10103   5.705  28.096   9.508
37844W        W10104   3.895  12.828   4.133
37845W        W10105  20.255   5.776  14.975
37846W        W10106   3.720  41.992   2.337
37847W        W10107  36.591  21.218  13.939
37848W        W10108  18.668  16.616   2.409
37849W        W10109   1.348   3.283   1.448
37850W        W10110  34.476  14.188  11.039
37851W        W10111  35.363  18.058   0.381
37852W        W10112  24.072  24.546   1.388
37853W        W10113  23.731  31.415   2.209
37854W        W10114  35.362  19.618   4.148
37855W        W10115  18.136  13.737   3.722
37856W        W10116   5.787  25.576  14.314
37857W        W10117  32.924  15.784  14.829
37858W        W10118  33.914  32.031   4.762
37859W        W10119  20.069  35.059  12.461
37860W        W10120  29.959  44.990  13.892
37861W        W10121  20.090  18.607  14.317
37862W        W10122   9.342  19.172   3.825
37863W        W10123   9.715  31.559  14.885
37864W        W10124  44.909  34.938   0.838
37865W        W10125  43.440  13.808  12.476
37866W        W10126   9.190  24.569  14.283
37867W        W10127  44.421  33.401   3.734
37868W        W10128   8.237   8.193   1.816
37869W        W10129  31.902  21.599  14.501
37870W        W10130  15.586  28.604   0.836
37871W        W10131   5.366   5.346   1.925
37872W        W10132   2.272  44.789  14.777
37873W        W10133  44.994   9.213  13.368
37874W        W10134  15.620  31.967   1.815
37875W        W10135  18.746   7.221  11.044
37876W        W10136   8.772  16.254   0.393
37877W        W10137  19.621  35.089   0.334
37878W        W10138   6.279   7.902   2.864
37879W        W10139  35.388   0.468   1.399
37880W        W10140   8.750   1.462  14.936
37881W        W10141   3.764  36.477  11.875
37882W        W10142  17.751  34.498   4.317
37883W        W10143  20.241  37.501   5.151
37884W        W10144  23.042   6.316   1.240
37885W        W10145  37.042  39.326  12.396
37886W        W10146  41.035  37.087  13.497
37887W        W10147  42.026  35.490  10.534
37888W        W10148   7.667  26.002   2.222
37889W        W10149  29.996  22.525   4.142
37890W        W10150  36.426  18.073   1.288
37891W        W10151  19.716   1.766   0.911
37892W        W10152  21.597  43.357   4.689
37893W        W10153  19.686  41.351   4.744
37894W        W10154  34.075  36.090   4.295
37895W        W10155   1.851   6.225  12.453
37896W        W10156  27.942  26.080  11.491
37897W        W10157   1.347  44.434   0.430
37898W        W10158  23.694   3.741  13.932
37899W        W10159  24.187  26.697   5.654
37900W        W10160   5.794  16.676  11.884
37901W        W10161  17.575  14.165   1.846
37902W        W10162  35.573  20.140  12.426
37903W        W10163  40.822   3.330   2.793
37904W        W10164  16.136  16.619   3.297
37905W        W10165  44.910  25.475   0.414
37906W        W10166  30.554  35.472   4.605
37907W        W10167  17.647  26.640  12.959
37908W        W10168  11.686   3.903   3.778
37909W        W10169  27.094  35.541  13.485
37910W        W10170  37.023  16.637  10.976
37911W        W10171  25.592   4.220  11.568
37912W        W10172  30.645  40.807  12.421
37913W        W10173  22.075   9.750  13.814
37914W        W10174   8.704  17.118  10.582
37915W        W10175   3.719  21.078  11.112
37916W        W10176  22.232   9.730   4.305
37917W        W10177  13.616  44.792   0.949
37918W        W10178  35.055  42.940  13.480
37919W        W10179   5.901  43.973   3.715
37920W        W10180  39.972  43.949   1.740
37921W        W10181  12.850   3.295  14.817
37922W        W10182   8.703  30.516  10.437
37923W        W10183  19.562   0.753  13.790
37924W        W10184  35.866  43.850   2.300
37925W        W10185  38.564   2.349   4.719
37926W        W10186  13.280  17.675  11.389
37927W        W10187  26.098  23.582   3.178
37928W        W10188  42.524  40.418   3.683
37929W        W10189   8.805  28.539  11.912
37930W        W10190  28.585  13.247  11.978
37931W        W10191  15.329   2.297   0.729
37932W        W10192   3.894  10.168  10.977
37933W        W10193   2.462  37.447   1.793
37934W        W10194  30.638  42.953  12.372
37935W        W10195  24.065  14.202  10.542
37936W        W10196   6.802   2.438   1.379
37937W        W10197  18.583  32.088   0.958
37938W        W10198   5.287  39.937   0.331
37939W        W10199  35.878  40.850  11.915
37940W        W10200  22.014  25.033   5.170
37941W        W10201  24.683  13.810  14.976
37942W        W10202  13.315  32.974  12.044
37943W        W10203  30.445  17.650  12.392
37944W        W10204  24.530  15.267  12.893
37945W        W10205  19.166  27.636   0.838
37946W        W10206  37.553  43.898   0.962
37947W        W10207  25.570  14.336   1.437
37948W        W10208  23.555  17.636   3.262
37949W        W10209  32.460  37.916  11.534
37950W        W10210  10.238   8.739  13.371
37951W        W10211  17.698   0.305   3.310
37952W        W10212   8.827  11.289  14.781
37953W        W10213  13.783   1.962   0.400
37954W        W10214   3.954   7.860  10.985
37955W        W10215  29.070  35.507   0.463
37956W        W10216   1.477  21.721   3.724
37957W        W10217  28.060  13.316   4.791
37958W        W10218  31.532  29.449   4.118
37959W        W10219  26.099  41.905   2.419
37960W        W10220  14.649   5.196   1.701
37961W        W10221  33.057  39.425  11.608
37962W        W10222  10.714  27.530   1.796
37963W        W10223  43.802  12.622  12.044
37964W        W10224  41.887  40.348   2.191
37965W        W10225  41.961  21.603  12.580
37966W        W10226  16.210  15.140   0.959
37967W        W10227  31.120  32.633   0.313
37968W        W10228  32.939   3.434   4.679
37969W        W10229   1.399  44.307  13.332
37970W        W10230  23.018  29.110   0.807
37971W        W10231  28.038  32.134   2.856
37972W        W10232  23.199  25.650  11.485
37973W        W10233  22.599   5.366   1.919
37974W        W10234  24.092   3.875   3.302
37975W        W10235  25.071  14.140  14.005
37976W        W10236  29.159  22.716  12.828
37977W        W10237  19.142  20.734   1.284
37978W        W10238  25.566  36.004   2.676
37979W        W10239  24.659   7.841  14.003
37980W        W10240  39.921  30.642  12.450
37981W        W10241  38.840  36.869   1.220
37982W        W10242  37.836  42.387   0.260
37983W        W10243  12.792   6.349   2.386
37984W        W10244  22.615   7.343   0.282
37985W        W10245  37.336   2.844  10.942
37986W        W10246  32.539  41.004   4.258
37987W        W10247   4.840  23.218   4.170
37988W        W10248   1.960   8.209  14.888
37989W        W10249  27.061  37.429   3.331
37990W        W10250   9.378   2.797  11.579
37991W        W10251  26.952  10.285   3.276
37992W        W10252  24.569  43.457  14.941
37993W        W10253   5.911  22.063   0.774
37994W        W10254  10.752   2.907  14.416
37995W        W10255  19.700  35.562   2.684
37996W        W10256  25.003  14.821   2.384
37997W        W10257   1.410  43.338  14.851
37998W        W10258  32.485  37.519  13.404
37999W        W10259  26.077  29.058  14.927
38000W        W10260  41.982  32.414  11.059
38001W        W10261  20.642  22.069  14.889
38002W        W10262  30.654  21.024   2.268
38003W        W10263  28.526  24.684   2.218
38004W        W10264  19.753  20.165   2.272
38005W        W10265   0.842  20.122   4.149
38006W        W10266  11.278  24.529   3.665
38007W        W10267  44.774  43.384  14.764
38008W        W10268  43.929  11.289  11.476
38009W        W10269   2.787  27.989  10.574
38010W        W10270  15.588  43.001   4.694
38011W        W10271  30.154  31.464  13.988
38012W        W10272  17.060  40.357   1.782
38013W        W10273  36.528  35.089   0.955
38014W        W10274  31.611  19.074   4.717
38015W        W10275  37.028  22.151   2.184
38016W        W10276  32.420  10.142   1.749
38017W        W10277   4.765   7.850   0.252
38018W        W10278  26.611  43.846   0.483
38019W        W10279  11.334  22.545  12.047
38020W        W10280  22.113  13.271   3.840
38021W        W10281  29.498  36.394  11.892
38022W        W10282  22.113   8.343  11.960
38023W        W10283  40.492  13.770  12.924
38024W        W10284   9.251  38.551  10.471
38025W        W10285  42.871  20.103   3.642
38026W        W10286   2.887  27.511   0.727
38027W        W10287   1.896  16.273  10.620
38028W        W10288  44.417  42.971   0.882
38029W        W10289  10.161  21.525  13.837
38030W        W10290   4.811  40.547  13.919
38031W        W10291  17.237   5.757   5.795
38032W        W10292  29.027  41.411  11.506
38033W        W10293   5.708  23.097   4.635
38034W        W10294   6.682   4.288  13.380
38035W        W10295  13.663  39.323  10.547
38036W        W10296   8.738  34.501   4.310
38037W        W10297  26.595   6.405  13.493
38038W        W10298  12.792   5.327   2.371
38039W        W10299  22.245  24.613   4.740
38040W        W10300  27.597  17.165   2.802
38041W        W10301  10.379   4.313   4.150
38042W        W10302   6.232  20.532   1.236
38043W        W10303  18.056  12.670  12.030
38044W        W10304  33.520  26.045  11.493
38045W        W10305  12.634  35.994  12.572
38046W        W10306  25.708  19.635  10.593
38047W        W10307  35.883  25.669  12.507
38048W        W10308  42.953  39.430   4.788
38049W        W10309  12.747  36.420   4.252
38050W        W10310  10.336  11.132  13.372
38051W        W10311   8.345  23.529  13.874
38052W        W10312   1.407  40.843  13.850
38053W        W10313  29.949  16.242   1.728
38054W        W10314   8.305  24.066   4.832
38055W        W10315  44.340  26.679  12.446
38056W        W10316  15.720  26.671  11.878
38057W        W10317  22.011  17.791   3.739
38058W        W10318   8.843  23.188   0.258
38059W        W10319  10.262  25.670   3.701
38060W        W10320  20.713  27.557  10.134
38061W        W10321  17.648   8.261  12.000
38062W        W10322  33.532  21.628   0.261
38063W        W10323  41.483  33.039  11.414
38064W        W10324  12.263  11.751   2.317
38065W        W10325  27.689   8.802  12.930
38066W        W10326   0.868  11.639   5.302
38067W        W10327   5.730  40.884  14.356
38068W        W10328  29.016  37.996   3.793
38069W        W10329   6.759   0.759   4.767
38070W        W10330  33.585   1.409  12.911
38071W        W10331  14.695  22.649  14.826
38072W        W10332  11.740  33.587  13.500
38073W        W10333   4.771   7.781   2.705
38074W        W10334  23.609  36.040  12.461
38075W        W10335  21.064  31.601  12.429
38076W        W10336  14.803  32.393  14.331
38077W        W10337  41.462  37.405  11.407
38078W        W10338  29.603  44.820  14.916
38079W        W10339  40.448  16.132   3.258
38080W        W10340   9.746  28.985  11.974
38081W        W10341  42.477   5.820  12.542
38082W        W10342  13.223  23.001  13.452
38083W        W10343  17.138  44.466  12.497
38084W        W10344   2.834  24.174  13.389
38085W        W10345  23.519  39.859   2.852
38086W        W10346   1.329   2.823   3.214
38087W        W10347  30.557  30.072   9.553
38088W        W10348  18.278   3.371   3.719
38089W        W10349  16.294   6.201  13.945
38090W        W10350  42.873  10.280   4.329
38091W        W10351  41.991   0.319  14.477
38092W        W10352   6.393   1.901   2.725
38093W        W10353  42.472  16.117   2.378
38094W        W10354  14.634   0.955   3.177
38095W        W10355  29.932  37.570  11.527
38096W        W10356   5.383  22.115   3.319
38097W        W10357  19.270  42.871  13.982
38098W        W10358  38.346  37.024  13.873
38099W        W10359   2.273  24.543   2.254
38100W        W10360  44.465  22.231   2.393
38101W        W10361  11.305   4.868   4.698
38102W        W10362  31.006  24.723  13.443
38103W        W10363  29.529  14.113   1.414
38104W        W10364  17.612  17.075   0.924
38105W        W10365  29.043  10.659   4.123
38106W        W10366   8.166  32.891   0.361
38107W        W10367   1.346  34.488   1.286
38108W        W10368  29.509   6.296  14.384
38109W        W10369   2.330  23.709   1.306
38110W        W10370   2.407  24.722  10.590
38111W        W10371   9.757   1.370   2.262
38112W        W10372   8.209  27.080   2.245
38113W        W10373  11.736  32.394   1.741
38114W        W10374  22.655  11.769   4.700
38115W        W10375  13.696  30.099   1.784
38116W        W10376  20.182  37.433  11.876
38117W        W10377  27.948  20.139   4.221
38118W        W10378  23.542   7.283  14.329
38119W        W10379  43.945  39.061  11.588
38120W        W10380  30.999  30.565  10.498
38121W        W10381  35.107  37.892  13.866
38122W        W10382  16.258   9.758  14.969
38123W        W10383  43.899  29.125  14.340
38124W        W10384  40.860   4.886  14.962
38125W        W10385  35.362  32.049  11.073
38126W        W10386  42.994   6.407  10.541
38127W        W10387  38.373  31.642  11.565
38128W        W10388   5.339  34.028  14.765
38129W        W10389  28.095  30.145  14.835
38130W        W10390  16.750  42.868   4.779
38131W        W10391  14.644  39.401  14.802
38132W        W10392   2.371  39.982  12.438
38133W        W10393  15.745  10.260   9.967
38134W        W10394  44.000  36.384   4.790
38135W        W10395  10.327   4.417   3.757
38136W        W10396   8.278  26.080  10.116
38137W        W10397  38.383  10.696  11.449
38138W        W10398   1.913  31.118   2.808
38139W        W10399   2.813   1.937   4.128
38140W        W10400  37.978  41.371  13.013
38141W        W10401  39.864   5.867   3.864
38142W        W10402  38.953   4.317   1.832
38143W        W10403  29.034  39.970  10.888
38144W        W10404  29.018   7.781  14.938
38145W        W10405  38.973  32.132   2.901
38146W        W10406   2.841  25.192  10.492
38147W        W10407  17.724  20.216  14.916
38148W        W10408  34.899  23.576   0.463
38149W        W10409  43.013  41.446   1.903
38150W        W10410  23.108  24.154  11.037
38151W        W10411  30.029  25.617  11.992
38152W        W10412  43.906  37.537   0.926
38153W        W10413  21.026   7.348  11.914
38154W        W10414  21.644  22.599  12.474
38155W        W10415  38.446  42.436   1.348
38156W        W10416  15.742  12.666   2.852
38157W        W10417  11.779  19.662   0.919
38158W        W10418   1.268   2.307  11.533
38159W        W10419   5.774  21.166   4.155
38160W        W10420  43.989  17.181  11.445
38161W        W10421  41.943  37.062  14.802
38162W        W10422  17.665  44.458  12.087
38163W        W10423  34.562  19.208  14.839
38164W        W10424  29.079  11.365   2.235
38165W        W10425  28.955  25.080   4.612
38166W        W10426  10.175  16.574  10.515
38167W        W10427  14.673  34.081  13.906
38168W        W10428  44.495  17.757   4.225
38169W        W10429  42.371  14.254  14.490
38170W        W10430  29.462  21.627  11.374
38171W        W10431  24.056  23.097  14.869
38172W        W10432  41.820   2.341   1.873
38173W        W10433  11.642  12.816   2.744
38174W        W10434  26.105  43.390   4.200
38175W        W10435  28.616   9.710  11.985
38176W        W10436   2.311   6.296   2.279
38177W        W10437   4.386  20.225   1.234
38178W        W10438  39.415  18.613   1.868
38179W        W10439   3.395  21.230   3.856
38180W        W10440   9.371  12.317  12.567
38181W        W10441  10.328  37.943   1.399
38182W        W10442  10.311  41.007  12.556
38183W        W10443  23.228  37.989   1.783
38184W        W10444   1.744   9.809  13.926
38185W        W10445  40.932   8.334  13.527
38186W        W10446  16.318  23.153  11.857
38187W        W10447  18.251  17.608  10.582
38188W        W10448  37.067  10.687  13.924
38189W        W10449  41.791  23.222  12.387
38190W        W10450  25.025  32.443  10.494
38191W        W10451  28.592  20.049   3.374
38192W        W10452  11.334  15.235   3.769
38193W        W10453  44.922  13.203  11.571
38194W        W10454  14.277  29.079  12.481
38195W        W10455  14.206  44.897  14.416
38196W        W10456  39.031  19.741   4.313
38197W        W10457  28.174  26.597   3.690
38198W        W10458  43.004  16.175  13.980
38199W        W10459  33.452  29.945  12.407
38200W        W10460  40.453  26.552   0.856
38201W        W10461   1.364  27.520   2.288
38202W        W10462  31.918  41.424  13.355
38203W        W10463  10.180   6.866  14.352
38204W        W10464  30.598  36.949   1.403
38205W        W10465  28.632   4.858   3.282
38206W        W10466  18.229  25.523  10.978
38207W        W10467   7.220   5.843  14.853
38208W        W10468  30.016  27.648   4.792
38209W        W10469  44.846   0.884   9.969
38210W        W10470  10.147  17.157   5.196
38211W        W10471  23.614  30.143  14.901
38212W        W10472  16.740  31.492   1.246
38213W        W10473  38.547  33.525   0.903
38214W        W10474  31.012  19.771   3.866
38215W        W10475  25.599  22.583  13.340
38216W        W10476   4.247  31.564  12.914
38217W        W10477  11.268  34.560   3.838
38218W        W10478  22.039   5.722  10.899
38219W        W10479  16.736  11.701   4.779
38220W        W10480  35.428  13.677   2.690
38221W        W10481  21.133   1.797  10.974
38222W        W10482   3.805   8.173  14.939
38223W        W10483  19.740  41.501  10.494
38224W        W10484   2.894  36.529   0.402
38225W        W10485  34.605  41.476   3.833
38226W        W10486  36.439   4.213   0.350
38227W        W10487  17.083  12.199  10.928
38228W        W10488  42.791  32.587  12.464
38229W        W10489   6.712  12.656   0.480
38230W        W10490  41.363  38.989  12.349
38231W        W10491  30.971  42.480  13.372
38232W        W10492  20.536   0.476   3.222
38233W        W10493   4.367  26.062   4.248
38234W        W10494   9.301  44.002  14.912
38235W        W10495  15.649   9.851  10.421
38236W        W10496  44.463  41.994  11.452
38237W        W10497  18.062  40.878  12.877
38238W        W10498  40.845  31.419   3.805
38239W        W10499  31.087  20.248  11.091
38240W        W10500  30.098  43.963   4.213
38241W        W10501  18.071   6.730   3.243
38242W        W10502  30.042   0.860  13.055
38243W        W10503  10.757  27.629  10.891
38244W        W10504  25.515  31.940  11.607
38245W        W10505  18.754   6.802   2.890
38246W        W10506   4.729  24.139  13.060
38247W        W10507  39.984  41.822   2.401
38248W        W10508  38.540   9.790   4.327
38249W        W10509  17.645  19.192  14.339
38250W        W10510  26.128  33.018   0.909
38251W        W10511  28.648  38.885   3.295
38252W        W10512  18.718  16.299  12.853
38253W        W10513  32.453  40.931  11.007
38254W        W10514  32.589  15.094   3.684
38255W        W10515  14.216  14.241  12.953
38256W        W10516   7.405  10.323  13.803
38257W        W10517  16.801  29.023  14.833
38258W        W10518  34.405   3.446   1.451
38259W        W10519   0.420   8.169  11.056
38260W        W10520  29.545   5.752  11.403
38261W        W10521  29.505  13.835   3.787
38262W        W10522  12.807  35.935   4.118
38263W        W10523  19.152  29.543   2.720
38264W        W10524  22.242  36.478  13.800
38265W        W10525  28.013  24.507  10.928
38266W        W10526  40.899  36.937   0.273
38267W        W10527  21.699  29.114  13.041
38268W        W10528  38.354  12.768   3.801
38269W        W10529  23.717  32.409   0.870
38270W        W10530   1.855  19.280   2.776
38271W        W10531  17.260  43.378   0.905
38272W        W10532  29.970  26.016   1.860
38273W        W10533  44.440  21.157   1.927
38274W        W10534  11.363   8.863   4.699
38275W        W10535  38.888   0.910   2.669
38276W        W10536  38.984  42.385   0.320
38277W        W10537  18.235   5.737   0.788
38278W        W10538  33.024  28.630  13.901
38279W        W10539  18.755   9.253   3.292
38280W        W10540  12.618  21.017   4.826
38281W        W10541  32.463  31.548  12.855
38282W        W10542  19.648  18.593   4.624
38283W        W10543  21.235  31.582  10.497
38284W        W10544  21.659  27.514  14.842
38285W        W10545  18.061  38.005   1.904
38286W        W10546  27.976  29.470  12.388
38287W        W10547  29.175  34.581  11.611
38288W        W10548  43.464  37.397  13.371
38289W        W10549  10.758  17.564   0.296
38290W        W10550  20.202  40.866   1.254
38291W        W10551  38.061  10.757  10.407
38292W        W10552  14.640  17.115  13.387
38293W        W10553  16.080  22.164   0.418
38294W        W10554  35.893  11.171  11.432
38295W        W10555  23.189   8.839   3.352
38296W        W10556  36.371   9.759  11.869
38297W        W10557  44.288  11.823  10.485
38298W        W10558   0.841  32.409  13.971
38299W        W10559  13.326  33.456  11.005
38300W        W10560  38.063   2.226  10.525
38301W        W10561  12.352  30.985  11.598
38302W        W10562  34.924  21.056   0.374
38303W        W10563  37.459   1.467  10.898
38304W        W10564  19.746   7.757  13.928
38305W        W10565  24.540  23.022   2.720
38306W        W10566  34.116   0.955   3.171
38307W        W10567  44.264   6.737   5.227
38308W        W10568  28.505  21.583   1.404
38309W        W10569   5.241   0.812   1.765
38310W        W10570  12.197   7.759  13.475
38311W        W10571  35.921  35.012  11.942
38312W        W10572  24.035  40.382   4.703
38313W        W10573  27.089  24.175  14.396
38314W        W10574  26.160   0.328  12.396
38315W        W10575   6.192   8.308   1.338
38316W        W10576  32.637   8.704  10.532
38317W        W10577  37.067  19.095   2.239
38318W        W10578   0.383  16.705  13.310
38319W        W10579  35.465  21.577  13.913
38320W        W10580  33.522  40.348  13.050
38321W        W10581  14.653  36.480  14.500
38322W        W10582  43.797  25.515  11.446
38323W        W10583  42.030  14.807   3.682
38324W        W10584  34.993  33.580   1.778
38325W        W10585   6.417  16.571  11.110
38326W        W10586  17.246  44.850  13.056
38327W        W10587   3.735  13.105   0.394
38328W        W10588  14.180  19.275  13.344
38329W        W10589  23.093  20.102  11.087
38330W        W10590   4.851   4.940   3.286
38331W        W10591  26.467  26.504   3.370
38332W        W10592  22.076   9.317  11.455
38333W        W10593   0.483  44.297  12.468
38334W        W10594  43.000  22.558  13.387
38335W        W10595  30.583  33.128   0.825
38336W        W10596  44.957   5.913   2.266
38337W        W10597  24.532  13.620   0.823
38338W        W10598   0.286  15.091   4.197
38339W        W10599  22.173  23.666   4.725
38340W        W10600  15.220  11.637  11.879
38341W        W10601   8.354  37.845  13.362
38342W        W10602  42.790  30.632  14.327
38343W        W10603  15.646   4.248  13.926
38344W        W10604  28.443  36.951   0.394
38345W        W10605  11.809  33.968  12.426
38346W        W10606  32.407   8.213   0.820
38347W        W10607  19.774  21.628   2.865
38348W        W10608  38.458   5.869  12.932
38349W        W10609  32.055  10.838  13.880
38350W        W10610  30.156  33.883   3.809
38351W        W10611  12.726  22.130   0.436
38352W        W10612   6.419  40.907   4.637
38353W        W10613  41.352   1.928   3.824
38354W        W10614  24.079  16.074   4.160
38355W        W10615  43.822  35.517   0.449
38356W        W10616  10.172  43.287  12.880
38357W        W10617  26.543  18.639   1.448
38358W        W10618   4.813  35.507  13.415
38359W        W10619  10.172  41.826  14.398
38360W        W10620   4.395  25.147   1.416
38361W        W10621  33.916   3.863  13.352
38362W        W10622  37.480  37.877   3.706
38363W        W10623  40.445  38.386  12.449
38364W        W10624  44.847   8.362  12.433
38365W        W10625  11.844  21.176   2.402
38366W        W10626   2.894  19.536   2.258
38367W        W10627  26.132  24.985  11.968
38368W        W10628  25.497   7.260  12.389
38369W        W10629  14.241  41.364   4.688
38370W        W10630  12.767  26.064   0.768
38371W        W10631  16.316   2.395  12.887
38372W        W10632  34.993  30.050   0.899
38373W        W10633  28.538  24.537  11.587
38374W        W10634  33.032  18.698   0.300
38375W        W10635  30.416   2.427  12.864
38376W        W10636  38.546   9.802   9.499
38377W        W10637  35.411  35.024   4.812
38378W        W10638  32.019  16.601   0.870
38379W        W10639  31.451  36.873   2.396
38380W        W10640   1.787   5.774  14.391
38381W        W10641  34.896  32.998  13.424
38382W        W10642  40.805  25.114  14.804
38383W        W10643  10.300  28.054   4.697
38384W        W10644   1.833  19.093   2.354
38385W        W10645  43.887  18.253   3.820
38386W        W10646  12.640   3.814  14.878
38387W        W10647  41.991  44.503  13.013
38388W        W10648  25.505  13.257  12.087
38389W        W10649  26.509  35.896   4.816
38390W        W10650  15.223  39.959  12.370
38391W        W10651   8.258  24.062  10.471
38392W        W10652  42.781  24.588  13.959
38393W        W10653  15.711   0.312   4.630
38394W        W10654   4.768  32.450   1.754
38395W        W10655  20.262  24.544  14.490
38396W        W10656  39.914  32.562   0.302
38397W        W10657  20.602   3.739  13.360
38398W        W10658   2.809   5.198  14.939
38399W        W10659  11.842  25.689  10.512
38400W        W10660  21.730   7.303   1.222
38401W        W10661  20.754  30.461   3.274
38402W        W10662  26.098  42.005  14.456
38403W        W10663   9.794  33.883  13.398
38404W        W10664  41.530  30.625  14.374
38405W        W10665  19.221   2.449   4.327
38406W        W10666  31.562  36.939   3.354
38407W        W10667  23.594  32.492   0.332
38408W        W10668   2.746  41.794  12.035
38409W        W10669  29.430  13.218   4.143
38410W        W10670  22.591   9.367   2.237
38411W        W10671   9.665   4.289   4.289
38412W        W10672  15.209   6.796   4.816
38413W        W10673   8.184  25.022  10.959
38414W        W10674  31.073   8.833  12.004
38415W        W10675  16.089  21.670  10.605
38416W        W10676  11.298  26.990  12.079
38417W        W10677  28.184  30.049   1.270
38418W        W10678  13.127  24.520  13.410
38419W        W10679  44.405  43.009  14.390
38420W        W10680  10.225  21.222   3.722
38421W        W10681  17.685  12.152  12.031
38422W        W10682  37.020  31.405  14.358
38423W        W10683  18.588  10.859   0.424
38424W        W10684  28.525  40.992   1.784
38425W        W10685  41.306  26.980   2.697
38426W        W10686   0.432  28.677  14.385
38427W        W10687   0.755  16.812   2.285
38428W        W10688  34.921  21.116  10.607
38429W        W10689  39.424  35.563   0.276
38430W        W10690  12.621  31.118  14.769
38431W        W10691  22.506  15.764   3.638
38432W        W10692  30.541  36.450   1.800
38433W        W10693  20.729  20.694   9.632
38434W        W10694  38.384  33.021   2.351
38435W        W10695  40.913   6.383  11.597
38436W        W10696  31.076  39.808  12.357
38437W        W10697  39.401  40.951   4.831
38438W        W10698  29.574  38.984  14.445
38439W        W10699  41.518  18.196   0.945
38440W        W10700  22.654  30.545  10.487
38441W        W10701   4.378  41.307   3.702
38442W        W10702   3.315  37.546   0.341
38443W        W10703   1.827  11.239  10.970
38444W        W10704  12.827  38.493  13.956
38445W        W10705  25.637  40.391   4.698
38446W        W10706  19.101  16.569   3.340
38447W        W10707  33.518  10.724  13.905
38448W        W10708  28.967   4.448   0.273
38449W        W10709  37.519   3.216   4.244
38450W        W10710  42.435  23.039  10.987
38451W        W10711  31.473  16.110  11.410
38452W        W10712  43.846   2.447  10.894
38453W        W10713  43.292  36.891   0.924
38454W        W10714  25.469  14.095  14.375
38455W        W10715  32.597  38.060   1.305
38456W        W10716  16.767  15.200  14.958
38457W        W10717   0.263  26.157   2.210
38458W        W10718  18.140   9.762  12.008
38459W        W10719  40.875  19.728  12.487
38460W        W10720  43.865  12.660  14.383
38461W        W10721  15.276   4.928   4.114
38462W        W10722  24.048  22.735  10.540
38463W        W10723  42.359   0.798   2.232
38464W        W10724  27.136   6.687   0.877
38465W        W10725  15.145  32.903  12.541
38466W        W10726  23.503  23.538  11.548
38467W        W10727  15.695   3.235   4.616
38468W        W10728   3.310   5.323  10.953
38469W        W10729  44.793  27.123   1.400
38470W        W10730   7.737  16.134   0.331
38471W        W10731  24.552  22.085  13.536
38472W        W10732  21.100  26.458  10.992
38473W        W10733  18.637  26.037   0.800
38474W        W10734  33.001  19.243   2.829
38475W        W10735  10.872  41.929  14.844
38476W        W10736  16.711  30.976   0.468
38477W        W10737   6.333  27.955  13.845
38478W        W10738  18.215  19.607   5.153
38479W        W10739  19.063  37.498   2.293
38480W        W10740  23.071   7.730   2.217
38481W        W10741  20.735  19.719   4.202
38482W        W10742   7.260   7.677  11.996
38483W        W10743   4.730  25.660  14.999
38484W        W10744  30.437  29.975  12.352
38485W        W10745  23.719  23.053  11.406
38486W        W10746  26.658  41.043  12.526
38487W        W10747  18.177  35.878  14.488
38488W        W10748   3.274  10.336   4.280
38489W        W10749  11.242  17.622  14.316
38490W        W10750  25.088  36.099  12.518
38491W        W10751  38.820  20.640  14.424
38492W        W10752  41.788  40.347   4.710
38493W        W10753  14.282  21.710  13.004
38494W        W10754  18.663  21.158  10.044
38495W        W10755  10.814   8.729   2.687
38496W        W10756   5.749  12.622   3.298
38497W        W10757  41.397  25.671   1.345
38498W        W10758  16.318  19.098   0.391
38499W        W10759  14.299   3.724  13.353
38500W        W10760   4.374  30.018   1.812
38501W        W10761  38.555  33.560   3.367
38502W        W10762  40.470  41.908  11.988
38503W        W10763  15.204   4.369   3.861
38504W        W10764  11.652   2.462  13.430
38505W        W10765  23.626  24.588  14.982
38506W        W10766  30.082  16.130   2.886
38507W        W10767   7.340  20.247  14.353
38508W        W10768  43.966  31.953   4.275
38509W        W10769  20.539  38.479   1.717
38510W        W10770  43.333   3.428  13.466
38511W        W10771   1.391  42.942  13.880
38512W        W10772   5.933  32.469   3.656
38513W        W10773  29.965  16.209   2.205
38514W        W10774  19.141  44.961   3.814
38515W        W10775   3.287  41.526   1.357
38516W        W10776  41.797  27.979   4.626
38517W        W10777   8.403   9.225   4.354
38518W        W10778   9.812  40.979  12.000
38519W        W10779  22.026   7.728  13.356
38520W        W10780  15.671  31.545   2.815
38521W        W10781   2.932  38.987   0.329
38522W        W10782  21.586  20.713  13.509
38523W        W10783  26.198  25.582  13.050
38524W        W10784   1.800   8.280   4.744
38525W        W10785  26.563  21.694  11.553
38526W        W10786  34.978  28.599  11.589
38527W        W10787  10.164  38.443   9.962
38528W        W10788  24.073  17.279  10.964
38529W        W10789  35.003   5.360  12.943
38530W        W10790   4.226  41.977   4.353
38531W        W10791  29.920  29.076   0.319
38532W        W10792  39.029  26.549   0.435
38533W        W10793   2.321   9.875  13.517
38534W        W10794  21.653  18.054  10.626
38535W        W10795  28.974   9.796  13.815
38536W        W10796  15.716  10.346   0.895
38537W        W10797   6.336  24.975   2.268
38538W        W10798  26.647  35.872  11.541
38539W        W10799  44.881  16.789  11.076
38540W        W10800  33.436  11.781  11.925
38541W        W10801  18.139  41.425  14.428
38542W        W10802  29.567  28.025  12.063
38543W        W10803  17.729  15.729   4.826
38544W        W10804  30.923  29.633   0.396
38545W        W10805  15.180  33.484   0.253
38546W        W10806  19.040  14.217  13.058
38547W        W10807   1.360  39.551   4.333
38548W        W10808  40.947  38.980  12.863
38549W        W10809  23.653  17.615  11.579
38550W        W10810   6.754  30.598  11.499
38551W        W10811  44.865   0.494   2.741
38552W        W10812   5.209  25.018  10.636
38553W        W10813   3.415  10.322   4.611
38554W        W10814  37.901  29.614   1.922
38555W        W10815   2.876  24.129  14.775
38556W        W10816  13.627  28.135  13.959
38557W        W10817  20.146  25.541   2.271
38558W        W10818   2.773  11.713   1.394
38559W        W10819  35.358  29.979   2.839
38560W        W10820  33.554  43.292  14.918
38561W        W10821  31.010  11.128   2.867
38562W        W10822  12.697  34.874   4.298
38563W        W10823  24.149  12.742  12.442
38564W        W10824  14.220  31.405  10.585
38565W        W10825  18.097  21.543   4.615
38566W        W10826  11.331  31.446  10.986
38567W        W10827  32.935  23.687  14.316
38568W        W10828  42.488  41.433   1.930
38569W        W10829   2.347   2.343   4.346
38570W        W10830  20.639  32.137  14.932
38571W        W10831   8.828  26.688  10.493
38572W        W10832  29.998   8.771  10.620
38573W        W10833   2.295   2.413   3.333
38574W        W10834  37.363  13.192  13.035
38575W        W10835  21.158  44.474  13.447
38576W        W10836  19.102  15.635   3.286
38577W        W10837  41.486  38.069  10.887
38578W        W10838   6.690  17.617   1.302
38579W        W10839   3.906   8.402   4.272
38580W        W10840   3.769  27.542   3.795
38581W        W10841  30.003  16.262  14.881
38582W        W10842  25.656  38.939   0.846
38583W        W10843  28.071   4.365   1.864
38584W        W10844  44.755   3.400   1.285
38585W        W10845  44.355  29.526  14.978
38586W        W10846  14.225  35.965   3.174
38587W        W10847  33.558  17.715  14.021
38588W        W10848  27.447  43.818  14.337
38589W        W10849  19.713  33.993   4.682
38590W        W10850  39.957  22.140  10.596
38591W        W10851  14.719  30.600   3.650
38592W        W10852  13.670  31.575  12.003
38593W        W10853  25.498  44.431  14.815
38594W        W10854  20.054   3.908   3.273
38595W        W10855  31.067  17.747  13.858
38596W        W10856   2.370  43.425   4.601
38597W        W10857  36.007  37.967   2.271
38598W        W10858  35.980  17.258   4.347
38599W        W10859   8.341  30.087  14.889
38600W        W10860  39.463  23.157   2.265
38601W        W10861  38.941  41.036   1.771
38602W        W10862  26.683  20.712   3.768
38603W        W10863  24.006  17.294   5.230
38604W        W10864   7.222  35.009   1.720
38605W        W10865  16.765  43.284   3.796
38606W        W10866  37.422   2.345   3.276
38607W        W10867  38.570  35.514   4.797
38608W        W10868  20.217  28.512   2.251
38609W        W10869  23.987   1.238  10.497
38610W        W10870  39.420  42.988  12.904
38611W        W10871  35.050  18.685   5.093
38612W        W10872  21.741   6.844  12.854
38613W        W10873   5.388  42.492  12.042
38614W        W10874  28.509  42.854  14.491
38615W        W10875  14.760  11.195  10.900
38616W        W10876  26.126  12.853  12.535
38617W        W10877  22.082  13.315  11.541
38618W        W10878  32.960  18.589  13.843
38619W        W10879  11.172  31.057  12.440
38620W        W10880  34.531  37.037   1.297
38621W        W10881   0.294  42.830  13.915
38622W        W10882  32.435  35.072   2.371
38623W        W10883  21.534  20.042   2.853
38624W        W10884  41.961   8.331  12.825
38625W        W10885  35.964  43.456  14.933
38626W        W10886  30.943   9.304   4.189
38627W        W10887  38.004   9.757  14.010
38628W        W10888  13.768  10.327   2.348
38629W        W10889  39.518   1.923  11.950
38630W        W10890  25.649  19.623   2.202
38631W        W10891  27.654   4.444   0.276
38632W        W10892   6.286  16.620   3.273
38633W        W10893  15.103   3.381  13.910
38634W        W10894  41.878  32.483   2.358
38635W        W10895   4.420   7.813  14.834
38636W        W10896  11.862  36.017   0.252
38637W        W10897  42.923  33.419  10.510
38638W        W10898  23.636  14.182   2.899
38639W        W10899  12.742  27.529   3.638
38640W        W10900   9.850  31.012   2.221
38641W        W10901  32.955  28.987  12.962
38642W        W10902  11.641   4.286  13.878
38643W        W10903  43.011  30.986   1.742
38644W        W10904  18.178  14.751   2.794
38645W        W10905  30.431  37.362  11.029
38646W        W10906  40.328  35.562   4.163
38647W        W10907   1.466  40.342  14.365
38648W        W10908  32.577  39.334   0.782
38649W        W10909  42.831   6.873   0.950
38650W        W10910  28.638  38.955   3.771
38651W        W10911  32.461  44.420  12.003
38652W        W10912  12.716  24.009   0.415
38653W        W10913  28.005   4.753   2.665
38654W        W10914  34.479  25.687  12.987
38655W        W10915  15.758  33.469  13.458
38656W        W10916   8.775  34.614  12.390
38657W        W10917  22.718  36.884   3.289
38658W        W10918  16.280  21.106  13.469
38659W        W10919   0.370  28.931  10.919
38660W        W10920  23.566  21.615   1.787
38661W        W10921  32.022   1.797   1.808
38662W        W10922  40.939  31.428   2.805
38663W        W10923  30.620  27.547  13.457
38664W        W10924  10.793  37.389   4.301
38665W        W10925  29.424  29.452   5.570
38666W        W10926  13.835  26.652  10.586
38667W        W10927  38.012  14.105   5.089
38668W        W10928   1.454  25.061  14.449
38669W        W10929  35.543  32.472  11.920
38670W        W10930   1.780  41.365   2.294
38671W        W10931  38.533  32.598   4.134
38672W        W10932  31.007  37.892  13.400
38673W        W10933   2.818  40.352   2.761
38674W        W10934  14.111  17.262   5.762
38675W        W10935   2.321  31.637  13.793
38676W        W10936  38.075  15.201   4.280
38677W        W10937  42.527  30.632   1.752
38678W        W10938  37.935  38.868   3.778
38679W        W10939  10.822  16.206   4.694
38680W        W10940  32.092  38.906   2.206
38681W        W10941  41.043  26.104   1.694
38682W        W10942  17.082   4.387  12.059
38683W        W10943  31.015  37.943   1.249
38684W        W10944  33.070   0.358  13.893
38685W        W10945  31.943  40.451  10.943
38686W        W10946  32.553  33.422  10.097
38687W        W10947  36.960  34.563   1.710
38688W        W10948   7.338  43.834  13.999
38689W        W10949   7.332  39.389   1.863
38690W        W10950  26.647  14.790  10.583
38691W        W10951  42.325  22.711   2.224
38692W        W10952  42.283  23.130   3.701
38693W        W10953  29.117  28.603  14.515
38694W        W10954  14.141   6.253  10.526
38695W        W10955  37.065  44.908   4.632
38696W        W10956  25.642  28.472  14.830
38697W        W10957  21.061   3.709   2.851
38698W        W10958  19.193  32.426  12.365
38699W        W10959  31.420  23.626   2.258
38700W        W10960  44.436  21.103   5.093
38701W        W10961  40.846  41.950  12.496
38702W        W10962  39.527  43.480   4.815
38703W        W10963  17.255   2.855   9.938
38704W        W10964   0.865  21.561  10.639
38705W        W10965   0.331  26.129   2.806
38706W        W10966  29.635  30.139  14.290
38707W        W10967  11.693  30.511  11.115
38708W        W10968  36.489  43.463   1.772
38709W        W10969   2.471  11.790  13.486
38710W        W10970  12.738   3.275   4.752
38711W        W10971   1.260  42.400   0.390
38712W        W10972   5.757  14.776   0.321
38713W        W10973   7.708   6.235  10.486
38714W        W10974   0.753   8.380   3.274
38715W        W10975  37.436  12.740  12.561
38716W        W10976  24.714  15.284   4.610
38717W        W10977  19.706  18.636  13.972
38718W        W10978  14.239  30.162   4.350
38719W        W10979  21.751   2.264   2.299
38720W        W10980   6.302  11.248   3.859
38721W        W10981  28.570  20.769  12.932
38722W        W10982  38.903   0.314  10.904
38723W        W10983  31.966  27.011   3.821
38724W        W10984  37.478   3.351  13.534
38725W        W10985  44.324  23.239  11.422
38726W        W10986  26.193  20.236  10.643
38727W        W10987  40.334  20.732   3.813
38728W        W10988  22.220  18.285  12.046
38729W        W10989  43.396  27.540   0.792
38730W        W10990  33.427  38.903   2.863
38731W        W10991   5.924   6.843  11.417
38732W        W10992  30.964  16.313  13.460
38733W        W10993  36.500  28.980  12.566
38734W        W10994  15.134  17.636  11.901
38735W        W10995  28.003  11.139  13.416
38736W        W10996  34.104  36.526  14.847
38737W        W10997  30.135  11.849  13.821
38738W        W10998  25.103  44.971  14.330
38739W        W10999  31.070  34.885  11.375
38740W        W11000  35.048   0.762   4.724
38741W        W11001  18.741  14.768   1.295
38742W        W11002   3.908  33.977  13.800
38743W        W11003   0.978  39.380  11.453
38744W        W11004   2.314  22.124  12.386
38745W        W11005  17.725  38.398  12.005
38746W        W11006  34.093  33.888  14.822
38747W        W11007   7.238  10.202  12.850
38748W        W11008  38.888  12.124  12.899
38749W        W11009  32.073  31.452   2.684
38750W        W11010   2.755  28.979  12.838
38751W        W11011  22.125  34.954  14.970
38752W        W11012   8.844   3.342  13.052
38753W        W11013   9.649  28.058  13.399
38754W        W11014  23.148  27.049  11.435
38755W        W11015  18.635  20.118   0.889
38756W        W11016  33.427  18.061  12.526
38757W        W11017   7.408  42.832  12.444
38758W        W11018  33.413  39.365   0.793
38759W        W11019  30.124  16.083  12.386
38760W        W11020   8.387  31.976   0.480
38761W        W11021  11.804  26.605   3.299
38762W        W11022  38.850  15.315   1.911
38763W        W11023  12.701  24.023  13.468
38764W        W11024  20.610  21.697  13.944
38765W        W11025  44.424   8.211   4.352
38766W        W11026   8.816   8.259   0.267
38767W        W11027  28.034   8.799   3.691
38768W        W11028  44.438  23.151  13.015
38769W        W11029   8.385  25.038  13.381
38770W        W11030  29.076  33.448   4.159
38771W        W11031  10.192   5.247   5.269
38772W        W11032  41.825   1.909   9.948
38773W        W11033   8.826  39.450   0.965
38774W        W11034   8.877  37.459   3.635
38775W        W11035  29.021  14.293  10.407
38776W        W11036   4.411  26.080   2.348
38777W        W11037  30.017  29.125   5.117
38778W        W11038   0.300   4.833   4.263
38779W        W11039  32.909  10.730  10.473
38780W        W11040  43.290   3.936   0.475
38781W        W11041  28.972  15.244   2.724
38782W        W11042   0.363  20.105  12.876
38783W        W11043  28.977  15.177   2.378
38784W        W11044  37.367  42.835  10.017
38785W        W11045  32.024  20.061   1.256
38786W        W11046  36.349  32.089  13.378
38787W        W11047  29.645  27.484   1.358
38788W        W11048   0.320  29.102   0.739
38789W        W11049  17.261   6.407   1.852
38790W        W11050  23.016  14.749  13.492
38791W        W11051   3.918  44.279  10.447
38792W        W11052  43.476  23.589  13.934
38793W        W11053  22.220  39.901  10.558
38794W        W11054   2.278  32.601  12.957
38795W        W11055  13.642  38.342  11.863
38796W        W11056  31.611  40.475   2.798
38797W        W11057  23.224   2.351   4.267
38798W        W11058   1.387  21.255   3.705
38799W        W11059  29.585  19.636  14.421
38800W        W11060  21.128  30.544  12.489
38801W        W11061  11.342  38.896  14.866
38802W        W11062  37.881  10.364   4.348
38803W        W11063  12.232  33.131   0.789
38804W        W11064  10.752  15.771   2.307
38805W        W11065  17.717  15.090  12.954
38806W        W11066  28.933  32.570   0.796
38807W        W11067  12.672  20.571   4.709
38808W        W11068  33.895  28.593  13.802
38809W        W11069  14.195  22.112   2.338
38810W        W11070  19.067  13.625  11.863
38811W        W11071   1.851  23.685   0.257
38812W        W11072  21.660  24.643   0.431
38813W        W11073  24.126   8.790   4.252
38814W        W11074  22.729   0.344  11.588
38815W        W11075  25.053  39.357  11.410
38816W        W11076  22.636   6.346  10.912
38817W        W11077  31.500  40.801  12.961
38818W        W11078  38.487  24.039  11.070
38819W        W11079  35.880  13.647  13.942
38820W        W11080   4.807  22.219  10.590
38821W        W11081   6.312  20.077  11.874
38822W        W11082  39.058  28.474   0.397
38823W        W11083  23.093  18.679  14.913
38824W        W11084  23.501  18.781  11.036
38825W        W11085  38.931  14.252  11.511
38826W        W11086   0.287   7.769  11.578
38827W        W11087  24.612  39.848   9.545
38828W        W11088  17.300  33.459   4.774
38829W        W11089   2.345  18.177  13.539
38830W        W11090  38.854  20.129  13.942
38831W        W11091  37.879  10.759   5.198
38832W        W11092  25.184  17.172   2.879
38833W        W11093   9.784  27.540   0.803
38834W        W11094  35.474  41.913  11.390
38835W        W11095  14.598  17.751  11.924
38836W        W11096  38.554  10.152   3.379
38837W        W11097  11.774   2.442   5.197
38838W        W11098   5.745  14.676   0.909
38839W        W11099  42.394  21.733   4.757
38840W        W11100   4.280  26.122   3.337
38841W        W11101  20.583  19.194  10.583
38842W        W11102  36.850   9.343  13.408
38843W        W11103  13.166  39.005  10.085
38844W        W11104  41.393   4.418  14.340
38845W        W11105   6.705  18.111   0.733
38846W        W11106  13.154  26.035   4.660
38847W        W11107  33.063  11.859   0.365
38848W        W11108  34.043  31.408   4.115
38849W        W11109  17.103   2.930  11.078
38850W        W11110  31.078   3.391   0.473
38851W        W11111  12.184  14.610  14.765
38852W        W11112  31.531  22.088   1.223
38853W        W11113  21.652  22.105  13.543
38854W        W11114  29.626  38.821  13.484
38855W        W11115  14.145  24.188   1.398
38856W        W11116  35.852   7.702   1.695
38857W        W11117   3.865  17.611  12.341
38858W        W11118  31.015  17.653   2.196
38859W        W11119  41.324  38.507  14.448
38860W        W11120  13.742   6.788  10.889
38861W        W11121   3.285  12.743   0.857
38862W        W11122  10.748  42.409  11.048
38863W        W11123  21.536   7.254   2.723
38864W        W11124  21.094  18.207  11.558
38865W        W11125  11.267  26.608  13.420
38866W        W11126  34.008  15.106  14.915
38867W        W11127  13.759   0.930   4.640
38868W        W11128  27.151  12.698  11.581
38869W        W11129  12.147   2.381  11.122
38870W        W11130  41.451  42.912   9.961
38871W        W11131  31.478  13.781   1.266
38872W        W11132  29.519  39.815  10.455
38873W        W11133   2.805  42.852  10.581
38874W        W11134  20.203  32.401   0.288
38875W        W11135  30.543  42.521  12.966
38876W        W11136  11.186   2.385  13.813
38877W        W11137   0.933  28.564  12.969
38878W        W11138  38.855  13.601   3.680
38879W        W11139  22.141  12.706   2.755
38880W        W11140  18.600  13.690  11.055
38881W        W11141   7.233   2.743   2.837
38882W        W11142  25.190  37.874   3.271
38883W        W11143  22.594  25.507   1.854
38884W        W11144  21.090   2.774  13.541
38885W        W11145  12.201  15.598   0.397
38886W        W11146  41.477  40.367  14.803
38887W        W11147  24.163  30.105  14.365
38888W        W11148  44.420  19.203   0.409
38889W        W11149   6.801  21.727  11.873
38890W        W11150  32.006  32.622  14.359
38891W        W11151  16.098  18.608   4.161
38892W        W11152   3.950  13.148   3.343
38893W        W11153   2.804  17.217   4.656
38894W        W11154   4.822  11.724   2.813
38895W        W11155  13.599  21.228  11.096
38896W        W11156  43.836  30.129   2.180
38897W        W11157   9.333  17.733   4.612
38898W        W11158   2.765  13.268   3.265
38899W        W11159  44.856  34.076   2.780
38900W        W11160   3.415  36.450  11.454
38901W        W11161  23.235  29.156  14.326
38902W        W11162  18.080  17.212   4.252
38903W        W11163  33.121  26.578   2.883
38904W        W11164  10.273   5.239   1.909
38905W        W11165  16.120  31.998  14.932
38906W        W11166   3.394  17.729   1.352
38907W        W11167  17.627  19.729  13.883
38908W        W11168  24.073  25.634  13.028
38909W        W11169  22.524  43.314  12.400
38910W        W11170  36.960   4.307  13.417
38911W        W11171  22.160  20.683  10.598
38912W        W11172   8.835  25.661   5.321
38913W        W11173   4.779  41.442  13.370
38914W        W11174  10.333  12.632  14.322
38915W        W11175  30.943  32.085  14.372
38916W        W11176  34.603  30.579   4.771
38917W        W11177  32.563   1.358   1.930
38918W        W11178   0.269  17.062   0.288
38919W        W11179  34.882  29.610   4.222
38920W        W11180  12.679  19.072  12.463
38921W        W11181  15.605  11.756   0.784
38922W        W11182  11.157  28.532   4.292
38923W        W11183  39.316   8.658  13.058
38924W        W11184   3.841  14.801   4.799
38925W        W11185   5.249  25.518   5.803
38926W        W11186  16.197   1.483   0.889
38927W        W11187   5.739  13.627   2.334
38928W        W11188  38.878  12.712   9.961
38929W        W11189  43.021  43.507  14.913
38930W        W11190   7.401   2.896  12.477
38931W        W11191  33.057   5.810  13.357
38932W        W11192   3.340  44.382  10.623
38933W        W11193   7.701  34.100  14.346
38934W        W11194   6.737  35.855  12.398
38935W        W11195   3.728  37.982   3.695
38936W        W11196  22.119  14.333   3.357
38937W        W11197   8.728  41.525  14.914
38938W        W11198  13.326  24.589   0.270
38939W        W11199   3.826   4.900   1.419
38940W        W11200  28.999   6.687   0.856
38941W        W11201   7.765   3.292   9.935
38942W        W11202  22.582  11.159   2.699
38943W        W11203   8.745  43.399   5.150
38944W        W11204  40.345   9.761  13.510
38945W        W11205  23.008  16.125   0.931
38946W        W11206  25.991  21.597  13.460
38947W        W11207   3.912  16.183  12.371
38948W        W11208  34.036  19.099  14.902
38949W        W11209   0.321   8.895   4.204
38950W        W11210   3.867  33.118   2.264
38951W        W11211  35.888  17.210  13.368
38952W        W11212  22.586  14.668   2.801
38953W        W11213  16.090  23.021  12.388
38954W        W11214  26.531  32.554  14.430
38955W        W11215  28.615   1.733   2.342
38956W        W11216  13.823  27.060   5.716
38957W        W11217  23.491  11.369  10.596
38958W        W11218  19.247  16.292   0.819
38959W        W11219  40.344  44.297  11.916
38960W        W11220  31.581  10.220  10.042
38961W        W11221   1.751  12.764  12.382
38962W        W11222   0.439  25.479   4.718
38963W        W11223  21.635  20.726  14.452
38964W        W11224  42.440  38.849  11.529
38965W        W11225  19.084  41.814  12.034
38966W        W11226  20.645  24.577  10.559
38967W        W11227  39.834  25.962  13.315
38968W        W11228  33.125   6.864   4.779
38969W        W11229  36.542  11.141   3.334
38970W        W11230  27.058   0.981   4.657
38971W        W11231   4.916  26.185   0.461
38972W        W11232  14.310  35.556   1.237
38973W        W11233   3.233  12.291   3.791
38974W        W11234  36.989  24.043   4.117
38975W        W11235   3.950  39.484   4.257
38976W        W11236  35.358  25.604  10.490
38977W        W11237  18.138  10.751   3.376
38978W        W11238  26.629  19.570   3.357
38979W        W11239   5.267  35.438   3.164
38980W        W11240  26.702  38.476  10.065
38981W        W11241  23.689  41.523  12.355
38982W        W11242   8.297  38.987  14.459
38983W        W11243   5.886  13.268   0.759
38984W        W11244  23.190   5.695   3.822
38985W        W11245  44.334  33.623   0.296
38986W        W11246  11.279  39.878  14.855
38987W        W11247  40.357  24.023   1.257
38988W        W11248   0.748  23.514   3.796
38989W        W11249  21.602  43.983  14.446
38990W        W11250  35.442  13.207   4.183
38991W        W11251   5.403   5.900  12.534
38992W        W11252  12.787  20.077  14.464
38993W        W11253  22.158  22.214   5.247
38994W        W11254  32.530  28.953  13.377
38995W        W11255  17.664  44.502   1.267
38996W        W11256  44.264  24.990   0.319
38997W        W11257   7.199  27.516  10.948
38998W        W11258  22.220  24.983   9.982
38999W        W11259  13.695   5.271  13.381
39000W        W11260  10.782   8.760   3.688
39001W        W11261  27.680  21.698  11.947
39002W        W11262  42.407  38.443   2.250
39003W        W11263  44.877  29.485  12.405
39004W        W11264  31.477  25.610  11.523
39005W        W11265  15.305  28.982   5.668
39006W        W11266   5.406   8.224  10.965
39007W        W11267  10.683  28.015   4.608
39008W        W11268  10.254  28.512   4.681
39009W        W11269  40.458  30.616   4.161
39010W        W11270  17.726  37.434   2.878
39011W        W11271  27.540  14.272  12.573
39012W        W11272  21.656  14.234   1.273
39013W        W11273  19.580   3.757   2.394
39014W        W11274  41.041  42.462   2.319
39015W        W11275   7.863  16.598  12.930
39016W        W11276  23.662  20.624   4.322
39017W        W11277  28.511  15.588   0.333
39018W        W11278  12.148  12.130  13.447
39019W        W11279   8.656   4.363  11.878
39020W        W11280  39.888   0.822   1.852
39021W        W11281  22.128  29.951   3.351
39022W        W11282   0.386  32.922  12.876
39023W        W11283  44.423  19.660  14.470
39024W        W11284  23.605  30.927   4.607
39025W        W11285  33.022  44.797   2.815
39026W        W11286  39.951  13.145   1.892
39027W        W11287  36.471  28.097  11.469
39028W        W11288  39.419  15.632  13.932
39029W        W11289  35.950  33.968   3.189
39030W        W11290  31.945  44.492   1.359
39031W        W11291  37.375  22.632  13.348
39032W        W11292  19.075  15.168  11.865
39033W        W11293  29.156  24.007  13.832
39034W        W11294  15.126  39.040  10.980
39035W        W11295  34.955  19.106   2.327
39036W        W11296  31.061  37.345  11.573
39037W        W11297   9.176   5.795  10.591
39038W        W11298  33.027  25.470  11.892
39039W        W11299  42.924  42.305  12.016
39040W        W11300  26.635  44.870   0.327
39041W        W11301  37.880   3.731  14.996
39042W        W11302  38.957  25.489   3.170
39043W        W11303  26.699  37.468  14.346
39044W        W11304  21.703   3.919  11.403
39045W        W11305  13.823  37.982  14.289
39046W        W11306  23.521   4.880   4.805
39047W        W11307  25.024  31.569  14.278
39048W        W11308   5.337  10.822  12.380
39049W        W11309  22.666  32.484   0.475
39050W        W11310  44.983  36.987   0.325
39051W        W11311  13.206  27.655   9.949
39052W        W11312   5.323   9.304  14.511
39053W        W11313  26.615  20.761  13.059
39054W        W11314  15.276  39.997   2.193
39055W        W11315  12.716  11.313  12.344
39056W        W11316  28.002   0.329   4.662
39057W        W11317  21.757   6.387  13.925
39058W        W11318  39.473  41.991  11.872
39059W        W11319  16.617  17.247  12.000
39060W        W11320  35.462  30.647   3.348
39061W        W11321   5.431  40.957   4.832
39062W        W11322   6.818   8.312  11.868
39063W        W11323   6.702  17.272   3.379
39064W        W11324  22.687   0.950   2.792
39065W        W11325  39.392  18.058  13.393
39066W        W11326  34.982  19.768   3.333
39067W        W11327   1.358  12.835   3.170
39068W        W11328  25.098   1.265   3.687
39069W        W11329  43.778  27.178  11.427
39070W        W11330  13.344  25.106   0.765
39071W        W11331  42.023  19.723   5.122
39072W        W11332  30.511  23.622   2.875
39073W        W11333  23.067  17.141  12.519
39074W        W11334  18.709  11.802   3.841
39075W        W11335  21.709  26.204  10.575
39076W        W11336  24.017   0.305   9.970
39077W        W11337  36.908  24.717  13.333
39078W        W11338  15.737  38.070   1.845
39079W        W11339  29.118   1.824   2.333
39080W        W11340   4.213  43.378  11.509
39081W        W11341  41.304  18.066   1.761
39082W        W11342  19.083  17.643  10.425
39083W        W11343  27.004  28.185   2.241
39084W        W11344   1.874  23.196   2.868
39085W        W11345   2.828  35.561  14.383
39086W        W11346  27.061   3.420   1.919
39087W        W11347  29.011  10.372   3.833
39088W        W11348  31.086  31.995  13.345
39089W        W11349  42.849   6.200  14.314
39090W        W11350  15.670  37.394   0.290
39091W        W11351  20.203  21.195  10.468
39092W        W11352  40.368   6.238   1.858
39093W        W11353  11.237  12.742   0.338
39094W        W11354  34.413  37.843  14.831
39095W        W11355   7.288  37.869   3.163
39096W        W11356  29.042  16.626   2.340
39097W        W11357  23.679  25.049  12.372
39098W        W11358  17.777  16.179  10.547
39099W        W11359  41.408  25.063   2.318
39100W        W11360  39.838   7.702   0.945
39101W        W11361   0.929   8.342   3.680
39102W        W11362  39.000  15.191   0.937
39103W        W11363  33.442   3.310  14.830
39104W        W11364  38.486   3.789  12.416
39105W        W11365  13.110  13.626   3.300
39106W        W11366  43.910  17.295  10.554
39107W        W11367  31.481  13.642  10.909
39108W        W11368   3.450  32.942  12.037
39109W        W11369  12.304  36.002   2.670
39110W        W11370  22.577   7.785   5.303
39111W        W11371  38.326  23.009  10.561
39112W        W11372  30.651  39.981  13.973
39113W        W11373  31.100  14.791   4.201
39114W        W11374  15.107  37.457   1.726
39115W        W11375   3.400  42.867  13.897
39116W        W11376  24.513  27.521  12.429
39117W        W11377  42.474  37.555   3.861
39118W        W11378  32.927  10.646   1.327
39119W        W11379   4.890  44.995  13.460
39120W        W11380  16.759  39.488   3.731
39121W        W11381   6.326   3.367  11.872
39122W        W11382   7.283  19.243  14.014
39123W        W11383  42.334  14.743   0.311
39124W        W11384  32.930  34.504   1.334
39125W        W11385  30.003  13.169  11.996
39126W        W11386  32.478  29.017  12.005
39127W        W11387  10.762  27.947   3.190
39128W        W11388  10.682  23.575   4.660
39129W        W11389  35.455  44.272   3.385
39130W        W11390  19.685   5.235   4.281
39131W        W11391  40.353  29.592  10.907
39132W        W11392  25.478  39.331   1.423
39133W        W11393  23.506  11.261   3.176
39134W        W11394  17.614  16.612   3.730
39135W        W11395  44.792  44.299  12.070
39136W        W11396   1.821  27.675   2.869
39137W        W11397   2.863  44.327  11.977
39138W        W11398  32.403  28.567   2.773
39139W        W11399   0.310  19.197   0.964
39140W        W11400  14.303   8.706   5.189
39141W        W11401  40.835  24.179   4.142
39142W        W11402  10.314  41.857  13.949
39143W        W11403  30.611  35.903  12.992
39144W        W11404   2.461  31.417   3.348
39145W        W11405  10.719  23.223   4.685
39146W        W11406   7.801   3.931  11.372
39147W        W11407  22.121  16.712   3.177
39148W        W11408  12.612  16.780  12.541
39149W        W11409  20.747  10.366  11.127
39150W        W11410  17.262  27.123  11.404
39151W        W11411   0.801  16.085  12.554
39152W        W11412  22.098  26.036  12.570
39153W        W11413   0.413  20.714  11.376
39154W        W11414  25.141  31.552  13.005
39155W        W11415  17.282  34.587  14.798
39156W        W11416  13.194  39.882   1.735
39157W        W11417  17.607   3.936  14.883
39158W        W11418  17.139  15.803  10.113
39159W        W11419  17.277  22.056   4.269
39160W        W11420  13.247  21.650   4.825
39161W        W11421  16.813  35.108   0.737
39162W        W11422  42.994   7.847  10.989
39163W        W11423  10.326  40.033  12.449
39164W        W11424  21.248   3.350  11.961
39165W        W11425  32.538  26.991  10.519
39166W        W11426   6.900  44.322   0.255
39167W        W11427  22.225   4.778   2.375
39168W        W11428   7.367  39.513  12.865
39169W        W11429  42.817   3.328  14.417
39170W        W11430   5.390  15.805  14.768
39171W        W11431  41.398  33.067   4.218
39172W        W11432  17.271  12.642   4.202
39173W        W11433  32.979   2.307   4.805
39174W        W11434  22.054  33.983   2.672
39175W        W11435  34.484  20.721  11.939
39176W        W11436   9.302  34.584   1.807
39177W        W11437  20.215  22.090   0.823
39178W        W11438  41.911  21.567   3.768
39179W        W11439  16.706  10.864   1.769
39180W        W11440  27.510  35.917   3.296
39181W        W11441  12.722   8.373  12.001
39182W        W11442  10.205  37.929   3.808
39183W        W11443   9.662  40.918   2.870
39184W        W11444  36.921  44.929  12.416
39185W        W11445  23.180  30.414  11.448
39186W        W11446   8.192  40.305  14.968
39187W        W11447  35.492  14.184  10.475
39188W        W11448  23.662  29.947   2.769
39189W        W11449  40.873  12.118  13.313
39190W        W11450  44.344   6.284  12.064
39191W        W11451  42.942  41.857   5.093
39192W        W11452  24.187  23.708   3.794
39193W        W11453   5.905   7.747   3.659
39194W        W11454  34.405   4.850   2.259
39195W        W11455  11.265   8.725   2.391
39196W        W11456  28.126  12.321   1.311
39197W        W11457  33.073  31.584   0.377
39198W        W11458  20.659  19.227   2.229
39199W        W11459  37.962   3.786   4.199
39200W        W11460  39.061  14.789  14.849
39201W        W11461   9.847  21.244  12.431
39202W        W11462  39.009  41.460  11.871
39203W        W11463  43.974  34.583   4.144
39204W        W11464  23.072  20.767   1.816
39205W        W11465  40.506  42.778  14.416
39206W        W11466  44.464  36.961  11.120
39207W        W11467   6.865  44.437   2.783
39208W        W11468  33.117  26.528  13.896
39209W        W11469  36.361  42.324   4.768
39210W        W11470  33.004  33.074  12.040
39211W        W11471  20.733  23.518  11.533
39212W        W11472  44.758  25.147   1.705
39213W        W11473  33.396   5.283  10.611
39214W        W11474   9.217  15.101   0.772
39215W        W11475  26.697  16.775   2.325
39216W        W11476  15.725  30.972   3.178
39217W        W11477  38.555  22.100   0.815
39218W        W11478   9.255  27.625   3.659
39219W        W11479  20.617  27.627  12.385
39220W        W11480  41.420  10.378   0.348
39221W        W11481  32.487  43.305   2.243
39222W        W11482  10.341   6.183  13.344
39223W        W11483   7.740  29.487   2.761
39224W        W11484   8.188   9.657  11.535
39225W        W11485   2.459   5.696  14.283
39226W        W11486   5.921  17.700  11.409
39227W        W11487  16.715  13.646   4.295
39228W        W11488  12.208  20.689  10.437
39229W        W11489   8.262   6.885  13.424
39230W        W11490  14.736  18.745  12.040
39231W        W11491   8.712   4.264   3.659
39232W        W11492  44.433  28.116  10.480
39233W        W11493  28.994  44.010  13.535
39234W        W11494  17.710  41.376  10.899
39235W        W11495   7.754  22.686   3.722
39236W        W11496  31.476  34.598   2.273
39237W        W11497  34.492  16.567   0.368
39238W        W11498   7.402   9.312  10.537
39239W        W11499  41.800  24.985  13.369
39240W        W11500   9.187  11.665  12.369
39241W        W11501   9.192  21.075  12.474
39242W        W11502  10.682  38.401   2.336
39243W        W11503  36.096  27.567  14.880
39244W        W11504   7.256  44.497   1.925
39245W        W11505   1.330  36.968   4.144
39246W        W11506  32.898  12.800   3.286
39247W        W11507  21.623  17.066  14.773
39248W        W11508  31.597  16.127   0.420
39249W        W11509  12.820  25.628   3.837
39250W        W11510  15.114  11.706   0.870
39251W        W11511  16.246   5.391  13.919
39252W        W11512  37.915   6.231  12.523
39253W        W11513   4.332  13.770   2.720
39254W        W11514  40.834   1.414   2.269
39255W        W11515   4.227   2.366   4.599
39256W        W11516   1.849  29.617  10.893
39257W        W11517   7.706   1.312  13.003
39258W        W11518  31.017  16.088  11.127
39259W        W11519  28.066   9.321  14.324
39260W        W11520  25.706  22.191  14.435
39261W        W11521  26.047  15.692   1.417
39262W        W11522  20.581  37.003  11.446
39263W        W11523  28.956  43.770   3.270
39264W        W11524  24.680  41.036  12.577
39265W        W11525  16.784  22.656  14.323
39266W        W11526  13.163  11.257  10.089
39267W        W11527   5.867  29.969  10.419
39268W        W11528  11.836   5.786   1.867
39269W        W11529  11.183  11.304  10.588
39270W        W11530  39.941   4.771  13.482
39271W        W11531  42.374  23.101  12.862
39272W        W11532  24.986   2.895  14.990
39273W        W11533  43.446  36.530   2.419
39274W        W11534   3.389   6.260  14.482
39275W        W11535  11.657  37.077  12.095
39276W        W11536  13.279  21.030  11.123
39277W        W11537  27.669  39.898  13.991
39278W        W11538  12.192  21.711   0.798
39279W        W11539  37.537   6.420   0.945
39280W        W11540  42.405  10.863  10.437
39281W        W11541  18.548  18.680  14.773
39282W        W11542  32.110  30.528  10.492
39283W        W11543   7.183   6.188   1.880
39284W        W11544  30.960   8.878   0.755
39285W        W11545  38.463   8.894  14.447
39286W        W11546  31.107   9.368   0.780
39287W        W11547  16.079  44.436  10.982
39288W        W11548  23.619  35.060   2.408
39289W        W11549  24.008  42.966   3.314
39290W        W11550  17.079  44.304  11.033
39291W        W11551  29.926  15.822   4.640
39292W        W11552   1.873   5.307  13.022
39293W        W11553  34.380  28.495  14.784
39294W        W11554  44.867  21.233  11.096
39295W        W11555  37.934  30.097  14.933
39296W        W11556  30.983  30.977  13.837
39297W        W11557  36.019   5.225   1.334
39298W        W11558  10.878  39.517  11.037
39299W        W11559  20.579  16.695   1.291
39300W        W11560   5.833  32.421   1.845
39301W        W11561  29.984  26.009   0.466
39302W        W11562   6.333  29.087  14.977
39303W        W11563  39.477   1.962  13.472
39304W        W11564  34.548  37.921   3.306
39305W        W11565  11.765  23.028   1.389
39306W        W11566  17.162  36.080   4.161
39307W        W11567  26.150   3.772   2.326
39308W        W11568  23.629  33.103   0.832
39309W        W11569   8.365  18.196  11.960
39310W        W11570  39.841  12.247  14.943
39311W        W11571  35.363  28.634   2.246
39312W        W11572  19.739  17.584   3.855
39313W        W11573  39.857  20.217   1.728
39314W        W11574  34.394  18.637   5.723
39315W        W11575  30.467  16.314  13.493
39316W        W11576  33.921  21.146  12.080
39317W        W11577  18.731  33.018  13.812
39318W        W11578  16.635  14.094  11.027
39319W        W11579   2.818  25.681   0.965
39320W        W11580  13.302  23.607   3.212
39321W        W11581  42.381  11.807   4.337
39322W        W11582   2.806  23.565  13.836
39323W        W11583  37.524   0.876  11.392
39324W        W11584  31.465  20.093   1.802
39325W        W11585   1.350   3.410  13.855
39326W        W11586  38.390   0.875   4.719
39327W        W11587  43.318   5.413  13.398
39328W        W11588  18.231   7.694   2.205
39329W        W11589  42.783  12.768  14.018
39330W        W11590  22.147  36.512   2.874
39331W        W11591   5.848  13.209   3.853
39332W        W11592  19.716   7.714  14.498
39333W        W11593  36.576   5.694   4.155
39334W        W11594  19.679  20.709   1.343
39335W        W11595  19.736  21.256  12.352
39336W        W11596  34.084  33.087  13.396
39337W        W11597  44.939  19.240  13.040
39338W        W11598   1.775  10.767  12.351
39339W        W11599  19.545  31.119   4.598
39340W        W11600  11.646  20.589   3.331
39341W        W11601  30.485   5.862   0.356
39342W        W11602  33.466  40.801  13.493
39343W        W11603   3.855  34.466   4.811
39344W        W11604  23.005  25.554   9.630
39345W        W11605   1.447  14.203  12.457
39346W        W11606   1.389  14.766  14.303
39347W        W11607   7.186   4.757   4.609
39348W        W11608   8.755  12.288   2.851
39349W        W11609   4.867  18.217   2.741
39350W        W11610   8.865  22.558  12.453
39351W        W11611  35.577  14.131  14.862
39352W        W11612  33.487   7.416  13.325
39353W        W11613  36.944  40.985   4.828
39354W        W11614  27.450   3.799  12.507
39355W        W11615  10.238  36.349   3.845
39356W        W11616  25.568   6.820   4.664
39357W        W11617  24.137  36.041   4.289
39358W        W11618  27.577  19.621  12.925
39359W        W11619  22.059   9.839  10.495
39360W        W11620  33.531   9.766   2.853
39361W        W11621  35.051  44.940  11.857
39362W        W11622  25.485  39.065   4.766
39363W        W11623  38.985  41.317   5.225
39364W        W11624  29.534  11.858  10.511
39365W        W11625  40.398   8.220   1.416
39366W        W11626  12.180  24.725  11.514
39367W        W11627   2.951  36.428  12.351
39368W        W11628  21.575  40.401  12.377
39369W        W11629  32.543   2.446   4.744
39370W        W11630   6.340  33.557  13.394
39371W        W11631  14.826  27.989   2.793
39372W        W11632   6.330   5.391   4.836
39373W        W11633  24.655   2.328  13.042
39374W        W11634  37.863  15.202   0.948
39375W        W11635  10.682  30.103   3.726
39376W        W11636   9.815  16.287   4.630
39377W        W11637   0.317   6.299   2.697
39378W        W11638  27.563  40.448  10.023
39379W        W11639   7.190   6.718  11.016
39380W        W11640  37.397  24.176   5.251
39381W        W11641  12.362   9.151  14.923
39382W        W11642  21.243  42.842  12.887
39383W        W11643   4.904   0.927  13.980
39384W        W11644   9.305  33.528  12.502
39385W        W11645   0.370  29.977  13.378
39386W        W11646  32.008  16.153  11.529
39387W        W11647  25.065   4.333   4.173
39388W        W11648  13.759  36.458   2.689
39389W        W11649  43.890  35.926   1.826
39390W        W11650  17.243  41.026   9.969
39391W        W11651  36.052   0.823   3.826
39392W        W11652  18.662  34.907   1.884
39393W        W11653  17.190  44.362   9.950
39394W        W11654  11.768  25.709   1.779
39395W        W11655  32.015  44.503   3.773
39396W        W11656  38.427  23.107  13.503
39397W        W11657  42.451   3.732  13.539
39398W        W11658  22.730   2.401  11.015
39399W        W11659  36.437   7.414   0.744
39400W        W11660  38.071   3.236   3.176
39401W        W11661  35.036  31.543  10.919
39402W        W11662  43.972  24.674   3.647
39403W        W11663  11.129  44.439   3.223
39404W        W11664  18.757  13.234  12.931
39405W        W11665  13.120  17.118  12.386
39406W        W11666  29.562  11.163   2.370
39407W        W11667  14.784  27.489   5.176
39408W        W11668  18.776   6.774   3.246
39409W        W11669  30.097  20.729  13.318
39410W        W11670  13.675  10.353  13.362
39411W        W11671  10.349   0.989   3.276
39412W        W11672   2.300   7.893   0.826
39413W        W11673  24.138  39.975  13.382
39414W        W11674  32.503  16.684   3.307
39415W        W11675  26.641  28.000   0.883
39416W        W11676  33.074  22.149   4.696
39417W        W11677   3.787  27.601   2.814
39418W        W11678  10.661  32.104  13.428
39419W        W11679  10.367  33.400   0.261
39420W        W11680  32.115  20.596   4.791
39421W        W11681  18.570  15.150  14.812
39422W        W11682  28.130  30.049   4.176
39423W        W11683  41.496   2.315  14.963
39424W        W11684   5.296  38.550  10.445
39425W        W11685  13.282  34.041  13.428
39426W        W11686   8.700  20.660  14.865
39427W        W11687  26.025   5.434  13.011
39428W        W11688  33.067  34.120  13.400
39429W        W11689  41.500   7.864  11.544
39430W        W11690  19.591  38.819   3.683
39431W        W11691   5.347  12.679  12.512
39432W        W11692  42.962  10.720  11.391
39433W        W11693  40.945  35.379   4.794
39434W        W11694  43.924  23.700   1.703
39435W        W11695   0.955   4.815   0.450
39436W        W11696  13.255   5.754   4.330
39437W        W11697   0.324  21.685   0.816
39438W        W11698   3.758  27.195  12.092
39439W        W11699  16.239  36.493  12.467
39440W        W11700  33.571  30.572  13.374
39441W        W11701   3.416  20.137   2.352
39442W        W11702  40.026  41.975   1.766
39443W        W11703   8.687   6.748  12.359
39444W        W11704  40.526  37.856   2.406
39445W        W11705  39.829  13.699   2.370
39446W        W11706  40.942  41.383   3.305
39447W        W11707  39.548  25.053   2.179
39448W        W11708  44.469  39.812  10.410
39449W        W11709   6.746  18.657  13.434
39450W        W11710  12.229  21.177  12.435
39451W        W11711  20.545  20.532  10.451
39452W        W11712  37.381  31.017  12.032
39453W        W11713   3.324   8.891  13.797
39454W        W11714  33.982  22.702  11.075
39455W        W11715  10.148  24.649  11.374
39456W        W11716   0.338  30.415   2.302
39457W        W11717  32.412  13.336  13.819
39458W        W11718  16.175  28.037   2.717
39459W        W11719  41.864  18.093   4.758
39460W        W11720  20.245  43.493  13.024
39461W        W11721  30.973  38.001  11.010
39462W        W11722  11.295  32.551  10.454
39463W        W11723  39.027   5.815  13.545
39464W        W11724  20.215  10.190   4.349
39465W        W11725  27.196  23.094   4.236
39466W        W11726  11.316  29.459   4.621
39467W        W11727   8.784  37.066  11.113
39468W        W11728  31.118  31.047  14.376
39469W        W11729  37.925  32.983  11.396
39470W        W11730  32.019  37.513  10.573
39471W        W11731  28.012  32.892  11.590
39472W        W11732   4.389  17.245  14.287
39473W        W11733  39.827  42.451   3.719
39474W        W11734  17.227  34.942  10.485
39475W        W11735  23.649   9.264  14.763
39476W        W11736   8.405  37.563  13.398
39477W        W11737  25.569  18.272   0.736
39478W        W11738  24.018   7.865   4.179
39479W        W11739  27.981  35.430   0.346
39480W        W11740   8.668  44.847   4.117
39481W        W11741  37.449  14.593   5.144
39482W        W11742  22.038  13.770  13.862
39483W        W11743  42.526  20.179   0.282
39484W        W11744   2.341  32.058  14.841
39485W        W11745   7.379  21.121  14.865
39486W        W11746  15.286  16.775   1.833
39487W        W11747   5.775   8.297  11.116
39488W        W11748  16.137  11.139   2.746
39489W        W11749  19.668  25.601  14.921
39490W        W11750   6.327   6.371  14.972
39491W        W11751   8.694  43.775  14.346
39492W        W11752  16.130  36.487   3.189
39493W        W11753   0.372  13.736   1.320
39494W        W11754  42.466  24.225  14.959
39495W        W11755  41.044  13.214   0.360
39496W        W11756  32.558  23.586   3.168
39497W        W11757   6.818  13.800  14.407
39498W        W11758  35.880  23.612  11.116
39499W        W11759  37.498  38.352  13.878
39500W        W11760  22.654  43.920  13.310
39501W        W11761   8.396   6.397   2.180
39502W        W11762   2.307  31.927  12.986
39503W        W11763   2.815   9.265   3.224
39504W        W11764  11.289  29.169   3.865
39505W        W11765   7.899  44.854  11.116
39506W        W11766  12.262  31.027   1.805
39507W        W11767  23.216  41.990   3.346
39508W        W11768  12.621  30.597  10.130
39509W        W11769  42.876  34.065  11.109
39510W        W11770  35.933   2.289  13.891
39511W        W11771  13.672  40.963   4.123
39512W        W11772  13.268  44.386  12.564
39513W        W11773  16.812  17.572  14.376
39514W        W11774  24.601   4.402   1.841
39515W        W11775   8.292  39.400  12.077
39516W        W11776  43.348  26.085   3.177
39517W        W11777   3.228  43.414  12.565
39518W        W11778  35.875  26.202   4.622
39519W        W11779  21.623  35.936   2.330
39520W        W11780  23.601  39.895  14.404
39521W        W11781  26.962  44.955   1.387
39522W        W11782  29.603  27.105  10.638
39523W        W11783  21.209  19.125  10.061
39524W        W11784  23.990  30.914   1.358
39525W        W11785  35.412   5.699  14.391
39526W        W11786  25.108  40.918   0.767
39527W        W11787  40.050  38.053  12.513
39528W        W11788  37.416  15.664   9.980
39529W        W11789  23.716   4.722  11.914
39530W        W11790  32.999  20.176  10.021
39531W        W11791  27.160  21.156  14.985
39532W        W11792   8.274  20.042  11.074
39533W        W11793   6.262  27.128  12.554
39534W        W11794  41.305  20.218  12.995
39535W        W11795  38.032  21.550   0.780
39536W        W11796   6.742  38.532  14.506
39537W        W11797  29.670  10.706  11.101
39538W        W11798  31.623  12.775   0.737
39539W        W11799   0.947  12.652  12.095
39540W        W11800   8.383  43.874  14.420
39541W        W11801  12.637  25.156  12.906
39542W        W11802  12.665  39.449   3.190
39543W        W11803  32.885   0.922   1.711
39544W        W11804   3.948  15.299   1.313
39545W        W11805  23.657  28.590   1.933
39546W        W11806  32.604  44.479  14.351
39547W        W11807  17.146  21.082  13.018
39548W        W11808  37.915   2.352   3.345
39549W        W11809  22.588  40.846  12.489
39550W        W11810   0.442  14.173   2.205
39551W        W11811  18.174   9.741   3.845
39552W        W11812  39.872   9.226   4.205
39553W        W11813   6.279  16.763  14.424
39554W        W11814  33.881  38.921   4.637
39555W        W11815  33.583   5.896   1.443
39556W        W11816  13.287  11.621  13.448
39557W        W11817  30.510  11.353  13.804
39558W        W11818  11.216  17.099   0.968
39559W        W11819  19.140  26.697   5.293
39560W        W11820   5.790  30.071   1.390
39561W        W11821  42.789  17.658  12.404
39562W        W11822  22.102  11.653   1.697
39563W        W11823   5.281   8.811   0.779
39564W        W11824   3.884   8.683  13.530
39565W        W11825  17.137  20.041  14.398
39566W        W11826  14.111  44.939  14.927
39567W        W11827  40.318  16.646  12.037
39568W        W11828  14.745  10.687  13.519
39569W        W11829  33.446  21.697  14.950
39570W        W11830  15.256  11.347   1.339
39571W        W11831  39.062  40.955  12.451
39572W        W11832   6.899   9.744   1.304
39573W        W11833  16.688  35.400  13.531
39574W        W11834  19.623  30.595  13.476
39575W        W11835  40.318  41.510   3.784
39576W        W11836  18.713  13.645   1.865
39577W        W11837  37.048  30.425  13.813
39578W        W11838  12.324  15.706   2.361
39579W        W11839  41.509  19.651   0.288
39580W        W11840  19.598  16.717   3.801
39581W        W11841  26.042  13.162   1.879
39582W        W11842  23.030  36.390  10.992
39583W        W11843   8.871  24.088  12.350
39584W        W11844   0.848   4.762  10.506
39585W        W11845   2.277  20.572  14.313
39586W        W11846  24.539  10.242  14.004
39587W        W11847   7.414  37.912   1.377
39588W        W11848   0.945  16.694  10.494
39589W        W11849   3.943  43.369  11.480
39590W        W11850   2.879  39.014   1.814
39591W        W11851  11.200  43.303  11.568
39592W        W11852  30.948  36.002   4.189
39593W        W11853  10.238   9.710   3.145
39594W        W11854  16.777   5.263  12.873
39595W        W11855  24.661  35.071  12.980
39596W        W11856  23.589  16.783  13.828
39597W        W11857  44.343  16.649  12.381
39598W        W11858  43.804  21.134   1.305
39599W        W11859  35.945  39.052  12.058
39600W        W11860  41.878  42.382   2.237
39601W        W11861  27.062  40.052  12.939
39602W        W11862  28.664  36.436   0.265
39603W        W11863  19.276   6.378  13.995
39604W        W11864  24.227  25.687   4.648
39605W        W11865   2.431  43.462  12.039
39606W        W11866  33.444   5.775  12.082
39607W        W11867   4.848  25.163   2.333
39608W        W11868  38.880  43.433  12.486
39609W        W11869   8.375   9.768  10.632
39610W        W11870  38.996  37.070  14.335
39611W        W11871   6.328  13.721   2.897
39612W        W11872  26.676  12.161   0.459
39613W        W11873  18.614  37.369  11.924
39614W        W11874  41.463  30.549  14.842
39615W        W11875  27.499  31.426  14.957
39616W        W11876   4.232   4.287  14.792
39617W        W11877  32.618  36.560   4.806
39618W        W11878  32.571   1.469   2.208
39619W        W11879   6.203  36.567   0.455
39620W        W11880  21.616  36.033  14.864
39621W        W11881  11.864  12.795  10.060
39622W        W11882  18.595   6.785  12.911
39623W        W11883  39.538   9.856   1.396
39624W        W11884  16.194  22.513  13.998
39625W        W11885  25.684  34.048   1.846
39626W        W11886  11.139  16.630  12.033
39627W        W11887  33.599  15.723   5.241
39628W        W11888  41.029  11.793  13.477
39629W        W11889   3.329   1.806  12.941
39630W        W11890   3.743   0.398   4.698
39631W        W11891  37.021  28.493   3.683
39632W        W11892  40.050  13.689  11.968
39633W        W11893  18.583  11.153   0.407
39634W        W11894  31.087   8.233  14.430
39635W        W11895  37.968  33.909  14.926
39636W        W11896  36.846  28.520  12.871
39637W        W11897  14.664  15.616  13.375
39638W        W11898   9.239  16.741   4.306
39639W        W11899  42.483  33.111   4.831
39640W        W11900  26.626  31.411  14.343
39641W        W11901  32.039  15.684   3.233
39642W        W11902  43.376  32.434  10.989
39643W        W11903  15.751   0.401   0.383
39644W        W11904  27.506  24.978   2.712
39645W        W11905   4.790  13.273   0.956
39646W        W11906  34.004  14.651   1.368
39647W        W11907   5.419   7.186  11.538
39648W        W11908  32.411   6.748   2.721
39649W        W11909  34.440   2.800  10.580
39650W        W11910  22.223  13.248   1.923
39651W        W11911  42.441  36.017   0.825
39652W        W11912  16.174  38.828  11.591
39653W        W11913   6.908   3.434  14.412
39654W        W11914  33.003  25.998  13.366
39655W        W11915  34.961   6.288   0.776
39656W        W11916  37.046  34.371   0.329
39657W        W11917  12.181  29.156   1.427
39658W        W11918  41.875  36.395  12.364
39659W        W11919  10.806  11.770  12.526
39660W        W11920  35.383  24.110  14.841
39661W        W11921  28.582  20.763  14.435
39662W        W11922  40.378  35.061   9.941
39663W        W11923  12.218  32.034   1.265
39664W        W11924  21.119  27.031   3.215
39665W        W11925  17.220  27.502   0.393
39666W        W11926  17.193  22.721   5.111
39667W        W11927  32.050  35.967   2.724
39668W        W11928  18.269  10.347  10.903
39669W        W11929  16.224  43.926  11.000
39670W        W11930  18.606  38.941   1.291
39671W        W11931  25.507  22.165  13.489
39672W        W11932  15.672  39.914   1.704
39673W        W11933   9.885  44.937   1.746
39674W        W11934  34.052  15.743   0.297
39675W        W11935  44.837  14.301  13.048
39676W        W11936  18.561  44.871  14.778
39677W        W11937  21.052  31.139  12.950
39678W        W11938  29.023  10.749  10.593
39679W        W11939  24.651  24.223  11.860
39680W        W11940  33.959  12.626  12.843
39681W        W11941  34.969   4.701   4.747
39682W        W11942  10.330  28.488  11.487
39683W        W11943   5.307  26.055  13.904
39684W        W11944  18.257   4.282   2.662
39685W        W11945  44.831  20.595  14.491
39686W        W11946  11.170   1.452   4.142
39687W        W11947  36.565   8.328   4.636
39688W        W11948  23.166  18.263  12.429
39689W        W11949  14.727  15.741  14.833
39690W        W11950  34.006   5.722  13.954
39691W        W11951  30.127  35.923  14.362
39692W        W11952  22.629  32.969  12.370
39693W        W11953  25.634  43.396   1.220
39694W        W11954  35.477  29.979  13.948
39695W        W11955   7.770  44.381  11.992
39696W        W11956  42.995  16.214  14.342
39697W        W11957  34.884  44.871  14.932
39698W        W11958  17.697  37.028   2.367
39699W        W11959  31.574  11.777   3.354
39700W        W11960   7.206  27.502   3.695
39701W        W11961  30.565  31.931   0.312
39702W        W11962  28.049  14.705   1.436
39703W        W11963  14.308  44.417   3.353
39704W        W11964  13.766  23.146   3.635
39705W        W11965   9.321  32.400   0.471
39706W        W11966  17.570   2.280   1.274
39707W        W11967  22.158  25.634   3.289
39708W        W11968  11.842  13.349  12.080
39709W        W11969  17.170   7.688  12.910
39710W        W11970  15.613  15.770  12.531
39711W        W11971  14.666  10.787  14.348
39712W        W11972  42.471  14.288  11.997
39713W        W11973   2.228  26.172  12.907
39714W        W11974  34.979  29.524  14.986
39715W        W11975  42.306  33.624   2.345
39716W        W11976   7.405  40.911  13.860
39717W        W11977   1.257   9.757   4.757
39718W        W11978  35.498  20.653  13.489
39719W        W11979  37.352  21.652  13.494
39720W        W11980  22.186   4.422   1.806
39721W        W11981  17.605   8.188   0.364
39722W        W11982  24.494  35.954  13.880
39723W        W11983  26.529  39.412   0.448
39724W        W11984  17.607  24.183  13.382
39725W        W11985   4.825   0.319  11.515
39726W        W11986  27.171  32.540   1.718
39727W        W11987  23.552  35.102  14.468
39728W        W11988   0.329  35.975   3.177
39729W        W11989  15.190   7.783   1.838
39730W        W11990  31.152  40.009  10.449
39731W        W11991   8.389  17.693  10.459
39732W        W11992  10.185  38.513   4.246
39733W        W11993  34.082  20.681  13.336
39734W        W11994  42.924  26.062   1.228
39735W        W11995  31.488  36.551  13.504
39736W        W11996  16.661  27.479  13.997
39737W        W11997   2.943  11.240  14.278
39738W        W11998  44.318   7.259   3.824
39739W        W11999  36.923  17.720  12.458
39740W        W12000  23.592  39.869   3.654
39741W        W12001  20.029  19.112  14.455
39742W        W12002  11.352  19.599  14.459
39743W        W12003  15.696  43.500   5.154
39744W        W12004  31.630  11.143  13.357
39745W        W12005  17.653   6.255  14.978
39746W        W12006  36.487  23.626   2.708
39747W        W12007  31.958   3.715   2.814
39748W        W12008  41.328  36.057   3.870
39749W        W12009  32.540  15.759  11.951
39750W        W12010   3.748  13.720  11.963
39751W        W12011  30.599  35.014  12.937
39752W        W12012  34.882   5.722   1.704
39753W        W12013   5.208  11.751   0.244
39754W        W12014  22.727  28.625   2.796
39755W        W12015  24.093  36.856  11.586
39756W        W12016  44.828  34.100  13.471
39757W        W12017  27.683  32.609   3.158
39758W        W12018   8.850  41.344  12.534
39759W        W12019   6.912  20.665   4.326
39760W        W12020  44.456   6.345  14.932
39761W        W12021   7.693  35.915  11.984
39762W        W12022  23.700  13.202   0.923
39763W        W12023  16.595  23.152  14.024
39764W        W12024  28.594  43.784   0.802
39765W        W12025  27.007  19.249  11.063
39766W        W12026  44.848  13.717  13.897
39767W        W12027  31.062  37.055  12.456
39768W        W12028  27.031  12.211  14.002
39769W        W12029  38.991  23.113   0.903
39770W        W12030  28.979  28.614   2.300
39771W        W12031  39.393   7.205  11.086
39772W        W12032  29.929  35.467   0.804
39773W        W12033  11.784  12.308  12.947
39774W        W12034   4.428  38.009   4.772
39775W        W12035  27.964  20.611   0.420
39776W        W12036   3.879  29.461  12.057
39777W        W12037   0.744  11.625  10.013
39778W        W12038  28.066  38.947   1.280
39779W        W12039   3.263  39.022   3.825
39780W        W12040  38.447  28.106   2.351
39781W        W12041  39.457  28.113   2.786
39782W        W12042  15.195  38.909  14.927
39783W        W12043  37.021   0.895   0.792
39784W        W12044   1.458  16.604  13.369
39785W        W12045  42.860  17.213  12.371
39786W        W12046  18.283   1.859  11.041
39787W        W12047  25.669  19.208   4.837
39788W        W12048  11.256  17.769  11.070
39789W        W12049   6.231  27.189   4.791
39790W        W12050  18.648  13.168  11.597
39791W        W12051  42.293  26.577  11.568
39792W        W12052  10.751  30.439  12.393
39793W        W12053  38.060  30.049  10.967
39794W        W12054  13.187  18.254   3.753
39795W        W12055  39.865   0.908  13.821
39796W        W12056  43.486  39.016   4.187
39797W        W12057   9.183   6.274  13.869
39798W        W12058  14.704  37.415   5.096
39799W        W12059  15.695  30.981   1.237
39800W        W12060   5.196  43.432  13.377
39801W        W12061  17.684   1.463  14.790
39802W        W12062   4.794  21.513  12.834
39803W        W12063  17.097  24.000  11.078
39804W        W12064  12.810  33.024   0.916
39805W        W12065  17.239  27.569  11.580
39806W        W12066  11.236  44.261  10.140
39807W        W12067  23.198   9.773  13.807
39808W        W12068  20.743   9.691   0.911
39809W        W12069  23.707  34.596   2.355
39810W        W12070   0.341  42.322   1.783
39811W        W12071  23.060  15.630  12.945
39812W        W12072   4.786  39.415  12.432
39813W        W12073  23.158   3.346  11.602
39814W        W12074  18.626  36.351   1.260
39815W        W12075  11.133   3.331   3.284
39816W        W12076  18.227  30.542  12.551
39817W        W12077   6.338  43.388   2.740
39818W        W12078  11.279  33.619   0.941
39819W        W12079   7.778  22.655   0.293
39820W        W12080   5.790   8.737   3.651
39821W        W12081  32.403  21.216   1.366
39822W        W12082  24.034  33.482   0.842
39823W        W12083  15.785  42.844   9.955
39824W        W12084   2.337  35.048  11.516
39825W        W12085  23.112   1.957   4.136
39826W        W12086  38.949  42.011   3.227
39827W        W12087  10.636   0.321   3.377
39828W        W12088  17.213  14.197  11.484
39829W        W12089   3.376  21.691   4.191
39830W        W12090  31.946  41.901   1.434
39831W        W12091  35.083  36.008   4.668
39832W        W12092  11.856  15.586   1.286
39833W        W12093  34.000  31.456   2.700
39834W        W12094   3.264  40.950   4.760
39835W        W12095   8.708  27.611   4.694
39836W        W12096  10.352   0.489   2.666
39837W        W12097  40.487  35.977   2.330
39838W        W12098  35.966  33.987  13.899
39839W        W12099  13.750  42.016   4.285
39840W        W12100  10.291  37.502  11.010
39841W        W12101   0.883  33.052   2.364
39842W        W12102  31.120  18.554  11.456
39843W        W12103  18.614  17.197   0.314
39844W        W12104  39.461  25.474   3.217
39845W        W12105  27.651  21.542  12.524
39846W        W12106   9.790  38.888  13.825
39847W        W12107   4.741  11.287  10.461
39848W        W12108  23.686  37.010  12.504
39849W        W12109  11.246  22.734   1.304
39850W        W12110  10.355  43.903   4.819
39851W        W12111  41.016  11.640   4.660
39852W        W12112  38.440  37.386   4.705
39853W        W12113  31.543  42.873   4.142
39854W        W12114  20.603  19.121  10.095
39855W        W12115  14.142  33.040   1.322
39856W        W12116  23.531  35.109   4.765
39857W        W12117  14.218  12.853  13.440
39858W        W12118  36.047  19.695  13.996
39859W        W12119  35.581  33.121   4.162
39860W        W12120  25.491  12.309  12.351
39861W        W12121  20.091  19.728   0.329
39862W        W12122  38.059  37.516   1.233
39863W        W12123   3.917  32.471  11.517
39864W        W12124   6.829  44.271  12.423
39865W        W12125  14.821  15.673   4.172
39866W        W12126   6.874  13.622  11.420
39867W        W12127  28.067  39.913  13.045
39868W        W12128  36.949  39.337  11.911
39869W        W12129  30.499  36.395  11.103
39870W        W12130   5.785  15.141   4.319
39871W        W12131  15.820  17.178   3.661
39872W        W12132  10.695   8.404  10.954
39873W        W12133  30.093   0.878  13.976
39874W        W12134  13.187  16.265   5.790
39875W        W12135  16.207  15.225   1.400
39876W        W12136  30.543  37.031  12.016
39877W        W12137  37.043  20.729   2.300
39878W        W12138  29.462  40.974   0.763
39879W        W12139  13.107   2.401   1.329
39880W        W12140  26.084  19.609  14.818
39881W        W12141  31.445  31.546  11.385
39882W        W12142  40.505  25.116  12.450
39883W        W12143  12.611  19.264   1.746
39884W        W12144  32.494  39.945  13.872
39885W        W12145  27.553  41.347   1.223
39886W        W12146   4.362  36.390   4.195
39887W        W12147  37.002  42.456  14.925
39888W        W12148   8.698  41.992  13.801
39889W        W12149  10.332  25.652  13.331
39890W        W12150  27.641  42.326   4.160
39891W        W12151  23.140   9.671  13.366
39892W        W12152   5.235  40.829  10.640
39893W        W12153  35.876  29.066   4.796
39894W        W12154  28.945  24.606  11.514
39895W        W12155  44.443  39.339  13.019
39896W        W12156  24.020   5.242   4.252
39897W        W12157  37.919  26.648   4.686
39898W        W12158  23.113   0.484  12.958
39899W        W12159  24.707  16.681   2.789
39900W        W12160   3.721  34.527   1.767
39901W        W12161   0.339  10.143  14.369
39902W        W12162   5.193  32.090   1.297
39903W        W12163  27.659   6.879  11.475
39904W        W12164  20.730  43.770   0.315
39905W        W12165  27.560   9.395  14.998
39906W        W12166   5.724  39.002  12.996
39907W        W12167   8.880  44.458   4.250
39908W        W12168  39.818  32.931  11.613
39909W        W12169   4.851  38.435  11.985
39910W        W12170   4.330   8.195  11.505
39911W        W12171  35.996  31.102   1.445
39912W        W12172  32.531  28.127  11.583
39913W        W12173  37.389   0.878   3.635
39914W        W12174  42.459   3.391  12.458
39915W        W12175  42.788  44.800  11.545
39916W        W12176  34.422  13.167   0.914
39917W        W12177  18.186  43.375   3.291
39918W        W12178  37.066  40.430  13.968
39919W        W12179  13.166  22.713   5.240
39920W        W12180  32.476  14.336  14.944
39921W        W12181   8.354   7.413  12.081
39922W        W12182  16.723  32.067   4.678
39923W        W12183  34.969  15.269   4.651
39924W        W12184   3.725  35.453   4.767
39925W        W12185  33.405  20.107   1.860
39926W        W12186  22.111  35.397  12.451
39927W        W12187  23.523  13.327   1.764
39928W        W12188  30.504  18.200   1.705
39929W        W12189  34.565  35.103  13.396
39930W        W12190  19.272  15.759   4.274
39931W        W12191  34.426  15.615   3.168
39932W        W12192  16.809  35.058   2.218
39933W        W12193  27.143  39.028  11.016
39934W        W12194  35.974  35.476   4.291
39935W        W12195  32.601   8.196  11.019
39936W        W12196   5.799  20.552  14.774
39937W        W12197   3.332  43.366  14.950
39938W        W12198  36.436  23.113  11.023
39939W        W12199   5.887  28.938  14.851
39940W        W12200  37.950   6.767   3.351
39941W        W12201  39.368  20.166   1.743
39942W        W12202  19.540   0.482  11.492
39943W        W12203  25.211  15.267   1.260
39944W        W12204  30.132  12.686  10.613
39945W        W12205  28.012  22.669  14.913
39946W        W12206  23.098  12.772   0.878
39947W        W12207   7.803  29.666  13.973
39948W        W12208   8.211   6.743  10.519
39949W        W12209  39.404  14.699  11.929
39950W        W12210  43.004  32.938   0.411
39951W        W12211  29.662  18.725   0.387
39952W        W12212   5.385   1.314   4.700
39953W        W12213  31.645  39.486   0.859
39954W        W12214  18.292   2.243  11.399
39955W        W12215  21.600  35.431  10.441
39956W        W12216  10.805  29.649   0.738
39957W        W12217  40.347  14.236  12.876
39958W        W12218  33.990   0.325  11.858
39959W        W12219  17.671  35.072  11.053
39960W        W12220   7.767   7.700   3.863
39961W        W12221  24.722  18.287   0.317
39962W        W12222   4.436  40.846  14.405
39963W        W12223  30.506  34.003  12.388
39964W        W12224  11.847  20.096  14.918
39965W        W12225  17.657  17.185   3.648
39966W        W12226  26.011  39.394   2.382
39967W        W12227  22.657  15.737   4.156
39968W        W12228  36.497  43.281  11.087
39969W        W12229  24.986  28.455  13.840
39970W        W12230   0.432   8.798   1.885
39971W        W12231  19.079  24.656  12.092
39972W        W12232  13.290   9.835   0.407
39973W        W12233  23.060  17.759  12.372
39974W        W12234  34.054  28.486   4.796
39975W        W12235  43.407   4.767  14.003
39976W        W12236  29.450  21.098  10.114
39977W        W12237   3.919  22.190  13.338
39978W        W12238  38.362  36.953  11.946
39979W        W12239  37.529   6.914   4.737
39980W        W12240  15.650  19.055  13.436
39981W        W12241   8.337  37.499  14.806
39982W        W12242  40.333  36.576  11.520
39983W        W12243  39.480  32.446   2.662
39984W        W12244  13.318  10.877  12.073
39985W        W12245  31.067  30.065  14.020
39986W        W12246  35.366  16.775  13.811
39987W        W12247   8.871  40.863   1.417
39988W        W12248  34.036   1.333   2.674
39989W        W12249  37.406  28.151  11.555
39990W        W12250  27.972   6.229  14.832
39991W        W12251  42.326  39.849  13.828
39992W        W12252  16.077  31.562   2.742
39993W        W12253  10.339   2.756   1.764
39994W        W12254  19.182  31.077  14.853
39995W        W12255  26.969  22.086   3.843
39996W        W12256  38.568  39.035  13.001
39997W        W12257  30.481  20.238  11.856
39998W        W12258   2.256  10.790   3.252
39999W        W12259   7.264  39.923  11.953
40000W        W12260  18.183  32.572  12.535
40001W        W12261  15.210   9.713  14.481
40002W        W12262  38.993  19.099   2.770
40003W        W12263   7.854   6.408   5.083
40004W        W12264   1.969  39.505  12.498
40005W        W12265   8.817  12.740   3.374
40006W        W12266  32.581  34.576  14.767
40007W        W12267  36.043  32.425   1.933
40008W        W12268  27.060  43.954   4.739
40009W        W12269  14.671  35.982   5.198
40010W        W12270  25.631  12.671  12.889
40011W        W12271  24.058  22.552   1.922
40012W        W12272  42.498  36.077   2.836
40013W        W12273  34.898  33.619   0.293
40014W        W12274  44.773  23.570  11.385
40015W        W12275  24.999  33.129  13.881
40016W        W12276   3.418  43.484   2.792
40017W        W12277  13.730  21.179   3.832
40018W        W12278  27.146  10.234   0.461
40019W        W12279  21.158   9.326  11.555
40020W        W12280  31.136  35.905   3.779
40021W        W12281  26.193   0.748  13.375
40022W        W12282  33.045  15.751   4.321
40023W        W12283  12.735  20.585  13.043
40024W        W12284  33.099  19.222   3.779
40025W        W12285  20.560  12.328   0.781
40026W        W12286   2.814   9.837  12.068
40027W        W12287   1.759   6.360   1.377
40028W        W12288  26.032   3.294   1.900
40029W        W12289  14.228  14.313   1.778
40030W        W12290  29.078   2.894   3.201
40031W        W12291  26.568  28.051  14.019
40032W        W12292  42.943  31.037  11.398
40033W        W12293  38.355  43.441   3.224
40034W        W12294   6.697   1.308  10.502
40035W        W12295  29.555  28.484   3.326
40036W        W12296  33.932  25.604   4.171
40037W        W12297  42.990   7.674  10.635
40038W        W12298  22.623  31.591  11.572
40039W        W12299  22.218  40.453   4.765
40040W        W12300  39.868  11.820   3.170
40041W        W12301  31.997  18.288  14.815
40042W        W12302   5.283   8.825  10.490
40043W        W12303   7.823  29.936  10.641
40044W        W12304  11.772  16.113   2.668
40045W        W12305  17.130  34.381  11.437
40046W        W12306   2.831  24.686  12.547
40047W        W12307  14.257  11.811  11.924
40048W        W12308  30.433  32.398   1.407
40049W        W12309   1.299  26.693   0.854
40050W        W12310  33.470  34.047  10.625
40051W        W12311  39.330   0.853  10.426
40052W        W12312  43.275  13.123  10.494
40053W        W12313  16.311  22.107  10.510
40054W        W12314  39.898  28.491  14.834
40055W        W12315   7.350   2.344   1.744
40056W        W12316   0.332  38.499  11.877
40057W        W12317  44.389   0.855   1.348
40058W        W12318  30.095  27.118  11.592
40059W        W12319  31.911  18.705   0.359
40060W        W12320   0.908  33.930  11.935
40061W        W12321  13.184  29.119  14.365
40062W        W12322  26.038  18.658  14.938
40063W        W12323  16.112  25.580  11.508
40064W        W12324  23.041   4.265   0.753
40065W        W12325  16.643  29.146   1.844
40066W        W12326  43.282  36.479   4.313
40067W        W12327   3.823  27.668   2.302
40068W        W12328  16.261   8.655  11.865
40069W        W12329  21.240  31.511   2.884
40070W        W12330   8.741  41.842   0.402
40071W        W12331  13.750  31.007  14.978
40072W        W12332  18.245  12.654  11.508
40073W        W12333  42.481  25.001   0.292
40074W        W12334  29.128  12.631  12.832
40075W        W12335  16.642  40.838   1.281
40076W        W12336   2.957   1.388   0.864
40077W        W12337   7.821   6.824   2.715
40078W        W12338  17.105  35.020  11.573
40079W        W12339  26.093  29.565   3.773
40080W        W12340  12.192   7.837  12.373
40081W        W12341   9.177   7.251   3.201
40082W        W12342  10.353  20.528   1.419
40083W        W12343  34.977  17.742  12.445
40084W        W12344  11.127  26.536   0.960
40085W        W12345  21.204  17.779   4.219
40086W        W12346  37.553  26.127   3.351
40087W        W12347  42.368  41.926  14.882
40088W        W12348  33.556  41.915   0.438
40089W        W12349   2.297  26.600   4.726
40090W        W12350   9.360   3.423   0.333
40091W        W12351  33.954  24.099  12.509
40092W        W12352  26.114  22.526  13.015
40093W        W12353  30.529   6.408  14.353
40094W        W12354   0.265   4.319   0.281
40095W        W12355  20.145  13.830  11.524
40096W        W12356  40.981  22.711  13.982
40097W        W12357  15.298  16.238  10.001
40098W        W12358  25.028  21.603  10.563
40099W        W12359  21.077  12.306   0.784
40100W        W12360   7.323  35.450  10.520
40101W        W12361  32.894  19.272   0.382
40102W        W12362  24.509  33.879  14.426
40103W        W12363  42.963  18.665  11.990
40104W        W12364  41.425   4.788  14.903
40105W        W12365  36.845  25.682  13.796
40106W        W12366  25.550  42.339   5.138
40107W        W12367   8.861  36.366  11.440
40108W        W12368   2.267  20.734   4.298
40109W        W12369   1.335   9.811   0.287
40110W        W12370   5.438  15.790  10.954
40111W        W12371  19.628  42.424  11.539
40112W        W12372  12.357  28.559  13.823
40113W        W12373  40.480  37.461  11.511
40114W        W12374  41.892  27.144   2.886
40115W        W12375  38.831   5.244   3.209
40116W        W12376  43.424   3.921   2.834
40117W        W12377   8.698  14.195  10.952
40118W        W12378  44.975  21.585  10.935
40119W        W12379  25.657  26.002   4.275
40120W        W12380  22.615   1.247   4.208
40121W        W12381   4.772  27.045  10.621
40122W        W12382  37.917   3.356   1.389
40123W        W12383  20.532  26.021  13.927
40124W        W12384  23.580  29.538  13.047
40125W        W12385  44.381   6.691   1.280
40126W        W12386   3.354   0.849  13.340
40127W        W12387  25.707  40.865   9.989
40128W        W12388  23.002  31.599   4.773
40129W        W12389  14.652  40.055  12.029
40130W        W12390  37.476  11.710  10.458
40131W        W12391   7.249  27.555  10.611
40132W        W12392  15.272  10.327  11.078
40133W        W12393   5.744  34.428   0.316
40134W        W12394   5.795  35.869  12.983
40135W        W12395  35.863  42.794  14.831
40136W        W12396  11.246  36.067  14.501
40137W        W12397  12.131  19.270   0.907
40138W        W12398  32.611  23.702  11.868
40139W        W12399  34.509  31.050  11.379
40140W        W12400  36.893  27.015   1.710
40141W        W12401  19.695  27.467   1.292
40142W        W12402  14.250  43.423  13.337
40143W        W12403   0.813  12.319  13.002
40144W        W12404  44.412   9.670   5.267
40145W        W12405  39.463   9.382  14.438
40146W        W12406  36.990  34.445  11.126
40147W        W12407  28.483   0.482  13.970
40148W        W12408  18.269  43.938  12.046
40149W        W12409   0.390  28.668   2.319
40150W        W12410   0.952  41.375   5.257
40151W        W12411   8.212  41.456   1.910
40152W        W12412  31.114   1.881  12.463
40153W        W12413   4.823  43.842  13.980
40154W        W12414  44.806  37.511   3.352
40155W        W12415  40.375   6.893   0.251
40156W        W12416  19.558  43.814  14.893
40157W        W12417  35.981  10.251   5.143
40158W        W12418  13.226  25.166   4.677
40159W        W12419  11.745  20.699   1.872
40160W        W12420  43.335  24.562  14.279
40161W        W12421  43.835  40.531  10.427
40162W        W12422  34.080  30.460   3.655
40163W        W12423  17.646   1.462  10.905
40164W        W12424  38.830  24.659  10.415
40165W        W12425   3.363  33.960   4.771
40166W        W12426  43.956  30.546  11.399
40167W        W12427  39.388  20.043   3.689
40168W        W12428   0.873   7.834   2.371
40169W        W12429  28.571  26.477   0.729
40170W        W12430  10.261   8.733   5.211
40171W        W12431  39.551  31.094  11.549
40172W        W12432  15.155  21.708   0.922
40173W        W12433   3.351   5.839  14.004
40174W        W12434  44.372  29.438   0.295
40175W        W12435   0.345  27.471   0.790
40176W        W12436  40.530  27.135   2.872
40177W        W12437   3.300  18.205   0.910
40178W        W12438  34.105   3.753   3.198
40179W        W12439   1.807  24.549   0.789
40180W        W12440   0.859  38.010   1.842
40181W        W12441  23.572  30.077   3.810
40182W        W12442  21.564  35.549  11.546
40183W        W12443   6.301  44.408  10.900
40184W        W12444  16.810  34.467   3.677
40185W        W12445  35.494  41.355  14.937
40186W        W12446  30.492   7.229  12.853
40187W        W12447   8.768  18.718   1.290
40188W        W12448  21.121  34.967   3.714
40189W        W12449  39.043   9.234   4.202
40190W        W12450  20.714  19.060   3.802
40191W        W12451  23.569  43.975  10.475
40192W        W12452  13.160  23.719   0.736
40193W        W12453  43.284  27.536  13.998
40194W        W12454  43.447   9.820  12.445
40195W        W12455  23.732  34.954   2.667
40196W        W12456  40.970  36.948  12.347
40197W        W12457  14.790  17.760  10.134
40198W        W12458  19.285  22.645   1.717
40199W        W12459  14.316  30.969   3.222
40200W        W12460  11.832  22.052   0.463
40201W        W12461   7.339  19.666   4.717
40202W        W12462  43.394  37.547   1.252
40203W        W12463  17.776   3.445  11.092
40204W        W12464  33.458   5.925  11.542
40205W        W12465  29.634   4.231   3.333
40206W        W12466  41.824  28.595   3.847
40207W        W12467  24.175   3.750  11.897
40208W        W12468   9.655  11.670   1.374
40209W        W12469   0.816   4.914  13.933
40210W        W12470   4.767  35.008  13.394
40211W        W12471  12.840  42.786   3.288
40212W        W12472  22.205  14.330   4.331
40213W        W12473  15.095  42.980   3.196
40214W        W12474  35.993  27.477  13.543
40215W        W12475   6.216  17.194  13.453
40216W        W12476   7.683   3.795   2.805
40217W        W12477  20.695  20.733   5.157
40218W        W12478  26.622   6.739  10.451
40219W        W12479   2.455  42.940   4.210
40220W        W12480  25.607  18.215  13.810
40221W        W12481  10.163   3.418   1.785
40222W        W12482  26.970  34.429   0.919
40223W        W12483  42.365  27.181   4.257
40224W        W12484   6.341  34.565   1.750
40225W        W12485  20.175  26.590  10.409
40226W        W12486  15.683  38.466  10.587
40227W        W12487  10.634   7.374   4.618
40228W        W12488  32.107  18.276   1.362
40229W        W12489  10.187   2.806   2.866
40230W        W12490  33.079   2.249  13.893
40231W        W12491  34.076   4.321   2.364
40232W        W12492  41.492  30.656   4.311
40233W        W12493  31.106  36.456   3.335
40234W        W12494   9.323  16.708  14.803
40235W        W12495   2.856  22.120   3.719
40236W        W12496  39.417  13.691  12.384
40237W        W12497  16.776  36.369  10.986
40238W        W12498  18.192  34.098   4.153
40239W        W12499  38.839   0.359  13.012
40240W        W12500   3.428   0.938  10.580
40241W        W12501  37.364   1.847  13.472
40242W        W12502   7.833  20.561   3.158
40243W        W12503  16.202   6.420  12.340
40244W        W12504  29.969   9.659   0.913
40245W        W12505   2.360  17.795  12.379
40246W        W12506   3.238  28.039  12.045
40247W        W12507  15.322  16.628   0.294
40248W        W12508  28.121   0.326  13.892
40249W        W12509  40.373   8.199  13.846
40250W        W12510  27.054  39.948  11.078
40251W        W12511  23.528   3.955   3.752
40252W        W12512  40.867  38.041  10.607
40253W        W12513  25.713   7.189  11.372
40254W        W12514  40.798  24.216  11.071
40255W        W12515  27.028  19.534  13.444
40256W        W12516  14.121  27.951  14.962
40257W        W12517  37.079  29.555  12.057
40258W        W12518   1.342  28.077   4.141
40259W        W12519  17.103  30.015  12.051
40260W        W12520  40.487  26.092   0.910
40261W        W12521  34.613  13.683   3.782
40262W        W12522  22.211  11.356  12.339
40263W        W12523  13.120  22.247   0.916
40264W        W12524  13.346  16.153   4.115
40265W        W12525   8.394   4.209   2.219
40266W        W12526  26.034  14.675   3.178
40267W        W12527   2.470  32.049   1.295
40268W        W12528  31.013  21.537  12.028
40269W        W12529  13.136   8.378   2.384
40270W        W12530   8.269  26.686   9.992
40271W        W12531  34.448  20.066  11.093
40272W        W12532  14.725  25.523   4.733
40273W        W12533  41.388   7.844   1.913
40274W        W12534  16.787  41.904  13.040
40275W        W12535  19.145   7.884   4.668
40276W        W12536  20.609  23.699  14.931
40277W        W12537  30.601  17.782   3.851
40278W        W12538  28.478  10.656  11.884
40279W        W12539  32.079  15.764  11.522
40280W        W12540  28.036  18.236  14.941
40281W        W12541  16.223  44.383  14.800
40282W        W12542  26.625  30.004  12.481
40283W        W12543   9.750  13.834  13.874
40284W        W12544   0.983  23.206   0.378
40285W        W12545   8.219   5.350   2.831
40286W        W12546   5.301  21.043  12.002
40287W        W12547  39.346  28.594   3.349
40288W        W12548  38.989  24.196   1.909
40289W        W12549  42.802  34.948   4.674
40290W        W12550  13.180  19.102  13.913
40291W        W12551   3.941  19.540  13.391
40292W        W12552   5.838  42.820   2.903
40293W        W12553  12.135  11.723  13.423
40294W        W12554  30.123  35.882   4.714
40295W        W12555  21.553  42.998  11.880
40296W        W12556   3.302  27.503   3.164
40297W        W12557  42.462  26.181  10.913
40298W        W12558  37.898  26.583  11.964
40299W        W12559  17.587  27.598   3.689
40300W        W12560  31.906  11.672   1.401
40301W        W12561  27.077  13.297  10.904
40302W        W12562   6.313  14.823  13.474
40303W        W12563  33.607  21.610  12.081
40304W        W12564  24.498  18.207  13.014
40305W        W12565  41.898  15.311  12.503
40306W        W12566  31.988  16.673  14.385
40307W        W12567  41.004   2.735  14.510
40308W        W12568  12.299  27.151   1.919
40309W        W12569  30.961  23.607   2.725
40310W        W12570  14.331  38.964  13.386
40311W        W12571  16.194  37.456   0.753
40312W        W12572  38.905  44.434  14.298
40313W        W12573   9.862  22.181   2.284
40314W        W12574  24.656  24.561  13.360
40315W        W12575   1.754  31.103  14.505
40316W        W12576  36.043  41.813  11.389
40317W        W12577  38.430  10.229   2.890
40318W        W12578   5.318  10.214   4.199
40319W        W12579  27.518   3.761  11.936
40320W        W12580  36.476   4.742   4.123
40321W        W12581  39.404  18.152  12.872
40322W        W12582   8.832   4.723   4.353
40323W        W12583  39.420   0.875  13.031
40324W        W12584   8.670   5.338  13.897
40325W        W12585   4.388  11.864   1.862
40326W        W12586  30.453  16.664  12.514
40327W        W12587  44.283  38.496  11.557
40328W        W12588  12.183   0.905   1.262
40329W        W12589  34.975   0.367   2.308
40330W        W12590   4.214  15.109  12.877
40331W        W12591  10.828  19.653  12.967
40332W        W12592  38.518  16.719   2.294
40333W        W12593  37.455   6.302  13.030
40334W        W12594   7.390  27.047  11.005
40335W        W12595  19.622  17.665   4.666
40336W        W12596   3.390   7.225   1.292
40337W        W12597  44.960   9.788   3.768
40338W        W12598   4.325  19.776  11.416
40339W        W12599  18.701   0.337   4.637
40340W        W12600  32.967  15.803   3.300
40341W        W12601  12.681   8.354  13.457
40342W        W12602   8.303  44.301   4.762
40343W        W12603  41.387  34.057   4.232
40344W        W12604   1.413  16.679   2.259
40345W        W12605  30.656  37.343   3.662
40346W        W12606  40.411  25.477  13.492
40347W        W12607  12.237  41.918  11.935
40348W        W12608  14.702  29.623   2.240
40349W        W12609  40.919  38.342  12.406
40350W        W12610  21.755   1.940   2.854
40351W        W12611   2.924  26.000   0.480
40352W        W12612   4.411   3.379   3.736
40353W        W12613   8.773  37.873  14.948
40354W        W12614  16.248  32.960   2.792
40355W        W12615  17.723  33.415   0.287
40356W        W12616  13.351  22.609  12.560
40357W        W12617   8.236  44.300   2.718
40358W        W12618  30.932  11.710   4.759
40359W        W12619  40.312  10.314  13.905
40360W        W12620  35.545  15.601   4.783
40361W        W12621  40.804   7.821  11.098
40362W        W12622  21.717  12.178   1.699
40363W        W12623  32.894   9.787   4.675
40364W        W12624  20.125   4.901   5.317
40365W        W12625  22.215  38.046  14.392
40366W        W12626  19.052  16.231  11.053
40367W        W12627  35.419  20.632   2.330
40368W        W12628  43.985  40.309   3.323
40369W        W12629  15.159  32.397   3.750
40370W        W12630  36.895  31.477   4.659
40371W        W12631   6.777   3.916  13.006
40372W        W12632  26.075  32.042  12.966
40373W        W12633   4.338   8.671   3.822
40374W        W12634  27.558  30.484   9.455
40375W        W12635  36.356  18.633  10.611
40376W        W12636  18.168   0.318  13.464
40377W        W12637  14.241  23.573  14.469
40378W        W12638   3.888   0.954  13.414
40379W        W12639  12.169  43.847   2.828
40380W        W12640  18.565   7.325  12.377
40381W        W12641  11.695  42.920   1.790
40382W        W12642  15.118  33.530   1.714
40383W        W12643  38.983   9.356  12.824
40384W        W12644  39.009   4.912  14.998
40385W        W12645  27.003  41.422  11.865
40386W        W12646  25.628   9.380   2.304
40387W        W12647   7.291  32.075  12.365
40388W        W12648  44.885  14.126   0.456
40389W        W12649  36.486  16.261   3.179
40390W        W12650  39.342   6.753  14.329
40391W        W12651  41.919  21.020   4.330
40392W        W12652   1.405  28.636  12.012
40393W        W12653  20.762  18.546   0.873
40394W        W12654  11.816  34.441   3.205
40395W        W12655  41.308  44.841   1.877
40396W        W12656  19.679   7.345  12.432
40397W        W12657  14.690   6.259   0.861
40398W        W12658  16.763   3.741  13.321
40399W        W12659  43.887   9.719   1.348
40400W        W12660  38.567  23.047  14.292
40401W        W12661   8.329  30.000  10.474
40402W        W12662   0.351  32.964  10.975
40403W        W12663  34.463  11.238   4.734
40404W        W12664  17.239  14.685  10.060
40405W        W12665  43.853  26.140  14.448
40406W        W12666  23.671  32.019   3.634
40407W        W12667  40.338  24.034   0.334
40408W        W12668  35.025  14.241   1.721
40409W        W12669  16.575  11.857  11.558
40410W        W12670  44.352  29.625  12.932
40411W        W12671  15.801  44.318  14.493
40412W        W12672  18.726  34.465  14.032
40413W        W12673  15.174   6.418   1.871
40414W        W12674  11.808  16.713  12.526
40415W        W12675  31.423  26.072  14.298
40416W        W12676   9.303   6.213  10.131
40417W        W12677  39.031  44.880  13.477
40418W        W12678  24.646   7.873  13.407
40419W        W12679  31.600  23.617   1.881
40420W        W12680   6.702  11.274   1.893
40421W        W12681  43.376  25.551  13.862
40422W        W12682   4.341  32.049   0.921
40423W        W12683  27.589   8.800   1.451
40424W        W12684  27.025  41.927  12.997
40425W        W12685  39.427  43.385  13.383
40426W        W12686  37.962   4.390   2.339
40427W        W12687  36.523  21.740  14.380
40428W        W12688  23.181  38.521   4.600
40429W        W12689  39.382   7.701   3.823
40430W        W12690   1.925   4.267  11.460
40431W        W12691   2.850  21.118   9.937
40432W        W12692   6.820   4.804   0.831
40433W        W12693  37.875  24.523   1.747
40434W        W12694   4.829  15.697  11.469
40435W        W12695  31.478   4.366   2.386
40436W        W12696  33.507  11.359   2.735
40437W        W12697  31.516  37.872  12.956
40438W        W12698  43.796  31.107   2.856
40439W        W12699  17.728  16.657   1.254
40440W        W12700  32.502  17.257  10.961
40441W        W12701  27.180   4.807   4.243
40442W        W12702  19.108  41.339  12.576
40443W        W12703  27.038  17.257   1.446
40444W        W12704  39.976  44.455   2.889
40445W        W12705  16.237   3.784  10.590
40446W        W12706  14.598   7.824   4.695
40447W        W12707  25.685  27.949   4.614
40448W        W12708  26.030   0.281   1.408
40449W        W12709  42.319  22.147  12.577
40450W        W12710  31.503  40.813   3.830
40451W        W12711  13.840  40.856   2.857
40452W        W12712  27.097   1.425  13.463
40453W        W12713  28.141  11.671   1.908
40454W        W12714  17.198  16.279   3.234
40455W        W12715  19.646  27.963   4.607
40456W        W12716  32.002  42.497   2.692
40457W        W12717   3.404  20.554  13.950
40458W        W12718   1.432   8.234   2.377
40459W        W12719  40.952   7.697  14.810
40460W        W12720   8.253  22.152  14.803
40461W        W12721   7.784  44.786  12.933
40462W        W12722   1.253   2.853   2.764
40463W        W12723   8.778   8.254   1.283
40464W        W12724  44.766   6.791  10.425
40465W        W12725  25.006   2.469   0.283
40466W        W12726  23.136  40.807   0.303
40467W        W12727  30.979   5.710   3.246
40468W        W12728  40.990  19.628   3.224
40469W        W12729  32.035  16.682   1.274
40470W        W12730  17.234   4.741  10.407
40471W        W12731  23.009  20.745  14.803
40472W        W12732  17.723  43.834  12.455
40473W        W12733  26.132  34.087  10.895
40474W        W12734  16.618   2.332   4.286
40475W        W12735  29.579  19.104   4.353
40476W        W12736  33.935  31.419   3.278
40477W        W12737   5.867   4.729  14.957
40478W        W12738  27.596  39.045   2.320
40479W        W12739   7.408   8.866  11.963
40480W        W12740  14.229   5.865   1.778
40481W        W12741  22.622   9.364   4.247
40482W        W12742  40.337  37.968  11.585
40483W        W12743  35.922   2.923  14.483
40484W        W12744  38.365  15.813  11.550
40485W        W12745  40.311   2.254   4.680
40486W        W12746  37.993  16.272   0.938
40487W        W12747  24.123  40.865  13.874
40488W        W12748  24.516  18.104  12.381
40489W        W12749   2.953  28.651  11.043
40490W        W12750   7.907  18.127  12.488
40491W        W12751  29.466  22.168  12.418
40492W        W12752   2.239   1.419  11.908
40493W        W12753   9.725  15.150   1.694
40494W        W12754   3.793  37.847   0.923
40495W        W12755  32.501  26.180   3.258
40496W        W12756   3.801  30.926  13.952
40497W        W12757  39.523  37.835   4.652
40498W        W12758  39.919  24.217  12.916
40499W        W12759  28.442  37.941   2.723
40500W        W12760  10.672  15.645  11.426
40501W        W12761  17.736  42.475  14.500
40502W        W12762   9.352  35.039   1.754
40503W        W12763  12.251  41.974   1.390
40504W        W12764  27.167  12.139  12.411
40505W        W12765   5.345  17.064   1.218
40506W        W12766  19.283  36.523   1.302
40507W        W12767  19.072  33.495  12.388
40508W        W12768  35.928  44.807   2.328
40509W        W12769  21.605  21.543  14.338
40510W        W12770  30.984   9.678  14.824
40511W        W12771  27.622   9.660   0.293
40512W        W12772  16.130  39.879  14.899
40513W        W12773  30.488  14.267   4.146
40514W        W12774   2.366  22.115   0.244
40515W        W12775  15.760  22.048   1.359
40516W        W12776   5.909   2.252   1.806
40517W        W12777   2.301  30.998  11.094
40518W        W12778  24.648   1.296   4.133
40519W        W12779   0.875   1.415   3.363
40520W        W12780  41.365   8.189   4.246
40521W        W12781  43.862   5.725   3.731
40522W        W12782  15.292   0.841   2.241
40523W        W12783  26.189  38.475  11.104
40524W        W12784   9.733  40.897  13.327
40525W        W12785  11.722  38.847   9.985
40526W        W12786   1.767  15.623   2.374
40527W        W12787  28.562  15.168   4.622
40528W        W12788  21.083   2.857   2.663
40529W        W12789  43.378  43.446   2.859
40530W        W12790  33.120  23.138   0.281
40531W        W12791   4.360  28.003   5.208
40532W        W12792   2.329   0.444  11.514
40533W        W12793   5.849   6.193  12.345
40534W        W12794   0.877  20.119   1.935
40535W        W12795  27.186   4.917  14.339
40536W        W12796  22.063  18.789  11.117
40537W        W12797  35.046  27.483   2.720
40538W        W12798  11.159   9.832   3.188
40539W        W12799  27.181  28.989   3.679
40540W        W12800  41.437   4.414   4.688
40541W        W12801  26.202   5.812   2.383
40542W        W12802   3.290  39.433  11.498
40543W        W12803   5.737  43.872  10.929
40544W        W12804  33.465  26.700   4.289
40545W        W12805   1.380   2.952  13.457
40546W        W12806  44.494  30.506   1.251
40547W        W12807  28.642  28.115   4.607
40548W        W12808  36.587  19.714  11.883
40549W        W12809  39.951  37.364   4.308
40550W        W12810  27.083  16.711  13.894
40551W        W12811   7.305  44.790  14.345
40552W        W12812  18.123  14.241   2.780
40553W        W12813  16.300  20.145  10.432
40554W        W12814  31.955   2.762   2.877
40555W        W12815   3.783  17.086   0.376
40556W        W12816  19.552  42.461   2.271
40557W        W12817   7.828   2.892  10.513
40558W        W12818  33.059  24.065  12.031
40559W        W12819  24.001  31.095  12.445
40560W        W12820  32.090   4.940   4.141
40561W        W12821   4.390  44.496   0.891
40562W        W12822  28.075  40.306   3.165
40563W        W12823   0.377  39.824  13.801
40564W        W12824  16.792  32.415  12.975
40565W        W12825  44.899  13.783  13.326
40566W        W12826  16.770  42.815   0.788
40567W        W12827   7.708   5.241   2.833
40568W        W12828   5.830  37.895   3.754
40569W        W12829  13.770  10.320  10.614
40570W        W12830  25.986  12.804   1.872
40571W        W12831  26.529  44.809  12.997
40572W        W12832  16.225  22.555   1.251
40573W        W12833  12.746  24.093  13.891
40574W        W12834  41.511  38.487   0.342
40575W        W12835  42.508  32.569   3.673
40576W        W12836  12.820  37.384   3.841
40577W        W12837  14.654  36.479  13.391
40578W        W12838  24.578   2.442  14.906
40579W        W12839  12.666   3.762   2.418
40580W        W12840  44.413  13.169  13.796
40581W        W12841  21.614  16.763   4.223
40582W        W12842  12.172  37.837   1.703
40583W        W12843   2.337  30.942   3.359
40584W        W12844  26.568  38.003  11.600
40585W        W12845   7.892  43.980   3.809
40586W        W12846  27.947   2.721  11.471
40587W        W12847  15.319  13.791  13.014
40588W        W12848  14.274   6.395   1.875
40589W        W12849  34.400  11.729  12.518
40590W        W12850  23.715  32.600   1.822
40591W        W12851  11.749  33.413   4.736
40592W        W12852  14.165  17.654  11.416
40593W        W12853   2.827  10.809  10.976
40594W        W12854  23.028  26.007   4.184
40595W        W12855  15.281   9.745  12.849
40596W        W12856  30.980   3.283  10.632
40597W        W12857  32.089  44.409   2.206
40598W        W12858  24.685  37.438  11.929
40599W        W12859  33.041  28.609   4.300
40600W        W12860  11.276  18.268   1.735
40601W        W12861  30.021  17.763  10.977
40602W        W12862   9.278  13.810  12.961
40603W        W12863  30.436  19.540   3.661
40604W        W12864   4.875  40.798  12.955
40605W        W12865   5.227  38.009  12.857
40606W        W12866  10.202  17.775  10.500
40607W        W12867   5.692  38.327   1.361
40608W        W12868  17.771  13.333  11.490
40609W        W12869  12.744  42.481  14.966
40610W        W12870  17.119  22.121   0.325
40611W        W12871   1.949  16.610   4.780
40612W        W12872  15.639  29.511  11.979
40613W        W12873  11.741  26.578   4.602
40614W        W12874  33.946  35.490  13.423
40615W        W12875  14.211  30.555  12.068
40616W        W12876  31.422  44.367   1.236
40617W        W12877  38.029   3.328   2.342
40618W        W12878  38.419  27.185   1.279
40619W        W12879  25.480  26.954   2.792
40620W        W12880  25.521  36.507  14.824
40621W        W12881   9.352  31.587  14.478
40622W        W12882  35.566  17.298  11.106
40623W        W12883   3.800  32.070  12.374
40624W        W12884  10.371  16.730   1.307
40625W        W12885  14.623  30.449  14.303
40626W        W12886  41.909  38.979  14.464
40627W        W12887  43.468  32.983  12.414
40628W        W12888  20.688  19.750  10.888
40629W        W12889  19.715  19.761  10.942
40630W        W12890   3.718  41.493  14.382
40631W        W12891  36.372  10.367   2.262
40632W        W12892  38.981   5.835   3.742
40633W        W12893  16.658  26.964  11.486
40634W        W12894  21.145   6.216   4.195
40635W        W12895  42.789  13.311   1.244
40636W        W12896  26.698   2.801  13.993
40637W        W12897   9.698  43.904  12.391
40638W        W12898  13.192   4.717   2.899
40639W        W12899  29.919   8.348   4.278
40640W        W12900  44.433  27.042  10.533
40641W        W12901  27.171  34.970   4.138
40642W        W12902  27.548  28.036  12.431
40643W        W12903  34.582  35.068   0.455
40644W        W12904  31.985   1.944  10.481
40645W        W12905  16.785  37.535   1.782
40646W        W12906  17.676   4.832   0.782
40647W        W12907  25.969  33.020  14.422
40648W        W12908  17.589  43.842   4.739
40649W        W12909  12.359  30.436   5.806
40650W        W12910   4.761  40.318   5.309
40651W        W12911  41.912   6.340  13.357
40652W        W12912  15.314  30.476  13.545
40653W        W12913  17.677  40.439   2.900
40654W        W12914  24.600  41.916   1.221
40655W        W12915  28.933   3.333  11.033
40656W        W12916  27.548  29.592   3.816
40657W        W12917  31.948  12.217  12.361
40658W        W12918  37.431  28.580  14.788
40659W        W12919  40.389  42.991  13.441
40660W        W12920  23.207   1.442  11.466
40661W        W12921  34.053   2.783   3.835
40662W        W12922  18.050  35.404  14.799
40663W        W12923  40.891  28.081  12.037
40664W        W12924   7.745  25.185  12.477
40665W        W12925  10.864   1.425  13.514
40666W        W12926  15.578  41.935  13.001
40667W        W12927  41.292  24.019   2.756
40668W        W12928   3.955   9.391  12.092
40669W        W12929  41.497  34.580   4.741
40670W        W12930  15.198  23.227   2.737
40671W        W12931  10.684  37.571   0.457
40672W        W12932  25.105  35.534   4.755
40673W        W12933  35.049   3.735  10.452
40674W        W12934  37.930  28.628  11.064
40675W        W12935  34.525  23.637  10.538
40676W        W12936  18.763  17.580  14.019
40677W        W12937  22.048  10.297   0.401
40678W        W12938  11.717   8.203   2.356
40679W        W12939  24.638  21.226   4.707
40680W        W12940  34.109   9.835  14.790
40681W        W12941  40.930  33.586  11.007
40682W        W12942  33.980  43.900  11.995
40683W        W12943  43.488  39.974  12.868
40684W        W12944  10.142  23.059   3.638
40685W        W12945  25.570   0.288  12.049
40686W        W12946  35.082  31.608  13.986
40687W        W12947  25.200   2.443   1.801
40688W        W12948  28.131  24.601  14.949
40689W        W12949  41.976   3.871   4.228
40690W        W12950  41.334  24.528  11.999
40691W        W12951  36.964  31.920  12.069
40692W        W12952  38.935   7.403  10.996
40693W        W12953   6.716  44.837   1.432
40694W        W12954   5.866   5.785   0.432
40695W        W12955  16.569   1.423   1.451
40696W        W12956  22.171  19.259   4.688
40697W        W12957  32.111  12.287  11.881
40698W        W12958  35.964   5.694   4.128
40699W        W12959  18.555  28.555   4.809
40700W        W12960  32.906  31.134  14.909
40701W        W12961  43.274  35.100   3.683
40702W        W12962  31.511  40.418   4.690
40703W        W12963  15.788  14.624   0.438
40704W        W12964  41.484  16.195   4.662
40705W        W12965  24.095  35.583   4.341
40706W        W12966  29.050  37.869   1.699
40707W        W12967  30.541  20.268  12.881
40708W        W12968  36.870  13.745  11.961
40709W        W12969  17.583  21.544   3.343
40710W        W12970   6.416   2.949   2.685
40711W        W12971  28.656  41.536  11.025
40712W        W12972  16.268  36.970  12.865
40713W        W12973  16.578   4.894   4.758
40714W        W12974  20.196  44.802   2.764
40715W        W12975  40.318   1.800  13.317
40716W        W12976  21.159   0.921  12.959
40717W        W12977  18.719  38.571  11.080
40718W        W12978   7.412  31.044  12.871
40719W        W12979  12.339  38.890  13.977
40720W        W12980  20.539  33.979   0.905
40721W        W12981  40.994  24.511  14.792
40722W        W12982  31.418  21.559  12.064
40723W        W12983   8.214  44.468  11.037
40724W        W12984  30.511   0.408   2.768
40725W        W12985  35.498  17.632  12.853
40726W        W12986  44.856   9.342  11.403
40727W        W12987  23.587  36.590   3.841
40728W        W12988  11.365  32.611  14.433
40729W        W12989   5.282  22.161  12.378
40730W        W12990  36.941  23.529   3.861
40731W        W12991  11.856  23.138  13.968
40732W        W12992  27.593  39.962   9.974
40733W        W12993  22.065   8.854   1.379
40734W        W12994  31.151  29.592   1.865
40735W        W12995   4.852   4.336  13.954
40736W        W12996   5.291   5.346  13.818
40737W        W12997  12.360   6.835   0.273
40738W        W12998   1.392  24.071   2.410
40739W        W12999   1.244  26.094   4.602
40740W        W13000  13.266   5.346   4.246
40741W        W13001  37.430   5.223   0.394
40742W        W13002  36.875  40.304  11.059
40743W        W13003  41.312  14.099  11.907
40744W        W13004   6.320  14.153   1.372
40745W        W13005  19.669  28.929   4.338
40746W        W13006  11.321   3.744  13.000
40747W        W13007  40.834   8.864   4.124
40748W        W13008  33.131  21.140  14.797
40749W        W13009   9.710  10.736   0.449
40750W        W13010   9.724  19.093   2.274
40751W        W13011  10.291  26.045   4.798
40752W        W13012   0.764  33.083  10.640
40753W        W13013  27.523   6.793  10.585
40754W        W13014  39.388  18.085  11.523
40755W        W13015  17.136  23.555   1.738
40756W        W13016  28.564  12.765  13.002
40757W        W13017  19.044  15.329  10.514
40758W        W13018  35.510  24.626  11.937
40759W        W13019   2.774  22.064   2.361
40760W        W13020   1.361   9.157  11.924
40761W        W13021   8.878  41.385   2.217
40762W        W13022  20.611  10.225   2.395
40763W        W13023  20.739  30.619   4.189
40764W        W13024  29.117  34.455  13.932
40765W        W13025  38.525  26.974   4.242
40766W        W13026   0.377  26.038   3.370
40767W        W13027  41.373  40.015   3.266
40768W        W13028  25.164  19.631  11.603
40769W        W13029  42.397   3.290  11.047
40770W        W13030  21.746  27.604   1.356
40771W        W13031   1.936  20.225  11.468
40772W        W13032  14.611   1.275   4.280
40773W        W13033  38.010  20.654  14.988
40774W        W13034  21.149  29.101  10.620
40775W        W13035   2.347  18.732  12.857
40776W        W13036   3.269  42.866  11.607
40777W        W13037  24.675  20.208  13.316
40778W        W13038  22.655   1.949   5.241
40779W        W13039  29.133  43.388  13.960
40780W        W13040  34.992   3.442  12.395
40781W        W13041  42.025  43.469   1.905
40782W        W13042   2.792  11.350  11.919
40783W        W13043  17.100  23.645  11.980
40784W        W13044  11.834  41.844  12.465
40785W        W13045  27.658  19.209  12.083
40786W        W13046   6.422  43.426   2.295
40787W        W13047  41.889   5.825  10.605
40788W        W13048   6.238  43.282  14.915
40789W        W13049   3.224   4.941   4.715
40790W        W13050  38.379  13.228   4.819
40791W        W13051  16.206   7.762   1.727
40792W        W13052  36.417  35.550   1.889
40793W        W13053  15.190  17.089   1.920
40794W        W13054  44.829  40.993   3.158
40795W        W13055  10.840  26.056   4.733
40796W        W13056  27.546  39.872   5.762
40797W        W13057  23.521  15.750   4.670
40798W        W13058  11.141  41.293  12.468
40799W        W13059  31.977  44.338  11.535
40800W        W13060   7.334  12.719  10.594
40801W        W13061  16.601  21.227  10.425
40802W        W13062   8.264  13.663  11.954
40803W        W13063  37.516  42.895  13.486
40804W        W13064  24.212  19.124  13.841
40805W        W13065  31.511  43.797  11.551
40806W        W13066   6.383  30.650  14.298
40807W        W13067  10.229  25.203  13.939
40808W        W13068  15.204  39.902   4.157
40809W        W13069  27.462   5.802  12.350
40810W        W13070  26.558   2.301  11.087
40811W        W13071  20.559  43.962  12.020
40812W        W13072  22.594  37.841  13.512
40813W        W13073  44.261  21.180   4.269
40814W        W13074   9.237   2.264   0.243
40815W        W13075  24.098   1.786  12.018
40816W        W13076  20.074  33.584  12.892
40817W        W13077   7.728  30.037  14.000
40818W        W13078  20.245  15.700  13.976
40819W        W13079  21.123   6.837  12.360
40820W        W13080   1.315  30.957  12.952
40821W        W13081  10.807  38.924   0.283
40822W        W13082  27.654  39.544   9.997
40823W        W13083  42.999  40.305  14.938
40824W        W13084  31.137  22.203   4.306
40825W        W13085  11.631  23.643   0.357
40826W        W13086  18.257  34.530  12.483
40827W        W13087  26.111  17.112  13.961
40828W        W13088  22.206  27.566  13.794
40829W        W13089  33.429  25.572  11.466
40830W        W13090  31.563   3.874   4.351
40831W        W13091  44.408  13.696  13.935
40832W        W13092  27.006   0.349  12.388
40833W        W13093  26.573  26.137   4.319
40834W        W13094   1.825  20.536  11.549
40835W        W13095   5.723  20.202   4.660
40836W        W13096  21.569  18.565  14.461
40837W        W13097   5.856  31.098  11.610
40838W        W13098  29.131   1.909   2.823
40839W        W13099  29.508   0.981  10.566
40840W        W13100  39.994  41.400   4.349
40841W        W13101  21.698   2.956  13.982
40842W        W13102  29.569  20.541   4.775
40843W        W13103   3.878  28.023   3.708
40844W        W13104  16.188  13.214  11.532
40845W        W13105  42.286  42.933  11.983
40846W        W13106  41.025  16.238   2.882
40847W        W13107  44.321  44.883  13.974
40848W        W13108  42.385  26.111  12.566
40849W        W13109   6.802   0.781   3.805
40850W        W13110  40.826  37.432  11.603
40851W        W13111  29.001  38.550  12.381
40852W        W13112  41.430   8.710   2.196
40853W        W13113  16.570  10.659  13.984
40854W        W13114  42.458   7.782   4.299
40855W        W13115  35.094  27.661  12.986
40856W        W13116  31.991  24.104   5.175
40857W        W13117  42.404  22.559   1.414
40858W        W13118  30.033   5.781   0.935
40859W        W13119  17.580  12.352   3.315
40860W        W13120   6.794  30.647   3.279
40861W        W13121   3.728  10.850  11.941
40862W        W13122  26.968  23.501   4.353
40863W        W13123  21.239  33.076  13.546
40864W        W13124  38.889   1.273  11.052
40865W        W13125  10.773  34.474  12.528
40866W        W13126  40.410   6.914   3.862
40867W        W13127  43.845  19.538   1.831
40868W        W13128  33.076  37.839   4.199
40869W        W13129  21.262  19.568   4.780
40870W        W13130  36.430   4.931   2.834
40871W        W13131  35.006   1.266  11.957
40872W        W13132  40.032  22.188  11.043
40873W        W13133   9.218  42.976   4.827
40874W        W13134  42.013  32.001  13.957
40875W        W13135   3.326   9.276   1.336
40876W        W13136  28.150  39.002   3.821
40877W        W13137   0.858  13.699  12.897
40878W        W13138   6.883  39.997  14.948
40879W        W13139  19.147   1.855  12.069
40880W        W13140  20.043   4.390  10.644
40881W        W13141   7.202  29.059   1.440
40882W        W13142   7.723  33.384  10.524
40883W        W13143   1.797  14.119  11.551
40884W        W13144  33.126  30.119  12.877
40885W        W13145   3.341  41.504  14.022
40886W        W13146  30.064  21.574   1.270
40887W        W13147  25.678  31.028   2.333
40888W        W13148  31.034   7.259   0.807
40889W        W13149   3.344  42.492  12.378
40890W        W13150  30.926  36.924  11.878
40891W        W13151  26.587  10.789  14.029
40892W        W13152  11.202   5.330  12.479
40893W        W13153   7.765   9.768   4.304
40894W        W13154  10.328  39.999   1.219
40895W        W13155  42.498   9.243   1.740
40896W        W13156  33.119  37.403  14.351
40897W        W13157  15.098  22.702  11.373
40898W        W13158  42.795  11.160  10.568
40899W        W13159  33.956  25.628   3.156
40900W        W13160   6.390  32.953   3.712
40901W        W13161   5.207  27.976  11.017
40902W        W13162   4.426  15.248   3.835
40903W        W13163   4.400  23.015  13.942
40904W        W13164   2.912  20.043   0.444
40905W        W13165  13.711  22.241   0.281
40906W        W13166  31.113  43.961  11.006
40907W        W13167  21.628  21.562  11.411
40908W        W13168  33.035  30.555  13.019
40909W        W13169  20.621  36.581   2.410
40910W        W13170  24.631  17.587   2.344
40911W        W13171  37.520  16.099   3.208
40912W        W13172  38.396   2.853  10.567
40913W        W13173  34.548  40.414  11.553
40914W        W13174  26.999  33.956  13.527
40915W        W13175   3.799  24.013   1.901
40916W        W13176  26.164  32.114   0.449
40917W        W13177  18.235  41.022  10.492
40918W        W13178   8.677  36.954  12.507
40919W        W13179   7.194  26.027   1.374
40920W        W13180   1.420   1.261  10.541
40921W        W13181  28.939   0.880  12.074
40922W        W13182  31.902  35.403   2.289
40923W        W13183   5.424  39.877   3.788
40924W        W13184   7.293   4.289  14.877
40925W        W13185  42.375   8.294  12.940
40926W        W13186  37.887  18.687   4.166
40927W        W13187   4.341  37.547   3.731
40928W        W13188   4.760  37.507  11.983
40929W        W13189   8.340  20.741  11.007
40930W        W13190  40.995  40.941  11.892
40931W        W13191  17.580  39.376  13.047
40932W        W13192  30.453  24.209   1.267
40933W        W13193  12.193  15.710  14.001
40934W        W13194   7.665  14.769  14.912
40935W        W13195  33.010  24.570  12.839
40936W        W13196  43.805   5.240  14.973
40937W        W13197  22.040  30.611  12.033
40938W        W13198   0.780   5.314   3.345
40939W        W13199  44.791  26.517   1.760
40940W        W13200   0.272  21.616   2.215
40941W        W13201  41.980  35.366  12.442
40942W        W13202  29.930   4.704  11.938
40943W        W13203   7.852  17.246   5.275
40944W        W13204  33.604  33.957   3.805
40945W        W13205  13.757  14.737   2.228
40946W        W13206   3.823  38.879  10.895
40947W        W13207  20.753  31.493  12.577
40948W        W13208  20.155  40.890   4.206
40949W        W13209  20.083  11.240   4.285
40950W        W13210  23.106  33.978  12.979
40951W        W13211   1.353  10.235   1.719
40952W        W13212  16.646  27.526  14.480
40953W        W13213  14.624   8.227   1.908
40954W        W13214  17.255   6.766   5.270
40955W        W13215  36.873  36.506   4.673
40956W        W13216   5.701  38.022  12.428
40957W        W13217   2.869   5.262   1.271
40958W        W13218  36.931  36.515   1.906
40959W        W13219  31.068  12.666  14.413
40960W        W13220  43.394  19.557   1.382
40961W        W13221  36.089   3.913  11.556
40962W        W13222  28.529  37.984   3.309
40963W        W13223  31.118  21.609   1.751
40964W        W13224  41.305   5.867   2.284
40965W        W13225  16.722  22.631   4.282
40966W        W13226  39.961  36.357   1.223
40967W        W13227  31.124  11.699  14.325
40968W        W13228  31.526  28.671  12.578
40969W        W13229  41.011  42.839   0.906
40970W        W13230   4.749  42.996  10.038
40971W        W13231  21.051   7.347  13.993
40972W        W13232  37.020   1.784  13.353
40973W        W13233  44.819  30.042  14.481
40974W        W13234  25.178  43.767  14.511
40975W        W13235  40.328   2.862   4.785
40976W        W13236  20.580   3.304   4.163
40977W        W13237   0.814  22.718  12.455
40978W        W13238   7.666  16.717   1.391
40979W        W13239   9.879  19.652   4.648
40980W        W13240  17.781  42.484   4.761
40981W        W13241  42.290  36.551   2.260
40982W        W13242  29.163  28.017   1.910
40983W        W13243   1.426  15.610   5.282
40984W        W13244  39.041  10.825  12.891
40985W        W13245   5.321   1.749   4.191
40986W        W13246  13.832  29.094   0.922
40987W        W13247  41.409   2.773   3.161
40988W        W13248   8.791   2.803  14.504
40989W        W13249  26.500   6.857  10.902
40990W        W13250   3.754  12.272  12.894
40991W        W13251   2.471  13.778   3.248
40992W        W13252   0.985  16.736  14.287
40993W        W13253  20.593  24.487  11.952
40994W        W13254  27.626  39.513  14.818
40995W        W13255  23.717  10.204   5.302
40996W        W13256  42.394  19.571   0.476
40997W        W13257  37.892   0.430   3.773
40998W        W13258  15.622  28.463  11.890
40999W        W13259  12.767  37.069   3.155
41000W        W13260  44.963   0.423   0.454
41001W        W13261  38.373   4.928   0.751
41002W        W13262   8.879  13.232   4.670
41003W        W13263  10.794  16.756   4.830
41004W        W13264   5.373  20.547   0.252
41005W        W13265  44.334  27.966  11.990
41006W        W13266  34.998  34.423   2.321
41007W        W13267  36.026   3.836   4.784
41008W        W13268  37.040  30.614  14.513
41009W        W13269  22.136  19.120  13.966
41010W        W13270  43.421  28.481  10.606
41011W        W13271  39.558   8.271   1.348
41012W        W13272  43.843   3.450  10.494
41013W        W13273  17.222  31.041   4.275
41014W        W13274  21.264  26.046   0.308
41015W        W13275   3.306  13.340   1.764
41016W        W13276  37.475  20.125  10.599
41017W        W13277  11.792  35.857  11.122
41018W        W13278   9.788  10.382  11.518
41019W        W13279  14.282  30.652  12.987
41020W        W13280  19.214  44.856  12.573
41021W        W13281  26.025  24.644   3.187
41022W        W13282  37.446  38.494  14.358
41023W        W13283   4.293  11.670  14.908
41024W        W13284  33.389  33.115  13.856
41025W        W13285  41.318  22.042  11.524
41026W        W13286  16.289   1.786   3.321
41027W        W13287  42.474  28.509   3.192
41028W        W13288  20.615  35.602  12.474
41029W        W13289  17.791  14.602   0.290
41030W        W13290  34.513  43.980  13.523
41031W        W13291  25.664  22.102   1.770
41032W        W13292  14.824  37.542   4.815
41033W        W13293   1.959  19.678  12.947
41034W        W13294  36.543  25.082  13.843
41035W        W13295   5.915  24.666   4.205
41036W        W13296  17.118  37.491   0.848
41037W        W13297  43.914  17.239  12.945
41038W        W13298   4.804  31.142   0.412
41039W        W13299   0.971  26.647  11.095
41040W        W13300  10.875  12.333   4.245
41041W        W13301  31.968  11.713   2.831
41042W        W13302  44.958  42.309  13.796
41043W        W13303   7.882   7.730  11.388
41044W        W13304  15.247  12.845   0.778
41045W        W13305  10.825  13.640   4.752
41046W        W13306  12.761  14.665  13.338
41047W        W13307   4.355   8.264  14.482
41048W        W13308  17.740   1.332   3.233
41049W        W13309   0.263  16.136  12.966
41050W        W13310  13.238   6.377  13.054
41051W        W13311  34.896  13.692  10.597
41052W        W13312  13.722  19.131   3.855
41053W        W13313   8.310  12.741   4.792
41054W        W13314  41.505  32.978  14.449
41055W        W13315  29.490  11.268   4.722
41056W        W13316  26.096  29.539  11.099
41057W        W13317   0.971   5.846  14.365
41058W        W13318   6.223  39.328   2.667
41059W        W13319  33.079  44.295  12.439
41060W        W13320  38.938   6.781   0.857
41061W        W13321  18.771  13.707   4.685
41062W        W13322  38.833  11.754  11.041
41063W        W13323   2.751   5.691   3.712
41064W        W13324  18.764  35.871  11.862
41065W        W13325   1.342  41.846  10.468
41066W        W13326  23.086  22.582  11.609
41067W        W13327  33.936   3.879   1.729
41068W        W13328  20.157  17.091   1.807
41069W        W13329  40.038  24.642   2.356
41070W        W13330   9.654  32.015   2.271
41071W        W13331  34.082  41.343  12.428
41072W        W13332  22.743  13.206   0.480
41073W        W13333  34.118   0.323  13.851
41074W        W13334   5.303  10.313  10.435
41075W        W13335  43.446  15.315   0.896
41076W        W13336   1.904  38.512   3.808
41077W        W13337  42.364  33.960  11.496
41078W        W13338  22.728  32.097   3.816
41079W        W13339  29.172  38.533   1.347
41080W        W13340  27.665  10.277   4.649
41081W        W13341  25.691  10.808  13.824
41082W        W13342   3.901   3.770  13.546
41083W        W13343  40.354   5.355   4.730
41084W        W13344   9.239  23.188  14.468
41085W        W13345  32.895   9.724   0.354
41086W        W13346  30.620  22.067  10.900
41087W        W13347  11.318  17.237   1.376
41088W        W13348  33.499  24.178   0.439
41089W        W13349  21.729  22.245   5.091
41090W        W13350   5.304   4.878  14.925
41091W        W13351   0.252   7.770   4.146
41092W        W13352  23.180  26.665  13.040
41093W        W13353  15.265  22.199   2.790
41094W        W13354  26.476  32.549  12.825
41095W        W13355  35.084  18.681  13.547
41096W        W13356  22.042   6.374  12.075
41097W        W13357  24.634   8.391   3.851
41098W        W13358   0.313  12.258   1.763
41099W        W13359  26.195  13.819  14.961
41100W        W13360   1.884  38.465   0.288
41101W        W13361  40.943  24.990  14.009
41102W        W13362  25.964  15.152  10.894
41103W        W13363  40.385  22.606  12.832
41104W        W13364  13.338  27.063   4.221
41105W        W13365   9.798  10.278   1.829
41106W        W13366  19.154   0.943  13.470
41107W        W13367  28.993  32.629  10.626
41108W        W13368  18.791  28.519  13.892
41109W        W13369  30.483  24.989   1.378
41110W        W13370  24.694  38.503  11.594
41111W        W13371   8.825  11.759   0.448
41112W        W13372  35.552  34.115   0.768
41113W        W13373  21.085  39.511  11.427
41114W        W13374   4.934  34.084  12.856
41115W        W13375  29.027  32.499   3.370
41116W        W13376  19.748  38.848  14.903
41117W        W13377   8.251   8.732   1.722
41118W        W13378  38.897   3.887   3.385
41119W        W13379  21.535  20.245  14.355
41120W        W13380  19.189  13.707  11.561
41121W        W13381   8.217   0.392  11.412
41122W        W13382  44.904   8.211  10.967
41123W        W13383  31.551   1.337   0.902
41124W        W13384  12.672  40.410  12.353
41125W        W13385   6.863   5.375   2.335
41126W        W13386  37.961  38.441   2.810
41127W        W13387   8.376  19.090   1.309
41128W        W13388   0.465  39.392  12.903
41129W        W13389  29.609  13.291   0.282
41130W        W13390  32.121  23.537   2.218
41131W        W13391   6.748  23.629   4.333
41132W        W13392  12.290  29.662   5.213
41133W        W13393  10.688  22.537  14.492
41134W        W13394   4.238  37.532   1.762
41135W        W13395  19.665   1.427  14.916
41136W        W13396  10.719  16.650   2.847
41137W        W13397  12.747  42.417  13.373
41138W        W13398  41.821  34.938  10.987
41139W        W13399  33.102   2.745  10.628
41140W        W13400  40.379  40.538  12.936
41141W        W13401  21.210   9.677   1.290
41142W        W13402  27.940  40.535   0.837
41143W        W13403  14.223   0.974   5.264
41144W        W13404  44.823  34.432  11.861
41145W        W13405  35.048  21.663  10.908
41146W        W13406  29.939  17.702   0.325
41147W        W13407  13.611  30.970   5.645
41148W        W13408  24.092  24.214  11.865
41149W        W13409  42.812   6.319  13.870
41150W        W13410  27.986  37.929   4.645
41151W        W13411  15.683  35.437  13.406
41152W        W13412  11.652   4.822   2.695
41153W        W13413  30.963  23.512  11.969
41154W        W13414  44.484  17.643  12.409
41155W        W13415  22.202  25.093   1.398
41156W        W13416  15.630  16.286   4.652
41157W        W13417  12.717  27.102   0.857
41158W        W13418  28.134  39.334   0.955
41159W        W13419  29.636  28.061  13.340
41160W        W13420  19.273  17.769   1.818
41161W        W13421  22.996  17.116  12.071
41162W        W13422   7.203   8.304  14.465
41163W        W13423  38.897   2.383  13.536
41164W        W13424  44.003   9.692  13.325
41165W        W13425  10.843  33.983   3.637
41166W        W13426  25.196  32.589  12.389
41167W        W13427  32.894  27.051  13.003
41168W        W13428  23.083  11.645  14.450
41169W        W13429  23.671  26.598  11.980
41170W        W13430  10.814   9.792   4.219
41171W        W13431  33.896  25.204  10.919
41172W        W13432  31.605  37.369  10.408
41173W        W13433   9.795  43.783  13.355
41174W        W13434  40.322  38.345  13.368
41175W        W13435   5.739   2.309  11.951
41176W        W13436  38.035  38.912  12.905
41177W        W13437  25.675  43.395   4.300
41178W        W13438  26.519  13.214   2.270
41179W        W13439  30.096  41.454  12.006
41180W        W13440  28.049  20.210   2.705
41181W        W13441  28.455  30.006   3.188
41182W        W13442  36.451  22.542   1.299
41183W        W13443  28.598  22.515   0.769
41184W        W13444  30.583  34.472   1.896
41185W        W13445  21.189  23.217  12.406
41186W        W13446  13.735  29.088   3.167
41187W        W13447   3.808  19.278  14.459
41188W        W13448  11.630   4.708  11.002
41189W        W13449  28.079  11.707  12.393
41190W        W13450  20.112   9.870   3.834
41191W        W13451  14.094   5.227  14.004
41192W        W13452  36.014  44.312  11.959
41193W        W13453  21.069  31.140  11.429
41194W        W13454   5.206  41.038  14.980
41195W        W13455  23.705  18.676   3.763
41196W        W13456   6.363   2.438  10.612
41197W        W13457  38.324  39.498   4.214
41198W        W13458  32.116  16.581   3.365
41199W        W13459  31.979  26.669  11.015
41200W        W13460   5.820  33.096   0.860
41201W        W13461  20.274  27.669   2.834
41202W        W13462  41.010  22.713  11.059
41203W        W13463   0.932  39.883  14.014
41204W        W13464  44.833  16.307  13.932
41205W        W13465   1.305  23.582  11.936
41206W        W13466  31.938  30.578  11.505
41207W        W13467  33.395  16.586   3.190
41208W        W13468   9.850  33.931  13.895
41209W        W13469  15.664  44.850  14.946
41210W        W13470  11.665  40.000   0.484
41211W        W13471  27.159  41.835   0.299
41212W        W13472   3.802   0.458   4.236
41213W        W13473  10.279  13.613  13.403
41214W        W13474  33.426   3.266   3.279
41215W        W13475   7.373   4.234  13.909
41216W        W13476  37.959  19.136  12.385
41217W        W13477  37.863   7.790   1.310
41218W        W13478  38.437  35.988  13.455
41219W        W13479  29.462  38.487   1.878
41220W        W13480  28.541  44.917   3.806
41221W        W13481  16.118  43.279   1.291
41222W        W13482  15.259  19.624   1.839
41223W        W13483  21.138  31.995  13.937
41224W        W13484  19.151  36.886  13.913
41225W        W13485   2.937  37.452  11.916
41226W        W13486  29.463   1.294  11.394
41227W        W13487  20.629  26.638  14.764
41228W        W13488  19.690   8.790  13.501
41229W        W13489  37.479  30.547   3.308
41230W        W13490  43.333  40.012   4.655
41231W        W13491  39.317   1.944  12.853
41232W        W13492  14.286  31.528   3.356
41233W        W13493   4.382  32.631  11.862
41234W        W13494  31.107  22.094   4.756
41235W        W13495  42.803  43.296  13.848
41236W        W13496  39.811   2.917  14.914
41237W        W13497  15.796  20.736   4.668
41238W        W13498  12.743  23.514  12.026
41239W        W13499  21.021  43.940  14.339
41240W        W13500  26.155   8.286  13.814
41241W        W13501  11.323  44.957  10.404
41242W        W13502  14.821   5.832  14.894
41243W        W13503  43.466  30.086   3.247
41244W        W13504  20.599  31.924  13.421
41245W        W13505  34.988  41.326   1.334
41246W        W13506  21.656   6.375  13.496
41247W        W13507  27.616  28.588  11.957
41248W        W13508  17.250  44.962   3.760
41249W        W13509   0.267  31.418  11.555
41250W        W13510  19.238   5.312   1.213
41251W        W13511  31.081  16.637   0.288
41252W        W13512   3.802  37.383  11.076
41253W        W13513  11.722  25.126  10.508
41254W        W13514  25.659  30.059  11.891
41255W        W13515   1.941  21.631   3.157
41256W        W13516  30.508  25.634  14.473
41257W        W13517  17.303   9.241   2.697
41258W        W13518  14.813  36.082   2.303
41259W        W13519  24.603  35.518  11.887
41260W        W13520  21.604  24.654   1.713
41261W        W13521  41.881  26.460  14.513
41262W        W13522  41.425  14.335   3.216
41263W        W13523  35.577  43.961   4.170
41264W        W13524   4.330   4.895  14.294
41265W        W13525  17.165   8.361   3.313
41266W        W13526  23.138  27.048   4.250
41267W        W13527  13.814  13.693  13.038
41268W        W13528   7.882  36.513  13.966
41269W        W13529   2.370   6.367  11.430
41270W        W13530  38.904  40.311  11.487
41271W        W13531  33.907  27.171   3.662
41272W        W13532   7.842   6.289  11.975
41273W        W13533  15.688  38.073   1.218
41274W        W13534  33.966  33.536   3.203
41275W        W13535  26.477  22.591  11.606
41276W        W13536  12.848  19.645   2.203
41277W        W13537  42.499   4.375   2.799
41278W        W13538  37.507   9.288   3.269
41279W        W13539  42.875   4.879   4.269
41280W        W13540  32.134   8.789  10.441
41281W        W13541  33.961  33.440   2.724
41282W        W13542  15.297   1.829  11.602
41283W        W13543  31.575  43.794   3.715
41284W        W13544  16.315   7.200   3.379
41285W        W13545  34.996  34.552  13.792
41286W        W13546  44.864  40.889   4.614
41287W        W13547   2.727  24.524  11.008
41288W        W13548  17.599  24.656  14.822
41289W        W13549  31.060  22.593   4.613
41290W        W13550  41.409  19.109  11.433
41291W        W13551  39.909  36.491  13.514
41292W        W13552  11.643  44.938   1.294
41293W        W13553   3.299   2.247  14.003
41294W        W13554  13.339  26.162   3.164
41295W        W13555  30.461   5.384  11.858
41296W        W13556  37.578  13.257   2.724
41297W        W13557  38.876  32.025   3.185
41298W        W13558  12.791   0.365   1.362
41299W        W13559  29.020  24.677   2.228
41300W        W13560  31.107  11.799   0.964
41301W        W13561  44.925  31.996  11.406
41302W        W13562  19.284  24.205   0.403
41303W        W13563  10.197  35.496   0.953
41304W        W13564  29.670  33.423   3.146
41305W        W13565  32.459  16.273  11.944
41306W        W13566  27.502  27.593   1.376
41307W        W13567   3.365   7.399  14.774
41308W        W13568  44.814   7.188  10.994
41309W        W13569  27.604  38.021   0.382
41310W        W13570  30.647  22.698   2.394
41311W        W13571   9.190  44.807   3.197
41312W        W13572  20.268  16.734   2.791
41313W        W13573  30.928  20.717  10.510
41314W        W13574  16.112  26.158  14.794
41315W        W13575  40.317  11.734  13.448
41316W        W13576  31.559  40.412  14.418
41317W        W13577  36.502  30.559  10.458
41318W        W13578  30.524  35.078   1.419
41319W        W13579  13.785   8.735  12.000
41320W        W13580  37.492  28.078   4.178
41321W        W13581   8.166  11.238   4.289
41322W        W13582  43.414  24.203  12.547
41323W        W13583  27.673   7.863  13.329
41324W        W13584  32.094  17.214   4.764
41325W        W13585  19.069  39.508  11.401
41326W        W13586  19.240  32.927  13.483
41327W        W13587  23.551  31.136  11.928
41328W        W13588  22.741  10.690  12.928
41329W        W13589  41.300  23.000   0.354
41330W        W13590  38.041  39.459  13.531
41331W        W13591   9.318  37.874   0.882
41332W        W13592  10.721  25.569  10.539
41333W        W13593  33.100  22.689  12.979
41334W        W13594   6.241   5.818  13.494
41335W        W13595  10.786  32.957   3.836
41336W        W13596  30.638   9.835   4.715
41337W        W13597  34.034   2.928   1.335
41338W        W13598  33.394  41.351  14.809
41339W        W13599   7.738  36.455  10.471
41340W        W13600  39.526   2.456  12.572
41341W        W13601  29.116  37.927   0.369
41342W        W13602  43.290  22.645   1.427
41343W        W13603  26.966  11.154   0.950
41344W        W13604  33.563   7.768   0.384
41345W        W13605  18.106  34.908  11.510
41346W        W13606  40.321  26.102  10.470
41347W        W13607  44.980   9.164  14.898
41348W        W13608  22.064  35.096   2.865
41349W        W13609   7.307  22.213  13.369
41350W        W13610  28.548  31.429  13.408
41351W        W13611  29.174  13.318   0.278
41352W        W13612   9.284  14.107   0.784
41353W        W13613  24.505  11.671  13.930
41354W        W13614  25.141  25.114  13.866
41355W        W13615  11.846  23.098   3.246
41356W        W13616  17.112  44.869  14.763
41357W        W13617   1.442  39.953   1.364
41358W        W13618   7.283  17.798  12.017
41359W        W13619  27.147  31.983  12.532
41360W        W13620  27.661  31.913   3.253
41361W        W13621   0.405  34.481  13.459
41362W        W13622  18.243  44.917   4.352
41363W        W13623  27.462  14.778   0.476
41364W        W13624  11.621  18.138   0.345
41365W        W13625  42.024   8.355   0.336
41366W        W13626  32.514  35.410  14.457
41367W        W13627  32.063  32.393   3.633
41368W        W13628  12.785  32.587   0.474
41369W        W13629   8.659  28.029  10.572
41370W        W13630  11.621  25.701   4.142
41371W        W13631  44.321  20.530   1.863
41372W        W13632  31.929  37.041   2.373
41373W        W13633   9.283  11.223  12.567
41374W        W13634  35.932  17.248   1.854
41375W        W13635  17.684  23.230   4.135
41376W        W13636   1.256  11.803  10.542
41377W        W13637  37.414  43.486   3.732
41378W        W13638  32.421  40.906  13.461
41379W        W13639   2.921  28.127   2.364
41380W        W13640  15.788   0.784  11.937
41381W        W13641  31.402  30.445   2.310
41382W        W13642  28.951  35.544   4.718
41383W        W13643   8.713  20.566  13.531
41384W        W13644  13.687   5.790   3.194
41385W        W13645  44.759  20.063  10.446
41386W        W13646  37.385  33.585   3.662
41387W        W13647  28.441  41.851  12.363
41388W        W13648  37.436  19.764   2.295
41389W        W13649  23.612  11.328   1.865
41390W        W13650  11.263  29.466   3.182
41391W        W13651   6.756  34.965   1.409
41392W        W13652  44.479  42.467   3.832
41393W        W13653   6.370   3.374   0.442
41394W        W13654  37.085   9.211   2.705
41395W        W13655  26.548  22.235   2.193
41396W        W13656  38.409  14.685  13.368
41397W        W13657  43.429  41.026  10.638
41398W        W13658  24.637  27.667  13.821
41399W        W13659  22.661   0.969   3.748
41400W        W13660  27.110  19.705   2.360
41401W        W13661  40.889  38.045   0.879
41402W        W13662  34.479  32.404  14.383
41403W        W13663  37.497   9.767   0.260
41404W        W13664  32.914  39.516  10.600
41405W        W13665  17.078   0.983   4.222
41406W        W13666  30.147   3.781  11.951
41407W        W13667  12.789  29.633   1.791
41408W        W13668  35.002   8.217  12.548
41409W        W13669   8.758  28.527  13.011
41410W        W13670  21.152  28.549   3.668
41411W        W13671   2.726  30.922   0.842
41412W        W13672  35.602  20.749  10.965
41413W        W13673  40.493   9.213   1.884
41414W        W13674  42.412  17.595  10.926
41415W        W13675   1.841  13.235   1.268
41416W        W13676  19.280  43.783   3.753
41417W        W13677  40.836  38.499  10.943
41418W        W13678   4.910  24.090  13.847
41419W        W13679   3.715  41.806   3.259
41420W        W13680   3.294  32.941   0.393
41421W        W13681  10.238  23.651  13.420
41422W        W13682  31.591  35.416   0.875
41423W        W13683  24.031   4.925  10.976
41424W        W13684  24.532  10.208  10.418
41425W        W13685  29.485  32.558   4.340
41426W        W13686   6.422   2.926  12.406
41427W        W13687  19.070   8.276   5.684
41428W        W13688  15.599  26.603   1.389
41429W        W13689  27.172  39.513  14.929
41430W        W13690   0.255  22.667  10.426
41431W        W13691   3.722   0.966   3.277
41432W        W13692  24.637  36.973   1.870
41433W        W13693  11.260  34.933  14.875
41434W        W13694   4.261   5.398   1.334
41435W        W13695  12.697  33.105   1.345
41436W        W13696  16.225  40.948  13.923
41437W        W13697   6.214  25.490   9.610
41438W        W13698  34.524  31.598  13.948
41439W        W13699  43.960  11.354  13.542
41440W        W13700   0.379   4.826  14.782
41441W        W13701  15.262   4.417   1.319
41442W        W13702  25.533  30.982   3.805
41443W        W13703   7.344  30.654   4.125
41444W        W13704  26.084   5.928  13.507
41445W        W13705   7.880  30.501   2.675
41446W        W13706  26.103  42.876   3.205
41447W        W13707  38.415  28.559  11.529
41448W        W13708   6.891  16.627   0.452
41449W        W13709  24.075  14.267   0.789
41450W        W13710  14.610  42.382   0.819
41451W        W13711  29.991  29.105   4.150
41452W        W13712  39.868  30.649  14.822
41453W        W13713  27.555  20.553   0.326
41454W        W13714  41.324  11.777  14.801
41455W        W13715  44.828  37.467   3.851
41456W        W13716  39.376   5.860  12.985
41457W        W13717   0.745  16.304   1.378
41458W        W13718   4.909  18.667   2.716
41459W        W13719  39.822  42.498  14.957
41460W        W13720  20.643  29.924   4.205
41461W        W13721  24.174  34.440   2.765
41462W        W13722  27.511  39.560   2.283
41463W        W13723  36.859  23.989  13.997
41464W        W13724  10.195  25.051   2.269
41465W        W13725  18.601   1.826  11.915
41466W        W13726  25.674  32.081   0.751
41467W        W13727  14.812  18.192  13.018
41468W        W13728  41.951  22.161   2.346
41469W        W13729   7.736  34.374  11.095
41470W        W13730  19.150  20.693   4.156
41471W        W13731  13.285  29.595  14.775
41472W        W13732  21.154  15.224  10.641
41473W        W13733  31.138  41.529   4.766
41474W        W13734   9.866  31.908  11.991
41475W        W13735  35.373  16.772   2.357
41476W        W13736  27.511  10.199  11.037
41477W        W13737  35.013   0.845   5.146
41478W        W13738  19.119   7.335  10.140
41479W        W13739  21.120   1.799  13.938
41480W        W13740  10.277   5.199   0.851
41481W        W13741   5.746  37.834   0.399
41482W        W13742  39.468  20.056  11.863
41483W        W13743  14.743  35.052   4.735
41484W        W13744  29.664  10.633   3.828
41485W        W13745  30.511   7.786  13.944
41486W        W13746  25.509  18.577  10.922
41487W        W13747  15.207  42.382  10.449
41488W        W13748  22.138  34.490  10.985
41489W        W13749  43.859  19.193   1.750
41490W        W13750  10.252  32.471  14.452
41491W        W13751   4.873   2.920   0.412
41492W        W13752   8.660  31.067  11.592
41493W        W13753  38.463   2.230  14.370
41494W        W13754   1.354  37.970   0.269
41495W        W13755  25.611  10.755  10.583
41496W        W13756  15.123  43.323   0.740
41497W        W13757  28.121  19.234  12.373
41498W        W13758  38.534  35.086   2.214
41499W        W13759  38.338  24.136  13.030
41500W        W13760  13.660  33.907  11.124
41501W        W13761  13.142  18.790  14.021
41502W        W13762  18.639  12.777  12.472
41503W        W13763  10.650   4.261  13.363
41504W        W13764  18.717  40.491   1.725
41505W        W13765   6.285   9.237  10.999
41506W        W13766  21.184  13.139   5.129
41507W        W13767  25.056  37.908  14.767
41508W        W13768  35.968   5.270   0.817
41509W        W13769  34.482   6.835   1.921
41510W        W13770  29.172  23.986  10.908
41511W        W13771  38.505  17.126   1.889
41512W        W13772  23.651   4.733  13.310
41513W        W13773  43.274  21.643   4.156
41514W        W13774  38.851  38.500   1.809
41515W        W13775   2.956  29.545  12.014
41516W        W13776  19.053  39.468  13.893
41517W        W13777  34.982   8.165   1.270
41518W        W13778  11.856   9.207   3.695
41519W        W13779   9.388   8.690   5.237
41520W        W13780  37.961  35.409  12.493
41521W        W13781   2.833   4.271  12.418
41522W        W13782  39.358  23.724   0.341
41523W        W13783   7.231  31.531  10.943
41524W        W13784  36.884  21.697  10.522
41525W        W13785  16.093  15.722   3.687
41526W        W13786  35.479  23.016  14.309
41527W        W13787  16.774  28.060  10.438
41528W        W13788  23.191  20.207   3.661
41529W        W13789  14.744  12.285   2.821
41530W        W13790   7.339  17.169  12.901
41531W        W13791  24.615   3.340   2.325
41532W        W13792  27.662  16.779  10.451
41533W        W13793  41.042  40.004   0.306
41534W        W13794  40.358  43.885  11.566
41535W        W13795  10.776  31.969  14.900
41536W        W13796  20.611  30.501   2.789
41537W        W13797  30.468   8.664  13.999
41538W        W13798  37.441  41.347   2.328
41539W        W13799  16.625  13.700  11.515
41540W        W13800   5.815  35.424  13.934
41541W        W13801  42.428   4.367  12.996
41542W        W13802  40.498   8.364  11.020
41543W        W13803  17.612  13.227   2.759
41544W        W13804  10.806  29.064   1.232
41545W        W13805  42.359  16.632   0.450
41546W        W13806  37.854  41.934  10.514
41547W        W13807   3.336  24.508  10.921
41548W        W13808  21.052  19.219   2.862
41549W        W13809  34.061  44.384  12.507
41550W        W13810  20.075  10.261  14.824
41551W        W13811  43.387   5.781   2.326
41552W        W13812  13.822   9.381   0.852
41553W        W13813  38.863  14.256  10.026
41554W        W13814  39.998  32.419  14.954
41555W        W13815  12.351  30.549   2.833
41556W        W13816  35.435   7.207   2.844
41557W        W13817   1.861  26.612  14.773
41558W        W13818  34.958  24.081  12.976
41559W        W13819  19.691  21.736  14.949
41560W        W13820  14.713  24.145  10.888
41561W        W13821  35.397  10.227  13.038
41562W        W13822  21.657  42.811   3.669
41563W        W13823   6.893  22.633  10.960
41564W        W13824  23.715   3.759   1.220
41565W        W13825   6.758  35.426  13.373
41566W        W13826  44.449  25.589  11.879
41567W        W13827   3.941   6.908   4.764
41568W        W13828  43.319  13.782  14.373
41569W        W13829  26.616   9.354   4.258
41570W        W13830  34.023  24.061   1.444
41571W        W13831  23.612  31.047  12.450
41572W        W13832   8.236  29.431  14.887
41573W        W13833  31.547  36.355   3.169
41574W        W13834  10.245  38.553   3.239
41575W        W13835  27.641  34.410   2.192
41576W        W13836  22.167   5.271   0.247
41577W        W13837  19.558  31.433  12.087
41578W        W13838  42.389   9.844  14.317
41579W        W13839  34.001  25.692  14.401
41580W        W13840  25.521   1.974  10.136
41581W        W13841   8.272  13.725   1.727
41582W        W13842  17.131  31.647   2.360
41583W        W13843  25.133  11.350   2.325
41584W        W13844   8.233  17.623   4.813
41585W        W13845  19.552  20.599  12.393
41586W        W13846  15.138   5.248   1.742
41587W        W13847  28.971  19.664  11.990
41588W        W13848   0.890   9.877  11.038
41589W        W13849  34.558   0.925   1.726
41590W        W13850  31.615  33.402   4.631
41591W        W13851  25.156  35.466  12.973
41592W        W13852  25.608  19.608   4.244
41593W        W13853  33.406  27.043  10.927
41594W        W13854  33.044  43.801  10.556
41595W        W13855  10.848   3.402  11.531
41596W        W13856  10.240  12.147   4.305
41597W        W13857  44.289  42.017   2.319
41598W        W13858  21.019   7.338  14.385
41599W        W13859  44.319  35.958   9.929
41600W        W13860   5.377  32.921  14.945
41601W        W13861   4.719  17.725  10.613
41602W        W13862  23.199   2.865  13.979
41603W        W13863  39.540  38.336  13.464
41604W        W13864  15.696  10.759  10.990
41605W        W13865  19.751  26.472  14.437
41606W        W13866  40.391  38.871   3.267
41607W        W13867  16.148  11.297  13.887
41608W        W13868  34.921  19.643  14.958
41609W        W13869  30.533   7.403   4.747
41610W        W13870  13.189   6.772   3.253
41611W        W13871  25.499  17.772   1.910
41612W        W13872  19.607  37.399  10.596
41613W        W13873  44.903  28.076  14.790
41614W        W13874  35.080   8.758   2.319
41615W        W13875  42.942  29.989   3.300
41616W        W13876   7.743  10.272  11.377
41617W        W13877  27.521   5.884   1.877
41618W        W13878  10.222  30.645  14.396
41619W        W13879  22.124   9.253   0.275
41620W        W13880  20.034  25.613  14.459
41621W        W13881   1.932  30.142  14.407
41622W        W13882   7.384  38.439   3.160
41623W        W13883  44.987  11.176   0.939
41624W        W13884  32.482  17.066   0.265
41625W        W13885  24.039   5.885   4.784
41626W        W13886   9.264  34.487  13.836
41627W        W13887  24.043  21.162  14.853
41628W        W13888  41.410   7.357  14.995
41629W        W13889   3.278  43.853  13.444
41630W        W13890  35.873  16.306   1.703
41631W        W13891  29.099  22.583   2.854
41632W        W13892   0.855  14.604  10.439
41633W        W13893  11.761  14.811   3.236
41634W        W13894  31.421   3.452  11.547
41635W        W13895  38.960  26.657   1.919
41636W        W13896   0.886  33.096   0.773
41637W        W13897  11.333   1.748   1.399
41638W        W13898  44.274  44.902   4.749
41639W        W13899  14.598  44.264  14.972
41640W        W13900  41.936  27.602  13.934
41641W        W13901  22.167   3.946  10.588
41642W        W13902   9.885  25.165   2.773
41643W        W13903   6.345  33.508  12.391
41644W        W13904  40.312  20.170  11.929
41645W        W13905  18.788  44.279   1.785
41646W        W13906  22.131  10.725   2.675
41647W        W13907   3.340  22.732  14.275
41648W        W13908   5.843  35.939  14.507
41649W        W13909   4.428  10.645  12.860
41650W        W13910  30.572  38.349   4.231
41651W        W13911   5.395  38.013  14.869
41652W        W13912  18.673  22.178  11.966
41653W        W13913   8.358  33.587   1.366
41654W        W13914  13.609  16.652  14.476
41655W        W13915   5.826   1.469   0.731
41656W        W13916  31.588   8.294   4.181
41657W        W13917  44.952  37.570   2.349
41658W        W13918   7.762  16.300  13.056
41659W        W13919  42.894  33.103   3.840
41660W        W13920  32.559  22.630   0.270
41661W        W13921  10.646  39.385  13.320
41662W        W13922  25.649   3.323  11.422
41663W        W13923  18.074  17.612  13.978
41664W        W13924   7.904   4.401  12.402
41665W        W13925  33.117  15.268   0.959
41666W        W13926  13.734   5.218   0.245
41667W        W13927  36.852   6.895   0.759
41668W        W13928  24.596  18.721  13.989
41669W        W13929   1.285  20.641   1.253
41670W        W13930  42.500  30.940   3.277
41671W        W13931  12.284  31.621   3.858
41672W        W13932  22.178   1.893   2.776
41673W        W13933   6.300   3.229   4.217
41674W        W13934  20.063  32.603  13.402
41675W        W13935  43.792  24.056   4.230
41676W        W13936  32.134  34.944   4.246
41677W        W13937  42.406   0.848   1.391
41678W        W13938  36.387   4.329  13.373
41679W        W13939  10.818  12.284   1.224
41680W        W13940   0.492  12.290   1.373
41681W        W13941  11.761  41.389   0.255
41682W        W13942  42.820  32.044   1.286
41683W        W13943  23.491   3.456  11.528
41684W        W13944  31.570  42.471   0.377
41685W        W13945  21.261   0.331   4.241
41686W        W13946  12.143  41.402  13.459
41687W        W13947  22.248  37.362  12.398
41688W        W13948  32.091   9.372   2.306
41689W        W13949  18.234  16.621  14.326
41690W        W13950   5.831  25.023   1.711
41691W        W13951  20.252  36.480   4.238
41692W        W13952   4.421  26.169   0.320
41693W        W13953  10.320   9.645   4.324
41694W        W13954   8.251  39.553   4.283
41695W        W13955  29.004  40.034  13.433
41696W        W13956   9.822  37.843  12.514
41697W        W13957   0.251  20.252  13.920
41698W        W13958  24.647  25.650  12.366
41699W        W13959  33.992  14.142  13.806
41700W        W13960  36.086   3.351   4.773
41701W        W13961  15.604  38.824   4.351
41702W        W13962   6.855   5.257  14.765
41703W        W13963  13.746   3.226   2.796
41704W        W13964  34.425  11.640  13.458
41705W        W13965  15.296  11.244   3.804
41706W        W13966  41.932  32.434  14.013
41707W        W13967  28.000  44.288  12.390
41708W        W13968  29.439  27.628   2.764
41709W        W13969   5.902  17.287  11.519
41710W        W13970  16.701   0.967  13.325
41711W        W13971  26.009  15.621  13.812
41712W        W13972  39.003   3.436   9.958
41713W        W13973  18.287  29.952  13.821
41714W        W13974  18.740  26.178   1.447
41715W        W13975  35.593  12.770  11.871
41716W        W13976  41.945  17.619   2.757
41717W        W13977   0.334  32.437   0.810
41718W        W13978   0.912  37.952  13.447
41719W        W13979  41.354  18.172   3.313
41720W        W13980   1.846  19.249  14.833
41721W        W13981  11.838  25.711  14.499
41722W        W13982  42.311  39.852   4.701
41723W        W13983  17.101  20.109  13.817
41724W        W13984  42.832  11.183   4.618
41725W        W13985  13.786  13.176   3.330
41726W        W13986  35.076  41.971  13.496
41727W        W13987   2.888  19.550  12.013
41728W        W13988  12.163   5.871  14.946
41729W        W13989   2.737  31.440  11.512
41730W        W13990   3.228  33.098  11.060
41731W        W13991  43.997  44.778   2.200
41732W        W13992  31.064  11.188  13.862
41733W        W13993  42.431  10.225  10.605
41734W        W13994  39.341   8.360   0.864
41735W        W13995  12.694  30.510  12.530
41736W        W13996  18.086  21.047  11.488
41737W        W13997  11.214   1.387   1.709
41738W        W13998  36.010  40.927  14.947
41739W        W13999  32.483   2.433  14.900
41740W        W14000   9.887  33.469  12.394
41741W        W14001   9.274  30.981  12.059
41742W        W14002  25.552   3.216   3.737
41743W        W14003  36.028   6.211   0.454
41744W        W14004   4.794  44.424  10.550
41745W        W14005  15.812  11.861   1.904
41746W        W14006  13.650   6.755  14.783
41747W        W14007  20.637  23.062   3.358
41748W        W14008  42.019  17.686   2.214
41749W        W14009   3.261  39.495   3.840
41750W        W14010  37.479   6.718  11.578
41751W        W14011  10.341  19.213  13.470
41752W        W14012  15.823  27.137   1.278
41753W        W14013  44.300   6.236   2.365
41754W        W14014  31.917   3.805   2.372
41755W        W14015  19.760  30.461  11.386
41756W        W14016  31.004  25.706   1.830
41757W        W14017   1.439  37.462  13.437
41758W        W14018   6.754   4.209   3.790
41759W        W14019  36.957   9.238   1.303
41760W        W14020   0.927  19.599  10.932
41761W        W14021  35.030  41.840  11.466
41762W        W14022  39.373  37.055   0.375
41763W        W14023   9.665  15.318   1.439
41764W        W14024  40.017   2.426   3.243
41765W        W14025  25.575  41.787  13.530
41766W        W14026  28.165  22.593  13.933
41767W        W14027  11.726   7.317   4.193
41768W        W14028  37.035  22.681  10.640
41769W        W14029  38.857  18.758  11.942
41770W        W14030  28.649  23.647   3.838
41771W        W14031  16.189  41.041   4.817
41772W        W14032  19.695   5.283   2.730
41773W        W14033  11.864  22.999   4.755
41774W        W14034   5.196   5.320   2.265
41775W        W14035   3.370  39.901   0.842
41776W        W14036  21.720  37.487  12.885
41777W        W14037  36.055  22.651   3.752
41778W        W14038  39.812   5.765   4.161
41779W        W14039  21.130  29.588   4.229
41780W        W14040  19.235  22.179  12.992
41781W        W14041  32.470  29.110   4.628
41782W        W14042  41.863  41.943   3.854
41783W        W14043  19.090   7.769  13.959
41784W        W14044   5.299  37.989  13.417
41785W        W14045  16.091   6.427   1.431
41786W        W14046   6.789  16.314   3.845
41787W        W14047  40.333   0.903   4.303
41788W        W14048   8.263  12.686   1.933
41789W        W14049  18.262   5.426  14.928
41790W        W14050  22.582  36.022  10.573
41791W        W14051  36.067  10.857   0.306
41792W        W14052  19.092  14.192   3.780
41793W        W14053  24.149  11.624  11.109
41794W        W14054  42.980  21.516  12.925
41795W        W14055   8.316  23.002  13.946
41796W        W14056  37.471   5.198  10.453
41797W        W14057  21.513   9.799   0.965
41798W        W14058  26.143   9.784  14.322
41799W        W14059  36.923   2.246   3.744
41800W        W14060   3.460  44.818  10.941
41801W        W14061   6.238  10.327   3.285
41802W        W14062  19.563  40.334  11.866
41803W        W14063  17.687  11.867  12.824
41804W        W14064  11.756  36.061  10.553
41805W        W14065  32.437  44.839  11.018
41806W        W14066  18.596   9.349   2.305
41807W        W14067  31.099   1.760  10.085
41808W        W14068  24.050  21.618   0.373
41809W        W14069  17.157  24.585  10.475
41810W        W14070  32.486  13.262   2.389
41811W        W14071  16.751   9.347  11.494
41812W        W14072  39.924  42.994   4.640
41813W        W14073  31.625  17.560  11.043
41814W        W14074  14.145  38.013   3.177
41815W        W14075  36.523  20.744   5.278
41816W        W14076  33.093   8.313   1.786
41817W        W14077  38.481  21.582  12.363
41818W        W14078  30.002  39.902   3.333
41819W        W14079   7.270  23.180   3.206
41820W        W14080  27.963   9.797  12.884
41821W        W14081  35.942  31.593   2.178
41822W        W14082  32.539  11.656  14.845
41823W        W14083   6.285   0.296  14.297
41824W        W14084  23.607  11.250  12.558
41825W        W14085  37.549   6.734  10.140
41826W        W14086  20.645  25.188   4.750
41827W        W14087   3.262  39.451   4.202
41828W        W14088  27.546   2.822   0.397
41829W        W14089  20.237   9.185  12.422
41830W        W14090  18.659   8.257   9.935
41831W        W14091  30.101  14.707  12.392
41832W        W14092  21.087  21.141   5.180
41833W        W14093  44.765  40.308  14.008
41834W        W14094  12.616  23.096  10.991
41835W        W14095  41.897  17.132  13.968
41836W        W14096  21.713  37.580   3.301
41837W        W14097  21.575  31.939   4.183
41838W        W14098  42.873   1.790  14.433
41839W        W14099  27.191  33.938   4.283
41840W        W14100  12.715  30.953   5.587
41841W        W14101  13.652  13.134   4.746
41842W        W14102   2.311   7.365  13.429
41843W        W14103   5.806  39.499   0.384
41844W        W14104   2.302  37.925   1.432
41845W        W14105  30.454   0.379  10.939
41846W        W14106  27.128  21.532  11.991
41847W        W14107  10.334  41.505   4.247
41848W        W14108  40.311  37.984   3.364
41849W        W14109  19.064  17.794   0.913
41850W        W14110   9.250   9.865   1.703
41851W        W14111  15.123  15.684  13.847
41852W        W14112  29.621   5.262  13.338
41853W        W14113  40.918  25.021  12.505
41854W        W14114  44.460  43.850  11.573
41855W        W14115  33.426  21.025   3.690
41856W        W14116  16.234  41.464   0.732
41857W        W14117  38.912  17.270  11.557
41858W        W14118  35.079  35.020  14.863
41859W        W14119  23.534   9.695   3.204
41860W        W14120  13.800  35.511   4.183
41861W        W14121  36.926  19.629  12.554
41862W        W14122   1.930  27.987   1.437
41863W        W14123  25.601  26.521  10.947
41864W        W14124  32.897   2.898  11.889
41865W        W14125  41.381   8.833   2.687
41866W        W14126   0.873  44.262   0.443
41867W        W14127  41.298  38.925   3.246
41868W        W14128   9.326  14.299   4.622
41869W        W14129  16.273   9.859   4.114
41870W        W14130   2.233  25.706  10.637
41871W        W14131   2.827  32.119   2.722
41872W        W14132  40.938   9.757  11.587
41873W        W14133  24.010  15.797   4.120
41874W        W14134  31.520  31.413   0.829
41875W        W14135  31.059  14.114  12.999
41876W        W14136   3.947   0.916  12.881
41877W        W14137   0.257  35.499   3.192
41878W        W14138   2.795  31.989   1.796
41879W        W14139  20.627   7.855  13.841
41880W        W14140  12.774  28.528  10.916
41881W        W14141   8.894  36.511   3.146
41882W        W14142  43.312   1.242  12.482
41883W        W14143  39.992  35.987  11.053
41884W        W14144  17.724   8.802   3.192
41885W        W14145  33.013  33.030   3.748
41886W        W14146   0.467  44.365   2.735
41887W        W14147   0.352  24.995  14.308
41888W        W14148   7.788  22.129   1.218
41889W        W14149  22.076  44.895   3.206
41890W        W14150  30.136  12.747  13.506
41891W        W14151  40.046  21.137  14.032
41892W        W14152  33.890  18.771  14.462
41893W        W14153   2.759   6.794   0.832
41894W        W14154  21.684  15.111   4.239
41895W        W14155   8.318   1.363  12.858
41896W        W14156  32.402  28.541   3.792
41897W        W14157  10.719   3.362   2.216
41898W        W14158  13.238  24.045   0.943
41899W        W14159  28.551   9.228  12.577
41900W        W14160  17.619   7.780   2.709
41901W        W14161  39.003  38.539   3.840
41902W        W14162   9.199   3.823   2.791
41903W        W14163  39.894  44.269   1.234
41904W        W14164  33.395  22.150  14.497
41905W        W14165  27.992   5.747  11.404
41906W        W14166   3.758  19.221   0.962
41907W        W14167  25.511   3.315  10.007
41908W        W14168  36.016  29.054   0.919
41909W        W14169   9.350  26.459   0.434
41910W        W14170  28.463   1.781   1.386
41911W        W14171  12.244  43.281  11.108
41912W        W14172  41.492  25.205  12.981
41913W        W14173   7.196  18.693  13.969
41914W        W14174  32.588  11.325   3.169
41915W        W14175  39.919  13.614  12.432
41916W        W14176   2.931   7.416   4.241
41917W        W14177  14.620  21.695   1.244
41918W        W14178  21.538   8.899   3.635
41919W        W14179  43.502  30.566  11.085
41920W        W14180  41.005  43.903   3.861
41921W        W14181  28.105  12.232  13.543
41922W        W14182  23.991  16.698  11.602
41923W        W14183  39.396   3.252   1.890
41924W        W14184  18.735   8.276  14.504
41925W        W14185  44.757  14.178   0.859
41926W        W14186  38.997  25.539   2.295
41927W        W14187  27.619  24.669  11.374
41928W        W14188  27.448  16.694   2.348
41929W        W14189  39.955  20.576   4.687
41930W        W14190   4.840   5.733   3.314
41931W        W14191  18.649   3.852  14.358
41932W        W14192  22.678  37.484   3.356
41933W        W14193  25.659  26.982  13.506
41934W        W14194  10.725  32.563   3.739
41935W        W14195   5.715  17.213   2.841
41936W        W14196  43.867  10.163  13.325
41937W        W14197   8.824  11.172   0.811
41938W        W14198  32.398  32.887  14.945
41939W        W14199  18.232  10.365  14.389
41940W        W14200  27.192  29.466  13.815
41941W        W14201  20.263   6.718  13.492
41942W        W14202   4.849  40.012   1.796
41943W        W14203  43.996  32.575   3.187
41944W        W14204  19.253  44.486   4.201
41945W        W14205   8.831   9.796  12.356
41946W        W14206  12.154   3.862   4.776
41947W        W14207  16.186  32.433   2.836
41948W        W14208  34.475  18.254  14.782
41949W        W14209  35.535  38.914   2.841
41950W        W14210   4.205  18.095   0.919
41951W        W14211   9.760  12.714  10.489
41952W        W14212  20.633  44.350   1.220
41953W        W14213   6.338   1.916  11.550
41954W        W14214  28.473  43.800  14.361
41955W        W14215  35.523   4.375  12.412
41956W        W14216   0.467  28.673  12.417
41957W        W14217  13.610  32.623   0.810
41958W        W14218  27.563  16.122  14.859
41959W        W14219  37.967  33.934   2.825
41960W        W14220  21.070   9.239  13.038
41961W        W14221  44.008  19.585   4.782
41962W        W14222  31.593  25.593  12.385
41963W        W14223   6.298  42.997  12.505
41964W        W14224  14.783  41.906   4.151
41965W        W14225  12.743  33.397  12.095
41966W        W14226  15.735  22.220   3.222
41967W        W14227  38.415  10.651  12.873
41968W        W14228  10.817  19.257   4.698
41969W        W14229  12.195  19.089  14.443
41970W        W14230  29.056   5.847   4.763
41971W        W14231  20.742   6.836  10.562
41972W        W14232  44.368  14.652   3.737
41973W        W14233  36.848  15.245   0.897
41974W        W14234   4.366  30.638  13.834
41975W        W14235  29.067   5.407   4.822
41976W        W14236   1.737   8.863  13.059
41977W        W14237  20.066   9.180   2.191
41978W        W14238  19.062  17.216   1.885
41979W        W14239  34.426   1.334   1.851
41980W        W14240  28.108  29.635  10.124
41981W        W14241  16.241  15.298  10.533
41982W        W14242  13.770  37.962  11.530
41983W        W14243   3.347  24.603   1.298
41984W        W14244   2.258  42.429   3.370
41985W        W14245  44.400   4.373   2.285
41986W        W14246   1.925  37.068   1.368
41987W        W14247  14.260  35.472   2.718
41988W        W14248  38.064  10.712  14.289
41989W        W14249  36.396  18.723   0.760
41990W        W14250  26.691  18.721  11.032
41991W        W14251  20.526  21.661  12.559
41992W        W14252  43.933  39.346   3.783
41993W        W14253  32.496  43.838  12.010
41994W        W14254  33.415   6.283  12.905
41995W        W14255  13.736  22.680  11.054
41996W        W14256   7.842   8.226  14.360
41997W        W14257  40.447  29.102  10.107
41998W        W14258  32.922  40.027  11.123
41999W        W14259  26.483  38.068   0.736
42000W        W14260  13.840   5.859   2.194
42001W        W14261  12.661  20.735  13.424
42002W        W14262  35.542  12.135  12.387
42003W        W14263  20.655  26.129  12.405
42004W        W14264  31.045  21.130  11.977
42005W        W14265  10.201  26.180   3.282
42006W        W14266  11.682  35.013  13.987
42007W        W14267  42.879  23.237   0.346
42008W        W14268   9.644   2.740   3.307
42009W        W14269   0.783  14.680   2.182
42010W        W14270  27.669  31.056  13.992
42011W        W14271   7.698  12.253  11.112
42012W        W14272   8.246   6.830   0.302
42013W        W14273  20.649  40.028  11.082
42014W        W14274  42.516  22.033  11.923
42015W        W14275  10.155  36.395  12.912
42016W        W14276  41.362  16.245  14.804
42017W        W14277  40.925  16.633  14.816
42018W        W14278  44.372  26.047  10.444
42019W        W14279  13.678  43.807   1.814
42020W        W14280  14.133   3.932   2.806
42021W        W14281  27.176  22.634  14.507
42022W        W14282  43.445   6.858   4.823
42023W        W14283  32.404  11.235  12.568
42024W        W14284  24.219  32.518  13.894
42025W        W14285   6.300   4.886   4.751
42026W        W14286   0.876  20.690   2.669
42027W        W14287  29.494   6.292   4.715
42028W        W14288   2.745  42.885   0.266
42029W        W14289  20.658  25.539   3.271
42030W        W14290  33.885   2.326   1.257
42031W        W14291  42.899  44.347   3.646
42032W        W14292  24.122  17.617  13.381
42033W        W14293  20.181  35.556  11.407
42034W        W14294  28.177  24.181  11.954
42035W        W14295  18.710   2.275  10.968
42036W        W14296  20.068  16.728   0.925
42037W        W14297  18.123   7.278  13.336
42038W        W14298  13.731  43.440   1.703
42039W        W14299  14.819  21.742  13.363
42040W        W14300  43.896  37.998  14.298
42041W        W14301   1.956  19.133   1.696
42042W        W14302  27.154  39.898   3.700
42043W        W14303   6.920  42.924  10.511
42044W        W14304  28.165  42.318  11.872
42045W        W14305  14.738  34.463   3.691
42046W        W14306  34.393  37.490   1.416
42047W        W14307   0.330  29.468   0.396
42048W        W14308  39.420  13.788  11.534
42049W        W14309   8.268  44.973   4.756
42050W        W14310  10.740  24.189   0.416
42051W        W14311   4.386   5.841  13.004
42052W        W14312  23.495  39.834   1.766
42053W        W14313  28.119   0.744  11.477
42054W        W14314  14.309  15.218  14.442
42055W        W14315  15.110  26.512   4.713
42056W        W14316   6.194  26.085   1.443
42057W        W14317   7.380   9.847  11.985
42058W        W14318  14.156  42.327   1.275
42059W        W14319   6.183  22.680  11.953
42060W        W14320  36.358  35.939   0.948
42061W        W14321  21.664  17.252   4.264
42062W        W14322  24.006  17.118  11.870
42063W        W14323  38.002  39.375   0.391
42064W        W14324  40.960  12.718  12.534
42065W        W14325  33.057  27.999   3.851
42066W        W14326  29.494  14.165   4.693
42067W        W14327  22.084  27.574  13.446
42068W        W14328   6.899  33.009   3.719
42069W        W14329  18.737   7.210  11.534
42070W        W14330  15.603  17.600   2.222
42071W        W14331  30.141  40.440   3.278
42072W        W14332  43.891   0.877   4.133
42073W        W14333  29.053  40.365  11.074
42074W        W14334  27.056  19.077  11.449
42075W        W14335  14.670  25.709  11.609
42076W        W14336   8.392   1.781   2.767
42077W        W14337  24.110  32.495   1.238
42078W        W14338  38.903  34.962   5.173
42079W        W14339   5.310  22.709  14.319
42080W        W14340   0.927  31.937  12.008
42081W        W14341  37.941  12.649  12.935
42082W        W14342  44.293  10.756   1.386
42083W        W14343  34.503  10.717  11.444
42084W        W14344   1.473  32.536  12.535
42085W        W14345  17.559   9.338  10.445
42086W        W14346  24.018  31.543   3.235
42087W        W14347  41.456  29.099   1.764
42088W        W14348  14.669  33.091  13.325
42089W        W14349  25.962  27.002  10.939
42090W        W14350  37.843  19.533  10.467
42091W        W14351   9.175  24.090   0.249
42092W        W14352  32.480   4.300   3.257
42093W        W14353  29.482  35.496   1.702
42094W        W14354   1.733  16.657  11.569
42095W        W14355   5.318  10.814  12.940
42096W        W14356  25.585  40.991   2.715
42097W        W14357  28.522   9.659   4.263
42098W        W14358  22.176  18.674   1.768
42099W        W14359  22.096   0.985  11.873
42100W        W14360  16.674  16.605  13.914
42101W        W14361  34.087  33.917  12.014
42102W        W14362  14.769  31.121  11.420
42103W        W14363  21.203   5.334   2.733
42104W        W14364  19.623   7.362   3.261
42105W        W14365  39.445   1.382   0.962
42106W        W14366   0.750  10.727  12.453
42107W        W14367  14.771   2.419   3.170
42108W        W14368  21.129  42.449   2.316
42109W        W14369  11.228   2.416   3.819
42110W        W14370   7.362   1.899   1.725
42111W        W14371   8.884  32.420   2.896
42112W        W14372  34.444  36.561   2.726
42113W        W14373  28.961  18.211  13.016
42114W        W14374  35.409  18.076  12.563
42115W        W14375  41.516   3.304   1.916
42116W        W14376   1.247  33.962   4.306
42117W        W14377   0.909  36.486  12.415
42118W        W14378   8.193  15.165   0.353
42119W        W14379  36.497   7.366  13.494
42120W        W14380  40.018   5.883   0.922
42121W        W14381  38.468  25.056   4.670
42122W        W14382  42.494   8.734   1.801
42123W        W14383  43.939  12.836  12.390
42124W        W14384  20.123   6.779  12.055
42125W        W14385  13.681  33.926  13.393
42126W        W14386  30.500  40.909   4.729
42127W        W14387  21.032  33.597   0.399
42128W        W14388  13.351  33.952  12.019
42129W        W14389  41.354  39.935   0.324
42130W        W14390  34.489  42.499   0.908
42131W        W14391  43.946  22.111   1.864
42132W        W14392  13.676   4.809   3.263
42133W        W14393  35.384  22.726   3.279
42134W        W14394  10.748  41.002   4.675
42135W        W14395   4.896   8.837  12.352
42136W        W14396  22.158  18.604  14.023
42137W        W14397   0.949  21.656  12.012
42138W        W14398  35.530  40.436  12.387
42139W        W14399  33.978  40.454   3.725
42140W        W14400  39.556  22.139   2.851
42141W        W14401  31.433  19.270   1.848
42142W        W14402   0.396  37.955  14.321
42143W        W14403  20.675  13.769   3.360
42144W        W14404  23.716  44.364  13.425
42145W        W14405  24.188  30.560  10.058
42146W        W14406  14.789  43.921   4.729
42147W        W14407  13.781  29.483  14.909
42148W        W14408  24.021  39.516  11.872
42149W        W14409   8.878  37.066   1.793
42150W        W14410  14.110  33.128   3.298
42151W        W14411  35.974   1.873   1.369
42152W        W14412  38.553  30.105   4.202
42153W        W14413  28.468  20.588   4.600
42154W        W14414  13.331  33.464   2.683
42155W        W14415  22.574   3.724  11.063
42156W        W14416  10.142  13.157   4.254
42157W        W14417  19.132  28.074   1.704
42158W        W14418   2.743  41.533   4.190
42159W        W14419  35.106  27.969   3.202
42160W        W14420  18.768   0.974   2.779
42161W        W14421   4.909  28.626   4.176
42162W        W14422  15.685   0.744   2.711
42163W        W14423  23.047  26.647  12.503
42164W        W14424  32.003   6.367   3.262
42165W        W14425  38.352  26.173  13.900
42166W        W14426  21.061  43.362   1.819
42167W        W14427  41.449   5.302  11.415
42168W        W14428  13.703  39.932   0.437
42169W        W14429  37.968  20.547   1.236
42170W        W14430  31.972  36.844  14.436
42171W        W14431  41.947   6.227  13.998
42172W        W14432  25.697  14.217  10.477
42173W        W14433  17.138  38.880   3.163
42174W        W14434  34.033  17.264   2.844
42175W        W14435   3.301  19.240  13.438
42176W        W14436   6.188  25.526  10.892
42177W        W14437  14.614   3.360  11.878
42178W        W14438  22.108  35.940   1.381
42179W        W14439  29.169  21.239   4.831
42180W        W14440  31.898  24.573  10.915
42181W        W14441  11.344  22.009   3.671
42182W        W14442  11.749  15.156   1.712
42183W        W14443  28.026   3.742  11.459
42184W        W14444  26.615  18.260  14.824
42185W        W14445  10.641   9.218  12.364
42186W        W14446  23.656  25.204  11.993
42187W        W14447  13.637  21.741   2.224
42188W        W14448  15.722  36.055  12.520
42189W        W14449   5.709  14.222  13.523
42190W        W14450  14.639   1.250  13.002
42191W        W14451  25.517  27.520   1.763
42192W        W14452  23.073  42.475  13.395
42193W        W14453   3.342   7.314  14.483
42194W        W14454  36.442   2.228  12.558
42195W        W14455  31.952  25.612   2.395
42196W        W14456  24.616  22.709   0.356
42197W        W14457   8.295  37.054  11.488
42198W        W14458  17.591  20.196  11.943
42199W        W14459  10.186  18.762  11.601
42200W        W14460  38.409  27.574   2.877
42201W        W14461  32.621  24.520   0.821
42202W        W14462   0.905  30.580   0.433
42203W        W14463  27.597   9.349  10.975
42204W        W14464   7.358   0.456  11.497
42205W        W14465  18.278  18.634  11.486
42206W        W14466  21.651  38.445  12.387
42207W        W14467  37.499   0.971   4.349
42208W        W14468  20.141   0.365  11.425
42209W        W14469   7.232  27.599   9.494
42210W        W14470  18.697  18.637   4.606
42211W        W14471  34.899  33.121  11.056
42212W        W14472  11.792  26.047  14.361
42213W        W14473  26.520  11.697  12.899
42214W        W14474   0.844   8.866   0.431
42215W        W14475  12.287  27.473  13.850
42216W        W14476  32.434  42.484  11.574
42217W        W14477  20.051  26.957  11.039
42218W        W14478   8.876   6.352  11.895
42219W        W14479   8.784   1.324  13.047
42220W        W14480   4.279  10.815  11.047
42221W        W14481  10.347   4.414  12.518
42222W        W14482  16.133  36.371   2.312
42223W        W14483  12.676  26.557   1.720
42224W        W14484  40.347   0.820  12.887
42225W        W14485  12.139  36.078   3.245
42226W        W14486  44.352   2.356   4.135
42227W        W14487  28.625  23.733  11.860
42228W        W14488   9.390  18.135   2.800
42229W        W14489  44.270  13.645   1.441
42230W        W14490  24.998  10.696  11.111
42231W        W14491   9.719  18.709  13.401
42232W        W14492   2.724  17.081  11.868
42233W        W14493   0.291  21.571   1.710
42234W        W14494  31.033   0.340  11.961
42235W        W14495  29.582  10.756  10.444
42236W        W14496  18.577  25.215   0.790
42237W        W14497  37.852  24.000   3.378
42238W        W14498   5.822  20.212   0.415
42239W        W14499  38.843   7.366  13.331
42240W        W14500   5.786   7.366   1.437
42241W        W14501   3.853  40.984   4.319
42242W        W14502   3.280  17.576  11.984
42243W        W14503  37.440  28.988   3.239
42244W        W14504  35.554  11.235  11.577
42245W        W14505  30.098  43.422   2.859
42246W        W14506  35.020  11.843   1.721
42247W        W14507  24.498  36.976  11.102
42248W        W14508  33.620  20.754   2.853
42249W        W14509  24.558  16.133  13.014
42250W        W14510   8.882   9.234   4.303
42251W        W14511  44.292  20.620  12.058
42252W        W14512  30.969   3.348  14.850
42253W        W14513  39.814  30.529   2.203
42254W        W14514   4.841  35.572  11.097
42255W        W14515  42.028  25.997   0.831
42256W        W14516  25.022  44.784   2.352
42257W        W14517   7.677  21.040  14.796
42258W        W14518  44.316   1.355  12.463
42259W        W14519  15.279  34.388  14.885
42260W        W14520  17.679  35.435  11.021
42261W        W14521  13.718   1.249   2.392
42262W        W14522  23.238  19.641   1.754
42263W        W14523  26.104  40.499   2.234
42264W        W14524   7.391  17.111   3.758
42265W        W14525  36.528  20.047  12.432
42266W        W14526  42.941   9.193  11.128
42267W        W14527   8.801  42.377  14.819
42268W        W14528  22.200   2.849  12.085
42269W        W14529  35.902  35.873  12.043
42270W        W14530  43.965   5.871   4.715
42271W        W14531  32.582  40.353  12.961
42272W        W14532   4.407  10.683  12.413
42273W        W14533  21.029  13.839  12.563
42274W        W14534  25.477  28.562  11.018
42275W        W14535   3.794  20.583   3.356
42276W        W14536   7.886   0.890   1.332
42277W        W14537   7.270  17.295  11.450
42278W        W14538  10.345  20.140  14.931
42279W        W14539  35.054  21.096   5.597
42280W        W14540  31.087  35.985  11.896
42281W        W14541   4.385  32.552   2.178
42282W        W14542  26.981  26.459  12.344
42283W        W14543  38.425  37.845   4.267
42284W        W14544  35.021  24.504  12.452
42285W        W14545  21.541  40.347  13.344
42286W        W14546  36.001  27.600   2.878
42287W        W14547   0.485  33.032  12.351
42288W        W14548  29.597   4.259   4.216
42289W        W14549  42.471  31.050  12.484
42290W        W14550  44.367   0.894   1.934
42291W        W14551  22.131  10.823  11.562
42292W        W14552   9.671  27.532  10.502
42293W        W14553   0.780  16.213   0.286
42294W        W14554   9.259  10.682  12.443
42295W        W14555   2.725   6.357   2.718
42296W        W14556   8.690  22.162  13.969
42297W        W14557  43.287  16.158  10.434
42298W        W14558  19.280   9.735   1.373
42299W        W14559  42.335  13.634  14.455
42300W        W14560  44.000   2.340   1.307
42301W        W14561  31.039  35.385  14.906
42302W        W14562   9.645  39.402   4.287
42303W        W14563  11.680  27.080  14.371
42304W        W14564  32.897  31.618   3.230
42305W        W14565  12.782  30.521  11.378
42306W        W14566  23.713  39.330  14.461
42307W        W14567  27.634  20.248   3.693
42308W        W14568  27.468  38.367   1.211
42309W        W14569  12.661  29.971  11.426
42310W        W14570  19.065  36.880   1.853
42311W        W14571  12.628  38.358  11.574
42312W        W14572  43.880  16.681  13.817
42313W        W14573  35.597  42.521   0.444
42314W        W14574  27.602   8.786  11.933
42315W        W14575  41.415  28.483  13.031
42316W        W14576   3.895  42.439   0.867
42317W        W14577  31.444  26.529   1.384
42318W        W14578  15.212  41.486  14.343
42319W        W14579   5.375   8.822  10.980
42320W        W14580  25.562   3.763   0.255
42321W        W14581  44.804  25.077   1.359
42322W        W14582  17.645  41.457  13.361
42323W        W14583  24.707  18.629   1.346
42324W        W14584  16.663  12.222   0.313
42325W        W14585   3.822  43.950   1.354
42326W        W14586   9.295  37.514  14.901
42327W        W14587  41.833  21.153   3.797
42328W        W14588   5.323  24.656   1.738
42329W        W14589  33.443   8.163  14.516
42330W        W14590  20.127  42.483  14.006
42331W        W14591   5.332  37.864   3.824
42332W        W14592   7.869  18.072   1.915
42333W        W14593   4.718   6.269  11.601
42334W        W14594  18.564  43.312  13.533
42335W        W14595  10.678  38.918  12.343
42336W        W14596  36.463  44.893  13.387
42337W        W14597   7.198  28.483   1.766
42338W        W14598   4.204  29.576  10.961
42339W        W14599  11.710  34.990  10.978
42340W        W14600  13.813  13.653  11.005
42341W        W14601   2.337  35.983  10.026
42342W        W14602  23.053   3.361  11.085
42343W        W14603   7.896  34.590  11.566
42344W        W14604  15.627   2.269   3.303
42345W        W14605  42.482  34.063  12.532
42346W        W14606  13.734  44.811  10.927
42347W        W14607  36.957  24.699  12.438
42348W        W14608   5.833  32.958  14.443
42349W        W14609  42.831  42.782  12.558
42350W        W14610  44.431  10.303  13.429
42351W        W14611  42.921  15.274  10.539
42352W        W14612  29.566  29.085  13.798
42353W        W14613   8.884  38.898  11.611
42354W        W14614  28.624  10.781  12.562
42355W        W14615  37.353  40.412  14.340
42356W        W14616  12.730  29.071   2.743
42357W        W14617  39.420  10.340   1.824
42358W        W14618   1.926  10.283  13.059
42359W        W14619   0.763  17.791  11.372
42360W        W14620   9.843  10.867  13.458
42361W        W14621  32.953  35.990  14.343
42362W        W14622  39.881   5.371  12.418
42363W        W14623  37.944  38.826  11.860
42364W        W14624  38.532   4.217  13.807
42365W        W14625  36.453  34.896  12.054
42366W        W14626  11.714  33.587  11.960
42367W        W14627   1.868  36.979   4.230
42368W        W14628  22.592   2.391  10.458
42369W        W14629  39.846   8.759   0.822
42370W        W14630  25.557  32.030  10.494
42371W        W14631  20.761   2.295  11.984
42372W        W14632  30.651  20.564  10.600
42373W        W14633  26.079  14.734  12.403
42374W        W14634  18.786  28.611   3.753
42375W        W14635  20.746  30.995   2.246
42376W        W14636   7.335  12.756  13.877
42377W        W14637  18.619  11.805  11.051
42378W        W14638  44.929  38.896   2.701
42379W        W14639   2.731  10.181  12.453
42380W        W14640  13.830   2.442  12.887
42381W        W14641  31.582   7.255  10.461
42382W        W14642   5.689  10.151  14.979
42383W        W14643  35.599  39.411   1.448
42384W        W14644  14.689   8.847   3.691
42385W        W14645  22.019  40.886   0.483
42386W        W14646  27.988  17.247  12.989
42387W        W14647  10.383  41.857   1.219
42388W        W14648  42.016  37.451  10.977
42389W        W14649   9.260   0.888   0.385
42390W        W14650   7.344  14.317   4.184
42391W        W14651  38.393  38.410   0.731
42392W        W14652   1.317  24.635   3.278
42393W        W14653  28.552   1.471  11.012
42394W        W14654  33.410  32.055  12.905
42395W        W14655  35.546  16.267  13.059
42396W        W14656   4.269  38.971   2.403
42397W        W14657  41.023  19.137  12.874
42398W        W14658  35.509  12.196  12.072
42399W        W14659  10.294  27.691  12.827
42400W        W14660  13.624   3.440   0.878
42401W        W14661  21.026  21.744   2.789
42402W        W14662   8.707  43.808   0.457
42403W        W14663   3.725  19.115   4.777
42404W        W14664  24.042  37.939   2.837
42405W        W14665  28.089  41.826   2.881
42406W        W14666  24.485  23.593   4.143
42407W        W14667   3.332   3.412   1.232
42408W        W14668  17.680  34.872  14.858
42409W        W14669  27.639  28.616   2.820
42410W        W14670  10.797  10.764   3.217
42411W        W14671  10.293  21.164  13.852
42412W        W14672  24.990  29.042  10.545
42413W        W14673  23.679  39.510  13.417
42414W        W14674  20.701   1.812   2.867
42415W        W14675  11.715  26.694   1.774
42416W        W14676  39.993   6.332  14.290
42417W        W14677  37.029   6.309   1.430
42418W        W14678  43.365  24.510  11.078
42419W        W14679  19.156  15.303   4.659
42420W        W14680  43.307   0.808  13.489
42421W        W14681   3.386  13.129   0.838
42422W        W14682  17.072  12.668  12.019
42423W        W14683  26.518  23.501   1.740
42424W        W14684  36.896   0.971  10.621
42425W        W14685  15.204   4.261  14.381
42426W        W14686  17.594   3.754  10.519
42427W        W14687  43.013  27.137  13.834
42428W        W14688   8.804   5.708   2.852
42429W        W14689  28.459  10.728   0.852
42430W        W14690  41.836   1.835  13.394
42431W        W14691   4.808  39.052  13.383
42432W        W14692   9.149  30.617  14.933
42433W        W14693  28.944  37.880   2.785
42434W        W14694  21.586  35.108   2.246
42435W        W14695  41.820  18.695  11.009
42436W        W14696  42.978  27.121  11.036
42437W        W14697  36.501  20.193  14.982
42438W        W14698  43.507  23.095  12.951
42439W        W14699  43.395  23.713   2.821
42440W        W14700   2.895  41.994   2.874
42441W        W14701  19.741  40.928  14.388
42442W        W14702  15.187  40.844  11.081
42443W        W14703  14.154   7.725  11.459
42444W        W14704  35.926  11.181   3.367
42445W        W14705  30.453  10.203   3.155
42446W        W14706  29.452  18.190   2.220
42447W        W14707  37.433  26.588  14.334
42448W        W14708   7.813  33.565   1.237
42449W        W14709  19.699  35.556   2.223
42450W        W14710   7.381  15.093  14.504
42451W        W14711  41.342   5.410  11.109
42452W        W14712   8.858  17.234  14.941
42453W        W14713  39.481   1.480  14.363
42454W        W14714  39.918  22.158   2.892
42455W        W14715  41.940  13.746   2.223
42456W        W14716   7.360  43.790   4.280
42457W        W14717  41.903  39.983   2.724
42458W        W14718  12.641  10.210   4.191
42459W        W14719  15.129   4.816  12.023
42460W        W14720   2.769  10.680   4.271
42461W        W14721  21.056  13.814  11.930
42462W        W14722  36.876   9.732  11.054
42463W        W14723  32.577  20.744  14.467
42464W        W14724   6.356  24.564  14.278
42465W        W14725   2.963  37.550  10.537
42466W        W14726  44.855  26.543   4.221
42467W        W14727  29.440  17.196  11.112
42468W        W14728  40.363  21.212  12.008
42469W        W14729  11.298  39.988   4.129
42470W        W14730   7.277  15.627   1.815
42471W        W14731  36.955  34.477  12.089
42472W        W14732   8.865  11.755  13.372
42473W        W14733  13.133  44.449   5.245
42474W        W14734  29.148  18.196  10.979
42475W        W14735   0.951   8.400   0.437
42476W        W14736  12.182  38.351  14.503
42477W        W14737  10.860  11.295   4.250
42478W        W14738  30.415  29.958   2.328
42479W        W14739  35.423   7.852  13.944
42480W        W14740   1.739  28.977   0.833
42481W        W14741   0.321   9.801   0.470
42482W        W14742  39.844  32.501   1.930
42483W        W14743  19.610  44.276   0.481
42484W        W14744  40.320  12.822  10.115
42485W        W14745   0.272  17.126  12.916
42486W        W14746  15.701   5.752   1.224
42487W        W14747  11.691  22.622   5.177
42488W        W14748  13.180  10.147  14.451
42489W        W14749  42.409   2.799   0.336
42490W        W14750   7.298   2.445  11.595
42491W        W14751   1.890  13.212  11.913
42492W        W14752  12.286   4.855  14.898
42493W        W14753  22.208  42.979  14.327
42494W        W14754   8.259  28.457   4.181
42495W        W14755  10.306  34.459  13.315
42496W        W14756  20.108  36.009  14.871
42497W        W14757  27.124  26.982   3.767
42498W        W14758  22.035  24.659  14.961
42499W        W14759  25.983  25.688   3.694
42500W        W14760  14.629   8.849   4.735
42501W        W14761   1.459  31.910   4.729
42502W        W14762  26.573  41.343  14.776
42503W        W14763   1.889  42.822  10.538
42504W        W14764  15.666   7.885  14.475
42505W        W14765  11.277  29.029  14.351
42506W        W14766   0.442  30.035   2.200
42507W        W14767  23.995  29.928  11.101
42508W        W14768  29.028   5.926  11.956
42509W        W14769   9.191  13.199  11.528
42510W        W14770  38.343  36.369  13.393
42511W        W14771  30.528  15.794  11.583
42512W        W14772  39.496  28.675   4.620
42513W        W14773  32.437  16.739   2.895
42514W        W14774  22.161  23.036   2.760
42515W        W14775  32.942   8.884   0.466
42516W        W14776   8.330  38.889   0.900
42517W        W14777   8.203   2.438   3.825
42518W        W14778  15.183  18.238  13.031
42519W        W14779  27.070   9.270   3.630
42520W        W14780  20.164  26.958   2.750
42521W        W14781   0.248  26.670  12.453
42522W        W14782   3.830  39.012   4.129
42523W        W14783  29.667   3.398   0.422
42524W        W14784  11.751  22.095   3.793
42525W        W14785  22.176  27.653   4.807
42526W        W14786  16.105  30.449   1.344
42527W        W14787  44.799   5.369  12.844
42528W        W14788  28.973  40.896  13.362
42529W        W14789  31.544  22.600   0.407
42530W        W14790   5.329  21.065   4.672
42531W        W14791  26.993  24.653  14.478
42532W        W14792  24.031  20.729  11.396
42533W        W14793  39.018  43.784  10.635
42534W        W14794   5.889   8.288   4.706
42535W        W14795   7.256  41.983   3.368
42536W        W14796   2.890  20.742   3.312
42537W        W14797  16.672  14.298  10.571
42538W        W14798  16.747  10.246  13.545
42539W        W14799  44.431  11.264  14.274
42540W        W14800  10.864   3.291   4.221
42541W        W14801  33.888   2.417  11.545
42542W        W14802  36.465  15.242   4.710
42543W        W14803  16.580  15.118   3.688
42544W        W14804  36.485   4.408   4.694
42545W        W14805  34.906  17.793  12.978
42546W        W14806   2.727  34.611   1.769
42547W        W14807  31.495  29.464   1.451
42548W        W14808  18.562  38.331  12.873
42549W        W14809  17.076  13.658   0.377
42550W        W14810  42.814  27.983   5.311
42551W        W14811  43.340  27.558   4.661
42552W        W14812  28.669   9.239   2.237
42553W        W14813   0.407   2.753   4.302
42554W        W14814   1.977  41.855   2.253
42555W        W14815  10.254  24.719   2.844
42556W        W14816  15.179  37.396  13.355
42557W        W14817   8.264   0.762   3.323
42558W        W14818  20.541  36.084  13.835
42559W        W14819  20.609  19.071  10.997
42560W        W14820  32.528  34.088  10.455
42561W        W14821  41.301  30.449  11.448
42562W        W14822  36.410  12.148  10.556
42563W        W14823  24.664  31.935  11.388
42564W        W14824  29.125  31.974  14.376
42565W        W14825   3.861  20.744  13.411
42566W        W14826   2.747  42.803  12.439
42567W        W14827   7.875  22.509  11.382
42568W        W14828  25.084  43.984   2.671
42569W        W14829  13.122   1.794  11.975
42570W        W14830  25.219  27.019  13.941
42571W        W14831  12.623  15.689  14.414
42572W        W14832  37.065  39.520   3.189
42573W        W14833  30.015  39.387   0.843
42574W        W14834  25.211  11.658   4.251
42575W        W14835  33.947  18.280  11.962
42576W        W14836  14.730  26.633   1.780
42577W        W14837  13.154   5.691   2.227
42578W        W14838   0.266  28.087  11.577
42579W        W14839  25.070  26.106   3.314
42580W        W14840   0.314   7.269   3.827
42581W        W14841  44.764  43.806   2.346
42582W        W14842  31.039  33.030  14.832
42583W        W14843  20.525  11.845  13.816
42584W        W14844  40.809   8.786   3.311
42585W        W14845  41.407  14.609  12.897
42586W        W14846  32.538  15.712  10.115
42587W        W14847  33.891  41.367   3.723
42588W        W14848   9.277  27.138   0.344
42589W        W14849  35.959  43.323   1.408
42590W        W14850  31.979  33.435   4.165
42591W        W14851  13.669  27.144  13.400
42592W        W14852  36.476  19.144   2.832
42593W        W14853  43.280  27.063  13.528
42594W        W14854   2.228   8.207   3.857
42595W        W14855  41.350  32.117   2.266
42596W        W14856  11.688  13.310  13.870
42597W        W14857  17.172  13.720  11.856
42598W        W14858  33.976  27.505  13.526
42599W        W14859  40.932   5.929  11.016
42600W        W14860  35.936  30.911   4.150
42601W        W14861  17.276  10.702   1.434
42602W        W14862  28.597  17.124   0.275
42603W        W14863  41.487  34.526  14.341
42604W        W14864   5.775  40.390  12.447
42605W        W14865  28.012  13.217  10.942
42606W        W14866  15.726  35.374  12.953
42607W        W14867  24.549  40.429  14.417
42608W        W14868  16.318   2.813   3.359
42609W        W14869  39.361  31.143   1.277
42610W        W14870   8.754  10.363  10.543
42611W        W14871  24.210  11.720  14.881
42612W        W14872  37.530   8.353   0.373
42613W        W14873  34.935  34.488  12.923
42614W        W14874  35.053  15.752  10.939
42615W        W14875  10.282   1.260   0.356
42616W        W14876  19.697  33.101   0.336
42617W        W14877  44.486   4.273  12.967
42618W        W14878  31.108  27.458   2.708
42619W        W14879  17.603  17.141   3.276
42620W        W14880  44.332  40.984  12.996
42621W        W14881  19.686  40.815   2.413
42622W        W14882  39.320   0.743   0.918
42623W        W14883  35.410  17.765  14.816
42624W        W14884  43.888  20.213  13.470
42625W        W14885   4.278  22.091  12.472
42626W        W14886  43.990  34.397   2.846
42627W        W14887  40.901  10.704   3.816
42628W        W14888   0.421   5.888   0.876
42629W        W14889  41.789   5.895  13.959
42630W        W14890   3.335  30.527   4.237
42631W        W14891  11.633  36.551   3.805
42632W        W14892  22.129  32.044  14.998
42633W        W14893  33.981   1.953  14.341
42634W        W14894   3.792  36.523  13.032
42635W        W14895  13.128  21.249  11.862
42636W        W14896  31.424  35.997  12.544
42637W        W14897  10.843  10.234  12.998
42638W        W14898  20.138  28.473   1.793
42639W        W14899  25.105  33.552   0.311
42640W        W14900   3.367  40.388  13.927
42641W        W14901  32.122  41.846   1.806
42642W        W14902  40.907   4.276  12.438
42643W        W14903  43.003  14.173   3.660
42644W        W14904  18.077  37.575  12.058
42645W        W14905  13.811  31.907  12.572
42646W        W14906  18.103  32.028   2.710
42647W        W14907  35.102   0.338   1.318
42648W        W14908  39.965  43.972  11.431
42649W        W14909  26.081  33.070   1.407
42650W        W14910  21.226  41.941  13.835
42651W        W14911  38.055  18.233   2.324
42652W        W14912   4.266   1.735   0.266
42653W        W14913  21.045  26.577   5.236
42654W        W14914  17.734  34.505  14.839
42655W        W14915  18.566  11.209  10.545
42656W        W14916   4.252  22.536  13.987
42657W        W14917   1.961  22.700   0.808
42658W        W14918   5.374   0.289  13.542
42659W        W14919  34.561  24.016  14.777
42660W        W14920   4.924  21.654   2.756
42661W        W14921   1.403  32.044   4.292
42662W        W14922  36.503   1.359  12.465
42663W        W14923  34.890   2.426  13.938
42664W        W14924  37.401   3.387  12.080
42665W        W14925  33.020   0.833   1.386
42666W        W14926  11.273  27.019  11.126
42667W        W14927  28.043  41.529  13.333
42668W        W14928  16.740  42.486  11.046
42669W        W14929  18.165  13.328  13.927
42670W        W14930   5.231  33.892   4.345
42671W        W14931  16.582  27.593  12.004
42672W        W14932  31.137  22.030  13.446
42673W        W14933  35.944  19.682  13.504
42674W        W14934  44.343  11.342  10.531
42675W        W14935   1.819  36.873  14.806
42676W        W14936  36.376   9.686   2.327
42677W        W14937  14.730   5.737  12.978
42678W        W14938  36.373   2.274  10.921
42679W        W14939  42.000  14.612   2.816
42680W        W14940  22.155  34.421  11.581
42681W        W14941   4.940  38.064   4.294
42682W        W14942  14.788   5.275  13.447
42683W        W14943  43.934  38.538  11.464
42684W        W14944  23.184  32.917  12.570
42685W        W14945  13.194  30.507  10.002
42686W        W14946  17.099  37.956   3.226
42687W        W14947  29.553  38.379  11.420
42688W        W14948   8.393   8.842   4.611
42689W        W14949  40.869  37.455   1.258
42690W        W14950  30.917  37.877  14.335
42691W        W14951  20.186   9.307   2.771
42692W        W14952  17.637  28.513  14.911
42693W        W14953  43.503   0.250   4.787
42694W        W14954  30.605  31.606  11.481
42695W        W14955  10.649  17.236   3.801
42696W        W14956  21.739  25.040   1.324
42697W        W14957  20.042   6.188   2.202
42698W        W14958   5.199  32.437   4.697
42699W        W14959   1.820  32.063   1.444
42700W        W14960  19.780   2.785   1.811
42701W        W14961  44.954   7.833   0.263
42702W        W14962  42.348  13.656   0.829
42703W        W14963   2.793  44.284   0.379
42704W        W14964  25.992  17.110   4.643
42705W        W14965  20.066  37.405  14.465
42706W        W14966  42.809  34.966   1.357
42707W        W14967   0.486  13.311   1.770
42708W        W14968  40.317  22.720   4.646
42709W        W14969  11.190  31.128   2.757
42710W        W14970  32.947  36.053   2.767
42711W        W14971   7.830  40.855  12.494
42712W        W14972  26.048  24.092  10.548
42713W        W14973  17.143  40.920  12.830
42714W        W14974   5.410  10.830   2.240
42715W        W14975   5.709  44.946  11.916
42716W        W14976  21.646  39.370   4.670
42717W        W14977  31.624  40.493  10.926
42718W        W14978  10.359  43.003   1.750
42719W        W14979   5.776  10.311  10.994
42720W        W14980  31.912  22.091  11.095
42721W        W14981  16.110  28.513   3.344
42722W        W14982  30.070  23.104  12.997
42723W        W14983   0.810  17.065   0.323
42724W        W14984   5.217  13.686   2.839
42725W        W14985   5.303   1.805  14.782
42726W        W14986   9.857  32.955   2.285
42727W        W14987  22.111  25.602   4.294
42728W        W14988  44.985  15.660   4.748
42729W        W14989  10.797  30.043  11.877
42730W        W14990  13.144  25.032  12.094
42731W        W14991  38.488   6.814   1.824
42732W        W14992  35.549   4.359  13.354
42733W        W14993  37.496  31.896  12.054
42734W        W14994  19.246  30.581  13.454
42735W        W14995  44.276  15.218  13.453
42736W        W14996  26.484  16.581   3.214
42737W        W14997   0.822  35.978   1.329
42738W        W14998  10.194  31.555   3.330
42739W        W14999   9.358  22.617  10.418
42740W        W15000  44.895  17.579   2.259
42741W        W15001  43.508  36.420  13.456
42742W        W15002  16.674   7.391   9.532
42743W        W15003   5.215  44.365  13.861
42744W        W15004   1.417  30.053  14.288
42745W        W15005  10.244  17.586   2.895
42746W        W15006   6.238  38.062  12.953
42747W        W15007  10.299  35.910   4.617
42748W        W15008  22.508  32.611   2.332
42749W        W15009   2.749   1.854  12.494
42750W        W15010  31.114  16.699  14.812
42751W        W15011  19.537  29.136   2.796
42752W        W15012  15.790  40.492   0.418
42753W        W15013   8.166  34.007  13.870
42754W        W15014   0.922  36.552   4.796
42755W        W15015  14.118  26.153  13.050
42756W        W15016   5.240   6.683  12.042
42757W        W15017  37.934  21.750   1.909
42758W        W15018  31.976  12.837   2.703
42759W        W15019  25.203  31.072  13.989
42760W        W15020  42.852  27.122  14.872
42761W        W15021  16.774  31.612  13.882
42762W        W15022  33.022  27.472  13.420
42763W        W15023  24.664  31.015   4.710
42764W        W15024   5.763  33.905   2.807
42765W        W15025  41.345   1.383   4.233
42766W        W15026  17.641   4.877  14.938
42767W        W15027  43.500  17.797  13.935
42768W        W15028   6.897  28.141   2.305
42769W        W15029  27.197  15.579   4.812
42770W        W15030  15.261  32.886   2.714
42771W        W15031   1.908  19.130  12.392
42772W        W15032  26.664   2.790   2.330
42773W        W15033  23.727  16.240   0.380
42774W        W15034  29.465   7.201   1.380
42775W        W15035  10.304  25.135  12.996
42776W        W15036  33.576  35.491  14.898
42777W        W15037  30.083  43.452   4.327
42778W        W15038  41.897  32.081   2.821
42779W        W15039   9.303  33.600  10.993
42780W        W15040  40.895  23.529  10.907
42781W        W15041  24.078  12.149  14.825
42782W        W15042  13.251  20.098  11.884
42783W        W15043  23.550  23.187   0.731
42784W        W15044  10.235  19.061  13.975
42785W        W15045  25.695  17.676   3.356
42786W        W15046  22.624  25.999   2.743
42787W        W15047  28.644   9.701   3.831
42788W        W15048  26.697   5.792   3.336
42789W        W15049  41.873  16.573  10.968
42790W        W15050  25.544  13.670   3.170
42791W        W15051   4.797  36.458  12.933
42792W        W15052   0.868  41.969   0.770
42793W        W15053  38.534  13.314   3.151
42794W        W15054  38.462  34.480   0.945
42795W        W15055  20.096  25.154   0.919
42796W        W15056   0.297  26.636   0.297
42797W        W15057  28.181  37.465   0.772
42798W        W15058  36.942   6.799   3.236
42799W        W15059   3.757   8.777  14.387
42800W        W15060  21.683  44.932   2.834
42801W        W15061   6.278  43.297  13.348
42802W        W15062  11.230  44.769  12.414
42803W        W15063  28.447  40.373  13.010
42804W        W15064   5.383  27.599   3.699
42805W        W15065  20.556  34.599   1.875
42806W        W15066  11.157  37.970   2.294
42807W        W15067  12.617  19.656   0.923
42808W        W15068  25.973  20.054  11.491
42809W        W15069  39.876  40.963   2.753
42810W        W15070  32.059  14.755  12.580
42811W        W15071  15.700   2.854   0.398
42812W        W15072  12.313  44.995  13.916
42813W        W15073  44.304  40.447   4.726
42814W        W15074  28.045  35.886   4.257
42815W        W15075  33.980  22.073   0.732
42816W        W15076  10.766  12.240   2.242
42817W        W15077  16.106  37.387  12.053
42818W        W15078   9.724  11.716  10.909
42819W        W15079  21.602  18.260  14.493
42820W        W15080  44.812  14.109   2.799
42821W        W15081  33.387   0.834   4.786
42822W        W15082  20.646  19.039  14.319
42823W        W15083  30.605  22.113   0.942
42824W        W15084  24.176  41.352   3.796
42825W        W15085  42.820  23.987  13.793
42826W        W15086  31.977  23.599   3.192
42827W        W15087  42.359  10.294   3.782
42828W        W15088  44.787  30.531  11.063
42829W        W15089  16.142  12.676   1.262
42830W        W15090  43.918  39.004  10.938
42831W        W15091  32.000  44.315  14.779
42832W        W15092  41.431  17.621   2.802
42833W        W15093  37.344  29.919  11.564
42834W        W15094   8.708  26.547  11.089
42835W        W15095  23.633   9.782   1.823
42836W        W15096  17.113   0.331   2.774
42837W        W15097  26.209  28.550   0.920
42838W        W15098  35.998  14.163   3.821
42839W        W15099  15.238   7.765   2.294
42840W        W15100  15.775  17.198  13.467
42841W        W15101   5.719  12.637  13.437
42842W        W15102  34.561  36.024   3.698
42843W        W15103  13.620   6.329  12.385
42844W        W15104  44.836  19.538  12.520
42845W        W15105  33.470  11.127  12.063
42846W        W15106   1.325  25.043  13.835
42847W        W15107  26.509  35.523   4.720
42848W        W15108  11.349  36.001  12.483
42849W        W15109  26.664  17.166  11.032
42850W        W15110   5.915  29.482   4.117
42851W        W15111  28.551  21.258   3.226
42852W        W15112   9.158  19.062   0.464
42853W        W15113  14.266   3.364   3.822
42854W        W15114  36.007  21.698  14.836
42855W        W15115  40.358  38.839   0.743
42856W        W15116  25.207  32.065   1.367
42857W        W15117  31.927  17.145   2.810
42858W        W15118  44.952  23.634  12.919
42859W        W15119   9.320  43.335  13.870
42860W        W15120  19.671  30.917  10.502
42861W        W15121  12.832  37.023   2.754
42862W        W15122  44.336  27.095   4.146
42863W        W15123   9.785  14.241  11.054
42864W        W15124  40.879  15.284  12.963
42865W        W15125  35.403  34.942   1.702
42866W        W15126  40.508   6.838   0.869
42867W        W15127  18.671   7.805   0.296
42868W        W15128   8.889   2.863  13.381
42869W        W15129  27.644   4.792   1.794
42870W        W15130   9.172  28.125  13.878
42871W        W15131   3.368  25.092   0.373
42872W        W15132  27.052   8.318   0.268
42873W        W15133  30.022  42.010  11.901
42874W        W15134   3.311  42.029   3.867
42875W        W15135  27.130   3.405   4.720
42876W        W15136  20.171   1.839   5.220
42877W        W15137   6.854  43.477   4.778
42878W        W15138  25.587  13.763  12.990
42879W        W15139  15.085  17.090   0.477
42880W        W15140  39.920  32.053   3.336
42881W        W15141  42.310  16.300  12.358
42882W        W15142   0.876  21.732   0.883
42883W        W15143  27.029  28.106  14.962
42884W        W15144  27.562  40.036  11.432
42885W        W15145  38.832  15.319   4.815
42886W        W15146  14.134  32.614  13.941
42887W        W15147  30.521  11.226  14.847
42888W        W15148  18.784  37.836  14.765
42889W        W15149  44.973  37.486   4.706
42890W        W15150  41.475  22.630  12.993
42891W        W15151  16.748  41.464  13.990
42892W        W15152  13.235  14.237  12.938
42893W        W15153  15.226  42.912  11.502
42894W        W15154  11.179  42.864   2.902
42895W        W15155  11.784  10.353   1.811
42896W        W15156   2.266   6.752   3.686
42897W        W15157  17.677  15.664   3.631
42898W        W15158  13.723   0.341  13.396
42899W        W15159  40.804  22.067   1.757
42900W        W15160  28.169   5.418   5.255
42901W        W15161  37.580  41.526   3.320
42902W        W15162  41.319  20.532   2.416
42903W        W15163  11.698  18.631  12.564
42904W        W15164  18.765  41.898   3.220
42905W        W15165  11.850  11.340   2.777
42906W        W15166  40.977  43.460   2.823
42907W        W15167   6.271  12.265  11.970
42908W        W15168  30.446  12.307  13.871
42909W        W15169  26.703  19.204  13.536
42910W        W15170  20.074  36.031  10.537
42911W        W15171  10.635  20.561  11.480
42912W        W15172  35.078  13.295  13.547
42913W        W15173  18.751   1.930  11.101
42914W        W15174  42.954  43.767   4.816
42915W        W15175   6.868  25.182  14.301
42916W        W15176  28.543  21.600   0.293
42917W        W15177   5.416  43.275   4.199
42918W        W15178  33.967  34.423   4.324
42919W        W15179   9.339  29.510   0.920
42920W        W15180   3.750  31.963  13.998
42921W        W15181  10.728  29.060  12.897
42922W        W15182  26.653  35.913   2.194
42923W        W15183  13.643  19.192  10.602
42924W        W15184  21.052   0.339   0.477
42925W        W15185  12.675  19.652   4.819
42926W        W15186  17.584  16.228  13.831
42927W        W15187  12.661   8.786   2.304
42928W        W15188   7.747  28.662   2.759
42929W        W15189   1.274   6.762  14.402
42930W        W15190  21.022  11.150   2.401
42931W        W15191  24.572  19.215  12.432
42932W        W15192  18.547  29.513   2.810
42933W        W15193  38.325  43.294  14.868
42934W        W15194  44.760   8.337   4.354
42935W        W15195   3.809   5.830   2.360
42936W        W15196  28.931  14.184   3.207
42937W        W15197  34.900  12.136   3.266
42938W        W15198  38.909  10.642   0.813
42939W        W15199   2.245  36.985   3.358
42940W        W15200   8.200  29.069   3.859
42941W        W15201   1.453   2.410   1.408
42942W        W15202  29.013   4.399  10.417
42943W        W15203  34.041   5.798  10.547
42944W        W15204  18.209  13.706   2.717
42945W        W15205  43.912   8.333  12.344
42946W        W15206  17.192   1.835   4.352
42947W        W15207  44.286   9.165   1.376
42948W        W15208  13.326   5.420   0.295
42949W        W15209   4.882  16.227  12.085
42950W        W15210   6.357  13.791   3.311
42951W        W15211  21.688  15.726   4.152
42952W        W15212  24.159  19.577  11.958
42953W        W15213   8.828  30.155   4.261
42954W        W15214   8.780  30.508  14.881
42955W        W15215  24.007  17.619  10.447
42956W        W15216   1.252  10.372  10.975
42957W        W15217  11.641  11.640  12.482
42958W        W15218   2.295  17.263  14.786
42959W        W15219  26.461  27.481  11.969
42960W        W15220   5.391  22.668  11.582
42961W        W15221   9.864   3.238  13.057
42962W        W15222   2.457  40.365  14.910
42963W        W15223  40.356  42.375  11.499
42964W        W15224  16.620  30.005  11.532
42965W        W15225  41.995  10.182   9.937
42966W        W15226  44.862  26.475   9.946
42967W        W15227  19.698  39.317  14.416
42968W        W15228  32.551  22.608   4.685
42969W        W15229   7.184  43.951   1.212
42970W        W15230  32.001   1.870  11.382
42971W        W15231  10.724  43.897   0.364
42972W        W15232  29.505  28.457   0.726
42973W        W15233  29.029   5.215   2.185
42974W        W15234   6.199   3.435  14.849
42975W        W15235  16.106  22.718  11.429
42976W        W15236   1.412   4.751  11.428
42977W        W15237   3.716  44.981   3.806
42978W        W15238  13.655  34.596   3.303
42979W        W15239  29.058  25.190   1.905
42980W        W15240   4.850  13.817   0.477
42981W        W15241  30.971  20.120  13.019
42982W        W15242  24.991  14.281  12.048
42983W        W15243   8.864   3.443   5.261
42984W        W15244  26.593  13.639  12.401
42985W        W15245   4.263  40.518  10.596
42986W        W15246  22.234  15.139  12.388
42987W        W15247  10.159  26.472  13.954
42988W        W15248  33.439  40.054   3.780
42989W        W15249  11.135  23.235   4.148
42990W        W15250  34.095  44.351   4.698
42991W        W15251  37.373  20.070  14.371
42992W        W15252   5.916  27.036  11.048
42993W        W15253  15.316  27.525  13.477
42994W        W15254  21.514  24.609  13.527
42995W        W15255   6.280   0.471   4.602
42996W        W15256  12.793   5.226   4.667
42997W        W15257  15.662  38.980  13.336
42998W        W15258  41.857   5.299  11.434
42999W        W15259  33.503  23.143  10.586
43000W        W15260  37.552  21.649   1.773
43001W        W15261  25.568  18.181  10.993
43002W        W15262  25.054   7.177  12.016
43003W        W15263   8.200   9.793   0.747
43004W        W15264  35.093  12.746  13.525
43005W        W15265   5.213   0.487   2.249
43006W        W15266  35.020  31.019  13.440
43007W        W15267  35.049   7.867  11.901
43008W        W15268  14.750   1.848   4.293
43009W        W15269  36.082  21.237  12.091
43010W        W15270   4.776  30.486   2.825
43011W        W15271  34.475  19.045   1.432
43012W        W15272  40.543  26.583   2.860
43013W        W15273  20.100  41.380   0.912
43014W        W15274  39.546  14.601  10.456
43015W        W15275  20.629  28.562  14.428
43016W        W15276  26.482  36.564  13.037
43017W        W15277  21.203   8.759  12.035
43018W        W15278  28.995   2.292  11.461
43019W        W15279  16.697  18.171  10.432
43020W        W15280   2.293  10.291   9.989
43021W        W15281  26.041  27.657   2.402
43022W        W15282  23.068  40.359  14.878
43023W        W15283  36.018  44.962  14.027
43024W        W15284   2.241  11.672  13.037
43025W        W15285  13.665  17.233   4.328
43026W        W15286  35.444  43.948  12.546
43027W        W15287   9.314  36.915  11.551
43028W        W15288  44.504  16.609  14.347
43029W        W15289  30.009  13.337  11.562
43030W        W15290  21.066  10.802   2.306
43031W        W15291  30.456  29.980   0.773
43032W        W15292   8.405  33.381  10.636
43033W        W15293  44.760  32.957  12.960
43034W        W15294  13.231  38.487  12.384
43035W        W15295  42.366  36.443   0.953
43036W        W15296  38.353  23.491   1.242
43037W        W15297  23.140   2.370  14.821
43038W        W15298  19.762  20.542   3.345
43039W        W15299  44.485  35.942   0.256
43040W        W15300  18.644  38.844   3.321
43041W        W15301  39.502  14.208   3.645
43042W        W15302  23.650  41.453   4.145
43043W        W15303  34.090  14.748   3.654
43044W        W15304  11.841  34.598  10.531
43045W        W15305  41.813  43.794  13.460
43046W        W15306  17.118  44.322   3.252
43047W        W15307  24.010  41.338  12.343
43048W        W15308  44.866  22.076  14.359
43049W        W15309  18.274   9.779   0.285
43050W        W15310  14.602  30.070   4.639
43051W        W15311   9.375  15.814   1.765
43052W        W15312   9.806  21.753  11.509
43053W        W15313  32.416  27.076   0.874
43054W        W15314   2.930   4.396   4.327
43055W        W15315  32.022  20.602  13.063
43056W        W15316  39.991  21.640  14.947
43057W        W15317  37.437  18.112  14.891
43058W        W15318  29.443  27.180   4.270
43059W        W15319  19.770   0.784   0.396
43060W        W15320  13.814  33.061   1.852
43061W        W15321  44.797  18.116   0.891
43062W        W15322  16.731  29.025  11.400
43063W        W15323   4.719  10.773   1.236
43064W        W15324  26.548   6.258   4.699
43065W        W15325  13.748  34.978  13.446
43066W        W15326  11.631  42.977   4.801
43067W        W15327  17.185  18.641   4.257
43068W        W15328  39.520  22.054  11.892
43069W        W15329  21.620  31.114   1.390
43070W        W15330  30.930  21.041   2.880
43071W        W15331  13.229  22.660   0.454
43072W        W15332  17.725  40.342   1.831
43073W        W15333  42.927  10.674  14.453
43074W        W15334  35.039  38.896  11.963
43075W        W15335   9.840   9.793  12.845
43076W        W15336  36.510  40.372  11.549
43077W        W15337  38.564  41.871  14.827
43078W        W15338  29.046  31.926  10.067
43079W        W15339  10.357  29.929   2.788
43080W        W15340  30.096  26.703  12.066
43081W        W15341  13.239   8.233  11.585
43082W        W15342  29.026  40.895   0.391
43083W        W15343  27.502  14.762  12.865
43084W        W15344  16.701  30.007  11.105
43085W        W15345  29.939  31.528   0.330
43086W        W15346  23.031  14.724   4.133
43087W        W15347  30.981  42.314  12.501
43088W        W15348  30.021  41.877  10.494
43089W        W15349  14.831  38.400   2.369
43090W        W15350   5.376  13.291  10.455
43091W        W15351   0.860  35.522  10.998
43092W        W15352  15.678  38.982  13.855
43093W        W15353  20.195  13.290  12.917
43094W        W15354   3.724  19.537   5.211
43095W        W15355  27.477  34.455   3.238
43096W        W15356  14.800  33.407   1.374
43097W        W15357  26.976  18.134   3.846
43098W        W15358  37.483  13.215   0.746
43099W        W15359   1.275  17.295   2.843
43100W        W15360  15.236  16.571   4.186
43101W        W15361  27.060  41.403   2.705
43102W        W15362  12.329  26.142  14.000
43103W        W15363  11.856  25.963   1.373
43104W        W15364  41.525  26.966   4.775
43105W        W15365  11.792   4.705   3.744
43106W        W15366  42.873  21.051   1.397
43107W        W15367  44.283  27.446  11.977
43108W        W15368  23.599  23.505   2.239
43109W        W15369  15.594  25.966   1.289
43110W        W15370  28.148   9.213  10.994
43111W        W15371  24.525  17.755   4.700
43112W        W15372  37.502  25.049  13.370
43113W        W15373  16.588  33.518   1.382
43114W        W15374   1.406  24.198  10.426
43115W        W15375  13.250  27.955   0.760
43116W        W15376  29.986  31.538   1.360
43117W        W15377  20.113  40.327   2.180
43118W        W15378  31.079  30.613   2.865
43119W        W15379  30.985   3.954  12.498
43120W        W15380  43.952  31.456  10.549
43121W        W15381  17.682  20.605   3.368
43122W        W15382   6.921  14.109   1.331
43123W        W15383   2.270  17.096  10.498
43124W        W15384  41.811  21.161  12.004
43125W        W15385  32.550  15.147  14.796
43126W        W15386  21.648  28.075  10.127
43127W        W15387  39.903  34.045  12.948
43128W        W15388  24.000   1.323   0.252
43129W        W15389  43.363  43.828  11.053
43130W        W15390  14.333   8.683  13.959
43131W        W15391  19.546  10.286  13.865
43132W        W15392  17.668  26.583  13.517
43133W        W15393  38.909   1.874   3.239
43134W        W15394  31.032   0.837  10.510
43135W        W15395  11.294  21.523  11.972
43136W        W15396  40.500  34.426  14.792
43137W        W15397   0.795  11.185   4.308
43138W        W15398  17.765   9.732   4.726
43139W        W15399  18.759  33.957   3.682
43140W        W15400  17.104  29.101   3.232
43141W        W15401   0.482   3.780  12.493
43142W        W15402  44.428  34.596   2.746
43143W        W15403  21.146  23.705   0.402
43144W        W15404  39.317  27.672   1.766
43145W        W15405  42.790  37.845  11.498
43146W        W15406  33.395  35.990  10.026
43147W        W15407   0.343  32.395  12.934
43148W        W15408  39.842   9.675  11.950
43149W        W15409   3.417  41.791   5.273
43150W        W15410  18.250  29.653  11.089
43151W        W15411  16.170   5.331   3.275
43152W        W15412  29.011  42.401   0.947
43153W        W15413  19.199  34.921   2.290
43154W        W15414   7.403   3.955   0.344
43155W        W15415  11.251  20.741  11.899
43156W        W15416  26.484  12.138   3.803
43157W        W15417  10.308  25.654  14.809
43158W        W15418  30.948  38.047  14.863
43159W        W15419  24.552  23.689   2.230
43160W        W15420  11.802   6.847  14.885
43161W        W15421   0.989  20.086  10.510
43162W        W15422  14.623   6.394  14.455
43163W        W15423  34.597  32.558   2.821
43164W        W15424  30.997  40.405   3.268
43165W        W15425  10.648  36.983  14.940
43166W        W15426  10.218  39.394  10.576
43167W        W15427  22.159   4.418   2.329
43168W        W15428  32.904  24.030  13.333
43169W        W15429  40.532  11.642  13.971
43170W        W15430   3.897   2.339  13.812
43171W        W15431  20.105  25.153  14.292
43172W        W15432  17.111   1.329   2.811
43173W        W15433  11.176   1.958   0.393
43174W        W15434   0.890  40.359  13.038
43175W        W15435  30.511  17.656  11.099
43176W        W15436   5.689   9.822   3.149
43177W        W15437   3.741   2.345   3.233
43178W        W15438  21.641  29.425  11.537
43179W        W15439  35.515   3.358   2.771
43180W        W15440  14.247  36.852  12.862
43181W        W15441  24.098  14.240   1.798
43182W        W15442  43.006  39.840   3.159
43183W        W15443  42.344   8.844  13.513
43184W        W15444  27.056  40.010   1.366
43185W        W15445   4.824  21.070   2.357
43186W        W15446   7.275  13.604   0.321
43187W        W15447  28.444  23.551   4.707
43188W        W15448  10.208  11.728   5.171
43189W        W15449  22.046  15.635   1.738
43190W        W15450  22.543  10.763   0.466
43191W        W15451  26.192  44.487   0.328
43192W        W15452  16.190   1.424  10.474
43193W        W15453  12.316   9.202   1.740
43194W        W15454  31.995  27.107  10.630
43195W        W15455  32.510  25.177  13.964
43196W        W15456  30.047   3.929   3.242
43197W        W15457  11.642   1.808   2.893
43198W        W15458  40.853  32.046  13.468
43199W        W15459  38.011  28.972   4.652
43200W        W15460   6.269   5.783   2.782
43201W        W15461  17.081  30.064  14.445
43202W        W15462  32.105  18.295  12.995
43203W        W15463  28.158   0.474   0.757
43204W        W15464   6.889   0.295   1.277
43205W        W15465  41.035   6.297  12.365
43206W        W15466  23.674   2.799  14.445
43207W        W15467  29.054  26.521   1.890
43208W        W15468   6.761  43.902   1.399
43209W        W15469  44.781  34.406  13.445
43210W        W15470  39.550  37.927   0.480
43211W        W15471   5.689  38.424   0.755
43212W        W15472   6.870  16.154   4.828
43213W        W15473   6.814  21.641   0.367
43214W        W15474  32.629  28.102   1.333
43215W        W15475   6.413  24.640  13.531
43216W        W15476  15.249   4.266  14.811
43217W        W15477  34.574  41.531  13.913
43218W        W15478  21.021  22.070  10.054
43219W        W15479  37.476   5.365   3.864
43220W        W15480  37.032  43.507  12.901
43221W        W15481  39.319  33.910  13.514
43222W        W15482  23.496  26.622   2.315
43223W        W15483  32.455   7.784  11.008
43224W        W15484  40.409  16.248   4.203
43225W        W15485  12.267  30.980  12.468
43226W        W15486  35.506  36.435  11.046
43227W        W15487  13.682  20.266   4.261
43228W        W15488  25.572  33.424  11.073
43229W        W15489  43.784  31.625   4.137
43230W        W15490   1.907  40.938   2.308
43231W        W15491  27.520  29.571   2.894
43232W        W15492  41.912  44.369   4.695
43233W        W15493   6.889  31.963  10.510
43234W        W15494  44.292   4.343  14.499
43235W        W15495  23.733   0.856  11.505
43236W        W15496  35.861   7.774  11.112
43237W        W15497  25.018   9.662   1.366
43238W        W15498  14.770   5.209  14.031
43239W        W15499  18.658  17.757   4.139
43240W        W15500  23.141   2.960  12.465
43241W        W15501  24.659  32.503   2.725
43242W        W15502   6.905  29.173   4.810
43243W        W15503  22.695  20.569  11.497
43244W        W15504  28.061   7.333   4.288
43245W        W15505  13.752   0.413  12.837
43246W        W15506  12.769  12.840  12.527
43247W        W15507  16.596   7.708   5.184
43248W        W15508   4.264  20.735  13.822
43249W        W15509   2.828  30.498  11.860
43250W        W15510   5.259  36.930   0.932
43251W        W15511  26.089   0.917   0.925
43252W        W15512  17.157  10.678   1.761
43253W        W15513  30.935  27.547  14.993
43254W        W15514  18.172  27.465  11.394
43255W        W15515  18.639  22.100  10.492
43256W        W15516   2.445  12.693  13.345
43257W        W15517  40.815  16.754  11.378
43258W        W15518  33.094  11.350   1.770
43259W        W15519  29.530  24.194  11.053
43260W        W15520  43.409  30.575   3.769
43261W        W15521  30.147  37.848  10.457
43262W        W15522  18.179  39.992  10.939
43263W        W15523  28.175  14.253   0.764
43264W        W15524  19.187   4.209   0.383
43265W        W15525  36.040  23.110   1.418
43266W        W15526  27.497  42.016  10.985
43267W        W15527  14.338  44.786  10.621
43268W        W15528  30.627  40.840  10.447
43269W        W15529  24.005   2.899  13.463
43270W        W15530  44.389  32.560   3.322
43271W        W15531  10.824  23.192  12.370
43272W        W15532  38.366  30.534  13.434
43273W        W15533  39.902  37.490  11.942
43274W        W15534   5.271  33.896   2.878
43275W        W15535  16.300  41.377   2.396
43276W        W15536  10.744  30.916  10.545
43277W        W15537  20.637  25.051   1.910
43278W        W15538   5.867   5.821   1.914
43279W        W15539  22.077   1.956   2.213
43280W        W15540  17.153  41.834  12.010
43281W        W15541  30.983  25.073  14.365
43282W        W15542  30.043  26.056  11.871
43283W        W15543  26.564   1.252  12.345
43284W        W15544  23.200  23.154  11.054
43285W        W15545  17.077  15.700   2.317
43286W        W15546  18.557  27.953  10.626
43287W        W15547   8.659  25.660   0.800
43288W        W15548  16.238  14.097  10.427
43289W        W15549   0.952   8.367   1.406
43290W        W15550  17.131   3.752  11.979
43291W        W15551   4.757  39.880   9.946
43292W        W15552  11.313  30.947  14.802
43293W        W15553  26.083   2.257   2.361
43294W        W15554  39.947   4.441  11.929
43295W        W15555  40.470  40.812   1.872
43296W        W15556  18.715   6.305  13.955
43297W        W15557  11.314  11.282  10.932
43298W        W15558  22.184  40.380  11.504
43299W        W15559  10.831  37.364   2.724
43300W        W15560  33.128  21.091   4.124
43301W        W15561  34.937  27.570   3.839
43302W        W15562  29.564  13.125  14.013
43303W        W15563  30.470  10.706   3.342
43304W        W15564  42.383   8.348  13.928
43305W        W15565  17.600  12.639  14.945
43306W        W15566  19.061  16.719  13.865
43307W        W15567   3.302  20.608  12.513
43308W        W15568   3.762  31.406   0.334
43309W        W15569  22.021   2.386   1.873
43310W        W15570  34.546  42.471   1.820
43311W        W15571  26.539   6.345   0.360
43312W        W15572  42.312  16.262  14.899
43313W        W15573   8.338   4.810  12.498
43314W        W15574   2.888   3.732   2.728
43315W        W15575   9.355  26.695   4.804
43316W        W15576  42.033  38.876  14.908
43317W        W15577  22.747  16.123   0.287
43318W        W15578  40.053  39.930  12.095
43319W        W15579  12.302  10.853   2.771
43320W        W15580  11.671  19.650  12.574
43321W        W15581  14.765  27.951  13.927
43322W        W15582  31.406  34.914  12.945
43323W        W15583  41.964   3.785  14.919
43324W        W15584  41.518  14.834   4.120
43325W        W15585  27.022  43.413   4.786
43326W        W15586  37.545  18.244   1.272
43327W        W15587  34.059  41.443   4.601
43328W        W15588  43.984  14.748  14.902
43329W        W15589   3.439   3.775  13.497
43330W        W15590  13.215  31.039   5.297
43331W        W15591   2.764  36.513   2.357
43332W        W15592   6.314  16.632   2.309
43333W        W15593  17.599   6.320   2.724
43334W        W15594  29.660  33.570  10.910
43335W        W15595  37.385   2.228   0.308
43336W        W15596  28.491  37.884  11.903
43337W        W15597  15.310  20.191  12.407
43338W        W15598   8.714  25.026  14.957
43339W        W15599  15.823  25.177  11.427
43340W        W15600  40.000   6.393   1.855
43341W        W15601   2.282   1.281   4.295
43342W        W15602  34.481  25.000   2.697
43343W        W15603  11.785  19.754  10.085
43344W        W15604  36.012   6.916  14.300
43345W        W15605  29.555  35.014  12.879
43346W        W15606  22.196  32.995  13.451
43347W        W15607  14.206  10.159  10.598
43348W        W15608  21.121  19.780   3.195
43349W        W15609  36.916   9.651   0.353
43350W        W15610  22.634  44.926   3.326
43351W        W15611  38.885  33.025  14.768
43352W        W15612  35.494  11.129   2.671
43353W        W15613   4.870  22.139  12.473
43354W        W15614  14.601   4.870   4.706
43355W        W15615  31.058  26.611  10.000
43356W        W15616  36.922   5.422  11.027
43357W        W15617  33.967  16.720   1.720
43358W        W15618  33.595  14.632   4.277
43359W        W15619  36.990  17.256   2.741
43360W        W15620   6.748  13.621   2.760
43361W        W15621  38.988   7.376   4.805
43362W        W15622  31.924  25.142  11.604
43363W        W15623  44.389  39.541   4.705
43364W        W15624   7.220   9.832   0.942
43365W        W15625  28.594  27.052  14.306
43366W        W15626  31.523  28.008  14.310
43367W        W15627  12.686   4.826  13.887
43368W        W15628  31.646  43.315  12.986
43369W        W15629   4.259  34.587   4.151
43370W        W15630  25.700  41.446   2.328
43371W        W15631   4.853  23.072  10.925
43372W        W15632  41.987  43.321  10.916
43373W        W15633  27.508   7.172   3.777
43374W        W15634  39.927  30.579  13.853
43375W        W15635  11.855  37.937  14.935
43376W        W15636  14.141  28.941  14.817
43377W        W15637  19.272  35.972   3.311
43378W        W15638  26.025  18.165  10.583
43379W        W15639   5.411   7.702  13.469
43380W        W15640   3.924  12.120   0.797
43381W        W15641   5.316  21.689   4.796
43382W        W15642  19.068  22.076   2.272
43383W        W15643  36.058  25.597  13.809
43384W        W15644  36.522   3.396  13.874
43385W        W15645  30.043  30.433  10.559
43386W        W15646   0.806  32.970  14.833
43387W        W15647  27.505  33.392  14.461
43388W        W15648   7.866   7.888  12.581
43389W        W15649   6.741  11.753   2.294
43390W        W15650   0.743  18.054  12.033
43391W        W15651  25.005  35.511   4.256
43392W        W15652  41.495  16.260   2.253
43393W        W15653   7.252  10.676   0.362
43394W        W15654  37.060  28.557   1.789
43395W        W15655  31.911  18.135  14.417
43396W        W15656  35.514   7.399  11.549
43397W        W15657  25.533  11.267   4.747
43398W        W15658   2.860  29.124  13.979
43399W        W15659   0.781   6.746  12.434
43400W        W15660  40.866  17.769  12.986
43401W        W15661  27.506   8.669  14.011
43402W        W15662  29.543  17.722   3.778
43403W        W15663  43.422   1.319  10.467
43404W        W15664  11.127   3.371  14.480
43405W        W15665  16.728  39.545   1.335
43406W        W15666  32.010  13.153  11.430
43407W        W15667   0.905  35.394  13.049
43408W        W15668   1.285   3.910   0.274
43409W        W15669  40.050  22.137   3.793
43410W        W15670  38.902  44.339   0.306
43411W        W15671   2.741  25.076  13.869
43412W        W15672  18.190  41.501   1.255
43413W        W15673   2.955  10.708   2.416
43414W        W15674  39.933  38.852  10.962
43415W        W15675  20.595  29.474  12.903
43416W        W15676  30.567  31.082   4.122
43417W        W15677  25.474   5.825  13.984
43418W        W15678  19.689  17.620  12.935
43419W        W15679  26.189  12.353  11.968
43420W        W15680  14.199  40.909  14.932
43421W        W15681  12.249   7.386   3.805
43422W        W15682   5.377  26.544   0.832
43423W        W15683   9.376  14.701  14.377
43424W        W15684   4.715  16.626   4.759
43425W        W15685  18.552  22.540   4.166
43426W        W15686  16.188  20.719   1.315
43427W        W15687  29.962  44.983   2.767
43428W        W15688  25.978   8.790   0.430
43429W        W15689   6.766   7.349   0.807
43430W        W15690  34.072   8.788   3.197
43431W        W15691  20.095  11.172  10.997
43432W        W15692  10.732  16.748  12.843
43433W        W15693  26.081  13.607  11.540
43434W        W15694  33.125  28.080  13.886
43435W        W15695  15.577  22.996  12.838
43436W        W15696  35.497  15.735  10.476
43437W        W15697   6.714  41.432   3.870
43438W        W15698   7.744  28.469   0.825
43439W        W15699  41.440   1.867   2.837
43440W        W15700  43.803  32.555  14.943
43441W        W15701  40.901  44.963  13.883
43442W        W15702  10.664  12.325  12.521
43443W        W15703  36.085  21.066   2.878
43444W        W15704  22.061   0.267   4.350
43445W        W15705  30.979   8.777   2.879
43446W        W15706  24.019  31.517  13.337
43447W        W15707   5.402   4.892   3.368
43448W        W15708  31.106   0.403   3.730
43449W        W15709  19.726  11.340   3.747
43450W        W15710  43.347  23.131  10.522
43451W        W15711  28.096  22.090  11.374
43452W        W15712   7.268  44.893   1.403
43453W        W15713   9.652   1.308   4.808
43454W        W15714   0.755  28.028  13.536
43455W        W15715  35.854   1.409   2.191
43456W        W15716   7.380  28.623   3.781
43457W        W15717   9.242  39.907   2.767
43458W        W15718  28.179   4.885   2.316
43459W        W15719  33.926  10.858   2.275
43460W        W15720  40.359  34.928  10.530
43461W        W15721   3.386   3.383  13.878
43462W        W15722  32.435  32.991  13.828
43463W        W15723  41.861  17.069  12.481
43464W        W15724   4.394   5.857  10.471
43465W        W15725  27.517  28.155  13.027
43466W        W15726  25.701  40.507   4.286
43467W        W15727   5.775  27.685   3.804
43468W        W15728  26.085  38.356   3.386
43469W        W15729  11.852  15.244   3.769
43470W        W15730   0.250  21.658  10.418
43471W        W15731  27.486  23.139  12.896
43472W        W15732   4.297   5.747  10.965
43473W        W15733  24.165  21.192   3.672
43474W        W15734  21.635  16.630   0.434
43475W        W15735  22.509  11.826   0.254
43476W        W15736  37.361  10.178  14.413
43477W        W15737  14.675   0.367   1.810
43478W        W15738  30.938   8.658   5.251
43479W        W15739  17.668  17.232  14.404
43480W        W15740  10.185  37.357   4.729
43481W        W15741  42.963  44.976   4.624
43482W        W15742  32.434  38.009  13.417
43483W        W15743  44.454  25.609   2.253
43484W        W15744  29.045   2.234  12.852
43485W        W15745  38.998  19.095  10.994
43486W        W15746  30.439   1.301   1.845
43487W        W15747  19.756  10.637  12.001
43488W        W15748  44.359  40.987   1.726
43489W        W15749  16.658  44.828   1.799
43490W        W15750  14.162  43.325   4.601
43491W        W15751  43.367  25.022  10.148
43492W        W15752   3.432  35.856  12.475
43493W        W15753   4.246  40.826   1.714
43494W        W15754  31.955  36.062  13.451
43495W        W15755  22.011  26.186   3.780
43496W        W15756  33.591  22.072   1.227
43497W        W15757  16.076  21.730   4.793
43498W        W15758  29.079  21.517  11.435
43499W        W15759   6.755   1.289  13.798
43500W        W15760  37.932  42.836  12.903
43501W        W15761  11.184  14.228   3.825
43502W        W15762  16.145   8.289  14.405
43503W        W15763  21.252  29.626   5.157
43504W        W15764   4.844  38.469   3.281
43505W        W15765  29.434  38.514   0.432
43506W        W15766  29.143  36.864  11.871
43507W        W15767  24.066  43.776   1.352
43508W        W15768  15.736  34.082  14.003
43509W        W15769  14.696  21.677  11.541
43510W        W15770  38.042   8.877   4.616
43511W        W15771   1.935  21.551   3.637
43512W        W15772   4.214  21.755   3.798
43513W        W15773  23.605   8.306  11.082
43514W        W15774  30.067   2.307  14.961
43515W        W15775  12.752  20.249   3.682
43516W        W15776   7.244  19.052  13.524
43517W        W15777  12.218   6.405   1.431
43518W        W15778  18.783  44.350  12.462
43519W        W15779   7.909   5.437   0.365
43520W        W15780  38.475  24.156   4.787
43521W        W15781  30.066  36.977  12.075
43522W        W15782  37.393  13.805  10.559
43523W        W15783  27.016   6.740   1.401
43524W        W15784  36.394  24.098  12.902
43525W        W15785  31.571  42.448   2.693
43526W        W15786  14.660  43.398   1.275
43527W        W15787  27.568  41.975   1.431
43528W        W15788  42.433  12.209  11.393
43529W        W15789  23.051  43.364  11.512
43530W        W15790  11.220  26.521   9.955
43531W        W15791  26.510  18.233   2.730
43532W        W15792  30.500  42.459  10.972
43533W        W15793  30.588  28.972   2.214
43534W        W15794  21.595  20.247   4.285
43535W        W15795   7.183  40.875   2.714
43536W        W15796  31.430  26.675  14.489
43537W        W15797  38.027   8.198   0.384
43538W        W15798  14.713  13.701   1.826
43539W        W15799  14.621   8.179  12.546
43540W        W15800  34.931  15.317  12.912
43541W        W15801  16.606  30.629  14.277
43542W        W15802  27.153   8.869   0.276
43543W        W15803  19.100  37.009  11.613
43544W        W15804  35.954  27.518   3.242
43545W        W15805  35.955  41.416   2.764
43546W        W15806  11.142  10.332  13.490
43547W        W15807  21.247   2.391   4.683
43548W        W15808  43.845  43.894   0.846
43549W        W15809   3.238  10.709   2.345
43550W        W15810  33.616  32.097  11.607
43551W        W15811  17.740   7.388   2.336
43552W        W15812  44.482  22.197  12.834
43553W        W15813  44.923  10.281  14.822
43554W        W15814  38.054   4.858   0.940
43555W        W15815   6.249  39.909   2.880
43556W        W15816  44.435   8.370  12.398
43557W        W15817   0.756   9.648   3.188
43558W        W15818  19.183  44.851   3.217
43559W        W15819  31.521  15.180   0.260
43560W        W15820   1.742  31.942   2.278
43561W        W15821   0.396  13.239  12.001
43562W        W15822  11.809  34.882   3.241
43563W        W15823  44.891   3.948   3.711
43564W        W15824  30.160   1.378  14.856
43565W        W15825  31.964  23.551   3.867
43566W        W15826  19.556   1.287  13.884
43567W        W15827  30.537   8.289   1.787
43568W        W15828  26.462  30.939  13.321
43569W        W15829  24.634  14.229   0.265
43570W        W15830   5.763  18.710  10.412
43571W        W15831  42.909  15.771   4.145
43572W        W15832  39.320  30.439   2.819
43573W        W15833  32.061   9.253   0.950
43574W        W15834  18.738   7.723   9.653
43575W        W15835   7.245  17.584  11.109
43576W        W15836  10.228  19.157  14.998
43577W        W15837  43.394  44.420  13.327
43578W        W15838  34.370  10.660  14.897
43579W        W15839  24.550  35.927   1.419
43580W        W15840   7.766  40.525  14.966
43581W        W15841  34.469   8.229   3.288
43582W        W15842   0.742   2.916   3.219
43583W        W15843  35.910  23.040   0.796
43584W        W15844   6.901  21.118   4.175
43585W        W15845  39.475  44.873  10.623
43586W        W15846  34.983   2.442   4.315
43587W        W15847  24.001  35.891  13.397
43588W        W15848   1.309  35.457  14.973
43589W        W15849   3.413  22.683   3.708
43590W        W15850  27.954  30.020  12.042
43591W        W15851  42.446  39.361  11.464
43592W        W15852  21.095  29.058  12.408
43593W        W15853  35.071  28.540  14.871
43594W        W15854  25.021   2.875  14.434
43595W        W15855  16.724  10.359   1.820
43596W        W15856   6.802  32.984   2.796
43597W        W15857  22.039  12.356  14.400
43598W        W15858  19.616  29.088   2.195
43599W        W15859   5.880  20.269   4.156
43600W        W15860  44.920  13.846  11.437
43601W        W15861  14.615  31.897   3.635
43602W        W15862  43.281  28.036  14.371
43603W        W15863   9.664  11.744   3.256
43604W        W15864  10.709  33.885  10.640
43605W        W15865  43.305  27.688   3.645
43606W        W15866  20.040  19.683   1.755
43607W        W15867   0.352  36.901   2.373
43608W        W15868  21.065  26.497  12.941
43609W        W15869  37.846  41.981  12.000
43610W        W15870   4.762   3.919   2.308
43611W        W15871  44.803  39.972   0.839
43612W        W15872  13.230  29.980  13.880
43613W        W15873  29.014  34.467   1.411
43614W        W15874   2.435  19.141  14.512
43615W        W15875  27.459   9.803   2.417
43616W        W15876  32.565  13.814   1.423
43617W        W15877  34.997  25.684   4.209
43618W        W15878  29.048  29.146  14.438
43619W        W15879  38.446  10.799  10.492
43620W        W15880  31.010   5.361   0.895
43621W        W15881  11.257  34.994   2.215
43622W        W15882  32.100   0.273   2.715
43623W        W15883  38.432   0.256   1.779
43624W        W15884  37.383  40.806   3.183
43625W        W15885  12.205   5.312  10.586
43626W        W15886  22.716  30.503   4.782
43627W        W15887  31.617  44.438  10.501
43628W        W15888   8.880  21.093  14.920
43629W        W15889   8.315   3.412  12.949
43630W        W15890  35.063  42.387  14.457
43631W        W15891  36.984  10.822  13.420
43632W        W15892  24.691  23.202   4.615
43633W        W15893  23.984  28.157  14.292
43634W        W15894  15.646  27.534   3.701
43635W        W15895  31.428  27.521   3.688
43636W        W15896  39.524  26.485   1.842
43637W        W15897  40.529  13.309   0.881
43638W        W15898  20.069  20.671  13.917
43639W        W15899  43.002  11.309  13.500
43640W        W15900  30.502  29.064  10.900
43641W        W15901  41.386   9.326  13.793
43642W        W15902  24.977   9.326  11.571
43643W        W15903  43.839  24.161   4.657
43644W        W15904  14.833  25.009  12.472
43645W        W15905  11.806  15.653   2.179
43646W        W15906  44.388  22.524   5.296
43647W        W15907  41.905  41.418   3.299
43648W        W15908  22.708  25.535  13.056
43649W        W15909  41.372  31.537   1.842
43650W        W15910   8.327  17.664   0.802
43651W        W15911  39.429  18.683  14.801
43652W        W15912  31.030  35.060  14.991
43653W        W15913  23.114   2.790  11.987
43654W        W15914  17.633  43.909  10.998
43655W        W15915  25.678  18.730  11.467
43656W        W15916   9.289  39.319  11.543
43657W        W15917   2.864  36.843   4.261
43658W        W15918  35.601   6.416   0.744
43659W        W15919  38.366   2.389   2.180
43660W        W15920  21.674   5.839   3.653
43661W        W15921  39.902  12.212   2.409
43662W        W15922  39.895  18.739  14.501
43663W        W15923  40.850  39.441  14.445
43664W        W15924  28.597  41.016   0.357
43665W        W15925  21.579  39.385  11.956
43666W        W15926  15.233  28.435   0.265
43667W        W15927   0.453  12.136  12.578
43668W        W15928  32.517  23.994   0.869
43669W        W15929  30.138  41.345   3.281
43670W        W15930  43.482   9.262  12.375
43671W        W15931   9.166   7.269  12.846
43672W        W15932  27.555  36.569  11.578
43673W        W15933   6.337  20.081   1.319
43674W        W15934   2.868  27.006  11.943
43675W        W15935  33.604  40.958  14.441
43676W        W15936  35.088   2.240  13.319
43677W        W15937  22.154  26.507   2.749
43678W        W15938  38.382  12.259  10.965
43679W        W15939  33.954  26.104   2.706
43680W        W15940  35.456  23.190   3.770
43681W        W15941  23.164  37.017  14.409
43682W        W15942  15.095  12.120  12.935
43683W        W15943  39.821  40.430   3.853
43684W        W15944  14.194  24.195   3.794
43685W        W15945   4.905  12.631  12.019
43686W        W15946  12.767  28.435   2.864
43687W        W15947  15.212  15.711  12.480
43688W        W15948  26.096  38.988   0.840
43689W        W15949  14.775   9.210   0.942
43690W        W15950  36.536  41.379  12.869
43691W        W15951  38.862  22.159  13.909
43692W        W15952   2.257  14.262  14.999
43693W        W15953  43.769  22.569   3.355
43694W        W15954  22.081  15.135  11.879
43695W        W15955   2.268   8.846  10.528
43696W        W15956   5.800  25.547   0.269
43697W        W15957  39.381  36.568  11.933
43698W        W15958   4.792  25.676  13.533
43699W        W15959  12.620  36.076   1.873
43700W        W15960  35.488  25.032   3.323
43701W        W15961  43.954  41.957   2.743
43702W        W15962  38.569  42.405   2.670
43703W        W15963   1.856   4.750  10.427
43704W        W15964  12.674  37.428  12.506
43705W        W15965  31.143   6.349  13.429
43706W        W15966  32.980  24.046   2.848
43707W        W15967  11.160  17.194  12.964
43708W        W15968   4.831  33.030   3.152
43709W        W15969  10.725   1.295  10.605
43710W        W15970  36.850  34.015  13.048
43711W        W15971  29.990  44.765  13.026
43712W        W15972  28.567  30.460  12.384
43713W        W15973  19.052  40.377  13.473
43714W        W15974  40.879  21.724  13.830
43715W        W15975  18.676  34.408   0.308
43716W        W15976  20.612   7.814  14.425
43717W        W15977   5.326   1.455   4.240
43718W        W15978  15.777  34.531  12.385
43719W        W15979  27.994  11.806   2.667
43720W        W15980  36.578  14.826  10.582
43721W        W15981  40.519  36.887  13.345
43722W        W15982   4.751  28.032   5.702
43723W        W15983  23.676   7.386   1.417
43724W        W15984  21.206  20.119  13.387
43725W        W15985  30.942   1.241   0.331
43726W        W15986  24.214  13.257   4.743
43727W        W15987  41.484  18.640  11.559
43728W        W15988  37.441  14.732  11.534
43729W        W15989  40.433   5.750   2.309
43730W        W15990   6.407  27.457   0.809
43731W        W15991  40.545   1.238  13.837
43732W        W15992  11.311  35.375   2.366
43733W        W15993   6.331  37.482  14.354
43734W        W15994  31.914  22.070  11.402
43735W        W15995  25.567  19.619  10.949
43736W        W15996  37.868  28.977   1.429
43737W        W15997  13.771   4.382  12.003
43738W        W15998   8.856  25.675  12.946
43739W        W15999   9.744  41.788  11.446
43740W        W16000  25.990  44.413   4.793
43741W        W16001  28.983  10.748   0.294
43742W        W16002  40.495  41.923  12.446
43743W        W16003   4.288  44.824  14.424
43744W        W16004  37.839  37.922   0.295
43745W        W16005  44.303   1.260   2.396
43746W        W16006  15.773   0.771  10.922
43747W        W16007  25.053  22.520   3.198
43748W        W16008   4.388   0.840  11.599
43749W        W16009  26.185  41.348   4.663
43750W        W16010   0.431  26.668  14.917
43751W        W16011  22.718   4.715  13.472
43752W        W16012   5.700  18.787   3.219
43753W        W16013  32.472  13.137   4.627
43754W        W16014  12.725   0.823   2.321
43755W        W16015  23.734  16.203  13.927
43756W        W16016  14.206  25.024   0.924
43757W        W16017  34.928  26.043  13.022
43758W        W16018   2.314  26.685  12.868
43759W        W16019  18.194  42.807   0.261
43760W        W16020  33.490  27.554  13.796
43761W        W16021  40.489  33.585   4.301
43762W        W16022   1.427   7.889   2.673
43763W        W16023  31.043  44.262  14.994
43764W        W16024  26.978  17.175   1.713
43765W        W16025  41.491  20.673  10.444
43766W        W16026  11.209  29.507  10.975
43767W        W16027   0.389   9.700   4.172
43768W        W16028  18.765  17.137   2.280
43769W        W16029  34.103  37.476   0.434
43770W        W16030  19.743   5.327  11.872
43771W        W16031  34.884  21.597   9.540
43772W        W16032  27.957   5.890  13.924
43773W        W16033   4.203   0.484   3.352
43774W        W16034  19.656  17.183  14.899
43775W        W16035  26.477  15.759  13.947
43776W        W16036  43.279   6.249  14.497
43777W        W16037  40.046  35.948   2.836
43778W        W16038  22.640  43.967  11.915
43779W        W16039  12.826   1.346  12.084
43780W        W16040  15.653   1.834   0.931
43781W        W16041  34.583  11.157   4.165
43782W        W16042  24.659  13.741  11.942
43783W        W16043   5.839  41.878   0.780
43784W        W16044  37.956  20.115   2.264
43785W        W16045  39.972  33.586  14.904
43786W        W16046  29.068   7.312   0.364
43787W        W16047  34.431   7.235   1.425
43788W        W16048  33.082   1.917  10.593
43789W        W16049   9.835  38.057   3.750
43790W        W16050   7.256  27.164   1.912
43791W        W16051  40.379   2.894   3.368
43792W        W16052  32.494  42.872  14.319
43793W        W16053  35.917  18.707   5.581
43794W        W16054  41.965  36.493  11.441
43795W        W16055   5.834  20.198  12.401
43796W        W16056  32.579  36.395  12.881
43797W        W16057  39.854  20.091  12.929
43798W        W16058  20.656  19.604   1.786
43799W        W16059  29.430   0.761  11.054
43800W        W16060  23.628  17.148  14.945
43801W        W16061  44.276  27.150  14.876
43802W        W16062  32.026  37.466   4.211
43803W        W16063  13.710  19.718  13.423
43804W        W16064  30.514  28.469  12.926
43805W        W16065  26.180  21.658   3.839
43806W        W16066  15.110  37.419   3.777
43807W        W16067  42.864  14.785   5.158
43808W        W16068   7.751   0.828  13.473
43809W        W16069  20.161  19.740  14.359
43810W        W16070  11.753  14.813  11.433
43811W        W16071  29.498  41.400  10.088
43812W        W16072   4.849  18.765  11.916
43813W        W16073  42.993  10.255  10.638
43814W        W16074  15.252  24.081  12.891
43815W        W16075  21.634  33.444  10.556
43816W        W16076  39.049  37.850   3.739
43817W        W16077  38.029  19.576  14.838
43818W        W16078  28.571  30.549  14.389
43819W        W16079  33.992  20.767   2.674
43820W        W16080  40.327   3.380   4.782
43821W        W16081   7.289   8.827   4.350
43822W        W16082  41.316  34.986  13.810
43823W        W16083  12.645   8.330   4.772
43824W        W16084  25.081   4.362  14.017
43825W        W16085  12.818   6.300   1.916
43826W        W16086  28.007   5.352   3.179
43827W        W16087  28.166  14.759   4.717
43828W        W16088  41.894  14.167  10.626
43829W        W16089  15.145  39.004   1.873
43830W        W16090  20.635  34.421   1.249
43831W        W16091  30.482  42.493   0.442
43832W        W16092   7.873  38.861   2.344
43833W        W16093  32.578  38.976   1.318
43834W        W16094  16.148  28.548   4.710
43835W        W16095  20.685   6.825   4.612
43836W        W16096  23.503  13.130  11.032
43837W        W16097  39.551  28.052  10.415
43838W        W16098  15.269  16.316   3.765
43839W        W16099   1.886  22.543   5.136
43840W        W16100  28.599  19.097   2.670
43841W        W16101  34.948   1.250   1.776
43842W        W16102  40.431  11.737   0.349
43843W        W16103  32.074   4.798  11.576
43844W        W16104  21.121  39.433   2.210
43845W        W16105  24.979  42.359   2.877
43846W        W16106  10.347  31.569  14.963
43847W        W16107  38.465  39.974  12.879
43848W        W16108  15.116  22.640  14.354
43849W        W16109  10.341  25.520   2.329
43850W        W16110  30.649  16.178   0.832
43851W        W16111   6.785  34.017   2.834
43852W        W16112   9.277  42.353  13.804
43853W        W16113  44.433  19.231  13.312
43854W        W16114  42.932  37.969   3.709
43855W        W16115  37.410  20.545   4.747
43856W        W16116  40.436  37.964   4.725
43857W        W16117  40.511   7.230  11.966
43858W        W16118   1.282  29.101   1.290
43859W        W16119  38.020  44.812   1.781
43860W        W16120   1.788  14.102  10.624
43861W        W16121  15.194  18.166  11.429
43862W        W16122  30.581  44.288  11.607
43863W        W16123  34.952  19.679   1.877
43864W        W16124   5.770  15.211   1.878
43865W        W16125  27.647  30.522   5.655
43866W        W16126   2.848  15.215  11.392
43867W        W16127  17.135  26.587   3.254
43868W        W16128  22.538  41.476   2.399
43869W        W16129  44.501  25.647  11.507
43870W        W16130  37.388  12.825  14.361
43871W        W16131  11.849  44.352   4.691
43872W        W16132   9.336  16.181  14.771
43873W        W16133   6.840  24.694  10.446
43874W        W16134   2.408  37.566   2.335
43875W        W16135  12.228  12.843  13.493
43876W        W16136  29.432  42.873   1.767
43877W        W16137  31.435  25.607  14.975
43878W        W16138  42.944  34.477   2.299
43879W        W16139  19.730  17.767   2.816
43880W        W16140  19.097  16.705  10.896
43881W        W16141   8.698   6.331  10.528
43882W        W16142  26.103  23.106   0.423
43883W        W16143  17.685  27.036   3.789
43884W        W16144  23.076  18.553  11.965
43885W        W16145  16.753  17.222   1.747
43886W        W16146   0.458   3.857   3.303
43887W        W16147  10.725   6.363  12.378
43888W        W16148  27.079  10.768   3.645
43889W        W16149  24.559  40.423  12.944
43890W        W16150  10.304  41.335   5.242
43891W        W16151  42.441  10.739  14.771
43892W        W16152  30.916  17.222  14.933
43893W        W16153  22.061  24.077   3.824
43894W        W16154   4.256  30.520  13.318
43895W        W16155   5.736  21.107   2.346
43896W        W16156  39.408   3.872  11.903
43897W        W16157  32.897  25.188   3.809
43898W        W16158  40.454   1.431  11.406
43899W        W16159  15.775   9.262  11.048
43900W        W16160  35.024  37.859   3.231
43901W        W16161   2.434   5.810   1.340
43902W        W16162   8.842  30.992  11.003
43903W        W16163  11.678  44.922   3.867
43904W        W16164   0.915  44.304  13.887
43905W        W16165  26.460  22.091   0.824
43906W        W16166  32.894  27.478   1.820
43907W        W16167  30.550  12.335  13.398
43908W        W16168  28.131   4.368   3.266
43909W        W16169  20.583  34.611  12.976
43910W        W16170   9.270  15.266  11.494
43911W        W16171   9.724  18.665   4.198
43912W        W16172  15.142  12.705  10.491
43913W        W16173  34.047  10.161  10.089
43914W        W16174  12.263   1.751  12.396
43915W        W16175  11.161   3.814  12.559
43916W        W16176   1.899  26.978  11.443
43917W        W16177  33.543  23.025   0.302
43918W        W16178   1.292   1.926   2.772
43919W        W16179  36.475   5.411   1.825
43920W        W16180  41.467  18.693  11.072
43921W        W16181  42.990  38.048  12.407
43922W        W16182  18.650   3.774  11.394
43923W        W16183  24.229   1.907  10.897
43924W        W16184  10.383  14.136  11.973
43925W        W16185  37.339  13.260  10.414
43926W        W16186  30.085  26.042  10.895
43927W        W16187  38.327  40.856   0.820
43928W        W16188  28.964  31.106  11.870
43929W        W16189  13.644  23.635   2.876
43930W        W16190   3.788   2.878  10.520
43931W        W16191   3.437  11.136   2.779
43932W        W16192  31.586   6.911  11.585
43933W        W16193  21.612   2.860  13.539
43934W        W16194  41.382   9.160   0.452
43935W        W16195  21.207  44.833   4.119
43936W        W16196   3.908  38.486  12.525
43937W        W16197  13.642  15.276  10.430
43938W        W16198  37.362   1.744   4.607
43939W        W16199  33.610  32.476   1.793
43940W        W16200  37.374  12.300   1.731
43941W        W16201  37.902  38.048   1.296
43942W        W16202  23.182  11.367  12.999
43943W        W16203  30.987  39.896  13.544
43944W        W16204  13.741  29.999  11.895
43945W        W16205  35.447   7.693  12.070
43946W        W16206  15.630  25.696  10.485
43947W        W16207   8.328  35.505  14.504
43948W        W16208  18.117  27.456  13.874
43949W        W16209   4.352  26.675  14.999
43950W        W16210  25.130  17.151  12.402
43951W        W16211  30.936  41.980   2.725
43952W        W16212  19.181  18.292  12.859
43953W        W16213  37.555  21.077  13.837
43954W        W16214  17.133  20.686   2.802
43955W        W16215  13.682   9.689  12.470
43956W        W16216   5.228  27.567   4.273
43957W        W16217   2.764  27.603  14.003
43958W        W16218  40.425  42.946   1.809
43959W        W16219   0.333  25.584   1.777
43960W        W16220   0.948  25.154   3.766
43961W        W16221   6.819  37.535  14.957
43962W        W16222  43.472  14.213   2.383
43963W        W16223   1.336  31.546   3.847
43964W        W16224   4.734  23.219  10.551
43965W        W16225  22.150  23.224  13.939
43966W        W16226  28.636  32.089  12.918
43967W        W16227  15.249  13.814  14.433
43968W        W16228   8.685  25.089  10.494
43969W        W16229   1.425  25.531   1.416
43970W        W16230  31.556  36.933  11.468
43971W        W16231  13.283  17.189   3.860
43972W        W16232   6.352  10.170   1.418
43973W        W16233  19.646  20.747   4.747
43974W        W16234  29.081  10.302   0.742
43975W        W16235  25.628  32.892   3.672
43976W        W16236   8.187  29.626   3.151
43977W        W16237  24.000  22.047   0.477
43978W        W16238  14.107  23.177   2.258
43979W        W16239  21.637  42.424   3.827
43980W        W16240  25.010  10.699   3.180
43981W        W16241  30.073  10.762  13.377
43982W        W16242  33.564   4.289   4.660
43983W        W16243  10.731  37.898   2.328
43984W        W16244  35.369   9.819  12.563
43985W        W16245  41.864  41.412   1.371
43986W        W16246  13.745  40.883   2.360
43987W        W16247  14.119  44.854   3.372
43988W        W16248  44.393   2.813  14.967
43989W        W16249  37.013   2.404   1.855
43990W        W16250   4.428  34.877  13.374
43991W        W16251  29.034  44.961  13.930
43992W        W16252  43.451   4.700   0.402
43993W        W16253  30.438  21.656   4.710
43994W        W16254  31.494  22.577   0.764
43995W        W16255   1.401  36.878   3.825
43996W        W16256  21.018  12.132  12.569
43997W        W16257  20.753  41.984  12.440
43998W        W16258  36.084  20.589   0.831
43999W        W16259  21.522   0.419   0.777
44000W        W16260  31.036  20.691   2.263
44001W        W16261  17.709  25.141   4.170
44002W        W16262  31.964  19.239   0.388
44003W        W16263   9.769  24.078   3.862
44004W        W16264  16.654   7.203  14.908
44005W        W16265   4.793  26.572   5.118
44006W        W16266  14.721  33.573  10.512
44007W        W16267  26.505  10.154   1.788
44008W        W16268  18.639  28.622   2.203
44009W        W16269   9.228  11.705  10.606
44010W        W16270  35.928  18.548   3.860
44011W        W16271  14.243  35.852   0.742
44012W        W16272  34.549  29.935  12.999
44013W        W16273  44.797   0.886  14.283
44014W        W16274  41.443  25.514  10.539
44015W        W16275   9.393  16.128   0.403
44016W        W16276  43.426  30.643   3.357
44017W        W16277  19.123  43.507  14.772
44018W        W16278  32.108  43.343  11.076
44019W        W16279  18.790  22.547  11.526
44020W        W16280  18.737   8.753   9.937
44021W        W16281   3.370  36.926   1.344
44022W        W16282  28.019  11.326   4.206
44023W        W16283  22.673  13.845  14.357
44024W        W16284  13.735  13.834   2.302
44025W        W16285  30.509   0.434   3.166
44026W        W16286  15.677  41.407  12.082
44027W        W16287  11.272   7.783   2.676
44028W        W16288  35.557   9.180   1.885
44029W        W16289  18.687  18.602   0.291
44030W        W16290   4.370  36.566  14.345
44031W        W16291   1.849   9.691  10.573
44032W        W16292  16.199   7.799  10.459
44033W        W16293  16.282   1.343   0.480
44034W        W16294   8.739  36.985  14.315
44035W        W16295   9.781  22.621   1.296
44036W        W16296  28.081  24.598  12.077
44037W        W16297  14.665  26.194   1.924
44038W        W16298   0.927  42.405  11.412
44039W        W16299  12.749  31.939  13.483
44040W        W16300  21.566  18.708   4.159
44041W        W16301  36.377  12.822  10.535
44042W        W16302  35.498  22.644   1.413
44043W        W16303  22.516  32.986  14.281
44044W        W16304  36.528   8.719  10.967
44045W        W16305  15.155  15.668   1.717
44046W        W16306   9.817  38.955  14.334
44047W        W16307  35.050  32.114   2.718
44048W        W16308  26.592   9.234  14.827
44049W        W16309  14.209  25.026  13.358
44050W        W16310  42.332  43.411   2.751
44051W        W16311  23.104  24.062  12.058
44052W        W16312   5.697  31.557   2.702
44053W        W16313   6.395  31.979   0.270
44054W        W16314  41.991  28.948  14.788
44055W        W16315  35.092  25.056  11.119
44056W        W16316  17.642   7.213   3.634
44057W        W16317  32.478   9.271   4.718
44058W        W16318  15.809  33.886   3.831
44059W        W16319  13.113  10.236  10.996
44060W        W16320  15.696  22.729   0.406
44061W        W16321   1.410  36.054   4.747
44062W        W16322  19.190  44.486  14.394
44063W        W16323  16.780  33.018   0.747
44064W        W16324  38.073  34.571  11.518
44065W        W16325  44.904  13.242   2.724
44066W        W16326  36.066  35.533   0.731
44067W        W16327  32.436  14.709   1.380
44068W        W16328  14.664  39.448   0.289
44069W        W16329   0.977  33.922   3.347
44070W        W16330  16.775   7.392   4.212
44071W        W16331   5.743  14.656  14.353
44072W        W16332   8.255  21.613   2.204
44073W        W16333  41.827  23.202  12.898
44074W        W16334  24.620  32.009  12.416
44075W        W16335  36.899   2.238  11.413
44076W        W16336   5.929  30.434  10.502
44077W        W16337   8.403  10.820  11.534
44078W        W16338  19.724  38.368  11.488
44079W        W16339   2.796   2.966   4.827
44080W        W16340  18.753  40.941   3.343
44081W        W16341   6.756  30.422   1.915
44082W        W16342  33.557  34.533  12.567
44083W        W16343  11.137   4.792   3.756
44084W        W16344  41.392  23.607   3.856
44085W        W16345  10.290  16.105   1.841
44086W        W16346  12.158   8.181   2.341
44087W        W16347  24.191  11.651   2.194
44088W        W16348  22.572   0.421   3.309
44089W        W16349  35.561  44.985  13.045
44090W        W16350  28.563  27.042   4.813
44091W        W16351  40.958  25.983  11.413
44092W        W16352  31.906   6.198  11.972
44093W        W16353  20.534  23.125   4.138
44094W        W16354   5.915  38.954  10.498
44095W        W16355  29.973   1.465  13.506
44096W        W16356   1.268  27.576  11.933
44097W        W16357  26.497  26.550  12.034
44098W        W16358  26.162  31.464  14.400
44099W        W16359   9.363  26.082  11.515
44100W        W16360   5.859  29.522  12.562
44101W        W16361  41.860  18.061   0.258
44102W        W16362  43.969  35.941  13.992
44103W        W16363  37.378  34.920  13.936
44104W        W16364  38.453  29.081   0.737
44105W        W16365   7.880  42.462   2.713
44106W        W16366  39.509  20.550  11.012
44107W        W16367  42.516  14.173   3.303
44108W        W16368  16.124  40.963  10.986
44109W        W16369  39.814  44.932  13.823
44110W        W16370  17.574   4.930  13.398
44111W        W16371   0.914  11.811  14.400
44112W        W16372  36.934  17.238   4.698
44113W        W16373   6.403  27.663   5.164
44114W        W16374  10.168  36.970   0.397
44115W        W16375  17.185   3.274  13.361
44116W        W16376   9.157   1.405   2.667
44117W        W16377  22.007  40.830   2.893
44118W        W16378  29.607  32.562   5.283
44119W        W16379  11.785  27.017   2.303
44120W        W16380  39.333  22.100  13.381
44121W        W16381  38.849  28.509  11.113
44122W        W16382   8.852  21.037   3.630
44123W        W16383  43.996  24.132   2.711
44124W        W16384   5.327   3.947  10.889
44125W        W16385  34.037  44.370  12.847
44126W        W16386  21.638   0.342  14.295
44127W        W16387   6.707  26.686   0.459
44128W        W16388   1.849   6.273   1.726
44129W        W16389  22.604  37.942   2.325
44130W        W16390  42.364  43.321  11.426
44131W        W16391  22.703  39.898  11.423
44132W        W16392  16.676  13.799  10.934
44133W        W16393  18.676   4.275  12.459
44134W        W16394   1.978  17.105   3.186
44135W        W16395  40.416   4.318   1.728
44136W        W16396   2.811  39.523   4.725
44137W        W16397  27.632   4.804   2.218
44138W        W16398  36.930  38.940   3.383
44139W        W16399  19.742   4.808   4.758
44140W        W16400   9.679  20.545   3.803
44141W        W16401  21.606  10.816  13.813
44142W        W16402  22.043  37.516   2.383
44143W        W16403  17.285  35.990   2.208
44144W        W16404  15.681  12.618   1.813
44145W        W16405   6.750  39.385   0.405
44146W        W16406  33.031   9.772   2.379
44147W        W16407   8.362   3.267   5.146
44148W        W16408  37.556  33.072  13.491
44149W        W16409  27.638  24.106   0.884
44150W        W16410  42.825  24.522   0.467
44151W        W16411  16.623  42.807  14.304
44152W        W16412  23.606  23.515  10.926
44153W        W16413   8.830  30.610   4.258
44154W        W16414  32.033  22.171   0.276
44155W        W16415  10.792   4.272  10.433
44156W        W16416  19.182  32.988   2.811
44157W        W16417   1.447   3.289   4.343
44158W        W16418  26.609  30.459  12.029
44159W        W16419   0.358  29.653   1.744
44160W        W16420  40.462  39.474   2.897
44161W        W16421   7.814  38.374  14.860
44162W        W16422  16.678   3.740  14.946
44163W        W16423  41.409  43.428   4.691
44164W        W16424  18.233  38.431  13.361
44165W        W16425   0.859  30.633   5.136
44166W        W16426  40.394  22.232   4.808
44167W        W16427  18.281  41.436   3.690
44168W        W16428  39.867   2.788   1.223
44169W        W16429  13.824   0.832   0.476
44170W        W16430  33.469  36.009   1.751
44171W        W16431   4.404  32.091   3.632
44172W        W16432   2.864  35.544  11.410
44173W        W16433   8.267  20.143  12.842
44174W        W16434  29.519  40.455  14.858
44175W        W16435  27.578  41.377   0.746
44176W        W16436  33.482  34.971  11.460
44177W        W16437   5.830  25.652   9.450
44178W        W16438  23.188   2.906   3.656
44179W        W16439  43.789   2.873   3.762
44180W        W16440  18.775  14.801   2.197
44181W        W16441  28.567  15.625  13.313
44182W        W16442  23.565   1.443   0.263
44183W        W16443  41.832   3.305   3.646
44184W        W16444  38.998  10.673  10.545
44185W        W16445  23.711  24.653  12.893
44186W        W16446  27.446  26.007  10.639
44187W        W16447  39.377  30.548  13.846
44188W        W16448   4.408  35.554   3.747
44189W        W16449   4.776  42.898   5.215
44190W        W16450  35.063  27.184  12.994
44191W        W16451   3.259  18.566  14.510
44192W        W16452  33.544  40.502   1.758
44193W        W16453  18.552  15.706  12.082
44194W        W16454   7.386  27.476   1.210
44195W        W16455  27.567  37.933   2.377
44196W        W16456  24.149  27.661   4.314
44197W        W16457  12.856  39.025   4.633
44198W        W16458  25.131  12.835   4.282
44199W        W16459   2.251  25.171  10.591
44200W        W16460  14.275  39.915  12.511
44201W        W16461  40.475   6.896  11.533
44202W        W16462  31.549  40.942  14.927
44203W        W16463  20.241   5.726   0.947
44204W        W16464   1.931   8.862  14.979
44205W        W16465  23.686  11.269   4.752
44206W        W16466  16.768  28.463  13.885
44207W        W16467  31.131  23.655  12.520
44208W        W16468  34.082  38.452  11.871
44209W        W16469  13.163  31.454  14.276
44210W        W16470   1.393  33.127  14.864
44211W        W16471  32.995   4.236  10.979
44212W        W16472   4.823  21.192  14.413
44213W        W16473  23.213  19.206   1.329
44214W        W16474  23.994  24.114   4.690
44215W        W16475  17.277  30.954  10.948
44216W        W16476  35.046  33.887   0.392
44217W        W16477  37.052   9.158  10.922
44218W        W16478  16.146  28.993   0.752
44219W        W16479  27.133  29.522   2.880
44220W        W16480  14.639   5.858   3.848
44221W        W16481  11.771   9.173   0.312
44222W        W16482  12.697  37.071   0.320
44223W        W16483  36.079  15.252  14.328
44224W        W16484   7.356   9.276  14.872
44225W        W16485   6.244  43.513  14.396
44226W        W16486  38.411   1.306   4.667
44227W        W16487  18.590  22.195   3.285
44228W        W16488  13.754  41.961   3.824
44229W        W16489  14.679  33.078   1.450
44230W        W16490  23.177   2.377   2.803
44231W        W16491  19.270  36.556   4.772
44232W        W16492  31.460  18.559  12.580
44233W        W16493  18.235  18.067  14.494
44234W        W16494   3.869  33.104  12.060
44235W        W16495   8.300  25.044   0.478
44236W        W16496  36.481  12.679  14.873
44237W        W16497  34.417   9.367   1.303
44238W        W16498  30.520  30.466  12.873
44239W        W16499  29.615  11.741  14.281
44240W        W16500   3.736  29.574   1.412
44241W        W16501  44.426  29.455   2.257
44242W        W16502   3.293  29.546  13.803
44243W        W16503  36.847   7.732   9.661
44244W        W16504   3.266   2.435  13.045
44245W        W16505  32.579  15.141  11.560
44246W        W16506  14.784  20.714  14.833
44247W        W16507  39.408   5.815   3.751
44248W        W16508  17.556  40.987   0.448
44249W        W16509  22.597  30.076   1.294
44250W        W16510  11.126  12.257  12.447
44251W        W16511  19.115   2.730   1.699
44252W        W16512  40.386  23.159  14.827
44253W        W16513  30.517  15.228  11.502
44254W        W16514  23.018  23.511   0.861
44255W        W16515  35.390   1.945  10.918
44256W        W16516  39.429  43.853  10.424
44257W        W16517  24.640  27.523   3.310
44258W        W16518   7.805   3.888   1.339
44259W        W16519  29.986  17.147  13.343
44260W        W16520  38.565  43.326  13.472
44261W        W16521  34.873   5.915   0.419
44262W        W16522   3.229  11.709   4.739
44263W        W16523  32.594  24.109  14.977
44264W        W16524   4.883  10.870  11.535
44265W        W16525  23.730  22.032  12.911
44266W        W16526  20.585  15.656  11.374
44267W        W16527  12.838  12.265   0.754
44268W        W16528  41.409  15.307  11.002
44269W        W16529  12.235  22.216   0.405
44270W        W16530  32.916  31.408  10.489
44271W        W16531  19.647  33.118   3.384
44272W        W16532  22.594  27.460   2.799
44273W        W16533   5.743  15.657   2.193
44274W        W16534  37.439  14.690  12.063
44275W        W16535  17.261  17.665  14.386
44276W        W16536  11.642  27.555  10.452
44277W        W16537  15.270  14.213   2.773
44278W        W16538  42.322  31.908  11.574
44279W        W16539  30.076  32.426   1.746
44280W        W16540  43.022  31.518   0.302
44281W        W16541  15.673   3.266   1.830
44282W        W16542  11.128  42.399   3.305
44283W        W16543  35.572  27.945  13.876
44284W        W16544  23.185  23.001   3.721
44285W        W16545  21.679  10.311  12.920
44286W        W16546  36.948  12.759  13.411
44287W        W16547  44.919   5.866   4.717
44288W        W16548   0.457   3.451   2.721
44289W        W16549  42.891  43.816   0.919
44290W        W16550  34.973  25.531  14.294
44291W        W16551  14.806  38.831   4.295
44292W        W16552  25.013  34.396  12.542
44293W        W16553  33.948  13.700  11.417
44294W        W16554  34.378   5.736   1.326
44295W        W16555  36.842  22.174   4.136
44296W        W16556  31.083  32.106   3.198
44297W        W16557  43.421  28.558  12.922
44298W        W16558  32.104  31.040   4.645
44299W        W16559  13.728  14.096  14.502
44300W        W16560   2.754  40.004   0.286
44301W        W16561  38.440  42.504  11.405
44302W        W16562  34.983  25.001   2.360
44303W        W16563  41.980  35.559   0.303
44304W        W16564  15.791  12.766   9.995
44305W        W16565  23.118  19.091  13.998
44306W        W16566  24.537  18.695  12.994
44307W        W16567  10.326  12.839   4.276
44308W        W16568   1.424  13.176   2.741
44309W        W16569  11.673  20.553   0.856
44310W        W16570  30.147  10.372   2.345
44311W        W16571  21.700  22.513   4.812
44312W        W16572  40.333  25.996   2.256
44313W        W16573   2.960  23.540   1.430
44314W        W16574   5.880  32.636   4.643
44315W        W16575   9.218   1.253  13.970
44316W        W16576   1.311  17.118  11.122
44317W        W16577  24.692  40.042   3.201
44318W        W16578  44.438  38.519   2.300
44319W        W16579  13.807  16.080   1.383
44320W        W16580  43.866  24.107  12.068
44321W        W16581  39.844  28.493  12.462
44322W        W16582  43.391  40.841  13.921
44323W        W16583  23.690  43.458   1.282
44324W        W16584  14.596   5.223   3.209
44325W        W16585  13.603  36.072   2.796
44326W        W16586  39.547   4.799  10.922
44327W        W16587  33.596  18.767   4.621
44328W        W16588  44.909  23.181  11.567
44329W        W16589  38.889  18.057   0.780
44330W        W16590  26.151  20.690  10.613
44331W        W16591  14.314  38.334  11.112
44332W        W16592  32.404  36.381  14.347
44333W        W16593  23.731  22.582  12.925
44334W        W16594  21.573   7.882  13.438
44335W        W16595   6.428  18.654   1.909
44336W        W16596   3.929  18.172  14.407
44337W        W16597  44.391  37.877  10.998
44338W        W16598   9.727  28.127   4.325
44339W        W16599  38.364  33.022  14.760
44340W        W16600  28.596  32.629  12.878
44341W        W16601  30.950   6.398   4.682
44342W        W16602   5.735  38.853   4.801
44343W        W16603   7.792   5.912   0.936
44344W        W16604  41.351  13.312   3.671
44345W        W16605  21.212  21.618  12.441
44346W        W16606  10.274   8.821   4.248
44347W        W16607  24.565  12.726   3.206
44348W        W16608   1.427   5.246  14.979
44349W        W16609  43.941  28.542   1.735
44350W        W16610  14.227  25.660   4.168
44351W        W16611  33.418  10.170   3.709
44352W        W16612  38.369  32.022   4.310
44353W        W16613  30.623  43.012   1.239
44354W        W16614  30.988  22.686   0.832
44355W        W16615  14.606  14.104   1.255
44356W        W16616  43.787   5.371  11.957
44357W        W16617  43.294  34.930   2.187
44358W        W16618  39.869  35.476  11.912
44359W        W16619  42.031   9.181   0.867
44360W        W16620  20.539  14.726   2.871
44361W        W16621  23.582   2.931  10.489
44362W        W16622  20.768  33.119   4.139
44363W        W16623   8.325   9.257  10.964
44364W        W16624  24.665  13.741  13.833
44365W        W16625  27.590  12.728  12.925
44366W        W16626  13.781   9.840   0.443
44367W        W16627   4.394  24.521  13.041
44368W        W16628   5.351  43.842  13.992
44369W        W16629   0.848  43.469   2.785
44370W        W16630  26.690  11.649  10.486
44371W        W16631  33.888   1.250  10.481
44372W        W16632  43.820   1.325  14.503
44373W        W16633  17.749   3.882   4.341
44374W        W16634  40.002  31.410  13.515
44375W        W16635  23.732  23.603  14.795
44376W        W16636   5.895  21.197  14.394
44377W        W16637  12.633   6.738   4.657
44378W        W16638   1.905   6.364  11.021
44379W        W16639   5.788  19.117  10.916
44380W        W16640   6.342  35.044   2.389
44381W        W16641  23.549  41.337   0.953
44382W        W16642  33.923  37.358   3.250
44383W        W16643  21.238   8.325  11.010
44384W        W16644  34.021  24.635  10.955
44385W        W16645   2.434  14.614  10.575
44386W        W16646  21.055  13.789  13.797
44387W        W16647  35.488  40.318  11.422
44388W        W16648   9.671  35.934  12.913
44389W        W16649  36.436  33.494  14.504
44390W        W16650  39.314   4.945   1.391
44391W        W16651  23.692  33.959   1.354
44392W        W16652  23.053  27.539   1.853
44393W        W16653  34.557   8.743  10.618
44394W        W16654  35.864  23.999  14.797
44395W        W16655  44.859   3.299   4.162
44396W        W16656  36.424  27.625   0.857
44397W        W16657  29.443  41.967   4.675
44398W        W16658   7.897  35.092   1.724
44399W        W16659  19.577  20.080  13.797
44400W        W16660  21.194  19.750  10.107
44401W        W16661  13.824  21.565  11.906
44402W        W16662  41.961  35.895  14.795
44403W        W16663   5.352  25.509   4.809
44404W        W16664  39.048  40.842   2.189
44405W        W16665  19.166  14.820   0.730
44406W        W16666   4.365   7.353  12.027
44407W        W16667  11.155  22.639  13.407
44408W        W16668  38.475  38.444  14.959
44409W        W16669  29.573  21.633  14.381
44410W        W16670   5.818  15.172   4.617
44411W        W16671  33.112  33.445   4.619
44412W        W16672  13.267   7.679  13.942
44413W        W16673  18.114  24.040   4.837
44414W        W16674  33.479  21.160  14.819
44415W        W16675  28.140  33.064  10.471
44416W        W16676  43.911  23.129  13.060
44417W        W16677  23.547   2.289   2.297
44418W        W16678  30.022  14.300  13.364
44419W        W16679  38.933   8.373  13.887
44420W        W16680   0.408  40.984   3.151
44421W        W16681  19.682  15.604   0.934
44422W        W16682  39.028  15.099  14.026
44423W        W16683  43.373  17.597  10.405
44424W        W16684  12.736  35.534  14.839
44425W        W16685  31.408  37.355  14.316
44426W        W16686  26.687  32.613  10.601
44427W        W16687  23.040  34.540   4.319
44428W        W16688  26.652  10.151   0.260
44429W        W16689  19.647  31.434  14.921
44430W        W16690  38.003  26.010   4.725
44431W        W16691  42.393  15.280  14.023
44432W        W16692  32.089  18.694  12.427
44433W        W16693   1.782  36.477  14.778
44434W        W16694  13.213  19.692   1.283
44435W        W16695  42.916   3.296  14.961
44436W        W16696   1.761  27.681  12.832
44437W        W16697  37.530  18.138   4.167
44438W        W16698   2.961   5.838  14.362
44439W        W16699  22.101  21.084   5.111
44440W        W16700  18.233  10.657  14.783
44441W        W16701   2.884   8.852  13.403
44442W        W16702  20.752   3.918  13.976
44443W        W16703   8.864  25.560   2.221
44444W        W16704   5.333  36.843  12.993
44445W        W16705  19.778  38.035  12.001
44446W        W16706  29.938  29.017   1.703
44447W        W16707  18.202  14.603  10.472
44448W        W16708  37.974  30.942  10.601
44449W        W16709  39.525  27.154   1.271
44450W        W16710  42.467   2.919  14.400
44451W        W16711  22.031  12.766   0.930
44452W        W16712  35.086  24.199   1.392
44453W        W16713   6.695   1.320   2.749
44454W        W16714  11.219  35.964   1.822
44455W        W16715  40.477  26.039   4.740
44456W        W16716  15.158  30.936  10.899
44457W        W16717  34.515  35.043   4.614
44458W        W16718   8.200  28.059  14.949
44459W        W16719  18.654  38.941   4.286
44460W        W16720  43.329  38.484   1.807
44461W        W16721  13.247  42.884  11.404
44462W        W16722  23.721  33.612   3.203
44463W        W16723   7.225  10.288  10.419
44464W        W16724  15.664   5.392  13.045
44465W        W16725   9.758  39.857  11.967
44466W        W16726   9.165  28.035   9.954
44467W        W16727   8.185  12.231   3.795
44468W        W16728  36.397  10.341  10.093
44469W        W16729  22.516  19.254   4.789
44470W        W16730  20.645   4.435  11.506
44471W        W16731   5.410  23.148  11.985
44472W        W16732  22.110   1.964  10.904
44473W        W16733  38.341  35.561  13.814
44474W        W16734  37.433   6.915   4.173
44475W        W16735  35.495   5.340   1.359
44476W        W16736  13.270   6.680  14.836
44477W        W16737   4.442   0.341   1.440
44478W        W16738  24.034  11.297  14.316
44479W        W16739  20.033  39.061  11.989
44480W        W16740  13.192  44.323  11.419
44481W        W16741  20.077  10.860   0.361
44482W        W16742  29.596   7.325   2.399
44483W        W16743   8.756   9.229   1.724
44484W        W16744  28.439  40.526   1.881
44485W        W16745  31.428  36.933   3.759
44486W        W16746  12.660   1.385   0.740
44487W        W16747  30.115  22.630   2.210
44488W        W16748  16.159  14.339   4.766
44489W        W16749  11.293  38.374  12.926
44490W        W16750  40.398  28.031  10.981
44491W        W16751  24.034   0.472  14.512
44492W        W16752  23.164   3.457   3.735
44493W        W16753  12.772  43.435  12.865
44494W        W16754   2.228  37.573  12.517
44495W        W16755   9.829   0.441  11.475
44496W        W16756  11.188  28.982  10.595
44497W        W16757  34.385  17.219   3.244
44498W        W16758   0.818  30.162  10.942
44499W        W16759  10.876  22.632  12.354
44500W        W16760  28.571  27.503   0.479
44501W        W16761  43.903   7.795  13.882
44502W        W16762  35.438   2.417   2.242
44503W        W16763  22.163  39.363  11.943
44504W        W16764  28.973  35.051  13.004
44505W        W16765  42.855  22.246   1.834
44506W        W16766  18.222  40.045  11.397
44507W        W16767   2.288  16.717   0.249
44508W        W16768   1.429   9.876   1.847
44509W        W16769  17.608  42.946   4.836
44510W        W16770  24.584  42.888   0.345
44511W        W16771  30.512  10.194   2.749
44512W        W16772  15.094  17.225  12.015
44513W        W16773  41.486  10.800  13.483
44514W        W16774  43.350  14.750  13.503
44515W        W16775  38.849  38.364  10.062
44516W        W16776  39.527  40.536   1.212
44517W        W16777  27.018  44.365   3.822
44518W        W16778  36.850   4.943  14.769
44519W        W16779  22.083  25.491  14.000
44520W        W16780  26.070   4.756  12.930
44521W        W16781  36.486   0.746   3.826
44522W        W16782  21.196  37.051   3.339
44523W        W16783  24.042  15.591   3.288
44524W        W16784  11.206  24.603  13.828
44525W        W16785  18.762  24.689   4.779
44526W        W16786  23.062  13.684   2.837
44527W        W16787  15.725  30.565  12.840
44528W        W16788  36.502  24.690  12.965
44529W        W16789  33.427   2.292  10.553
44530W        W16790   7.284  36.968   0.467
44531W        W16791   1.777  41.978  11.577
44532W        W16792  41.021  36.065   4.159
44533W        W16793  21.740  14.832  13.939
44534W        W16794   7.733   9.656  12.057
44535W        W16795  31.955  11.774  12.492
44536W        W16796   4.382  32.635   3.177
44537W        W16797  33.476  18.663   1.361
44538W        W16798  38.495  43.478   0.276
44539W        W16799   8.386   8.688  13.949
44540W        W16800   1.293  26.112  12.957
44541W        W16801  22.621  22.629   2.672
44542W        W16802  39.429  25.130   3.181
44543W        W16803  12.698  12.705   1.918
44544W        W16804  29.116  40.431   1.858
44545W        W16805  14.301  13.736   3.172
44546W        W16806  27.647   2.876  11.964
44547W        W16807  38.974  36.573   3.276
44548W        W16808  41.528  21.140   2.408
44549W        W16809  44.271  27.476   3.236
44550W        W16810  26.005  38.959   2.390
44551W        W16811  31.522  36.481   3.808
44552W        W16812  19.202  40.909   0.358
44553W        W16813  28.534  27.655   2.792
44554W        W16814  15.276  29.537  14.883
44555W        W16815  36.900  35.506   1.286
44556W        W16816  29.584  30.454   0.368
44557W        W16817  28.935  33.936   1.328
44558W        W16818  36.550   5.309  12.350
44559W        W16819  28.544  34.563   4.142
44560W        W16820  41.306   0.785   0.400
44561W        W16821   6.204  17.263   2.234
44562W        W16822  16.258  25.042   2.826
44563W        W16823  15.210  24.190  13.350
44564W        W16824   2.950  24.567  13.997
44565W        W16825   6.889  13.744  13.422
44566W        W16826  25.553  18.160  13.450
44567W        W16827   7.882  14.218   4.687
44568W        W16828  33.420  19.238   9.516
44569W        W16829  25.582  40.045  14.312
44570W        W16830   8.816  37.076  13.845
44571W        W16831  39.425  27.960   4.309
44572W        W16832  28.655   4.245   4.302
44573W        W16833   6.779  44.826  12.964
44574W        W16834  17.654  37.949  11.919
44575W        W16835   1.827  19.156  14.506
44576W        W16836  13.297  41.315  10.989
44577W        W16837  13.750  44.937  14.803
44578W        W16838  32.129  16.254   0.315
44579W        W16839  12.217  35.596  12.823
44580W        W16840  15.639  14.322   5.703
44581W        W16841  10.648   0.904   4.692
44582W        W16842   3.266  30.071   0.247
44583W        W16843   9.228  21.168  11.912
44584W        W16844  42.420  17.604  11.943
44585W        W16845  26.188   9.681  12.016
44586W        W16846  38.008  11.633  11.576
44587W        W16847  35.518  32.392   0.951
44588W        W16848  25.105  43.512  14.808
44589W        W16849  44.261  34.986   0.412
44590W        W16850  27.168  27.008   0.324
44591W        W16851  26.658  36.410   1.331
44592W        W16852   8.301  39.865   4.789
44593W        W16853  13.753   1.301  11.070
44594W        W16854  26.156  14.339   3.862
44595W        W16855   1.415  25.526   1.912
44596W        W16856   5.237  30.566   3.708
44597W        W16857  18.220  17.625   1.920
44598W        W16858  23.235  17.639   1.232
44599W        W16859  16.810  23.208   2.298
44600W        W16860  27.113  35.029  14.984
44601W        W16861  18.737  33.008   2.871
44602W        W16862  43.361  44.907   1.852
44603W        W16863  17.134  23.076  11.001
44604W        W16864  18.245  10.366   2.367
44605W        W16865  18.181   6.310  11.601
44606W        W16866  22.733  32.926   3.191
44607W        W16867  24.543  20.169  11.568
44608W        W16868  26.633  11.751  11.555
44609W        W16869  36.929  26.536  13.466
44610W        W16870  13.651  24.171   4.329
44611W        W16871  21.652  30.569  14.863
44612W        W16872  38.381  22.697   0.786
44613W        W16873  41.355  36.428   0.763
44614W        W16874  14.118  10.704   1.799
44615W        W16875  43.329  34.052   4.134
44616W        W16876   0.934  40.858   4.246
44617W        W16877  43.853  37.053   1.277
44618W        W16878  25.152  16.584  14.948
44619W        W16879  16.581  31.006  11.432
44620W        W16880  37.465  18.614  13.455
44621W        W16881  31.017  21.538  14.390
44622W        W16882  40.903  40.483  12.881
44623W        W16883  20.757   5.689  10.969
44624W        W16884  19.551  37.068   1.761
44625W        W16885  27.191  21.073  13.882
44626W        W16886  29.640   4.312  12.883
44627W        W16887  42.865  41.328  13.312
44628W        W16888   9.166  42.293  12.418
44629W        W16889  41.507  37.480   0.400
44630W        W16890   1.885  26.038  12.935
44631W        W16891  36.059  29.067   4.175
44632W        W16892  16.198  40.013  13.325
44633W        W16893  29.090  33.118   5.174
44634W        W16894  29.583  25.477  14.416
44635W        W16895  29.588  37.048  13.471
44636W        W16896  28.940  33.963  12.421
44637W        W16897  11.834   5.230  13.535
44638W        W16898  18.134   3.753   3.807
44639W        W16899  14.098  17.222   1.740
44640W        W16900  42.805   3.814   0.890
44641W        W16901  40.398  19.091  14.447
44642W        W16902  27.628  39.049  11.528
44643W        W16903  26.081  23.495  12.032
44644W        W16904   7.825  13.759   4.621
44645W        W16905  25.154   7.362   3.781
44646W        W16906  24.993  25.040   0.471
44647W        W16907   3.752  12.245   4.122
44648W        W16908  31.965  19.673  12.041
44649W        W16909   9.170  22.114  12.544
44650W        W16910   8.882  14.623   1.746
44651W        W16911  41.842  16.144  14.829
44652W        W16912  44.910  12.359  12.050
44653W        W16913   7.828  16.721  13.387
44654W        W16914  39.414  24.522   3.328
44655W        W16915  41.003  20.616   2.299
44656W        W16916  32.939  13.678   4.206
44657W        W16917  39.538   4.698  12.023
44658W        W16918  14.119  18.694  12.830
44659W        W16919  34.083   7.732   4.767
44660W        W16920  26.060  35.587   2.851
44661W        W16921  23.618  37.347   3.784
44662W        W16922  13.256  37.044   0.368
44663W        W16923  36.049  44.893   2.820
44664W        W16924  22.670  39.470  11.884
44665W        W16925  40.878  26.587   0.250
44666W        W16926  34.518  41.955  14.391
44667W        W16927  19.093   1.842  11.055
44668W        W16928   9.258  32.039  12.890
44669W        W16929  31.474  12.330   2.283
44670W        W16930  35.949  35.859   4.275
44671W        W16931  15.767  42.469   3.791
44672W        W16932   3.459  42.519   0.954
44673W        W16933   8.656  13.157   1.270
44674W        W16934  23.210  17.721   1.856
44675W        W16935  38.361  36.477   0.792
44676W        W16936   0.475  42.826   4.198
44677W        W16937  34.483  28.656  12.912
44678W        W16938  31.636   1.841  13.896
44679W        W16939   2.900  25.995   3.217
44680W        W16940  31.506  21.752  13.025
44681W        W16941  11.363   8.258  14.894
44682W        W16942  27.112   7.741  12.370
44683W        W16943  29.654  39.848   2.842
44684W        W16944  39.945   7.759  11.923
44685W        W16945  17.752   5.197   4.714
44686W        W16946   6.752  19.709   0.428
44687W        W16947  22.558  12.825  12.016
44688W        W16948  42.980  28.017   2.325
44689W        W16949  42.499  14.096   2.698
44690W        W16950   0.404  13.820  12.474
44691W        W16951  42.297  26.631   2.851
44692W        W16952  40.352  34.432   1.297
44693W        W16953  37.481  25.584   1.252
44694W        W16954  11.156   2.296   3.279
44695W        W16955  20.547   8.290  11.057
44696W        W16956  15.296  42.004   4.800
44697W        W16957  37.430  44.002   4.736
44698W        W16958   3.893  27.047   0.408
44699W        W16959  23.653  27.070  13.011
44700W        W16960   8.751  11.803  12.440
44701W        W16961   7.390  42.844   0.787
44702W        W16962  14.617  37.908   2.828
44703W        W16963   6.722  33.106  12.086
44704W        W16964  43.271  40.401   3.678
44705W        W16965  35.597  11.210   0.822
44706W        W16966  15.147   8.206   0.474
44707W        W16967   2.417  22.692   1.347
44708W        W16968  31.590  37.877   4.203
44709W        W16969  19.087   9.343   3.369
44710W        W16970  26.983  38.496  11.581
44711W        W16971  37.898  43.925   1.912
44712W        W16972  32.123   9.730  10.482
44713W        W16973  28.016  43.445   1.443
44714W        W16974  19.577   1.289  10.892
44715W        W16975   4.419   2.306  10.995
44716W        W16976  24.081  36.398  12.016
44717W        W16977  38.016   2.926  10.577
44718W        W16978  37.981  17.187   1.752
44719W        W16979   8.395  21.624  12.937
44720W        W16980  23.711   0.305   0.389
44721W        W16981  33.046  35.521  12.480
44722W        W16982  39.862  44.900  10.435
44723W        W16983  18.186  12.200   0.305
44724W        W16984  44.974  21.749   1.289
44725W        W16985  15.660  26.993  10.978
44726W        W16986  42.020  36.071  13.909
44727W        W16987  41.477   0.475   1.369
44728W        W16988   6.213  25.631   0.825
44729W        W16989  26.688  16.091  12.430
44730W        W16990  34.420   4.904  11.007
44731W        W16991   3.772  21.597  10.507
44732W        W16992  15.688  38.546   0.395
44733W        W16993  33.962  43.375   3.817
44734W        W16994  24.982  44.981  12.515
44735W        W16995   7.261  22.037  11.412
44736W        W16996  41.484  34.897  14.952
44737W        W16997  32.574   3.403   4.716
44738W        W16998   2.720  21.548   4.351
44739W        W16999  31.922  33.930  14.985
44740W        W17000  36.974  19.594   2.220
44741W        W17001   0.331  10.215  12.942
44742W        W17002  43.792  40.340   0.769
44743W        W17003  31.580   6.358  14.512
44744W        W17004  11.791  10.730   0.861
44745W        W17005  42.888  34.610  11.495
44746W        W17006  21.176  15.779  14.898
44747W        W17007  28.445  12.661  14.417
44748W        W17008  12.200  15.293  13.803
44749W        W17009  27.948  36.583   1.262
44750W        W17010  27.447  15.164  12.899
44751W        W17011   0.954   4.435  10.611
44752W        W17012  17.724  44.435   2.779
44753W        W17013   8.879  32.397  11.580
44754W        W17014  23.100   1.929  11.503
44755W        W17015   2.748  28.093   4.189
44756W        W17016  10.821  40.893  14.401
44757W        W17017   0.320   9.324   2.352
44758W        W17018  32.988   1.814   2.691
44759W        W17019  18.613   8.877  14.920
44760W        W17020  39.553  43.841   0.874
44761W        W17021  20.763   3.259  13.409
44762W        W17022  14.163  25.199   4.181
44763W        W17023  37.041  30.138   0.728
44764W        W17024  39.064  16.656  10.480
44765W        W17025  35.908  42.359   4.217
44766W        W17026   9.705   8.394   3.216
44767W        W17027   1.274   4.211   0.949
44768W        W17028  10.864  13.722   3.360
44769W        W17029  37.397  24.542   3.292
44770W        W17030  44.347  10.363  10.075
44771W        W17031  27.193  33.004  12.460
44772W        W17032  11.749  16.227  13.422
44773W        W17033   8.676  25.635  10.643
44774W        W17034   5.270  18.709   4.259
44775W        W17035  11.803   1.832  14.484
44776W        W17036   5.396  23.223  13.062
44777W        W17037   1.370  20.549  11.012
44778W        W17038  43.291  14.257  10.481
44779W        W17039   5.827  38.001  14.343
44780W        W17040   2.778  14.178  12.831
44781W        W17041   4.309  19.197   2.228
44782W        W17042  41.961   7.173   0.790
44783W        W17043  10.668   4.298   2.417
44784W        W17044  18.591  31.528   2.851
44785W        W17045  35.955  39.903  14.829
44786W        W17046  10.691   6.750   3.733
44787W        W17047  37.999  37.020   2.745
44788W        W17048  23.630  26.630   9.938
44789W        W17049  33.432   7.825   1.791
44790W        W17050  36.874  19.551  11.996
44791W        W17051   4.274   0.858   0.956
44792W        W17052   2.827  25.626  13.335
44793W        W17053  22.721   9.388   4.626
44794W        W17054   5.332  13.313  10.967
44795W        W17055   0.939  18.602  13.527
44796W        W17056  42.905  20.030   5.249
44797W        W17057  28.077  31.109  10.159
44798W        W17058  19.592  21.569  10.560
44799W        W17059  11.359  43.005  13.332
44800W        W17060  38.333  26.150  12.036
44801W        W17061  10.645  39.556  10.440
44802W        W17062  18.069   8.350  13.892
44803W        W17063  16.745   4.393   3.774
44804W        W17064  20.216  26.084  14.322
44805W        W17065  26.556  44.984   2.261
44806W        W17066   4.386  44.961   3.265
44807W        W17067  12.236  35.003   0.364
44808W        W17068  36.553  40.475   0.403
44809W        W17069  15.189  24.173  14.767
44810W        W17070  43.347  40.456   3.218
44811W        W17071  41.391   5.713  12.560
44812W        W17072  14.286  44.434  12.946
44813W        W17073  24.205  14.319   4.323
44814W        W17074   6.716  22.709  14.481
44815W        W17075  21.634  18.196  12.961
44816W        W17076  38.064  32.491  12.377
44817W        W17077  25.645  19.736   1.257
44818W        W17078  28.673  29.615   4.118
44819W        W17079  13.110   0.908  10.098
44820W        W17080  34.060  29.482  14.506
44821W        W17081  14.678  14.250  10.533
44822W        W17082   3.712  12.169   3.651
44823W        W17083  39.832  22.110  14.460
44824W        W17084   4.246   4.768   2.418
44825W        W17085  35.573  25.967  12.507
44826W        W17086   0.360   9.157  14.930
44827W        W17087  35.080  17.749   1.291
44828W        W17088  28.950  19.710  12.398
44829W        W17089  11.776  27.008  11.460
44830W        W17090  21.067  33.998  13.420
44831W        W17091  17.219   9.789   4.301
44832W        W17092  22.121  19.158  11.975
44833W        W17093  43.315  43.494  11.554
44834W        W17094  23.078   7.331   0.835
44835W        W17095  20.627  34.921   2.199
44836W        W17096  21.565  34.029  12.576
44837W        W17097  31.438  43.291  12.467
44838W        W17098  30.485  41.815  13.482
44839W        W17099  40.413   9.713   1.373
44840W        W17100  30.002   7.337  11.510
44841W        W17101  35.488  15.791  11.391
44842W        W17102   9.212   9.661   3.764
44843W        W17103  16.761  36.062  11.459
44844W        W17104  38.340  29.497  13.340
44845W        W17105  17.716   1.772  10.897
44846W        W17106  12.299  23.093   3.158
44847W        W17107  31.511   5.406   1.894
44848W        W17108  19.240   9.809  14.005
44849W        W17109  39.903  28.970   1.322
44850W        W17110  11.798   1.361  11.544
44851W        W17111   5.239  33.426  14.457
44852W        W17112  22.507  10.161   1.907
44853W        W17113   5.436  21.562  14.415
44854W        W17114  13.639   5.865  14.502
44855W        W17115  34.875  20.735   5.093
44856W        W17116  21.210   8.287   1.425
44857W        W17117  12.678  10.165  13.937
44858W        W17118  41.465   8.899   4.788
44859W        W17119  29.566  43.930   1.320
44860W        W17120  37.075  22.025   4.806
44861W        W17121  25.469   3.282   0.256
44862W        W17122  38.991  33.564   5.145
44863W        W17123  31.494  12.173   4.719
44864W        W17124  27.068  35.454  11.087
44865W        W17125   7.824  12.776  14.408
44866W        W17126  17.099   8.888   3.834
44867W        W17127  35.868  30.442  12.574
44868W        W17128  22.200  21.731   1.931
44869W        W17129   9.384  30.163  12.860
44870W        W17130  39.049  11.743   2.409
44871W        W17131  40.537   6.232  13.853
44872W        W17132   6.761  18.789  11.965
44873W        W17133  40.484  30.442  14.012
44874W        W17134  14.761  21.557  14.276
44875W        W17135  31.153  10.828  13.038
44876W        W17136  17.264  25.127   3.313
44877W        W17137   1.883  28.511   2.387
44878W        W17138   9.855   2.320  12.995
44879W        W17139  10.353   1.278   2.664
44880W        W17140  16.747  11.210  12.380
44881W        W17141  24.564   6.789  13.323
44882W        W17142  19.128  11.675   1.862
44883W        W17143  26.200   3.877  11.085
44884W        W17144  32.495  17.659   1.446
44885W        W17145  38.071  10.698  10.020
44886W        W17146  32.088  21.749   1.697
44887W        W17147  39.329  38.010   4.299
44888W        W17148  32.098   9.302  11.048
44889W        W17149   1.969   6.763  13.911
44890W        W17150   5.710  14.829  11.530
44891W        W17151  11.352  37.381   0.286
44892W        W17152  12.140  17.768  13.349
44893W        W17153   5.404  12.810   3.859
44894W        W17154  15.670   3.279   0.842
44895W        W17155  31.443  19.133  11.542
44896W        W17156  42.374  40.978   2.784
44897W        W17157  14.338  15.697   3.158
44898W        W17158  29.507  15.202   0.261
44899W        W17159  34.606  16.627   2.676
44900W        W17160  24.609  28.560  14.435
44901W        W17161  10.201  34.403   0.416
44902W        W17162  17.630  43.877  12.059
44903W        W17163  33.614   8.186  11.528
44904W        W17164  35.481  10.836  14.297
44905W        W17165  13.624  18.096   3.270
44906W        W17166   0.424  40.479  13.986
44907W        W17167   4.866  31.523   2.897
44908W        W17168   9.280  20.725   3.793
44909W        W17169  15.120  41.011  13.828
44910W        W17170  11.655  30.621   1.410
44911W        W17171   3.841  18.235   3.286
44912W        W17172  22.640   4.926   5.111
44913W        W17173  11.193  29.069   4.262
44914W        W17174  32.084  29.123  10.611
44915W        W17175  19.261  13.282   0.427
44916W        W17176   8.201   5.428  12.957
44917W        W17177  32.893  19.567  11.095
44918W        W17178  35.521  17.633   0.789
44919W        W17179  28.605  16.295  11.426
44920W        W17180  14.211  40.968   0.255
44921W        W17181  15.186  30.616   2.884
44922W        W17182  21.123   9.292  11.878
44923W        W17183  21.147   2.874   3.340
44924W        W17184  40.374  19.095  11.946
44925W        W17185  28.573   8.684  11.100
44926W        W17186   4.399  31.949  10.963
44927W        W17187  35.965  22.063  14.325
44928W        W17188  27.504   9.810   1.431
44929W        W17189  41.482  37.902  11.962
44930W        W17190  21.528   4.449  12.050
44931W        W17191  12.706  43.836  11.472
44932W        W17192   1.794  30.965  11.523
44933W        W17193   2.897  43.433   2.287
44934W        W17194  22.685  13.643   2.327
44935W        W17195   4.251  20.714   2.333
44936W        W17196  22.016  12.796  13.342
44937W        W17197  12.775  12.675  11.093
44938W        W17198  42.871  41.368  10.500
44939W        W17199   9.816  35.075   2.676
44940W        W17200  40.381  36.443   4.182
44941W        W17201  29.017  37.059  13.546
44942W        W17202  11.701  23.626   1.833
44943W        W17203  40.341  42.904  10.913
44944W        W17204  26.654  28.577  12.399
44945W        W17205  33.429  23.105   2.827
44946W        W17206  34.937  15.664  11.994
44947W        W17207  35.069  18.745   3.852
44948W        W17208  19.089  14.756   3.730
44949W        W17209  41.884  28.644  11.062
44950W        W17210  31.504  19.749   2.319
44951W        W17211  29.037  14.126  11.062
44952W        W17212  14.678   4.243   4.225
44953W        W17213   2.737  38.483  12.961
44954W        W17214   2.305  34.973   1.711
44955W        W17215  18.274  40.954   4.294
44956W        W17216  26.088  30.119   4.319
44957W        W17217   1.242   6.801  11.487
44958W        W17218  13.279  34.554  12.854
44959W        W17219  12.192  11.696   1.724
44960W        W17220  28.444  15.651  10.154
44961W        W17221  14.832  13.132  12.052
44962W        W17222   3.449  26.985   0.821
44963W        W17223  33.964  37.926   0.403
44964W        W17224   1.358  39.856   0.961
44965W        W17225  19.172   6.341  14.467
44966W        W17226  12.817   5.905  13.340
44967W        W17227  27.511   7.348   1.321
44968W        W17228  29.135  17.199   4.347
44969W        W17229  39.332  10.737  10.981
44970W        W17230  40.537   6.837   1.708
44971W        W17231   1.311  32.933  12.377
44972W        W17232  24.617   6.248  13.428
44973W        W17233  14.646  15.709   0.830
44974W        W17234  11.791  33.418   2.809
44975W        W17235  43.424   5.232  11.505
44976W        W17236  30.006  24.076   1.388
44977W        W17237  25.026  16.688  11.456
44978W        W17238  43.875  22.023   2.860
44979W        W17239  14.832  24.164   0.728
44980W        W17240  11.298   1.345  12.052
44981W        W17241  40.491   1.420  14.482
44982W        W17242   5.314  21.149   0.869
44983W        W17243   2.812  17.571  13.379
44984W        W17244  17.622  30.085  10.607
44985W        W17245   6.823  36.852   0.387
44986W        W17246  10.871  30.015   2.395
44987W        W17247  14.250   3.256   0.252
44988W        W17248  41.395  19.202  12.524
44989W        W17249  18.712  44.290   3.866
44990W        W17250  26.192  39.994  14.492
44991W        W17251  33.545  31.564   2.296
44992W        W17252   8.196  40.993   0.898
44993W        W17253  22.111  13.170   1.310
44994W        W17254  27.023  39.473   2.384
44995W        W17255  28.467  19.119  14.969
44996W        W17256   7.325  41.044  11.560
44997W        W17257  10.739   7.288  13.908
44998W        W17258  41.488  20.529   1.323
44999W        W17259   5.838  24.224  14.789
45000W        W17260  29.547  42.379   0.900
45001W        W17261  19.078  28.045  11.481
45002W        W17262   5.237   9.705  10.488
45003W        W17263   9.266   7.264   0.348
45004W        W17264  33.568  14.252  14.395
45005W        W17265  25.046  22.167  12.533
45006W        W17266   5.254  13.125   0.365
45007W        W17267  33.881  34.557   1.425
45008W        W17268  29.105  37.885  12.987
45009W        W17269  42.382  41.366  12.575
45010W        W17270  34.098  28.182  13.336
45011W        W17271  38.915  16.276  12.464
45012W        W17272  13.630  30.113  13.355
45013W        W17273  35.948  26.066  12.399
45014W        W17274  13.626  22.735   1.777
45015W        W17275   8.725  21.729   0.896
45016W        W17276   1.835  28.154  10.411
45017W        W17277  10.698   0.892   3.699
45018W        W17278  26.643   1.345  10.448
45019W        W17279  43.388   7.689  14.954
45020W        W17280   6.848   3.410  11.977
45021W        W17281  35.429  27.961  12.059
45022W        W17282  31.054  39.944   2.218
45023W        W17283  28.538  18.182  11.526
45024W        W17284   7.730  20.148   0.802
45025W        W17285  42.494  19.185   0.322
45026W        W17286  12.752  11.274   1.252
45027W        W17287  35.409   4.252  14.304
45028W        W17288  14.223  34.610  14.772
45029W        W17289   9.203   4.254  11.568
45030W        W17290  13.283  18.726   0.775
45031W        W17291  31.540  27.079  14.469
45032W        W17292  33.101  21.677  11.872
45033W        W17293  34.427  44.353  14.819
45034W        W17294  38.936  39.528   2.212
45035W        W17295  32.967  15.794   0.483
45036W        W17296  17.276  19.773   1.416
45037W        W17297  23.714  42.995  14.816
45038W        W17298  25.106  36.557   3.298
45039W        W17299  28.086  43.953  11.103
45040W        W17300  28.447   8.727  12.913
45041W        W17301  10.367  31.964   4.308
45042W        W17302  39.362   4.836  14.479
45043W        W17303  19.565  29.939   0.445
45044W        W17304  26.065  21.737   1.749
45045W        W17305  17.747  33.585   4.672
45046W        W17306  14.252  17.217   3.657
45047W        W17307   8.295  13.228  11.608
45048W        W17308  18.635  14.668  13.905
45049W        W17309  37.066  28.973   1.752
45050W        W17310   0.434  41.796   1.899
45051W        W17311  37.948  36.409  11.044
45052W        W17312  39.949  37.915   1.357
45053W        W17313  20.532   1.869   1.912
45054W        W17314  22.129   7.405   3.753
45055W        W17315  14.738  29.961  14.422
45056W        W17316  17.238   5.397  12.050
45057W        W17317  31.019   0.399   0.425
45058W        W17318  15.735  33.564  11.425
45059W        W17319  43.999   9.207   3.830
45060W        W17320  29.079  31.423  10.429
45061W        W17321  40.997  41.882   1.226
45062W        W17322  35.438  36.919   2.286
45063W        W17323   8.816  13.235  11.988
45064W        W17324  15.774  18.786   3.364
45065W        W17325  37.015  28.642  14.320
45066W        W17326  24.075  19.596   0.470
45067W        W17327  44.988  39.501   2.283
45068W        W17328  20.215  12.630  10.416
45069W        W17329  27.087  25.125   3.241
45070W        W17330   7.715  13.119   5.147
45071W        W17331  10.261   8.821  11.921
45072W        W17332  20.241  19.151  12.980
45073W        W17333  10.795  28.983  10.470
45074W        W17334  16.770  34.869   1.251
45075W        W17335  27.018  24.645  12.353
45076W        W17336  16.634  16.654  14.500
45077W        W17337  40.989  36.035   2.662
45078W        W17338   5.889  34.987  10.994
45079W        W17339  20.079  19.113   2.710
45080W        W17340   1.388  38.062  13.903
45081W        W17341  42.899   8.855  14.356
45082W        W17342  19.114   6.381   0.335
45083W        W17343   2.760   1.274  13.405
45084W        W17344   3.451  34.528   2.844
45085W        W17345  24.213  33.478  11.424
45086W        W17346  35.563  39.335  12.878
45087W        W17347  43.321  19.194   3.754
45088W        W17348  18.237  14.141  12.449
45089W        W17349  27.046   1.918   1.445
45090W        W17350  40.915  42.355   1.392
45091W        W17351  32.397  32.458  12.373
45092W        W17352  33.549  33.032   2.834
45093W        W17353  24.581  25.583  11.864
45094W        W17354  41.528  32.105   3.297
45095W        W17355  11.337  37.872  13.383
45096W        W17356  21.076  29.511   0.401
45097W        W17357  37.965  18.106  12.088
45098W        W17358  31.648  32.574   3.640
45099W        W17359   0.771  17.696   2.400
45100W        W17360  11.829  42.978  14.811
45101W        W17361  20.260   1.858  13.050
45102W        W17362   4.408  41.354   3.211
45103W        W17363  12.816  37.904   4.345
45104W        W17364  25.552   3.861  10.925
45105W        W17365   6.365  35.078   1.214
45106W        W17366  34.510   5.254  14.922
45107W        W17367  12.345   8.669   1.238
45108W        W17368  28.626  22.224  12.564
45109W        W17369  34.946   3.416   4.233
45110W        W17370  19.191  20.174  11.606
45111W        W17371   0.884  27.986  14.769
45112W        W17372  32.035  18.707  12.892
45113W        W17373  40.386  24.182   4.238
45114W        W17374  34.387   4.286   4.171
45115W        W17375  33.442  28.000  12.922
45116W        W17376   2.308  28.946  12.473
45117W        W17377  13.781  32.960  14.494
45118W        W17378  17.607  30.164   1.762
45119W        W17379  36.862   9.780  12.974
45120W        W17380  34.405  31.129  12.049
45121W        W17381   8.174  38.941  10.645
45122W        W17382  10.201  43.944   3.377
45123W        W17383   9.862   1.732  13.314
45124W        W17384  13.283  43.485   1.349
45125W        W17385   1.402   2.469   0.296
45126W        W17386  24.549  14.221  10.588
45127W        W17387   5.225  39.812   1.262
45128W        W17388  22.068   9.240   4.338
45129W        W17389  34.929  33.883   4.612
45130W        W17390   0.395   2.423   0.316
45131W        W17391   2.750  44.363  13.532
45132W        W17392  15.159  18.685  12.399
45133W        W17393  40.349   8.700   4.749
45134W        W17394  11.336   2.923  11.968
45135W        W17395  26.969   9.328   2.697
45136W        W17396  25.067  18.640   1.852
45137W        W17397   1.801   9.736   1.351
45138W        W17398   1.911  41.482   4.116
45139W        W17399   4.712  14.114   3.756
45140W        W17400   9.222  10.749   3.681
45141W        W17401  21.056  14.606   4.684
45142W        W17402  26.101  10.697   1.429
45143W        W17403  31.996   2.268   3.293
45144W        W17404  31.475  14.156  14.513
45145W        W17405  15.820  18.783   0.853
45146W        W17406  14.629  26.106   3.680
45147W        W17407   0.389   8.207  13.944
45148W        W17408  31.403  28.495   0.242
45149W        W17409  40.849  41.800  11.389
45150W        W17410  27.966   9.867  12.359
45151W        W17411  10.861  41.469   1.774
45152W        W17412  30.023  40.843   4.834
45153W        W17413  34.931  21.682  11.451
45154W        W17414  27.993  31.115  12.556
45155W        W17415  34.928  34.978   3.855
45156W        W17416  29.526   1.946  14.762
45157W        W17417  42.866  19.753   1.901
45158W        W17418  39.353   8.845  14.486
45159W        W17419   8.316  37.414   1.445
45160W        W17420  29.074   9.363   3.752
45161W        W17421  42.422  21.663   1.723
45162W        W17422  13.250  43.323   4.117
45163W        W17423   5.706  26.562   0.426
45164W        W17424  32.602  38.420   2.705
45165W        W17425  33.081   7.268   4.647
45166W        W17426   5.286  13.816  12.027
45167W        W17427  38.063  19.653   5.096
45168W        W17428   9.383   8.690   2.211
45169W        W17429  13.287  19.686  14.026
45170W        W17430   5.401  20.540   0.834
45171W        W17431   9.187  19.553  11.528
45172W        W17432   7.414  44.364   4.790
45173W        W17433  17.775   5.254   1.838
45174W        W17434  34.948   1.946  11.458
45175W        W17435   0.975   0.817   0.769
45176W        W17436  22.541   2.920   0.325
45177W        W17437   9.348   9.748   0.401
45178W        W17438   5.689  28.564   4.795
45179W        W17439  38.010   9.294   0.829
45180W        W17440  12.297   7.796  11.449
45181W        W17441  24.672   4.726  13.357
45182W        W17442  36.020  10.863  13.869
45183W        W17443  34.608  36.588   3.375
45184W        W17444  23.599   3.933  11.383
45185W        W17445  20.735  19.181   1.447
45186W        W17446  29.479  13.600  13.420
45187W        W17447  25.593  22.026   0.420
45188W        W17448  32.424  33.584  11.893
45189W        W17449  24.642  23.624   1.238
45190W        W17450  22.571  41.299  14.353
45191W        W17451  16.687   4.915  11.472
45192W        W17452  44.475  34.533  13.363
45193W        W17453  27.087  13.777  14.311
45194W        W17454  31.000  44.814   3.767
45195W        W17455  27.561  26.573  11.007
45196W        W17456  25.693  40.347  14.004
45197W        W17457  26.649  43.441  11.098
45198W        W17458  29.058  25.178  14.920
45199W        W17459  16.660   6.222   2.813
45200W        W17460  38.339  15.329  14.766
45201W        W17461   8.204  20.721  14.957
45202W        W17462  24.164  25.520  13.916
45203W        W17463  30.958  12.790   1.785
45204W        W17464  18.207   0.371  12.073
45205W        W17465  10.189   2.885  11.452
45206W        W17466  22.012  17.712  13.429
45207W        W17467  29.126  13.841   1.807
45208W        W17468  42.309  39.540   0.955
45209W        W17469  20.204  43.389   3.196
45210W        W17470  35.593  33.898  10.645
45211W        W17471   4.745  27.573   4.352
45212W        W17472  43.820  42.328  10.604
45213W        W17473  32.407  31.406   3.772
45214W        W17474  41.448   0.935  11.973
45215W        W17475  26.600  11.684  14.351
45216W        W17476  29.148  16.244  12.489
45217W        W17477  22.500  30.011  11.920
45218W        W17478   4.944  32.974   4.636
45219W        W17479   8.808   4.344   9.937
45220W        W17480  17.061   0.786  12.386
45221W        W17481  27.544  27.129   3.767
45222W        W17482  22.677   7.222  12.383
45223W        W17483  13.299  28.466  13.011
45224W        W17484  25.014  40.937   3.684
45225W        W17485  17.084  14.300  14.889
45226W        W17486  27.557  16.628   3.723
45227W        W17487   5.853  38.037  10.600
45228W        W17488  19.068  29.146   4.329
45229W        W17489  16.219  36.481   0.419
45230W        W17490  24.214  37.857   0.838
45231W        W17491  43.767  14.281  10.971
45232W        W17492  27.086  31.050   4.747
45233W        W17493  19.668  40.010  11.523
45234W        W17494   0.890  35.103   4.696
45235W        W17495  15.749  32.578  11.608
45236W        W17496  28.164  44.797   3.785
45237W        W17497  37.836  11.353  13.019
45238W        W17498  14.775  37.522  14.837
45239W        W17499  18.224  43.961   2.210
45240W        W17500  26.667  16.163  11.006
45241W        W17501   3.761  38.421   1.797
45242W        W17502   2.402  24.650  13.891
45243W        W17503  19.270  21.599  11.598
45244W        W17504   9.751  11.309   3.347
45245W        W17505   0.851  38.859  14.763
45246W        W17506  37.924   8.373  14.964
45247W        W17507  31.437  23.532  10.918
45248W        W17508  17.734  26.669   0.404
45249W        W17509   4.269  39.947  13.355
45250W        W17510  12.199  43.385  14.873
45251W        W17511   7.766  29.174  11.022
45252W        W17512   2.323  14.138  13.478
45253W        W17513  44.492  32.893   2.278
45254W        W17514  11.766  41.805   0.836
45255W        W17515  14.782  41.527  10.902
45256W        W17516  42.478  39.505  12.538
45257W        W17517   5.815  23.006   0.942
45258W        W17518  37.869  29.031  11.539
45259W        W17519   3.260   3.450  14.905
45260W        W17520  11.355  29.961  13.000
45261W        W17521  37.411  15.229  12.003
45262W        W17522   3.842  41.410   3.255
45263W        W17523  14.153  18.101   1.871
45264W        W17524  36.910  21.049   4.288
45265W        W17525  28.018  27.168  10.955
45266W        W17526  27.099  41.844  11.021
45267W        W17527  30.627  33.420  11.556
45268W        W17528  22.213  17.081   4.607
45269W        W17529  32.416   2.766   0.905
45270W        W17530  37.509  20.532   0.770
45271W        W17531   8.780  30.108   2.382
45272W        W17532   1.441  10.684  13.310
45273W        W17533  13.799   7.250   1.277
45274W        W17534  27.090  35.436   3.266
45275W        W17535  41.511  22.669  10.524
45276W        W17536  21.725   1.854  14.311
45277W        W17537  11.793  35.901  11.878
45278W        W17538  26.964  10.218  14.837
45279W        W17539  44.928   0.953  14.851
45280W        W17540  42.332  30.423  13.900
45281W        W17541  26.162  22.523  14.948
45282W        W17542  19.772  28.487  11.045
45283W        W17543  28.473  25.217  10.526
45284W        W17544  19.169   0.894   4.828
45285W        W17545  37.472  23.606   1.448
45286W        W17546  10.186  30.594  13.980
45287W        W17547   0.265  34.605   1.915
45288W        W17548   2.797   3.266  10.989
45289W        W17549  20.218  43.449  14.315
45290W        W17550  32.411  12.621   0.929
45291W        W17551  23.012  11.275   0.932
45292W        W17552  18.657   4.924   0.373
45293W        W17553  17.138  18.283  11.478
45294W        W17554   8.843  25.214  11.541
45295W        W17555   4.382   9.828  10.569
45296W        W17556  40.431  32.018   3.741
45297W        W17557  35.470  22.047  12.563
45298W        W17558   3.806  39.544  14.927
45299W        W17559  27.599  18.186   3.216
45300W        W17560   1.900  15.804   3.217
45301W        W17561  11.205  30.081   2.283
45302W        W17562  39.976   8.750  12.410
45303W        W17563  40.340  40.806  11.413
45304W        W17564  36.887  33.931  12.427
45305W        W17565  13.845  13.242  12.470
45306W        W17566  36.947   5.404  12.928
45307W        W17567  36.438  42.025  13.496
45308W        W17568  40.907  36.906  10.600
45309W        W17569   8.159  30.622  12.995
45310W        W17570  29.533  42.785  12.499
45311W        W17571  35.062  39.014   0.949
45312W        W17572  31.532   0.923  12.444
45313W        W17573  24.538  11.688   4.707
45314W        W17574  44.415  38.823   2.307
45315W        W17575   7.405  31.063  13.422
45316W        W17576  34.874   2.322   2.215
45317W        W17577  42.785  37.938   5.097
45318W        W17578   2.261  23.497   4.822
45319W        W17579   5.400  17.732   3.724
45320W        W17580  26.975  35.013  12.995
45321W        W17581  29.175   8.751  13.982
45322W        W17582  26.121   9.769   0.388
45323W        W17583  13.133  16.779   4.313
45324W        W17584  23.214   0.760  13.435
45325W        W17585  33.018  20.186  14.004
45326W        W17586  20.564  29.621  11.038
45327W        W17587  30.080  29.663   5.725
45328W        W17588  20.142  34.475   1.762
45329W        W17589   0.979   1.768  13.823
45330W        W17590  18.287  12.824  13.526
45331W        W17591  42.496   8.867  14.494
45332W        W17592   2.965   6.690  14.956
45333W        W17593   9.302  12.736   2.327
45334W        W17594  19.646  31.031   3.800
45335W        W17595   1.387  24.691   2.347
45336W        W17596  40.914  44.443   3.759
45337W        W17597  14.104  33.095  12.092
45338W        W17598   9.281  35.897  13.373
45339W        W17599  38.434   9.732  11.587
45340W        W17600  27.682  31.123  10.565
45341W        W17601  34.415  18.765   3.345
45342W        W17602  11.177  23.605  14.476
45343W        W17603  38.996  28.452   3.332
45344W        W17604   9.222  42.350  12.005
45345W        W17605   3.341  27.182   1.275
45346W        W17606  19.660  31.928   4.838
45347W        W17607  26.597  23.044   1.700
45348W        W17608  43.979  20.205  14.947
45349W        W17609  22.066   6.716  11.987
45350W        W17610  13.602  21.531   4.202
45351W        W17611  12.685  26.184  13.824
45352W        W17612  34.980  22.666  12.919
45353W        W17613  24.555   8.251  14.354
45354W        W17614   9.199   7.881   2.271
45355W        W17615  24.017  40.890   3.848
45356W        W17616  21.253   6.707   1.722
45357W        W17617   3.923   8.881  12.350
45358W        W17618   9.392  29.622   0.277
45359W        W17619  39.893  10.213   4.732
45360W        W17620  44.480  10.749  11.990
45361W        W17621  26.552   3.766  13.807
45362W        W17622   4.388  39.939  11.485
45363W        W17623   7.679   8.265  14.890
45364W        W17624  19.557  17.067   5.232
45365W        W17625  19.720  32.063   3.845
45366W        W17626   6.378  10.673  11.858
45367W        W17627   6.195  30.082   3.386
45368W        W17628   4.291  38.359  11.907
45369W        W17629  44.304  34.873   4.329
45370W        W17630  13.701  15.690   2.876
45371W        W17631  17.740  41.860  13.995
45372W        W17632   2.797  27.508  14.429
45373W        W17633   2.827   3.228  14.789
45374W        W17634  14.332  42.024  12.052
45375W        W17635   4.913  20.031  12.517
45376W        W17636  15.192  35.011   4.167
45377W        W17637  39.344  23.734  10.918
45378W        W17638  42.949  30.612   0.314
45379W        W17639  44.847   1.876   0.782
45380W        W17640  14.607  28.609  10.943
45381W        W17641  23.660   0.292  10.993
45382W        W17642   4.271  31.561   0.893
45383W        W17643   3.842  29.579  12.967
45384W        W17644  31.416  14.151   0.421
45385W        W17645  31.105   2.230  13.889
45386W        W17646  30.023  33.577  11.509
45387W        W17647  16.750   3.333   1.742
45388W        W17648  18.721  28.627   1.892
45389W        W17649   0.335  43.355  14.515
45390W        W17650  40.442  43.957   2.773
45391W        W17651  31.624  35.951  13.488
45392W        W17652  38.885  18.722  11.040
45393W        W17653   7.674  11.356   2.829
45394W        W17654   1.763   6.287  14.924
45395W        W17655  44.478   8.855   4.175
45396W        W17656  18.190  38.480   1.232
45397W        W17657  31.902   4.412   3.357
45398W        W17658   9.195  42.789  12.947
45399W        W17659  36.901  25.624  12.509
45400W        W17660  17.188  30.504  10.601
45401W        W17661  40.372  28.490   3.690
45402W        W17662  16.137  38.344   1.826
45403W        W17663  37.438   7.811   1.855
45404W        W17664  20.760  14.322  12.557
45405W        W17665   4.882  34.943  11.954
45406W        W17666  31.461  20.664  11.978
45407W        W17667   0.862  27.619   2.275
45408W        W17668  43.964   4.862   1.815
45409W        W17669   5.809  10.255   4.221
45410W        W17670  36.086  20.145  11.954
45411W        W17671   3.714   4.272   1.444
45412W        W17672   9.864  32.620  10.994
45413W        W17673   4.821  41.883  12.502
45414W        W17674   0.958  14.618   3.767
45415W        W17675   0.388  27.152   2.665
45416W        W17676  38.407  16.129   3.790
45417W        W17677  12.733  15.228   0.823
45418W        W17678  33.038   1.798   1.864
45419W        W17679  34.012   6.384   2.814
45420W        W17680  44.942  35.953   1.411
45421W        W17681  23.529   3.948  12.504
45422W        W17682   3.731  18.558   1.865
45423W        W17683  37.378   9.694   2.786
45424W        W17684   2.284  26.145   1.415
45425W        W17685   7.766  12.351  12.384
45426W        W17686   2.367  41.955  14.760
45427W        W17687  25.664  37.899  12.536
45428W        W17688  18.576  17.092   4.185
45429W        W17689  10.874  41.488   2.699
45430W        W17690  40.317  30.515  11.588
45431W        W17691  30.063   8.890   1.778
45432W        W17692  13.114  40.956   2.719
45433W        W17693  42.868  27.145   2.778
45434W        W17694  22.546   6.351   5.242
45435W        W17695  24.516  27.630  11.099
45436W        W17696  43.955  41.904   3.160
45437W        W17697  11.345  38.907  11.548
45438W        W17698  37.506  37.461  12.373
45439W        W17699  36.971  36.085   0.821
45440W        W17700  14.281  32.441  13.319
45441W        W17701   2.938  26.520   4.836
45442W        W17702  24.078  26.588   3.784
45443W        W17703  19.646  25.714  12.494
45444W        W17704   2.278  22.074  13.478
45445W        W17705  32.901  21.145   3.146
45446W        W17706  27.673  27.951   4.198
45447W        W17707   6.271  25.536  13.432
45448W        W17708  30.951  33.401  14.771
45449W        W17709  21.558  36.026   4.301
45450W        W17710  40.385  34.427   3.675
45451W        W17711  43.797  24.057   3.724
45452W        W17712  38.047  10.825  12.921
45453W        W17713  40.821  25.592  13.372
45454W        W17714  40.013  25.512  12.867
45455W        W17715  16.624   0.404  10.456
45456W        W17716   3.343  37.543   2.715
45457W        W17717   6.411  25.974  11.609
45458W        W17718  25.157   7.399  10.447
45459W        W17719  18.051  22.126  10.460
45460W        W17720  19.085  39.950  13.803
45461W        W17721   5.254  26.662  12.575
45462W        W17722  16.590  44.958   4.705
45463W        W17723  19.110   3.245  13.392
45464W        W17724  31.441  31.596  11.945
45465W        W17725  26.609  14.743  11.524
45466W        W17726  30.112  25.706  11.030
45467W        W17727  31.119  26.172  14.960
45468W        W17728  37.967  16.317  10.927
45469W        W17729  21.696  30.530  13.971
45470W        W17730  13.163  13.325   0.894
45471W        W17731  18.558  12.299   4.321
45472W        W17732   0.365  30.467  14.335
45473W        W17733  14.624  27.035  12.430
45474W        W17734   0.921  18.107  13.871
45475W        W17735  25.493   7.758  14.021
45476W        W17736  21.527  15.682  14.784
45477W        W17737  43.350   0.286  13.410
45478W        W17738  18.143  40.016  12.389
45479W        W17739  38.073  44.908  10.457
45480W        W17740  39.539  24.638  12.908
45481W        W17741  14.618  38.998   2.858
45482W        W17742  31.439  27.165   0.394
45483W        W17743   4.704  10.241   2.270
45484W        W17744  40.808  18.103   0.740
45485W        W17745   1.267  31.904   3.710
45486W        W17746  33.624   6.703   4.661
45487W        W17747  22.161   1.314  13.322
45488W        W17748  22.535   1.319  13.829
45489W        W17749  20.700   9.655  11.479
45490W        W17750  20.124  13.278  11.520
45491W        W17751  22.041  29.482   2.205
45492W        W17752   5.395  20.701  14.462
45493W        W17753  21.713  34.884  14.961
45494W        W17754  31.065  23.997  13.407
45495W        W17755  36.439  10.342  13.831
45496W        W17756  31.945   8.713  12.463
45497W        W17757  22.583  30.538  12.020
45498W        W17758  10.276  17.129   0.770
45499W        W17759  13.259  27.561  11.028
45500W        W17760  21.019  40.990  12.914
45501W        W17761   0.820  44.871  11.956
45502W        W17762   6.732  34.557  11.448
45503W        W17763   8.850  18.210  10.467
45504W        W17764  26.665  14.766  14.984
45505W        W17765   3.797  15.652  12.958
45506W        W17766  21.613  30.974   3.157
45507W        W17767   7.297  39.842   4.173
45508W        W17768  36.021  20.690   4.282
45509W        W17769  37.527  31.586   4.203
45510W        W17770  38.457  13.330  12.963
45511W        W17771  35.876  15.195  14.790
45512W        W17772  16.728  14.278  12.910
45513W        W17773  39.831  44.789  14.276
45514W        W17774   5.201  16.193   2.682
45515W        W17775   4.718  17.288   0.469
45516W        W17776  13.222  43.786  13.348
45517W        W17777   7.190  23.073  11.900
45518W        W17778  33.439  42.902   0.470
45519W        W17779  44.939  28.986   4.701
45520W        W17780  25.528  38.445  14.030
45521W        W17781  37.528  25.538  12.412
45522W        W17782  31.915  44.999  10.591
45523W        W17783  28.084  37.558   1.861
45524W        W17784  29.932  27.555  14.276
45525W        W17785  35.885  14.251   3.211
45526W        W17786  33.591   1.910   2.697
45527W        W17787  29.659  17.758   2.270
45528W        W17788  39.991   7.799   5.278
45529W        W17789  40.418   0.387  13.978
45530W        W17790   1.246  15.300   3.367
45531W        W17791  16.125  21.085   4.742
45532W        W17792   9.184  38.944   3.269
45533W        W17793  24.077   2.451   3.217
45534W        W17794  32.587   0.871  13.806
45535W        W17795  40.008  33.622   2.353
45536W        W17796  42.296   9.782   4.195
45537W        W17797  38.457  32.573  12.513
45538W        W17798  29.041  31.565  13.457
45539W        W17799  13.748   5.405  12.465
45540W        W17800   2.764  34.400   2.667
45541W        W17801  19.608  16.142   3.249
45542W        W17802  36.515  10.184  12.501
45543W        W17803  40.990  16.274  12.954
45544W        W17804  13.694  44.499  13.482
45545W        W17805  17.240  36.496   4.670
45546W        W17806  10.688   4.399   2.704
45547W        W17807  21.565   2.392  10.465
45548W        W17808  18.201  10.383  13.532
45549W        W17809  21.213  43.442   0.771
45550W        W17810  33.450  37.521  13.008
45551W        W17811   6.729  43.851  13.320
45552W        W17812  21.026  13.246  14.309
45553W        W17813  25.676  17.279   3.831
45554W        W17814  42.811   5.423   4.632
45555W        W17815  13.194  43.907  13.031
45556W        W17816  41.862  18.584   1.311
45557W        W17817  42.344  15.097  10.582
45558W        W17818  28.027  10.336  13.359
45559W        W17819  31.413  39.821  13.839
45560W        W17820  17.731  34.459  13.389
45561W        W17821  44.841  24.716   4.318
45562W        W17822  16.182  28.961  14.436
45563W        W17823   5.849  24.479   3.772
45564W        W17824   8.777  12.680  13.514
45565W        W17825  30.656  44.264   0.331
45566W        W17826  32.113   1.433  14.302
45567W        W17827  43.830  40.932  14.927
45568W        W17828   2.365   9.332   4.755
45569W        W17829   3.790  28.023   0.337
45570W        W17830  44.873  38.946   4.682
45571W        W17831  23.160   6.223   3.290
45572W        W17832   7.883   3.920  14.776
45573W        W17833   8.685  15.267  12.081
45574W        W17834  37.965  42.994   4.226
45575W        W17835   6.711  28.664  12.549
45576W        W17836  27.181  26.488   2.406
45577W        W17837  25.077   6.364   4.309
45578W        W17838   1.384  39.340   1.288
45579W        W17839  21.160  15.296   3.769
45580W        W17840   1.310  42.365  14.339
45581W        W17841   8.746  26.562   3.155
45582W        W17842  43.515  38.351  11.004
45583W        W17843   9.198  19.132  14.330
45584W        W17844   3.800  27.649   1.330
45585W        W17845  14.188  26.556  14.797
45586W        W17846  15.105  28.141   0.421
45587W        W17847  37.447  27.675   1.893
45588W        W17848  26.168   9.689   4.135
45589W        W17849  44.859   0.937   0.304
45590W        W17850  37.993  18.221   4.116
45591W        W17851  25.490  29.045   4.243
45592W        W17852  34.089  20.676   3.821
45593W        W17853  12.328  17.100  10.636
45594W        W17854  36.418  13.647  13.972
45595W        W17855  41.004  13.209  12.848
45596W        W17856   1.469  18.783   4.727
45597W        W17857  40.447  16.726  14.308
45598W        W17858   3.887  21.629   2.406
45599W        W17859   7.871   7.174  11.533
45600W        W17860  25.122   0.813   1.882
45601W        W17861  14.686  24.028  13.371
45602W        W17862  40.501  39.321   4.218
45603W        W17863  19.083  18.609  13.383
45604W        W17864  44.798  28.079  10.103
45605W        W17865  28.530   3.747   4.344
45606W        W17866  19.715  25.071   0.960
45607W        W17867  24.024  27.686  11.106
45608W        W17868   7.907  23.678  14.370
45609W        W17869  42.970  24.674  11.559
45610W        W17870  20.586  16.178   0.462
45611W        W17871  37.876  44.377  11.552
45612W        W17872  42.834   3.420   2.197
45613W        W17873  31.958  17.733   4.306
45614W        W17874  11.667  24.022   2.809
45615W        W17875  13.115   0.949   3.151
45616W        W17876  33.937  41.828   2.723
45617W        W17877  24.611  12.194  11.992
45618W        W17878  25.195  31.045   1.366
45619W        W17879  31.521  11.295   3.639
45620W        W17880  44.436   6.882   4.226
45621W        W17881   3.371   8.705   4.753
45622W        W17882  25.987  29.491   4.136
45623W        W17883  42.335   3.312   0.267
45624W        W17884  15.617  35.600   0.830
45625W        W17885  20.111  15.596   1.340
45626W        W17886  31.153  24.187   1.352
45627W        W17887  24.616  44.347  14.466
45628W        W17888  37.862   5.759  13.805
45629W        W17889  12.344  22.622   4.262
45630W        W17890  21.739  26.002   2.346
45631W        W17891  39.339  43.884  12.463
45632W        W17892  21.136  11.219   4.269
45633W        W17893   7.858  21.177  10.015
45634W        W17894  17.560  14.697  14.833
45635W        W17895  12.351  27.494  13.430
45636W        W17896  26.973  30.959   1.806
45637W        W17897  25.118  12.228  12.082
45638W        W17898  19.127  20.197   4.204
45639W        W17899   1.287  26.672   2.196
45640W        W17900  25.013  38.475   3.830
45641W        W17901  21.758  42.987  10.582
45642W        W17902  25.693  23.490   1.250
45643W        W17903  26.490  18.561  14.352
45644W        W17904  28.044   7.276   5.107
45645W        W17905  11.868  35.444  11.038
45646W        W17906  37.487  12.220   2.356
45647W        W17907  30.018  44.001  14.463
45648W        W17908  15.750  16.082   3.342
45649W        W17909   6.258  11.824   2.217
45650W        W17910  43.473   5.818  13.954
45651W        W17911  35.941  39.964  11.037
45652W        W17912  30.057   9.250   2.776
45653W        W17913  43.433   8.693   3.286
45654W        W17914  36.856  29.160  13.451
45655W        W17915  24.114  39.323  13.872
45656W        W17916   1.250  30.659   5.092
45657W        W17917  38.359  35.980  10.460
45658W        W17918  26.171  20.123  13.456
45659W        W17919  16.245  23.572  11.590
45660W        W17920  19.616  11.835  13.062
45661W        W17921  31.542  36.572  11.378
45662W        W17922  24.666  10.691   4.669
45663W        W17923  11.670   8.733   2.903
45664W        W17924  11.797  11.814  11.979
45665W        W17925   5.269  11.863   4.319
45666W        W17926   7.685  22.024   4.733
45667W        W17927  29.491  16.217   3.748
45668W        W17928   3.952   7.734   2.340
45669W        W17929  32.428  23.631  11.069
45670W        W17930  34.486  28.439   2.345
45671W        W17931  24.605  26.001   1.783
45672W        W17932  35.898  40.313  12.014
45673W        W17933   5.723  26.967  13.980
45674W        W17934  31.449  36.031   4.241
45675W        W17935  44.786  35.494   1.858
45676W        W17936  32.131  25.509  12.827
45677W        W17937   3.280  44.286   2.276
45678W        W17938   9.325  18.154   1.432
45679W        W17939  13.125  43.789  14.331
45680W        W17940  38.542  35.944   4.805
45681W        W17941  30.102  31.040   4.175
45682W        W17942   2.900  22.171   4.191
45683W        W17943  37.960  27.562  14.767
45684W        W17944  43.417  33.111   1.210
45685W        W17945  12.701   0.891   4.305
45686W        W17946   3.717   7.710  14.776
45687W        W17947  42.890   1.869   2.830
45688W        W17948  27.192  35.861  11.965
45689W        W17949  34.965  22.084  11.412
45690W        W17950  34.514  35.865  14.287
45691W        W17951   6.686  38.366   4.763
45692W        W17952   6.213  20.064   2.311
45693W        W17953  34.892   2.950   3.770
45694W        W17954  24.667  21.625   0.876
45695W        W17955  35.876  18.608   2.744
45696W        W17956   8.176  33.017  14.298
45697W        W17957  29.172   2.922  11.453
45698W        W17958  28.659  30.011  12.392
45699W        W17959  34.984  40.021   4.619
45700W        W17960  22.745   4.346  12.501
45701W        W17961  31.005  29.968   2.890
45702W        W17962  10.211  24.554  10.950
45703W        W17963  21.533  11.839  10.133
45704W        W17964  12.730  27.485  14.864
45705W        W17965  19.550  42.929   4.810
45706W        W17966  21.681   6.899   4.131
45707W        W17967  11.178  42.300  11.568
45708W        W17968  31.423  35.438  13.839
45709W        W17969  30.518  41.431  14.840
45710W        W17970   5.417  35.080  11.427
45711W        W17971  11.862  37.888   0.753
45712W        W17972  17.279  24.623   2.902
45713W        W17973   8.254  10.179  11.017
45714W        W17974  33.553  22.057   0.319
45715W        W17975  40.460  22.111  10.989
45716W        W17976   9.737   3.862   1.901
45717W        W17977  42.466  14.321   3.645
45718W        W17978  14.159  14.128  10.135
45719W        W17979  10.865  42.473   4.185
45720W        W17980  29.585  14.316  12.555
45721W        W17981  21.162  44.354   0.305
45722W        W17982  27.497   9.714  10.444
45723W        W17983  14.835  18.640  14.327
45724W        W17984  36.905  15.086  13.446
45725W        W17985   8.779  31.647  12.368
45726W        W17986   9.777  33.900  12.521
45727W        W17987  43.346  29.015  13.925
45728W        W17988   2.867  36.409   4.771
45729W        W17989  13.760  44.431   4.637
45730W        W17990  42.345  16.193   3.231
45731W        W17991  25.688  26.671   3.759
45732W        W17992   0.301  28.182  11.939
45733W        W17993  24.653  16.283  10.528
45734W        W17994  44.301  30.101   4.796
45735W        W17995  26.556  42.444   1.916
45736W        W17996  15.321  40.937   0.790
45737W        W17997  36.431  28.946   1.778
45738W        W17998  35.407   2.815  13.522
45739W        W17999  26.556  32.630  14.997
45740W        W18000  13.625  19.279   4.246
45741W        W18001   7.726  33.572  10.010
45742W        W18002  22.596  30.545  13.814
45743W        W18003  25.525  13.154   4.267
45744W        W18004  23.576  25.199   0.467
45745W        W18005  30.647  16.781   0.904
45746W        W18006  32.423  17.792  14.458
45747W        W18007  37.571   3.260   0.842
45748W        W18008  14.129   2.454  10.468
45749W        W18009  17.721  16.254  13.353
45750W        W18010  32.035   1.297   1.700
45751W        W18011  27.949  31.488  11.578
45752W        W18012  16.209  44.357   3.244
45753W        W18013   0.745  35.907  10.937
45754W        W18014  16.708   8.233   3.810
45755W        W18015  33.609  33.409   9.964
45756W        W18016  40.873  29.974  13.050
45757W        W18017  22.246  13.147  12.901
45758W        W18018  10.252  33.036   9.930
45759W        W18019   1.348  24.622   0.425
45760W        W18020  39.347  18.588   3.233
45761W        W18021  22.189  42.880  12.531
45762W        W18022  12.777  37.551  12.944
45763W        W18023  42.808  31.504  14.297
45764W        W18024   5.770  36.389  12.434
45765W        W18025  40.944   3.251  14.957
45766W        W18026  34.418  22.038   3.752
45767W        W18027  32.955  40.335   3.754
45768W        W18028  34.511  10.230   3.661
45769W        W18029  14.131  20.600   4.275
45770W        W18030   8.678  15.319  12.441
45771W        W18031  39.888   1.768   3.826
45772W        W18032   6.790  18.669   3.382
45773W        W18033   6.211  42.509   2.744
45774W        W18034  42.964  43.885   4.351
45775W        W18035   0.405  19.213   3.651
45776W        W18036  44.787   8.900   4.211
45777W        W18037  36.052   1.888  12.931
45778W        W18038  19.228   1.733   1.313
45779W        W18039  38.038  39.829  11.503
45780W        W18040  32.097  20.537   3.687
45781W        W18041  26.200  21.029   0.394
45782W        W18042   7.215  40.404  11.875
45783W        W18043   3.909  16.686   1.808
45784W        W18044   0.782  18.131  14.788
45785W        W18045  32.012  11.372  11.028
45786W        W18046   5.432  40.462  10.154
45787W        W18047  41.044  40.813   2.372
45788W        W18048  15.691  42.843  13.968
45789W        W18049  20.615  24.043  11.503
45790W        W18050  40.936  41.499  10.934
45791W        W18051  35.488  27.946  10.939
45792W        W18052  16.254  18.109  12.063
45793W        W18053  36.983  27.947  11.543
45794W        W18054  37.854  40.358   0.475
45795W        W18055  14.711  38.478   0.411
45796W        W18056  38.916   5.899  10.931
45797W        W18057  40.807   0.336  14.391
45798W        W18058  21.248   5.218   0.247
45799W        W18059  21.611  21.607   9.466
45800W        W18060  42.834  40.440   3.719
45801W        W18061  18.569  43.863  10.533
45802W        W18062  21.630  11.161  12.988
45803W        W18063  21.123  26.131  10.518
45804W        W18064  25.075  40.353   2.399
45805W        W18065  12.786  41.340  12.573
45806W        W18066   1.829  24.660  11.042
45807W        W18067  44.877  40.834  12.434
45808W        W18068  34.029   9.829   3.841
45809W        W18069  32.608   9.807  12.897
45810W        W18070   4.906  20.108  13.976
45811W        W18071  17.602  39.547   2.851
45812W        W18072  34.059  14.171  14.943
45813W        W18073  36.048  38.063   1.698
45814W        W18074  28.993  16.082   3.665
45815W        W18075   8.385   5.371  13.354
45816W        W18076  26.465  31.409   4.825
45817W        W18077  30.431  34.973   4.334
45818W        W18078  42.829   2.783  12.427
45819W        W18079  20.186  36.923   3.864
45820W        W18080  10.875  13.794  14.390
45821W        W18081  16.616  36.922   0.258
45822W        W18082  26.575  17.765  11.437
45823W        W18083  20.237   9.321  14.941
45824W        W18084  20.128   3.817  11.936
45825W        W18085  23.207  22.011   2.202
45826W        W18086  19.255  11.675   0.875
45827W        W18087  34.918  24.980   3.748
45828W        W18088  39.995   1.438  10.511
45829W        W18089  23.723   9.253   4.653
45830W        W18090  43.422  32.583   0.749
45831W        W18091  13.773  24.998   2.247
45832W        W18092  21.213  42.507   4.809
45833W        W18093  25.592  39.385  13.458
45834W        W18094  10.215  26.579  12.866
45835W        W18095  34.928  28.992  12.369
45836W        W18096   9.654   7.814   3.265
45837W        W18097  16.730  37.050   0.755
45838W        W18098  41.463   7.693  12.047
45839W        W18099  38.835  37.951   1.389
45840W        W18100  27.129  34.485  11.997
45841W        W18101  33.901  24.108   3.727
45842W        W18102  43.393  23.016   3.289
45843W        W18103  32.951  24.508   2.300
45844W        W18104  44.259  40.895   0.760
45845W        W18105  24.682   4.340  12.380
45846W        W18106   4.799  19.280  12.429
45847W        W18107   1.421  34.892  11.056
45848W        W18108  27.062  21.551   4.238
45849W        W18109  23.117  12.672  14.360
45850W        W18110  42.900  17.306  11.595
45851W        W18111  28.508  36.946  11.895
45852W        W18112  38.924  26.990   1.917
45853W        W18113  24.056  16.305  14.765
45854W        W18114  14.763  26.665  11.574
45855W        W18115  38.531  26.075   3.323
45856W        W18116  25.180  38.460  13.811
45857W        W18117  32.448   6.220  14.486
45858W        W18118  44.476  39.536  11.051
45859W        W18119  23.504  26.537   3.226
45860W        W18120  27.646   2.336   3.339
45861W        W18121  17.205  19.092  11.534
45862W        W18122  35.072   0.295   4.751
45863W        W18123  33.565  13.771  11.886
45864W        W18124   8.730   1.450  14.433
45865W        W18125  15.275  21.748  10.989
45866W        W18126   7.406   1.472  12.059
45867W        W18127  12.651  29.646   5.137
45868W        W18128  39.935  11.157   2.401
45869W        W18129  39.898   1.918  13.898
45870W        W18130  19.059  40.447   4.714
45871W        W18131  19.096  34.092  10.599
45872W        W18132   0.959  30.991  14.826
45873W        W18133  43.306   2.354   1.899
45874W        W18134  15.149  36.016  11.498
45875W        W18135  14.238  14.689  11.955
45876W        W18136  33.055   2.818  11.070
45877W        W18137  36.940   0.817   3.317
45878W        W18138  39.831   5.760   1.844
45879W        W18139   0.865  14.665   4.799
45880W        W18140   1.837  31.934   3.654
45881W        W18141  22.023  16.748   2.759
45882W        W18142   6.840  16.727  11.549
45883W        W18143  32.903  30.493   4.676
45884W        W18144  27.078  18.598  10.908
45885W        W18145  14.306  39.513  14.365
45886W        W18146  44.909  30.953   3.690
45887W        W18147  19.186   1.339  10.514
45888W        W18148  11.321   6.785   1.277
45889W        W18149  33.421  27.958  13.951
45890W        W18150  22.230  26.144  13.891
45891W        W18151  36.941   0.384  12.837
45892W        W18152  21.125  29.944  11.918
45893W        W18153  37.440  28.664   3.182
45894W        W18154  39.905   9.857  14.983
45895W        W18155  19.040   4.811  12.973
45896W        W18156  43.480  22.606   2.196
45897W        W18157  34.498  15.231  11.015
45898W        W18158   9.699   0.954   1.904
45899W        W18159  20.734  27.040   5.588
45900W        W18160  39.030  27.987  10.036
45901W        W18161  24.080  41.482   5.275
45902W        W18162  17.215  32.536  14.443
45903W        W18163  15.302   1.949  11.968
45904W        W18164  34.000   2.906   3.322
45905W        W18165  21.047  43.807   1.790
45906W        W18166  17.071  10.320  11.429
45907W        W18167  43.854  29.047   0.263
45908W        W18168  14.780  26.995  13.322
45909W        W18169  29.159  13.183  14.846
45910W        W18170  18.676  30.079  10.560
45911W        W18171   8.197  29.636  11.984
45912W        W18172  20.758  29.578   3.222
45913W        W18173   8.364   8.669   0.878
45914W        W18174  31.579  19.117  12.485
45915W        W18175  37.533  36.030  11.969
45916W        W18176   2.458  41.530   9.929
45917W        W18177   3.354  44.761  12.977
45918W        W18178  17.699  25.199   4.726
45919W        W18179   3.773  42.486   3.818
45920W        W18180  27.688  13.644   1.893
45921W        W18181   0.840  14.645   3.242
45922W        W18182   5.294   7.750   4.335
45923W        W18183  25.470   3.810   4.126
45924W        W18184  22.227  21.536   3.193
45925W        W18185  30.097  28.447  13.318
45926W        W18186  44.838   6.910  10.909
45927W        W18187  26.050   0.331  14.371
45928W        W18188   0.902  20.123   3.335
45929W        W18189   0.352  31.067  12.977
45930W        W18190  17.560  14.670  10.949
45931W        W18191  37.053   3.899  14.882
45932W        W18192   5.903  17.699  14.924
45933W        W18193  38.952   1.395   2.293
45934W        W18194  38.826  40.332   0.258
45935W        W18195   6.398  29.455   3.851
45936W        W18196  44.911  22.175  14.835
45937W        W18197  37.916  33.402   4.741
45938W        W18198   8.265  26.964   2.752
45939W        W18199   0.380  10.705   1.763
45940W        W18200  27.146  32.432   3.177
45941W        W18201  33.018  43.864   2.795
45942W        W18202  15.577  33.979   0.745
45943W        W18203  22.576  22.106  12.011
45944W        W18204  13.676  43.016   3.295
45945W        W18205   1.795  28.446   0.422
45946W        W18206  15.323  11.298   3.179
45947W        W18207   9.828  39.007  10.440
45948W        W18208  42.390   2.839   1.872
45949W        W18209  23.524  32.135   2.673
45950W        W18210  44.869  21.670  14.852
45951W        W18211  43.314  27.176   2.824
45952W        W18212  19.124  17.755  12.046
45953W        W18213   6.283   5.712   2.216
45954W        W18214  10.678  37.406   2.194
45955W        W18215   2.764  35.865  12.524
45956W        W18216  18.734  20.123  11.467
45957W        W18217  33.449  40.810   2.764
45958W        W18218   2.401  27.450  14.897
45959W        W18219   7.692  11.309  14.821
45960W        W18220   0.462  22.123  11.083
45961W        W18221  31.921  17.758  13.921
45962W        W18222  30.954  10.716   3.248
45963W        W18223  17.731   3.717  12.452
45964W        W18224  17.302  20.673   0.908
45965W        W18225  24.646  33.058   4.771
45966W        W18226  28.943  18.736  10.974
45967W        W18227  33.090   8.236  10.916
45968W        W18228  28.986  28.105   0.255
45969W        W18229   0.409  25.181  12.055
45970W        W18230  15.626  29.066  14.843
45971W        W18231  22.017  10.380   1.309
45972W        W18232  41.930  41.363  12.021
45973W        W18233  32.900  29.982  12.040
45974W        W18234  38.883  42.506   3.257
45975W        W18235  35.042  38.474  12.545
45976W        W18236  36.406  42.509  14.916
45977W        W18237   8.669   8.698  11.128
45978W        W18238  25.676  15.162   4.676
45979W        W18239  40.365  35.422   1.934
45980W        W18240  33.531  37.349  14.486
45981W        W18241  32.134  11.858  10.599
45982W        W18242  22.176  32.586   3.374
45983W        W18243  41.473  37.575   2.859
45984W        W18244  10.791   2.807   3.353
45985W        W18245   4.379  18.788   3.817
45986W        W18246  34.586   5.846   2.743
45987W        W18247   2.270  28.121  11.578
45988W        W18248  14.279   2.803   3.226
45989W        W18249   8.891  13.614  12.895
45990W        W18250  40.304  24.509   0.753
45991W        W18251   5.243  32.966  11.516
45992W        W18252  33.049   8.825   2.214
45993W        W18253   9.643  43.923  14.330
45994W        W18254  44.867  16.592  14.013
45995W        W18255  17.270  31.037  14.913
45996W        W18256  31.411  12.629   1.449
45997W        W18257  15.307  38.026   0.819
45998W        W18258  43.949  33.030   1.359
45999W        W18259  14.319  18.174  10.000
46000W        W18260   0.385  35.957  11.430
46001W        W18261   5.703  11.297  14.820
46002W        W18262  13.837   6.718  12.470
46003W        W18263  26.657  27.107  10.509
46004W        W18264  44.331  36.479   1.920
46005W        W18265  30.655  17.724   1.265
46006W        W18266  28.112  23.177  11.036
46007W        W18267  19.271  39.408   2.689
46008W        W18268   2.457  24.592   3.840
46009W        W18269  35.487  41.934  12.093
46010W        W18270  37.568   8.716  12.378
46011W        W18271   3.738   4.425   4.198
46012W        W18272  34.552  25.088   1.840
46013W        W18273  36.437  31.595  14.321
46014W        W18274   3.331  24.542  10.520
46015W        W18275  38.564  25.492  11.534
46016W        W18276  16.586  14.709  12.375
46017W        W18277  40.892  24.718   1.859
46018W        W18278  29.598   7.225  13.410
46019W        W18279  18.604  28.489   4.300
46020W        W18280   7.351  11.240  14.030
46021W        W18281  41.963  21.521  10.438
46022W        W18282  33.888  10.183  12.048
46023W        W18283   3.909  29.051  14.443
46024W        W18284   9.660   0.398  14.948
46025W        W18285  20.097  20.636   3.746
46026W        W18286   2.330  14.274  10.918
46027W        W18287  21.221   0.461  10.991
46028W        W18288  26.076  10.175   0.777
46029W        W18289  17.216  43.856   2.837
46030W        W18290   7.370   3.354   0.349
46031W        W18291   5.435  41.350  14.778
46032W        W18292  13.130  40.450   0.926
46033W        W18293  29.003  32.919  10.091
46034W        W18294  31.917  28.585   0.326
46035W        W18295  19.048   4.254   3.761
46036W        W18296  10.668   6.809   1.706
46037W        W18297  40.807  31.642  14.955
46038W        W18298   2.734   1.452  11.577
46039W        W18299   9.750  30.028  11.969
46040W        W18300  24.627  35.410  10.453
46041W        W18301  29.918  25.169   2.722
46042W        W18302  11.332  43.481   3.825
46043W        W18303  15.107   9.338   3.826
46044W        W18304  11.249  36.402  11.062
46045W        W18305  14.723  11.318   0.261
46046W        W18306  41.007  26.062   2.820
46047W        W18307  24.064  14.792  14.285
46048W        W18308  11.357  30.068  13.937
46049W        W18309   8.300  12.217   3.387
46050W        W18310  12.325   3.912  12.394
46051W        W18311   1.954   9.839   0.936
46052W        W18312  18.138   0.353  12.934
46053W        W18313  36.916  36.458   4.292
46054W        W18314   1.457  15.317  13.525
46055W        W18315  22.175  29.457   4.749
46056W        W18316  10.167  40.921  11.025
46057W        W18317  10.279  33.615  12.396
46058W        W18318   3.778   8.308  12.861
46059W        W18319  41.854  32.472   0.744
46060W        W18320  33.005  33.930   3.721
46061W        W18321   4.803   4.825  10.961
46062W        W18322   0.356  42.899   4.692
46063W        W18323  19.536  27.977  10.904
46064W        W18324  15.303  40.527  10.476
46065W        W18325  12.184   3.945  13.938
46066W        W18326   4.287  39.856  10.890
46067W        W18327  16.584  17.126  11.111
46068W        W18328  18.618  27.187   3.191
46069W        W18329  33.586  16.117  14.417
46070W        W18330  21.060  43.960  10.058
46071W        W18331  41.399  33.995  11.589
46072W        W18332  31.066   1.945  14.949
46073W        W18333  10.729  11.350  10.450
46074W        W18334  28.674  22.595   2.356
46075W        W18335  14.755  20.559   3.661
46076W        W18336  19.054  31.566   2.284
46077W        W18337  31.957  25.592  12.454
46078W        W18338  18.063  39.386   4.294
46079W        W18339  25.152  18.249   0.479
46080W        W18340  15.201  35.987  13.939
46081W        W18341  18.094  12.334  10.585
46082W        W18342  20.587  17.741  14.302
46083W        W18343  31.972   7.899  12.865
46084W        W18344  44.780  26.959  12.071
46085W        W18345  39.457   5.752  10.427
46086W        W18346  17.196  25.669  11.047
46087W        W18347  31.436  14.193   3.190
46088W        W18348   3.890  24.154  14.370
46089W        W18349   4.386  18.153   0.411
46090W        W18350  42.436  19.679   4.209
46091W        W18351   5.285   7.350  12.487
46092W        W18352   7.910  21.573   4.796
46093W        W18353  43.849  17.222   1.762
46094W        W18354  37.434  24.019   2.824
46095W        W18355  35.566   8.801   2.419
46096W        W18356   6.288  44.002  13.345
46097W        W18357  38.444   9.167   4.678
46098W        W18358  12.135  16.219   1.866
46099W        W18359  44.819  43.375   4.700
46100W        W18360  15.778  31.151   3.842
46101W        W18361  13.830   6.310  11.431
46102W        W18362   1.481  44.435   3.821
46103W        W18363  24.217  26.953  10.621
46104W        W18364  40.809   5.767   1.313
46105W        W18365  34.886  23.533   3.804
46106W        W18366  42.400  43.439  12.347
46107W        W18367  43.783  39.922  14.328
46108W        W18368   4.753  43.942  12.393
46109W        W18369   7.250  23.184   0.876
46110W        W18370   2.806  19.682   1.318
46111W        W18371  14.173  20.527  13.521
46112W        W18372  28.019  18.686   3.304
46113W        W18373   1.764   5.320   2.786
46114W        W18374   8.666  44.278   3.292
46115W        W18375  23.011  13.788  13.061
46116W        W18376  20.258  28.027   4.189
46117W        W18377   7.703   9.286  14.975
46118W        W18378  33.430  29.523   0.763
46119W        W18379  38.449  22.226   4.313
46120W        W18380  29.601  42.025  11.064
46121W        W18381  32.115  28.032   5.115
46122W        W18382  30.968  31.092   5.664
46123W        W18383   9.805  36.931  11.515
46124W        W18384   6.325   9.217   0.812
46125W        W18385  32.610   7.359  14.027
46126W        W18386  36.008  23.989   2.817
46127W        W18387  43.020  34.879   4.163
46128W        W18388  13.601   2.794  13.503
46129W        W18389  26.648  19.749  13.005
46130W        W18390  22.667  33.427   2.385
46131W        W18391  10.711  13.260   0.368
46132W        W18392   5.931   4.767   0.339
46133W        W18393  19.088  11.190   4.285
46134W        W18394   1.369  41.930   3.187
46135W        W18395  15.705  11.672   4.794
46136W        W18396   7.231  37.497   0.786
46137W        W18397  26.037  28.115   0.352
46138W        W18398  21.255  39.320  10.630
46139W        W18399  28.004   9.672   0.912
46140W        W18400  30.051  40.497   3.792
46141W        W18401   3.768  20.135   3.654
46142W        W18402  43.467  44.385   0.320
46143W        W18403   7.329  17.092  12.067
46144W        W18404  43.446  30.599  14.312
46145W        W18405   7.261   0.400   4.653
46146W        W18406  37.054  34.947   1.818
46147W        W18407   4.397  13.113  10.441
46148W        W18408  40.513   2.799  13.366
46149W        W18409  42.916  22.584  13.809
46150W        W18410  43.797  30.539   0.259
46151W        W18411  40.479  24.216  12.400
46152W        W18412  25.149  36.989  10.514
46153W        W18413   0.438  15.772   4.214
46154W        W18414  44.829  13.230   3.850
46155W        W18415  36.878  22.746  10.961
46156W        W18416   4.795  31.900  11.978
46157W        W18417  28.986   7.827  10.984
46158W        W18418  14.273  22.102   1.259
46159W        W18419  14.298  16.108  13.938
46160W        W18420  38.012  27.008   3.277
46161W        W18421  38.432  28.466   3.675
46162W        W18422  14.797  13.688  14.312
46163W        W18423  28.139  34.875   0.759
46164W        W18424   8.684  27.593  12.844
46165W        W18425  23.504  17.243  12.939
46166W        W18426   0.952  43.916  11.389
46167W        W18427  36.869  19.255  11.110
46168W        W18428  15.638  28.032   2.365
46169W        W18429  10.847  24.994   2.263
46170W        W18430  15.768  44.875   0.384
46171W        W18431   7.186  28.450  12.368
46172W        W18432   0.338  32.534  10.552
46173W        W18433  23.201   8.683  14.862
46174W        W18434   0.924  24.721   3.665
46175W        W18435  27.544   3.839  13.328
46176W        W18436  20.177   5.864   3.644
46177W        W18437  16.808  21.212  12.543
46178W        W18438  41.998  18.085   2.783
46179W        W18439  42.488  25.977   0.777
46180W        W18440  32.436  21.263  12.405
46181W        W18441  36.947  14.320   4.720
46182W        W18442  26.962  34.495  10.499
46183W        W18443  41.399  18.775  12.401
46184W        W18444   6.190   7.875   4.792
46185W        W18445  43.831  21.656   4.248
46186W        W18446  25.511   7.286  14.458
46187W        W18447  20.603  14.144  13.922
46188W        W18448   5.350  16.307   0.939
46189W        W18449  21.707  36.004   0.247
46190W        W18450  39.398   3.405  10.483
46191W        W18451  20.572  17.222   4.760
46192W        W18452  37.011  19.655   1.884
46193W        W18453  21.075  42.338  11.990
46194W        W18454  10.350  31.987   2.760
46195W        W18455  35.005   9.841   3.257
46196W        W18456  23.582  18.705  13.826
46197W        W18457  18.755  12.218  14.338
46198W        W18458  14.148  19.674  14.418
46199W        W18459  37.555  40.542   3.765
46200W        W18460  41.447   9.755   2.310
46201W        W18461   3.400  21.717  11.562
46202W        W18462  22.202  15.620   0.960
46203W        W18463  12.340  14.294  10.950
46204W        W18464   5.794  33.952   3.692
46205W        W18465   7.220   4.293  12.432
46206W        W18466  17.631   5.765  10.478
46207W        W18467  41.018  21.694   2.883
46208W        W18468  13.620   1.462  14.510
46209W        W18469  12.833  42.441   4.660
46210W        W18470   0.301   8.264  12.022
46211W        W18471  30.972  34.417   0.272
46212W        W18472  12.671  29.972   0.409
46213W        W18473  19.281   1.793  13.996
46214W        W18474  32.036  32.410   4.117
46215W        W18475  41.824   9.178   2.184
46216W        W18476  37.056  22.025  12.861
46217W        W18477  44.995  32.587   4.201
46218W        W18478   5.688   2.961   3.186
46219W        W18479  40.399  15.114  10.489
46220W        W18480  21.520   6.763   4.724
46221W        W18481  13.840  40.823  11.892
46222W        W18482  38.026  31.110   3.744
46223W        W18483  31.042  44.292   3.668
46224W        W18484  14.651   8.326  11.956
46225W        W18485  27.489  28.677   4.197
46226W        W18486  38.331  20.708   4.652
46227W        W18487  27.049  24.135  11.997
46228W        W18488  15.255  17.739  10.506
46229W        W18489  27.953  36.567   0.754
46230W        W18490   8.383   0.907   2.299
46231W        W18491   1.819  33.890   4.145
46232W        W18492   6.922  32.094   2.276
46233W        W18493   6.405  10.756   2.814
46234W        W18494  42.783   4.723   4.730
46235W        W18495   3.848  26.652   1.384
46236W        W18496   1.293   1.942   3.868
46237W        W18497  15.248  32.922   2.343
46238W        W18498  40.461  31.432   1.356
46239W        W18499  16.098   9.862  11.558
46240W        W18500  34.035   6.883   0.250
46241W        W18501  14.717  38.545   4.294
46242W        W18502  31.423  33.072   4.333
46243W        W18503   6.812  39.387  14.887
46244W        W18504   2.811  30.431   1.775
46245W        W18505  22.511  36.533   0.834
46246W        W18506  20.035  34.407   3.831
46247W        W18507  32.122  28.992   4.259
46248W        W18508   5.420  42.816  12.867
46249W        W18509  34.017  44.852   1.449
46250W        W18510   3.948  10.329   1.694
46251W        W18511  27.983  30.949   2.257
46252W        W18512  19.200  10.704  13.487
46253W        W18513  39.427  40.808  13.893
46254W        W18514  35.981   4.245   4.598
46255W        W18515  33.924   1.244  14.936
46256W        W18516  27.048  30.023   1.245
46257W        W18517  21.045  26.076  10.942
46258W        W18518   5.852  11.241  11.535
46259W        W18519  19.105  12.214   0.802
46260W        W18520  31.087  14.283   3.801
46261W        W18521  22.560  17.294  12.562
46262W        W18522  10.251  27.005   3.185
46263W        W18523  14.674   1.961   2.767
46264W        W18524  10.317  39.007   0.795
46265W        W18525  35.571  25.985  11.027
46266W        W18526  11.790  28.533   0.369
46267W        W18527  39.896  22.633   4.166
46268W        W18528  42.364  32.596   1.302
46269W        W18529  24.643  10.831   3.387
46270W        W18530  15.581  38.428   1.856
46271W        W18531  31.526  19.550   3.195
46272W        W18532  32.417   6.916   3.317
46273W        W18533  29.142  22.025  12.550
46274W        W18534  28.501   6.835  14.908
46275W        W18535  35.020  32.496  13.970
46276W        W18536  38.974  26.534  12.874
46277W        W18537  30.080  15.713   2.746
46278W        W18538   5.706  27.124  12.449
46279W        W18539  21.023  37.912   4.770
46280W        W18540  23.522  28.465   5.129
46281W        W18541   6.867  27.009   2.418
46282W        W18542  36.502  21.602  13.959
46283W        W18543   2.850  35.921   1.253
46284W        W18544  36.852   6.291  12.350
46285W        W18545   7.389  37.007  12.386
46286W        W18546   4.761  16.149   2.687
46287W        W18547  39.832   4.776   3.710
46288W        W18548  42.942  29.034   3.653
46289W        W18549   0.834  28.640  14.877
46290W        W18550  43.781  27.656   2.376
46291W        W18551  11.185  15.270  14.515
46292W        W18552  10.369  32.102  10.022
46293W        W18553  37.951  40.031   4.295
46294W        W18554   0.426   5.271  12.354
46295W        W18555  33.453  15.219  10.983
46296W        W18556   7.829  16.595   3.189
46297W        W18557  38.879  28.931   1.912
46298W        W18558  31.533   7.393  14.896
46299W        W18559  23.055  21.137  14.334
46300W        W18560  18.546   1.315  10.499
46301W        W18561  31.454  16.794  10.963
46302W        W18562  38.017  24.109   4.823
46303W        W18563  20.528  35.535  10.973
46304W        W18564  42.018  25.486   0.262
46305W        W18565  13.693  36.016  10.626
46306W        W18566  41.835  21.667   4.156
46307W        W18567   1.239   9.644   3.291
46308W        W18568  25.533  39.551   2.862
46309W        W18569   8.775  11.294   3.805
46310W        W18570  42.449  20.184  10.466
46311W        W18571  38.904  12.248   2.699
46312W        W18572  21.710  12.117  13.479
46313W        W18573  39.005   3.800  10.951
46314W        W18574   9.859  21.035   0.927
46315W        W18575  35.973  11.777  12.938
46316W        W18576  42.977  40.488   2.383
46317W        W18577  39.051  30.961  14.456
46318W        W18578  23.528  13.125   4.631
46319W        W18579  36.007  44.926  13.533
46320W        W18580   5.318  21.111  13.921
46321W        W18581  18.711   2.883  11.019
46322W        W18582  21.202   5.364  13.317
46323W        W18583  10.842  28.154   1.232
46324W        W18584  42.518  24.143   2.235
46325W        W18585   0.915  23.588  12.486
46326W        W18586  24.117   5.352   1.852
46327W        W18587  24.071  22.241   1.320
46328W        W18588  32.987  39.436  13.377
46329W        W18589  24.491   5.202  11.977
46330W        W18590  11.258  15.260  12.402
46331W        W18591  18.098  28.502  14.280
46332W        W18592  29.495  33.595   0.916
46333W        W18593  28.498   9.376   4.739
46334W        W18594   9.260  14.625  12.387
46335W        W18595  11.716  26.531   3.783
46336W        W18596  12.297  28.498   2.379
46337W        W18597  32.946  20.725  12.395
46338W        W18598  31.623  35.398   3.789
46339W        W18599  26.201   7.692   4.630
46340W        W18600  16.582  35.448  12.409
46341W        W18601   5.796  34.527   2.357
46342W        W18602   8.758  41.501  13.006
46343W        W18603  34.614   9.380  14.477
46344W        W18604   0.789  32.528   4.724
46345W        W18605  14.649  30.445   5.694
46346W        W18606  11.817  15.609   4.791
46347W        W18607   4.448  15.277   2.214
46348W        W18608  10.664   9.311   2.194
46349W        W18609  26.167   6.756   2.401
46350W        W18610  41.879  34.997  12.523
46351W        W18611  30.046  40.833  13.980
46352W        W18612  27.077  12.142  12.844
46353W        W18613   9.260  40.362   1.844
46354W        W18614  42.013   0.935  14.014
46355W        W18615  17.795  44.307  13.022
46356W        W18616  16.610  42.352  10.435
46357W        W18617   0.443   1.830   2.226
46358W        W18618  17.694  32.527  13.391
46359W        W18619  10.279   0.407   9.968
46360W        W18620  38.349  30.940   0.456
46361W        W18621  32.607   8.780   3.269
46362W        W18622  36.416  33.406   3.262
46363W        W18623  28.591  19.730   4.332
46364W        W18624  30.065  23.647  14.825
46365W        W18625  22.663  22.176   4.200
46366W        W18626  38.864  14.155   1.763
46367W        W18627  41.305  40.308  11.602
46368W        W18628  13.286   8.677  13.497
46369W        W18629  11.334  18.783  13.903
46370W        W18630   0.827  19.656   0.756
46371W        W18631   0.471   1.310   2.308
46372W        W18632   8.730  40.473  14.956
46373W        W18633  17.180   6.347  12.846
46374W        W18634   7.675  25.096   3.385
46375W        W18635  35.012  22.190  10.957
46376W        W18636   9.219   7.793   3.293
46377W        W18637   3.850  23.211   1.358
46378W        W18638  37.536  29.075  11.416
46379W        W18639  35.393  25.083  14.422
46380W        W18640  26.659  26.043  11.955
46381W        W18641  33.553  20.761   4.831
46382W        W18642   7.813  30.605  13.792
46383W        W18643  17.173  41.927   1.246
46384W        W18644   3.951   7.213   2.354
46385W        W18645  30.503  18.123   2.688
46386W        W18646  43.463  12.343  10.589
46387W        W18647  31.976  24.199   2.314
46388W        W18648  40.008  17.122   0.806
46389W        W18649  16.699  14.118   0.416
46390W        W18650   3.923  41.970  12.883
46391W        W18651  31.515  29.430  11.415
46392W        W18652   6.767  17.196   2.825
46393W        W18653  38.971  20.621  11.503
46394W        W18654  21.130  34.548   1.868
46395W        W18655  10.660   8.279   4.793
46396W        W18656  19.091  34.607  13.467
46397W        W18657  31.483  22.656  11.857
46398W        W18658  20.622  35.587  13.501
46399W        W18659   4.742  37.879   1.269
46400W        W18660   1.392  14.212  14.989
46401W        W18661  11.361  38.988  12.909
46402W        W18662   0.341  34.119  13.013
46403W        W18663  42.894  34.493  10.044
46404W        W18664  27.500  41.003   5.718
46405W        W18665   8.801   4.829  14.023
46406W        W18666   2.322  42.515   0.947
46407W        W18667   4.229  43.363  14.351
46408W        W18668  38.457  28.662   3.163
46409W        W18669  17.722  16.235   4.246
46410W        W18670  23.990  30.074  12.944
46411W        W18671  29.937  30.154  11.609
46412W        W18672  34.519  40.468  10.950
46413W        W18673   6.362  30.584  13.910
46414W        W18674  37.049  15.137   2.752
46415W        W18675  28.520  34.477   1.785
46416W        W18676  13.846  39.958  11.930
46417W        W18677  26.018   6.355  13.542
46418W        W18678   0.826  32.021   5.099
46419W        W18679  14.112  35.859   2.740
46420W        W18680  26.079  40.855  12.368
46421W        W18681  34.922  44.778   0.891
46422W        W18682  28.581  25.467   1.243
46423W        W18683  16.803  42.527   3.841
46424W        W18684   0.271  17.090  12.495
46425W        W18685   5.344  27.643  11.574
46426W        W18686  18.633  44.799  13.538
46427W        W18687  29.505  13.623  10.425
46428W        W18688  44.342  25.065   3.650
46429W        W18689  22.150   2.750   3.306
46430W        W18690   7.393  29.029  11.601
46431W        W18691  13.296   3.454  11.520
46432W        W18692  44.833  11.200  11.379
46433W        W18693   1.309  25.640   2.219
46434W        W18694  35.486  42.309   4.116
46435W        W18695  44.381   4.895  12.559
46436W        W18696  41.329  32.489  13.045
46437W        W18697  10.189  26.956  12.879
46438W        W18698  36.500   8.397   5.626
46439W        W18699  40.330  26.006   3.866
46440W        W18700  39.327  21.091  14.024
46441W        W18701  23.070  19.199   4.327
46442W        W18702  20.538   6.366   4.327
46443W        W18703   3.266  37.865   0.811
46444W        W18704   8.678  42.901  14.869
46445W        W18705  34.936  10.309   5.287
46446W        W18706  18.199  18.079  11.878
46447W        W18707  19.208   5.732  10.918
46448W        W18708  41.005  44.862   2.210
46449W        W18709  24.231   4.828   0.450
46450W        W18710  16.244  16.264   5.218
46451W        W18711  17.245  12.662   4.794
46452W        W18712   3.798  14.108   0.932
46453W        W18713  12.131  24.159   1.841
46454W        W18714   0.277  16.289  14.904
46455W        W18715   1.806   0.960  14.418
46456W        W18716  30.590   7.886  12.344
46457W        W18717  39.364  41.404  14.401
46458W        W18718  29.605  12.836   0.806
46459W        W18719  37.005  17.725  13.042
46460W        W18720  31.077  22.558   3.800
46461W        W18721   3.237  18.780  13.484
46462W        W18722  15.154  28.600   5.260
46463W        W18723  27.472  29.126   2.665
46464W        W18724   2.296  36.080   3.713
46465W        W18725  16.214  32.935  14.330
46466W        W18726  44.264   6.213  13.925
46467W        W18727   7.710  10.773  12.010
46468W        W18728  34.014   6.362   4.771
46469W        W18729  22.547   9.165   1.308
46470W        W18730   0.760  38.973  10.541
46471W        W18731  15.787   5.766  12.076
46472W        W18732  23.091  35.075   1.921
46473W        W18733  40.857  31.493  13.988
46474W        W18734  12.337  21.730   1.733
46475W        W18735   4.424  12.205   1.721
46476W        W18736  11.162  42.461   2.712
46477W        W18737   1.895  28.070   4.706
46478W        W18738  16.585   9.889  11.551
46479W        W18739  12.760  30.126   1.349
46480W        W18740  18.077   9.817  12.967
46481W        W18741  39.970  23.017  12.939
46482W        W18742  37.078  15.714  14.466
46483W        W18743   4.341   5.740  13.798
46484W        W18744   5.727  32.039  12.946
46485W        W18745  21.675  15.741  11.890
46486W        W18746   9.799  27.979  14.828
46487W        W18747  24.492   5.276   0.420
46488W        W18748  17.259  34.580   4.185
46489W        W18749   4.794   8.397   1.860
46490W        W18750  26.109   3.264  10.503
46491W        W18751   9.870  36.889   1.909
46492W        W18752   8.399  22.091   3.632
46493W        W18753  18.118   6.268   3.637
46494W        W18754  23.109  15.765  13.477
46495W        W18755  24.577  21.726  14.011
46496W        W18756  21.631  27.052   3.848
46497W        W18757   6.719  14.096   2.419
46498W        W18758  28.556   2.267  13.411
46499W        W18759   9.707   1.304   1.439
46500W        W18760  37.833  32.022  14.488
46501W        W18761   5.419  24.572  13.540
46502W        W18762  41.535   8.374  14.948
46503W        W18763  33.385  13.184   3.722
46504W        W18764  38.389  37.913   2.713
46505W        W18765   0.814  25.056  13.926
46506W        W18766  36.845  24.712   3.720
46507W        W18767  20.121  31.923   1.847
46508W        W18768   3.717  18.545   0.754
46509W        W18769  36.892  13.265   0.458
46510W        W18770   7.898  40.531  12.450
46511W        W18771  42.972  21.100   0.440
46512W        W18772   5.848  30.091   4.808
46513W        W18773  36.002   7.865  10.490
46514W        W18774  11.866  28.491  13.381
46515W        W18775  24.655  26.154   2.808
46516W        W18776  38.364  27.129   1.923
46517W        W18777   6.248   1.790   4.756
46518W        W18778   2.404  25.084  14.965
46519W        W18779  18.211  18.776   0.729
46520W        W18780  31.567  24.694  11.416
46521W        W18781  42.514  19.645   3.372
46522W        W18782  35.401  13.791  11.409
46523W        W18783   6.334   7.701  11.568
46524W        W18784  19.543   0.351   4.832
46525W        W18785  43.436  12.726   2.702
46526W        W18786  44.853  29.539  10.086
46527W        W18787  29.017  12.150   4.341
46528W        W18788  33.013  36.857  12.021
46529W        W18789  37.354  39.859   3.799
46530W        W18790  39.964   5.237  11.122
46531W        W18791  15.683   7.226  12.993
46532W        W18792   0.312   6.225   2.409
46533W        W18793  43.345  19.281   3.225
46534W        W18794  44.756   5.703  11.120
46535W        W18795  35.387  23.731  14.860
46536W        W18796  31.455   2.435  10.892
46537W        W18797  28.445  30.145   4.642
46538W        W18798  15.284  32.012  13.930
46539W        W18799  22.155   7.368   1.275
46540W        W18800  39.034  16.264  14.962
46541W        W18801  36.007   4.720  11.059
46542W        W18802  28.572  31.915   4.673
46543W        W18803  40.335  17.627   3.793
46544W        W18804   4.883  30.076  14.440
46545W        W18805  20.714  40.835   1.924
46546W        W18806  35.526   8.295  12.846
46547W        W18807  41.510  14.245  14.912
46548W        W18808  23.719  25.599  14.993
46549W        W18809  34.371  42.787   2.341
46550W        W18810  16.783  33.898  13.907
46551W        W18811  26.105   2.740   2.262
46552W        W18812  19.075  30.058  10.629
46553W        W18813   0.762  33.952   0.860
46554W        W18814   2.445  38.488   3.724
46555W        W18815  44.868  42.806  13.044
46556W        W18816  34.500  12.715  11.873
46557W        W18817  23.028  20.082  12.866
46558W        W18818  30.014   7.292   2.344
46559W        W18819  37.374  17.269  13.890
46560W        W18820  27.473   3.944   1.334
46561W        W18821  37.564  36.018  11.443
46562W        W18822  25.124  34.033   0.357
46563W        W18823  16.681  20.552  11.071
46564W        W18824  13.115   5.392   4.706
46565W        W18825   1.403  32.023   2.839
46566W        W18826  34.477  31.601   0.343
46567W        W18827  23.168   8.824   2.881
46568W        W18828  11.276  20.181  13.010
46569W        W18829   6.217  12.141   1.360
46570W        W18830   3.238  20.609  10.404
46571W        W18831  44.501  41.844  13.885
46572W        W18832  20.738  37.551   1.889
46573W        W18833  15.816  44.414   4.692
46574W        W18834  40.494   2.431  12.471
46575W        W18835  18.274  12.299   3.707
46576W        W18836  18.119  37.904  10.458
46577W        W18837  15.289  31.069  13.928
46578W        W18838   1.405  40.451   2.814
46579W        W18839  43.361  44.879  11.465
46580W        W18840  35.055  26.973   2.376
46581W        W18841   5.929  17.709   0.835
46582W        W18842  23.009   9.722  11.950
46583W        W18843  40.016  12.183  12.408
46584W        W18844   3.458  11.666   2.238
46585W        W18845  15.623   9.267  14.775
46586W        W18846  44.386  40.959  12.528
46587W        W18847  23.132  31.503   3.289
46588W        W18848  37.953  25.669  12.027
46589W        W18849  10.639  17.621  14.758
46590W        W18850  35.589   5.761  10.910
46591W        W18851  39.830   7.274  13.872
46592W        W18852  22.722  13.237   3.666
46593W        W18853  15.742  30.031   0.347
46594W        W18854  22.624  41.885  13.998
46595W        W18855  15.598  43.987   3.356
46596W        W18856   9.845  40.956   1.764
46597W        W18857   9.819  35.484   3.209
46598W        W18858   0.836  38.909  10.934
46599W        W18859   5.234  27.549  10.077
46600W        W18860  11.783  36.401   0.405
46601W        W18861  19.775   7.318   9.988
46602W        W18862  42.311  12.347  14.413
46603W        W18863  15.580  19.145   4.226
46604W        W18864  25.524  35.420   0.276
46605W        W18865  36.909  35.452   1.845
46606W        W18866  10.662   0.821  14.514
46607W        W18867  29.073   3.289  13.494
46608W        W18868  34.552  33.530  14.501
46609W        W18869  39.501  32.923  13.910
46610W        W18870  14.823  17.263  13.914
46611W        W18871  11.160  22.571  14.873
46612W        W18872  35.044  13.604  12.342
46613W        W18873  35.075  30.921   0.434
46614W        W18874   3.845  35.941  11.427
46615W        W18875  12.709  24.661   0.449
46616W        W18876  28.438  16.576   3.858
46617W        W18877  13.605   9.719  14.989
46618W        W18878   3.833  30.432   3.289
46619W        W18879  31.497   2.315   2.693
46620W        W18880   9.308  43.334   1.341
46621W        W18881   0.451  30.614   1.415
46622W        W18882  21.257   7.234   0.408
46623W        W18883   2.941  36.567   1.397
46624W        W18884  11.643  38.841   1.788
46625W        W18885  23.507  41.991   1.727
46626W        W18886  12.794  28.478  14.976
46627W        W18887  20.570  36.890   0.781
46628W        W18888  29.495  19.764  12.343
46629W        W18889  34.607  28.052   4.353
46630W        W18890  43.288  20.626  11.052
46631W        W18891  12.204  36.086   1.230
46632W        W18892  14.279   7.326   0.907
46633W        W18893   5.371   6.865  10.487
46634W        W18894  13.143  37.508   0.778
46635W        W18895  15.745  10.155   3.708
46636W        W18896  29.590  29.077  14.940
46637W        W18897  11.141   6.765   4.693
46638W        W18898  31.038  20.714  14.337
46639W        W18899  10.226  23.064   1.754
46640W        W18900  21.563  34.932   0.899
46641W        W18901   2.878  26.087   4.252
46642W        W18902  40.427  44.456  11.440
46643W        W18903  42.425   6.913  13.974
46644W        W18904  42.882  42.786   3.834
46645W        W18905   6.260   7.809   1.407
46646W        W18906  14.754  11.810   2.849
46647W        W18907  23.570  20.607  14.333
46648W        W18908   3.389  30.146  12.501
46649W        W18909  18.571  14.226   3.355
46650W        W18910  33.583  31.627   0.253
46651W        W18911  33.517  35.015  11.008
46652W        W18912  21.695  42.029   0.284
46653W        W18913  39.556  42.858  10.570
46654W        W18914  27.009  27.996   2.701
46655W        W18915   3.225  12.354   0.957
46656W        W18916  23.648   8.699  14.960
46657W        W18917  36.842  35.867  11.008
46658W        W18918  37.027  12.151  13.993
46659W        W18919  12.214  34.111  12.377
46660W        W18920  14.659  41.849  14.311
46661W        W18921  27.683  39.404  11.556
46662W        W18922  36.421  26.635   0.275
46663W        W18923  24.699   6.746   4.159
46664W        W18924  40.490  24.543  12.459
46665W        W18925  27.494  13.134   0.341
46666W        W18926   3.378  37.015   1.718
46667W        W18927  33.522  30.463   4.641
46668W        W18928  17.646  41.477  10.435
46669W        W18929  35.381  11.686  13.363
46670W        W18930  36.518  38.388   3.223
46671W        W18931   2.311   9.759  10.558
46672W        W18932  25.643  12.627  14.812
46673W        W18933  44.777  34.553   0.797
46674W        W18934  14.684   0.346   4.814
46675W        W18935  22.071  18.786  10.129
46676W        W18936   1.246  32.008   1.399
46677W        W18937  43.338  37.564   2.838
46678W        W18938  15.616  33.991   4.710
46679W        W18939  30.565  11.655   2.724
46680W        W18940  14.747  31.968  14.362
46681W        W18941  34.600  17.626   4.809
46682W        W18942  20.559  22.548  13.475
46683W        W18943   9.670   8.835  11.986
46684W        W18944   1.826   1.734   0.767
46685W        W18945  16.306  25.696  11.928
46686W        W18946  14.256   2.464   4.693
46687W        W18947  24.509   3.720  10.539
46688W        W18948  31.966  12.358  13.521
46689W        W18949  36.871  39.900   4.751
46690W        W18950  24.599   5.884  11.924
46691W        W18951  43.924  11.750   0.775
46692W        W18952  38.475  23.722   4.176
46693W        W18953  15.667  28.014  12.032
46694W        W18954  38.513  24.594  11.565
46695W        W18955  30.653  35.908   2.725
46696W        W18956  23.658   2.246  11.992
46697W        W18957  21.045  37.553   3.822
46698W        W18958  38.930   2.922   0.824
46699W        W18959  33.975  20.256  10.969
46700W        W18960  33.547  26.026  13.342
46701W        W18961  25.703  22.106   4.789
46702W        W18962   3.862  32.590  13.514
46703W        W18963  26.186  10.205   4.810
46704W        W18964  38.852  37.029  11.504
46705W        W18965   8.707  13.123   3.277
46706W        W18966  44.293  38.431  12.827
46707W        W18967  28.481  18.286  11.082
46708W        W18968  32.481  17.254  13.470
46709W        W18969  14.151  15.137   1.405
46710W        W18970  29.002  41.409  14.340
46711W        W18971  24.199  38.934  12.954
46712W        W18972  13.278  29.021  10.052
46713W        W18973  23.491  34.100  11.872
46714W        W18974  11.812  39.516   1.907
46715W        W18975   0.484  32.066   3.308
46716W        W18976   2.894  34.004   0.289
46717W        W18977  38.980  44.481   1.215
46718W        W18978  28.155  11.736  12.937
46719W        W18979  21.238  12.153  12.910
46720W        W18980  22.523   0.491   0.247
46721W        W18981   5.708  27.549   2.765
46722W        W18982  19.594  35.465  12.079
46723W        W18983   6.687   6.361   1.733
46724W        W18984  17.572   5.836   3.800
46725W        W18985   6.720  38.931   1.404
46726W        W18986  29.032  21.243  13.485
46727W        W18987   6.702  37.519  11.967
46728W        W18988  16.687  20.198  14.878
46729W        W18989  28.163   4.851   3.270
46730W        W18990  39.955  39.916  14.992
46731W        W18991   6.241  28.179   0.464
46732W        W18992  23.525  22.174   0.269
46733W        W18993   7.727  32.089  14.284
46734W        W18994  10.198  42.782   1.447
46735W        W18995   5.279  23.159   1.767
46736W        W18996  34.563  15.592   0.449
46737W        W18997  26.162  32.910  10.604
46738W        W18998  35.079  28.120   1.835
46739W        W18999  13.222  37.879  12.491
46740W        W19000  14.772  11.625  12.065
46741W        W19001  31.925  23.102   1.412
46742W        W19002  36.570  25.179  11.062
46743W        W19003   8.353  40.979  14.406
46744W        W19004   0.458  14.337  14.787
46745W        W19005   5.386  34.066   0.843
46746W        W19006  15.629  41.335   3.645
46747W        W19007  29.531  31.098   4.338
46748W        W19008  25.131   4.852   0.259
46749W        W19009  21.226  42.872  14.013
46750W        W19010   6.338   8.381   1.935
46751W        W19011  25.021   9.762   3.156
46752W        W19012  20.221  39.953  13.351
46753W        W19013  16.603  35.938  10.954
46754W        W19014  30.545  18.700  11.867
46755W        W19015  21.149   9.668  12.377
46756W        W19016  39.959  40.387  11.015
46757W        W19017  32.403  31.998   1.747
46758W        W19018  34.007  16.080  10.622
46759W        W19019  29.652  39.037   5.260
46760W        W19020  32.434  18.672  12.943
46761W        W19021   2.365   8.328  10.983
46762W        W19022   5.296  14.809   0.836
46763W        W19023  42.349  30.453   2.763
46764W        W19024  23.019   1.784  12.393
46765W        W19025  34.603  28.514  13.372
46766W        W19026  41.508  21.704  14.996
46767W        W19027  14.247  34.956   0.307
46768W        W19028   6.264  16.306   0.821
46769W        W19029  29.451  30.475   1.927
46770W        W19030  32.121  33.077  14.360
46771W        W19031  38.522  36.890   1.371
46772W        W19032  12.345  38.910   0.473
46773W        W19033   1.417  40.404  13.365
46774W        W19034  26.597  30.020  12.914
46775W        W19035   3.822  32.459  13.906
46776W        W19036   7.412  30.556   2.672
46777W        W19037  41.329   2.942   2.831
46778W        W19038   1.976  32.126   0.735
46779W        W19039  34.061   4.823   0.440
46780W        W19040  39.353  15.753   1.422
46781W        W19041  21.662  19.537  12.077
46782W        W19042  23.708  21.037  14.296
46783W        W19043   1.756  27.664  14.358
46784W        W19044   5.920  12.794   4.754
46785W        W19045  32.523  13.115   3.702
46786W        W19046  36.891  12.707  11.595
46787W        W19047   5.876  19.164  14.852
46788W        W19048  22.063   6.332  10.569
46789W        W19049  24.632  12.234   1.801
46790W        W19050  11.713   7.187   0.941
46791W        W19051  38.386  10.756   0.253
46792W        W19052  30.074  25.531   1.806
46793W        W19053  25.990  22.183   0.280
46794W        W19054  13.741  23.181  12.339
46795W        W19055  38.838   1.962  12.509
46796W        W19056  43.488  27.462  12.548
46797W        W19057   1.863  38.883  12.037
46798W        W19058  41.035  35.403   3.737
46799W        W19059  12.830  35.482  13.329
46800W        W19060   1.972   1.803  14.447
46801W        W19061  39.490  16.122  12.085
46802W        W19062  32.602  28.556  14.477
46803W        W19063   6.854  44.342  13.433
46804W        W19064  17.204  21.211  14.885
46805W        W19065   3.453  13.730   3.777
46806W        W19066  38.567  25.638  10.949
46807W        W19067  27.528  13.134  10.429
46808W        W19068  36.543  22.115   4.345
46809W        W19069  33.936  35.062   4.339
46810W        W19070  16.616  27.630   1.396
46811W        W19071  18.554  21.093  11.374
46812W        W19072   6.846   9.652  13.455
46813W        W19073   4.416   0.276  14.808
46814W        W19074   0.412  23.578  10.467
46815W        W19075  38.348  26.206   0.948
46816W        W19076  40.042  19.277   1.698
46817W        W19077  22.642  35.544   2.316
46818W        W19078  29.584  39.431  14.873
46819W        W19079  23.675  33.056  13.055
46820W        W19080   3.868  29.568  13.900
46821W        W19081   7.195  18.166  14.847
46822W        W19082   5.698  41.429   1.427
46823W        W19083  37.892  19.256  12.997
46824W        W19084  41.868  10.675  13.497
46825W        W19085   0.313   0.980  13.033
46826W        W19086  36.954   3.832   2.252
46827W        W19087  14.807  27.142  10.904
46828W        W19088  36.499  14.640   4.627
46829W        W19089   1.379  12.844  12.512
46830W        W19090  15.631  15.767  10.977
46831W        W19091  38.481  38.379   4.799
46832W        W19092  36.457   4.770  11.916
46833W        W19093  26.536  13.166   3.752
46834W        W19094  12.829   8.681  13.482
46835W        W19095  31.512   3.919  13.064
46836W        W19096  13.269  28.120   1.258
46837W        W19097   6.856   1.770  14.859
46838W        W19098   8.802  39.533  10.447
46839W        W19099  25.577   6.256  13.850
46840W        W19100  38.974   1.818   0.766
46841W        W19101  36.415  24.612   1.777
46842W        W19102   3.805  41.984  11.608
46843W        W19103  36.890   6.406  11.943
46844W        W19104  23.625   2.363  12.879
46845W        W19105  12.323  15.676   4.795
46846W        W19106  19.724  37.856   4.301
46847W        W19107  35.407  35.036   1.383
46848W        W19108  35.511   4.287   4.634
46849W        W19109  41.345   1.899   1.872
46850W        W19110  22.677  28.631   9.479
46851W        W19111  13.769  18.129   4.614
46852W        W19112   3.232  44.383   5.132
46853W        W19113  25.557  24.000  14.771
46854W        W19114   8.744  15.243   4.219
46855W        W19115  10.148  35.862   0.475
46856W        W19116  20.665  11.803   2.733
46857W        W19117  44.776  13.661  14.506
46858W        W19118  28.026  10.201  12.420
46859W        W19119  30.930  22.746  14.849
46860W        W19120  41.812  22.569   3.730
46861W        W19121  41.823  35.580   3.800
46862W        W19122  32.141  32.110   3.261
46863W        W19123  25.121   9.716  12.506
46864W        W19124   1.950  17.086  11.859
46865W        W19125   4.709  14.112  13.519
46866W        W19126  40.837  11.193  11.121
46867W        W19127  36.989  34.411  10.544
46868W        W19128  22.655  14.792  11.961
46869W        W19129  41.983  22.616   0.278
46870W        W19130  15.709  30.079  12.865
46871W        W19131   7.313  38.451   2.766
46872W        W19132  30.017  26.113   0.736
46873W        W19133  24.618  13.141  13.999
46874W        W19134  27.174  37.374  13.421
46875W        W19135   0.936  29.996  14.457
46876W        W19136  44.991  30.088   1.317
46877W        W19137   3.870   2.330  11.010
46878W        W19138  38.878   4.836   1.323
46879W        W19139  14.591  23.535   2.330
46880W        W19140  31.980   9.835   1.784
46881W        W19141  35.526  24.222  12.009
46882W        W19142  36.905  19.736  13.374
46883W        W19143   0.763  42.428   4.338
46884W        W19144  22.248  11.262  13.537
46885W        W19145  27.089   4.891   2.194
46886W        W19146   7.358   2.840  14.797
46887W        W19147  10.160  42.916   2.316
46888W        W19148  10.235  28.953   2.218
46889W        W19149  24.089  39.995   2.751
46890W        W19150  24.500  18.063  14.362
46891W        W19151   3.783  37.487   2.849
46892W        W19152  11.721  28.646  11.931
46893W        W19153   7.406   6.729   2.186
46894W        W19154  15.628   2.770   3.738
46895W        W19155  18.222  12.779  14.476
46896W        W19156   3.249  33.475   0.869
46897W        W19157  35.419  23.614  12.900
46898W        W19158  39.427   5.411  13.056
46899W        W19159  13.631  30.139  11.511
46900W        W19160  18.248  27.110   1.371
46901W        W19161  42.404  16.680   3.156
46902W        W19162  17.618   4.806  13.806
46903W        W19163  33.058  14.727   1.304
46904W        W19164  22.100  42.840   4.253
46905W        W19165  16.738  28.679   4.686
46906W        W19166  40.459  40.515  12.078
46907W        W19167   5.317  44.987   2.306
46908W        W19168  27.014  29.948   0.294
46909W        W19169   8.200  24.182  12.990
46910W        W19170  23.509  18.613  14.339
46911W        W19171  21.750  33.576   4.743
46912W        W19172  28.111  17.113  13.383
46913W        W19173   5.194   8.263  13.449
46914W        W19174  33.523   4.835  11.444
46915W        W19175  29.097   9.284   1.367
46916W        W19176  23.136  32.401   1.862
46917W        W19177  22.576  24.150  11.428
46918W        W19178   2.775  16.803   4.603
46919W        W19179   1.314  24.165  11.531
46920W        W19180  17.752  18.231   2.747
46921W        W19181  31.490   3.450  10.483
46922W        W19182  26.467  32.084  12.968
46923W        W19183  24.665  40.368  10.509
46924W        W19184  20.162   1.473   2.770
46925W        W19185  31.082   2.749  11.074
46926W        W19186  13.755  44.802   2.785
46927W        W19187  17.655  23.011   1.257
46928W        W19188  24.113  40.906  14.452
46929W        W19189  42.824  38.516  13.957
46930W        W19190   0.948  19.690   2.358
46931W        W19191   1.327  19.240  14.408
46932W        W19192  33.065  29.476   0.949
46933W        W19193  22.059  30.566   2.798
46934W        W19194  34.048  16.720   1.355
46935W        W19195  34.878  44.307   3.213
46936W        W19196  40.344  22.675   1.363
46937W        W19197  15.127   7.813   3.163
46938W        W19198  44.299   4.280   1.304
46939W        W19199   5.872  35.584   3.778
46940W        W19200   1.238  36.420  13.504
46941W        W19201  29.937  23.510  13.834
46942W        W19202  13.308  27.068   9.545
46943W        W19203  23.102  15.110   3.786
46944W        W19204   2.757  16.717  12.002
46945W        W19205  19.185  24.550  14.319
46946W        W19206  20.075  15.194   0.336
46947W        W19207   6.840   2.844   4.630
46948W        W19208  10.154  15.238   0.368
46949W        W19209  10.660  15.329  14.902
46950W        W19210   3.750  44.956  11.562
46951W        W19211  25.092   6.428   1.697
46952W        W19212  11.781   0.959  11.503
46953W        W19213  34.059  15.686   4.320
46954W        W19214  16.796   1.914  11.446
46955W        W19215   5.342  36.560  11.977
46956W        W19216   2.265   8.727  12.464
46957W        W19217  12.148  30.957   0.321
46958W        W19218  35.599  38.503   0.907
46959W        W19219  21.753  24.061  13.844
46960W        W19220   4.825   2.404  11.044
46961W        W19221   4.214  33.026   0.868
46962W        W19222  42.847   7.270  11.381
46963W        W19223   1.460  20.708  10.491
46964W        W19224   0.955  20.644  13.516
46965W        W19225  24.145  23.605  10.557
46966W        W19226  16.265  18.280   0.425
46967W        W19227  40.372   3.754   1.321
46968W        W19228  36.507  19.655   0.433
46969W        W19229  28.548  34.422  14.383
46970W        W19230  21.595  35.571   1.265
46971W        W19231  15.240  26.199   1.763
46972W        W19232  36.371  22.082  13.381
46973W        W19233  36.572  29.931  11.473
46974W        W19234  37.489  30.927   0.891
46975W        W19235  28.496  16.177   4.162
46976W        W19236  14.649   0.460  11.372
46977W        W19237   7.860  37.923   0.322
46978W        W19238  19.715   1.799  13.894
46979W        W19239  12.172  41.841   2.186
46980W        W19240  38.821  40.421   3.637
46981W        W19241  21.553  23.021  12.547
46982W        W19242  20.192   9.783  14.955
46983W        W19243  22.033  26.547  12.430
46984W        W19244  26.496   8.829   3.676
46985W        W19245   0.780   6.265   2.327
46986W        W19246  40.531  14.267   2.727
46987W        W19247  33.958   3.420  14.942
46988W        W19248  41.414   7.909   1.241
46989W        W19249   6.299   1.259  10.922
46990W        W19250  19.586  43.379  13.466
46991W        W19251  18.135  30.082  14.948
46992W        W19252  40.357  44.437   4.336
46993W        W19253  41.031  37.503  10.925
46994W        W19254  44.776   0.404   4.644
46995W        W19255  41.429  19.538  10.566
46996W        W19256  26.476  19.084  10.957
46997W        W19257  22.727  23.998  13.462
46998W        W19258  34.968  21.723   9.922
46999W        W19259  27.954  36.363  11.114
47000W        W19260  14.105  21.712  10.491
47001W        W19261  20.081  24.981   2.729
47002W        W19262  11.843  23.025   1.712
47003W        W19263  32.484  23.614  14.816
47004W        W19264  10.247  30.598   0.480
47005W        W19265  28.099   9.727  13.423
47006W        W19266  17.701  40.803   3.373
47007W        W19267  20.110  19.685   3.240
47008W        W19268   4.254  14.820   2.711
47009W        W19269   6.923  23.177   0.481
47010W        W19270  44.982  44.952   4.293
47011W        W19271   5.306  28.445  10.635
47012W        W19272  17.557   9.326  14.430
47013W        W19273  27.992  41.313  14.422
47014W        W19274  13.189   9.152   1.926
47015W        W19275   5.727  27.677   0.272
47016W        W19276   8.210   2.873   3.851
47017W        W19277   6.916  17.647  11.046
47018W        W19278  20.540   1.277  12.548
47019W        W19279  25.621   5.698  13.371
47020W        W19280  43.765  44.351  10.945
47021W        W19281   6.356  39.054   2.195
47022W        W19282  18.779  40.014   0.298
47023W        W19283  26.702  35.445   0.257
47024W        W19284  36.431  28.985  13.897
47025W        W19285  33.385  29.663  11.048
47026W        W19286  16.728  16.182  10.589
47027W        W19287  24.978  35.925  14.409
47028W        W19288  32.551  44.998   2.668
47029W        W19289   3.868   1.348   4.633
47030W        W19290  25.620  35.986  14.441
47031W        W19291  22.067  29.972   2.323
47032W        W19292  38.474  16.091  14.364
47033W        W19293   4.308   1.736  11.415
47034W        W19294  17.203   6.749   1.450
47035W        W19295  31.565  23.155  13.810
47036W        W19296   2.779  32.617   2.843
47037W        W19297  37.366  23.544  14.336
47038W        W19298  25.636  16.644  11.588
47039W        W19299  44.974   8.165   3.233
47040W        W19300  19.652   5.757   9.606
47041W        W19301   4.371  22.528  10.590
47042W        W19302   0.923  34.114   4.748
47043W        W19303  32.543   5.328  11.542
47044W        W19304  13.712  27.678  11.531
47045W        W19305  14.189  14.634  10.618
47046W        W19306  43.468   6.891  11.486
47047W        W19307  37.047   0.320  11.520
47048W        W19308  37.527  14.163   1.926
47049W        W19309  40.402   4.930  10.607
47050W        W19310   4.764   6.812  13.970
47051W        W19311   6.408  31.087  12.478
47052W        W19312   2.780  37.437   1.319
47053W        W19313  25.199  37.440  11.456
47054W        W19314  17.578  18.190  10.903
47055W        W19315   5.934  41.513  13.811
47056W        W19316  20.525  40.912  10.628
47057W        W19317  24.705  34.593   2.724
47058W        W19318   7.281  23.627  12.847
47059W        W19319  13.676  25.116   1.312
47060W        W19320  22.638  10.755   0.749
47061W        W19321   7.739  30.570  11.009
47062W        W19322  12.702  15.112   1.753
47063W        W19323  18.762  19.540  11.894
47064W        W19324   5.692   3.906   4.346
47065W        W19325   2.293   3.315   3.230
47066W        W19326  43.821  35.010  13.339
47067W        W19327  28.635  33.554   3.334
47068W        W19328  29.939  44.393  12.538
47069W        W19329   7.888   9.680   3.773
47070W        W19330   8.827  20.125   0.386
47071W        W19331  25.051  28.465  14.828
47072W        W19332  14.278  34.073   3.641
47073W        W19333  11.818  22.525  11.925
47074W        W19334  16.218   0.816  12.396
47075W        W19335  36.544   8.692   1.813
47076W        W19336  15.599  36.551  12.517
47077W        W19337  22.190  33.488   3.303
47078W        W19338  18.063  18.052  13.402
47079W        W19339   2.827  20.611   1.827
47080W        W19340  18.559  10.751   1.767
47081W        W19341   8.392  19.149  10.981
47082W        W19342  15.106  30.107  11.108
47083W        W19343  30.917  28.611  11.043
47084W        W19344  34.867  18.245   4.319
47085W        W19345  19.760  33.030  13.502
47086W        W19346  27.658  19.644  12.520
47087W        W19347  33.953  12.177  12.072
47088W        W19348  39.541  34.078   1.382
47089W        W19349  12.340  10.830   3.814
47090W        W19350   9.330  14.235  10.441
47091W        W19351  19.262  40.945  14.365
47092W        W19352   2.287  42.992  10.638
47093W        W19353  10.352   3.420   0.817
47094W        W19354  13.169  10.646   1.782
47095W        W19355  27.144   1.313   2.382
47096W        W19356   9.684  13.256  14.417
47097W        W19357  42.507   3.806  10.918
47098W        W19358   3.251  23.176  14.871
47099W        W19359  10.192  38.994  10.912
47100W        W19360   8.381  28.540  11.057
47101W        W19361  15.099   4.936  13.793
47102W        W19362   7.189  21.201   1.771
47103W        W19363  30.137  33.603  10.564
47104W        W19364  22.072  28.977  11.902
47105W        W19365  26.496  24.230  12.966
47106W        W19366  25.206  39.403  13.964
47107W        W19367  21.191  40.548  10.482
47108W        W19368  40.040  12.190  13.380
47109W        W19369  21.717  13.300   4.789
47110W        W19370  26.533  37.397   0.293
47111W        W19371  33.434  27.135   5.127
47112W        W19372  23.110   8.252   3.712
47113W        W19373  44.807  17.222  13.526
47114W        W19374  28.029  30.101  12.886
47115W        W19375  20.114  24.549   3.235
47116W        W19376  42.802   4.448   1.284
47117W        W19377  36.877  15.279  12.979
47118W        W19378  18.266   5.724   9.531
47119W        W19379  28.113  32.559   0.265
47120W        W19380  23.164  16.307  14.412
47121W        W19381  14.589  43.915   1.217
47122W        W19382   9.674  41.025  12.416
47123W        W19383  18.157   8.177   3.812
47124W        W19384  41.817  25.179  11.042
47125W        W19385  24.101  39.862  10.934
47126W        W19386  43.931  35.571   0.908
47127W        W19387   7.751  16.782   2.330
47128W        W19388  14.307  23.593  13.494
47129W        W19389  30.624  31.028  14.474
47130W        W19390  30.111  17.156   3.194
47131W        W19391  38.010  29.992   4.619
47132W        W19392  42.971  21.546   1.274
47133W        W19393  34.047  37.517  11.470
47134W        W19394  18.065   2.798   4.601
47135W        W19395  25.974  36.580   3.796
47136W        W19396   6.770  38.354  13.530
47137W        W19397  44.990  22.023   3.309
47138W        W19398  32.054  30.975  11.906
47139W        W19399   6.378  17.082  10.922
47140W        W19400  33.618   4.277   0.741
47141W        W19401  44.819  33.058   3.214
47142W        W19402  41.324  38.834  12.089
47143W        W19403   7.275  19.776  13.500
47144W        W19404  19.142  24.038  12.072
47145W        W19405  33.407  44.346  11.536
47146W        W19406  20.040  38.366  12.557
47147W        W19407  12.743   9.650   2.232
47148W        W19408  35.934  43.007  14.017
47149W        W19409  40.435   9.185   4.790
47150W        W19410   1.934   6.748  10.631
47151W        W19411  44.421   1.285  10.976
47152W        W19412  12.701  43.316   1.321
47153W        W19413  43.385  42.827  12.983
47154W        W19414  33.507  42.871  10.464
47155W        W19415   0.876  38.570  13.445
47156W        W19416  19.581  17.105   3.784
47157W        W19417  42.336  16.111  11.892
47158W        W19418  23.531  25.049   3.360
47159W        W19419  41.970  22.148  12.393
47160W        W19420   8.218   4.276   4.805
47161W        W19421   7.775   8.844  14.017
47162W        W19422  22.588  19.239  14.380
47163W        W19423   6.328  24.190   4.165
47164W        W19424   4.321  22.175   2.311
47165W        W19425  10.777  42.863   4.315
47166W        W19426  43.348  39.402   3.828
47167W        W19427  43.966   1.805  11.011
47168W        W19428  19.189  18.156  14.505
47169W        W19429   4.941  41.991   2.831
47170W        W19430   4.441  24.586  13.999
47171W        W19431   7.782  20.757   1.820
47172W        W19432  40.538  16.097  12.060
47173W        W19433  41.403  39.993   4.767
47174W        W19434  35.866  15.184  13.411
47175W        W19435  38.348  35.095   1.370
47176W        W19436  12.768  30.620  13.963
47177W        W19437  34.580  18.585   4.288
47178W        W19438  21.619  43.318  11.076
47179W        W19439   2.900   4.792   3.767
47180W        W19440  32.121  17.267  12.399
47181W        W19441   5.422  38.016   2.873
47182W        W19442  29.997  31.591  13.546
47183W        W19443  43.479   6.837   0.909
47184W        W19444   5.828  10.289   0.384
47185W        W19445  20.668   0.945   1.262
47186W        W19446  39.348  15.637   4.782
47187W        W19447  21.190  16.259  11.025
47188W        W19448  39.975   2.927  11.915
47189W        W19449  39.825  25.011  13.026
47190W        W19450  27.595  19.664   4.834
47191W        W19451  37.397  42.458   3.337
47192W        W19452  22.221  21.146   9.972
47193W        W19453   7.223  34.946  14.015
47194W        W19454  28.451  22.528  12.429
47195W        W19455  38.964   7.877  12.391
47196W        W19456  34.950  21.589  10.637
47197W        W19457  44.761  35.982  14.319
47198W        W19458  32.462  41.511  11.048
47199W        W19459   6.893  28.029  13.340
47200W        W19460  16.214  17.602   0.793
47201W        W19461   0.256  33.533  10.888
47202W        W19462  24.002  21.032   0.298
47203W        W19463  42.914  24.109   2.857
47204W        W19464  29.527  43.824  10.586
47205W        W19465  38.902  22.009  13.426
47206W        W19466  36.041  26.509   4.670
47207W        W19467  42.439  12.174  13.010
47208W        W19468  15.329  17.265  11.012
47209W        W19469  11.327  44.958   0.354
47210W        W19470  19.092  39.559  13.024
47211W        W19471  37.941  17.205   4.217
47212W        W19472   2.447  22.640  14.928
47213W        W19473  12.747  23.531  14.336
47214W        W19474  19.547  33.530   4.117
47215W        W19475  20.060  41.429   4.252
47216W        W19476  39.446   2.760   3.853
47217W        W19477  34.881  33.461   4.281
47218W        W19478  43.008  43.351   3.278
47219W        W19479  21.614   4.807   3.223
47220W        W19480  10.142  27.651   4.712
47221W        W19481  16.184  43.454   2.828
47222W        W19482  21.613  42.992   1.895
47223W        W19483   7.817  13.819   2.244
47224W        W19484  18.597   3.215  14.977
47225W        W19485  38.900  35.921   4.250
47226W        W19486   2.261  33.419   3.311
47227W        W19487  16.209  40.907   0.289
47228W        W19488  15.743  41.321  12.501
47229W        W19489  27.150  18.112  11.935
47230W        W19490  42.017   2.240  11.402
47231W        W19491   7.875  22.250  10.930
47232W        W19492   9.269  29.095  11.934
47233W        W19493  28.105   6.778  14.932
47234W        W19494   0.253  18.187   2.707
47235W        W19495   1.303  37.460  10.428
47236W        W19496  34.017  11.179  10.926
47237W        W19497  33.940  26.647  13.458
47238W        W19498  20.704  29.171  10.508
47239W        W19499   6.230   3.851  14.400
47240W        W19500  17.751   4.758  12.973
47241W        W19501  10.651  15.701   2.753
47242W        W19502   7.690  14.807   3.646
47243W        W19503  34.934  18.607   9.438
47244W        W19504  25.063  30.945   0.878
47245W        W19505  25.068  43.007   1.252
47246W        W19506   4.806  35.970   2.843
47247W        W19507   0.756  22.708   3.805
47248W        W19508  35.514  14.789   2.748
47249W        W19509  13.137  30.966   1.225
47250W        W19510  18.099  37.886  14.284
47251W        W19511   6.376  37.490   3.172
47252W        W19512  26.162  17.105  12.909
47253W        W19513  30.426   3.390  12.471
47254W        W19514  29.128   0.377  14.014
47255W        W19515  31.467  23.559  13.903
47256W        W19516   7.191  39.545  14.295
47257W        W19517  31.436  19.058   4.293
47258W        W19518  26.594  16.627  12.074
47259W        W19519  16.752  41.012  11.387
47260W        W19520  23.093  26.122   3.707
47261W        W19521  22.687   5.872   3.335
47262W        W19522   3.417  37.465  13.366
47263W        W19523   0.426  12.827   2.780
47264W        W19524  33.480  29.919   3.236
47265W        W19525   8.736  28.458   3.842
47266W        W19526  20.108   6.821   5.127
47267W        W19527  29.654  25.179  10.898
47268W        W19528  33.486  19.227   5.156
47269W        W19529  26.562  42.280  11.504
47270W        W19530  41.521  21.592  12.376
47271W        W19531  34.540  23.225  14.354
47272W        W19532  18.242  33.082  14.902
47273W        W19533  19.270  11.862   4.234
47274W        W19534  34.604   7.262  10.526
47275W        W19535  10.758  13.234   2.870
47276W        W19536  22.544  38.379   3.709
47277W        W19537  33.017  26.600  12.893
47278W        W19538   1.240   8.338   3.856
47279W        W19539  40.814  38.556   2.401
47280W        W19540  27.523  37.890   4.640
47281W        W19541  20.172   7.240   4.691
47282W        W19542   3.230  20.550   4.183
47283W        W19543  39.044  43.844  13.312
47284W        W19544  43.400  40.828   2.731
47285W        W19545   4.305  27.103  13.382
47286W        W19546   7.874   6.183  14.008
47287W        W19547  38.364  23.225  11.009
47288W        W19548   6.776  24.094  14.337
47289W        W19549  36.482   6.290  13.394
47290W        W19550  20.585  25.043   0.332
47291W        W19551   5.245  43.020   4.240
47292W        W19552  29.148  26.195  14.446
47293W        W19553  26.537  20.700   4.714
47294W        W19554   9.308  33.878  14.343
47295W        W19555  27.024  32.968  12.011
47296W        W19556   3.917  20.046  14.808
47297W        W19557  11.707  30.563   4.138
47298W        W19558   1.898  16.692  13.528
47299W        W19559  23.205  29.433  11.436
47300W        W19560  24.531  10.692  12.455
47301W        W19561  41.908  19.599  13.038
47302W        W19562  13.796   8.892   3.854
47303W        W19563   8.815  14.743   0.253
47304W        W19564  34.477  27.157  11.916
47305W        W19565   6.743  34.882   4.671
47306W        W19566  23.031  19.066   0.752
47307W        W19567  12.314  11.773   4.715
47308W        W19568  17.580  41.432   0.434
47309W        W19569  38.014  14.333  10.959
47310W        W19570  18.165  22.569   4.234
47311W        W19571   2.415  25.570  10.989
47312W        W19572  10.697  33.980  14.870
47313W        W19573  27.940  37.970   3.676
47314W        W19574  34.011  31.143  12.999
47315W        W19575  23.060  17.242  10.935
47316W        W19576  43.450  14.257  11.896
47317W        W19577   7.808  40.932   0.951
47318W        W19578  11.335  16.723  10.593
47319W        W19579  28.936  13.790   2.198
47320W        W19580   5.339  33.584   2.676
47321W        W19581  35.860  34.113   0.744
47322W        W19582  37.444  22.609   4.314
47323W        W19583  24.004   7.202  13.054
47324W        W19584  39.856   2.354  11.375
47325W        W19585   5.292  18.178   0.416
47326W        W19586  34.394   1.362  14.779
47327W        W19587  27.499  23.086   4.115
47328W        W19588  18.631  21.117   4.767
47329W        W19589   2.866  12.807  10.928
47330W        W19590  39.410  32.061   2.827
47331W        W19591  43.821   5.844  11.434
47332W        W19592  33.590  40.935   1.787
47333W        W19593  17.228  42.908   2.270
47334W        W19594  30.054  15.175  14.966
47335W        W19595  38.455  18.295   2.886
47336W        W19596   6.323  14.168   0.322
47337W        W19597  42.504  40.843  10.409
47338W        W19598  23.724  28.943  14.817
47339W        W19599  31.928  13.614   2.829
47340W        W19600   7.301  43.463   1.896
47341W        W19601  20.636   5.766   1.839
47342W        W19602  30.920  29.940   2.185
47343W        W19603  11.224  20.261  11.068
47344W        W19604  43.412   8.769  11.856
47345W        W19605  23.046  24.544  13.522
47346W        W19606  17.567  16.655  12.934
47347W        W19607  29.096  26.974  13.945
47348W        W19608  41.906  25.582  14.332
47349W        W19609  27.634  16.587  14.892
47350W        W19610  15.139  10.712   4.224
47351W        W19611  32.900  26.144   1.442
47352W        W19612  26.956  34.536   2.815
47353W        W19613   0.967  29.601  12.529
47354W        W19614  30.999  32.520  12.556
47355W        W19615   4.776  24.025   1.888
47356W        W19616   7.415  19.766  11.547
47357W        W19617  39.369   6.835  12.862
47358W        W19618   1.246  42.432  13.535
47359W        W19619  30.161  42.374  14.369
47360W        W19620  15.168  15.731  14.926
47361W        W19621  30.454  13.795  13.876
47362W        W19622  26.199  37.968  13.382
47363W        W19623   8.771  35.984  11.408
47364W        W19624  12.804  10.738  12.346
47365W        W19625  42.344  26.681  14.410
47366W        W19626   2.472  29.074   9.993
47367W        W19627  19.574  39.382  12.513
47368W        W19628   6.751  20.241  12.021
47369W        W19629   1.879  44.480  14.980
47370W        W19630  22.053   1.748   4.813
47371W        W19631  11.179   0.414  10.568
47372W        W19632   7.904  10.643   0.318
47373W        W19633  43.367  13.643   4.772
47374W        W19634   0.784  14.760   2.833
47375W        W19635   4.866  24.997  11.478
47376W        W19636   5.826  26.153  11.885
47377W        W19637  27.592  18.255  11.380
47378W        W19638  34.867  18.651   1.238
47379W        W19639  32.496   4.875   1.337
47380W        W19640  40.933  19.584   1.833
47381W        W19641  33.082  32.083   3.841
47382W        W19642  17.739  28.006   4.787
47383W        W19643  13.748  30.095  11.070
47384W        W19644  30.062  34.600   4.340
47385W        W19645   2.912  37.452  13.028
47386W        W19646  22.059  36.883   2.233
47387W        W19647  42.788  28.981  12.914
47388W        W19648  25.643  39.351  12.068
47389W        W19649   7.331  15.147   0.828
47390W        W19650  35.560  18.659   5.709
47391W        W19651   0.902  21.154   1.889
47392W        W19652  39.811  15.733   3.232
47393W        W19653  41.374  25.593  11.445
47394W        W19654  33.390  39.027  12.465
47395W        W19655  38.456  34.070   1.222
47396W        W19656  21.666  29.586   4.169
47397W        W19657  25.059  21.669   4.784
47398W        W19658  26.119  32.506  14.805
47399W        W19659  36.874  16.216  12.408
47400W        W19660  20.573   0.268   1.720
47401W        W19661  39.942  29.530   4.296
47402W        W19662  33.082  13.150   1.288
47403W        W19663  27.065  27.953  12.504
47404W        W19664   5.412  26.680   2.199
47405W        W19665   2.441  29.599   4.328
47406W        W19666  37.476  42.387  14.831
47407W        W19667  31.054  23.167  12.498
47408W        W19668  12.295  32.930  11.603
47409W        W19669  30.603  40.341   5.179
47410W        W19670  44.850  23.587  10.486
47411W        W19671  24.068  11.188   3.636
47412W        W19672  25.202  34.521   4.723
47413W        W19673  28.025  30.648  13.043
47414W        W19674  27.585  15.231   4.785
47415W        W19675  44.759  11.827   1.771
47416W        W19676  27.680   5.193  12.084
47417W        W19677  38.847  41.889   2.209
47418W        W19678  13.835  44.412  11.517
47419W        W19679   1.736  39.515   1.261
47420W        W19680  37.953  40.311   4.142
47421W        W19681  14.316   8.704  13.449
47422W        W19682   0.973  36.544  13.929
47423W        W19683  42.926  28.503   3.266
47424W        W19684  13.120  23.630  13.965
47425W        W19685   5.348   0.261   0.438
47426W        W19686  37.474  13.757   1.442
47427W        W19687  17.662  40.821   4.244
47428W        W19688  40.468  32.481  10.571
47429W        W19689  31.119   2.729   1.909
47430W        W19690   3.230  10.344  12.020
47431W        W19691  14.109  21.062   0.249
47432W        W19692   1.448   1.343  14.795
47433W        W19693  12.360  43.960   4.792
47434W        W19694  14.303   8.406   3.147
47435W        W19695  11.763  10.146   3.234
47436W        W19696  12.204   1.832   1.280
47437W        W19697  14.268  13.842  10.441
47438W        W19698  17.726  29.032   1.866
47439W        W19699  14.303   8.792   2.225
47440W        W19700  30.102  29.966   1.264
47441W        W19701  18.703  34.553  14.474
47442W        W19702  11.317  36.867  14.402
47443W        W19703  12.143  14.697   2.726
47444W        W19704  24.512   6.830   3.648
47445W        W19705  19.571  44.271   3.777
47446W        W19706  29.977  13.681   0.863
47447W        W19707  32.903  15.583  11.473
47448W        W19708  20.071  11.142  14.952
47449W        W19709   3.353  25.487   3.783
47450W        W19710  34.103  18.236   0.285
47451W        W19711  44.833   9.247   0.319
47452W        W19712  25.542  23.073   2.182
47453W        W19713  26.560  32.438   0.873
47454W        W19714  43.485  32.926   4.637
47455W        W19715   1.260  30.515   2.762
47456W        W19716  29.924  38.557   3.247
47457W        W19717   4.304  37.349   0.932
47458W        W19718   4.417  18.287   4.250
47459W        W19719  30.480  40.012  12.437
47460W        W19720  37.444  40.390   0.341
47461W        W19721  44.966  22.007  11.573
47462W        W19722  41.881  18.104  11.584
47463W        W19723   8.805   2.907   2.405
47464W        W19724  31.134  19.042  11.461
47465W        W19725  36.890  31.646   4.116
47466W        W19726  23.581  43.825  11.495
47467W        W19727  28.655   6.321   1.348
47468W        W19728  27.110  12.728   0.373
47469W        W19729  17.667  26.964  14.998
47470W        W19730  31.076   3.250   1.886
47471W        W19731  28.057  38.560   0.728
47472W        W19732  27.059  39.510  10.492
47473W        W19733  30.917  30.048   3.678
47474W        W19734  21.523  42.844   0.288
47475W        W19735  43.298  11.623  10.407
47476W        W19736  43.857   2.263   2.188
47477W        W19737  27.559  11.284   3.726
47478W        W19738  38.473  26.621  12.478
47479W        W19739  10.746  29.644   1.760
47480W        W19740  24.537  17.649  12.033
47481W        W19741  10.842  43.406   3.161
47482W        W19742   0.942  17.647   3.281
47483W        W19743  22.112   4.383   3.859
47484W        W19744  36.476   2.924   3.757
47485W        W19745  14.740  30.616   0.454
47486W        W19746   5.932  36.431   3.795
47487W        W19747  25.555  41.338   4.128
47488W        W19748  28.016   4.921  14.370
47489W        W19749   8.874  14.709  14.375
47490W        W19750  26.488   7.735   2.791
47491W        W19751  38.476  42.948   2.813
47492W        W19752  37.478   6.819   1.753
47493W        W19753  22.746   4.365   4.343
47494W        W19754   5.396  10.722   0.955
47495W        W19755  21.751  40.047  13.391
47496W        W19756  37.929  11.254   1.929
47497W        W19757   7.227  42.901   1.302
47498W        W19758   3.381  12.198   4.184
47499W        W19759  13.829  13.247  12.043
47500W        W19760   0.881  22.540   0.878
47501W        W19761  41.788  28.935  14.497
47502W        W19762  17.155   4.868  14.442
47503W        W19763  21.697  41.995  13.502
47504W        W19764   7.715  43.516   3.246
47505W        W19765  29.663  23.134  12.571
47506W        W19766  17.781  32.936   3.292
47507W        W19767  44.438  38.033  13.057
47508W        W19768  20.626  16.153  13.459
47509W        W19769   7.309  10.869   2.293
47510W        W19770  34.061  41.396  13.939
47511W        W19771  34.569  17.712   0.450
47512W        W19772  25.035   5.712  13.355
47513W        W19773   5.385   1.431  11.462
47514W        W19774  30.036  38.436   1.725
47515W        W19775  17.108  10.244   4.143
47516W        W19776   7.782  18.694   0.770
47517W        W19777   2.823  19.718   0.464
47518W        W19778   4.320  31.912  11.860
47519W        W19779   8.672  20.270   2.817
47520W        W19780  40.956   1.452  13.994
47521W        W19781   0.455   1.315  10.983
47522W        W19782  25.485  34.888   2.221
47523W        W19783  34.440  19.580  12.465
47524W        W19784  14.663  21.097   3.807
47525W        W19785   4.768  39.521   3.280
47526W        W19786  30.156  13.810  13.497
47527W        W19787  20.694   6.230  10.158
47528W        W19788   0.413   6.778   4.331
47529W        W19789  37.914  34.609   3.737
47530W        W19790  35.557  23.666   1.783
47531W        W19791  10.357   5.207  12.346
47532W        W19792  14.324  29.548  14.334
47533W        W19793  32.042  22.529   2.708
47534W        W19794   9.695   1.802  11.536
47535W        W19795   3.827  40.002   0.285
47536W        W19796  28.500   1.332  14.291
47537W        W19797   5.787  26.019   4.755
47538W        W19798  35.886  24.219  12.092
47539W        W19799   5.364  17.068  12.509
47540W        W19800  34.887  41.503  13.516
47541W        W19801  13.307  19.097  14.850
47542W        W19802  39.380  35.065  10.542
47543W        W19803  26.598  24.213   3.236
47544W        W19804  13.134   9.766  14.838
47545W        W19805  14.835  30.922   2.811
47546W        W19806  26.698   6.352  10.555
47547W        W19807  39.008   6.891  10.106
47548W        W19808  40.809  30.536   3.630
47549W        W19809  19.666   0.445   0.423
47550W        W19810  33.964  39.539  14.927
47551W        W19811  39.415  20.138   1.409
47552W        W19812  29.589   1.481  14.779
47553W        W19813  22.528  25.687   5.792
47554W        W19814  11.279  22.647   0.444
47555W        W19815  22.581  33.896   1.276
47556W        W19816   0.469  24.713   0.965
47557W        W19817  16.131  27.126  14.302
47558W        W19818  40.993   8.382   3.781
47559W        W19819  24.589  40.502   2.215
47560W        W19820  18.175  37.865   1.393
47561W        W19821  35.875  38.389  12.992
47562W        W19822  11.732  43.948  11.449
47563W        W19823  44.974   0.761  11.958
47564W        W19824  19.190  20.604   2.772
47565W        W19825  29.620  29.013  13.384
47566W        W19826   4.827   3.720   4.794
47567W        W19827   5.754   5.732   0.861
47568W        W19828  15.180  19.113   4.649
47569W        W19829  10.860   7.351  12.066
47570W        W19830   2.725  27.110  10.631
47571W        W19831  19.141  26.161  14.497
47572W        W19832   9.300  44.998  10.890
47573W        W19833   9.781  13.215   2.717
47574W        W19834  33.589  42.364  14.909
47575W        W19835  13.224  34.947   2.206
47576W        W19836  23.616   5.196   1.234
47577W        W19837  27.169   5.246   0.907
47578W        W19838  10.301  10.739   1.832
47579W        W19839  11.786  34.483  13.794
47580W        W19840   6.831  12.610   2.796
47581W        W19841  18.117  10.772  12.838
47582W        W19842  25.680   3.784  11.976
47583W        W19843  35.045   5.319   3.804
47584W        W19844  22.700  22.007   2.797
47585W        W19845   5.220   8.889   3.750
47586W        W19846  17.659  10.645   0.317
47587W        W19847  32.041  35.914  14.789
47588W        W19848  44.291   1.900   2.820
47589W        W19849  18.190  14.125  12.006
47590W        W19850  44.503  42.782  13.851
47591W        W19851  29.047   1.456   4.796
47592W        W19852   2.908  33.882  11.098
47593W        W19853  19.269  19.646   4.254
47594W        W19854   7.880  29.612  11.526
47595W        W19855  11.269  33.984  13.361
47596W        W19856  28.467  39.385  14.912
47597W        W19857   5.716  40.957  12.942
47598W        W19858  25.038  34.900  14.452
47599W        W19859  30.527  27.616   0.272
47600W        W19860  11.187  35.960  10.632
47601W        W19861  28.960  15.105   1.257
47602W        W19862  12.161  37.855  10.449
47603W        W19863  10.301  24.521  13.913
47604W        W19864   4.839  34.086   0.808
47605W        W19865  26.202  28.603   0.431
47606W        W19866  28.650   0.320  14.901
47607W        W19867  27.485  17.608  11.968
47608W        W19868  34.514  19.187  13.859
47609W        W19869  41.459  35.959  11.475
47610W        W19870  39.491  19.239   1.423
47611W        W19871   9.678  21.741  14.836
47612W        W19872  10.869  12.299  11.575
47613W        W19873  18.721  19.054   2.311
47614W        W19874  26.620  36.962   3.854
47615W        W19875  39.354   8.331   2.878
47616W        W19876  35.887  19.201  10.905
47617W        W19877  24.991  34.533  13.406
47618W        W19878  14.782  20.726  10.983
47619W        W19879  15.187  27.561   1.285
47620W        W19880  38.827  38.422   3.369
47621W        W19881  30.461  38.978  12.890
47622W        W19882   5.713  19.697   4.650
47623W        W19883   1.789  13.821  12.985
47624W        W19884  44.365   0.875  12.564
47625W        W19885  31.472  39.001   1.919
47626W        W19886  35.367  31.534  14.032
47627W        W19887  32.620  32.526  12.851
47628W        W19888  11.665  43.467  10.891
47629W        W19889  40.807  21.019  13.949
47630W        W19890  43.012  17.615  14.887
47631W        W19891   7.343   2.908  12.960
47632W        W19892  16.247  35.893   0.886
47633W        W19893  25.469  22.658   4.698
47634W        W19894   7.398  31.539  11.997
47635W        W19895  28.557   9.675  11.032
47636W        W19896  36.407  33.981   0.802
47637W        W19897  22.090   4.373  10.588
47638W        W19898  41.861  27.561   4.195
47639W        W19899  28.084  41.861  11.560
47640W        W19900  19.244  21.634   2.783
47641W        W19901  34.081  16.221   3.801
47642W        W19902  30.013  15.632  10.586
47643W        W19903  27.976  16.720  11.583
47644W        W19904  36.517  15.105   1.923
47645W        W19905  25.532  19.687   0.261
47646W        W19906  40.538   6.339  13.440
47647W        W19907  16.094  34.093  12.862
47648W        W19908  18.728  39.553   3.762
47649W        W19909  18.114  39.556   0.840
47650W        W19910  12.209  17.714  11.998
47651W        W19911   4.362  33.051   3.291
47652W        W19912   6.326  17.111   1.737
47653W        W19913  43.291  41.848  12.052
47654W        W19914   1.785   6.830  13.006
47655W        W19915   0.975  17.788   1.802
47656W        W19916   0.313  24.178  13.453
47657W        W19917  15.592  12.646  13.955
47658W        W19918  42.995   2.439   5.152
47659W        W19919  18.586  31.944   3.856
47660W        W19920  42.345  11.282  11.558
47661W        W19921   4.792  10.231  11.987
47662W        W19922  35.059  35.484   0.898
47663W        W19923   0.350  20.100  10.495
47664W        W19924  25.000   9.285  12.940
47665W        W19925  37.471  39.386   3.700
47666W        W19926  17.106  28.443  13.943
47667W        W19927  33.521  43.971   1.891
47668W        W19928   4.415  17.131   3.308
47669W        W19929  20.182  41.876  13.332
47670W        W19930   7.268  37.489  11.117
47671W        W19931  37.522  30.063   3.819
47672W        W19932   3.261  14.212   2.364
47673W        W19933  27.484  32.557   4.145
47674W        W19934  43.827  15.702   0.816
47675W        W19935  38.411  24.086  14.799
47676W        W19936  15.720  38.881   2.356
47677W        W19937  18.670   8.264  10.553
47678W        W19938   2.376  21.576   1.765
47679W        W19939  40.011  20.144   3.776
47680W        W19940  26.592  33.567   1.394
47681W        W19941  25.646  33.035  11.918
47682W        W19942  19.184  40.042   3.206
47683W        W19943  15.678  21.666   2.181
47684W        W19944   2.290  35.107  13.974
47685W        W19945  43.774  30.516   2.394
47686W        W19946  13.261  39.054   1.842
47687W        W19947  15.796  28.981   4.813
47688W        W19948  11.175   7.413   2.836
47689W        W19949  23.067  41.390   1.431
47690W        W19950  19.053   8.833  12.405
47691W        W19951  35.086   5.252  14.825
47692W        W19952  15.119   2.420  11.103
47693W        W19953  27.558  34.381   4.681
47694W        W19954   4.916  25.083   0.429
47695W        W19955  41.309  21.706   0.465
47696W        W19956  13.671  25.197  12.365
47697W        W19957  28.657  20.201  12.840
47698W        W19958  16.738  17.792  13.400
47699W        W19959   0.276  15.144  13.423
47700W        W19960   3.332  39.439  10.891
47701W        W19961  14.209  13.644  14.463
47702W        W19962  35.523  37.911   2.257
47703W        W19963  44.011  27.963  12.004
47704W        W19964  27.636  39.921   4.778
47705W        W19965  19.284  19.219  11.979
47706W        W19966  39.840  15.300   3.812
47707W        W19967  15.241  25.567  11.076
47708W        W19968   7.902   5.902   3.723
47709W        W19969  32.421  37.876  12.847
47710W        W19970  11.363  31.993   5.094
47711W        W19971  35.401   4.403   0.778
47712W        W19972  33.045  10.270   0.430
47713W        W19973  43.773  44.354  12.891
47714W        W19974  36.083  20.699  12.834
47715W        W19975  41.504  33.898  12.428
47716W        W19976  21.073  20.129   3.649
47717W        W19977   9.693  26.100  14.796
47718W        W19978   0.350   5.725   0.450
47719W        W19979  36.543   6.331  12.828
47720W        W19980  29.027  16.650   2.900
47721W        W19981  30.944   8.677   9.975
47722W        W19982   7.255  43.469  12.343
47723W        W19983  26.630  14.184   1.829
47724W        W19984  11.766  22.709  11.061
47725W        W19985   6.284  20.198  14.286
47726W        W19986  30.102  28.565   4.648
47727W        W19987  23.586  31.956  12.857
47728W        W19988  20.174  44.275  12.500
47729W        W19989  38.896   6.266   1.211
47730W        W19990  23.065   7.316   1.789
47731W        W19991  21.162  39.488  12.895
47732W        W19992  19.719  44.372  14.311
47733W        W19993  35.931  22.711   0.350
47734W        W19994   8.654  44.344  11.401
47735W        W19995  41.928  24.086  14.987
47736W        W19996  41.437  13.796   4.218
47737W        W19997  30.424  22.600  11.481
47738W        W19998  39.356  40.989  14.383
47739W        W19999  29.171   2.435   4.804
47740W        W20000  21.722  36.445  13.471
47741W        W20001  34.053  42.410   1.834
47742W        W20002  36.005  37.377  10.636
47743W        W20003   9.773  12.345  12.073
47744W        W20004  43.963  37.976  10.888
47745W        W20005  11.799   6.215   2.772
47746W        W20006  28.154  27.596  12.540
47747W        W20007  26.010  36.437   4.198
47748W        W20008  23.222   3.749  12.469
47749W        W20009   1.877   8.892   5.156
47750W        W20010  20.556  22.250   2.245
47751W        W20011  20.608  40.309  14.381
47752W        W20012  15.178  12.832  11.866
47753W        W20013   7.781  36.016  11.573
47754W        W20014  17.776  25.683   4.657
47755W        W20015   8.868  39.917  14.327
47756W        W20016  16.226  19.180   1.376
47757W        W20017  23.116  32.089  11.439
47758W        W20018  32.093  42.337  10.591
47759W        W20019  43.467  33.500  14.955
47760W        W20020  15.772  22.086  13.419
47761W        W20021  13.133   3.454   0.309
47762W        W20022  33.024  35.604  10.967
47763W        W20023  31.577   6.883   3.699
47764W        W20024   8.833   9.384   2.185
47765W        W20025  26.186  24.679  13.987
47766W        W20026   4.703  41.511  11.873
47767W        W20027  19.153  24.064  13.907
47768W        W20028  30.991  32.912   3.256
47769W        W20029   1.833  38.076   1.807
47770W        W20030  11.703  35.374  11.572
47771W        W20031  14.715  26.962  11.472
47772W        W20032   6.899  40.964  14.463
47773W        W20033  24.517  44.821  11.896
47774W        W20034  11.688  20.038  11.400
47775W        W20035  17.090  12.714  13.817
47776W        W20036   5.756  42.799  14.453
47777W        W20037  37.476  19.752  11.931
47778W        W20038  32.953  44.323  13.546
47779W        W20039  21.640   5.373  14.365
47780W        W20040  31.953  20.228  12.981
47781W        W20041   8.801  33.029   1.280
47782W        W20042  13.748  43.790  13.431
47783W        W20043  35.527  21.557   3.329
47784W        W20044   6.417  30.508  14.828
47785W        W20045  20.691  40.545   0.838
47786W        W20046  13.155  26.504  12.064
47787W        W20047   4.797  37.981  13.935
47788W        W20048  25.552  36.936  12.382
47789W        W20049  15.308  28.615   5.739
47790W        W20050  12.225  32.451   3.669
47791W        W20051  37.950  32.527   0.780
47792W        W20052  10.280   1.254  12.884
47793W        W20053  42.943  33.542  14.862
47794W        W20054  19.615  29.952  11.987
47795W        W20055  40.431  26.644  13.505
47796W        W20056   0.911  13.213  11.373
47797W        W20057  11.779  18.212   3.727
47798W        W20058   8.292  31.418  13.893
47799W        W20059  41.318  41.935   0.810
47800W        W20060   9.833  22.244   1.774
47801W        W20061  25.538   4.225  11.955
47802W        W20062  14.168   4.224  13.828
47803W        W20063  36.413  21.050   4.725
47804W        W20064   1.421   5.922   3.674
47805W        W20065   4.402  12.242  12.060
47806W        W20066  17.681   8.252  10.467
47807W        W20067  29.653  15.314  10.594
47808W        W20068  21.620  40.492   0.881
47809W        W20069  33.076  23.183  12.065
47810W        W20070   5.391  20.082   2.240
47811W        W20071   6.221  29.076  13.871
47812W        W20072  25.527  27.639  10.479
47813W        W20073  13.273  30.119  14.848
47814W        W20074  33.624  36.978  12.455
47815W        W20075  36.379   9.328   1.737
47816W        W20076  30.125  30.611  14.868
47817W        W20077  25.106  21.243  14.315
47818W        W20078  23.717   9.278  13.371
47819W        W20079  43.959   3.386   1.286
47820W        W20080  21.196  21.671   1.889
47821W        W20081  25.207  21.182  11.057
47822W        W20082  21.254  33.911   3.235
47823W        W20083   3.280  21.238   0.947
47824W        W20084  18.791  27.143   3.641
47825W        W20085  16.291  28.583  14.911
47826W        W20086   8.208  17.216  10.424
47827W        W20087   8.352  34.489  10.497
47828W        W20088  20.630  26.487   5.093
47829W        W20089  30.416  15.643  14.486
47830W        W20090  40.466  28.127   1.311
47831W        W20091  15.269   6.394   4.247
47832W        W20092  40.358   0.455   3.826
47833W        W20093  20.271   2.471   0.303
47834W        W20094   7.680  12.257  10.512
47835W        W20095  21.590  32.528   2.279
47836W        W20096  31.577   5.753  13.994
47837W        W20097  25.042  40.526   2.771
47838W        W20098   9.179  37.042   2.695
47839W        W20099  44.871  20.169   2.353
47840W        W20100  42.299  21.037   3.733
47841W        W20101  42.782   7.194  13.423
47842W        W20102  20.749  18.216  11.006
47843W        W20103  38.571  25.976   2.897
47844W        W20104  10.211  26.542   2.357
47845W        W20105  38.935  20.257   4.729
47846W        W20106  40.913  32.095  14.842
47847W        W20107  41.976  18.251  11.963
47848W        W20108  10.803  37.906   0.304
47849W        W20109  33.883   0.355  12.375
47850W        W20110  41.982   0.757   1.346
47851W        W20111  36.962  26.104   0.873
47852W        W20112  25.654  18.119  12.555
47853W        W20113  10.667   0.252   2.828
47854W        W20114  27.678  42.379  11.099
47855W        W20115  44.890  11.817   0.888
47856W        W20116   5.275  17.625   4.836
47857W        W20117  16.189  12.201  12.093
47858W        W20118  44.968  27.590  11.052
47859W        W20119  22.541  10.734   3.855
47860W        W20120  23.727  14.694  12.519
47861W        W20121  30.648  31.930  11.416
47862W        W20122  29.449  17.138   0.860
47863W        W20123  27.485  19.756   1.265
47864W        W20124  12.326  40.809   3.147
47865W        W20125  37.522   1.854   4.194
47866W        W20126  39.937  17.222  13.063
47867W        W20127   5.904  36.517  10.927
47868W        W20128  41.329  44.758  13.507
47869W        W20129  33.038   2.946   0.876
47870W        W20130   8.676  24.606  14.295
47871W        W20131  35.932  38.047   1.307
47872W        W20132  18.568  24.033   1.344
47873W        W20133  11.811   5.294   3.327
47874W        W20134  29.503  19.247   1.409
47875W        W20135  27.963  21.111  14.335
47876W        W20136   7.857  37.481  11.877
47877W        W20137   3.233   6.906   1.786
47878W        W20138  22.592  13.803  11.931
47879W        W20139  22.025  26.057  10.008
47880W        W20140   3.387  36.563   1.272
47881W        W20141  32.119  18.570   1.820
47882W        W20142  44.287  38.820   3.341
47883W        W20143  25.066  28.490   0.411
47884W        W20144  12.348  29.611   5.615
47885W        W20145   0.418   5.775  11.060
47886W        W20146  19.250  19.587  14.380
47887W        W20147  32.635  34.395   4.697
47888W        W20148  40.393  11.819   1.246
47889W        W20149  12.654   9.650  13.529
47890W        W20150  20.121   7.800  12.057
47891W        W20151  25.521  14.775  10.522
47892W        W20152  20.562  27.961   0.424
47893W        W20153  39.442  15.676  10.459
47894W        W20154  36.082  18.602  12.039
47895W        W20155  22.103  21.557   1.397
47896W        W20156   0.431  17.610   1.255
47897W        W20157  29.015  23.119   1.728
47898W        W20158   7.315  38.463   3.837
47899W        W20159   8.256  17.261   3.740
47900W        W20160  23.628   1.814   4.663
47901W        W20161  43.474   8.808   1.212
47902W        W20162  34.878  14.834  13.061
47903W        W20163  10.769   8.671  11.984
47904W        W20164  26.502  32.591   2.357
47905W        W20165  27.118  33.425  11.500
47906W        W20166  25.182  33.911   4.255
47907W        W20167  20.155   6.718   9.983
47908W        W20168  33.385  41.349   4.307
47909W        W20169  40.871  39.812  12.413
47910W        W20170   2.396  43.843  11.941
47911W        W20171  14.676   9.189  14.878
47912W        W20172  33.473  28.466  10.629
47913W        W20173  28.650   7.322  13.332
47914W        W20174  19.579   0.270  11.967
47915W        W20175  15.747  26.487   3.385
47916W        W20176  10.332  39.481   2.788
47917W        W20177   0.347   6.816   3.217
47918W        W20178  35.450  13.119  14.386
47919W        W20179   8.847  19.606   4.253
47920W        W20180  12.773  41.508  13.440
47921W        W20181   4.936  22.534  10.560
47922W        W20182  40.013  36.855  14.496
47923W        W20183  21.529  43.310  14.842
47924W        W20184  38.825  15.735  11.109
47925W        W20185  12.640  29.640  12.440
47926W        W20186  33.395  44.414   0.268
47927W        W20187  43.385  32.480  12.826
47928W        W20188  15.599  40.893   1.359
47929W        W20189   0.331   6.689  12.396
47930W        W20190  25.972  42.985  14.304
47931W        W20191  36.503  43.365   0.834
47932W        W20192  23.713  21.587  13.964
47933W        W20193  11.856   1.872   3.656
47934W        W20194  15.131   3.932  14.497
47935W        W20195  18.681   7.235   3.147
47936W        W20196  38.549  32.403  12.933
47937W        W20197  44.841  30.072   3.292
47938W        W20198  36.092  37.423   4.199
47939W        W20199  20.264  26.044   2.833
47940W        W20200   4.206  10.653   1.262
47941W        W20201  30.047   2.347  10.967
47942W        W20202  25.212   4.699  13.941
47943W        W20203  33.082  36.951  10.555
47944W        W20204   7.909  24.100  14.323
47945W        W20205  17.679  19.174  13.486
47946W        W20206  33.087  33.473  12.825
47947W        W20207  37.979   9.663   3.719
47948W        W20208  40.311   6.357  13.020
47949W        W20209   2.337  44.278   3.636
47950W        W20210  39.932   8.830   3.741
47951W        W20211  35.458  38.431   4.226
47952W        W20212   0.315  43.900   2.350
47953W        W20213  10.172  29.001   4.667
47954W        W20214   0.385  33.073   2.903
47955W        W20215  14.228  25.539   0.313
47956W        W20216   0.939   5.845  14.814
47957W        W20217  23.995  22.073  10.465
47958W        W20218  36.936  16.610  13.332
47959W        W20219  39.338  22.225   0.883
47960W        W20220  34.865  22.557   3.336
47961W        W20221   1.754  24.108  13.449
47962W        W20222  28.496  22.017  11.011
47963W        W20223  14.791  22.659   1.289
47964W        W20224  15.690   9.821   4.756
47965W        W20225  15.602   6.423   5.139
47966W        W20226   6.293  19.061   2.814
47967W        W20227  35.985  41.030  12.498
47968W        W20228  37.451  13.170   4.260
47969W        W20229  32.491  12.640  13.429
47970W        W20230  25.003  15.769   1.907
47971W        W20231  38.868  37.446   5.256
47972W        W20232   1.760  27.058  11.881
47973W        W20233  36.940  23.240  10.937
47974W        W20234  35.512  40.316  13.543
47975W        W20235  25.143  16.136  11.052
47976W        W20236  25.194  35.538  11.538
47977W        W20237  32.905  29.986   1.872
47978W        W20238  36.431  34.489   1.289
47979W        W20239  21.047  32.896   1.877
47980W        W20240  11.138   0.795  14.503
47981W        W20241  11.850  15.712   3.331
47982W        W20242  44.808  39.544  12.404
47983W        W20243  20.091  22.056  13.450
47984W        W20244   3.819  25.565  14.911
47985W        W20245   5.329   6.805   4.180
47986W        W20246  11.351   1.770  12.415
47987W        W20247  14.205  38.433   4.223
47988W        W20248  32.017  34.917  11.018
47989W        W20249   5.691  29.429   3.256
47990W        W20250  41.022  26.099   4.642
47991W        W20251  19.109  34.392   2.204
47992W        W20252   1.366  18.766  11.576
47993W        W20253  12.208   2.457   4.154
47994W        W20254  14.794  37.030   0.921
47995W        W20255  23.038  26.640   1.761
47996W        W20256  33.037   9.324   0.451
47997W        W20257  35.953  37.504  12.018
47998W        W20258  41.495  37.044   2.381
47999W        W20259  25.483  41.918   1.727
48000W        W20260  20.724  12.666  11.466
48001W        W20261  44.788  19.555   3.694
48002W        W20262  34.585  39.444   3.752
48003W        W20263  28.981  44.357   1.915
48004W        W20264   1.386  25.569   4.334
48005W        W20265   4.211  23.518   4.780
48006W        W20266  42.823  14.815  10.543
48007W        W20267  18.742   0.494  10.085
48008W        W20268  42.431  15.234  14.847
48009W        W20269   5.754   9.726  11.014
48010W        W20270  44.854  10.730   4.765
48011W        W20271  20.572  10.230  14.502
48012W        W20272   8.179  30.563   1.904
48013W        W20273  34.551  10.854   1.908
48014W        W20274  31.440  17.280   2.187
48015W        W20275  20.722  36.935  11.882
48016W        W20276  39.006  22.197   3.829
48017W        W20277  28.943  37.510   1.374
48018W        W20278  37.512  34.018  13.009
48019W        W20279  16.093  42.863   3.169
48020W        W20280   0.276   2.432   1.928
48021W        W20281  12.239  34.877   0.848
48022W        W20282   4.208  44.763   1.373
48023W        W20283  18.184  33.991   3.153
48024W        W20284   4.244   7.331  14.487
48025W        W20285   3.343  15.681  14.028
48026W        W20286  20.156  32.477   3.198
48027W        W20287  14.813  18.232   1.725
48028W        W20288  42.469  37.430   1.888
48029W        W20289  20.132   3.918  12.984
48030W        W20290  33.118  39.344   4.120
48031W        W20291  28.945  36.471  14.795
48032W        W20292  11.238  32.024  14.916
48033W        W20293  40.921   6.838   2.696
48034W        W20294  29.005  25.998  13.023
48035W        W20295  40.534  25.983  12.979
48036W        W20296  25.648   1.764   1.302
48037W        W20297  20.748  25.192  12.916
48038W        W20298   7.261   2.747  13.959
48039W        W20299  44.843  31.409  14.456
48040W        W20300  27.478   5.328   2.726
48041W        W20301  40.348  29.609   0.799
48042W        W20302  44.966  28.071  10.460
48043W        W20303  27.631   6.377   3.369
48044W        W20304  44.381  40.021  14.471
48045W        W20305  30.975   7.411   3.789
48046W        W20306  21.577  27.077  14.418
48047W        W20307   2.799  15.156   0.840
48048W        W20308  28.068   3.458   5.088
48049W        W20309  27.969  10.720   2.900
48050W        W20310  18.607  30.547   2.672
48051W        W20311  24.553  13.763   4.707
48052W        W20312  40.041  26.113   4.298
48053W        W20313   8.710  25.644   3.188
48054W        W20314   7.303  29.553  13.970
48055W        W20315   3.885  38.544  13.965
48056W        W20316   3.400  32.617   0.397
48057W        W20317   7.269  12.678  12.035
48058W        W20318   8.841  29.428   3.714
48059W        W20319  33.028  39.054   3.151
48060W        W20320  11.245  15.720   1.368
48061W        W20321  39.397  33.094  11.479
48062W        W20322  22.201  14.184   1.725
48063W        W20323  33.515  29.925  14.827
48064W        W20324  23.641  37.499   0.831
48065W        W20325  21.064  44.424   3.240
48066W        W20326  15.674   3.286  10.449
48067W        W20327  25.544  36.518   4.220
48068W        W20328  31.049  11.770   2.768
48069W        W20329  31.638  27.998   4.250
48070W        W20330   5.928   7.297  10.542
48071W        W20331  16.803  16.165  12.510
48072W        W20332   2.271  13.144  12.480
48073W        W20333  41.388   7.772  13.967
48074W        W20334  36.369  14.757   3.841
48075W        W20335  23.644  16.651   4.172
48076W        W20336   8.314  34.907   2.295
48077W        W20337  38.911   5.743   0.765
48078W        W20338  23.619   2.353   3.191
48079W        W20339  42.335  22.169  14.935
48080W        W20340  41.855  40.308  14.493
48081W        W20341  41.520  31.469   3.857
48082W        W20342  38.944  32.135   2.224
48083W        W20343  34.118  20.182  10.522
48084W        W20344  25.627  20.192   3.766
48085W        W20345  27.988  36.953  11.586
48086W        W20346   4.360   7.235  12.572
48087W        W20347  18.091  28.012   3.674
48088W        W20348  20.240  17.609  10.915
48089W        W20349  32.610  37.547   1.354
48090W        W20350  41.853  29.446   0.917
48091W        W20351  38.979   6.261   0.781
48092W        W20352  31.016  28.054   1.347
48093W        W20353  30.045  29.157  13.019
48094W        W20354  42.021  13.782   2.863
48095W        W20355   2.776   9.725  13.459
48096W        W20356   5.408  27.973  14.460
48097W        W20357  18.546  41.948   4.264
48098W        W20358  22.612  18.662   0.880
48099W        W20359  43.788   3.824  14.801
48100W        W20360  40.909  39.515   0.841
48101W        W20361  15.615  41.919   2.210
48102W        W20362  24.670  25.503  14.400
48103W        W20363  11.303  22.242   2.890
48104W        W20364  21.697  26.046   3.751
48105W        W20365   4.280   4.252   1.736
48106W        W20366  31.965  12.754  13.036
48107W        W20367  25.069   8.727   4.785
48108W        W20368  31.597  41.826  13.412
48109W        W20369   7.391  25.700  13.968
48110W        W20370  39.991  41.838   1.390
48111W        W20371  25.663  25.185  13.329
48112W        W20372  42.835   5.801   3.199
48113W        W20373  35.047  14.731  14.893
48114W        W20374  41.996  40.807   0.748
48115W        W20375  15.104  16.283   0.920
48116W        W20376  29.568  28.640   4.296
48117W        W20377  41.837   0.765   4.691
48118W        W20378  12.841  42.360  11.075
48119W        W20379  14.702   8.378  14.353
48120W        W20380  11.356  36.874   0.410
48121W        W20381  31.645  31.945   3.237
48122W        W20382  44.312  43.515   0.433
48123W        W20383  18.130  25.082   3.269
48124W        W20384   1.791   4.303  12.550
48125W        W20385   5.421  29.554   4.788
48126W        W20386  10.378  22.174   1.897
48127W        W20387   7.690  40.454  10.631
48128W        W20388  39.373  16.619  11.604
48129W        W20389  37.041  41.839  12.029
48130W        W20390   1.922  35.454   1.841
48131W        W20391   5.279  41.405  14.342
48132W        W20392  15.306  36.894  14.492
48133W        W20393  28.165  42.946  14.018
48134W        W20394   6.348  28.184   0.738
48135W        W20395  34.480   0.404  11.608
48136W        W20396  35.462  20.693   5.748
48137W        W20397   9.661  15.279   0.856
48138W        W20398  35.015  11.764   2.354
48139W        W20399   5.750  29.126  13.002
48140W        W20400  35.998  15.134  11.051
48141W        W20401  38.487  24.671  12.851
48142W        W20402   4.830  32.595  12.385
48143W        W20403  32.551  16.656   4.196
48144W        W20404   9.852  25.714   0.369
48145W        W20405  13.182  22.138   2.669
48146W        W20406  17.602  21.019  14.285
48147W        W20407   9.339  28.463   0.951
48148W        W20408  41.900   8.671   0.377
48149W        W20409  23.105   1.311   2.758
48150W        W20410  42.981  43.490  11.882
48151W        W20411  28.458  20.537  10.574
48152W        W20412  29.104  43.770  12.896
48153W        W20413  13.232  13.802   2.769
48154W        W20414  26.190  15.775   1.827
48155W        W20415   8.363  24.053   2.407
48156W        W20416  16.089  31.644  13.343
48157W        W20417  42.003  22.157   4.194
48158W        W20418  42.011  17.151   0.352
48159W        W20419   7.173   7.356   4.353
48160W        W20420  37.066   5.897   1.391
48161W        W20421  15.270  35.595   1.740
48162W        W20422  44.800   6.811   1.426
48163W        W20423  25.624  32.589   0.447
48164W        W20424  14.132  27.498   2.682
48165W        W20425  21.570  18.209  11.031
48166W        W20426  26.519  19.096   3.747
48167W        W20427  16.094  19.208   2.246
48168W        W20428  38.391  36.422  11.595
48169W        W20429  10.324  13.286   2.898
48170W        W20430  32.130  32.032  14.956
48171W        W20431  17.714  18.121   2.210
48172W        W20432   8.850  37.866  14.421
48173W        W20433  33.618   0.267  12.442
48174W        W20434  15.290  43.975   1.706
48175W        W20435  38.945  12.118  14.435
48176W        W20436  38.511  14.215  12.067
48177W        W20437  15.224   0.327   0.445
48178W        W20438  18.091  15.817  10.489
48179W        W20439  32.460  16.263   0.477
48180W        W20440  17.204  23.230   4.624
48181W        W20441  30.928  28.444   1.289
48182W        W20442  33.068  10.751  14.303
48183W        W20443  36.882  22.660   2.810
48184W        W20444   8.329  10.256  11.882
48185W        W20445   6.920  10.314  13.935
48186W        W20446  26.683  29.626  14.786
48187W        W20447   5.788  13.164   1.919
48188W        W20448  12.728  28.172   0.317
48189W        W20449  35.948  23.235   4.694
48190W        W20450  14.809  29.622   0.323
48191W        W20451   6.687  24.509  12.416
48192W        W20452  44.269   1.382  12.876
48193W        W20453  17.740  19.709   0.735
48194W        W20454   4.919   7.286  11.585
48195W        W20455  13.812  22.594   2.331
48196W        W20456  24.030  10.807  11.003
48197W        W20457  39.536   5.379  13.810
48198W        W20458  24.008  23.121  14.319
48199W        W20459   5.899   4.725  12.508
48200W        W20460  16.573  13.178   4.781
48201W        W20461  32.923  16.689  14.931
48202W        W20462  31.595  20.263  12.449
48203W        W20463  39.371   6.895   4.205
48204W        W20464  14.790  35.065   4.217
48205W        W20465   0.987   5.268   1.929
48206W        W20466  10.847  25.542  13.012
48207W        W20467  30.464  20.219   0.897
48208W        W20468   1.380  15.257   3.781
48209W        W20469  31.912  40.386  12.382
48210W        W20470   5.273  21.242  13.496
48211W        W20471  10.166  44.412   4.289
48212W        W20472  21.160  13.123  11.916
48213W        W20473  10.262  41.874   1.930
48214W        W20474  26.985  11.818  13.057
48215W        W20475  12.677   3.362   0.294
48216W        W20476  26.652   4.913  13.533
48217W        W20477   4.908  34.495   1.347
48218W        W20478  43.932  37.414  11.387
48219W        W20479  44.459  43.916   1.327
48220W        W20480  41.835  15.111   3.178
48221W        W20481  39.319   9.667  14.463
48222W        W20482  19.196  31.945   4.120
48223W        W20483  38.343  17.098  11.925
48224W        W20484   2.917  41.484   0.959
48225W        W20485  22.690   5.368  10.546
48226W        W20486  42.364   0.887   4.683
48227W        W20487  12.640  39.449  12.059
48228W        W20488   1.296  38.835  14.023
48229W        W20489  27.122  10.227  12.875
48230W        W20490  17.069   5.781   3.295
48231W        W20491  11.277  34.429  12.852
48232W        W20492  26.014  31.476   2.807
48233W        W20493   1.350  26.059  13.370
48234W        W20494  11.793  21.043  11.973
48235W        W20495  42.976  30.621   0.923
48236W        W20496  12.647  15.217  10.152
48237W        W20497  37.047  19.237   1.793
48238W        W20498  15.702  21.172  10.901
48239W        W20499   0.325  31.919  11.519
48240W        W20500  38.411  40.829  14.359
48241W        W20501  32.020   5.689  11.967
48242W        W20502  13.695  15.661  12.834
48243W        W20503  36.965  30.054   3.148
48244W        W20504  17.702  35.887   4.826
48245W        W20505  27.952  30.490   4.194
48246W        W20506  20.589  17.080   0.928
48247W        W20507   2.315   8.352   0.387
48248W        W20508  20.600  30.971   2.880
48249W        W20509  26.130  39.957  13.423
48250W        W20510  43.506  17.086  13.391
48251W        W20511  19.569  15.264  14.388
48252W        W20512  29.460  17.558   0.963
48253W        W20513  38.969  31.558   1.337
48254W        W20514   0.981   0.787  12.554
48255W        W20515  41.478  38.537  14.774
48256W        W20516  14.202  42.930   2.188
48257W        W20517  12.303  42.323  11.446
48258W        W20518  40.857  12.333   1.314
48259W        W20519   0.353  33.481   0.478
48260W        W20520  11.634   3.378  14.406
48261W        W20521  20.086   3.294   4.695
48262W        W20522  19.666   8.223   3.147
48263W        W20523  41.532   6.254  12.934
48264W        W20524  18.078  36.019   3.172
48265W        W20525  22.682  12.343   2.364
48266W        W20526  21.519  44.971  14.839
48267W        W20527  30.595  22.738  11.984
48268W        W20528   4.283  13.697  12.561
48269W        W20529   6.773  33.410   4.732
48270W        W20530   4.412  32.934   3.812
48271W        W20531  17.715  24.511  11.579
48272W        W20532  15.623  40.306  13.962
48273W        W20533  12.216  25.588  14.509
48274W        W20534  44.798  33.088   4.174
48275W        W20535  37.456  15.176  14.338
48276W        W20536  24.569  18.574  13.325
48277W        W20537  32.490  27.572   3.757
48278W        W20538   4.411   5.908  14.364
48279W        W20539   6.397  44.270   5.189
48280W        W20540  27.466  42.317  12.914
48281W        W20541  23.224  10.802   3.735
48282W        W20542  16.571  34.113   3.705
48283W        W20543   6.223   0.290   0.328
48284W        W20544  44.955  13.335   4.727
48285W        W20545  16.267   3.852   2.846
48286W        W20546  44.267   4.838   2.773
48287W        W20547  11.840  36.520  12.554
48288W        W20548  29.642   4.450  11.557
48289W        W20549  12.618  38.909   1.342
48290W        W20550  24.660   5.773   4.789
48291W        W20551   4.230  31.637   3.671
48292W        W20552   2.304  15.097   4.832
48293W        W20553  41.522   6.251   0.954
48294W        W20554  21.206  28.590   1.385
48295W        W20555  13.825   1.281  11.381
48296W        W20556   0.981  42.521  12.518
48297W        W20557  30.983  12.326  14.829
48298W        W20558  19.234  33.877   1.379
48299W        W20559  26.087  16.072  12.340
48300W        W20560  26.198  40.534  12.842
48301W        W20561   4.243  25.563  13.497
48302W        W20562  35.870  43.890   1.368
48303W        W20563  28.070  33.915   2.874
48304W        W20564  35.419   8.768   1.377
48305W        W20565  44.765   6.243   0.257
48306W        W20566   6.771  43.980   3.762
48307W        W20567  37.919   1.377   4.688
48308W        W20568   3.899   6.369  11.441
48309W        W20569  10.368  19.098   0.826
48310W        W20570  28.076  32.543  11.411
48311W        W20571   2.311  43.308   4.348
48312W        W20572  30.157  36.964   3.840
48313W        W20573  27.503  18.779   2.663
48314W        W20574  39.499  34.600  10.480
48315W        W20575  43.961  21.538   2.902
48316W        W20576  27.626  44.369  11.952
48317W        W20577  39.405  25.195  13.406
48318W        W20578  15.322  37.448  12.570
48319W        W20579  16.710  13.651  11.883
48320W        W20580  33.889  41.025  13.335
48321W        W20581  29.092  20.073   1.832
48322W        W20582  39.363   0.980   0.381
48323W        W20583  14.791  14.199   2.852
48324W        W20584  29.043   4.350   3.861
48325W        W20585  34.443  41.797   2.182
48326W        W20586   3.936  42.898  11.584
48327W        W20587   6.410  13.217   4.195
48328W        W20588  38.036  15.309   0.331
48329W        W20589  44.928  17.093   1.375
48330W        W20590  23.539  18.149   0.857
48331W        W20591  15.249  13.256   1.896
48332W        W20592  16.296   4.722  12.394
48333W        W20593  42.391   6.282  13.547
48334W        W20594  28.058   8.293  13.480
48335W        W20595  23.019  29.534   4.717
48336W        W20596   8.779  22.072  12.537
48337W        W20597  35.543   2.799   2.829
48338W        W20598  33.429   0.489   1.765
48339W        W20599  36.983  22.177   2.739
48340W        W20600  37.940  35.977  11.569
48341W        W20601  17.180  10.378  13.969
48342W        W20602  21.147   8.235  14.788
48343W        W20603  25.708  37.446  10.037
48344W        W20604  18.559  39.348   2.302
48345W        W20605   7.668   4.285   2.753
48346W        W20606  16.686  22.519   2.817
48347W        W20607  40.917   8.243   2.413
48348W        W20608   6.330  25.964   1.716
48349W        W20609  37.540  36.454  14.913
48350W        W20610  24.044  27.570  12.571
48351W        W20611  42.912   1.843  13.527
48352W        W20612  43.800  32.071  10.605
48353W        W20613  39.484  40.834   4.185
48354W        W20614  44.977  20.187   3.682
48355W        W20615   5.919  44.356  10.482
48356W        W20616  16.314  42.990   0.261
48357W        W20617  35.068  13.237  12.909
48358W        W20618   3.315   1.964   4.228
48359W        W20619  24.202  17.670   4.130
48360W        W20620  34.940  25.963   1.319
48361W        W20621  10.234   7.826  14.440
48362W        W20622  27.153  40.316   3.793
48363W        W20623  14.624  27.494  11.537
48364W        W20624   2.294  28.930  14.023
48365W        W20625  15.674  22.180   0.416
48366W        W20626  41.836  30.038  13.517
48367W        W20627  14.779  14.185  13.450
48368W        W20628  38.384  19.778  13.923
48369W        W20629  44.375   2.804   0.802
48370W        W20630  34.555   5.868  11.516
48371W        W20631  35.494   2.402  12.427
48372W        W20632   8.862  31.447   1.398
48373W        W20633  32.946  42.366   2.399
48374W        W20634   9.659  23.514   2.374
48375W        W20635  21.602  32.888   0.773
48376W        W20636  40.836  14.637  11.880
48377W        W20637  15.708   9.693  14.507
48378W        W20638  18.616  19.049   4.779
48379W        W20639  36.481  14.197  14.849
48380W        W20640  18.645  39.010  14.995
48381W        W20641  29.526   6.809   2.200
48382W        W20642   4.313  30.013   2.304
48383W        W20643  35.924  30.573  11.040
48384W        W20644  38.007  13.242  14.331
48385W        W20645  22.729  10.760   1.291
48386W        W20646  28.041  32.623   0.883
48387W        W20647  34.866  29.976  13.910
48388W        W20648  12.167  27.541  11.550
48389W        W20649   5.277  30.083   2.867
48390W        W20650  12.751   1.955   1.779
48391W        W20651  37.963  11.856  14.862
48392W        W20652  17.697  41.791   3.729
48393W        W20653  22.060  28.022  10.006
48394W        W20654   2.324  21.560  11.385
48395W        W20655  24.979   7.349   2.767
48396W        W20656   5.320  30.613   1.933
48397W        W20657   8.726  38.846  12.054
48398W        W20658  43.492  25.976  12.384
48399W        W20659   0.763  30.625   2.764
48400W        W20660  41.820   7.839   0.863
48401W        W20661  42.400  13.694   1.392
48402W        W20662  38.912  18.703  14.888
48403W        W20663  36.347   1.425   0.256
48404W        W20664  18.590  19.774   5.101
48405W        W20665  40.332  19.775   0.958
48406W        W20666  26.657  28.450   1.390
48407W        W20667  30.002  30.986   4.691
48408W        W20668  18.072  10.832  10.429
48409W        W20669  27.556  27.147  12.494
48410W        W20670  25.182  26.198  13.992
48411W        W20671  40.022  11.745   4.142
48412W        W20672  29.166   7.345  11.427
48413W        W20673  25.166  42.027   1.272
48414W        W20674  19.588  15.765   1.760
48415W        W20675  25.191  24.065   4.118
48416W        W20676  13.328   7.751  14.799
48417W        W20677  43.773  42.450  12.855
48418W        W20678  39.387   9.248  11.045
48419W        W20679   4.774  28.076   1.909
48420W        W20680  23.145  28.612  13.953
48421W        W20681  24.182  35.898   2.842
48422W        W20682  15.746  25.655   3.269
48423W        W20683  36.505  21.606  10.505
48424W        W20684  18.745  13.126   2.797
48425W        W20685  17.171  44.287  13.395
48426W        W20686  13.814  41.528  14.476
48427W        W20687  22.729   6.907  11.002
48428W        W20688   9.218  10.755  11.375
48429W        W20689   4.759   2.410   4.245
48430W        W20690  41.011  17.201   4.253
48431W        W20691  36.461  10.861  11.461
48432W        W20692  17.292  40.379  12.479
48433W        W20693   7.773  26.030  12.978
48434W        W20694   1.774  40.327   1.840
48435W        W20695  25.669   2.336  12.953
48436W        W20696  39.979  32.492  11.550
48437W        W20697   9.324  19.663   4.785
48438W        W20698   0.415  30.151   1.328
48439W        W20699  10.718   8.229  14.830
48440W        W20700  37.866   7.412   1.294
48441W        W20701  35.599  25.520   2.699
48442W        W20702  32.539  36.370   0.443
48443W        W20703   2.899  10.800   3.850
48444W        W20704  29.024  29.935  13.472
48445W        W20705  43.276  27.940   0.837
48446W        W20706  15.766   9.229  13.515
48447W        W20707   0.832  32.979  14.380
48448W        W20708  14.804  38.480  13.064
48449W        W20709  29.026  38.419  10.913
48450W        W20710   3.913  43.353   1.287
48451W        W20711  35.034  35.907  10.590
48452W        W20712   7.282  34.581   4.146
48453W        W20713  29.153  10.734  11.523
48454W        W20714  27.043   1.403   0.250
48455W        W20715   8.836  22.560   1.268
48456W        W20716  27.192  13.336  12.943
48457W        W20717  33.957  41.893  10.487
48458W        W20718  20.542  14.792   4.214
48459W        W20719  31.606   7.335   2.253
48460W        W20720  23.095  15.660  10.436
48461W        W20721  13.133  33.993  13.967
48462W        W20722  37.385  32.015   4.640
48463W        W20723  16.283  10.713  12.472
48464W        W20724  26.142  16.256   4.815
48465W        W20725  20.184  16.172   3.252
48466W        W20726  15.684   8.769  11.009
48467W        W20727  31.084  12.644   3.266
48468W        W20728  18.705  26.110   2.189
48469W        W20729  36.964  12.306  14.425
48470W        W20730  33.425  18.635  13.309
48471W        W20731  13.182  34.870   1.935
48472W        W20732  14.670   7.388  12.378
48473W        W20733  38.492  39.353   1.365
48474W        W20734  32.536  14.122  12.918
48475W        W20735  14.724  23.079  13.479
48476W        W20736  26.560  16.703  10.047
48477W        W20737  39.528  35.408  13.479
48478W        W20738  32.053   2.773   3.294
48479W        W20739  23.099  35.407   2.188
48480W        W20740  31.908  32.094   2.240
48481W        W20741  26.985  20.622  11.041
48482W        W20742  12.833  19.158   0.362
48483W        W20743   8.220   0.323  12.081
48484W        W20744  40.806   8.391   4.251
48485W        W20745   0.479  36.993  11.072
48486W        W20746  23.724   4.264  13.842
48487W        W20747  20.672  14.288   1.264
48488W        W20748  26.656   8.663  14.456
48489W        W20749   1.956  39.947   3.220
48490W        W20750  13.692  11.733  13.885
48491W        W20751  34.966   4.361   1.729
48492W        W20752  44.424  41.030  13.822
48493W        W20753  42.442  40.347   4.798
48494W        W20754   4.727   1.968   0.956
48495W        W20755  44.404  18.216   2.260
48496W        W20756   6.879  21.572  12.555
48497W        W20757  42.008  13.205  11.569
48498W        W20758  26.161  15.241  13.391
48499W        W20759   6.333  34.070   1.882
48500W        W20760  11.695  11.748  12.902
48501W        W20761   4.709  30.636  12.428
48502W        W20762  43.772  23.096   2.745
48503W        W20763  31.067   8.874  13.034
48504W        W20764  20.080   8.167  11.452
48505W        W20765  10.653  32.479   3.324
48506W        W20766  12.345  42.285   2.384
48507W        W20767  37.508   6.848  10.435
48508W        W20768  26.579  10.724   0.340
48509W        W20769   5.262  36.040  13.952
48510W        W20770  24.627  36.543   4.789
48511W        W20771   2.399  13.671  14.965
48512W        W20772  30.159   2.248  11.520
48513W        W20773   3.775  29.990  12.529
48514W        W20774  27.970   0.864   4.720
48515W        W20775  44.492  26.694   0.338
48516W        W20776   4.423  37.360  12.870
48517W        W20777  43.498  19.725  13.500
48518W        W20778  40.440  43.803  14.838
48519W        W20779  41.538   5.296  14.975
48520W        W20780  20.626  37.533   2.768
48521W        W20781  34.068   7.309  13.410
48522W        W20782  40.832  20.633  12.037
48523W        W20783   8.331  39.507   1.855
48524W        W20784  35.919   9.702  11.869
48525W        W20785  26.518  25.627  14.803
48526W        W20786   5.433  43.438   2.724
48527W        W20787  11.792  42.779  11.525
48528W        W20788  16.590  19.156  10.536
48529W        W20789  20.565   9.733   2.892
48530W        W20790  44.398  39.474  10.642
48531W        W20791  44.839  12.623  14.965
48532W        W20792  37.879  24.125  14.834
48533W        W20793  43.938  37.001  12.375
48534W        W20794  16.627   2.370   2.211
48535W        W20795   7.786   2.416  14.422
48536W        W20796  27.569  19.734   2.897
48537W        W20797   7.769  13.279  14.510
48538W        W20798   0.365   6.699  12.001
48539W        W20799   9.673  20.249   3.748
48540W        W20800  24.546  30.619   1.799
48541W        W20801  31.525  16.804   3.727
48542W        W20802  35.001  44.276  14.788
48543W        W20803  38.382  41.457  11.401
48544W        W20804  36.023  13.713   1.296
48545W        W20805  26.997   9.178  13.374
48546W        W20806  10.645  18.767   4.727
48547W        W20807  42.343  25.966  14.898
48548W        W20808  23.522  26.139   0.345
48549W        W20809   2.288   4.793  13.007
48550W        W20810  18.702  40.847   0.384
48551W        W20811  38.932  13.315   1.329
48552W        W20812  18.762  37.042   0.880
48553W        W20813  17.586   6.725   4.736
48554W        W20814   1.392   0.852   4.276
48555W        W20815   5.245  28.007  10.613
48556W        W20816  35.369  11.160   1.756
48557W        W20817  34.891  36.418   2.701
48558W        W20818  22.542   2.737   0.883
48559W        W20819  39.530  18.696  10.438
48560W        W20820  21.214  25.474   0.879
48561W        W20821   2.369  14.302  11.911
48562W        W20822   9.801  14.733  13.459
48563W        W20823  20.037  42.850   0.346
48564W        W20824  26.139  42.452  10.120
48565W        W20825  44.875  25.510   3.252
48566W        W20826  35.418  21.067   5.738
48567W        W20827  23.522   1.820  13.813
48568W        W20828  10.169  29.983   3.822
48569W        W20829  25.559   0.472   2.181
48570W        W20830  33.887  28.974   3.719
48571W        W20831  33.903  40.967   4.639
48572W        W20832  42.522  34.984  12.879
48573W        W20833  41.837  19.564   1.392
48574W        W20834  32.916  12.156  13.392
48575W        W20835  21.621   9.809   2.314
48576W        W20836   5.852  17.577  13.962
48577W        W20837  20.528  38.375  14.395
48578W        W20838  22.714   1.958  13.973
48579W        W20839   8.181  40.503  12.349
48580W        W20840  25.703  42.890  12.061
48581W        W20841  11.737  21.131   3.333
48582W        W20842  22.078  13.600  12.453
48583W        W20843  28.069   5.228  12.081
48584W        W20844  42.333  27.465   1.229
48585W        W20845   1.839   6.328   2.850
48586W        W20846  42.417  31.455   2.259
48587W        W20847  28.615  16.225   4.646
48588W        W20848  35.009  21.032  12.349
48589W        W20849   6.381  41.029   0.341
48590W        W20850  36.090  18.214  10.084
48591W        W20851  17.088  40.965   1.278
48592W        W20852   4.298  34.481   2.266
48593W        W20853  37.056   0.952   4.804
48594W        W20854  11.822  22.719   0.281
48595W        W20855  40.870   7.239   1.800
48596W        W20856  26.628  32.426   4.351
48597W        W20857  37.977  10.706  13.309
48598W        W20858   5.776   3.818  13.949
48599W        W20859  14.772  25.012   4.350
48600W        W20860   1.353  44.355  12.451
48601W        W20861  29.609  26.501   3.238
48602W        W20862  21.142  10.632  11.887
48603W        W20863  21.545  14.758   0.807
48604W        W20864  18.550  16.678  11.604
48605W        W20865  40.319  21.672  11.588
48606W        W20866  32.455   5.301  12.371
48607W        W20867  35.381  16.739   2.799
48608W        W20868  32.537  13.293   4.272
48609W        W20869  44.357   1.356   3.161
48610W        W20870  38.059  25.488  13.321
48611W        W20871  37.895   4.349   3.654
48612W        W20872  31.449   1.365  13.003
48613W        W20873   2.830  40.953  11.508
48614W        W20874  11.173   4.255   4.165
48615W        W20875  37.391  26.042  13.334
48616W        W20876  33.467   7.302  14.481
48617W        W20877  23.102  41.994   3.663
48618W        W20878  43.961  33.435  11.875
48619W        W20879  33.993  33.550  13.411
48620W        W20880   7.702  40.811  10.529
48621W        W20881  23.704  28.575   4.652
48622W        W20882  36.015  44.389   5.221
48623W        W20883   1.760  44.893   4.152
48624W        W20884  17.561  20.121  10.611
48625W        W20885  44.005  20.193  12.550
48626W        W20886   5.800  21.137   2.703
48627W        W20887  41.037   9.321  13.312
48628W        W20888  36.052  14.228  12.843
48629W        W20889  28.096  38.570   2.249
48630W        W20890   2.871  42.394  12.534
48631W        W20891  36.419   4.412   0.791
48632W        W20892  16.151  16.700  13.003
48633W        W20893  21.133  15.180   4.783
48634W        W20894  18.255   9.779   4.679
48635W        W20895  18.636  32.573  14.972
48636W        W20896  19.068  16.628   3.664
48637W        W20897  12.786  33.003   2.393
48638W        W20898  10.150  40.840   2.206
48639W        W20899   0.751  27.527   4.139
48640W        W20900  33.392  22.087   2.747
48641W        W20901  35.943  36.959   4.688
48642W        W20902  44.802  10.381   2.753
48643W        W20903   8.680   3.425   1.338
48644W        W20904   4.874  35.106  12.894
48645W        W20905  39.450  32.114   1.823
48646W        W20906  24.165  16.204  11.054
48647W        W20907  37.958  22.164  11.075
48648W        W20908  13.270  15.202   5.120
48649W        W20909  13.207   4.259  10.550
48650W        W20910  28.008   3.776   4.640
48651W        W20911   4.758  13.238  14.981
48652W        W20912   5.277  29.563  14.446
48653W        W20913  29.986  38.821   4.686
48654W        W20914  13.734  20.585   4.821
48655W        W20915  40.904  36.535  14.031
48656W        W20916  44.472  24.141   1.823
48657W        W20917  32.094  40.868   0.772
48658W        W20918  11.244  13.274   3.366
48659W        W20919  10.717  12.768  11.543
48660W        W20920  19.640  13.314  13.830
48661W        W20921   4.301  10.183   2.380
48662W        W20922  27.488  38.033   3.381
48663W        W20923  34.979  28.435  10.496
48664W        W20924   1.881  21.738  14.408
48665W        W20925  34.878  22.039   3.750
48666W        W20926  18.208  19.576  10.910
48667W        W20927  28.060  32.046  13.420
48668W        W20928  10.793   1.246   3.170
48669W        W20929   3.938  10.819  14.441
48670W        W20930   4.407  22.709   0.479
48671W        W20931  22.685  36.500   1.248
48672W        W20932  19.580   3.920   1.320
48673W        W20933   9.826  38.042   2.238
48674W        W20934   1.460  19.089   3.200
48675W        W20935  14.693  22.235  10.641
48676W        W20936   6.234  34.903   0.915
48677W        W20937  12.247  29.500   4.137
48678W        W20938  44.835  42.376   2.253
48679W        W20939  32.397   1.400   3.665
48680W        W20940  33.026  18.753  11.420
48681W        W20941  28.545   3.245   3.721
48682W        W20942  27.042  17.282   0.301
48683W        W20943  16.586  34.384   0.830
48684W        W20944  12.222  10.288  14.784
48685W        W20945  36.999  33.557   3.663
48686W        W20946  23.108  32.071  14.278
48687W        W20947   5.776  16.172  13.950
48688W        W20948   6.680  32.539  13.425
48689W        W20949  28.674  40.373  14.771
48690W        W20950  27.943  25.049  11.444
48691W        W20951  29.083  25.618   1.268
48692W        W20952   1.934  31.109   3.371
48693W        W20953   7.877  18.157   4.738
48694W        W20954  39.359  33.421  12.995
48695W        W20955  26.124   8.720   2.837
48696W        W20956  41.395  20.168   1.833
48697W        W20957  22.674   6.195   2.374
48698W        W20958   4.701  25.059   4.239
48699W        W20959   1.852  35.075   0.750
48700W        W20960  28.640  34.885   3.332
48701W        W20961  38.447  28.057  14.835
48702W        W20962  24.658  15.683   1.927
48703W        W20963  18.568  28.596  10.553
48704W        W20964  31.969  39.485   0.296
48705W        W20965  14.179  17.259   5.217
48706W        W20966  34.865  28.986   9.970
48707W        W20967  20.567   0.840   3.342
48708W        W20968  17.564  39.820   4.825
48709W        W20969   2.252  10.318   1.397
48710W        W20970  34.583  19.249   3.258
48711W        W20971  32.135  29.118  12.990
48712W        W20972   3.313   5.273  13.527
48713W        W20973   9.721  28.942   4.643
48714W        W20974  12.320  27.157  11.123
48715W        W20975  15.132  26.152   1.335
48716W        W20976  26.151  26.602  10.141
48717W        W20977   7.731  35.057  10.515
48718W        W20978   8.248  22.709   0.937
48719W        W20979  39.544  10.359   5.199
48720W        W20980  27.497   3.342   1.760
48721W        W20981  44.469   4.412  13.866
48722W        W20982   3.372  42.912  10.563
48723W        W20983  10.853  22.242  14.472
48724W        W20984  13.295   0.922   1.304
48725W        W20985  28.479  22.081   4.778
48726W        W20986  19.116  33.996  10.911
48727W        W20987  38.567   1.844   4.176
48728W        W20988  32.073  36.046  13.928
48729W        W20989  44.809   2.734  11.874
48730W        W20990  37.531  12.682   2.289
48731W        W20991  24.707  25.155  13.028
48732W        W20992  25.124  37.486   3.711
48733W        W20993  32.930  27.560   3.365
48734W        W20994  34.584  31.048   3.245
48735W        W20995  10.680  43.939   2.687
48736W        W20996  19.075  21.659   0.433
48737W        W20997   8.658   9.765  11.440
48738W        W20998  18.293  33.994  10.552
48739W        W20999  37.373   9.864   0.949
48740W        W21000  19.777   6.199   3.362
48741W        W21001   3.256  15.101   0.797
48742W        W21002   6.804   3.915  10.433
48743W        W21003  21.695  16.762  14.866
48744W        W21004  30.590  44.485   2.412
48745W        W21005  37.487  11.164  13.427
48746W        W21006  21.061   7.861  10.534
48747W        W21007   7.791  14.161  13.348
48748W        W21008  12.246  13.622   0.726
48749W        W21009  44.969  11.218  10.961
48750W        W21010  23.115  39.525   3.281
48751W        W21011  23.511  34.494  11.890
48752W        W21012  39.808  16.306   1.771
48753W        W21013  18.657  32.899  12.425
48754W        W21014   0.293   3.852  10.547
48755W        W21015   8.393  19.740   3.208
48756W        W21016  13.645  43.765  14.842
48757W        W21017   0.284  14.257  12.066
48758W        W21018   9.301  13.763  12.431
48759W        W21019  36.573  14.289   2.786
48760W        W21020   4.788  28.536  14.284
48761W        W21021  43.947   2.390   0.354
48762W        W21022  13.149   8.350  12.346
48763W        W21023   4.312  37.572   4.234
48764W        W21024  23.106   1.936  14.434
48765W        W21025  34.373  36.037  12.924
48766W        W21026  28.531   3.918  12.959
48767W        W21027  41.361  38.047  13.827
48768W        W21028  10.789   5.361   3.326
48769W        W21029  38.370  24.139   3.370
48770W        W21030  14.166  22.569  14.456
48771W        W21031  18.156  40.507   4.733
48772W        W21032   7.275   1.860   1.340
48773W        W21033  18.653  43.893  14.812
48774W        W21034   8.390  28.158  12.555
48775W        W21035  13.818   5.819   1.724
48776W        W21036  35.441   7.247   3.324
48777W        W21037  23.054  38.845   0.379
48778W        W21038  11.640  40.528  10.419
48779W        W21039  12.818  36.851  12.509
48780W        W21040  22.611  17.125   4.153
48781W        W21041   8.893  23.181   1.924
48782W        W21042  41.501  23.116  10.622
48783W        W21043   4.262  41.454  14.891
48784W        W21044  11.725  42.923   0.389
48785W        W21045  22.154  11.789  10.564
48786W        W21046  13.638   6.802  13.507
48787W        W21047   8.278   3.795  14.789
48788W        W21048  44.856  32.626  14.362
48789W        W21049  27.630  42.487   2.279
48790W        W21050  22.035  33.593  12.408
48791W        W21051   5.276   9.262  13.996
48792W        W21052  14.779  41.319  12.871
48793W        W21053  25.126  13.826  11.029
48794W        W21054  28.138  13.676  13.822
48795W        W21055   3.387  14.166  12.084
48796W        W21056  31.563   9.680   3.805
48797W        W21057  19.150  29.970  10.942
48798W        W21058  12.716  22.206  14.378
48799W        W21059  10.353  12.615   2.781
48800W        W21060  41.476  23.115   1.417
48801W        W21061  43.935   7.307   3.832
48802W        W21062  17.258   5.370  11.034
48803W        W21063  19.181  34.026  13.439
48804W        W21064   5.930  10.769   4.758
48805W        W21065  41.953  18.721  11.995
48806W        W21066  26.957  23.115   4.742
48807W        W21067  21.084   6.755   3.771
48808W        W21068  14.698  43.423   0.863
48809W        W21069   6.220  38.025   0.444
48810W        W21070  35.970  41.483   4.823
48811W        W21071  38.008  23.689  11.019
48812W        W21072  31.402  39.502   0.444
48813W        W21073   6.209  24.562   0.351
48814W        W21074  36.035   4.907   2.873
48815W        W21075   0.820  36.083   0.243
48816W        W21076  18.094  34.584   0.461
48817W        W21077  39.503  28.603  14.880
48818W        W21078  20.687   1.806  13.520
48819W        W21079   4.773  26.502   4.229
48820W        W21080  39.888  27.083   1.881
48821W        W21081  26.560  25.615  11.954
48822W        W21082   2.756  24.595  14.791
48823W        W21083  26.695  18.762  10.462
48824W        W21084  41.815  35.528  13.810
48825W        W21085  19.767   0.855  10.953
48826W        W21086  14.267  39.874   0.287
48827W        W21087  19.632   1.773  14.339
48828W        W21088   2.799   7.667   3.679
48829W        W21089  27.659  32.454  11.911
48830W        W21090  13.174   3.882   2.263
48831W        W21091  44.464  24.020  11.978
48832W        W21092  23.531  37.394  12.825
48833W        W21093  41.011  13.844  10.566
48834W        W21094  29.953  38.408  13.032
48835W        W21095  36.362  43.801  13.858
48836W        W21096  28.635  13.161   4.339
48837W        W21097  40.442   7.339   2.378
48838W        W21098  13.234  26.535  10.160
48839W        W21099   9.651   6.390  11.994
48840W        W21100  31.628   3.413  14.014
48841W        W21101  19.046  15.298   2.859
48842W        W21102  23.670  25.147   0.903
48843W        W21103  43.372  37.367  10.528
48844W        W21104  10.226   2.341  13.465
48845W        W21105  36.953  25.052   0.911
48846W        W21106  36.041  28.606   1.895
48847W        W21107  26.085  24.660  12.402
48848W        W21108  22.144  10.799  14.855
48849W        W21109  17.184  36.545  10.579
48850W        W21110   0.827  40.521   4.149
48851W        W21111  35.466  20.704   5.282
48852W        W21112  21.085  34.922  13.536
48853W        W21113  40.859  26.459   3.164
48854W        W21114   1.330  21.711   0.363
48855W        W21115  21.058  39.854   0.752
48856W        W21116  44.341  20.599   1.325
48857W        W21117  29.609  17.251  11.984
48858W        W21118  16.587  38.069  13.352
48859W        W21119  34.421  14.779   4.609
48860W        W21120  14.753  23.996  11.880
48861W        W21121  15.136  38.959   4.764
48862W        W21122  16.133  35.581  12.963
48863W        W21123  17.120  25.553   4.236
48864W        W21124  16.646  22.723  12.517
48865W        W21125  33.453   7.333   2.707
48866W        W21126  38.410  11.317   1.761
48867W        W21127  19.234  38.350   1.834
48868W        W21128  28.146  26.122  10.970
48869W        W21129  35.034  36.042  14.397
48870W        W21130  21.758   1.358  13.449
48871W        W21131  43.304   5.369  14.826
48872W        W21132   8.310  13.208   0.754
48873W        W21133  16.660   4.941   3.663
48874W        W21134   4.740  29.629  10.623
48875W        W21135  26.608  28.980  14.277
48876W        W21136   6.391  40.863  12.845
48877W        W21137  10.831  10.179   2.194
48878W        W21138  30.627  25.517  14.998
48879W        W21139   6.189  44.003   2.870
48880W        W21140  30.989  26.645   2.327
48881W        W21141  27.675  32.537   2.252
48882W        W21142  16.318  44.387   3.641
48883W        W21143  11.669  34.471   2.266
48884W        W21144  10.216   6.393  14.918
48885W        W21145  41.926  33.877  10.963
48886W        W21146  23.515   4.873  14.508
48887W        W21147   0.804  20.054  10.930
48888W        W21148   7.277  18.246  12.357
48889W        W21149  21.517  18.066   2.855
48890W        W21150  40.977  33.111  10.963
48891W        W21151   2.339  13.730   2.282
48892W        W21152  32.922   6.741   2.734
48893W        W21153  10.253  31.904   1.737
48894W        W21154  38.010   0.837   1.868
48895W        W21155  22.611   3.220  10.887
48896W        W21156   9.299  13.642   4.672
48897W        W21157  22.160  15.720   2.769
48898W        W21158  17.637  31.443  12.403
48899W        W21159  34.873  28.006   2.853
48900W        W21160   4.312  23.660   1.259
48901W        W21161  28.589  13.154   1.397
48902W        W21162  18.242  31.613   2.281
48903W        W21163  37.955  23.734  14.782
48904W        W21164  38.532   1.901   1.787
48905W        W21165  24.614  30.032   0.940
48906W        W21166  42.334  15.657  11.898
48907W        W21167  28.007  23.599  14.014
48908W        W21168  12.363  28.453   5.709
48909W        W21169  10.269  36.036  14.299
48910W        W21170  14.188  29.624  13.950
48911W        W21171   1.431  31.436   2.360
48912W        W21172   5.834   1.867  11.086
48913W        W21173  30.075  22.120   2.353
48914W        W21174  37.918  37.470   4.318
48915W        W21175  42.317  23.667   1.320
48916W        W21176   7.253  30.989  10.898
48917W        W21177  20.555  16.075  12.490
48918W        W21178  13.332  19.640   0.900
48919W        W21179  11.233  21.616  14.024
48920W        W21180  28.007  14.221  14.835
48921W        W21181  26.990  43.333  11.936
48922W        W21182  17.094  34.901  13.443
48923W        W21183  10.701  37.363   5.278
48924W        W21184  12.830  16.605   1.775
48925W        W21185  30.642   1.872   4.320
48926W        W21186  14.669   2.764   1.254
48927W        W21187  38.417  24.125   1.900
48928W        W21188  35.004  24.038   2.298
48929W        W21189  40.817  19.589   0.464
48930W        W21190  33.463  35.382  10.612
48931W        W21191  15.689  12.612  10.897
48932W        W21192   3.405  33.514   4.704
48933W        W21193  27.547  43.319   1.289
48934W        W21194  11.756  20.640  10.488
48935W        W21195  31.089   3.746  10.510
48936W        W21196  17.567  29.512   4.838
48937W        W21197  40.410  31.521  12.441
48938W        W21198   4.336  10.303  13.809
48939W        W21199  10.839  41.497   3.306
48940W        W21200   0.327  34.116  14.483
48941W        W21201  17.259   4.777  14.863
48942W        W21202  10.190  32.474   5.172
48943W        W21203  13.186  44.368   4.281
48944W        W21204  12.334  23.224   2.711
48945W        W21205  15.314  37.842  14.842
48946W        W21206   8.838   1.877   2.288
48947W        W21207  31.004  40.997   1.704
48948W        W21208  21.249  19.568  13.821
48949W        W21209  22.504  24.067   4.241
48950W        W21210  33.479  32.485  14.876
48951W        W21211   3.711  30.571  11.430
48952W        W21212   4.907   2.319  13.984
48953W        W21213   2.821  25.544  13.900
48954W        W21214  42.385   2.417   4.314
48955W        W21215  19.107  22.086  13.797
48956W        W21216  15.717  27.124   2.220
48957W        W21217  13.260  39.013   5.251
48958W        W21218  30.023  14.734  10.454
48959W        W21219  41.990  35.008  11.942
48960W        W21220   2.378   0.418   0.420
48961W        W21221   1.832   9.675   4.221
48962W        W21222  33.439  21.556  13.865
48963W        W21223  19.594   3.755  14.419
48964W        W21224   5.884  33.443  11.082
48965W        W21225   3.322  33.465   2.891
48966W        W21226   7.256   5.790  10.971
48967W        W21227  24.672  19.774   0.298
48968W        W21228  39.388   1.351   1.802
48969W        W21229  21.512   6.410   1.874
48970W        W21230   7.825  29.082  12.348
48971W        W21231  38.985   4.741   3.764
48972W        W21232   7.775  33.414   4.161
48973W        W21233  43.900   3.279   1.718
48974W        W21234  10.707  12.285  12.937
48975W        W21235  41.970  15.725  11.979
48976W        W21236  31.986   3.301   1.776
48977W        W21237  37.841  34.109   4.703
48978W        W21238  19.617  15.268   1.716
48979W        W21239  36.405   5.310  12.084
48980W        W21240  38.983  17.293   4.268
48981W        W21241  20.540  36.541  11.891
48982W        W21242  21.258   2.924   4.765
48983W        W21243  16.719  37.444   2.398
48984W        W21244  43.295  35.053   4.279
48985W        W21245  11.782  20.729   2.854
48986W        W21246  37.573   4.418   3.169
48987W        W21247  14.285  20.694  14.481
48988W        W21248  36.442  43.820   1.744
48989W        W21249  12.124  26.615  10.450
48990W        W21250  32.585  31.590   0.943
48991W        W21251  11.725  39.551   2.299
48992W        W21252   3.865  12.298   4.804
48993W        W21253  14.686  14.197  13.899
48994W        W21254   1.890   0.357  12.068
48995W        W21255  14.147  25.187  14.795
48996W        W21256  43.300  18.100   3.827
48997W        W21257   0.856  36.041  14.850
48998W        W21258  23.624   5.254  13.915
48999W        W21259  42.779  14.623   2.320
49000W        W21260  29.544  22.590  14.950
49001W        W21261  15.777  44.005  11.540
49002W        W21262  12.718  13.602  11.127
49003W        W21263  41.945  29.043   5.249
49004W        W21264  35.986  39.949   0.335
49005W        W21265  30.152  19.213  14.328
49006W        W21266  34.910  33.078   1.383
49007W        W21267  14.744  24.667  10.899
49008W        W21268  33.964  28.147  11.568
49009W        W21269   7.208  30.132   0.752
49010W        W21270  13.833  33.384  14.970
49011W        W21271  11.725   1.741  14.959
49012W        W21272  27.038   1.440  11.088
49013W        W21273  40.871   9.695   4.672
49014W        W21274   0.321  30.048   3.291
49015W        W21275  34.413   5.727   4.118
49016W        W21276  21.056  27.478   2.748
49017W        W21277  11.703   6.708  14.424
49018W        W21278  40.399  41.340   9.979
49019W        W21279  10.633   6.211  10.418
49020W        W21280  32.045  11.694   0.466
49021W        W21281  42.999  39.049  14.419
49022W        W21282  18.108  37.368  14.439
49023W        W21283  38.355  23.178   3.635
49024W        W21284  43.369  13.255  11.399
49025W        W21285  17.088  14.276   3.685
49026W        W21286   4.401  10.249  13.411
49027W        W21287  31.956  15.787  14.784
49028W        W21288  29.037   3.284   1.897
49029W        W21289  14.709   5.934   2.372
49030W        W21290  28.142   6.246   1.902
49031W        W21291   3.416  22.211   3.788
49032W        W21292  16.709  13.290   3.279
49033W        W21293  23.654  20.555   3.864
49034W        W21294  16.092  26.087  14.010
49035W        W21295  26.982  34.554  14.803
49036W        W21296   3.837   8.661   1.214
49037W        W21297   6.258  12.239   3.724
49038W        W21298  23.669  44.331   4.318
49039W        W21299   6.903   6.359   0.771
49040W        W21300  25.475  30.654   1.280
49041W        W21301  16.784  28.044  12.384
49042W        W21302   5.386  23.205   0.346
49043W        W21303  25.103  19.715   0.477
49044W        W21304  23.003  13.209  14.461
49045W        W21305   8.887  21.634  12.381
49046W        W21306   5.820   7.294   3.863
49047W        W21307  24.022  17.073  13.548
49048W        W21308  19.256   5.779   0.292
49049W        W21309  43.801  14.096   3.207
49050W        W21310   1.378  17.277  11.558
49051W        W21311   8.888   2.422   0.824
49052W        W21312  26.644  16.618   1.740
49053W        W21313   9.644  43.820  12.872
49054W        W21314  33.415   4.232  13.999
49055W        W21315  41.479  23.036  13.815
49056W        W21316   0.799  39.431   4.130
49057W        W21317   1.329  37.902  13.531
49058W        W21318  43.296  30.627  14.880
49059W        W21319  22.543  28.556  14.936
49060W        W21320  24.144  41.405  11.939
49061W        W21321  22.624  29.998  12.488
49062W        W21322   0.258   3.247   2.287
49063W        W21323  29.021  35.476  13.891
49064W        W21324  27.653  21.587   1.311
49065W        W21325  12.842   2.869  13.981
49066W        W21326   5.836  40.001  13.986
49067W        W21327   4.429  14.103   0.346
49068W        W21328  38.847   7.245  11.539
49069W        W21329  31.480  25.661  12.917
49070W        W21330  25.034  40.986   4.811
49071W        W21331  42.392  16.149   4.815
49072W        W21332  13.748  15.325  13.962
49073W        W21333  29.961  43.337  11.893
49074W        W21334  18.638  36.989  13.954
49075W        W21335  26.074   5.906  14.438
49076W        W21336  17.601   3.455   3.381
49077W        W21337  29.121  26.577   3.656
49078W        W21338  40.403  25.473  10.903
49079W        W21339  18.729  42.309   4.121
49080W        W21340   9.186  35.862   2.850
49081W        W21341  11.202  36.377   4.663
49082W        W21342  42.499  30.946  14.401
49083W        W21343  25.577  24.625   4.601
49084W        W21344  42.789   2.394   3.263
49085W        W21345  19.555  28.536   0.941
49086W        W21346  28.486  41.377   3.774
49087W        W21347   6.753  28.567   5.138
49088W        W21348   2.784  22.680  12.894
49089W        W21349  36.422  25.678  11.071
49090W        W21350  25.089   1.794  10.452
49091W        W21351  18.718  38.553   4.326
49092W        W21352  29.090  13.121  11.087
49093W        W21353  20.625  14.103  14.373
49094W        W21354  17.625   7.345   2.704
49095W        W21355  20.205   3.286  10.498
49096W        W21356  20.565   9.854  12.503
49097W        W21357  23.140  35.897   2.794
49098W        W21358  37.862  27.161  10.941
49099W        W21359  42.349  18.559  14.949
49100W        W21360  13.804  31.506   1.231
49101W        W21361  24.112  26.632  11.465
49102W        W21362   6.330  20.174   0.418
49103W        W21363  37.902  24.138  13.366
49104W        W21364  14.253  14.736   2.350
49105W        W21365  31.455   6.211   2.387
49106W        W21366  32.633   7.862  13.886
49107W        W21367  18.764  31.477   2.266
49108W        W21368   8.866  35.573   1.358
49109W        W21369  35.378  29.551  13.453
49110W        W21370  18.087   1.836   3.785
49111W        W21371  13.222  27.197  10.611
49112W        W21372  36.057  42.366  14.027
49113W        W21373  33.912  23.671   0.759
49114W        W21374  22.243  19.714   0.945
49115W        W21375  20.688  24.516  12.541
49116W        W21376  22.252   9.279  12.888
49117W        W21377  13.168  42.349   0.472
49118W        W21378  38.924  19.591   4.602
49119W        W21379   2.453  44.816   0.452
49120W        W21380  19.164  39.407  10.903
49121W        W21381  28.655  39.326   0.401
49122W        W21382  10.247  15.589   3.188
49123W        W21383  18.735  33.107   1.837
49124W        W21384  33.892  12.652   3.187
49125W        W21385   2.455  43.482   0.464
49126W        W21386   9.684  43.385   1.249
49127W        W21387  33.010  22.708  13.898
49128W        W21388  16.098   2.468   0.844
49129W        W21389  30.132  34.493   0.303
49130W        W21390  41.462  24.578   3.360
49131W        W21391   4.350   4.872  14.008
49132W        W21392  35.570  19.234  14.401
49133W        W21393  19.047   2.253   3.210
49134W        W21394  18.219  36.374   4.305
49135W        W21395  18.719  36.972  12.049
49136W        W21396  28.626  26.207  12.404
49137W        W21397  43.964  36.094   3.712
49138W        W21398  42.823  35.874   2.325
49139W        W21399  36.901  14.244   0.860
49140W        W21400  44.961   4.754   4.257
49141W        W21401  40.478   7.275   2.852
49142W        W21402  42.303  35.940  13.934
49143W        W21403  12.302  12.718   0.278
49144W        W21404  36.091  21.563   1.761
49145W        W21405  37.404   2.956  13.007
49146W        W21406  32.971  35.090  14.488
49147W        W21407   8.716  18.159   0.870
49148W        W21408  22.042   7.183  11.913
49149W        W21409  27.550   7.903  11.516
49150W        W21410  20.227  39.017   3.776
49151W        W21411  33.123  24.652  11.472
49152W        W21412  22.561   6.796  14.344
49153W        W21413   4.915  31.486   1.335
49154W        W21414  20.692  32.601  12.368
49155W        W21415  31.548  41.020  12.018
49156W        W21416  10.737  33.499   1.743
49157W        W21417  44.362  27.040  12.430
49158W        W21418  36.580  26.558  11.040
49159W        W21419  42.791  16.245  13.019
49160W        W21420   4.294  29.491  12.376
49161W        W21421   7.338  27.545  13.941
49162W        W21422  29.979  31.518  12.831
49163W        W21423  44.981  13.115  12.483
49164W        W21424  19.535  29.927  13.010
49165W        W21425   9.258   1.954  13.532
49166W        W21426  35.593  33.474   4.611
49167W        W21427  26.567  26.994  14.814
49168W        W21428   3.736  43.791  14.446
49169W        W21429  18.192  10.326   4.335
49170W        W21430  14.101  33.545  11.968
49171W        W21431  18.681  37.892   3.199
49172W        W21432  26.194   7.861  11.037
49173W        W21433  38.442   4.258   1.210
49174W        W21434  35.995  39.559   4.212
49175W        W21435  21.637   4.237   1.894
49176W        W21436  30.652   3.233   2.412
49177W        W21437  40.003  13.214  12.922
49178W        W21438   0.783  23.551  13.978
49179W        W21439  18.594  26.564  12.089
49180W        W21440  39.023  19.232   2.399
49181W        W21441  40.339  31.904   0.918
49182W        W21442   1.257  13.325   3.150
49183W        W21443   1.460  37.984  12.389
49184W        W21444  33.875   1.410  11.539
49185W        W21445   1.753  29.927  12.392
49186W        W21446  20.703  18.694  11.442
49187W        W21447  17.064  14.660  11.891
49188W        W21448  20.735  24.625  14.399
49189W        W21449  20.703  23.658  10.608
49190W        W21450  12.232  20.595   1.707
49191W        W21451  10.663  36.058  13.861
49192W        W21452  27.094   4.384   3.827
49193W        W21453  17.673  36.429   0.388
49194W        W21454  40.345  33.420   1.398
49195W        W21455  15.125  25.005  14.797
49196W        W21456  22.182  24.010  10.532
49197W        W21457  16.711  36.079   2.751
49198W        W21458  41.034  30.444  11.041
49199W        W21459  20.617  11.260   0.426
49200W        W21460  36.976  32.412  14.281
49201W        W21461  17.217  30.449   1.805
49202W        W21462  15.700  35.466   3.699
49203W        W21463   5.318  18.118   5.144
49204W        W21464  10.794  30.109  13.048
49205W        W21465  30.017  10.148  11.570
49206W        W21466  44.439  36.538   2.411
49207W        W21467   4.797  33.010  12.877
49208W        W21468   9.267  22.208   1.909
49209W        W21469   7.781   1.274  13.371
49210W        W21470  12.321  24.062  10.579
49211W        W21471  15.744  17.677   0.880
49212W        W21472  29.084  27.475  11.473
49213W        W21473  15.278  43.485   2.200
49214W        W21474  35.506   5.819   0.343
49215W        W21475   7.230  19.539   1.298
49216W        W21476  12.123  10.805  12.953
49217W        W21477   2.924  40.408  13.411
49218W        W21478  16.153  41.851   4.815
49219W        W21479  12.777   7.767   3.671
49220W        W21480  32.594  39.962   2.849
49221W        W21481   9.698   9.683   1.849
49222W        W21482  40.527  38.906   5.278
49223W        W21483  20.591  33.926   2.379
49224W        W21484  43.817  12.744   1.730
49225W        W21485  42.907  38.896  11.551
49226W        W21486  23.499  19.691   1.268
49227W        W21487  27.177  44.781  12.020
49228W        W21488   3.908  34.424   2.178
49229W        W21489  12.154   2.864  14.766
49230W        W21490  22.078  12.230   0.318
49231W        W21491  29.049   3.327  12.466
49232W        W21492  34.955  25.203  14.763
49233W        W21493  42.442  31.104  13.398
49234W        W21494   4.831  33.958   3.259
49235W        W21495  16.795  17.584  13.032
49236W        W21496   7.394  33.430  11.992
49237W        W21497  25.039  19.135  13.507
49238W        W21498  13.681   2.884  10.516
49239W        W21499  10.790  23.627  11.472
49240W        W21500  30.125   8.759  11.887
49241W        W21501  29.666  19.573  12.974
49242W        W21502   2.446  28.591  12.945
49243W        W21503  19.717   4.841   0.318
49244W        W21504  32.438  36.404   3.256
49245W        W21505  43.934  30.913  14.854
49246W        W21506  33.079  14.602  11.126
49247W        W21507  41.042  42.829   4.785
49248W        W21508  20.048  32.591  14.915
49249W        W21509  35.870  36.025   4.823
49250W        W21510  29.468  34.551   2.758
49251W        W21511  33.434   8.790  14.812
49252W        W21512  12.837   6.702  12.058
49253W        W21513  29.629  30.979  13.519
49254W        W21514   4.832  11.689  11.460
49255W        W21515  11.645  39.442  14.379
49256W        W21516  24.216   9.699  12.466
49257W        W21517   0.913  38.562   0.935
49258W        W21518  25.166  16.159  13.899
49259W        W21519   0.827  13.803   3.688
49260W        W21520   1.841  23.534  10.496
49261W        W21521  33.999  34.919  14.513
49262W        W21522  18.234  12.193   1.402
49263W        W21523  35.415  22.685   2.839
49264W        W21524  10.878  12.623  10.997
49265W        W21525  33.600  24.152  13.439
49266W        W21526  11.228  40.990   0.773
49267W        W21527  42.888  14.637   0.290
49268W        W21528  25.119   1.907  13.405
49269W        W21529   6.270  13.149  14.360
49270W        W21530  43.463  22.505  10.946
49271W        W21531  17.722   2.850  14.446
49272W        W21532  32.477  26.639  13.021
49273W        W21533  12.154  42.835   2.204
49274W        W21534  18.194  10.744   0.326
49275W        W21535  43.813  13.705  13.530
49276W        W21536  19.618  38.842  11.471
49277W        W21537   8.892  32.623  12.056
49278W        W21538  44.938   8.322   1.301
49279W        W21539  33.496   1.376  14.833
49280W        W21540  13.177   3.902   1.386
49281W        W21541  36.583  40.034  10.007
49282W        W21542  31.009  12.742  13.475
49283W        W21543   9.816  28.668   0.835
49284W        W21544   8.257  36.472   4.328
49285W        W21545  32.621  17.268  14.516
49286W        W21546   2.434  20.641   1.839
49287W        W21547  28.548  25.127   1.274
49288W        W21548  31.470  14.103  10.893
49289W        W21549   8.678   5.778   1.804
49290W        W21550   3.363  28.667  13.041
49291W        W21551  21.646  21.229   3.283
49292W        W21552  30.639   2.791  10.527
49293W        W21553  11.847  10.860  13.547
49294W        W21554  34.054  44.502  10.548
49295W        W21555  26.176  34.936  12.961
49296W        W21556  24.038  24.142  13.981
49297W        W21557  35.953  27.124  14.964
49298W        W21558  36.058  35.107   1.289
49299W        W21559   4.225   6.307  13.884
49300W        W21560  44.395  43.877  11.875
49301W        W21561  15.587  33.114  11.021
49302W        W21562  14.125  40.887  13.408
49303W        W21563   2.398  32.431   3.707
49304W        W21564  44.490  27.609  13.019
49305W        W21565  19.759  10.761  14.316
49306W        W21566  27.481  17.133   3.184
49307W        W21567   3.772  23.188  13.376
49308W        W21568   0.745  39.861   2.705
49309W        W21569   0.903   9.693  12.906
49310W        W21570  41.393  38.898   3.857
49311W        W21571  30.432  27.537  11.412
49312W        W21572  19.244  18.221  11.946
49313W        W21573  41.411  21.172   3.837
49314W        W21574  34.919  40.366   5.206
49315W        W21575  19.747   4.816  13.358
49316W        W21576  21.260  42.004  12.848
49317W        W21577  21.085  43.443  12.363
49318W        W21578  29.585  25.494   3.633
49319W        W21579  39.462  28.648  11.046
49320W        W21580  15.580  17.691  13.809
49321W        W21581  44.302  12.163   2.870
49322W        W21582  34.002  34.567  11.004
49323W        W21583  25.031  44.972   4.645
49324W        W21584  26.473  10.184   5.185
49325W        W21585  22.732  23.145   1.712
49326W        W21586  37.479  39.452  12.443
49327W        W21587  44.807  35.491   0.932
49328W        W21588  10.783  33.516   3.717
49329W        W21589  26.962   0.980   2.785
49330W        W21590  44.433  26.996  13.408
49331W        W21591  38.389   2.245  10.424
49332W        W21592  37.998  16.232   1.861
49333W        W21593  17.114  23.701  12.352
49334W        W21594  20.269  34.097   2.704
49335W        W21595  16.278  14.600   1.309
49336W        W21596  39.858  22.537  13.487
49337W        W21597  23.617  22.085  13.433
49338W        W21598  24.496  39.363   3.253
49339W        W21599   9.292  32.610   2.327
49340W        W21600  14.220   6.894  13.511
49341W        W21601  33.038  38.059  11.934
49342W        W21602  13.212  21.641  11.503
49343W        W21603   9.323  37.898  10.628
49344W        W21604  34.924  15.208  12.036
49345W        W21605  20.156  41.015  11.989
49346W        W21606  38.352  26.657  13.041
49347W        W21607  31.977   4.769   1.339
49348W        W21608  35.438   4.799  13.800
49349W        W21609  39.041   1.285   1.313
49350W        W21610  25.567  32.412   4.652
49351W        W21611  39.939  23.630   3.372
49352W        W21612  27.164  11.639  14.998
49353W        W21613  24.543  41.854  12.363
49354W        W21614  24.192  35.478  12.965
49355W        W21615   7.715  40.990  11.560
49356W        W21616  10.180  24.642  11.866
49357W        W21617   4.711  17.657  14.923
49358W        W21618  27.503   0.888   1.335
49359W        W21619  18.780  39.390  12.895
49360W        W21620   6.861   7.745  11.485
49361W        W21621  35.871  20.666  11.994
49362W        W21622  26.129  36.021   4.173
49363W        W21623  25.633  39.535  14.315
49364W        W21624  32.594  32.034  13.022
49365W        W21625   7.819  12.284   4.686
49366W        W21626  24.479   2.441   1.353
49367W        W21627  38.460  38.849  14.869
49368W        W21628   6.814  22.132  12.953
49369W        W21629  10.223  16.144   1.374
49370W        W21630  40.464  16.166   3.637
49371W        W21631  30.646  14.665   0.384
49372W        W21632  41.035  37.396   4.207
49373W        W21633  41.821  34.915   3.726
49374W        W21634  35.591  20.696  11.595
49375W        W21635  34.506   9.687  11.425
49376W        W21636   8.780  43.470   0.895
49377W        W21637  34.467   5.305  11.589
49378W        W21638  10.320   0.388  10.524
49379W        W21639  41.453  24.089   3.731
49380W        W21640  10.773  42.992   3.210
49381W        W21641  15.671  10.807   3.716
49382W        W21642   1.363  16.799  14.959
49383W        W21643   1.755  21.243  13.539
49384W        W21644  22.667  41.348   1.438
49385W        W21645  20.643  40.511   3.855
49386W        W21646  20.231   1.355  11.001
49387W        W21647  10.770  12.686  12.470
49388W        W21648  19.123  11.796   3.700
49389W        W21649  20.735   7.909   4.690
49390W        W21650  26.134  39.432   9.601
49391W        W21651  27.498  42.834  11.099
49392W        W21652  21.061  37.501   4.751
49393W        W21653  24.536   1.864   4.721
49394W        W21654   8.731  15.261   2.672
49395W        W21655  11.337  13.701  12.091
49396W        W21656  21.155  23.197  10.976
49397W        W21657  23.006  12.820   0.464
49398W        W21658  39.886   3.305  13.921
49399W        W21659   9.828  12.616  14.513
49400W        W21660  30.587  41.396  13.999
49401W        W21661  11.254   6.819  12.464
49402W        W21662  36.024  20.665  13.970
49403W        W21663  16.701  42.381   4.339
49404W        W21664  14.806  34.084  10.514
49405W        W21665   1.371   7.176   0.967
49406W        W21666  41.381   9.661   4.127
49407W        W21667  37.494   2.318   0.845
49408W        W21668  40.041   4.265  10.483
49409W        W21669   7.716  19.780   1.792
49410W        W21670  12.771  39.965  12.489
49411W        W21671  26.050  32.500   0.458
49412W        W21672  26.068   8.744  14.367
49413W        W21673  38.993  17.219   4.766
49414W        W21674  44.800  19.250  11.882
49415W        W21675  10.273   5.768   1.332
49416W        W21676  14.696   4.389   2.716
49417W        W21677   9.706  15.152   3.690
49418W        W21678  21.162   3.840   2.264
49419W        W21679  11.802  33.574  12.832
49420W        W21680  35.375  30.163  11.440
49421W        W21681  21.678  11.843  12.551
49422W        W21682   8.850  31.448  13.345
49423W        W21683   3.426  22.690  12.512
49424W        W21684  33.582  17.145  13.978
49425W        W21685   8.766  20.674   0.422
49426W        W21686  40.392  22.057   4.340
49427W        W21687  35.417  22.134   3.378
49428W        W21688  35.466   7.842  11.035
49429W        W21689  41.382  24.557  14.820
49430W        W21690  17.205  23.709   5.270
49431W        W21691   4.869  44.946   3.843
49432W        W21692  15.205  16.253   0.259
49433W        W21693  25.146  26.064  12.861
49434W        W21694   2.271  44.503  10.002
49435W        W21695  41.939  29.962  11.444
49436W        W21696   3.335  23.160   0.732
49437W        W21697  21.619  35.939   2.748
49438W        W21698  34.419  32.975   0.332
49439W        W21699  29.157   8.696  14.907
49440W        W21700  38.356   3.753  14.852
49441W        W21701  13.632  43.913   2.416
49442W        W21702  38.386  25.561   0.847
49443W        W21703  16.295  27.013  11.031
49444W        W21704  31.077  18.679  10.518
49445W        W21705  12.158  18.283   2.277
49446W        W21706  32.476   2.417  12.527
49447W        W21707  34.058  19.125   4.157
49448W        W21708  21.627   6.836   1.816
49449W        W21709  33.518  17.740   1.858
49450W        W21710  27.149   5.824  13.358
49451W        W21711   6.359  41.523   3.776
49452W        W21712  28.658  17.131  10.501
49453W        W21713  19.717  43.510   3.841
49454W        W21714  15.297  44.920   2.851
49455W        W21715  22.724  23.718  14.784
49456W        W21716  33.502  42.955  14.458
49457W        W21717  20.570  30.164  10.959
49458W        W21718  39.468  26.114   0.947
49459W        W21719  44.346  29.517  12.012
49460W        W21720  16.136  10.846  13.436
49461W        W21721   5.396  28.999   1.255
49462W        W21722  19.076  36.373  12.867
49463W        W21723  28.085  27.946  14.321
49464W        W21724  37.968   8.810   2.697
49465W        W21725   2.855   3.897   3.361
49466W        W21726  32.562  31.099  12.535
49467W        W21727  20.755  19.722  12.828
49468W        W21728  18.177  26.965  12.939
49469W        W21729  28.058  11.350   0.304
49470W        W21730   3.909  44.395   0.398
49471W        W21731  42.386  13.728  12.907
49472W        W21732  42.436  14.210   1.764
49473W        W21733  14.798  19.077   2.382
49474W        W21734  39.478  28.968  12.034
49475W        W21735  43.341   4.716   3.160
49476W        W21736  35.091  42.328  14.890
49477W        W21737  33.475  33.499   0.792
49478W        W21738  31.009  18.088  13.843
49479W        W21739  18.088  17.253   2.339
49480W        W21740  12.196  11.138  12.558
49481W        W21741   4.835  11.677  10.415
49482W        W21742   2.784  23.701   4.767
49483W        W21743  26.132  31.968  14.930
49484W        W21744  10.193  43.449   1.701
49485W        W21745  15.177   7.176   1.892
49486W        W21746  37.391  35.578   3.650
49487W        W21747  13.838  10.800   1.872
49488W        W21748   2.806  15.674   1.251
49489W        W21749   6.890   2.407   0.366
49490W        W21750  33.934  16.801  13.888
49491W        W21751   4.250   5.329  12.907
49492W        W21752  29.590  16.809  10.557
49493W        W21753  41.877   4.283  10.459
49494W        W21754   0.772   7.676  14.479
49495W        W21755  41.376  11.317  13.411
49496W        W21756  12.820  38.344   2.410
49497W        W21757  18.092  26.159  12.340
49498W        W21758  19.736  38.496  10.931
49499W        W21759  12.642  23.676   4.814
49500W        W21760  31.088  17.171  11.410
49501W        W21761  23.986  10.841  13.850
49502W        W21762   7.314  13.265  13.808
49503W        W21763  16.707   4.430   2.900
49504W        W21764  25.494   2.344   3.803
49505W        W21765   3.288   2.790  12.022
49506W        W21766  14.318  41.323   4.261
49507W        W21767  21.094  37.441   2.814
49508W        W21768  41.468  42.823  11.442
49509W        W21769  36.899  20.688  10.080
49510W        W21770  36.357  39.366  11.079
49511W        W21771  43.992  26.523   0.798
49512W        W21772  19.579  14.681  13.034
49513W        W21773   4.360   5.868   4.657
49514W        W21774   6.209  17.089  12.004
49515W        W21775  14.211  25.115   2.247
49516W        W21776  28.054  26.171   0.835
49517W        W21777  16.682  15.741   2.224
49518W        W21778  44.862  14.594  14.007
49519W        W21779  32.071  17.296  10.582
49520W        W21780  27.453  19.558  14.304
49521W        W21781  12.738   5.844  14.829
49522W        W21782   6.888  21.116  13.886
49523W        W21783  22.021   3.441   4.631
49524W        W21784  42.356  30.643   4.136
49525W        W21785  35.477  30.053   0.286
49526W        W21786   2.471   4.386  11.437
49527W        W21787   9.681  19.102   3.739
49528W        W21788  43.427  28.606   3.222
49529W        W21789  35.901   2.403  12.407
49530W        W21790  30.950  14.144   3.203
49531W        W21791  11.298   8.842   5.294
49532W        W21792  27.489  12.681   0.865
49533W        W21793  32.578  42.369   2.677
49534W        W21794   4.881  25.122  11.983
49535W        W21795  22.641   8.783   2.737
49536W        W21796  23.729  25.556   3.150
49537W        W21797  25.699  26.519  14.017
49538W        W21798  44.995  31.943   9.987
49539W        W21799  12.309  13.657   4.703
49540W        W21800   7.725  31.067   1.799
49541W        W21801  37.039  10.359  13.518
49542W        W21802  38.028   8.899   3.764
49543W        W21803  29.017  35.388   2.745
49544W        W21804   3.857  13.683  11.079
49545W        W21805  23.657   2.727  10.946
49546W        W21806  11.333  42.409  14.434
49547W        W21807  37.462  34.908  12.991
49548W        W21808  26.645   0.434  11.954
49549W        W21809  19.749   8.710   2.393
49550W        W21810   3.381  13.214   2.205
49551W        W21811  42.832  26.594  11.430
49552W        W21812   2.436  25.567   3.651
49553W        W21813   2.364  15.678  11.435
49554W        W21814  17.724  25.630   0.844
49555W        W21815   7.223  14.336  13.394
49556W        W21816  34.536  38.925  13.839
49557W        W21817  22.214   8.219  12.978
49558W        W21818  27.026  30.977  14.371
49559W        W21819  17.684  42.435  12.030
49560W        W21820   2.314   5.878   0.374
49561W        W21821  24.101  37.376  14.474
49562W        W21822  20.242   4.701  12.493
49563W        W21823  39.042  26.540   1.420
49564W        W21824  39.389  44.964   3.225
49565W        W21825  40.904  24.480   2.889
49566W        W21826  43.439   6.224   0.329
49567W        W21827   8.393  24.531  14.824
49568W        W21828  12.198  22.683   2.310
49569W        W21829  13.736  13.624   3.285
49570W        W21830  25.028  22.665  14.836
49571W        W21831  11.311  10.697  14.759
49572W        W21832  15.649   8.665  12.850
49573W        W21833  28.036  17.689  10.902
49574W        W21834  36.064  36.077  13.519
49575W        W21835  21.635  38.933   1.707
49576W        W21836  24.176  10.832  12.972
49577W        W21837  41.871  31.539  13.931
49578W        W21838   6.711  32.031  14.311
49579W        W21839  41.865  13.660  11.855
49580W        W21840  14.596  28.971   2.667
49581W        W21841  37.873  11.687  10.635
49582W        W21842   5.889  12.854   0.840
49583W        W21843   1.742  27.007   2.874
49584W        W21844  36.446  29.148  10.445
49585W        W21845  33.931   4.257   4.637
49586W        W21846   0.488   0.916  11.932
49587W        W21847  42.446  19.703   2.258
49588W        W21848  12.774  43.446  14.414
49589W        W21849  43.410   2.835  11.010
49590W        W21850  33.884  33.554   3.717
49591W        W21851  36.516  33.090  12.084
49592W        W21852   7.897  41.328   4.737
49593W        W21853  35.927  33.613   0.961
49594W        W21854  14.726   0.759   0.792
49595W        W21855  41.012  10.265  10.015
49596W        W21856  25.175   3.236  10.639
49597W        W21857  32.937  31.418   4.684
49598W        W21858  38.547  39.557  12.383
49599W        W21859   2.722  14.108   4.818
49600W        W21860  39.495  39.558   1.796
49601W        W21861  28.522  33.539   0.330
49602W        W21862   6.677  42.821  11.926
49603W        W21863  34.867  39.452   4.137
49604W        W21864   3.217  23.130  12.956
49605W        W21865  26.611   8.278  10.404
49606W        W21866  26.643  21.706   4.341
49607W        W21867  18.787  36.527   0.740
49608W        W21868  22.713  44.269   3.294
49609W        W21869  20.187   4.278   4.329
49610W        W21870   9.289   1.916  14.954
49611W        W21871   2.385  19.234  10.411
49612W        W21872  36.359  11.334  13.316
49613W        W21873  26.650   4.345   4.349
49614W        W21874  20.249  29.159   2.250
49615W        W21875  25.127  14.180   4.295
49616W        W21876  35.598  41.466  12.535
49617W        W21877  18.556  27.557  12.077
49618W        W21878   9.857  33.492  12.932
49619W        W21879   0.946  33.081   4.342
49620W        W21880  12.707  33.049   4.191
49621W        W21881  22.205  39.370   0.938
49622W        W21882  10.149  43.881  11.000
49623W        W21883  29.623  22.572   4.787
49624W        W21884  44.905  16.776   0.312
49625W        W21885  18.665   7.184   0.368
49626W        W21886  35.409  24.003  14.472
49627W        W21887  35.937  25.097  11.008
49628W        W21888  40.380  10.845  12.487
49629W        W21889  23.665  31.965  14.906
49630W        W21890  17.174   6.390   9.926
49631W        W21891   3.922  13.193   2.812
49632W        W21892  20.258  25.116   5.213
49633W        W21893  25.043  16.309   1.231
49634W        W21894  42.403  41.469   3.371
49635W        W21895   1.284  13.624   4.817
49636W        W21896  21.118   4.820   0.362
49637W        W21897  26.964  29.975  13.353
49638W        W21898  38.853  12.807  14.993
49639W        W21899  37.491  19.724   4.667
49640W        W21900  19.281  23.105  14.846
49641W        W21901  12.319  37.572   0.422
49642W        W21902   6.848  16.153   1.372
49643W        W21903  29.515  11.152   1.796
49644W        W21904  23.605  10.749   3.341
49645W        W21905   3.325   4.268   1.332
49646W        W21906  41.922   0.314   0.443
49647W        W21907  28.020  43.012  13.050
49648W        W21908   8.774  21.051   4.629
49649W        W21909  16.318   8.401   2.311
49650W        W21910   7.238  36.465  10.449
49651W        W21911  17.153  26.478   2.200
49652W        W21912   7.383   5.860   3.781
49653W        W21913  36.018  32.933  11.126
49654W        W21914  44.331  22.508   4.673
49655W        W21915  10.662  33.474  10.478
49656W        W21916  29.559  20.212   0.895
49657W        W21917  22.152   5.897  11.927
49658W        W21918   2.356  32.019   3.749
49659W        W21919   9.262  15.097   1.792
49660W        W21920  12.299   3.400   1.437
49661W        W21921  24.544  33.396   3.259
49662W        W21922  10.212  10.682  13.939
49663W        W21923  28.183  10.682   3.732
49664W        W21924   0.964  11.834   3.171
49665W        W21925  23.652  43.009   3.212
49666W        W21926  20.753  12.265  12.992
49667W        W21927  33.946  33.380  11.465
49668W        W21928   7.236  21.707  10.990
49669W        W21929   5.911  19.214  10.502
49670W        W21930  15.771   5.318  12.357
49671W        W21931   9.337  20.615   4.655
49672W        W21932  26.137  31.000  13.404
49673W        W21933  39.542  27.093  12.466
49674W        W21934   4.773  40.391   3.299
49675W        W21935  18.294  22.614  12.930
49676W        W21936   9.217  26.130   3.714
49677W        W21937  19.092  37.891  14.303
49678W        W21938   5.211  41.930  13.388
49679W        W21939  42.919  21.523   3.645
49680W        W21940  34.591  40.930  10.980
49681W        W21941  22.237   5.724   0.838
49682W        W21942  29.076   6.228   1.410
49683W        W21943  14.307  36.348   0.352
49684W        W21944   6.396   0.967  14.389
49685W        W21945  37.458  22.628   2.886
49686W        W21946   3.347  21.071  14.830
49687W        W21947  26.966   9.197   3.296
49688W        W21948  19.536  15.687  13.836
49689W        W21949  26.208   4.430  12.885
49690W        W21950  44.264   5.197  14.865
49691W        W21951  24.570  33.623  12.533
49692W        W21952  18.670  29.071  11.502
49693W        W21953  18.075  28.086   4.168
49694W        W21954  14.197  29.037   2.791
49695W        W21955  11.804   6.378  14.371
49696W        W21956  11.680  27.538   1.839
49697W        W21957  18.272  26.530  14.768
49698W        W21958   8.677  29.066   2.763
49699W        W21959   5.703  12.310  13.367
49700W        W21960   6.895  12.322   4.277
49701W        W21961  15.220   7.800  11.587
49702W        W21962  40.850  44.817   4.743
49703W        W21963   9.816  10.253  14.910
49704W        W21964   7.327  19.161  14.879
49705W        W21965  20.169  37.854  13.366
49706W        W21966  42.826  41.001  14.900
49707W        W21967  39.809  21.719   4.700
49708W        W21968  44.823  18.570   4.318
49709W        W21969  22.213  24.675  11.942
49710W        W21970   9.354  44.361   3.233
49711W        W21971  29.532  21.106   1.807
49712W        W21972  15.786  23.237  11.868
49713W        W21973  43.784   3.723   4.697
49714W        W21974  39.361  20.194   3.291
49715W        W21975  21.140  21.128  12.031
49716W        W21976   2.284  43.951   4.697
49717W        W21977  44.379  28.621   2.817
49718W        W21978  13.657  35.956  11.872
49719W        W21979  24.054  24.198  13.308
49720W        W21980  22.592  29.547   1.890
49721W        W21981  16.150   5.907  11.377
49722W        W21982  37.980   9.661   4.218
49723W        W21983   7.335  24.604  10.525
49724W        W21984   7.722  26.953  12.991
49725W        W21985  39.817  36.989  12.882
49726W        W21986  24.117  44.319   2.183
49727W        W21987  22.542   0.476  10.565
49728W        W21988  37.486  28.969  14.800
49729W        W21989  22.086  31.581   1.304
49730W        W21990  31.947  19.755   4.120
49731W        W21991  43.775  41.527   3.371
49732W        W21992  12.696   0.965  12.578
49733W        W21993  39.052  35.515   1.851
49734W        W21994  20.060  42.361  14.833
49735W        W21995  13.740  36.351  10.997
49736W        W21996  43.495  30.110   1.707
49737W        W21997  18.132  26.524   2.733
49738W        W21998  40.381  37.449  14.024
49739W        W21999  19.766  38.377  14.990
49740W        W22000  14.263  35.104   3.697
49741W        W22001   1.402   8.817   0.250
49742W        W22002   9.714   0.275  12.442
49743W        W22003   6.703  24.493  10.948
49744W        W22004  14.223  42.508   3.293
49745W        W22005  38.367  30.573   4.164
49746W        W22006   0.253  21.135   3.149
49747W        W22007  21.020  32.029   0.393
49748W        W22008  43.397  24.981   4.275
49749W        W22009  31.904  44.891   4.193
49750W        W22010  24.214  44.464   4.655
49751W        W22011  29.963  19.186  10.583
49752W        W22012  36.078  21.516   2.751
49753W        W22013  25.504  14.231   2.778
49754W        W22014  26.187  11.292   0.296
49755W        W22015   9.231  29.027   1.825
49756W        W22016  30.567   8.375   2.231
49757W        W22017   0.742  42.908   2.775
49758W        W22018  40.404  23.499   1.724
49759W        W22019  27.037   6.680  11.876
49760W        W22020  18.780  30.623   2.220
49761W        W22021  40.967  37.873   4.741
49762W        W22022  30.076  23.696  12.088
49763W        W22023  38.845  23.153   4.805
49764W        W22024  35.860  34.060  11.052
49765W        W22025  23.495  28.503   9.925
49766W        W22026   9.848  37.558  11.043
49767W        W22027  33.474  34.989   2.747
49768W        W22028   8.724   3.778  10.535
49769W        W22029  16.754  41.351   0.813
49770W        W22030  12.204  10.705  14.282
49771W        W22031  31.979   3.718   4.779
49772W        W22032  16.752   8.198  13.373
49773W        W22033  12.192  31.133  11.871
49774W        W22034  29.163   3.788   1.303
49775W        W22035  15.807  29.928  12.556
49776W        W22036  35.859  29.573  14.866
49777W        W22037  21.691   6.249   3.164
49778W        W22038  29.587  42.801  13.334
49779W        W22039  42.498   6.402   3.634
49780W        W22040  26.076  31.434  13.843
49781W        W22041  20.596  12.237  11.111
49782W        W22042  39.927  12.276  11.498
49783W        W22043  27.507  15.161  10.455
49784W        W22044   8.399  18.790   1.292
49785W        W22045  29.950   5.700   3.720
49786W        W22046  35.595  24.031   4.621
49787W        W22047  42.969  37.401  11.030
49788W        W22048   7.680  32.100  12.981
49789W        W22049  16.745  34.474  13.396
49790W        W22050  30.131  20.723  14.948
49791W        W22051   4.278   4.316   2.184
49792W        W22052  19.064   4.830   4.133
49793W        W22053  28.670  11.693  10.912
49794W        W22054  22.203  32.409   2.697
49795W        W22055  25.127  39.021   1.724
49796W        W22056  16.258  20.040  14.877
49797W        W22057  28.043   1.467   0.415
49798W        W22058  40.054  34.876  13.801
49799W        W22059  19.224  41.456  14.920
49800W        W22060  28.036   5.316  12.576
49801W        W22061  36.485  19.670  14.470
49802W        W22062   8.337  37.907   4.759
49803W        W22063  31.598  10.757   1.441
49804W        W22064  10.640   6.308   0.345
49805W        W22065   5.783  20.037   1.875
49806W        W22066  14.713   2.809  13.819
49807W        W22067   8.254  14.265   1.387
49808W        W22068  36.954   9.884  12.500
49809W        W22069   8.798   2.266  12.558
49810W        W22070  21.150  18.736  14.950
49811W        W22071  34.531  40.323  14.441
49812W        W22072   3.248   5.196   1.283
49813W        W22073  30.038   9.721  13.423
49814W        W22074  26.054  41.869  11.561
49815W        W22075  21.718   3.273   0.271
49816W        W22076   2.742   5.378   1.796
49817W        W22077  10.379  18.166  10.599
49818W        W22078   5.244  44.002  10.608
49819W        W22079  24.127  35.588  12.042
49820W        W22080  17.591  32.585  10.606
49821W        W22081  28.653  22.653  13.890
49822W        W22082   7.736  10.840  10.953
49823W        W22083   8.308  29.126   0.475
49824W        W22084   7.860  12.644   3.747
49825W        W22085   1.820  37.882  14.843
49826W        W22086  35.602  30.609  11.531
49827W        W22087  26.101  37.536  11.884
49828W        W22088  27.543  20.651  12.910
49829W        W22089   2.787  10.382  14.849
49830W        W22090  14.626  26.166   4.753
49831W        W22091  13.267  39.947   2.183
49832W        W22092   8.309   3.454  12.534
49833W        W22093   8.178  30.543   4.175
49834W        W22094  19.223  44.956  13.046
49835W        W22095  37.419  18.710  10.561
49836W        W22096  35.554  31.102   2.359
49837W        W22097   5.240   8.787   4.715
49838W        W22098  35.915  11.231  12.038
49839W        W22099  36.933  33.964  13.473
49840W        W22100  11.244   1.252   2.372
49841W        W22101  36.389   0.448   1.825
49842W        W22102  28.521  28.062   2.341
49843W        W22103  11.257  41.013  12.546
49844W        W22104  39.379  21.243   2.736
49845W        W22105  42.341  43.001   2.793
49846W        W22106  27.626   9.879  13.974
49847W        W22107  14.181  42.886  11.524
49848W        W22108  19.041  25.563  12.902
49849W        W22109  38.526  35.532   3.678
49850W        W22110  38.468  24.018  10.525
49851W        W22111  16.590  44.754   3.820
49852W        W22112  12.681  39.861  14.995
49853W        W22113  10.308  24.014  14.794
49854W        W22114  44.873  30.937   0.311
49855W        W22115  29.963  15.776   4.216
49856W        W22116  33.059  11.234   0.254
49857W        W22117   9.648  41.884   4.164
49858W        W22118   8.783  36.359  11.028
49859W        W22119  21.638  14.603   0.413
49860W        W22120  25.967  29.537  13.505
49861W        W22121  12.226  42.392  13.985
49862W        W22122  29.469   8.729  10.077
49863W        W22123  34.880   3.845   2.379
49864W        W22124  27.459  13.684   2.216
49865W        W22125  23.558  25.053   1.694
49866W        W22126  36.505  16.763   2.231
49867W        W22127  21.033  16.162   3.169
49868W        W22128  16.222  19.745  14.914
49869W        W22129  40.530   0.494   4.770
49870W        W22130  12.773  10.779  13.025
49871W        W22131  26.985  10.852   1.245
49872W        W22132  22.999  30.158  13.818
49873W        W22133  44.367  38.389   0.868
49874W        W22134  29.485   5.282   3.685
49875W        W22135  38.387  12.811  14.384
49876W        W22136  43.423  40.430  14.276
49877W        W22137  19.200  29.458   3.680
49878W        W22138   9.177  22.086  14.909
49879W        W22139   0.949   5.819   4.165
49880W        W22140  21.222  32.138  10.567
49881W        W22141  18.633  42.493   3.313
49882W        W22142   7.758  41.531   3.225
49883W        W22143   2.749  37.989   3.169
49884W        W22144  38.504  31.936   1.424
49885W        W22145   3.933  20.599   0.770
49886W        W22146  26.676  11.747   4.607
49887W        W22147  18.058  32.928  12.925
49888W        W22148  35.484  29.435  11.999
49889W        W22149  29.040   9.646  13.478
49890W        W22150  28.554  16.609   1.406
49891W        W22151  24.178  43.500   3.841
49892W        W22152  17.235  10.838   2.372
49893W        W22153  43.306  29.062  12.579
49894W        W22154   2.933  24.660  14.377
49895W        W22155  42.448  19.116  14.856
49896W        W22156   0.287  40.830   1.447
49897W        W22157  32.004  27.502   1.741
49898W        W22158  15.744  30.588   1.790
49899W        W22159  44.347  23.091  11.869
49900W        W22160  14.645  25.555  14.449
49901W        W22161  37.084  16.154  13.905
49902W        W22162   9.876  43.342  11.013
49903W        W22163  15.649  10.729   3.238
49904W        W22164  37.455  11.652  11.077
49905W        W22165  12.332  17.731  12.444
49906W        W22166   1.825  26.980   4.150
49907W        W22167   7.866  10.198  10.438
49908W        W22168  35.380  35.523   0.729
49909W        W22169  24.128  44.271  13.440
49910W        W22170   5.787  12.236  12.415
49911W        W22171  31.918  42.882   5.155
49912W        W22172  23.730  44.501  11.886
49913W        W22173   1.877  26.027  12.032
49914W        W22174  43.322  21.087  12.354
49915W        W22175   9.766  29.586  12.937
49916W        W22176  16.254   5.328  14.377
49917W        W22177   1.473  35.530   3.699
49918W        W22178  40.835  29.055   1.268
49919W        W22179  42.007  25.061   2.706
49920W        W22180  40.965  32.139   0.968
49921W        W22181  17.603  37.955  10.975
49922W        W22182  28.479   1.408  13.982
49923W        W22183  23.122  31.071  10.437
49924W        W22184  13.718  14.821   1.445
49925W        W22185  36.012   3.750  13.547
49926W        W22186  39.338  34.562  12.547
49927W        W22187  34.971  20.729  10.558
49928W        W22188  16.281  23.713   2.820
49929W        W22189  12.831  41.333  10.475
49930W        W22190  34.865   1.775   3.232
49931W        W22191  30.970  36.371  14.928
49932W        W22192  24.203  21.023   4.306
49933W        W22193  41.385  17.159   2.730
49934W        W22194   5.860  17.127   3.149
49935W        W22195  19.237   5.238   1.872
49936W        W22196  19.048  37.035  14.388
49937W        W22197   6.844  37.486  12.894
49938W        W22198  24.522  21.099  12.429
49939W        W22199  41.006   2.881   2.256
49940W        W22200  42.300   9.338  10.620
49941W        W22201  38.348  36.451  14.934
49942W        W22202  24.653   2.728   3.219
49943W        W22203  26.989  14.824  12.862
49944W        W22204  12.700  14.200   1.282
49945W        W22205  40.325  41.417  11.099
49946W        W22206  19.264  17.303  10.429
49947W        W22207   4.312  32.034  13.835
49948W        W22208  35.947   7.186   3.332
49949W        W22209  26.092   2.450  14.900
49950W        W22210  16.675  43.929   3.738
49951W        W22211   6.800  10.361   2.889
49952W        W22212  13.802  11.704   2.817
49953W        W22213  27.533  43.013  13.861
49954W        W22214   5.907  27.492  10.004
49955W        W22215  32.521  11.175   1.868
49956W        W22216  24.604  41.397   9.953
49957W        W22217  39.971  42.488  10.623
49958W        W22218  28.184  15.278  10.607
49959W        W22219   2.238  26.117   1.862
49960W        W22220   4.386  40.972  13.390
49961W        W22221   6.763   3.903   4.213
49962W        W22222   7.858  32.081  14.996
49963W        W22223  36.895  25.692  10.936
49964W        W22224   9.257  29.932  13.797
49965W        W22225  31.644  24.067   2.380
49966W        W22226  36.957  23.526   0.262
49967W        W22227  14.816   2.762  10.560
49968W        W22228  15.819  35.900   1.908
49969W        W22229  19.708  36.498  14.515
49970W        W22230  41.006  36.399   0.866
49971W        W22231  30.444  31.935   3.697
49972W        W22232   5.836  32.009  12.424
49973W        W22233   7.372  13.734  11.928
49974W        W22234  32.124  10.694   4.317
49975W        W22235  44.394  27.551  14.852
49976W        W22236   2.310  35.894  10.495
49977W        W22237   8.242  32.933  14.867
49978W        W22238  25.654  16.183  12.049
49979W        W22239  35.592  34.882   3.730
49980W        W22240  10.665  28.469  14.979
49981W        W22241  25.511  33.459  10.621
49982W        W22242  20.620  21.083   3.381
49983W        W22243  43.293   8.787  13.846
49984W        W22244  28.147   4.406  13.520
49985W        W22245  31.080  15.668  10.408
49986W        W22246  28.437   7.413  14.808
49987W        W22247  16.237  40.980   1.731
49988W        W22248  44.356  41.000   4.269
49989W        W22249   0.919   7.891  13.895
49990W        W22250  33.559  34.066   4.197
49991W        W22251  42.978  42.963   0.823
49992W        W22252  21.690   0.806   0.803
49993W        W22253  20.196  25.060   1.734
49994W        W22254  25.046  34.380   2.371
49995W        W22255   7.194  12.836   3.764
49996W        W22256  18.693  35.371  10.416
49997W        W22257  30.413  20.099   2.366
49998W        W22258  30.061  14.143   3.772
49999W        W22259  18.202  11.293  12.094
50000W        W22260   7.298  38.558   1.802
50001W        W22261  19.580   8.709   0.766
50002W        W22262  29.601  35.578   1.221
50003W        W22263  21.197  24.571  14.922
50004W        W22264  35.518   2.728   3.312
50005W        W22265  40.310   2.957   4.276
50006W        W22266  19.697  29.962   2.856
50007W        W22267  11.736   9.656   4.660
50008W        W22268  14.105  30.950  10.418
50009W        W22269  26.493  11.157   3.673
50010W        W22270  27.170  14.152   1.889
50011W        W22271   1.409  18.696   0.416
50012W        W22272  32.982  27.574  10.518
50013W        W22273  31.529  27.662   4.621
50014W        W22274  33.607   1.978   2.205
50015W        W22275  24.552   1.343   4.707
50016W        W22276  23.706  31.119   4.182
50017W        W22277   8.332  36.871  13.440
50018W        W22278  22.586  38.982  10.426
50019W        W22279  22.033  33.993   3.797
50020W        W22280   9.840  34.523  11.585
50021W        W22281  11.171  17.594  14.886
50022W        W22282  43.856  36.880  14.378
50023W        W22283  30.461  20.659   1.269
50024W        W22284  13.117  38.477   1.338
50025W        W22285  36.017  43.997   3.325
50026W        W22286   6.716   4.320  10.955
50027W        W22287  39.405  22.027   4.625
50028W        W22288  44.361  17.139   0.439
50029W        W22289  39.915  33.478  12.469
50030W        W22290  41.866  30.444  10.041
50031W        W22291   3.229  37.001   2.782
50032W        W22292   4.426  38.061   1.385
50033W        W22293  34.475  24.701   0.413
50034W        W22294  15.311  28.084   4.767
50035W        W22295  32.435  22.133  12.969
50036W        W22296  39.033   0.356   1.363
50037W        W22297  38.481  34.981  14.412
50038W        W22298  16.254  23.696  13.430
50039W        W22299  39.419  41.943   0.764
50040W        W22300  28.071  18.128  11.104
50041W        W22301   9.243  29.172  10.479
50042W        W22302  34.525  30.922  13.314
50043W        W22303  26.676  19.706   5.314
50044W        W22304   7.183   0.979   0.868
50045W        W22305  39.963  22.693   0.279
50046W        W22306  43.501   1.740   0.900
50047W        W22307  21.057  28.059   0.410
50048W        W22308  23.570  23.024  12.547
50049W        W22309  13.284  31.512  10.636
50050W        W22310  43.890  28.645   3.647
50051W        W22311  39.826   6.311  10.419
50052W        W22312  17.764  34.048   0.303
50053W        W22313  14.128   1.432   2.397
50054W        W22314  23.669   6.788   3.671
50055W        W22315  26.688   3.789  14.406
50056W        W22316  16.773  23.615   0.807
50057W        W22317  39.028  20.260   1.795
50058W        W22318  17.649  29.049   0.817
50059W        W22319  26.514  39.503  14.341
50060W        W22320  34.594   6.281   2.336
50061W        W22321  18.746  11.743   1.744
50062W        W22322  43.415  26.576  10.913
50063W        W22323  42.914  30.452  14.022
50064W        W22324  18.063   9.235   3.632
50065W        W22325  39.455  25.705  14.915
50066W        W22326  33.394  23.212  14.822
50067W        W22327  11.195  12.223  12.094
50068W        W22328  16.574  36.568  14.444
50069W        W22329  29.603  22.672  11.031
50070W        W22330  31.906  37.539  14.413
50071W        W22331  31.117  42.806  10.637
50072W        W22332  18.665  20.746  13.811
50073W        W22333  39.036  35.045   4.215
50074W        W22334  25.617  26.535  12.516
50075W        W22335   1.483  32.021   5.242
50076W        W22336   4.750  32.434   2.856
50077W        W22337  34.106  22.713   0.913
50078W        W22338  15.191  10.657   4.677
50079W        W22339   5.401  29.936  13.333
50080W        W22340   8.345  12.139   0.796
50081W        W22341  15.694   3.243  11.434
50082W        W22342  36.940   1.303  14.003
50083W        W22343  39.473  15.193   4.794
50084W        W22344  32.121  36.568   0.400
50085W        W22345   6.427  11.187   1.795
50086W        W22346  22.644  23.210   2.773
50087W        W22347  35.387  42.441  11.510
50088W        W22348  39.918  17.672   2.320
50089W        W22349  34.895  41.810  12.935
50090W        W22350  13.686   8.815  13.452
50091W        W22351   3.726  11.318   3.689
50092W        W22352  22.031  10.678   0.423
50093W        W22353  32.612  32.051   2.323
50094W        W22354  42.431  11.322   3.665
50095W        W22355  43.972   3.232   4.750
50096W        W22356  42.368  13.680  13.821
50097W        W22357  35.918  27.676   4.197
50098W        W22358  34.035  33.392  10.579
50099W        W22359  21.149  23.009   3.249
50100W        W22360  37.987   3.324  11.054
50101W        W22361  24.645  43.819   4.809
50102W        W22362  14.823  34.373  12.387
50103W        W22363  26.502  15.754   0.856
50104W        W22364  42.300  26.015   0.292
50105W        W22365   6.428   4.332  14.370
50106W        W22366  27.601  12.322  14.776
50107W        W22367  22.122  28.669   4.649
50108W        W22368  32.632  16.659  10.639
50109W        W22369  44.299  40.538   3.657
50110W        W22370  35.922  43.341   2.245
50111W        W22371  34.895  16.789   4.771
50112W        W22372  44.430  34.598   4.308
50113W        W22373  43.372  21.094  13.942
50114W        W22374  44.302   4.736  11.415
50115W        W22375  14.337  33.005   1.838
50116W        W22376  22.106  31.407  14.494
50117W        W22377  21.582   9.173  11.973
50118W        W22378  40.836   4.777  12.059
50119W        W22379  30.456  22.640  14.288
50120W        W22380  22.061  25.054  10.588
50121W        W22381  28.610  22.703   1.821
50122W        W22382  41.842  16.739   3.332
50123W        W22383   3.728  33.576   1.393
50124W        W22384   0.388   8.814   0.917
50125W        W22385  22.637  27.492   2.210
50126W        W22386   7.889  38.997  12.039
50127W        W22387  32.563  43.865   0.285
50128W        W22388  12.741  30.008  10.610
50129W        W22389   7.287  20.716   1.917
50130W        W22390  23.143  37.028   2.899
50131W        W22391  24.106  35.067   1.809
50132W        W22392  40.942   8.405   0.837
50133W        W22393  21.689  37.028   2.368
50134W        W22394  30.513  10.783   4.829
50135W        W22395  36.462  18.109  11.566
50136W        W22396  38.049   0.783   4.301
50137W        W22397  36.358   8.885   0.859
50138W        W22398   7.280  38.029  10.997
50139W        W22399  36.961  33.889   0.250
50140W        W22400  34.896  31.091  11.910
50141W        W22401   5.922  37.568  14.473
50142W        W22402  11.809  11.675   0.731
50143W        W22403   4.920  28.535  12.502
50144W        W22404  16.174  37.054   4.705
50145W        W22405  22.622  33.064  13.972
50146W        W22406  27.983  29.043  12.003
50147W        W22407  29.598  32.132  12.902
50148W        W22408  10.285  20.670   9.954
50149W        W22409  28.638  34.401  14.968
50150W        W22410   3.220  43.814  13.801
50151W        W22411  40.928  14.809  14.423
50152W        W22412   2.910  18.648  10.640
50153W        W22413   0.401  12.764  11.469
50154W        W22414  33.399  33.494   1.901
50155W        W22415  23.612   3.830   0.752
50156W        W22416  13.825  41.956   0.316
50157W        W22417  34.492  28.961   4.306
50158W        W22418  43.950   0.787   2.887
50159W        W22419  24.189  12.811  10.596
50160W        W22420   1.829   7.317  10.529
50161W        W22421  18.244   8.889   9.937
50162W        W22422  34.611  25.123  14.316
50163W        W22423  44.481  41.404   4.704
50164W        W22424  23.673  25.511   4.248
50165W        W22425  32.065  28.955   1.347
50166W        W22426  36.097   6.903  12.460
50167W        W22427  44.780  40.430   4.742
50168W        W22428  33.590  25.603   1.434
50169W        W22429  39.480  12.771   1.272
50170W        W22430  13.338  39.856   4.269
50171W        W22431  10.839  23.989   1.340
50172W        W22432   3.794  17.177  11.406
50173W        W22433  26.691  33.056  10.460
50174W        W22434  18.674  31.952  12.095
50175W        W22435  12.713   3.408   1.744
50176W        W22436  10.736  31.516   0.757
50177W        W22437  24.981  35.951  13.041
50178W        W22438  42.371  32.102   4.831
50179W        W22439  23.700  41.952  10.028
50180W        W22440  39.894  28.978   4.651
50181W        W22441  36.392  25.969  14.969
50182W        W22442  19.760   5.367   1.304
50183W        W22443  17.239  17.754  12.007
50184W        W22444  26.064   8.376   2.194
50185W        W22445  33.519  36.366   1.874
50186W        W22446  40.888   7.187   0.791
50187W        W22447  13.677  30.038  14.773
50188W        W22448  41.009  22.219   1.219
50189W        W22449  34.421  40.349  10.449
50190W        W22450  44.331  33.453   0.851
50191W        W22451  16.149  28.481   2.317
50192W        W22452  39.023   9.264   3.788
50193W        W22453  12.717  32.955  10.644
50194W        W22454  24.989  11.265  11.427
50195W        W22455  42.777  19.047  12.389
50196W        W22456   1.320  15.321   2.840
50197W        W22457  18.134  25.026  13.007
50198W        W22458  41.469   4.764  10.928
50199W        W22459  38.497  28.675  12.494
50200W        W22460  13.760  25.500   0.460
50201W        W22461  16.219  40.980  13.052
50202W        W22462  22.503   9.151   0.436
50203W        W22463  14.832   2.245  14.829
50204W        W22464  18.670  38.903  14.385
50205W        W22465  36.089  16.094  13.881
50206W        W22466  23.685   0.361   1.220
50207W        W22467  39.888   4.408   2.194
50208W        W22468  31.451   9.881   4.786
50209W        W22469  16.603  27.007   3.342
50210W        W22470   6.771  18.783   0.913
50211W        W22471  37.566  27.089  12.363
50212W        W22472   9.209   8.703  13.880
50213W        W22473   5.203  20.706  12.375
50214W        W22474   5.910   5.760  14.360
50215W        W22475   0.931  34.049  14.849
50216W        W22476  31.993  24.683  11.511
50217W        W22477  24.660  36.036  11.479
50218W        W22478  43.481  40.052  13.936
50219W        W22479  12.250   9.680   4.299
50220W        W22480   6.882  25.689  14.022
50221W        W22481   2.885  11.771  10.585
50222W        W22482  24.212  35.050  14.838
50223W        W22483  27.156  29.530   0.908
50224W        W22484  22.706   5.263   0.839
50225W        W22485   3.343  18.743   2.253
50226W        W22486  15.292  34.932   4.755
50227W        W22487  28.139  42.843   3.154
50228W        W22488  33.029  31.009   2.711
50229W        W22489   1.415  12.140   0.891
50230W        W22490   8.833  23.200  14.839
50231W        W22491   8.693  13.337   0.337
50232W        W22492  41.371  24.498  12.832
50233W        W22493   9.850  42.297   4.646
50234W        W22494  42.441  15.753   0.846
50235W        W22495  11.327   4.411  12.025
50236W        W22496   8.773  20.229   2.378
50237W        W22497   6.726  21.586  10.947
50238W        W22498  35.453  10.686   1.390
50239W        W22499  43.895   8.289   1.900
50240W        W22500  29.532  25.011  13.873
50241W        W22501  35.000  42.302   3.845
50242W        W22502  26.017   2.924  12.537
50243W        W22503  28.172  41.342   0.908
50244W        W22504   0.970  24.720  14.913
50245W        W22505  43.287   4.383  12.895
50246W        W22506  39.859  19.568   2.811
50247W        W22507   6.237  15.624   1.730
50248W        W22508   4.922   9.716  14.385
50249W        W22509  11.289  34.559  11.529
50250W        W22510  36.362  26.099   0.297
50251W        W22511  18.610  39.442   1.741
50252W        W22512  20.174  31.510   3.352
50253W        W22513   1.892   1.472  13.936
50254W        W22514  10.720  42.834  13.345
50255W        W22515  24.556  38.036  11.983
50256W        W22516  13.231  21.056  11.580
50257W        W22517  24.088  28.636   0.872
50258W        W22518  16.168  30.958   2.297
50259W        W22519  29.166  38.542   2.351
50260W        W22520  24.557  33.944  10.615
50261W        W22521  15.305  11.262  13.523
50262W        W22522  35.446  33.438   1.280
50263W        W22523  28.185   7.831  12.390
50264W        W22524  17.164  12.319  14.833
50265W        W22525  37.433   8.371  14.769
50266W        W22526   8.863   0.779  11.905
50267W        W22527   9.180  44.306  11.110
50268W        W22528  40.307  24.484  14.514
50269W        W22529  23.672  14.272   1.237
50270W        W22530   5.224  28.953   3.701
50271W        W22531  16.279  11.221   4.738
50272W        W22532   5.330   0.492   4.167
50273W        W22533   1.413  10.363  10.618
50274W        W22534  11.285  41.796  11.517
50275W        W22535  10.750  21.202  10.490
50276W        W22536   3.268  24.509  12.439
50277W        W22537  24.155  32.885   0.867
50278W        W22538  24.025  18.250  10.470
50279W        W22539   2.934  31.968  11.920
50280W        W22540  20.710  26.511   4.727
50281W        W22541  43.016  25.550  14.352
50282W        W22542  36.013   4.920   0.411
50283W        W22543  20.533   6.681   4.304
50284W        W22544  37.954  35.092   3.642
50285W        W22545  43.491  25.499  11.985
50286W        W22546   9.225  35.529   0.802
50287W        W22547  35.873  17.304  12.538
50288W        W22548  38.907  42.526  10.533
50289W        W22549  33.597  29.665  10.054
50290W        W22550  28.095  11.691  13.512
50291W        W22551  15.636  23.669  14.472
50292W        W22552   0.970  22.157   1.360
50293W        W22553  32.014  40.842   2.205
50294W        W22554  18.070  38.494  11.864
50295W        W22555  20.687  10.269   4.783
50296W        W22556  10.634  34.567   2.833
50297W        W22557   5.719  19.149  13.822
50298W        W22558  14.624  27.604  13.060
50299W        W22559  28.615  43.328   2.244
50300W        W22560  11.359  35.049   1.240
50301W        W22561  11.831   2.741   0.412
50302W        W22562  42.970  13.619   4.682
50303W        W22563  40.914   2.333  10.479
50304W        W22564  17.693   5.798   9.574
50305W        W22565   6.811  21.073   1.347
50306W        W22566  23.536  35.406  13.379
50307W        W22567  26.080   4.800   4.337
50308W        W22568  29.441  42.512   2.752
50309W        W22569  33.453  27.038  10.614
50310W        W22570  23.603  31.145  13.316
50311W        W22571  10.732  30.050  13.327
50312W        W22572   3.946  21.092   2.306
50313W        W22573  25.510  15.781  12.345
50314W        W22574  38.539  18.710   1.293
50315W        W22575  10.161  43.490  10.614
50316W        W22576  20.661  43.362  10.457
50317W        W22577   9.711  11.258  14.289
50318W        W22578  11.864  25.494  11.010
50319W        W22579  17.093   0.970   0.804
50320W        W22580  23.578  40.971  14.032
50321W        W22581   9.762  18.290  14.002
50322W        W22582  39.934   3.830  14.325
50323W        W22583  38.857  31.533   4.335
50324W        W22584  33.579   8.319  13.888
50325W        W22585  17.634  27.071   4.765
50326W        W22586  22.112  30.038  10.556
50327W        W22587   1.883  32.954   4.723
50328W        W22588  28.468  20.110  12.508
50329W        W22589  36.529  38.905  14.318
50330W        W22590   3.927   0.902  14.781
50331W        W22591  37.900  31.473   3.722
50332W        W22592   5.368  15.595  13.466
50333W        W22593  21.631  37.377   3.649
50334W        W22594   5.283  20.120  13.544
50335W        W22595  43.363  29.563   1.807
50336W        W22596  34.881  13.803  11.390
50337W        W22597  30.429   8.179  14.783
50338W        W22598   7.224  33.123   1.247
50339W        W22599  43.008  17.306   4.651
50340W        W22600  43.976  28.181  10.441
50341W        W22601   4.715  33.545  11.879
50342W        W22602  39.540  22.668  11.584
50343W        W22603  13.135  43.859   1.833
50344W        W22604  35.870  12.264  12.360
50345W        W22605   6.359  35.544   0.371
50346W        W22606   5.258  39.372   3.702
50347W        W22607  41.390  30.435  12.040
50348W        W22608  23.720   1.869  10.481
50349W        W22609  39.527  37.466  10.993
50350W        W22610  15.322  24.209  11.537
50351W        W22611   8.772  22.247  14.450
50352W        W22612   4.366  12.284  12.356
50353W        W22613  25.517  34.569   0.923
50354W        W22614  25.169  35.508   1.807
50355W        W22615  26.632  23.710  14.485
50356W        W22616  25.170  14.305  14.338
50357W        W22617  18.235  26.046  14.325
50358W        W22618  36.383  22.710  12.865
50359W        W22619  21.213  30.634  12.927
50360W        W22620  31.645  14.637   1.879
50361W        W22621  16.171   9.151  12.506
50362W        W22622  41.816  13.750   1.386
50363W        W22623   5.341  23.076  10.620
50364W        W22624  15.292   3.322  12.870
50365W        W22625  26.058   3.376   1.310
50366W        W22626   1.264   3.831   4.676
50367W        W22627  19.580  32.612  11.012
50368W        W22628  20.730  20.611   4.149
50369W        W22629  41.849  44.790   1.804
50370W        W22630  17.175  19.776   1.696
50371W        W22631   3.777   4.423  11.066
50372W        W22632   7.377   5.916   1.926
50373W        W22633  34.973  33.524  12.955
50374W        W22634  11.850  11.167   3.186
50375W        W22635  27.194   2.455   0.391
50376W        W22636   3.912  38.938   1.835
50377W        W22637  38.915  24.100  12.002
50378W        W22638   9.873  14.121   1.714
50379W        W22639  29.007  43.829  10.936
50380W        W22640  38.483  12.354   1.734
50381W        W22641  25.989  34.106   4.672
50382W        W22642  24.006   4.280  12.940
50383W        W22643  31.005  18.074  10.938
50384W        W22644  15.687  40.334  12.518
50385W        W22645  22.079  41.434  14.871
50386W        W22646  21.511   7.835   1.431
50387W        W22647  14.683  20.170  13.437
50388W        W22648  42.942  34.495   1.752
50389W        W22649   6.293   8.841  13.965
50390W        W22650  22.217   6.382  14.842
50391W        W22651  43.935  25.132   0.872
50392W        W22652  21.256  20.090  11.971
50393W        W22653  32.429   4.797  14.384
50394W        W22654  12.766  32.937   3.731
50395W        W22655  15.283  31.535  12.068
50396W        W22656  22.183  24.100   0.306
50397W        W22657   7.703   9.250   4.301
50398W        W22658  24.594   2.233   1.824
50399W        W22659  42.500  28.486  14.433
50400W        W22660  26.139  33.439  10.528
50401W        W22661  41.806  12.842  11.111
50402W        W22662   9.392  18.135  14.911
50403W        W22663  28.078  34.052  12.971
50404W        W22664  11.127  39.983  11.498
50405W        W22665   5.221  18.720   3.168
50406W        W22666  25.147  21.130   1.282
50407W        W22667  21.620  31.087   0.941
50408W        W22668   9.694  44.827   1.266
50409W        W22669  27.090   7.805   2.373
50410W        W22670   9.317  15.616   2.903
50411W        W22671  41.520   2.368   1.891
50412W        W22672  43.790  34.957  10.899
50413W        W22673  26.543   8.708   5.088
50414W        W22674   1.297  43.474   1.707
50415W        W22675  34.522   0.886  14.934
50416W        W22676   2.752  37.336   3.763
50417W        W22677  36.966  28.492  11.565
50418W        W22678  36.364  37.842   4.770
50419W        W22679  16.133  40.416  11.077
50420W        W22680  35.589   5.702   3.341
50421W        W22681   4.429  21.192   1.250
50422W        W22682  37.388  34.386   9.963
50423W        W22683   9.336  11.195  12.994
50424W        W22684   6.343  31.455   1.318
50425W        W22685  17.295  15.772   1.295
50426W        W22686  33.991  35.938   3.679
50427W        W22687  28.582  38.039   4.685
50428W        W22688  16.232  12.252   1.721
50429W        W22689  34.486  23.611   3.639
50430W        W22690  36.534  30.132   4.612
50431W        W22691   3.416   9.245  12.545
50432W        W22692  17.749  36.976  13.457
50433W        W22693  36.048  26.560   1.337
50434W        W22694  12.178  20.226  14.429
50435W        W22695   2.286  21.141   3.865
50436W        W22696   8.171  27.123  13.879
50437W        W22697  12.712   3.927   3.674
50438W        W22698   3.823  31.898   2.274
50439W        W22699  19.067  25.670  12.574
50440W        W22700  36.988  27.515   0.270
50441W        W22701  35.854  24.506   4.767
50442W        W22702  40.473  24.586   3.150
50443W        W22703  34.018   3.931  10.511
50444W        W22704  37.072  15.805   4.621
50445W        W22705  44.455  11.351   9.933
50446W        W22706  29.095   5.245   0.959
50447W        W22707  31.600   9.192   2.889
50448W        W22708  42.396   7.379  14.005
50449W        W22709   7.875  13.208  12.892
50450W        W22710  35.525  21.593   1.439
50451W        W22711   3.855  15.154  10.940
50452W        W22712   8.287  11.346   0.442
50453W        W22713  18.260  43.852  14.821
50454W        W22714   6.781  13.835   4.693
50455W        W22715  30.083  16.661  12.855
50456W        W22716  36.433  23.995  11.109
50457W        W22717   9.786  43.277   4.797
50458W        W22718  17.764  12.147  14.777
50459W        W22719  11.294  18.698   0.358
50460W        W22720  24.999  13.188   3.719
50461W        W22721  17.619  21.072  12.520
50462W        W22722  35.426   4.926   4.303
50463W        W22723  30.431  11.748   0.864
50464W        W22724  32.049  33.595  12.092
50465W        W22725  29.958  12.137  13.459
50466W        W22726   0.947  30.132  11.392
50467W        W22727  31.530  44.911  10.434
50468W        W22728   5.256  15.185  13.895
50469W        W22729  25.001   1.381   3.180
50470W        W22730  28.051  44.278   2.805
50471W        W22731  16.260  26.492   0.386
50472W        W22732  41.490  25.064  14.309
50473W        W22733  12.329  30.471   5.299
50474W        W22734   3.279  20.106   0.390
50475W        W22735  42.819  35.927   4.267
50476W        W22736  19.126   3.332  13.059
50477W        W22737  18.172   9.306  12.478
50478W        W22738  18.550  11.692   2.719
50479W        W22739  39.059  34.581   3.771
50480W        W22740   4.335   2.846   2.701
50481W        W22741  33.081  25.172   2.181
50482W        W22742  37.370   2.469   1.403
50483W        W22743  16.574  42.993  11.529
50484W        W22744  21.220  34.043   3.861
50485W        W22745  29.612   9.755  12.533
50486W        W22746  29.498  37.457   3.288
50487W        W22747  12.688  40.539   1.290
50488W        W22748  21.237   8.362   2.886
50489W        W22749   1.239   6.274  10.636
50490W        W22750  11.139  16.118   4.801
50491W        W22751  22.540  43.822  14.921
50492W        W22752  18.256  44.310   1.927
50493W        W22753   0.855  12.661   4.712
50494W        W22754  11.646   0.354   4.779
50495W        W22755   3.767  33.396  11.393
50496W        W22756  19.597  27.976  12.004
50497W        W22757  13.277  11.622  10.984
50498W        W22758  26.633  20.748   4.325
50499W        W22759  44.295  35.889   1.897
50500W        W22760  18.609   8.860   3.296
50501W        W22761   6.372  19.684  10.585
50502W        W22762   2.960  33.062   0.758
50503W        W22763   4.422   6.316  12.974
50504W        W22764  35.461  12.253   0.738
50505W        W22765  27.461  31.898   2.874
50506W        W22766  31.478   1.273  11.865
50507W        W22767   0.329  21.098  14.790
50508W        W22768  30.093  35.465   4.786
50509W        W22769  43.282   8.255   3.678
50510W        W22770  26.092  32.918   4.824
50511W        W22771  14.594  16.683   2.375
50512W        W22772  29.430  34.922   3.745
50513W        W22773  19.628  26.053   3.318
50514W        W22774  27.127  18.125   1.361
50515W        W22775  32.524  40.456  10.541
50516W        W22776  42.983   4.336  14.340
50517W        W22777  34.615  44.919   0.434
50518W        W22778  36.513  33.444   9.976
50519W        W22779   2.856  17.655  13.806
50520W        W22780  11.211   5.333  12.886
50521W        W22781  27.016   3.953   0.437
50522W        W22782  14.138   9.205   4.252
50523W        W22783   8.824  28.930  11.581
50524W        W22784   2.460  13.766   1.365
50525W        W22785  31.426  35.096  13.896
50526W        W22786  16.278   6.352   3.229
50527W        W22787   7.666   6.851  12.959
50528W        W22788  31.566  11.820  14.369
50529W        W22789  36.561  10.318  12.840
50530W        W22790  10.307   3.392  12.429
50531W        W22791  43.508  43.273  13.472
50532W        W22792   7.395  22.219  13.948
50533W        W22793  43.335  19.704  14.970
50534W        W22794  19.719  11.837  12.453
50535W        W22795  44.422  26.199   2.884
50536W        W22796  26.995  26.057   0.395
50537W        W22797  42.486   1.732   2.669
50538W        W22798  25.551  36.972  11.404
50539W        W22799  14.761  30.027  10.929
50540W        W22800  35.390  40.357   0.744
50541W        W22801  26.176   9.799  14.799
50542W        W22802   9.361  34.513  14.481
50543W        W22803  27.167  29.532   2.366
50544W        W22804  23.656   4.250   4.744
50545W        W22805  25.129   6.686   1.372
50546W        W22806  11.809  17.732  10.439
50547W        W22807  27.189  26.188   2.222
50548W        W22808  29.037  42.298   2.795
50549W        W22809  25.593  17.115   4.120
50550W        W22810  10.166   8.755   1.439
50551W        W22811  10.342  35.576  14.900
50552W        W22812  43.793   2.290   3.354
50553W        W22813  43.292  17.141  10.613
50554W        W22814  36.357  22.136  10.990
50555W        W22815  26.168  26.564  14.814
50556W        W22816  37.460   6.793  11.995
50557W        W22817   7.796  21.167   5.212
50558W        W22818   3.750  24.577   4.745
50559W        W22819  40.916  30.646  14.421
50560W        W22820  42.484  19.629  11.607
50561W        W22821  27.604  44.346  10.509
50562W        W22822   7.297  38.912   0.855
50563W        W22823   3.798  36.923   4.741
50564W        W22824  36.947  16.615   4.709
50565W        W22825  40.894   0.388  10.470
50566W        W22826  39.505  20.185   0.470
50567W        W22827  39.880  40.049  13.337
50568W        W22828   2.807  35.965   4.247
50569W        W22829  35.546  35.110  11.012
50570W        W22830  44.815   5.788   1.752
50571W        W22831   3.812  10.694   2.721
50572W        W22832  16.631  38.034  10.522
50573W        W22833   1.942  35.985   3.185
50574W        W22834  13.105   8.716   2.841
50575W        W22835  43.957   2.280   3.860
50576W        W22836   8.754   3.777  11.953
50577W        W22837   9.272   5.239   4.824
50578W        W22838   0.374   7.337  11.998
50579W        W22839  22.707  13.155   3.357
50580W        W22840  35.483  18.559   2.798
50581W        W22841  37.454  31.936  14.839
50582W        W22842  33.047  37.008   0.376
50583W        W22843  27.549   8.292   2.773
50584W        W22844  42.403  26.544   3.777
50585W        W22845   1.256  15.630  13.905
50586W        W22846  10.795   7.400  11.579
50587W        W22847  44.357  33.391  14.513
50588W        W22848  38.536  39.354   3.299
50589W        W22849  37.916  11.844   9.923
50590W        W22850  29.111  43.786   1.249
50591W        W22851  34.589  21.227  12.982
50592W        W22852  33.076  20.199   2.242
50593W        W22853  29.159  10.328   3.350
50594W        W22854  23.558  34.980  11.594
50595W        W22855  23.236  39.005  11.413
50596W        W22856  22.596  31.932   1.848
50597W        W22857  19.165   2.371  12.573
50598W        W22858   1.967  35.947  14.505
50599W        W22859  31.569   4.864  11.524
50600W        W22860   4.374  18.584   3.246
50601W        W22861  40.467  28.163  12.953
50602W        W22862  12.833  20.611  13.851
50603W        W22863  22.087  33.446   1.826
50604W        W22864  18.606  18.201  12.042
50605W        W22865  38.426  15.633   2.878
50606W        W22866  41.871  10.682   2.761
50607W        W22867   0.254  13.616   1.796
50608W        W22868  19.165  39.449  14.337
50609W        W22869   9.688  14.202   2.239
50610W        W22870   3.755  34.556   1.291
50611W        W22871  21.673  43.389   0.299
50612W        W22872   9.818   8.830   3.217
50613W        W22873  33.941  18.103  11.029
50614W        W22874  24.059  40.486   4.136
50615W        W22875  26.965  36.367  11.979
50616W        W22876   0.259   7.200  11.000
50617W        W22877  39.551  12.355   1.818
50618W        W22878  42.397  31.452   2.770
50619W        W22879  23.524  33.623   0.727
50620W        W22880  32.903  24.647   1.733
50621W        W22881  30.108  42.957   0.757
50622W        W22882  11.721  40.442   0.734
50623W        W22883   1.459  14.214  12.873
50624W        W22884   3.323  31.918  10.017
50625W        W22885  25.007  13.129  12.964
50626W        W22886  41.848  38.468   0.786
50627W        W22887  13.600  21.602  12.499
50628W        W22888  19.698  20.625  13.327
50629W        W22889  29.991  34.115  14.759
50630W        W22890   0.841  25.672  12.889
50631W        W22891  27.001  23.015  13.853
50632W        W22892  26.002  22.126  12.988
50633W        W22893   8.300  36.895   0.957
50634W        W22894   4.777  20.572   3.244
50635W        W22895  29.983  37.920   0.268
50636W        W22896  27.024   5.265  13.018
50637W        W22897   1.319  29.645   0.305
50638W        W22898  35.970  15.722   3.810
50639W        W22899  12.828  23.516   4.250
50640W        W22900  40.970  16.284  13.904
50641W        W22901  15.620  21.092  11.881
50642W        W22902  31.898   3.430  10.934
50643W        W22903  24.685  20.533  13.485
50644W        W22904  32.116  42.791   4.218
50645W        W22905  21.655  13.252   3.290
50646W        W22906  42.967  23.049   2.255
50647W        W22907  22.708  30.419  10.121
50648W        W22908  37.841  22.103  14.906
50649W        W22909  21.061  27.086  12.456
50650W        W22910   2.781  26.661  10.497
50651W        W22911   4.700  30.598   1.270
50652W        W22912   2.344   1.732   2.717
50653W        W22913   3.283  23.539   0.776
50654W        W22914  33.043  38.387   2.843
50655W        W22915  39.927  11.761  10.556
50656W        W22916  21.545  43.770  10.940
50657W        W22917  34.104   6.795  11.595
50658W        W22918  34.552   2.435   2.889
50659W        W22919  30.449   5.299  10.507
50660W        W22920  30.021   9.392   1.781
50661W        W22921   6.265  25.546   1.909
50662W        W22922  30.922  11.217   2.287
50663W        W22923  33.539  34.905   5.266
50664W        W22924  43.324   4.820   2.250
50665W        W22925  37.915  10.165  11.492
50666W        W22926   6.794  11.267  13.523
50667W        W22927  37.378  21.630  14.994
50668W        W22928  41.305  25.620  13.981
50669W        W22929  38.337  17.783  12.897
50670W        W22930   5.324  31.987  10.616
50671W        W22931   2.301  25.573   4.236
50672W        W22932  25.974  14.314   4.669
50673W        W22933  32.609  26.549   2.707
50674W        W22934  33.028  11.160   2.194
50675W        W22935  33.390  34.997   4.261
50676W        W22936  43.978  42.317  14.768
50677W        W22937  32.023   0.932  12.394
50678W        W22938   4.340   7.750   2.838
50679W        W22939  44.768  38.059  12.069
50680W        W22940  43.912  34.105   4.176
50681W        W22941  15.716  34.543  11.108
50682W        W22942  18.590  30.071  14.886
50683W        W22943  16.182   3.770   0.737
50684W        W22944  43.965  37.524  14.943
50685W        W22945  24.150  29.658   2.343
50686W        W22946  16.735   1.478   3.761
50687W        W22947   9.278   5.322  10.604
50688W        W22948  13.798  27.975  13.346
50689W        W22949  35.974  39.495   3.647
50690W        W22950  22.210  44.267   0.829
50691W        W22951  23.020  19.582   0.359
50692W        W22952  23.124  18.727  14.328
50693W        W22953   4.401  22.651  12.495
50694W        W22954  44.426   1.820   3.649
50695W        W22955  38.899  36.848  11.870
50696W        W22956  30.521   7.897   2.816
50697W        W22957   0.840   4.703  12.414
50698W        W22958  20.526  13.687  13.874
50699W        W22959  15.760  11.361   3.195
50700W        W22960  31.047  20.095   4.174
50701W        W22961  14.291  25.593   3.157
50702W        W22962   4.324  12.749  10.978
50703W        W22963  44.393  26.080  11.605
50704W        W22964  26.980  20.687  12.394
50705W        W22965  36.875   5.247  12.461
50706W        W22966   8.282  17.113  13.993
50707W        W22967  44.868  34.977  10.549
50708W        W22968   9.250  27.459  10.904
50709W        W22969  13.113  19.256   4.670
50710W        W22970  34.433   2.913  13.476
50711W        W22971  21.621  19.160  10.433
50712W        W22972   1.364  38.375  14.304
50713W        W22973  36.902  25.149   4.135
50714W        W22974  36.369  35.425  10.495
50715W        W22975  42.931  32.912   0.850
50716W        W22976  38.467  15.672   3.733
50717W        W22977  32.522  26.165  11.466
50718W        W22978  19.702  26.046   4.189
50719W        W22979  37.025  42.915  11.127
50720W        W22980  18.169   7.876   0.314
50721W        W22981  38.931  27.488   0.779
50722W        W22982  20.099  38.551   0.815
50723W        W22983  44.915  43.440  13.415
50724W        W22984  28.978   5.274  14.916
50725W        W22985  44.470  25.608   4.135
50726W        W22986  18.265  20.261  11.418
50727W        W22987  24.034  30.493   2.694
50728W        W22988  38.899  35.560   2.838
50729W        W22989  26.056  26.994  13.503
50730W        W22990  10.857  16.615  11.117
50731W        W22991  34.373   2.819   3.763
50732W        W22992  44.317  26.625   3.149
50733W        W22993   9.838   7.782   2.383
50734W        W22994  25.086  43.846   1.930
50735W        W22995  15.808  35.033  12.829
50736W        W22996  29.111  39.033  10.429
50737W        W22997  10.278  34.032  13.928
50738W        W22998  15.721  42.466  11.487
50739W        W22999  43.286   1.456  13.329
50740W        W23000  26.971  18.139  11.537
50741W        W23001  22.178   4.721   3.767
50742W        W23002   9.738   5.229   4.350
50743W        W23003  28.167  40.993   2.194
50744W        W23004  28.096  26.201   4.349
50745W        W23005   2.823  44.325   1.295
50746W        W23006  35.601  37.393   1.292
50747W        W23007   7.741  27.088   0.742
50748W        W23008  17.091  31.120  14.008
50749W        W23009  44.485  22.248   0.749
50750W        W23010   2.374   7.684   4.600
50751W        W23011  34.061  39.061  10.124
50752W        W23012  19.543  28.130   2.782
50753W        W23013  16.662  34.112   2.334
50754W        W23014  19.126  20.567   4.726
50755W        W23015  12.356  17.598   0.790
50756W        W23016  20.571  19.131   0.405
50757W        W23017  42.490   0.798   0.803
50758W        W23018   6.703  22.626   0.917
50759W        W23019  40.958  40.023  14.443
50760W        W23020   9.314   4.337  11.915
50761W        W23021   0.761   0.838   1.777
50762W        W23022  20.074  43.002   2.877
50763W        W23023  17.618  13.768  12.992
50764W        W23024  35.061  34.531   5.171
50765W        W23025   6.331  19.587   2.287
50766W        W23026   5.359  32.505   4.215
50767W        W23027   6.244  30.100  13.486
50768W        W23028  33.926  44.927  12.868
50769W        W23029  27.546  13.198   2.883
50770W        W23030  10.365  27.490   2.237
50771W        W23031  10.163  43.016  13.935
50772W        W23032   9.292  37.973  13.337
50773W        W23033  43.844  13.703  13.925
50774W        W23034   6.684  26.530   2.231
50775W        W23035  18.143   7.877  11.446
50776W        W23036   8.254   8.298  12.383
50777W        W23037  26.573   9.777  11.879
50778W        W23038   9.695  25.088  14.792
50779W        W23039  17.792  27.025   3.238
50780W        W23040  30.122  35.370  11.455
50781W        W23041  34.609   8.187   0.351
50782W        W23042  23.653  23.984  11.495
50783W        W23043  34.907   0.321  11.013
50784W        W23044  43.976  42.484   1.348
50785W        W23045  43.307  32.887   0.450
50786W        W23046  18.091  20.040  10.993
50787W        W23047  44.386  39.532   2.833
50788W        W23048  23.073   2.311   3.325
50789W        W23049   7.215  36.510   0.933
50790W        W23050  22.596  33.118   4.836
50791W        W23051  44.833  16.081   4.295
50792W        W23052  26.585  31.607   0.345
50793W        W23053  27.632   1.453  11.082
50794W        W23054  28.012  20.179  13.889
50795W        W23055  30.505  11.745  14.854
50796W        W23056  36.360  21.542  11.121
50797W        W23057  40.962  22.209   3.807
50798W        W23058   5.849  40.956  12.434
50799W        W23059   8.748  24.994  13.516
50800W        W23060  30.074  28.453   3.731
50801W        W23061  11.704  19.577  14.359
50802W        W23062  12.192  30.052   9.980
50803W        W23063  12.692  13.239   4.187
50804W        W23064  21.066  22.588  11.462
50805W        W23065  22.688  43.947  11.443
50806W        W23066   5.831   6.219   1.350
50807W        W23067   0.902   9.784   0.457
50808W        W23068  12.611  19.779   0.402
50809W        W23069  26.072   8.348   0.326
50810W        W23070   5.849  40.407  10.915
50811W        W23071  40.901   0.799  11.950
50812W        W23072  23.069  28.116   5.314
50813W        W23073  36.964  24.648   3.286
50814W        W23074  41.291  22.031   2.381
50815W        W23075   0.783  44.494   3.222
50816W        W23076  39.830  14.253  11.045
50817W        W23077  24.214  15.641   9.959
50818W        W23078  34.086  27.646  12.439
50819W        W23079  34.106  13.342  14.018
50820W        W23080  34.906  18.668  11.940
50821W        W23081  29.941  24.722  10.977
50822W        W23082   2.871  16.310   1.223
50823W        W23083  26.656  33.976  12.004
50824W        W23084  12.847  30.133   9.509
50825W        W23085  30.919  11.732   2.297
50826W        W23086  12.279  24.671   2.250
50827W        W23087  14.608  35.891  13.340
50828W        W23088  27.070  13.707   4.787
50829W        W23089   7.330   3.428   3.181
50830W        W23090  36.383  35.496   0.349
50831W        W23091  14.834  15.176  10.078
50832W        W23092   7.904  35.969   3.783
50833W        W23093   2.383  37.871  14.898
50834W        W23094  30.930  20.151  11.609
50835W        W23095  34.991  23.072   2.327
50836W        W23096  32.480   8.851  11.900
50837W        W23097  25.973  11.646  14.442
50838W        W23098  21.634  25.674   0.771
50839W        W23099   0.337  28.991  10.439
50840W        W23100  44.470  34.031  11.015
50841W        W23101  20.614  34.423  11.559
50842W        W23102  43.938  20.105   3.862
50843W        W23103  11.169   1.325  12.522
50844W        W23104  27.656  10.198  11.511
50845W        W23105  10.156  29.600   2.844
50846W        W23106  16.083  35.036   4.766
50847W        W23107  30.435  26.082  12.870
50848W        W23108  10.152   7.415  13.411
50849W        W23109  27.126   3.860  14.493
50850W        W23110  11.762   3.345  11.419
50851W        W23111  15.596   9.350  13.925
50852W        W23112  14.715  22.153   2.763
50853W        W23113  31.024  26.201   3.188
50854W        W23114   0.355  29.061  12.994
50855W        W23115  42.851  16.253   3.164
50856W        W23116   3.826   1.759  13.022
50857W        W23117  34.116  13.823  11.950
50858W        W23118  21.082  15.192  12.476
50859W        W23119   8.759   9.202  14.456
50860W        W23120  41.938   9.168  11.113
50861W        W23121   3.900  14.820  10.920
50862W        W23122  10.821  16.304   2.302
50863W        W23123  22.657  11.671   5.146
50864W        W23124  22.677   6.423   3.249
50865W        W23125  22.195  29.967  11.941
50866W        W23126  35.023  12.686   0.934
50867W        W23127  21.058  20.561   3.817
50868W        W23128   4.775  18.779   3.830
50869W        W23129  21.668   6.854   2.208
50870W        W23130   8.167  15.143  11.942
50871W        W23131  22.544   3.440   3.243
50872W        W23132   3.226  26.605  10.146
50873W        W23133  20.048  13.777   1.329
50874W        W23134  29.173  14.648   0.897
50875W        W23135  25.694  23.492  11.986
50876W        W23136  28.460   1.975   0.752
50877W        W23137  37.487  16.232   2.755
50878W        W23138  32.991  23.997   1.714
50879W        W23139  38.491  31.645   2.319
50880W        W23140  17.293   2.465   0.300
50881W        W23141   8.243  37.443   4.835
50882W        W23142  13.686  44.280   1.916
50883W        W23143  41.306   1.847  13.839
50884W        W23144  32.113  21.678  12.829
50885W        W23145  18.124  20.632   3.175
50886W        W23146   5.403  25.684  12.951
50887W        W23147  26.651  11.860   5.159
50888W        W23148   8.209   8.699  11.927
50889W        W23149  34.995   8.355  10.970
50890W        W23150  29.603  23.117   1.236
50891W        W23151   7.719  27.448  14.871
50892W        W23152  34.029  22.562   2.801
50893W        W23153  39.979   9.234  14.308
50894W        W23154   4.321  32.478  11.102
50895W        W23155  44.422  26.102  11.063
50896W        W23156  36.084  44.420   2.408
50897W        W23157   8.892  21.108   2.881
50898W        W23158   3.354  37.464   3.808
50899W        W23159  18.205   6.825   0.896
50900W        W23160   8.667  44.428  13.328
50901W        W23161  19.589  34.407  13.318
50902W        W23162  22.236   3.747   1.449
50903W        W23163  27.474  21.214   2.285
50904W        W23164  11.311   8.728   0.766
50905W        W23165  25.061  24.669   4.261
50906W        W23166  13.714  24.040  14.779
50907W        W23167  22.632  23.095  11.090
50908W        W23168  30.481  41.945   0.265
50909W        W23169  12.175  24.002  10.919
50910W        W23170  35.530   5.417   0.740
50911W        W23171  39.559  35.870  14.342
50912W        W23172  44.875  18.112   3.161
50913W        W23173  20.705   7.684   4.181
50914W        W23174  40.880  43.444   4.656
50915W        W23175   0.463  26.613   0.936
50916W        W23176   9.701  40.885   0.882
50917W        W23177  11.810   2.443   1.829
50918W        W23178   0.408   8.197  12.357
50919W        W23179  17.609  31.416   0.244
50920W        W23180  39.501  26.966  11.040
50921W        W23181  23.703  27.542   2.267
50922W        W23182  33.410  22.046  14.956
50923W        W23183  39.834  32.570  12.463
50924W        W23184  15.181  17.231   5.674
50925W        W23185   2.857  12.785   2.721
50926W        W23186  37.834  30.989  11.865
50927W        W23187  17.141  23.118   1.418
50928W        W23188  13.740  39.543   0.815
50929W        W23189  44.503  44.922   4.266
50930W        W23190  41.992  27.452  12.412
50931W        W23191  16.237  11.793  13.325
50932W        W23192  14.188  13.238  14.985
50933W        W23193  15.263  15.290  11.438
50934W        W23194  18.585  41.006   1.768
50935W        W23195  22.737  37.495  14.331
50936W        W23196  33.563   2.958  14.319
50937W        W23197  18.261  27.573   3.795
50938W        W23198   0.819   4.425   4.297
50939W        W23199  21.520  41.477  13.838
50940W        W23200  43.974  41.468  13.054
50941W        W23201  12.253  10.717   4.197
50942W        W23202  36.906  30.141  10.517
50943W        W23203  30.466  34.441   0.750
50944W        W23204  17.614  29.039  11.548
50945W        W23205  39.419  18.762   4.816
50946W        W23206   4.872   3.783   3.864
50947W        W23207  40.846  28.655  13.477
50948W        W23208  10.227  20.673  14.930
50949W        W23209   3.452  18.133  13.524
50950W        W23210  10.364  40.036  14.432
50951W        W23211  22.583  10.858  14.295
50952W        W23212  38.052   9.811  12.373
50953W        W23213  26.124  37.359  10.896
50954W        W23214  13.112  32.907   1.426
50955W        W23215   2.300  26.055  12.415
50956W        W23216  33.543  26.995   1.256
50957W        W23217  38.909   6.907  10.909
50958W        W23218   4.272  10.384   3.845
50959W        W23219  20.697  27.011   1.872
50960W        W23220  18.725  26.057   3.200
50961W        W23221  30.433  18.147   0.843
50962W        W23222   4.720  16.155   0.355
50963W        W23223  10.657   4.717   4.236
50964W        W23224  39.858  41.376  10.505
50965W        W23225  19.640  23.611   1.333
50966W        W23226   4.903  13.821  11.907
50967W        W23227  15.224  29.431   4.679
50968W        W23228  22.576  24.482  10.468
50969W        W23229  42.928   8.884   1.705
50970W        W23230  29.608  38.357   4.188
50971W        W23231   5.833  18.725  12.522
50972W        W23232  22.565  21.242   0.771
50973W        W23233  44.907  17.794   3.307
50974W        W23234  18.083   8.754   2.884
50975W        W23235   7.732  12.178   3.296
50976W        W23236  32.066  22.028  14.399
50977W        W23237   6.378  13.189   3.637
50978W        W23238  15.164  43.478  12.979
50979W        W23239   8.334  24.599   1.933
50980W        W23240  40.954  37.548  12.380
50981W        W23241  18.702  38.820   2.210
50982W        W23242   9.320  29.945   0.423
50983W        W23243  33.965   5.254  13.976
50984W        W23244  34.527  27.598   2.184
50985W        W23245  39.002  44.308   9.976
50986W        W23246  37.080   1.243   4.148
50987W        W23247  21.252  36.038   4.668
50988W        W23248  25.963  22.081  11.884
50989W        W23249  18.279  20.141   3.169
50990W        W23250  11.322   8.299  12.396
50991W        W23251  37.421  35.555   0.824
50992W        W23252  25.506  39.910  12.989
50993W        W23253  44.933  19.131   3.384
50994W        W23254  24.631   8.682  13.935
50995W        W23255  15.184  25.982  10.617
50996W        W23256   8.812   5.848   3.304
50997W        W23257  14.616   3.236   0.801
50998W        W23258  25.517  14.140  12.093
50999W        W23259  41.357  37.024   3.844
51000W        W23260  35.477  16.167   1.844
51001W        W23261  13.688  15.752   1.270
51002W        W23262  12.796  37.377  13.843
51003W        W23263   1.266  13.807  14.025
51004W        W23264  12.339   5.826  11.561
51005W        W23265  24.518  18.706   4.696
51006W        W23266  30.918   6.808  10.996
51007W        W23267  24.070  38.978  11.941
51008W        W23268  44.345  35.019  11.911
51009W        W23269  25.133  42.428   1.245
51010W        W23270  36.367  31.141   1.299
51011W        W23271  33.484  18.186   2.815
51012W        W23272  31.011   4.235   3.316
51013W        W23273  10.835  38.939   4.157
51014W        W23274  16.233  31.922  12.033
51015W        W23275  17.778  11.715  13.387
51016W        W23276  20.668  32.895  14.786
51017W        W23277  34.429   9.819   3.819
51018W        W23278  40.941  26.979   0.883
51019W        W23279  30.920  15.244  12.535
51020W        W23280   9.179  24.066   1.309
51021W        W23281  30.531  12.819  13.486
51022W        W23282  43.317  14.595   4.838
51023W        W23283   4.911  14.213  12.836
51024W        W23284  39.912  33.957  11.059
51025W        W23285   4.266  14.606   4.662
51026W        W23286  10.235  16.303  13.892
51027W        W23287  38.347  32.452  10.642
51028W        W23288  42.349  39.447   2.362
51029W        W23289  41.340  21.032   1.740
51030W        W23290  22.135  32.929  12.900
51031W        W23291  13.633  40.875  12.966
51032W        W23292  43.310   0.341  14.376
51033W        W23293  14.655  39.328   3.688
51034W        W23294  43.899  32.915   0.760
51035W        W23295  30.990  21.036  14.994
51036W        W23296  38.510  43.959   1.254
51037W        W23297   2.930  13.698   0.823
51038W        W23298  29.623  22.206   2.663
51039W        W23299  30.105  32.620   3.819
51040W        W23300  18.172   9.168  12.854
51041W        W23301  27.490  21.040  12.038
51042W        W23302  15.821  24.018   3.691
51043W        W23303  23.207  37.394  14.433
51044W        W23304  13.202   6.819   3.652
51045W        W23305  13.834  25.185  13.362
51046W        W23306   5.243  42.334   1.221
51047W        W23307  33.068  43.932  12.456
51048W        W23308  39.547  16.295   1.443
51049W        W23309  38.891   7.718   0.768
51050W        W23310  34.034  12.133   4.340
51051W        W23311  16.151  41.913   1.869
51052W        W23312  40.873  35.987  13.443
51053W        W23313  26.122  40.420   0.816
51054W        W23314  32.461  42.492  14.377
51055W        W23315  18.267  21.601  12.059
51056W        W23316  36.020  29.544   4.334
51057W        W23317  43.929  41.022   4.649
51058W        W23318  36.569  39.900  14.973
51059W        W23319  24.136  19.696   3.824
51060W        W23320  36.507  23.088  11.579
51061W        W23321  27.942  12.353  11.966
51062W        W23322  30.143  24.601  12.063
51063W        W23323   8.257  43.861   0.852
51064W        W23324  20.142  40.332  11.002
51065W        W23325  15.584   5.247  10.984
51066W        W23326   1.923  40.306  11.404
51067W        W23327  35.412  22.038  13.436
51068W        W23328  44.766   3.334   0.753
51069W        W23329  37.440   2.828   2.234
51070W        W23330  12.301  27.561  12.481
51071W        W23331  34.905  42.352   1.925
51072W        W23332  20.108  11.367   1.426
51073W        W23333   4.798   3.273   1.725
51074W        W23334   3.232   9.822   2.856
51075W        W23335  29.450  34.945  14.997
51076W        W23336  11.129  41.301  14.411
51077W        W23337  13.180  14.625  13.979
51078W        W23338  14.724  30.597  10.121
51079W        W23339  36.987  26.077   1.717
51080W        W23340   9.278  30.502   1.240
51081W        W23341  13.788  16.316  13.997
51082W        W23342  22.705  44.809   1.234
51083W        W23343  26.703  40.407  12.418
51084W        W23344  11.806  29.099   4.780
51085W        W23345  42.303  21.631   2.788
51086W        W23346  42.383  33.593  12.943
51087W        W23347  20.232  30.073  13.470
51088W        W23348   7.719  30.463  14.425
51089W        W23349  28.515  39.045  12.354
51090W        W23350  36.451  36.545   4.317
51091W        W23351  42.934  12.218   4.233
51092W        W23352  11.173  37.338   2.736
51093W        W23353   5.696  37.921   1.332
51094W        W23354  25.621  26.523  11.493
51095W        W23355  41.440   5.390   1.791
51096W        W23356  40.967  32.409  14.851
51097W        W23357  29.557   9.738  11.955
51098W        W23358   4.417   0.839  13.940
51099W        W23359  21.211  44.944   1.297
51100W        W23360  38.071  38.851  10.538
51101W        W23361  27.996   1.253   3.727
51102W        W23362   1.782  17.707   4.794
51103W        W23363  40.019  39.825   2.697
51104W        W23364  38.852   8.772  12.938
51105W        W23365  19.069  33.451   1.378
51106W        W23366  34.493  14.284   3.798
51107W        W23367  17.582  29.660   4.117
51108W        W23368  39.979  34.973   0.425
51109W        W23369  22.228   6.315   0.290
51110W        W23370  30.612  27.092  10.915
51111W        W23371  43.836  17.181   3.285
51112W        W23372  14.225  15.681   1.727
51113W        W23373   2.921   2.873  10.941
51114W        W23374  18.080  27.127  11.524
51115W        W23375  10.315  19.628  11.379
51116W        W23376  15.608  26.519  13.030
51117W        W23377  44.996  41.014  11.605
51118W        W23378  38.029   5.296  13.939
51119W        W23379  42.778  39.820   2.758
51120W        W23380  28.528  40.390  14.516
51121W        W23381   4.895   1.768   4.144
51122W        W23382  36.585  20.162   3.193
51123W        W23383  13.131  34.574  11.518
51124W        W23384  41.894  37.338   0.402
51125W        W23385  21.180  35.434   1.339
51126W        W23386  30.430   8.403   3.319
51127W        W23387  10.173  18.624  10.450
51128W        W23388  30.935  11.247  11.428
51129W        W23389  34.944  37.412  14.983
51130W        W23390  12.174  44.421  14.023
51131W        W23391  11.803  42.966  10.541
51132W        W23392  32.930   8.274  14.815
51133W        W23393  15.731  17.783  11.604
51134W        W23394   3.233  41.941  13.896
51135W        W23395  41.417  13.111  11.094
51136W        W23396  23.113  37.404  10.997
51137W        W23397  36.916  26.679   4.254
51138W        W23398   7.769  44.349   3.362
51139W        W23399  11.860  20.114  10.628
51140W        W23400  20.056  35.068  12.910
51141W        W23401  13.167  16.628  11.080
51142W        W23402   0.352  11.197  13.025
51143W        W23403   4.905  44.903   1.387
51144W        W23404   5.837  32.893  12.056
51145W        W23405  22.066  44.769   0.817
51146W        W23406  23.670  15.109  10.484
51147W        W23407  18.780  39.821  10.507
51148W        W23408  26.030  25.660  11.577
51149W        W23409  25.647   1.903  12.041
51150W        W23410  27.184  39.896  14.003
51151W        W23411   1.784  37.391  12.559
51152W        W23412  41.314  24.622  13.392
51153W        W23413  29.532  30.095   0.343
51154W        W23414   7.281  44.896  14.876
51155W        W23415   1.304  40.836   2.764
51156W        W23416   3.906  37.055   3.222
51157W        W23417  21.085  20.087  12.920
51158W        W23418  25.001   5.315   1.243
51159W        W23419  17.277  24.198  10.561
51160W        W23420  37.832  26.518  14.386
51161W        W23421  25.199  16.316  11.943
51162W        W23422  19.602  27.972   0.950
51163W        W23423  12.802  43.010   1.406
51164W        W23424  38.463  33.461  14.461
51165W        W23425   9.265  21.129  10.486
51166W        W23426  15.696  26.161  11.990
51167W        W23427  39.060  13.276   4.277
51168W        W23428  26.544  27.673  10.528
51169W        W23429   7.760  43.329  12.870
51170W        W23430  20.561  34.896  11.566
51171W        W23431  27.003   8.232   2.849
51172W        W23432  39.466  23.698   4.755
51173W        W23433   0.859  32.455   1.238
51174W        W23434  29.171   3.785  10.968
51175W        W23435  23.003  15.273   2.370
51176W        W23436  26.569  31.100  12.004
51177W        W23437   3.322  15.155  11.542
51178W        W23438  16.705  12.621  10.463
51179W        W23439   4.870  41.418  11.080
51180W        W23440  26.537   4.818   2.845
51181W        W23441  32.508  36.444  12.441
51182W        W23442   4.313  29.119  13.915
51183W        W23443   7.787  12.347   0.284
51184W        W23444   7.228  36.025  12.928
51185W        W23445  17.229  27.955  10.924
51186W        W23446  39.968  12.643   4.652
51187W        W23447  36.040  42.422   4.822
51188W        W23448   5.280  13.630  13.056
51189W        W23449  12.305  16.238  11.925
51190W        W23450   8.657  30.149   1.449
51191W        W23451   4.907  43.946   1.771
51192W        W23452   4.786  42.280  12.457
51193W        W23453  41.827  15.306  14.494
51194W        W23454  19.701  17.626   4.209
51195W        W23455  41.319  16.133  12.437
51196W        W23456   0.484  35.894  12.485
51197W        W23457   4.895  42.413   3.189
51198W        W23458  16.084  39.537   0.309
51199W        W23459  19.716  27.687   4.353
51200W        W23460   2.454  35.937   2.332
51201W        W23461  32.483  26.994   4.183
51202W        W23462  32.927  33.899  14.013
51203W        W23463  24.057  27.105   9.922
51204W        W23464   5.358  29.544   3.271
51205W        W23465   1.483  13.319   1.429
51206W        W23466  20.193   0.877   3.674
51207W        W23467  19.202  44.942   1.698
51208W        W23468  20.727  34.999  11.092
51209W        W23469  26.955   3.715   4.231
51210W        W23470  11.850   7.750  14.478
51211W        W23471  35.584   8.197   0.342
51212W        W23472  44.298  31.423   1.236
51213W        W23473  40.344  30.609  12.363
51214W        W23474   7.901  17.775   0.250
51215W        W23475   8.821  27.143  13.896
51216W        W23476  14.649  26.651   4.218
51217W        W23477   0.339  25.201  13.004
51218W        W23478   3.902  10.352   1.305
51219W        W23479  43.973  18.255  12.417
51220W        W23480  35.378  38.860   9.928
51221W        W23481  21.123   5.292  12.883
51222W        W23482  14.172  23.544   1.933
51223W        W23483  19.106  17.178   3.679
51224W        W23484  18.754  12.851   4.293
51225W        W23485   4.883  23.537   4.173
51226W        W23486  36.516  23.518  11.959
51227W        W23487  35.545  32.081  13.818
51228W        W23488   8.742  21.164   3.264
51229W        W23489   7.238   8.300  11.914
51230W        W23490  32.462  17.621   3.364
51231W        W23491   7.251  34.491  12.003
51232W        W23492  10.793  16.801   3.760
51233W        W23493  43.333   3.880   1.255
51234W        W23494   4.931  30.643   2.356
51235W        W23495  21.250  24.523   2.858
51236W        W23496   3.755  31.928  10.564
51237W        W23497   1.885  39.937   0.795
51238W        W23498  15.678  18.692  14.871
51239W        W23499  30.133  22.245  11.067
51240W        W23500  13.743  24.208  13.526
51241W        W23501   4.925  17.672   0.799
51242W        W23502  12.249  35.459   0.781
51243W        W23503  11.128  37.842   0.283
51244W        W23504  33.487  10.747   1.378
51245W        W23505   3.396  25.526   0.750
51246W        W23506  36.019  18.624  14.983
51247W        W23507  23.504   0.755  13.892
51248W        W23508   6.254  15.595  12.028
51249W        W23509  14.313  18.257  12.066
51250W        W23510   9.854   1.343  10.518
51251W        W23511  43.369   7.871  11.382
51252W        W23512  25.705  40.455   0.420
51253W        W23513  37.358  35.505   3.146
51254W        W23514   0.861  11.130  12.421
51255W        W23515  17.598  33.130  12.351
51256W        W23516   2.428   4.290  14.375
51257W        W23517   1.960   9.701   0.368
51258W        W23518  24.591  41.345  15.000
51259W        W23519  38.062  35.869   0.940
51260W        W23520  29.974  11.326  12.010
51261W        W23521  19.269   8.830   2.201
51262W        W23522   0.449  43.282   0.779
51263W        W23523   4.286  17.700   3.380
51264W        W23524  15.250   3.940   3.170
51265W        W23525  11.631   0.951   5.092
51266W        W23526   3.433  18.111  13.894
51267W        W23527  25.990  32.452   2.243
51268W        W23528   3.914  31.564  12.504
51269W        W23529   8.298  29.122   4.125
51270W        W23530  20.593  41.867   0.376
51271W        W23531  44.981   1.444   4.272
51272W        W23532  14.749   2.420  10.907
51273W        W23533  43.960  44.861   3.376
51274W        W23534  19.564  17.744  12.488
51275W        W23535  41.944  23.205  11.856
51276W        W23536  43.317   0.947   2.398
51277W        W23537  13.326  38.379  13.982
51278W        W23538  29.641  27.105  14.802
51279W        W23539  27.456  35.377   3.870
51280W        W23540  42.871  44.773   1.796
51281W        W23541  41.835   0.281  10.512
51282W        W23542  30.542   9.818   3.670
51283W        W23543  44.313  18.108   1.297
51284W        W23544   4.930  22.741  11.919
51285W        W23545  16.585  38.908  14.315
51286W        W23546  21.124  13.218   3.151
51287W        W23547  44.850   4.734   2.215
51288W        W23548  20.632   4.698  10.619
51289W        W23549  18.694  42.913  10.590
51290W        W23550   3.402  42.992   4.718
51291W        W23551  15.716   6.341  12.850
51292W        W23552  21.223  23.529  10.123
51293W        W23553  32.026  26.702  11.870
51294W        W23554  23.499  27.149   0.425
51295W        W23555  19.610  35.465  14.936
51296W        W23556  29.019  18.175   2.241
51297W        W23557  38.415  37.468   2.406
51298W        W23558  33.389  41.298  14.370
51299W        W23559  15.174  25.693  13.957
51300W        W23560  11.287  29.635   5.741
51301W        W23561  25.156  35.395  13.969
51302W        W23562   4.357  15.752   1.301
51303W        W23563   4.239  29.521   3.233
51304W        W23564   1.931  12.845   2.785
51305W        W23565  38.847  11.806  14.832
51306W        W23566   9.675  26.187   3.858
51307W        W23567  32.085  32.118  14.031
51308W        W23568  22.089  29.532   9.959
51309W        W23569   0.940  10.798   0.333
51310W        W23570  38.523  39.967   3.633
51311W        W23571  24.175  41.787  11.466
51312W        W23572  38.049   5.820  13.410
51313W        W23573  38.561  39.845   3.381
51314W        W23574  28.566  40.346  11.031
51315W        W23575  22.515  13.283   1.798
51316W        W23576  34.063  41.836   3.662
51317W        W23577  44.859  10.153  14.317
51318W        W23578  13.178   9.193  14.919
51319W        W23579  28.954  44.308  12.054
51320W        W23580  42.959   5.777   0.784
51321W        W23581  40.998  22.200   2.387
51322W        W23582  38.847  27.095   3.243
51323W        W23583  13.716   6.335  10.450
51324W        W23584   4.247  31.412  14.782
51325W        W23585  18.101  17.072  10.412
51326W        W23586  19.182   0.976   3.280
51327W        W23587  38.542  14.247  12.455
51328W        W23588  34.383  27.117  14.869
51329W        W23589   2.834  36.587   3.649
51330W        W23590   2.376  31.038   3.865
51331W        W23591  43.507  10.384   2.901
51332W        W23592   2.759  19.113   1.696
51333W        W23593  38.033  17.064  11.478
51334W        W23594   7.350   9.377  11.074
51335W        W23595   1.281  33.532   0.412
51336W        W23596  10.804  39.913  12.495
51337W        W23597  40.508  13.705  14.777
51338W        W23598  25.707  25.541  13.334
51339W        W23599  35.889  22.008   3.239
51340W        W23600  17.227  16.795   2.894
51341W        W23601   8.336  33.878   2.344
51342W        W23602  15.817  29.920   2.853
51343W        W23603  35.582  39.808   2.369
51344W        W23604  21.549  25.670   2.261
51345W        W23605  32.411   0.283   2.205
51346W        W23606  35.570  24.077   1.729
51347W        W23607  41.307  13.296  13.500
51348W        W23608  31.502  42.330  13.937
51349W        W23609  29.120  21.186   4.209
51350W        W23610  32.040  26.041  11.484
51351W        W23611  43.280  43.008  10.584
51352W        W23612  41.956  30.110   1.291
51353W        W23613  36.011  21.655   3.280
51354W        W23614  24.566  19.744  10.449
51355W        W23615   5.318  39.450   1.258
51356W        W23616   5.415  13.297  12.397
51357W        W23617  14.639   5.890  10.149
51358W        W23618  21.640  25.621   4.298
51359W        W23619  11.231  33.623  13.509
51360W        W23620  35.936  39.848   2.281
51361W        W23621  29.654  41.032  12.065
51362W        W23622   3.889  21.514  11.102
51363W        W23623  17.616   6.700  13.392
51364W        W23624  41.455   6.865  11.040
51365W        W23625  34.565  32.075  13.318
51366W        W23626  27.078  36.397   4.251
51367W        W23627  27.578  30.559   5.264
51368W        W23628  35.863  20.254  10.157
51369W        W23629  15.169  10.684   3.803
51370W        W23630  33.049   0.413  12.917
51371W        W23631   5.256  34.026  10.622
51372W        W23632  36.375  42.287  10.439
51373W        W23633   4.245  38.545   4.258
51374W        W23634  31.404  24.044   1.732
51375W        W23635   8.215  29.092   0.768
51376W        W23636  34.975  12.293  14.818
51377W        W23637  30.130  10.840  14.935
51378W        W23638  18.733   0.982   2.325
51379W        W23639  21.743  17.085  12.554
51380W        W23640  24.100   6.300   0.893
51381W        W23641  37.975  29.106   1.706
51382W        W23642  12.289  37.458   4.355
51383W        W23643  10.686  22.674  13.537
51384W        W23644  39.994  39.005  11.547
51385W        W23645  10.383  37.051   2.690
51386W        W23646  26.689  37.419  14.831
51387W        W23647  12.285  26.653   2.217
51388W        W23648  41.339   0.269  10.967
51389W        W23649  44.809   8.682   2.180
51390W        W23650  14.773  28.452   1.851
51391W        W23651  34.472   7.839   0.466
51392W        W23652  10.807   4.211  14.316
51393W        W23653   7.858  38.327   1.394
51394W        W23654  26.070  42.011  12.429
51395W        W23655  41.337  35.090   4.653
51396W        W23656  21.612   5.219  12.952
51397W        W23657  35.366  26.542  11.110
51398W        W23658  15.318   9.263  13.322
51399W        W23659  20.634   3.341  11.092
51400W        W23660  42.363   8.874  14.857
51401W        W23661  15.109  25.620  12.958
51402W        W23662  28.534   3.447  14.856
51403W        W23663   0.958   7.386  10.488
51404W        W23664  24.001  26.622   4.699
51405W        W23665  28.122  28.105   3.837
51406W        W23666  29.926  25.650  12.494
51407W        W23667  19.214  14.301   1.318
51408W        W23668  40.475  37.500  12.479
51409W        W23669  12.849  21.534   2.876
51410W        W23670   3.728  18.155  12.564
51411W        W23671  25.120   4.321  10.552
51412W        W23672   9.209  28.945  12.397
51413W        W23673  15.292  38.434  10.575
51414W        W23674  43.473  39.462   0.938
51415W        W23675  36.365  14.668  14.932
51416W        W23676  11.837  26.184   2.189
51417W        W23677   8.822  34.041   1.236
51418W        W23678  39.962   0.319  14.860
51419W        W23679  19.562  28.504   1.812
51420W        W23680  16.606  18.133  10.904
51421W        W23681   3.435  13.624  11.574
51422W        W23682   6.303   9.860   1.796
51423W        W23683  36.054  22.208   3.756
51424W        W23684  27.632  42.017   3.677
51425W        W23685  21.134  32.081  11.450
51426W        W23686  22.527  19.235  13.535
51427W        W23687  41.843  13.284  14.912
51428W        W23688  42.324  10.260   1.772
51429W        W23689  13.767  26.691  10.922
51430W        W23690  16.251  40.439  14.790
51431W        W23691  20.623  44.288   2.769
51432W        W23692   4.388  37.029   0.904
51433W        W23693  33.556  21.048  13.333
51434W        W23694  38.519  32.988   0.362
51435W        W23695  36.488  32.943  14.849
51436W        W23696   3.267   1.276   1.356
51437W        W23697  33.488  27.976  11.546
51438W        W23698  21.167  26.141  12.483
51439W        W23699  40.008  31.005   4.630
51440W        W23700   7.404  30.444  14.002
51441W        W23701  26.095  26.685   5.122
51442W        W23702  17.214  28.678   1.782
51443W        W23703  25.121  28.678   1.345
51444W        W23704  25.663   0.987  12.909
51445W        W23705  23.166  42.942   0.364
51446W        W23706  24.001  29.530  13.846
51447W        W23707  13.334   6.691  13.825
51448W        W23708  34.580   2.313   3.836
51449W        W23709  33.066  32.942   0.462
51450W        W23710  24.144   1.937   3.231
51451W        W23711  40.377   2.958  12.067
51452W        W23712  27.193  36.456   0.788
51453W        W23713  11.280  14.816  12.836
51454W        W23714  33.574  39.951  14.433
51455W        W23715  15.121   1.278  12.964
51456W        W23716  35.887  18.246   0.285
51457W        W23717  34.403   2.808   0.758
51458W        W23718   9.784  43.016   0.281
51459W        W23719  12.265  36.524   3.806
51460W        W23720  34.994  33.399   9.950
51461W        W23721  12.647  44.934  14.806
51462W        W23722  21.609  22.565   0.289
51463W        W23723   5.737   9.156   4.740
51464W        W23724   1.389  38.055  14.921
51465W        W23725   2.777  23.674   1.811
51466W        W23726  19.687  17.191  10.516
51467W        W23727  33.460  19.268   0.398
51468W        W23728  40.397  30.961  11.497
51469W        W23729  29.031  41.975  11.574
51470W        W23730  27.460  10.682   0.417
51471W        W23731  43.885  14.216   2.241
51472W        W23732  28.003  19.124  14.858
51473W        W23733  35.574  25.080   2.374
51474W        W23734  19.704  17.139  12.850
51475W        W23735  30.485  23.181   0.770
51476W        W23736  25.614  29.044  10.935
51477W        W23737  27.172  33.031   4.674
51478W        W23738   3.809  16.147  12.073
51479W        W23739  27.561  33.385   0.856
51480W        W23740  29.935   2.783  12.928
51481W        W23741  36.959  17.620  12.071
51482W        W23742  23.054  34.588  14.773
51483W        W23743  28.490   6.737  13.867
51484W        W23744   3.312  18.161  14.916
51485W        W23745  16.780  27.976   1.450
51486W        W23746  10.290  29.045  12.424
51487W        W23747  42.504  14.642   1.752
51488W        W23748  24.691   7.840   1.251
51489W        W23749  35.581   6.907   2.822
51490W        W23750  36.905  40.984   2.250
51491W        W23751  44.398  40.839  13.330
51492W        W23752  42.787  18.704  14.969
51493W        W23753  20.234  35.923   0.775
51494W        W23754  32.130  43.904   4.597
51495W        W23755  34.556   7.773   4.318
51496W        W23756  22.511  44.904  13.478
51497W        W23757  44.356  17.561  12.885
51498W        W23758  12.793   8.818  11.077
51499W        W23759  22.224  24.076  10.908
51500W        W23760  17.248  27.961  14.346
51501W        W23761  28.046  12.255  14.974
51502W        W23762  17.171  24.124  14.820
51503W        W23763   8.721  28.636  13.950
51504W        W23764   1.396  30.966   1.746
51505W        W23765  35.565  26.119   2.259
51506W        W23766  29.165  31.915  12.539
51507W        W23767   1.798   6.287  13.363
51508W        W23768  26.570  30.958   3.251
51509W        W23769  22.172  36.063   0.827
51510W        W23770  42.310  36.871   4.764
51511W        W23771  21.727  41.337   2.899
51512W        W23772   6.897  13.798  10.586
51513W        W23773  24.660  36.544   2.759
51514W        W23774  12.857  35.900  13.989
51515W        W23775  39.479  22.124   3.378
51516W        W23776  39.498  12.317  13.007
51517W        W23777   8.396   7.673  10.640
51518W        W23778  36.875   7.883  13.855
51519W        W23779  27.631  16.267  10.974
51520W        W23780  30.986  40.869   3.809
51521W        W23781   6.867   0.937  13.984
51522W        W23782  25.181   6.689   3.275
51523W        W23783  17.274   3.337  12.479
51524W        W23784  15.645   8.772   3.326
51525W        W23785  40.050  21.613   1.775
51526W        W23786  22.135   6.378  14.011
51527W        W23787   3.220  17.145   0.914
51528W        W23788   7.850  32.054   1.311
51529W        W23789  12.693   1.793  14.336
51530W        W23790   4.753  41.790  10.550
51531W        W23791  37.901  22.138  12.986
51532W        W23792  38.017   8.717  11.123
51533W        W23793  40.839   5.839  14.908
51534W        W23794  18.173  35.101   3.679
51535W        W23795  42.928   3.420   5.230
51536W        W23796   9.675  23.999   0.748
51537W        W23797  15.211  31.408  11.441
51538W        W23798  20.652   1.398  10.596
51539W        W23799  16.177  38.052  12.908
51540W        W23800  10.340  34.901  10.927
51541W        W23801   0.848  24.123  14.891
51542W        W23802  15.612   9.851  14.916
51543W        W23803  44.352  33.458  13.518
51544W        W23804   9.361  28.450   2.274
51545W        W23805  18.145  42.453   0.900
51546W        W23806  26.506  35.378  14.951
51547W        W23807  42.461  25.503  14.405
51548W        W23808  31.953   5.723  11.106
51549W        W23809  36.869   2.802  14.797
51550W        W23810   6.286  30.641  10.918
51551W        W23811  41.481  34.595  14.962
51552W        W23812  14.650  12.767  10.543
51553W        W23813   3.444   8.227  13.529
51554W        W23814  41.959  24.186  12.425
51555W        W23815  18.751  42.369   4.732
51556W        W23816  42.413  23.590   3.195
51557W        W23817  44.500   8.361   5.167
51558W        W23818   5.394  10.849   4.319
51559W        W23819  11.200   5.388  13.434
51560W        W23820  10.864  19.195   3.641
51561W        W23821  41.874  28.560  12.467
51562W        W23822   0.984  12.620   2.862
51563W        W23823  40.008  39.517   1.753
51564W        W23824  34.953  27.633   0.327
51565W        W23825  27.663  43.858  13.058
51566W        W23826  20.071  42.005   1.306
51567W        W23827   1.898   7.391  11.509
51568W        W23828  11.803  23.684  11.449
51569W        W23829   8.265  30.623   1.295
51570W        W23830  23.567  26.185   3.371
51571W        W23831  13.771  15.263   0.291
51572W        W23832   6.715  39.883  13.925
51573W        W23833  37.522  36.957   3.373
51574W        W23834   0.949  32.003  13.534
51575W        W23835  22.683   2.361   3.300
51576W        W23836  31.456  44.494  12.342
51577W        W23837   3.254  23.004  11.434
51578W        W23838  29.436   2.385  12.440
51579W        W23839  22.587  32.121   2.361
51580W        W23840  37.902  41.393   5.104
51581W        W23841   9.890  24.214   4.692
51582W        W23842  13.632  23.145  12.849
51583W        W23843  15.283  14.743   2.773
51584W        W23844  38.353  34.114   3.205
51585W        W23845  22.645  35.469  13.482
51586W        W23846   4.402  41.953  10.465
51587W        W23847   0.959   0.401  10.404
51588W        W23848  29.652  43.485  10.420
51589W        W23849  29.655  26.606  14.405
51590W        W23850  29.616  34.071   0.903
51591W        W23851   7.191  37.399  13.951
51592W        W23852  42.984  17.627  12.009
51593W        W23853  17.231  10.751   4.196
51594W        W23854  38.476   0.881  12.041
51595W        W23855  22.085  24.019  11.429
51596W        W23856   8.721  27.574  14.514
51597W        W23857  37.348   0.440  14.769
51598W        W23858  30.417  13.800  11.983
51599W        W23859  23.090  11.831  10.534
51600W        W23860  10.368  11.847  13.019
51601W        W23861  20.661  18.249   1.726
51602W        W23862   3.891   6.296   4.794
51603W        W23863  15.293  10.187  14.824
51604W        W23864  31.546  41.021   0.252
51605W        W23865   8.805   3.312  12.341
51606W        W23866   6.677  16.573  13.544
51607W        W23867  28.109  40.834  13.398
51608W        W23868  28.534  35.467  11.514
51609W        W23869  16.108   7.715   3.681
51610W        W23870  28.172  18.182  14.468
51611W        W23871  12.160  20.028   1.244
51612W        W23872  16.603  39.486   0.875
51613W        W23873   7.712  10.280  11.934
51614W        W23874   9.208  25.579   0.260
51615W        W23875  44.334  25.089   1.371
51616W        W23876  43.958  15.652  14.893
51617W        W23877  27.072  34.414  11.530
51618W        W23878   5.704  11.772   0.914
51619W        W23879  13.268  39.428   3.285
51620W        W23880  21.043   4.894   2.406
51621W        W23881  35.047  28.186  13.466
51622W        W23882   3.291  35.932  11.973
51623W        W23883   0.311  42.888   2.318
51624W        W23884  21.085  37.958   1.928
51625W        W23885   4.926  11.171  13.320
51626W        W23886  13.828  16.268   3.366
51627W        W23887   7.871  12.714  13.513
51628W        W23888   9.371  36.424   1.825
51629W        W23889  25.593  41.037  11.419
51630W        W23890  11.271  30.933   1.241
51631W        W23891  27.095  42.798  13.810
51632W        W23892   9.238  32.438   3.231
51633W        W23893  38.879  29.531  13.790
51634W        W23894  14.643  19.097  14.862
51635W        W23895   2.363  16.608   1.431
51636W        W23896  34.890  16.750   0.449
51637W        W23897  26.985  22.666   2.844
51638W        W23898  38.863  44.780   0.869
51639W        W23899  21.108  33.902   1.379
51640W        W23900  43.949  12.122   3.750
51641W        W23901  21.524  40.953   3.725
51642W        W23902  19.253  29.112   1.828
51643W        W23903   7.288  33.548   3.316
51644W        W23904  42.294  12.198  12.580
51645W        W23905  11.268  23.670   2.745
51646W        W23906   2.922  32.420   0.827
51647W        W23907  24.546   5.205  10.971
51648W        W23908  37.472  15.581  13.793
51649W        W23909  28.681  29.028   3.868
51650W        W23910  34.380  18.701  12.480
51651W        W23911  29.980  36.488  10.961
51652W        W23912   2.881  31.012  11.482
51653W        W23913   4.859  19.565  13.826
51654W        W23914  32.584  26.702  14.295
51655W        W23915  43.461  20.054  13.496
51656W        W23916  11.850   1.413  13.397
51657W        W23917  15.801  16.571   5.784
51658W        W23918  36.978  26.591  10.639
51659W        W23919  19.667  22.714  10.431
51660W        W23920   4.335   8.655  12.493
51661W        W23921  11.177  18.571   3.782
51662W        W23922   0.462  18.725  10.433
51663W        W23923   2.930  32.094  12.366
51664W        W23924  27.032  35.026   4.770
51665W        W23925  11.309  14.736  10.889
51666W        W23926  42.492  26.679  12.566
51667W        W23927  44.264   7.837  11.048
51668W        W23928  12.661  43.361  11.436
51669W        W23929  25.606  30.541   4.212
51670W        W23930  28.527  33.058  12.342
51671W        W23931   2.870  29.074   0.932
51672W        W23932  36.445  13.786   1.828
51673W        W23933  40.800  28.545  11.388
51674W        W23934   2.776  35.083  14.466
51675W        W23935  23.670  43.782   0.388
51676W        W23936   7.271  12.135   2.253
51677W        W23937  17.764  36.589  11.002
51678W        W23938   1.815  27.484   3.308
51679W        W23939   8.285  36.891  14.843
51680W        W23940  11.199  18.181  13.052
51681W        W23941   2.863  39.921  13.898
51682W        W23942  20.756   1.885  14.031
51683W        W23943  44.378  15.203   0.367
51684W        W23944  22.066  30.051   4.279
51685W        W23945  33.988  35.020   2.689
51686W        W23946   4.754   5.917  13.426
51687W        W23947   1.329  34.495  11.925
51688W        W23948  36.052   3.262  10.550
51689W        W23949  18.562  10.684  12.050
51690W        W23950  40.976   7.724   4.770
51691W        W23951  40.858   4.203   2.736
51692W        W23952   7.714  28.480   3.207
51693W        W23953  20.657   9.725  12.956
51694W        W23954  25.215  22.600  14.022
51695W        W23955  43.932  40.038  14.864
51696W        W23956   4.232  26.630  11.999
51697W        W23957  35.878  25.497  10.535
51698W        W23958  10.806   0.317  11.400
51699W        W23959  42.442  18.636  11.581
51700W        W23960  38.374  37.867  11.096
51701W        W23961  28.099  25.052  12.578
51702W        W23962  22.716  26.115   3.712
51703W        W23963  30.653   4.206  14.817
51704W        W23964   0.442  25.966  10.606
51705W        W23965  16.152  35.948   0.267
51706W        W23966  18.766   2.278  12.433
51707W        W23967  27.460  38.325  14.303
51708W        W23968   6.901  34.376   1.428
51709W        W23969  21.689  13.810  10.547
51710W        W23970  27.546   3.431   4.695
51711W        W23971  44.274   4.847  13.414
51712W        W23972  24.661  37.429   2.396
51713W        W23973  19.645   7.278  12.908
51714W        W23974  41.979  41.970  12.574
51715W        W23975  25.979  37.963   4.164
51716W        W23976  25.990   6.267  13.808
51717W        W23977  21.099  36.855   1.371
51718W        W23978  14.771  33.088  11.971
51719W        W23979   2.952   8.782  12.436
51720W        W23980  12.320  29.663   3.642
51721W        W23981  41.407  25.655   0.326
51722W        W23982  32.612  35.492  13.435
51723W        W23983  24.984  30.468   2.181
51724W        W23984  16.599  43.270  14.294
51725W        W23985  14.133  15.232  13.056
51726W        W23986  12.750  19.080  12.004
51727W        W23987  33.621  16.577   0.859
51728W        W23988  35.587   0.389   4.640
51729W        W23989   6.715   8.202   0.247
51730W        W23990  20.649  11.220   4.258
51731W        W23991  36.559  21.718   1.379
51732W        W23992  33.457  12.634  14.467
51733W        W23993  22.590   2.815   1.416
51734W        W23994  16.590  15.291   4.173
51735W        W23995   5.216  28.033   4.721
51736W        W23996  20.641  44.291   1.861
51737W        W23997  32.047  19.762  14.351
51738W        W23998  35.854  15.293  10.482
51739W        W23999  19.202  35.481  11.857
51740W        W24000   3.752  21.228  12.961
51741W        W24001  26.970   4.360  11.903
51742W        W24002  14.653  32.073  10.087
51743W        W24003   0.822  12.199  13.955
51744W        W24004  16.209   9.877   4.684
51745W        W24005  34.081  40.428  14.288
51746W        W24006  11.687   9.836   4.334
51747W        W24007   6.825  16.638   3.831
51748W        W24008  24.680  41.327  12.429
51749W        W24009  37.411  29.076  14.390
51750W        W24010   4.234  30.448   4.737
51751W        W24011  36.096   4.287  12.862
51752W        W24012  36.356   7.755   4.761
51753W        W24013  10.371  41.858   5.283
51754W        W24014   2.724  20.608   3.713
51755W        W24015   7.818  43.941  12.057
51756W        W24016   5.882  20.527  11.970
51757W        W24017  31.411  17.274  12.079
51758W        W24018   2.295  21.225   0.407
51759W        W24019  40.481  28.955   3.277
51760W        W24020   0.387  16.630   1.385
51761W        W24021  33.972   5.878  14.405
51762W        W24022   1.250  23.050   2.347
51763W        W24023  26.118  38.391  14.790
51764W        W24024  36.065  44.457  14.906
51765W        W24025  36.907  21.264   1.441
51766W        W24026  36.985  39.532  11.424
51767W        W24027  40.010  30.162  10.498
51768W        W24028  16.169  18.189  13.328
51769W        W24029  30.957   7.707   4.717
51770W        W24030  37.025  36.890   1.235
51771W        W24031  11.859  32.599   0.953
51772W        W24032  10.700  32.918   4.811
51773W        W24033  17.196  35.873  12.478
51774W        W24034  31.429  40.451   3.629
51775W        W24035  15.228  30.152  12.385
51776W        W24036  11.757   5.923   0.780
51777W        W24037   8.302   8.899  11.017
51778W        W24038  44.359  23.147   1.324
51779W        W24039  24.596  28.150   4.163
51780W        W24040  22.121  33.530  12.045
51781W        W24041  19.095  31.075  12.906
51782W        W24042  26.147  42.876  11.606
51783W        W24043  21.639  37.487  13.497
51784W        W24044   5.687  16.780   2.707
51785W        W24045   5.793  33.911   4.622
51786W        W24046  43.973  44.420   0.740
51787W        W24047  44.846   3.854  13.963
51788W        W24048   6.413   1.905  12.991
51789W        W24049  42.397  24.980  12.399
51790W        W24050  21.708  18.285   3.664
51791W        W24051  39.342  16.109   2.371
51792W        W24052   3.220  37.365   0.769
51793W        W24053  36.862  18.656   3.213
51794W        W24054   2.826  33.469  10.912
51795W        W24055   7.326  32.440  14.489
51796W        W24056  33.885  38.336   1.734
51797W        W24057  31.088  37.857   4.213
51798W        W24058  27.519  25.192  14.333
51799W        W24059  33.524   5.236   4.816
51800W        W24060  41.392  22.633   2.252
51801W        W24061  18.641  21.210   2.864
51802W        W24062   5.792  25.574  12.406
51803W        W24063   5.862  10.652   0.331
51804W        W24064  21.566  38.449  14.915
51805W        W24065  13.667  26.143  13.992
51806W        W24066   4.852  32.906  14.375
51807W        W24067  44.395  11.692   1.772
51808W        W24068  41.301   5.825   3.708
51809W        W24069   7.195  26.693   1.365
51810W        W24070  40.879  19.727  12.863
51811W        W24071  33.412  28.110   2.724
51812W        W24072  17.112  12.154  12.382
51813W        W24073   2.746   2.828   2.404
51814W        W24074   8.797   8.296   4.184
51815W        W24075  28.681  34.960   2.824
51816W        W24076  12.669   5.738  12.028
51817W        W24077  44.404  13.749  10.918
51818W        W24078  42.347  18.058   2.191
51819W        W24079  31.586  38.878  12.037
51820W        W24080  23.132  25.600   0.892
51821W        W24081  11.137  43.811   3.700
51822W        W24082  29.029  36.353   3.262
51823W        W24083  28.088  16.189  12.878
51824W        W24084  18.052  43.926   3.690
51825W        W24085  22.611  18.127   4.771
51826W        W24086  22.652  39.362  14.878
51827W        W24087   5.707   7.182   1.928
51828W        W24088  39.481  42.012   4.295
51829W        W24089  27.453  15.274  11.503
51830W        W24090  35.955  39.939   0.909
51831W        W24091  40.328  27.467   2.370
51832W        W24092  33.116   4.703   4.778
51833W        W24093  23.675  40.352  12.546
51834W        W24094  29.425  36.937  11.104
51835W        W24095   5.717   6.200   0.448
51836W        W24096  33.933  41.866  13.436
51837W        W24097  43.479  40.952  14.367
51838W        W24098   6.815   5.305   1.707
51839W        W24099  14.693  34.949   0.731
51840W        W24100  24.026  20.225   0.937
51841W        W24101  18.740   5.399  10.470
51842W        W24102  10.378  12.205  11.948
51843W        W24103  21.087  29.586   1.852
51844W        W24104   4.817  21.161  12.423
51845W        W24105   6.815  20.565  11.115
51846W        W24106  34.883   4.776   2.219
51847W        W24107  20.742  28.148   2.286
51848W        W24108  11.324   7.252   0.392
51849W        W24109  15.718  29.613  14.873
51850W        W24110  43.377  28.521  11.442
51851W        W24111  13.708  18.223  10.902
51852W        W24112  30.083  17.289   2.355
51853W        W24113   6.257   1.305  13.898
51854W        W24114  44.409   8.306  12.081
51855W        W24115  43.503   8.855  12.494
51856W        W24116  43.846   5.724   0.827
51857W        W24117   4.421   7.865   3.699
51858W        W24118   5.206  22.718   2.365
51859W        W24119  24.002   4.804   2.313
51860W        W24120  15.109  42.925  13.997
51861W        W24121  34.535  18.288   4.330
51862W        W24122  18.643  11.333  13.849
51863W        W24123  38.886  21.060   0.751
51864W        W24124  26.597  31.464  14.961
51865W        W24125   3.281  34.554  13.801
51866W        W24126  14.273  30.443   9.617
51867W        W24127  33.518  31.153   4.289
51868W        W24128  26.142   7.194   0.245
51869W        W24129  37.078  38.550  11.501
51870W        W24130  34.573  22.686   4.303
51871W        W24131  11.283  18.687  13.000
51872W        W24132  36.854   2.282  13.901
51873W        W24133  29.651  20.105   3.339
51874W        W24134   6.326  22.014  12.928
51875W        W24135  24.139  27.085   1.432
51876W        W24136  25.211  39.929  10.988
51877W        W24137   3.236  24.012  10.526
51878W        W24138  31.452  24.193  13.414
51879W        W24139  31.050  22.082   2.362
51880W        W24140  15.812  14.157   4.224
51881W        W24141  13.638  13.264   4.158
51882W        W24142  12.771  18.706  12.879
51883W        W24143  23.512  44.807   0.266
51884W        W24144   0.487  42.416   1.366
51885W        W24145  16.572  41.862  13.456
51886W        W24146  10.831   3.823  10.994
51887W        W24147  29.645   5.263   3.316
51888W        W24148   8.234  26.113  14.286
51889W        W24149   1.879   7.367   1.931
51890W        W24150  12.186  19.125  13.439
51891W        W24151  40.019   7.203  14.785
51892W        W24152  34.605  32.395  10.572
51893W        W24153  39.556   5.924   4.284
51894W        W24154  22.145  34.596   4.775
51895W        W24155  18.688  14.288  10.110
51896W        W24156  23.517   4.725   2.863
51897W        W24157  14.834  35.096   2.406
51898W        W24158  13.663  13.150  13.487
51899W        W24159  25.561  15.691   2.696
51900W        W24160   3.226   9.391   4.757
51901W        W24161  16.701  31.951  11.947
51902W        W24162  43.002  10.873   3.739
51903W        W24163  37.014  28.542  10.468
51904W        W24164  40.053  32.496   1.359
51905W        W24165  10.262  16.664  13.309
51906W        W24166  19.744  20.247   2.798
51907W        W24167  35.872  43.961  11.568
51908W        W24168  33.396  32.973   1.357
51909W        W24169  17.669  17.679   4.196
51910W        W24170  14.696  14.703  11.871
51911W        W24171  42.390  24.183   3.254
51912W        W24172  21.758  20.659   0.425
51913W        W24173   5.275   2.451   1.299
51914W        W24174  20.223  16.575   3.763
51915W        W24175  43.768  16.661   2.899
51916W        W24176  44.380   6.428  11.069
51917W        W24177  42.009  22.086   0.949
51918W        W24178  30.540  21.044  10.462
51919W        W24179  15.729  21.230   2.245
51920W        W24180  42.906   6.359   0.919
51921W        W24181  26.539   8.783   0.726
51922W        W24182   1.300  17.566  13.499
51923W        W24183   8.887  29.600   0.365
51924W        W24184  36.883  26.207   1.335
51925W        W24185  19.595  41.315   0.740
51926W        W24186  31.039   9.873  13.044
51927W        W24187  37.048  11.789  13.496
51928W        W24188  44.335  18.553  14.894
51929W        W24189  20.653  22.631   1.848
51930W        W24190  37.492  19.672   1.263
51931W        W24191  14.642  10.194   3.308
51932W        W24192  27.132   1.892  13.316
51933W        W24193  37.420  10.854   9.961
51934W        W24194  36.396  27.490   2.270
51935W        W24195  32.570   3.901   1.700
51936W        W24196   7.901  26.460   0.752
51937W        W24197   9.298  24.635  11.085
51938W        W24198  20.670  16.568   2.671
51939W        W24199  11.182  31.075  11.092
51940W        W24200   0.337  33.583  10.408
51941W        W24201  28.571   7.876   2.196
51942W        W24202  13.262  14.238   4.148
51943W        W24203  39.355  44.930   2.372
51944W        W24204  27.532  37.891  10.992
51945W        W24205  38.349  36.958   3.238
51946W        W24206  42.783   8.368   2.223
51947W        W24207   9.324  11.820  11.459
51948W        W24208   9.290   2.736  14.424
51949W        W24209  29.607  32.048   3.361
51950W        W24210  41.977  33.125   2.282
51951W        W24211  43.419  43.797  12.560
51952W        W24212  17.587   2.889   0.743
51953W        W24213  19.204   2.247  13.984
51954W        W24214  18.207  35.034   3.152
51955W        W24215  17.080  42.501   0.337
51956W        W24216  35.953  38.941   0.333
51957W        W24217  19.079  31.638   1.888
51958W        W24218  31.919  41.988   3.869
51959W        W24219  33.962  11.655   1.891
51960W        W24220   5.314  25.589  12.562
51961W        W24221  29.461   2.433  13.974
51962W        W24222   8.405   4.382   2.666
51963W        W24223  30.652  43.400   0.450
51964W        W24224   6.290  21.579  10.572
51965W        W24225  44.799  31.502  13.040
51966W        W24226  41.034   5.889  10.481
51967W        W24227  34.080   4.787   2.210
51968W        W24228  17.597  11.205  12.977
51969W        W24229  21.582   4.211  14.343
51970W        W24230  40.965  38.871   0.892
51971W        W24231   5.358  18.084  12.895
51972W        W24232  17.586   9.348   4.184
51973W        W24233  43.821  32.124  11.402
51974W        W24234  29.988   9.656  13.840
51975W        W24235  31.047  11.368  13.519
51976W        W24236   7.189  24.675   0.304
51977W        W24237  43.939  15.199  12.490
51978W        W24238  38.369  29.032  11.964
51979W        W24239  23.571  26.652  11.432
51980W        W24240   5.817  28.556  10.919
51981W        W24241  19.600  21.106   2.248
51982W        W24242   4.803  36.469   2.338
51983W        W24243  38.061   1.792  12.936
51984W        W24244   6.367   2.752  11.924
51985W        W24245   9.152  30.916  11.376
51986W        W24246  41.444  28.607   2.304
51987W        W24247  15.323  34.078  10.608
51988W        W24248  15.709  28.130   5.243
51989W        W24249   6.776   7.216  13.983
51990W        W24250  26.024  25.511  12.356
51991W        W24251  10.317   7.300  12.831
51992W        W24252  30.931   3.399  10.977
51993W        W24253   4.732  10.658  12.490
51994W        W24254  11.320  22.611   3.856
51995W        W24255   7.256  28.669  14.759
51996W        W24256  23.601  22.590  10.939
51997W        W24257  16.101   2.321  12.418
51998W        W24258  39.501   2.273  11.056
51999W        W24259  33.090  21.601  10.540
52000W        W24260  41.875  18.568  12.479
52001W        W24261  25.590  21.591  13.047
52002W        W24262  44.766  38.542   2.248
52003W        W24263  22.146  17.584   4.297
52004W        W24264  37.980   0.260  12.422
52005W        W24265   3.400  44.398   0.785
52006W        W24266  20.071  23.076   0.915
52007W        W24267  31.912  34.926  12.389
52008W        W24268  16.100   0.258   2.308
52009W        W24269  30.479  35.454   0.882
52010W        W24270  31.024  13.685  13.528
52011W        W24271  14.183  26.490   2.267
52012W        W24272  16.710  17.122  13.381
52013W        W24273  25.647  25.637   3.367
52014W        W24274  32.450  10.306   0.834
52015W        W24275   6.896   1.759  12.427
52016W        W24276   2.925  25.010  12.845
52017W        W24277  44.446  32.986  14.772
52018W        W24278  12.161   4.447   4.813
52019W        W24279  21.168  34.455  13.919
52020W        W24280  33.613  23.499   4.170
52021W        W24281  40.537  33.098  10.636
52022W        W24282  21.574  10.261   2.705
52023W        W24283  30.937  10.371   0.472
52024W        W24284  36.526  37.471  12.888
52025W        W24285  18.169  14.627  14.488
52026W        W24286   9.189   0.452   0.431
52027W        W24287  29.020   2.451   4.345
52028W        W24288  18.756  21.714  11.441
52029W        W24289  22.608  22.565   0.248
52030W        W24290  35.006  24.660  14.824
52031W        W24291  34.112  23.117  13.831
52032W        W24292  34.905  44.262   4.788
52033W        W24293  41.947  35.587  14.477
52034W        W24294   6.231  28.556  12.385
52035W        W24295  37.477  10.659   5.227
52036W        W24296  30.481  33.938  12.961
52037W        W24297   8.327  10.211   4.601
52038W        W24298  40.445  11.755  11.022
52039W        W24299  18.080   2.467  13.923
52040W        W24300  13.339   9.314   2.862
52041W        W24301  16.091  32.889   1.256
52042W        W24302  40.516  29.163   1.358
52043W        W24303  15.709  32.483   4.186
52044W        W24304   5.439  14.731   4.300
52045W        W24305  37.052   0.320   0.881
52046W        W24306  12.302   0.800   3.778
52047W        W24307   4.284  26.697   2.781
52048W        W24308  16.180  25.217   0.401
52049W        W24309  23.684  37.056  11.386
52050W        W24310  13.269  11.832   5.291
52051W        W24311  36.546   4.908  12.371
52052W        W24312  36.965  41.485   3.754
52053W        W24313  18.605  39.504   0.852
52054W        W24314  39.000  17.169  14.976
52055W        W24315  33.571  28.135  12.048
52056W        W24316  31.930  41.489  12.442
52057W        W24317   7.323   7.177   0.939
52058W        W24318   9.265   1.821   4.344
52059W        W24319  24.662  40.047   1.421
52060W        W24320  29.076  25.201  12.899
52061W        W24321  34.546   5.805   3.149
52062W        W24322  11.362  20.075  14.419
52063W        W24323  24.194  15.126   2.242
52064W        W24324   5.291  23.492  12.068
52065W        W24325  39.369  12.330  10.431
52066W        W24326  33.475  33.936  10.991
52067W        W24327  30.514  31.972  10.590
52068W        W24328  26.596  15.809  11.468
52069W        W24329  10.301  28.461   1.705
52070W        W24330   4.730   7.340  14.401
52071W        W24331  30.148   0.780   0.787
52072W        W24332  30.526  25.616   5.243
52073W        W24333  33.988  43.424  11.987
52074W        W24334  18.076   8.247   3.190
52075W        W24335  22.677   1.341   1.234
52076W        W24336   3.317  21.553  11.075
52077W        W24337  32.957  13.807   4.823
52078W        W24338  42.786   5.376   1.246
52079W        W24339  40.518  26.539   4.144
52080W        W24340  26.204  32.506   4.681
52081W        W24341  22.221  44.391  12.483
52082W        W24342  17.305  39.379   2.747
52083W        W24343  29.428  35.070  10.624
52084W        W24344  36.558   3.858   2.857
52085W        W24345  24.606  38.421   4.258
52086W        W24346  29.471  27.504  12.942
52087W        W24347  36.482  25.989  13.325
52088W        W24348  30.096  27.094  12.399
52089W        W24349  29.605  23.725  11.559
52090W        W24350  33.495   9.752  14.777
52091W        W24351  36.002  15.745   1.439
52092W        W24352  11.762  31.585  14.406
52093W        W24353  42.513  41.295   4.827
52094W        W24354  44.324  28.593  10.424
52095W        W24355  26.674  23.050  13.958
52096W        W24356  27.148  15.738  10.595
52097W        W24357   4.750  11.691   4.281
52098W        W24358  34.478   1.452  12.041
52099W        W24359   7.747  17.757   0.844
52100W        W24360  19.703  10.768  13.864
52101W        W24361  29.616  18.702   4.648
52102W        W24362  44.913   4.732   3.852
52103W        W24363  25.167  19.686   1.712
52104W        W24364  37.083   4.325  12.992
52105W        W24365   8.302  21.145  12.939
52106W        W24366   7.831  16.186   4.283
52107W        W24367  19.122  12.335  13.514
52108W        W24368  31.420  11.626   2.832
52109W        W24369  33.128  32.918   3.224
52110W        W24370   9.758   5.850  14.998
52111W        W24371  13.225  11.327   1.762
52112W        W24372  18.192  41.511  14.959
52113W        W24373  32.472   5.374   1.751
52114W        W24374  10.745  16.080   3.176
52115W        W24375  31.104  44.317   4.686
52116W        W24376  22.599  18.720  14.307
52117W        W24377  44.907   8.233   0.850
52118W        W24378   5.867  42.896  13.442
52119W        W24379  44.279  14.174   4.616
52120W        W24380  32.623   4.227  13.395
52121W        W24381   6.406   7.354  13.948
52122W        W24382  28.528  38.071   2.214
52123W        W24383  26.686  43.798   2.737
52124W        W24384  44.984  21.697   1.844
52125W        W24385   9.884  38.068   4.243
52126W        W24386   0.438   0.490   4.704
52127W        W24387  25.014   4.345  13.448
52128W        W24388  12.227  14.288   4.292
52129W        W24389   7.747  31.563   2.767
52130W        W24390   8.855  24.224  14.412
52131W        W24391  31.970  14.240   4.201
52132W        W24392  20.103  25.527  11.539
52133W        W24393  39.018  35.093   2.840
52134W        W24394  11.269   4.764  14.472
52135W        W24395   7.716  14.687  11.548
52136W        W24396  23.181  43.426   1.750
52137W        W24397  15.713  18.137   3.689
52138W        W24398  37.868  15.164  12.930
52139W        W24399  39.370  30.039  13.340
52140W        W24400  19.557  38.854   0.820
52141W        W24401  40.896  12.261  10.523
52142W        W24402  26.468  30.063  14.866
52143W        W24403  15.237  41.871   0.769
52144W        W24404   6.738   8.857  10.454
52145W        W24405  12.699  28.582  13.939
52146W        W24406  18.119  20.098   0.306
52147W        W24407  40.460  10.307  12.825
52148W        W24408  29.447  22.009   2.370
52149W        W24409  12.350   4.825   0.273
52150W        W24410  21.722   1.817  11.095
52151W        W24411  12.337   6.334  11.863
52152W        W24412  36.529  27.604  10.558
52153W        W24413  14.238   4.761  12.370
52154W        W24414  32.081   6.387  14.769
52155W        W24415  34.921   6.789   3.780
52156W        W24416  17.648  13.142   1.212
52157W        W24417  32.617  20.546   2.244
52158W        W24418  21.710   6.836   1.252
52159W        W24419  34.092  34.888   0.888
52160W        W24420  28.155  44.980   1.346
52161W        W24421  29.502  27.981  13.968
52162W        W24422  21.114  43.316   1.427
52163W        W24423  18.685  14.624  13.385
52164W        W24424  22.061  18.642  10.580
52165W        W24425  29.035  40.356   3.790
52166W        W24426  31.970  39.059  14.925
52167W        W24427   1.324  40.952   4.167
52168W        W24428  38.907  11.773  12.085
52169W        W24429  32.442  18.789  13.924
52170W        W24430  42.957  17.776   0.283
52171W        W24431  43.368  41.797   4.752
52172W        W24432  29.994  29.494  11.985
52173W        W24433  23.000  22.200   3.842
52174W        W24434  40.511  27.476   3.279
52175W        W24435  13.668  27.512  13.860
52176W        W24436  26.015  32.637   3.754
52177W        W24437  12.822  38.542   1.322
52178W        W24438  11.170   5.343   2.262
52179W        W24439  23.028  19.590   4.748
52180W        W24440  14.131   4.394   4.336
52181W        W24441  36.528  42.976   1.868
52182W        W24442  26.034  27.562   0.801
52183W        W24443  17.109  31.058  13.522
52184W        W24444   3.731  22.679   0.882
52185W        W24445  26.998  28.163   0.931
52186W        W24446  39.497   0.474  12.893
52187W        W24447  16.202  43.835   3.229
52188W        W24448  36.081  14.145  14.014
52189W        W24449  13.130  16.799   5.235
52190W        W24450  37.349  27.082   3.733
52191W        W24451  12.628   5.250  13.825
52192W        W24452  27.561  23.095   0.743
52193W        W24453  41.394   5.848  14.418
52194W        W24454  28.664  44.965  11.858
52195W        W24455  28.476  40.515  11.902
52196W        W24456  27.518  29.618   1.737
52197W        W24457   3.792  44.917  12.492
52198W        W24458  44.343  28.971  11.000
52199W        W24459  38.402  43.505   0.726
52200W        W24460  41.924   5.888   0.415
52201W        W24461  43.991  10.877  11.919
52202W        W24462  27.602  10.333  14.915
52203W        W24463   7.736  18.583   3.216
52204W        W24464   5.892   0.763  12.366
52205W        W24465   0.920  29.070   2.881
52206W        W24466  14.248  24.615   4.226
52207W        W24467  14.154  33.624  11.044
52208W        W24468   8.172   1.479  12.512
52209W        W24469  25.471  17.220  14.009
52210W        W24470  40.437  36.915  12.861
52211W        W24471  12.747  20.568  14.294
52212W        W24472   4.321  39.959   3.651
52213W        W24473  42.916   8.340   1.704
52214W        W24474  32.961  40.827   1.880
52215W        W24475   4.268  25.055   1.767
52216W        W24476  17.119   8.881   1.867
52217W        W24477  43.916  12.742   0.738
52218W        W24478  21.524  29.610   2.762
52219W        W24479  24.557  40.797  11.061
52220W        W24480  15.688  43.865   2.874
52221W        W24481  41.372   9.873   0.369
52222W        W24482  24.479   1.346  10.489
52223W        W24483  11.691  23.053  12.505
52224W        W24484  15.800  24.719   4.737
52225W        W24485  33.957  25.714   1.277
52226W        W24486  42.376  12.726  14.780
52227W        W24487   2.428  23.554  12.509
52228W        W24488  14.720  28.950  14.839
52229W        W24489  10.784  14.787   2.769
52230W        W24490  18.061  25.643   1.420
52231W        W24491   6.384  25.682   4.261
52232W        W24492  27.099  29.121   4.177
52233W        W24493  39.845  23.000  13.915
52234W        W24494   6.891  30.054  10.993
52235W        W24495   0.430  37.865  13.390
52236W        W24496  17.218   7.207  14.837
52237W        W24497  24.044  33.578  13.888
52238W        W24498   7.181  11.785   0.288
52239W        W24499  28.436  43.922   4.215
52240W        W24500  17.090   3.370   0.916
52241W        W24501  29.933  42.451  14.792
52242W        W24502  44.918  43.447   1.789
52243W        W24503  26.983  37.984  11.376
52244W        W24504  37.421  33.469   4.163
52245W        W24505  16.193  16.705   9.609
52246W        W24506   6.415  36.907  13.390
52247W        W24507   5.700  26.500   1.256
52248W        W24508  18.250   8.355   1.904
52249W        W24509  31.013  15.771  14.825
52250W        W24510   5.797  43.332  13.893
52251W        W24511  11.346  43.890   4.176
52252W        W24512  33.572  39.478  14.493
52253W        W24513  21.156  35.571  12.923
52254W        W24514  42.969  27.127   1.767
52255W        W24515  17.746  42.810   1.743
52256W        W24516  33.598  27.534   3.789
52257W        W24517  27.096  18.706   2.185
52258W        W24518  42.489  33.578  14.029
52259W        W24519   5.213   4.407  14.484
52260W        W24520  25.191  20.689   0.891
52261W        W24521   0.797  17.673   4.635
52262W        W24522  24.035  34.601   0.358
52263W        W24523  39.484  22.672  12.982
52264W        W24524  33.065  13.346  12.413
52265W        W24525  30.928  25.095  10.518
52266W        W24526  33.037  35.401  12.836
52267W        W24527  30.980  23.083  11.941
52268W        W24528  39.350  20.730  11.484
52269W        W24529  29.070  41.498   3.287
52270W        W24530  32.479  13.282  12.576
52271W        W24531  25.599  30.625   5.089
52272W        W24532  29.449   4.911   4.165
52273W        W24533  18.164  44.310  10.987
52274W        W24534  35.966   4.402  10.578
52275W        W24535   2.257  18.226   3.353
52276W        W24536  44.754   6.793   1.932
52277W        W24537  28.603   4.837  12.943
52278W        W24538  24.093   9.374  13.363
52279W        W24539   8.322   1.846  13.443
52280W        W24540   7.221  30.572  12.425
52281W        W24541  21.246   1.900   0.786
52282W        W24542  35.048  42.897  11.538
52283W        W24543  27.157  43.301   1.884
52284W        W24544  27.622  30.528  14.835
52285W        W24545  10.250  42.512  13.477
52286W        W24546  12.241  33.992  13.350
52287W        W24547  43.381  21.746  14.420
52288W        W24548  24.723  13.106  12.864
52289W        W24549  25.653  23.135   4.807
52290W        W24550  13.296  15.747   2.897
52291W        W24551  40.313  39.409  11.508
52292W        W24552  10.265   7.888  12.439
52293W        W24553  15.584  10.813   2.379
52294W        W24554  39.922  11.355   0.465
52295W        W24555  38.852  41.891  13.936
52296W        W24556  30.429   7.737  14.970
52297W        W24557  34.497  40.370  13.040
52298W        W24558   4.853  11.205  12.348
52299W        W24559  34.585  41.519   2.810
52300W        W24560  16.703  26.128  12.539
52301W        W24561  23.117  12.242   4.600
52302W        W24562  32.531   6.366  12.025
52303W        W24563  17.129   2.819   3.195
52304W        W24564  15.249  36.960   3.637
52305W        W24565  14.826   1.807   2.368
52306W        W24566  29.646  26.125  11.394
52307W        W24567  38.433   7.799   3.350
52308W        W24568  23.516  15.735   3.679
52309W        W24569  38.942   9.852  12.065
52310W        W24570  41.961  26.956   4.833
52311W        W24571  24.047  15.326  11.398
52312W        W24572   7.185  24.721  14.501
52313W        W24573  42.427   4.389  11.878
52314W        W24574  16.236  31.985  13.043
52315W        W24575  22.127  31.105   4.831
52316W        W24576  22.594  36.426  12.375
52317W        W24577   1.966  23.170  12.842
52318W        W24578  18.205  30.464   3.157
52319W        W24579  24.974   6.358   1.220
52320W        W24580  23.544   6.839   0.393
52321W        W24581  16.596   3.459   1.213
52322W        W24582  14.656  37.920   0.918
52323W        W24583  18.590  39.483  14.515
52324W        W24584  37.924  29.934  14.354
52325W        W24585   8.277   4.792  14.417
52326W        W24586   2.434   4.396   3.680
52327W        W24587  25.565  25.507  14.902
52328W        W24588  13.331  40.821  10.476
52329W        W24589  32.982   7.873   3.240
52330W        W24590  20.759  25.688  13.358
52331W        W24591  25.645   2.246   3.207
52332W        W24592  37.454  24.565   0.896
52333W        W24593  13.791  30.571   0.893
52334W        W24594   6.257  10.867  12.867
52335W        W24595  31.124  39.358   1.814
52336W        W24596  44.422  34.537   9.952
52337W        W24597  43.293  25.675   3.796
52338W        W24598  21.176   6.307   0.907
52339W        W24599  38.860   9.169  10.965
52340W        W24600   2.758  24.999   1.382
52341W        W24601  24.631  36.956  12.374
52342W        W24602  43.827  11.251   2.824
52343W        W24603  18.660   4.352   2.769
52344W        W24604  28.944   6.312  11.990
52345W        W24605  41.818  17.754  11.449
52346W        W24606  33.540  35.387   2.877
52347W        W24607   1.782  27.027  10.641
52348W        W24608  14.122   9.862  12.527
52349W        W24609  15.734  31.922   2.309
52350W        W24610   2.843  18.130  14.829
52351W        W24611   2.775  44.325  14.021
52352W        W24612  13.827   2.342   2.346
52353W        W24613  14.812  17.624   4.695
52354W        W24614   7.328  36.091   1.216
52355W        W24615  16.108   6.272   1.912
52356W        W24616   0.882  25.073  13.425
52357W        W24617   3.931  24.587   3.751
52358W        W24618  13.243  14.621  14.477
52359W        W24619  39.848  38.033   1.794
52360W        W24620   2.465  41.426   5.138
52361W        W24621   9.674   9.392  11.434
52362W        W24622  28.564  29.110   3.358
52363W        W24623   5.847   3.918   1.239
52364W        W24624   9.828  16.162   4.286
52365W        W24625   0.796  39.831  13.027
52366W        W24626  31.095  21.053   0.933
52367W        W24627   5.305  18.085   3.646
52368W        W24628  26.555   8.192   4.681
52369W        W24629  28.648  31.412  12.834
52370W        W24630  32.528  37.015   3.365
52371W        W24631  39.852  37.937   4.341
52372W        W24632   6.302  20.176   4.610
52373W        W24633  18.114  10.348   2.796
52374W        W24634  16.113  31.038   2.678
52375W        W24635  35.448  17.222  13.894
52376W        W24636  15.250   7.332  14.913
52377W        W24637   6.687  10.843  14.411
52378W        W24638  20.258   7.284   5.570
52379W        W24639   4.406  41.899  12.045
52380W        W24640  13.332  28.439   0.826
52381W        W24641  18.616  36.548   3.741
52382W        W24642   5.873  29.136   5.599
52383W        W24643   8.812  17.300  12.484
52384W        W24644  44.960  33.079  11.009
52385W        W24645  36.370  10.688   4.599
52386W        W24646  27.040   9.165  14.440
52387W        W24647  39.863  42.828  13.918
52388W        W24648  43.383   9.255  10.915
52389W        W24649   3.912  27.989  11.064
52390W        W24650  13.231  20.719  14.953
52391W        W24651   5.265  43.450   3.806
52392W        W24652   7.693   2.375   4.179
52393W        W24653  23.664  11.862  11.028
52394W        W24654  43.947  16.151  12.352
52395W        W24655  11.776   8.786  11.470
52396W        W24656  14.196   8.819  11.038
52397W        W24657  24.053  16.107   1.917
52398W        W24658   4.356  34.383  13.914
52399W        W24659  41.340  42.994   1.337
52400W        W24660   5.908   9.721  13.946
52401W        W24661   2.454  40.846   1.807
52402W        W24662   4.224   7.798   3.219
52403W        W24663  10.648  19.578  12.449
52404W        W24664   3.345  30.646  10.046
52405W        W24665  43.979  14.209  12.838
52406W        W24666  27.093  11.664   2.854
52407W        W24667  16.247  40.357  12.915
52408W        W24668   9.779  20.182  12.971
52409W        W24669  41.480  41.504  14.928
52410W        W24670   3.365  12.228  14.979
52411W        W24671  29.999  42.905   3.149
52412W        W24672  35.960  43.803   3.741
52413W        W24673  31.581  29.966  11.406
52414W        W24674  33.973  27.674  14.384
52415W        W24675   0.942  42.018  14.315
52416W        W24676  23.210  16.596  12.878
52417W        W24677  33.130  40.547  13.387
52418W        W24678  36.347  40.489   3.252
52419W        W24679  43.988  25.015   4.646
52420W        W24680  13.737  36.001   1.371
52421W        W24681  40.541   5.253   1.821
52422W        W24682  41.311   7.181   3.240
52423W        W24683  43.273  33.574   0.749
52424W        W24684  34.940  11.706  11.447
52425W        W24685  13.282  15.190  10.579
52426W        W24686  12.646  18.651  11.481
52427W        W24687  16.261  26.151  11.423
52428W        W24688   4.327  30.538   3.167
52429W        W24689  44.983  25.091   0.894
52430W        W24690  43.480  11.755  13.023
52431W        W24691   4.869   8.262   1.241
52432W        W24692  29.091  34.511  10.532
52433W        W24693   3.774  12.162  12.522
52434W        W24694  15.808   0.872   3.722
52435W        W24695  11.227  14.269  13.873
52436W        W24696  24.487  38.832  11.891
52437W        W24697  31.556  38.037  13.806
52438W        W24698  38.849  22.502  13.369
52439W        W24699  24.185  28.611   4.285
52440W        W24700  30.935  29.035   0.797
52441W        W24701   5.710  26.143   4.160
52442W        W24702  22.153  11.839   4.697
52443W        W24703  22.099  15.671  11.475
52444W        W24704   0.859  21.654   3.869
52445W        W24705  38.325  22.060   3.173
52446W        W24706  11.807  11.773   3.653
52447W        W24707  24.075  14.115  13.969
52448W        W24708  14.123  31.558  10.969
52449W        W24709   3.709  37.868   2.313
52450W        W24710  28.022  14.709  13.934
52451W        W24711   6.920  22.733  13.015
52452W        W24712  23.159  27.068  14.276
52453W        W24713  38.438  19.201   3.321
52454W        W24714  40.400  33.615   1.802
52455W        W24715  39.470  27.187  14.927
52456W        W24716   5.412  22.706  10.637
52457W        W24717   3.923  38.566   3.384
52458W        W24718  36.034  38.553   2.760
52459W        W24719  33.515  33.529   2.780
52460W        W24720  32.542  19.147  14.965
52461W        W24721  11.214  11.837  13.911
52462W        W24722  27.012  26.480   5.316
52463W        W24723   7.388  28.542  13.007
52464W        W24724  25.202  44.992  11.898
52465W        W24725  23.679  38.473  14.499
52466W        W24726  29.614   3.901   2.263
52467W        W24727  20.230  10.289  11.124
52468W        W24728  27.512   0.948  14.286
52469W        W24729  28.438   6.747   2.835
52470W        W24730   4.362  25.217  12.970
52471W        W24731  43.975   6.377  10.417
52472W        W24732  43.484  24.680  13.517
52473W        W24733  35.572  17.713  11.934
52474W        W24734  27.081  36.587  11.522
52475W        W24735   2.931   4.304   3.352
52476W        W24736  34.416   1.735   4.720
52477W        W24737  14.252  10.312  12.410
52478W        W24738  39.974  30.962  11.455
52479W        W24739  40.501   9.281  12.086
52480W        W24740  34.012   8.708  12.385
52481W        W24741  39.968  30.569   0.792
52482W        W24742  11.747  18.672  10.604
52483W        W24743  42.415  12.356   2.791
52484W        W24744  30.604  39.547  11.496
52485W        W24745  42.353  26.017   3.151
52486W        W24746  19.652  35.039   1.733
52487W        W24747  19.149  23.621  11.883
52488W        W24748  14.709  38.344  11.083
52489W        W24749  14.228   0.418   2.771
52490W        W24750  30.430  28.933   0.784
52491W        W24751   1.348   0.777  11.544
52492W        W24752  38.976  26.998  13.917
52493W        W24753  24.629   8.761  13.529
52494W        W24754  34.008  15.270  13.463
52495W        W24755  27.510  36.574  11.016
52496W        W24756  16.274   0.842   0.253
52497W        W24757  17.648  22.514  11.026
52498W        W24758  27.164  30.925  12.892
52499W        W24759  15.702  18.671  10.900
52500W        W24760  42.998   6.797   1.835
52501W        W24761  41.960   9.877  11.611
52502W        W24762  13.117  20.754  10.942
52503W        W24763  13.271   8.869   1.426
52504W        W24764  20.731  25.139  14.445
52505W        W24765  42.523  43.309  12.945
52506W        W24766  14.312  43.282  10.528
52507W        W24767  42.500  32.896  13.842
52508W        W24768  30.988  24.015  12.930
52509W        W24769  26.118  18.665   1.265
52510W        W24770  17.244  34.115  13.828
52511W        W24771  26.619   4.716   1.698
52512W        W24772  24.229  43.937  13.938
52513W        W24773  20.212  19.655   0.738
52514W        W24774   9.760  11.650   1.799
52515W        W24775  26.040  39.981   1.882
52516W        W24776  11.193  27.076   2.726
52517W        W24777   9.310  16.097  14.277
52518W        W24778  24.674  31.469  11.019
52519W        W24779   3.262  34.066  11.496
52520W        W24780  29.659  38.410  14.761
52521W        W24781  40.363  17.755   4.338
52522W        W24782   9.174   6.714  10.946
52523W        W24783  32.958  43.851  13.837
52524W        W24784   2.416  26.684   3.802
52525W        W24785  25.002  20.761  12.454
52526W        W24786  42.485  11.812  11.066
52527W        W24787   4.700  22.110  14.954
52528W        W24788  25.103  21.642   1.741
52529W        W24789  13.737  27.487  11.077
52530W        W24790   8.160  28.561   1.261
52531W        W24791  28.478  24.517   0.850
52532W        W24792  30.559   8.234   3.855
52533W        W24793  40.814  18.624   4.674
52534W        W24794  31.466  13.683  10.539
52535W        W24795  17.716  24.609  13.351
52536W        W24796  10.760   0.413  14.956
52537W        W24797  39.843  14.672   0.961
52538W        W24798  31.574  37.524   1.903
52539W        W24799  11.783   3.317   2.187
52540W        W24800  17.706  27.510   3.222
52541W        W24801  19.658  16.772  14.762
52542W        W24802  42.829  38.403   3.232
52543W        W24803  21.103   3.325   2.818
52544W        W24804   3.334   8.891  11.065
52545W        W24805  16.741  21.689   4.808
52546W        W24806   9.163  33.928  10.968
52547W        W24807  38.480  35.088  11.483
52548W        W24808  40.032  17.710   4.204
52549W        W24809  16.109  33.474   4.813
52550W        W24810  20.754  40.886   0.840
52551W        W24811  10.258  42.860   3.290
52552W        W24812   2.931  14.302   1.732
52553W        W24813  24.553  28.535   2.738
52554W        W24814  16.287   0.749   1.239
52555W        W24815  26.000  34.568   0.739
52556W        W24816  34.580  33.547   2.746
52557W        W24817  44.969   3.220   4.825
52558W        W24818  44.465   3.289   1.334
52559W        W24819  25.965   3.441   0.816
52560W        W24820  23.238  24.228   2.324
52561W        W24821  22.538   6.832  11.380
52562W        W24822  15.673  26.458  12.527
52563W        W24823  24.557  12.170   0.450
52564W        W24824  24.039  41.965   0.966
52565W        W24825  26.633  19.613   2.738
52566W        W24826   7.783  27.107   4.824
52567W        W24827  37.835  11.703   3.329
52568W        W24828  26.619  12.840  10.553
52569W        W24829  32.048  22.082  12.540
52570W        W24830  19.278  26.617  13.987
52571W        W24831  12.180  27.983   1.816
52572W        W24832  10.367  34.582   3.768
52573W        W24833   5.862  29.097   2.874
52574W        W24834  14.598  34.021   0.809
52575W        W24835  43.854  26.472  14.841
52576W        W24836  27.153  33.599   3.166
52577W        W24837  42.899  13.275   4.834
52578W        W24838  25.506   2.875  12.454
52579W        W24839  35.084   2.256   4.754
52580W        W24840   3.436   9.752   0.925
52581W        W24841  33.582  11.180  10.575
52582W        W24842  23.593  17.706  11.910
52583W        W24843  23.519  44.357   0.916
52584W        W24844  23.079  36.011  14.486
52585W        W24845  23.163  28.180   1.393
52586W        W24846  30.495  30.489   2.893
52587W        W24847  36.353  43.804  11.888
52588W        W24848  35.066  25.027  13.427
52589W        W24849  42.021  14.180   1.251
52590W        W24850  23.689  27.028   1.432
52591W        W24851  19.633  35.028   2.894
52592W        W24852   3.904  19.078   3.834
52593W        W24853  21.622  10.223   0.258
52594W        W24854  16.105  23.079  11.009
52595W        W24855   3.867  37.873   1.730
52596W        W24856  20.698  12.157   3.153
52597W        W24857   5.748  25.002   0.916
52598W        W24858  39.961  40.996   3.661
52599W        W24859   6.337  17.262   0.284
52600W        W24860  24.503  43.777   1.396
52601W        W24861  10.250  22.163  10.630
52602W        W24862   8.669   0.775   1.730
52603W        W24863  25.206  17.730   0.822
52604W        W24864  14.216   0.320  12.429
52605W        W24865  30.522  11.665   4.211
52606W        W24866  31.510  16.089  14.382
52607W        W24867  40.353  44.409   2.239
52608W        W24868  10.816  31.501   2.725
52609W        W24869   3.397  28.142   3.857
52610W        W24870  10.764  35.437   1.393
52611W        W24871  28.059  30.459   2.240
52612W        W24872   1.777  35.393   2.241
52613W        W24873  23.539   7.376   2.696
52614W        W24874  11.764  10.669   3.184
52615W        W24875  31.497   2.342  14.499
52616W        W24876  27.452  35.530  14.980
52617W        W24877  26.478  33.442   0.890
52618W        W24878  11.717  36.439   1.753
52619W        W24879   5.818  37.922   1.890
52620W        W24880  38.010  18.092  13.791
52621W        W24881  25.625  15.104  14.869
52622W        W24882  30.000  16.800  14.379
52623W        W24883  17.664   2.860  11.956
52624W        W24884  39.351  40.895  11.031
52625W        W24885  10.839  29.091  13.490
52626W        W24886  15.316  19.252   2.348
52627W        W24887  21.253  28.094  11.592
52628W        W24888  14.193  14.669   3.283
52629W        W24889   1.785  29.108  11.112
52630W        W24890  16.749  15.220  11.128
52631W        W24891  19.149  21.603  11.902
52632W        W24892  16.119  14.652   0.738
52633W        W24893  33.410  16.091   4.162
52634W        W24894  17.779   8.895  12.985
52635W        W24895  11.740  38.408  14.385
52636W        W24896  24.168  42.357  12.034
52637W        W24897  20.681   3.820  11.865
52638W        W24898   1.301  29.934   1.767
52639W        W24899  14.804  28.576   3.310
52640W        W24900  39.529  42.325  11.557
52641W        W24901  30.569  36.880   4.797
52642W        W24902  11.176  18.713   0.810
52643W        W24903  21.142  34.464   4.832
52644W        W24904  43.379  35.435  10.417
52645W        W24905   7.868   3.742  11.888
52646W        W24906  39.034   8.190  11.444
52647W        W24907   0.331   5.897  13.482
52648W        W24908  12.229  17.139   0.944
52649W        W24909  17.588  32.005  11.612
52650W        W24910  28.500  12.711   0.814
52651W        W24911  38.404  24.980  14.274
52652W        W24912  26.111   1.801   2.264
52653W        W24913   1.308  38.972   2.306
52654W        W24914  34.583  39.352   4.193
52655W        W24915  21.725  23.508  12.897
52656W        W24916  13.769   9.386  13.838
52657W        W24917  26.657  41.923  10.608
52658W        W24918  31.108  26.494   2.707
52659W        W24919  22.201  40.492   1.363
52660W        W24920  35.995   5.886   2.383
52661W        W24921   1.303  28.455  12.954
52662W        W24922  42.007  26.129  12.928
52663W        W24923  33.542   6.811   3.706
52664W        W24924  39.813   1.904   0.914
52665W        W24925  43.366  29.442   4.169
52666W        W24926  33.382  21.026   4.183
52667W        W24927  36.078  22.079   0.290
52668W        W24928  40.950  40.474   2.699
52669W        W24929  15.754  24.031   1.398
52670W        W24930  12.272   4.940  12.832
52671W        W24931  17.117  15.799  14.312
52672W        W24932  18.560  43.437  14.005
52673W        W24933  33.578  24.066  10.916
52674W        W24934  23.122  39.396   4.291
52675W        W24935   8.281   1.790  13.904
52676W        W24936  14.787  24.487  12.937
52677W        W24937  29.020  44.279  10.988
52678W        W24938  27.487  33.385   2.353
52679W        W24939   1.479  12.628   4.226
52680W        W24940  44.261  37.360  12.048
52681W        W24941  29.571   9.152  12.570
52682W        W24942  32.116  22.611  10.933
52683W        W24943   5.258  41.876   0.764
52684W        W24944  13.629  10.258  11.527
52685W        W24945  35.969   6.859   0.795
52686W        W24946   2.780  37.366   3.220
52687W        W24947  10.760  20.528  14.906
52688W        W24948  31.031   3.415   5.244
52689W        W24949  16.752  28.141  13.316
52690W        W24950  25.999  32.893  11.859
52691W        W24951  17.650  30.994   3.738
52692W        W24952  17.730  22.042   2.664
52693W        W24953   6.379  19.258   1.840
52694W        W24954  39.042  43.975   0.383
52695W        W24955  15.582  19.624   2.841
52696W        W24956   5.881   7.759  12.925
52697W        W24957  43.818  13.757   1.806
52698W        W24958   4.877  42.292  14.477
52699W        W24959  37.567  17.256   2.263
52700W        W24960  12.790  16.305  13.409
52701W        W24961   5.250  18.258   0.840
52702W        W24962  38.506  34.070   4.337
52703W        W24963  42.443   4.700   2.873
52704W        W24964  30.143  14.773   3.363
52705W        W24965  14.625  10.850  14.979
52706W        W24966   6.820  32.559   4.705
52707W        W24967  15.625  30.941   0.869
52708W        W24968  22.116   5.209  12.373
52709W        W24969  22.167  12.321   2.395
52710W        W24970  12.182  43.349   1.213
52711W        W24971  33.379   0.873   1.444
52712W        W24972  24.669  40.053   2.224
52713W        W24973  32.615  32.600  14.345
52714W        W24974  11.866  38.861   0.830
52715W        W24975  26.471  23.620   4.130
52716W        W24976   2.422  13.158  13.048
52717W        W24977  23.047  40.517  11.403
52718W        W24978  28.130  32.907   4.218
52719W        W24979  33.585  26.966  12.043
52720W        W24980  23.731   4.740   3.241
52721W        W24981  21.714  36.571   3.709
52722W        W24982  44.905  37.985  11.419
52723W        W24983  21.517   1.851   1.702
52724W        W24984  30.991  41.961   1.286
52725W        W24985  35.496  32.619   1.220
52726W        W24986   3.789   6.832   4.170
52727W        W24987   3.247  23.145   1.266
52728W        W24988  16.218  20.575  11.599
52729W        W24989  30.026  13.278   2.729
52730W        W24990   9.317  13.196   2.747
52731W        W24991   1.771  38.426  13.995
52732W        W24992  19.196   5.689   2.391
52733W        W24993  14.735  23.013   0.270
52734W        W24994  35.379  24.608  13.951
52735W        W24995  10.287  21.571   1.929
52736W        W24996  34.907  40.513   4.180
52737W        W24997   1.733   0.315  12.991
52738W        W24998   0.341  18.595  11.990
52739W        W24999  41.508  22.118  12.880
52740W        W25000   7.349  17.193  11.085
52741W        W25001  25.640  41.033  12.378
52742W        W25002  34.868  17.194  11.106
52743W        W25003  14.249  37.088   4.278
52744W        W25004  32.927  27.522   2.227
52745W        W25005  12.214   2.456  12.999
52746W        W25006  14.735   6.401   4.348
52747W        W25007   3.820  15.282  10.417
52748W        W25008  10.660   6.716   3.270
52749W        W25009  32.078  12.183  10.940
52750W        W25010  26.469  44.446   2.820
52751W        W25011   8.782  22.095  10.437
52752W        W25012   4.771  38.965   3.730
52753W        W25013  18.603  41.980   1.297
52754W        W25014   6.322   7.246   1.268
52755W        W25015  14.779   0.943   1.394
52756W        W25016  15.088  28.594   4.223
52757W        W25017  36.035  43.895   1.699
52758W        W25018  10.830   8.295   3.357
52759W        W25019  29.479  40.413   9.987
52760W        W25020  32.939  25.580   1.885
52761W        W25021  28.035   4.920   4.705
52762W        W25022  12.808   7.291   0.326
52763W        W25023  39.380   5.896  12.405
52764W        W25024  39.877   5.228   0.867
52765W        W25025  24.681  24.667   4.666
52766W        W25026  13.283  29.070  13.845
52767W        W25027  17.572   1.942   0.917
52768W        W25028  41.931  15.739  12.987
52769W        W25029  14.320  42.408   4.118
52770W        W25030   9.193  39.957   4.649
52771W        W25031  31.137  35.904  12.534
52772W        W25032  29.585   2.734   1.343
52773W        W25033  10.360  12.694   3.240
52774W        W25034  11.721   2.394   2.765
52775W        W25035  37.830  26.631  13.321
52776W        W25036  18.225  36.558  12.895
52777W        W25037  37.449  21.256   5.083
52778W        W25038   0.455  10.206  10.449
52779W        W25039  41.898  26.602  13.050
52780W        W25040  39.836  31.951   2.826
52781W        W25041  34.495  42.810   0.336
52782W        W25042  26.478  29.621  14.314
52783W        W25043  14.103  40.358  13.393
52784W        W25044  28.990  17.773  14.483
52785W        W25045  38.425  38.069   3.283
52786W        W25046  38.377   9.653   3.160
52787W        W25047  35.402  41.339  12.832
52788W        W25048  10.349   5.321   2.232
52789W        W25049  31.100  27.685  11.001
52790W        W25050  31.406  17.173   2.752
52791W        W25051  30.914  20.135  14.820
52792W        W25052  26.144   3.263  14.366
52793W        W25053  32.010  37.374  14.760
52794W        W25054  11.845  44.792  13.848
52795W        W25055  28.506   6.288  11.511
52796W        W25056  19.254  33.031   1.821
52797W        W25057  28.649  38.872   2.380
52798W        W25058  15.627   7.864  13.459
52799W        W25059  40.969   7.350  14.313
52800W        W25060  22.123  27.485   0.764
52801W        W25061  26.599  17.624  12.872
52802W        W25062  38.896  22.706  12.493
52803W        W25063  14.702  33.897   3.688
52804W        W25064   4.740  40.943   4.615
52805W        W25065  25.079  27.455  11.952
52806W        W25066  35.890  26.087  11.033
52807W        W25067  11.693  34.023   1.413
52808W        W25068  13.709   3.278   0.442
52809W        W25069  23.157   1.371  12.888
52810W        W25070   4.400  18.718   4.289
52811W        W25071   7.196  42.304   4.304
52812W        W25072  37.480  22.230  11.907
52813W        W25073  30.055  19.221  12.340
52814W        W25074  32.967  30.539   4.315
52815W        W25075  34.384  42.283   0.480
52816W        W25076  22.695  40.361  10.636
52817W        W25077   8.325  34.491  14.867
52818W        W25078  32.128  25.667   1.406
52819W        W25079  16.276   2.833  13.054
52820W        W25080  32.995  39.326   4.797
52821W        W25081   0.273  25.145   4.220
52822W        W25082  32.074  33.387  14.427
52823W        W25083  21.202  24.526  13.362
52824W        W25084  30.036  32.577   4.231
52825W        W25085  27.111  21.088   2.714
52826W        W25086   4.819  17.076   0.948
52827W        W25087  34.467   2.382   1.367
52828W        W25088  19.264  10.330  11.088
52829W        W25089  12.198  31.134   1.289
52830W        W25090  12.205   7.754  13.048
52831W        W25091  42.826  18.720  10.628
52832W        W25092  21.676   5.779  10.907
52833W        W25093  24.011  21.127  12.922
52834W        W25094  21.755  12.840   4.166
52835W        W25095   5.252   9.803   3.239
52836W        W25096  20.137  30.027  11.516
52837W        W25097  31.931  24.513   0.333
52838W        W25098  16.241   2.257  10.934
52839W        W25099  37.510   6.330  11.016
52840W        W25100  10.346  37.459   5.202
52841W        W25101  30.931  36.421   4.711
52842W        W25102  33.547   8.366  11.954
52843W        W25103  35.359  33.910   3.177
52844W        W25104  17.102  39.923   0.734
52845W        W25105  12.635  43.808   4.291
52846W        W25106  12.828   2.723   0.389
52847W        W25107  37.535  34.612  14.983
52848W        W25108  11.305  11.153   1.825
52849W        W25109  30.061   8.889  13.396
52850W        W25110  17.222   4.317   2.709
52851W        W25111  32.628   1.879   4.227
52852W        W25112  21.169  36.394  14.804
52853W        W25113  17.238   9.318   1.239
52854W        W25114  43.415  33.459  12.358
52855W        W25115  16.569  15.118   1.700
52856W        W25116  37.894   0.885   2.207
52857W        W25117  39.947  29.612  10.615
52858W        W25118  34.607  42.876  10.516
52859W        W25119   6.751  28.532   4.667
52860W        W25120  19.562   8.221  10.054
52861W        W25121  20.531  28.085  14.451
52862W        W25122  42.404   8.160  14.307
52863W        W25123  43.943  10.798  14.951
52864W        W25124  39.319   9.258  10.502
52865W        W25125   1.452  13.779   2.832
52866W        W25126  37.952  20.147  14.822
52867W        W25127   7.342   2.444   4.333
52868W        W25128   7.905  27.054  12.450
52869W        W25129  13.119  32.985   4.622
52870W        W25130  23.730  36.012  14.783
52871W        W25131   1.866  18.723  14.989
52872W        W25132  17.294   5.777  14.446
52873W        W25133   3.814   8.810  14.791
52874W        W25134  12.188  12.234  12.069
52875W        W25135  35.448  32.119   3.202
52876W        W25136  35.431  23.030   0.819
52877W        W25137   7.346  34.568   0.459
52878W        W25138  40.530  22.585  11.408
52879W        W25139  13.659  38.375   0.925
52880W        W25140  26.643  39.015  13.895
52881W        W25141  39.443  36.051  12.409
52882W        W25142  14.604  22.565   1.899
52883W        W25143  44.337   1.959   4.133
52884W        W25144  35.876  20.230  14.785
52885W        W25145  40.305  18.772   9.965
52886W        W25146  29.055  35.974  14.289
52887W        W25147  10.691  33.921  13.499
52888W        W25148  25.557  40.937  10.960
52889W        W25149  24.036  37.074  12.411
52890W        W25150   1.762  35.983  10.406
52891W        W25151  42.383   0.858   0.332
52892W        W25152  29.614  29.117   2.812
52893W        W25153  13.689   1.935  10.441
52894W        W25154  26.143  25.006   1.343
52895W        W25155  15.158  25.209   2.216
52896W        W25156   9.326  25.705  10.501
52897W        W25157   7.739   6.893   4.789
52898W        W25158  39.341  36.498  14.405
52899W        W25159  19.551  18.177  13.321
52900W        W25160  28.519  39.371   1.327
52901W        W25161  18.133  22.122  13.802
52902W        W25162  23.694  40.315   0.779
52903W        W25163  34.928  17.169   3.629
52904W        W25164  34.085   5.822  14.947
52905W        W25165  21.633  22.192   4.333
52906W        W25166  27.520  14.826   2.336
52907W        W25167  16.104  34.944   2.725
52908W        W25168  40.975  42.838  12.031
52909W        W25169   5.320  41.817  13.822
52910W        W25170  33.121  31.512   1.920
52911W        W25171  44.808  22.082  12.032
52912W        W25172  36.466  23.241  14.971
52913W        W25173   5.299   0.478  12.433
52914W        W25174   2.316   9.820  12.084
52915W        W25175  33.416  17.708  10.949
52916W        W25176  15.092  22.018   4.599
52917W        W25177  41.971  28.144  14.432
52918W        W25178   1.735  41.996   4.810
52919W        W25179  22.589  23.624   4.748
52920W        W25180  43.836  22.561  14.318
52921W        W25181  19.103  10.634   1.285
52922W        W25182  14.794  29.458   1.301
52923W        W25183   5.720  31.971   1.335
52924W        W25184  17.620   7.752  12.869
52925W        W25185  11.684   4.903   3.252
52926W        W25186  10.718  32.467   1.417
52927W        W25187   4.898  24.070   2.395
52928W        W25188  43.412  31.994   2.763
52929W        W25189  38.071   1.892   1.899
52930W        W25190  11.150   9.841  11.903
52931W        W25191  11.659  11.292   0.436
52932W        W25192  41.296  38.892   5.252
52933W        W25193  16.771   3.435   4.723
52934W        W25194  32.071  35.975   1.332
52935W        W25195  40.470  29.559   2.402
52936W        W25196   6.362  11.764   5.188
52937W        W25197  33.404  30.969  11.381
52938W        W25198  11.841   9.794   3.175
52939W        W25199   7.877  14.757  12.020
52940W        W25200  20.757   0.818  13.890
52941W        W25201  38.470  31.571  11.103
52942W        W25202   6.282  23.229   4.283
52943W        W25203  28.574  14.153   1.438
52944W        W25204  14.122  13.816  10.990
52945W        W25205  43.345   6.879   2.237
52946W        W25206  40.937  25.690   4.599
52947W        W25207   6.298  31.618   4.626
52948W        W25208  17.270  31.093   0.384
52949W        W25209  37.444   9.714   5.310
52950W        W25210  39.859  36.012  12.931
52951W        W25211  34.493  40.516  12.415
52952W        W25212  38.332   6.894  13.884
52953W        W25213  32.955  44.756  11.503
52954W        W25214  24.071  37.580   4.207
52955W        W25215  20.153  31.098   2.663
52956W        W25216  10.645  25.677   3.766
52957W        W25217  14.185  16.258   1.708
52958W        W25218  41.512  14.686  11.019
52959W        W25219  13.833  19.546   2.746
52960W        W25220  42.433  10.376  13.990
52961W        W25221  25.639  42.417  10.538
52962W        W25222   1.761  41.484   3.695
52963W        W25223  19.234   1.745  14.919
52964W        W25224   6.812  36.017   3.753
52965W        W25225   8.727  11.134   1.331
52966W        W25226   0.247   8.221   3.378
52967W        W25227  34.548  37.418   2.339
52968W        W25228  38.948  31.063  13.523
52969W        W25229  41.794  29.100  14.016
52970W        W25230  39.914  15.761  12.933
52971W        W25231  24.004  43.453   0.254
52972W        W25232   8.810   9.235   3.368
52973W        W25233   7.697  10.663  13.854
52974W        W25234  33.473  43.270   1.338
52975W        W25235  38.043   9.162   3.795
52976W        W25236   1.744  35.531   2.889
52977W        W25237   2.293  24.717   4.748
52978W        W25238  38.564   9.153  14.953
52979W        W25239  11.326  14.247  10.908
52980W        W25240  24.132   3.869   4.232
52981W        W25241  32.460  31.629   2.297
52982W        W25242  33.544   4.895   5.180
52983W        W25243  37.496   8.684  12.992
52984W        W25244  44.376  21.062   4.671
52985W        W25245  26.520  41.964   3.855
52986W        W25246  43.332  11.199   4.284
52987W        W25247   8.660  33.410   4.761
52988W        W25248  24.098  31.449   2.688
52989W        W25249  15.097  42.455   4.292
52990W        W25250  16.264  30.650  13.901
52991W        W25251  39.969  12.697  11.413
52992W        W25252  33.505  26.130  11.052
52993W        W25253  34.556  12.338   3.327
52994W        W25254  26.602  12.213   2.844
52995W        W25255   1.832  12.801   1.426
52996W        W25256  40.022   9.161   9.500
52997W        W25257  25.073  25.605  14.874
52998W        W25258  16.246  27.505   1.891
52999W        W25259  37.921  35.868  13.331
53000W        W25260  37.002  24.030  12.875
53001W        W25261  12.698   3.890   3.326
53002W        W25262  42.782  22.131  12.577
53003W        W25263  35.039  28.955  10.586
53004W        W25264  11.757  25.983  11.925
53005W        W25265  35.003  21.073   2.884
53006W        W25266  24.624  11.159   4.614
53007W        W25267  23.050  42.443  10.996
53008W        W25268  40.541  19.651  14.418
53009W        W25269  18.716   5.284   4.136
53010W        W25270   1.378   6.795   0.927
53011W        W25271  37.538  18.727   2.773
53012W        W25272  28.589  22.097  11.427
53013W        W25273   8.757  31.097  10.478
53014W        W25274   6.209  41.299   4.186
53015W        W25275  11.677   7.689   3.358
53016W        W25276  41.360  16.093   3.346
53017W        W25277  26.505  10.338   4.732
53018W        W25278  33.398   4.411  11.867
53019W        W25279  25.974  29.102   2.249
53020W        W25280  24.532  31.897  13.389
53021W        W25281  31.469  32.553  12.983
53022W        W25282  36.440  10.805   1.814
53023W        W25283   3.769  17.794   2.771
53024W        W25284  26.662   7.204   2.409
53025W        W25285  19.605  29.656  14.011
53026W        W25286  44.460  21.744   3.800
53027W        W25287  23.654  23.030  10.932
53028W        W25288  15.661  12.333  14.344
53029W        W25289  14.748  14.744  14.462
53030W        W25290  20.205  15.175   4.659
53031W        W25291  40.866  23.000   1.862
53032W        W25292   6.380  13.691   4.303
53033W        W25293  43.280  14.296  11.398
53034W        W25294   6.422   2.851  14.908
53035W        W25295   6.728  17.261  13.877
53036W        W25296  30.088  28.529  12.062
53037W        W25297  42.495   8.818   0.880
53038W        W25298  42.318  19.059   4.788
53039W        W25299  38.053  28.630  14.980
53040W        W25300  44.909  30.435  13.873
53041W        W25301  28.556  28.964  14.958
53042W        W25302   7.238  30.579   3.858
53043W        W25303  11.657  30.026   5.135
53044W        W25304  35.921  35.535   1.895
53045W        W25305  15.225  35.052  11.471
53046W        W25306   0.260   8.210   2.764
53047W        W25307  28.456  25.559  11.417
53048W        W25308  35.049  24.995  12.937
53049W        W25309  42.486  22.010  11.517
53050W        W25310  27.468  28.663  11.444
53051W        W25311  31.433  23.507   2.735
53052W        W25312   0.338  15.696   3.837
53053W        W25313  35.034  12.686  12.553
53054W        W25314  18.236  42.494   1.451
53055W        W25315   3.412  39.867   4.298
53056W        W25316   0.924  39.506   1.306
53057W        W25317  19.703  20.728   3.817
53058W        W25318   9.782   8.847   2.294
53059W        W25319  36.460  11.244  11.465
53060W        W25320   2.341  34.990   3.841
53061W        W25321   7.246  23.064   1.872
53062W        W25322  12.797  27.446  11.861
53063W        W25323  13.798  31.521  13.360
53064W        W25324  12.758  19.095   2.847
53065W        W25325  10.799   1.364   3.750
53066W        W25326   0.428  27.146   3.311
53067W        W25327   6.898  36.063   4.117
53068W        W25328  16.702  41.312   0.366
53069W        W25329   3.361   3.338   4.144
53070W        W25330  36.978  41.034  12.870
53071W        W25331  24.048   3.357   2.283
53072W        W25332  12.637  26.090   2.756
53073W        W25333  26.200  33.994  11.372
53074W        W25334  15.313  19.262   4.333
53075W        W25335  11.727  21.647   0.802
53076W        W25336  36.860   6.851   4.347
53077W        W25337  13.199  31.914  12.435
53078W        W25338  35.974  13.226   1.308
53079W        W25339  38.998  44.786   1.847
53080W        W25340  23.552  20.173   1.888
53081W        W25341  39.499  43.410  12.951
53082W        W25342  24.526  33.514  10.507
53083W        W25343  29.601  28.488  13.372
53084W        W25344  35.881  44.906   3.664
53085W        W25345  16.272   1.802   1.367
53086W        W25346  19.717  38.002  12.562
53087W        W25347  40.477   6.268   4.117
53088W        W25348   3.731  42.935   0.757
53089W        W25349  42.898  19.616   0.922
53090W        W25350  41.931  21.263  10.425
53091W        W25351  24.986   0.955   1.292
53092W        W25352  16.081  44.435   2.184
53093W        W25353  14.830  23.030   1.313
53094W        W25354  18.692  27.956   3.665
53095W        W25355  14.170  34.917   1.219
53096W        W25356  31.562  22.715  11.521
53097W        W25357   0.789  25.604   3.378
53098W        W25358  37.433  42.434   1.766
53099W        W25359  12.808  36.083   1.330
53100W        W25360  39.355  29.601  10.555
53101W        W25361  22.523  27.098  13.340
53102W        W25362  16.574  21.195   4.660
53103W        W25363  41.328  30.439  10.973
53104W        W25364  18.223   7.229  14.301
53105W        W25365  21.686   2.856  11.546
53106W        W25366   4.718   1.468  14.350
53107W        W25367   2.341   3.717  11.885
53108W        W25368  35.604  33.572  13.837
53109W        W25369  27.978  28.647  11.905
53110W        W25370   0.752  21.156  14.299
53111W        W25371  31.011  12.295  12.473
53112W        W25372  17.201  16.630   0.909
53113W        W25373  11.344  13.221  14.333
53114W        W25374  29.498  44.373  10.488
53115W        W25375  23.684   8.392  13.340
53116W        W25376  29.555  38.847   3.660
53117W        W25377   6.887   9.366   0.966
53118W        W25378  18.697  17.072   3.837
53119W        W25379  15.137  21.219  11.402
53120W        W25380   0.315   2.446   3.183
53121W        W25381  16.702  28.002  12.094
53122W        W25382  32.105  13.142   0.380
53123W        W25383  19.234  24.600  12.570
53124W        W25384  37.561   3.259  12.457
53125W        W25385  18.629   6.911   1.335
53126W        W25386  11.223  34.454   0.874
53127W        W25387  35.590   1.407   3.735
53128W        W25388  35.914  10.254  14.507
53129W        W25389  31.633  22.717  12.558
53130W        W25390  24.486  18.172   3.250
53131W        W25391   8.838  31.105   2.774
53132W        W25392  28.563   1.737  10.597
53133W        W25393   6.396  35.903   2.888
53134W        W25394   4.925  32.482   3.237
53135W        W25395  17.249  43.285  13.040
53136W        W25396  28.630  31.977   5.676
53137W        W25397  12.156  39.846  12.564
53138W        W25398  38.043  11.306   3.147
53139W        W25399   3.332  10.345   3.257
53140W        W25400   6.398   3.876  12.501
53141W        W25401  13.198  37.032  11.049
53142W        W25402   4.907  17.198  13.439
53143W        W25403  10.169  31.478  11.901
53144W        W25404  33.510  16.804   4.790
53145W        W25405  30.436  41.523  11.108
53146W        W25406  44.818  19.123   3.721
53147W        W25407   7.728  30.422   4.700
53148W        W25408  40.546  41.493  13.972
53149W        W25409  27.957  10.148  12.930
53150W        W25410  29.171  41.834   4.766
53151W        W25411   5.704  38.474  11.492
53152W        W25412   9.200  13.151   3.305
53153W        W25413   4.347  35.992   4.274
53154W        W25414   3.775  38.882   3.716
53155W        W25415  43.398  35.097   4.674
53156W        W25416   1.263  10.321  13.436
53157W        W25417  43.970  44.925  11.906
53158W        W25418  39.356  10.170   4.152
53159W        W25419  23.719  42.891  13.861
53160W        W25420  17.247  23.529   0.255
53161W        W25421  16.737  43.877  11.386
53162W        W25422   6.256  34.440  13.950
53163W        W25423  11.371  12.326   2.682
53164W        W25424  34.928  33.444  13.836
53165W        W25425   5.216   7.722  11.493
53166W        W25426  43.899  14.754  12.988
53167W        W25427  21.614  40.496  12.882
53168W        W25428  34.392   1.302   3.177
53169W        W25429   5.819  14.590  11.114
53170W        W25430  10.845  36.488   1.303
53171W        W25431  42.342  12.635   4.782
53172W        W25432   3.230   4.925  14.464
53173W        W25433  26.110  30.596   3.153
53174W        W25434  19.710  16.737   2.773
53175W        W25435  44.486  39.817  13.346
53176W        W25436  31.052  36.395  13.054
53177W        W25437  14.182  11.781   0.793
53178W        W25438   7.233  24.062   3.856
53179W        W25439  35.539   7.750  10.520
53180W        W25440  35.893  39.031   1.420
53181W        W25441  27.504   2.328  14.349
53182W        W25442  19.198  27.990   4.640
53183W        W25443  27.572  31.936  10.621
53184W        W25444  29.163  15.740  13.323
53185W        W25445   7.199  27.533  14.981
53186W        W25446  31.077   1.425  12.915
53187W        W25447  27.634  26.954   3.267
53188W        W25448  31.009   9.370  10.900
53189W        W25449  32.104  27.648  14.477
53190W        W25450  23.681  33.929   1.875
53191W        W25451  36.943  39.945  12.985
53192W        W25452   6.907   6.279  13.351
53193W        W25453  19.777   5.304  11.570
53194W        W25454  21.584  34.433   1.338
53195W        W25455  37.541  19.646   4.278
53196W        W25456  14.644  41.006   0.419
53197W        W25457  19.046  21.525  14.486
53198W        W25458  19.042   8.871  11.857
53199W        W25459  12.320  22.070  10.948
53200W        W25460  40.818  38.985   4.204
53201W        W25461  28.142  14.589  11.092
53202W        W25462  19.124  32.606  12.017
53203W        W25463   8.284  18.203   4.261
53204W        W25464  42.361  42.493  10.600
53205W        W25465  30.588   8.828  13.522
53206W        W25466  19.171   7.225  13.871
53207W        W25467  34.924  20.543  12.900
53208W        W25468  15.631   7.739   0.334
53209W        W25469  35.046  35.060  13.466
53210W        W25470   1.929  22.229  14.789
53211W        W25471  30.597  31.623  12.468
53212W        W25472  35.053  28.067   3.731
53213W        W25473  28.469  29.452  10.910
53214W        W25474  12.626  35.975   4.738
53215W        W25475  34.061  20.244   1.326
53216W        W25476   5.690   6.776   0.444
53217W        W25477   5.319  29.965   0.963
53218W        W25478  11.262   3.881   2.873
53219W        W25479  32.433  23.040   4.128
53220W        W25480  33.910  22.747  11.598
53221W        W25481  38.053  11.838   1.698
53222W        W25482  13.652  27.514  12.561
53223W        W25483  40.995  23.162  12.442
53224W        W25484  36.573  43.857  10.929
53225W        W25485  20.136  44.843  13.982
53226W        W25486  39.990  16.185   3.791
53227W        W25487  31.093  24.121  10.575
53228W        W25488  26.544  26.618  12.551
53229W        W25489   1.827  30.135   2.201
53230W        W25490  29.598  26.518  12.091
53231W        W25491  19.244   9.252   5.656
53232W        W25492  38.941  26.205   2.878
53233W        W25493  32.929  24.510  11.065
53234W        W25494  38.975  42.907  12.065
53235W        W25495  42.372  17.223  14.875
53236W        W25496   9.337  35.855  13.943
53237W        W25497  16.101  21.098  10.556
53238W        W25498  25.544  40.420   2.365
53239W        W25499  35.366  32.425   1.784
53240W        W25500  14.165   3.310   3.331
53241W        W25501  28.673  27.137  10.970
53242W        W25502  17.703  13.782  14.024
53243W        W25503  22.599  19.148  14.843
53244W        W25504  18.140  37.945  14.859
53245W        W25505  11.674  19.269  13.479
53246W        W25506  31.418  37.028   0.818
53247W        W25507  24.008  17.742   0.849
53248W        W25508   7.414  11.764  13.427
53249W        W25509  44.979  33.042  13.921
53250W        W25510  36.039  19.075  11.527
53251W        W25511  22.647  31.107  14.974
53252W        W25512   0.944  44.400   4.228
53253W        W25513  44.343  21.517  12.071
53254W        W25514   1.382  37.053   2.221
53255W        W25515  13.688  43.491   3.840
53256W        W25516  26.175  38.879  14.512
53257W        W25517  12.682   5.249  14.994
53258W        W25518  25.473   8.312  14.953
53259W        W25519  18.184  27.528  12.848
53260W        W25520  39.843  31.066   4.190
53261W        W25521  10.296   3.311  11.900
53262W        W25522  34.447  32.019  11.433
53263W        W25523   0.400  25.998   1.398
53264W        W25524  11.843   5.933   2.285
53265W        W25525  40.326  15.124   4.318
53266W        W25526  42.908  13.225  14.475
53267W        W25527  23.566   9.213   3.732
53268W        W25528  30.634  37.995  14.311
53269W        W25529   0.885  23.562  11.445
53270W        W25530  16.203   9.267  13.897
53271W        W25531  44.486  10.338   2.341
53272W        W25532  38.408  12.727   4.301
53273W        W25533  24.198  13.180   1.808
53274W        W25534  18.786  18.211  11.118
53275W        W25535   5.439  40.871  12.468
53276W        W25536  34.053  13.819   3.847
53277W        W25537  18.268   0.332  14.444
53278W        W25538  31.616  44.944   4.776
53279W        W25539  13.716   5.920  13.900
53280W        W25540  39.423  19.270   2.681
53281W        W25541  40.935  41.321   2.342
53282W        W25542  26.490   1.296  14.009
53283W        W25543  40.028  20.541   4.173
53284W        W25544  38.904  44.453   5.099
53285W        W25545  18.058  23.152   1.282
53286W        W25546  21.263  29.428   4.615
53287W        W25547  22.583  23.052  14.371
53288W        W25548  26.131   7.817   0.389
53289W        W25549  19.757  11.344   1.888
53290W        W25550  21.555  35.066  13.822
53291W        W25551  40.373  30.912   0.737
53292W        W25552  24.056  33.509  10.142
53293W        W25553  19.099  32.896   2.243
53294W        W25554   8.406  24.508   3.370
53295W        W25555  25.994  25.980  10.450
53296W        W25556  11.169  40.426  13.838
53297W        W25557  39.414  32.391  12.978
53298W        W25558  11.317  26.984   3.377
53299W        W25559  18.778   6.323   2.289
53300W        W25560  41.024  27.642   2.727
53301W        W25561  22.663  40.339  14.303
53302W        W25562  31.914  30.020  10.633
53303W        W25563  29.501   6.342  13.863
53304W        W25564  25.213   3.721   1.293
53305W        W25565  11.363  43.968   4.783
53306W        W25566   9.743  43.878   3.260
53307W        W25567  44.925  25.988   2.815
53308W        W25568  25.148  11.639  12.427
53309W        W25569  42.320  35.069  10.961
53310W        W25570  44.815  42.913  11.524
53311W        W25571  10.187  32.632  12.006
53312W        W25572  18.593  11.834   0.400
53313W        W25573  31.619  23.552  12.344
53314W        W25574  23.177  13.286  14.856
53315W        W25575  11.731  14.124   5.274
53316W        W25576   7.406  28.141  13.895
53317W        W25577   1.335  25.100  12.937
53318W        W25578  31.943  30.910   3.724
53319W        W25579  35.449  34.941  10.643
53320W        W25580  11.749  36.549  10.887
53321W        W25581   9.257  36.385   2.296
53322W        W25582  38.525   0.923  13.958
53323W        W25583  42.872  32.051  12.032
53324W        W25584   7.232   1.467  14.401
53325W        W25585   5.255  39.064  12.478
53326W        W25586  41.903  10.729   0.256
53327W        W25587  41.962   7.256   4.143
53328W        W25588  41.312   7.334  14.342
53329W        W25589   3.416  37.519  11.604
53330W        W25590  11.168  33.531  10.428
53331W        W25591  22.137  22.683  11.871
53332W        W25592   0.800  34.993  12.825
53333W        W25593  28.487   4.902  12.365
53334W        W25594  30.976  32.570  13.426
53335W        W25595  31.006  40.384   4.829
53336W        W25596  44.835  17.580   0.740
53337W        W25597  16.699  39.965   2.327
53338W        W25598  11.245  13.317  12.922
53339W        W25599   3.457  38.416  12.832
53340W        W25600  34.057  42.398  14.868
53341W        W25601  41.034  36.546  11.031
53342W        W25602   9.662  28.166   3.827
53343W        W25603  37.432  40.304   2.666
53344W        W25604  12.305  36.354   2.863
53345W        W25605   0.432   8.657   4.723
53346W        W25606  13.276  22.085  12.904
53347W        W25607  10.655  35.950   0.860
53348W        W25608  27.655  32.100  12.851
53349W        W25609   6.416   3.377  12.380
53350W        W25610  42.004  41.421  10.489
53351W        W25611  31.076  24.546   1.331
53352W        W25612   2.407  34.489   1.258
53353W        W25613  17.153   2.468   3.194
53354W        W25614  43.847  24.051  12.384
53355W        W25615  18.134   9.729   2.262
53356W        W25616  32.563  15.641  13.401
53357W        W25617  24.200  14.787  13.435
53358W        W25618  27.504  32.989   0.740
53359W        W25619  41.819  27.016  10.500
53360W        W25620   9.738  20.077   4.293
53361W        W25621  23.129  41.448   1.912
53362W        W25622  21.191  41.307  11.508
53363W        W25623  33.555  32.130   5.135
53364W        W25624  30.163  18.232   0.900
53365W        W25625  30.539  28.668   1.410
53366W        W25626   7.350  29.033  11.041
53367W        W25627  28.984  37.858  11.496
53368W        W25628  29.530  36.376   2.792
53369W        W25629   9.327  32.605  11.978
53370W        W25630  37.496  33.416   1.318
53371W        W25631   2.865  38.503   1.886
53372W        W25632  27.603  39.061   2.692
53373W        W25633  31.140  41.481   2.268
53374W        W25634  17.067  43.347  11.513
53375W        W25635  38.077  39.536  11.096
53376W        W25636   0.363  36.937   3.302
53377W        W25637  32.594  14.219  13.392
53378W        W25638  23.005  40.924   4.831
53379W        W25639  15.822  38.915   5.192
53380W        W25640  18.088  36.963   1.735
53381W        W25641  30.122  34.027  13.926
53382W        W25642  16.283   9.716   0.739
53383W        W25643  17.274  27.133  11.072
53384W        W25644  18.746  23.622   3.344
53385W        W25645   2.374  39.373  14.943
53386W        W25646  20.618  27.605  13.487
53387W        W25647   3.838   5.416  13.846
53388W        W25648  33.428  28.947   3.238
53389W        W25649   5.267   2.419  13.446
53390W        W25650  22.054  15.229  14.021
53391W        W25651  13.289   0.748   2.662
53392W        W25652  21.262  41.953  13.505
53393W        W25653   3.792   8.708   2.202
53394W        W25654   9.169  25.109  11.001
53395W        W25655   4.329  21.683   1.794
53396W        W25656  18.284  17.128  14.953
53397W        W25657  15.792  16.282   2.180
53398W        W25658  37.382  33.982   2.727
53399W        W25659  35.067  19.073   5.133
53400W        W25660   9.288  10.361   4.732
53401W        W25661  23.122  44.772  13.975
53402W        W25662  16.289   7.855   4.248
53403W        W25663  26.623  23.676   5.222
53404W        W25664  19.603   6.246   4.189
53405W        W25665   3.287   5.695   0.938
53406W        W25666  33.615   5.791   4.118
53407W        W25667  10.194   1.921   1.816
53408W        W25668  40.391  36.360   3.692
53409W        W25669  24.525  34.999  14.336
53410W        W25670  38.940  13.278  13.544
53411W        W25671   5.695  21.615  11.407
53412W        W25672   7.302  38.325  11.417
53413W        W25673   2.272  21.713   0.448
53414W        W25674  41.349  37.042   2.900
53415W        W25675  41.328   4.797   3.329
53416W        W25676  30.511  22.113  14.497
53417W        W25677  41.391  36.526  14.954
53418W        W25678   4.372  17.091   1.309
53419W        W25679  38.435  39.008  14.507
53420W        W25680   6.779  39.448   4.765
53421W        W25681  39.921   4.266   3.648
53422W        W25682  31.083  29.644  13.352
53423W        W25683  37.403  21.651   0.818
53424W        W25684   7.834  17.174  10.478
53425W        W25685  39.557   4.320  11.556
53426W        W25686  22.672   7.683  13.807
53427W        W25687  16.115  40.478  12.408
53428W        W25688  15.649  39.331  11.080
53429W        W25689  24.489  21.578  14.352
53430W        W25690  25.629  41.321   3.370
53431W        W25691  24.227  31.964  11.944
53432W        W25692  15.699  31.418  11.867
53433W        W25693  29.434  40.424   2.375
53434W        W25694  14.765  25.546   1.849
53435W        W25695   1.311  27.048  10.900
53436W        W25696  22.654  12.353  14.944
53437W        W25697   3.900  35.530   1.929
53438W        W25698  23.593  20.082  13.918
53439W        W25699  29.454  30.085   3.237
53440W        W25700  24.008   0.856   0.462
53441W        W25701   2.226  23.638  10.085
53442W        W25702  31.445  17.661   3.737
53443W        W25703   5.227  34.936   3.237
53444W        W25704  11.827  11.830  13.884
53445W        W25705  30.516  23.629   3.380
53446W        W25706  27.978   6.788  12.063
53447W        W25707  37.886  10.287   2.782
53448W        W25708  33.393  19.064  14.926
53449W        W25709  24.671  44.871  10.928
53450W        W25710  36.952  43.937  11.493
53451W        W25711   7.704  29.640   2.271
53452W        W25712  16.734   8.401  10.526
53453W        W25713  21.250   6.875  12.831
53454W        W25714  14.740  29.449   4.275
53455W        W25715  23.062  14.795  12.048
53456W        W25716  38.957  39.496   3.696
53457W        W25717   0.925  10.223   0.894
53458W        W25718  29.132   6.186  13.043
53459W        W25719  40.881  24.723   4.777
53460W        W25720   8.836  18.051   1.781
53461W        W25721   3.905  27.977  13.018
53462W        W25722  39.883  11.354  11.005
53463W        W25723  36.904  33.621   0.901
53464W        W25724  17.258  30.563   0.838
53465W        W25725  30.128   5.213  13.485
53466W        W25726  22.744  10.336   5.249
53467W        W25727  29.140  31.488  11.590
53468W        W25728  44.945   4.225   2.394
53469W        W25729  30.017  12.799  12.999
53470W        W25730  39.440  33.614  10.420
53471W        W25731  10.384  37.438   0.920
53472W        W25732  41.915  14.785   1.909
53473W        W25733  11.218  17.597  11.981
53474W        W25734  20.559  16.773  14.788
53475W        W25735  20.535   9.818  10.954
53476W        W25736   6.409   4.306   2.266
53477W        W25737  21.663  36.457  12.060
53478W        W25738  41.914  25.154  14.893
53479W        W25739  29.668  30.436   2.232
53480W        W25740  44.405  25.984  12.436
53481W        W25741  24.036  37.428  12.525
53482W        W25742  38.394  18.209  13.462
53483W        W25743  39.042   5.351  12.921
53484W        W25744  19.739  13.319  11.073
53485W        W25745  24.684  32.127   4.799
53486W        W25746  21.137  19.248  10.950
53487W        W25747   2.855  39.315   0.780
53488W        W25748  16.107  24.569  10.572
53489W        W25749  17.301  38.026  12.065
53490W        W25750  17.261   7.688   1.341
53491W        W25751   5.283  26.555  11.507
53492W        W25752  11.664  12.121  10.557
53493W        W25753  34.451  38.423  13.811
53494W        W25754  27.613  22.036   4.271
53495W        W25755  15.085  32.395  11.977
53496W        W25756   6.902  31.599  14.766
53497W        W25757  10.252  19.571  11.920
53498W        W25758  40.924  19.562   0.965
53499W        W25759  41.468  17.569   3.212
53500W        W25760  30.051   3.785   4.318
53501W        W25761  18.096  40.841   3.638
53502W        W25762   1.370  28.527  11.470
53503W        W25763  28.988   7.733   0.314
53504W        W25764  42.967  39.033  10.939
53505W        W25765  20.211   0.877   5.127
53506W        W25766  38.506  20.720   3.185
53507W        W25767  36.387  29.433  12.898
53508W        W25768  14.660   7.736   0.446
53509W        W25769  20.223  22.719  14.763
53510W        W25770  25.186  18.077  10.492
53511W        W25771   1.951  35.527   3.806
53512W        W25772  15.611  41.832  11.591
53513W        W25773  12.127   1.757   1.850
53514W        W25774  30.017  14.678   1.439
53515W        W25775  37.470  27.063   4.260
53516W        W25776  18.210  39.980  13.509
53517W        W25777  10.293   4.846   1.904
53518W        W25778  35.378  12.623   3.817
53519W        W25779  23.024  41.941  13.393
53520W        W25780  23.035   9.383  14.357
53521W        W25781   7.897  42.776   1.864
53522W        W25782   4.810   7.690  13.437
53523W        W25783  20.737  14.632  12.021
53524W        W25784   3.415  28.936   3.765
53525W        W25785  42.952  38.056  13.356
53526W        W25786  19.155  31.949  14.873
53527W        W25787  21.746   4.785  10.010
53528W        W25788  41.017  14.711   2.843
53529W        W25789  18.083   8.228   0.352
53530W        W25790   9.821  11.716  11.891
53531W        W25791   4.854  42.860  12.906
53532W        W25792   0.366  24.035   3.254
53533W        W25793  29.603  16.288  14.368
53534W        W25794  32.404   7.324   3.647
53535W        W25795   2.925   2.778   3.837
53536W        W25796   8.883  42.883   3.155
53537W        W25797  37.524  26.973  13.826
53538W        W25798  41.522  11.682  12.090
53539W        W25799  32.084   2.783   3.709
53540W        W25800  40.307  17.240   5.107
53541W        W25801  37.917  30.110   1.280
53542W        W25802   0.761  44.410   5.282
53543W        W25803   4.803  34.000   0.462
53544W        W25804  30.951  26.145   0.460
53545W        W25805  39.827  34.957   2.353
53546W        W25806  17.740  27.605   0.452
53547W        W25807  33.975  27.177  11.462
53548W        W25808   7.832  37.448   0.736
53549W        W25809  29.670   9.704  11.068
53550W        W25810  24.153   4.213  13.937
53551W        W25811   3.902   6.307   4.260
53552W        W25812  37.376  40.835  13.052
53553W        W25813  29.143  31.105   4.309
53554W        W25814  34.031  24.197  11.972
53555W        W25815  37.578  24.572  12.964
53556W        W25816  28.457  22.640   4.236
53557W        W25817  29.624  16.717   1.748
53558W        W25818  35.947  26.078  14.275
53559W        W25819  42.519  23.721   4.831
53560W        W25820   1.443  32.946  12.893
53561W        W25821  17.160  32.490  10.956
53562W        W25822   6.805  34.572  14.010
53563W        W25823  13.619  10.665  14.319
53564W        W25824  44.395  32.421   2.401
53565W        W25825  31.998   4.868   4.678
53566W        W25826   4.341   2.851  10.971
53567W        W25827  32.889   4.407   1.917
53568W        W25828  36.579  30.002  14.897
53569W        W25829  42.958  10.808  11.075
53570W        W25830  26.676   0.924   3.817
53571W        W25831  21.089  35.000   0.248
53572W        W25832   9.394  25.578  14.869
53573W        W25833  39.517  34.486   3.184
53574W        W25834  39.417   1.448   2.356
53575W        W25835  36.906  14.097   1.289
53576W        W25836   3.828  38.441   4.783
53577W        W25837  36.476  37.968  13.061
53578W        W25838  30.103  19.120   4.251
53579W        W25839  22.141  44.947   2.357
53580W        W25840  28.623  43.362   0.454
53581W        W25841  22.502  14.120   1.767
53582W        W25842  12.799  31.964  12.560
53583W        W25843   8.682  42.404  10.551
53584W        W25844  43.894  44.774   4.158
53585W        W25845  44.826   2.795   2.282
53586W        W25846  19.236   6.848  11.060
53587W        W25847  31.937  15.254  14.355
53588W        W25848  11.787  10.878   3.657
53589W        W25849  36.051   6.871   3.268
53590W        W25850  37.982  29.110   3.840
53591W        W25851  27.492  44.932  11.482
53592W        W25852   0.867   6.796   3.347
53593W        W25853  14.167  37.923   4.315
53594W        W25854  33.916   9.359  13.967
53595W        W25855  15.118  10.206   2.721
53596W        W25856  21.221   3.370  10.130
53597W        W25857  40.006  36.070  13.874
53598W        W25858   7.869  37.536  14.958
53599W        W25859   4.706   8.812  14.811
53600W        W25860  26.123  18.566   4.225
53601W        W25861   7.237  25.674  11.007
53602W        W25862   2.801  26.644   4.228
53603W        W25863   3.342  35.983  10.486
53604W        W25864  17.116   6.721   5.751
53605W        W25865  25.995  29.998   0.768
53606W        W25866  43.494  15.815  14.851
53607W        W25867  42.983  14.595   1.347
53608W        W25868  22.238   9.838   0.292
53609W        W25869   4.711  38.484   1.751
53610W        W25870   1.369  44.468   0.742
53611W        W25871   2.270  29.025   3.830
53612W        W25872  19.746  42.321  13.341
53613W        W25873  10.297  15.592  10.410
53614W        W25874   0.442  42.865   0.826
53615W        W25875  41.433  31.995  10.524
53616W        W25876  17.773  36.965   4.298
53617W        W25877  33.410  25.571  14.977
53618W        W25878  32.105  38.431  11.057
53619W        W25879  38.828  17.294   3.716
53620W        W25880  32.461  12.230   0.938
53621W        W25881  10.190  22.069   3.286
53622W        W25882   0.800  33.554   4.749
53623W        W25883   7.751  33.955   0.730
53624W        W25884  21.186  36.583   2.354
53625W        W25885  14.751   3.762  12.965
53626W        W25886  25.113  37.943  11.412
53627W        W25887  25.178   2.908  13.417
53628W        W25888  40.053  29.972  11.982
53629W        W25889  20.062  14.152   1.376
53630W        W25890  44.447  29.973  11.505
53631W        W25891  32.895  28.667  13.545
53632W        W25892   0.451  32.915   3.276
53633W        W25893  38.397   8.160   5.310
53634W        W25894  13.826  41.339  11.495
53635W        W25895  43.399  31.994   4.650
53636W        W25896  37.873  30.060   3.170
53637W        W25897  15.246  30.953   0.863
53638W        W25898  22.712  13.248   2.719
53639W        W25899   8.898  43.490  11.110
53640W        W25900  21.225  14.219  14.829
53641W        W25901  38.423  11.342  14.007
53642W        W25902  17.719  15.587  14.766
53643W        W25903  17.249  41.020  10.603
53644W        W25904  42.831  31.009   4.722
53645W        W25905  20.041   3.914  12.406
53646W        W25906  27.061  37.938   1.730
53647W        W25907  17.623  16.291   2.813
53648W        W25908  37.926  36.534  14.841
53649W        W25909  41.529   4.344   2.294
53650W        W25910  17.777  40.870   2.324
53651W        W25911  40.518   2.393  14.949
53652W        W25912   4.820  17.631   3.192
53653W        W25913  33.977  31.463  12.363
53654W        W25914  32.940  36.404   4.770
53655W        W25915   5.820  20.661   2.252
53656W        W25916  25.496  36.847   3.783
53657W        W25917  32.090  21.658  14.805
53658W        W25918  30.413  44.898  11.105
53659W        W25919   7.738  37.020  13.989
53660W        W25920  44.420   9.775  12.903
53661W        W25921   7.392   5.256  10.453
53662W        W25922  23.170  11.659  13.028
53663W        W25923  11.733  31.898  13.899
53664W        W25924  11.170  12.346   0.915
53665W        W25925  19.220  19.693  11.408
53666W        W25926  13.717  24.156  11.505
53667W        W25927  39.544  31.633   0.438
53668W        W25928  25.155  17.654  10.420
53669W        W25929  22.028   4.937   1.380
53670W        W25930  23.145  19.192  12.530
53671W        W25931  38.485   3.830  11.049
53672W        W25932  12.823  22.505   0.309
53673W        W25933  43.512   3.890   3.276
53674W        W25934  27.031  17.562  13.058
53675W        W25935  39.928  43.397  13.867
53676W        W25936  21.754  25.040  14.938
53677W        W25937  40.923   9.315  14.425
53678W        W25938  34.612  23.030   4.241
53679W        W25939  31.072  44.322   1.732
53680W        W25940  15.194  25.153   5.148
53681W        W25941  28.068  31.914   9.454
53682W        W25942  15.725   0.318   3.708
53683W        W25943  43.011  21.093  11.929
53684W        W25944  39.521   6.242   3.332
53685W        W25945  35.037  26.525   0.929
53686W        W25946   3.762  36.420  11.532
53687W        W25947  25.204  18.068   3.173
53688W        W25948  14.782   8.347   0.783
53689W        W25949  11.863  14.623   2.805
53690W        W25950  29.083  24.991  10.889
53691W        W25951  37.525  13.314  14.383
53692W        W25952  23.511  22.712  13.967
53693W        W25953   6.897  23.501  10.438
53694W        W25954  16.080  39.882  13.850
53695W        W25955  20.098  26.205  10.611
53696W        W25956  20.567  21.518  13.040
53697W        W25957  29.632  19.065   2.804
53698W        W25958  17.648   0.897  14.945
53699W        W25959  30.564  39.886  10.536
53700W        W25960  18.097  29.609  11.588
53701W        W25961   8.763  12.617   2.332
53702W        W25962  17.070  39.356   4.793
53703W        W25963  24.145  15.308  13.548
53704W        W25964   5.733  28.554  10.153
53705W        W25965  28.458  16.312  11.955
53706W        W25966  13.316  37.846  11.545
53707W        W25967  23.699  41.808  11.007
53708W        W25968  13.835   5.400   3.811
53709W        W25969  11.331  21.590  10.419
53710W        W25970  29.978  35.905  10.507
53711W        W25971  38.898  27.145  14.806
53712W        W25972  10.877  26.099   2.263
53713W        W25973  17.697   6.921  10.890
53714W        W25974  23.648  40.893  11.876
53715W        W25975  38.057   0.358   2.676
53716W        W25976   3.815  10.222   2.363
53717W        W25977  28.577   1.938  13.315
53718W        W25978  17.625   4.372   2.838
53719W        W25979  23.139  20.181   2.727
53720W        W25980  16.172  35.989  14.350
53721W        W25981  37.384  35.919   0.968
53722W        W25982  14.695  23.124   2.246
53723W        W25983  31.620   8.315  12.411
53724W        W25984  20.616  11.727  13.058
53725W        W25985  14.205  38.377  13.490
53726W        W25986  11.848  14.779   1.872
53727W        W25987  30.530  43.957   3.305
53728W        W25988   6.317  36.041   2.411
53729W        W25989   8.249   6.346   3.214
53730W        W25990  42.292  31.089   1.252
53731W        W25991  41.392  33.892   2.879
53732W        W25992  32.983  23.718   1.826
53733W        W25993  25.975  26.523   2.860
53734W        W25994  12.810  36.395  10.608
53735W        W25995   2.905  10.339  10.543
53736W        W25996   0.764  10.300  12.513
53737W        W25997   6.387  38.506  11.557
53738W        W25998   2.868  19.247  11.590
53739W        W25999   3.336  35.524  12.958
53740W        W26000  30.414   9.225   1.896
53741W        W26001  15.260  24.056   2.330
53742W        W26002  13.699  25.616  11.898
53743W        W26003  25.512  13.128  14.775
53744W        W26004  21.575  23.711   0.383
53745W        W26005  12.292  17.229  11.900
53746W        W26006   6.676   6.283   4.203
53747W        W26007  23.627  12.756   3.680
53748W        W26008   9.756  37.050   2.292
53749W        W26009  13.106   9.381  12.896
53750W        W26010  28.545  10.262   2.881
53751W        W26011  42.912  28.435  11.932
53752W        W26012  18.628  21.522   2.848
53753W        W26013  40.982  31.026  14.333
53754W        W26014  13.724  35.956  12.445
53755W        W26015  32.563  13.248   1.760
53756W        W26016  15.292  41.302  10.556
53757W        W26017   6.263  20.633   0.776
53758W        W26018  27.599  22.740   2.789
53759W        W26019  35.451  27.692   3.293
53760W        W26020  21.036  12.722  10.610
53761W        W26021  40.038   3.902  11.050
53762W        W26022  17.268  11.655   0.408
53763W        W26023  39.523  37.454  13.793
53764W        W26024  22.201  10.848   1.925
53765W        W26025   9.230   2.295  10.645
53766W        W26026  14.822  41.526  14.029
53767W        W26027  26.681  39.544  13.840
53768W        W26028   9.305  15.183  14.396
53769W        W26029   6.737  36.843   1.368
53770W        W26030  36.062   7.758  14.867
53771W        W26031  36.436  20.733  11.015
53772W        W26032  10.143   0.945  12.064
53773W        W26033  41.447  20.582  11.484
53774W        W26034  39.039  22.678  12.095
53775W        W26035   6.726  31.048   4.799
53776W        W26036   9.291  36.862   1.815
53777W        W26037  33.468   2.270  14.343
53778W        W26038  12.198  21.036   2.228
53779W        W26039  23.588   9.851   3.767
53780W        W26040  26.686   6.270   2.839
53781W        W26041  30.983  40.477   2.751
53782W        W26042   0.272  12.255   0.876
53783W        W26043  21.210  43.785  10.515
53784W        W26044   8.194  40.030  10.436
53785W        W26045  12.206  34.980   1.696
53786W        W26046  12.745  22.639  11.506
53787W        W26047  38.041  13.796  14.934
53788W        W26048  15.127  31.596  14.429
53789W        W26049  28.677  41.802   0.475
53790W        W26050  25.608  23.622   3.370
53791W        W26051  30.064  21.656   3.866
53792W        W26052  11.847  29.057   4.137
53793W        W26053  14.761  14.641  11.459
53794W        W26054  27.058  44.887   0.916
53795W        W26055  27.089  41.033   0.418
53796W        W26056   4.251  38.976   4.350
53797W        W26057  25.024  14.702   0.376
53798W        W26058  32.512   6.800   0.264
53799W        W26059  31.937  25.217  13.310
53800W        W26060  39.445  10.292  10.138
53801W        W26061  37.074  33.128  11.115
53802W        W26062  16.146   0.885   3.315
53803W        W26063   4.725  29.508   9.960
53804W        W26064  12.191  35.896  13.393
53805W        W26065  37.387  32.904  14.014
53806W        W26066  41.908  42.439   1.852
53807W        W26067  44.309  43.811   4.719
53808W        W26068  38.828  41.433  12.890
53809W        W26069  41.335  18.734  11.974
53810W        W26070  13.717  23.213   0.318
53811W        W26071  34.887  11.164   4.199
53812W        W26072  29.471  37.949  14.445
53813W        W26073  34.983  14.339   2.880
53814W        W26074  16.769  43.904  12.974
53815W        W26075  13.765  17.304   3.326
53816W        W26076  17.771  22.556   1.373
53817W        W26077  38.001  20.752  12.897
53818W        W26078  11.746  35.522  14.493
53819W        W26079  19.669  32.610   1.242
53820W        W26080  44.309  35.104  11.411
53821W        W26081   5.334  29.442   2.805
53822W        W26082  29.998  14.746   3.822
53823W        W26083  33.464  17.705   2.886
53824W        W26084  36.053   0.836  12.067
53825W        W26085  39.369   2.449   2.772
53826W        W26086  26.172   1.412   1.866
53827W        W26087  10.257  13.745  13.938
53828W        W26088  19.742   4.751   0.879
53829W        W26089   4.703   8.783  11.434
53830W        W26090   1.341  29.529  11.576
53831W        W26091  33.390   1.965  12.362
53832W        W26092  12.199  20.183   4.160
53833W        W26093  12.133  23.216  12.493
53834W        W26094  16.615   9.352  10.957
53835W        W26095   6.884   5.795  14.944
53836W        W26096  39.844  19.188  10.587
53837W        W26097   7.836  25.217  14.467
53838W        W26098  25.570  30.146   2.759
53839W        W26099  23.571   2.731   3.719
53840W        W26100  22.629  10.828  11.023
53841W        W26101  30.068   3.956  14.776
53842W        W26102   6.385  12.842   4.125
53843W        W26103  16.154  38.387   0.946
53844W        W26104  33.613   9.738   2.216
53845W        W26105  19.115  39.051   0.383
53846W        W26106  19.107  39.014   3.290
53847W        W26107   8.699  36.040   1.733
53848W        W26108  15.621  15.232  14.813
53849W        W26109   2.941   7.727  10.474
53850W        W26110   8.163  26.145   4.688
53851W        W26111  12.757  28.464  10.132
53852W        W26112  13.724  41.787   1.357
53853W        W26113   4.805  16.737  11.532
53854W        W26114  42.406  41.329  14.994
53855W        W26115  33.893  32.060  10.972
53856W        W26116  32.079  35.862   2.234
53857W        W26117  26.066  27.601   2.864
53858W        W26118  14.150  33.513  14.847
53859W        W26119  24.531   5.259   4.611
53860W        W26120  35.572  25.074  14.765
53861W        W26121   9.232  35.372  11.475
53862W        W26122  23.548  13.110   1.331
53863W        W26123  24.516  44.348   3.799
53864W        W26124  26.052  18.282   0.274
53865W        W26125  39.940   7.881   4.784
53866W        W26126   0.815  36.537   0.835
53867W        W26127  12.722  23.523   1.266
53868W        W26128  25.962   3.348  11.489
53869W        W26129  38.962   1.352  11.481
53870W        W26130  18.179  38.547  14.902
53871W        W26131  30.478  39.866   1.356
53872W        W26132  29.451  41.041   2.242
53873W        W26133  44.961  28.999   1.743
53874W        W26134  30.152  18.670  14.003
53875W        W26135  36.505  35.896  12.365
53876W        W26136   3.282  39.973  11.039
53877W        W26137  32.003  27.076   0.961
53878W        W26138  17.189   4.876   2.681
53879W        W26139  14.638  32.927   0.944
53880W        W26140  37.027  14.793  13.983
53881W        W26141  12.641  41.936  13.351
53882W        W26142  26.545  36.559  11.028
53883W        W26143  38.416  15.644   2.303
53884W        W26144  14.108   9.279  12.094
53885W        W26145   3.408  19.060   0.448
53886W        W26146  25.970  12.850   2.772
53887W        W26147   0.764  28.950   1.345
53888W        W26148   4.892  13.146   3.334
53889W        W26149  31.021  44.855   0.902
53890W        W26150  42.933  42.994  11.531
53891W        W26151  31.431   7.898   3.244
53892W        W26152  15.730  13.268  12.440
53893W        W26153  36.938  14.136   3.155
53894W        W26154  38.025  43.924   1.394
53895W        W26155  43.775  36.348  10.455
53896W        W26156  11.745  24.634  13.506
53897W        W26157  27.960  24.977   5.296
53898W        W26158  37.373  25.048   1.801
53899W        W26159  12.349  21.703   4.694
53900W        W26160  36.405  14.099   0.929
53901W        W26161  24.640  36.997   1.296
53902W        W26162  26.032  44.492  13.547
53903W        W26163   3.230  29.077  12.075
53904W        W26164  16.668   5.322  11.415
53905W        W26165  41.805  16.281  12.479
53906W        W26166  34.556  22.628  14.835
53907W        W26167  31.991   5.932   2.706
53908W        W26168  22.691  28.448   5.181
53909W        W26169  18.191  39.473  14.309
53910W        W26170  37.972  30.604   1.212
53911W        W26171   0.359  12.774   4.627
53912W        W26172  10.256  37.841  12.887
53913W        W26173   5.800  44.466  11.105
53914W        W26174   2.930  30.653  10.582
53915W        W26175  40.922   4.263  13.497
53916W        W26176  18.221  41.299   0.469
53917W        W26177  26.513  12.122  11.439
53918W        W26178  16.590  16.184   2.749
53919W        W26179  22.731   8.316   0.391
53920W        W26180   3.773  27.962   1.825
53921W        W26181  37.497  30.024  12.445
53922W        W26182  35.409  35.041  13.970
53923W        W26183   7.843  42.370   0.870
53924W        W26184  20.749  12.172   4.294
53925W        W26185  15.703   1.886  10.423
53926W        W26186  31.607  14.715  11.007
53927W        W26187  14.609   3.284  12.378
53928W        W26188  28.111  34.926   4.352
53929W        W26189  34.411   4.721   5.234
53930W        W26190  27.064  30.595  13.477
53931W        W26191  38.499  10.737   2.826
53932W        W26192  30.444   9.275   4.778
53933W        W26193  14.827  20.688  12.563
53934W        W26194  24.637  14.277   2.311
53935W        W26195  40.859  22.727   2.818
53936W        W26196  44.836  38.509  14.505
53937W        W26197  11.206  13.276   3.651
53938W        W26198  40.476  26.520  10.932
53939W        W26199  32.044  36.945  10.618
53940W        W26200  43.820  35.933   4.257
53941W        W26201  17.572   3.422  14.840
53942W        W26202  41.348  35.426  14.775
53943W        W26203  43.958  18.156  10.449
53944W        W26204  40.353  31.634   2.381
53945W        W26205  26.463  42.780   3.823
53946W        W26206   4.898  14.268  10.418
53947W        W26207  28.138  28.007   9.982
53948W        W26208  10.232  44.850   0.427
53949W        W26209  39.953  34.408  13.472
53950W        W26210  18.619   0.879  10.934
53951W        W26211  21.676  30.058  14.979
53952W        W26212  16.607  26.481   2.252
53953W        W26213  23.986  31.496  14.347
53954W        W26214   4.853  17.223  10.586
53955W        W26215   8.702   4.331  13.945
53956W        W26216  16.307  23.236  14.311
53957W        W26217  18.289  34.863   2.307
53958W        W26218  30.479  27.494  12.067
53959W        W26219   5.861  22.590  11.585
53960W        W26220  11.211  35.903  14.954
53961W        W26221  35.891  44.770  10.502
53962W        W26222  24.575  25.185   3.255
53963W        W26223  19.544  16.713  12.512
53964W        W26224  41.446   5.696  11.879
53965W        W26225  29.158  34.381   4.607
53966W        W26226   7.359  30.561   0.466
53967W        W26227  19.568  12.702   1.751
53968W        W26228  16.200   3.409  12.919
53969W        W26229  35.430   9.170   2.406
53970W        W26230  24.973  43.430   4.307
53971W        W26231  41.527  31.113   3.731
53972W        W26232  41.006  25.193  10.605
53973W        W26233  10.672  26.461   1.730
53974W        W26234  39.431  16.194   4.328
53975W        W26235  14.100  16.589   4.757
53976W        W26236  44.876   1.391  10.599
53977W        W26237  44.417  25.058  12.057
53978W        W26238  39.021  25.013   4.736
53979W        W26239  35.543  17.647  10.605
53980W        W26240  20.120  15.147  13.045
53981W        W26241  34.908  42.409  12.502
53982W        W26242  35.050  14.669   2.771
53983W        W26243  38.941  14.825   2.342
53984W        W26244  37.346   8.708   5.163
53985W        W26245  44.440  25.000   3.369
53986W        W26246  40.998  33.935  12.986
53987W        W26247   2.942  20.546  14.019
53988W        W26248  40.000  15.252  10.609
53989W        W26249  19.092  15.167  13.831
53990W        W26250  20.577   1.346   4.296
53991W        W26251  24.091   4.284  10.929
53992W        W26252  44.346   5.346   4.285
53993W        W26253  12.652  33.564  12.476
53994W        W26254  40.502   2.437   2.813
53995W        W26255  41.805  34.426  10.946
53996W        W26256   4.733   5.207   9.987
53997W        W26257  37.833  34.608   3.239
53998W        W26258   7.797   8.815   5.136
53999W        W26259  17.252  18.050   2.398
54000W        W26260  21.570  30.471   3.296
54001W        W26261  13.287  31.588   4.137
54002W        W26262  33.963  29.506   2.377
54003W        W26263   5.265   5.857  13.416
54004W        W26264  42.006  11.235   1.369
54005W        W26265  33.988   7.766   1.331
54006W        W26266  36.413  18.167   3.666
54007W        W26267  19.215  15.152   2.338
54008W        W26268   5.353  42.330  11.372
54009W        W26269  34.897  37.020   1.255
54010W        W26270  44.952  31.498   0.478
54011W        W26271  37.436   8.268  14.284
54012W        W26272   8.862  44.394   1.762
54013W        W26273  25.612  16.204  14.440
54014W        W26274   7.319  14.710   0.924
54015W        W26275  37.877  43.504  10.429
54016W        W26276   3.457   1.917  13.840
54017W        W26277   9.232   1.482  11.563
54018W        W26278   9.706  34.558   2.803
54019W        W26279  22.623  44.396  12.841
54020W        W26280  34.008  17.100   3.648
54021W        W26281  40.895  22.713   3.738
54022W        W26282  33.480  28.587  13.417
54023W        W26283   6.261   8.237   4.796
54024W        W26284  26.985  35.554   2.291
54025W        W26285  42.377  33.586   3.735
54026W        W26286  31.449  28.104   0.443
54027W        W26287  14.700  33.518   2.696
54028W        W26288  38.889  27.139  14.439
54029W        W26289  17.718  43.494  12.367
54030W        W26290  17.679  19.544  13.399
54031W        W26291  16.599  38.017   4.139
54032W        W26292  13.665  26.196  11.060
54033W        W26293  37.028  14.597   4.325
54034W        W26294  22.739  36.858  11.506
54035W        W26295   1.477   9.248   1.779
54036W        W26296  25.168   1.887   1.727
54037W        W26297  29.493   4.297  14.877
54038W        W26298  14.722  18.185  14.275
54039W        W26299  39.491   3.863  14.467
54040W        W26300  33.129  20.743  11.007
54041W        W26301   0.906   5.308   2.894
54042W        W26302  28.611   6.767  11.449
54043W        W26303   8.238  41.935  12.018
54044W        W26304   2.860  18.259  11.027
54045W        W26305  13.659  36.509   3.720
54046W        W26306  44.867  40.883   2.179
54047W        W26307   3.320  24.167   2.674
54048W        W26308  10.283   4.381  10.548
54049W        W26309  15.268  41.424   4.809
54050W        W26310  38.523   3.884   2.752
54051W        W26311  37.016  10.833  11.101
54052W        W26312  23.056  29.121  12.850
54053W        W26313   5.837  31.424   2.214
54054W        W26314  23.122  40.355  10.463
54055W        W26315  36.057  41.532  11.416
54056W        W26316  37.912   0.871   1.295
54057W        W26317   4.378  29.604   0.850
54058W        W26318  19.539  23.158   0.264
54059W        W26319  25.577  34.507  14.328
54060W        W26320  13.754  35.463   1.868
54061W        W26321  23.238  20.223  13.870
54062W        W26322  30.475   2.879   3.813
54063W        W26323  19.068  22.169   3.195
54064W        W26324  20.128  37.542   1.434
54065W        W26325  34.381  26.601   3.367
54066W        W26326   1.361   1.871  11.049
54067W        W26327   6.695  15.293  12.558
54068W        W26328  44.370  30.122   0.861
54069W        W26329  41.334  41.448   0.765
54070W        W26330  38.964  38.493  11.104
54071W        W26331   7.905  38.010   2.402
54072W        W26332  12.328  37.964  11.861
54073W        W26333  42.855  18.670  13.853
54074W        W26334  13.162   1.930  13.856
54075W        W26335  17.750  21.610   3.769
54076W        W26336  17.648  24.201  10.447
54077W        W26337  25.992   2.425  12.918
54078W        W26338   0.298  44.425  14.831
54079W        W26339  34.412  17.758   2.287
54080W        W26340  10.162  23.498   2.667
54081W        W26341  20.729  18.077  13.992
54082W        W26342  39.816  13.126   0.435
54083W        W26343  34.414   5.410   1.427
54084W        W26344  17.686   0.427   4.736
54085W        W26345   8.285  38.885   1.881
54086W        W26346  11.284  27.179  14.018
54087W        W26347   7.265  43.482  11.896
54088W        W26348  41.435   7.840  14.965
54089W        W26349  32.513  11.194   0.384
54090W        W26350  15.753  18.290  10.480
54091W        W26351   6.840   1.319   0.831
54092W        W26352  11.622  44.899  14.759
54093W        W26353  36.442  38.853  12.455
54094W        W26354  24.997  13.650   0.768
54095W        W26355  41.370   7.342  12.389
54096W        W26356  13.110  32.100   0.424
54097W        W26357   1.306  42.944   4.834
54098W        W26358  26.039  32.576   0.728
54099W        W26359  28.436  20.676   2.901
54100W        W26360   8.168   2.907   4.168
54101W        W26361  30.965  38.456   0.840
54102W        W26362   7.675   3.436   0.938
54103W        W26363  12.132   5.384   1.355
54104W        W26364  14.713  44.275   3.732
54105W        W26365  18.239   9.811  11.505
54106W        W26366  30.479  26.071   0.437
54107W        W26367  19.136   1.450  10.943
54108W        W26368  18.228  23.039  12.455
54109W        W26369  28.125   8.688   3.371
54110W        W26370  13.327   8.834  11.081
54111W        W26371  30.454  26.669   3.707
54112W        W26372  12.768  39.465   1.322
54113W        W26373  39.466   1.472  10.424
54114W        W26374   1.835  11.686   2.195
54115W        W26375  18.181  12.623   2.212
54116W        W26376  41.456  37.014   1.249
54117W        W26377  35.515  38.950   0.452
54118W        W26378  12.783  12.196  14.782
54119W        W26379  15.214  21.694   4.786
54120W        W26380  25.517   5.688  14.982
54121W        W26381  22.145  29.648   0.316
54122W        W26382   7.825  44.850   1.700
54123W        W26383  31.528  15.108  13.939
54124W        W26384  17.788  38.005   0.469
54125W        W26385  39.402  15.197  12.368
54126W        W26386   6.352  15.302  14.829
54127W        W26387  22.148  40.995  14.375
54128W        W26388   2.924  26.480  14.980
54129W        W26389  11.306  32.435  11.012
54130W        W26390   4.892  33.952  12.036
54131W        W26391   0.252  22.665  14.845
54132W        W26392  12.667   9.328   1.907
54133W        W26393  27.017  35.509   0.931
54134W        W26394  42.462  32.570   0.871
54135W        W26395  42.285  35.897   4.604
54136W        W26396  39.457  21.722   1.371
54137W        W26397   5.268  28.011   9.537
54138W        W26398  34.478  13.688   1.450
54139W        W26399   9.880   5.340   4.633
54140W        W26400  35.941   7.221  12.579
54141W        W26401  39.499  19.214  12.432
54142W        W26402   7.307   3.378  14.446
54143W        W26403   3.710  44.460  13.447
54144W        W26404  32.487  21.208   1.848
54145W        W26405  22.201  38.452   3.205
54146W        W26406   4.450  15.824  11.870
54147W        W26407   8.837  34.104   1.809
54148W        W26408  35.996  35.528   3.819
54149W        W26409  29.095  22.159   1.440
54150W        W26410   6.215  38.514  12.067
54151W        W26411  10.143   2.958  10.437
54152W        W26412  15.730  38.006   3.265
54153W        W26413   0.797  44.296   4.723
54154W        W26414  36.841  33.536  11.891
54155W        W26415  11.708  34.061   2.184
54156W        W26416  43.472  32.613  11.947
54157W        W26417  40.988  13.816   1.707
54158W        W26418   7.803  15.725   4.759
54159W        W26419   4.727  13.155   1.787
54160W        W26420  11.302  38.011   4.734
54161W        W26421  23.604   0.765   4.168
54162W        W26422  27.025  35.563  12.473
54163W        W26423   4.851  18.770  14.823
54164W        W26424  39.360  20.641  12.378
54165W        W26425   4.450  40.335   1.290
54166W        W26426  35.436  23.685   4.170
54167W        W26427  18.160  11.281   4.685
54168W        W26428  20.708  16.761  11.079
54169W        W26429  38.384   2.421  11.553
54170W        W26430  25.003  20.030  14.933
54171W        W26431  44.274  30.458  12.835
54172W        W26432   1.248   5.755   0.938
54173W        W26433  24.178  20.196   3.650
54174W        W26434  41.914   5.323  10.505
54175W        W26435  36.064  19.770  11.905
54176W        W26436  28.965  26.659  10.987
54177W        W26437  40.834  29.466   0.318
54178W        W26438  21.697  38.914  10.491
54179W        W26439  41.828   6.229   2.742
54180W        W26440   1.244   8.288   4.603
54181W        W26441   3.291   6.871   1.336
54182W        W26442  24.631   8.897   3.868
54183W        W26443  21.115  23.991   1.701
54184W        W26444   7.258  28.511   2.318
54185W        W26445  20.641  20.575  13.492
54186W        W26446   2.875  19.644   2.892
54187W        W26447  42.457  18.729  11.921
54188W        W26448  29.453   0.411  14.001
54189W        W26449  42.511  13.810   3.321
54190W        W26450  44.836   8.858   1.794
54191W        W26451   7.198   3.373  12.497
54192W        W26452  36.462  33.077   4.205
54193W        W26453   9.733   6.387   2.710
54194W        W26454  18.622  28.995  14.822
54195W        W26455  28.540  32.938   4.227
54196W        W26456   1.867  30.642  12.998
54197W        W26457  28.062  41.476   3.238
54198W        W26458  30.551  33.029  14.424
54199W        W26459  33.624  28.941   4.258
54200W        W26460  25.175  20.088  12.556
54201W        W26461   2.902  13.166  10.480
54202W        W26462  20.052   1.262   3.365
54203W        W26463  17.562  12.220   2.259
54204W        W26464  36.426  17.300   0.861
54205W        W26465  24.621  40.899   2.371
54206W        W26466  43.807  20.755   0.360
54207W        W26467  34.465  10.296  11.556
54208W        W26468  27.661  14.307  12.950
54209W        W26469  37.518   7.175  12.960
54210W        W26470  44.455  43.866   1.744
54211W        W26471  22.585   5.723  10.540
54212W        W26472  25.155  15.800   0.957
54213W        W26473  34.087  32.987   0.246
54214W        W26474  10.715  29.624   4.167
54215W        W26475   4.306  21.182   3.831
54216W        W26476  33.464  14.141   4.828
54217W        W26477  37.346  39.849   1.787
54218W        W26478  10.373   3.400  10.624
54219W        W26479  35.399  16.588  10.936
54220W        W26480  38.840  42.404   4.766
54221W        W26481  17.179  24.700   3.175
54222W        W26482   3.911  29.475   2.679
54223W        W26483  29.650  44.857   3.798
54224W        W26484  42.021   8.837  14.947
54225W        W26485  25.480  12.189  14.476
54226W        W26486  25.014  43.882   0.844
54227W        W26487  28.114  29.130   2.242
54228W        W26488  10.815  23.078  10.916
54229W        W26489  10.339  30.502   1.904
54230W        W26490  37.576  22.570  10.936
54231W        W26491  17.256  41.315   3.227
54232W        W26492  12.741  31.419  13.385
54233W        W26493  16.283  28.477  10.468
54234W        W26494  21.019  29.579   3.793
54235W        W26495  43.994  26.038   0.368
54236W        W26496  24.974   7.881   3.792
54237W        W26497  10.309   8.806   0.351
54238W        W26498  29.139   7.299   4.775
54239W        W26499  13.344  25.697   2.227
54240W        W26500  23.692  24.202   2.347
54241W        W26501  34.614  38.332  12.989
54242W        W26502  25.667  12.664  11.908
54243W        W26503  26.583  31.032  14.970
54244W        W26504  39.847  40.934   4.347
54245W        W26505  44.876   4.399   3.281
54246W        W26506  32.116   5.241  11.128
54247W        W26507   9.796  31.622   3.155
54248W        W26508  38.545  41.522   4.250
54249W        W26509  37.401  44.983  14.770
54250W        W26510  10.355   7.850  10.981
54251W        W26511   8.867  34.535   4.697
54252W        W26512  43.947  30.472  13.411
54253W        W26513  44.897  35.893  13.418
54254W        W26514  19.725   5.779  11.951
54255W        W26515  35.960  35.895  10.988
54256W        W26516  40.433   4.291  13.917
54257W        W26517  44.780   5.822   0.254
54258W        W26518  11.795  18.730  12.071
54259W        W26519  13.212  38.439  12.959
54260W        W26520  12.849   7.384  11.870
54261W        W26521  41.931   9.352   4.755
54262W        W26522  32.093  36.857   4.346
54263W        W26523  35.897  25.648  13.365
54264W        W26524  32.476  13.139  10.560
54265W        W26525  38.051  42.499   3.201
54266W        W26526  20.699  15.697   3.859
54267W        W26527   3.796  11.317   0.273
54268W        W26528  36.460  29.608  14.998
54269W        W26529  28.061  18.728  12.437
54270W        W26530  30.616   1.458   2.863
54271W        W26531   4.404  20.170  10.984
54272W        W26532   0.437  37.507  12.873
54273W        W26533   7.296  23.992  14.433
54274W        W26534  24.519   4.287   4.120
54275W        W26535  35.897  42.510  12.046
54276W        W26536  15.273   6.272  11.453
54277W        W26537  11.210  37.484  13.881
54278W        W26538  14.237  21.593  11.099
54279W        W26539   9.837  10.664   3.209
54280W        W26540  32.937  22.021  10.910
54281W        W26541  31.426  33.895  11.077
54282W        W26542  37.406   6.841  14.958
54283W        W26543  37.450  11.373   2.740
54284W        W26544   2.886  12.134   0.940
54285W        W26545   5.323   3.455   3.270
54286W        W26546  41.291  40.503   1.722
54287W        W26547  11.848  29.153  12.899
54288W        W26548  35.876  42.953  13.345
54289W        W26549  36.437   5.717  14.811
54290W        W26550  42.517   3.909   0.753
54291W        W26551  21.668   4.875   1.210
54292W        W26552  27.617  29.922  12.385
54293W        W26553  42.519  20.540  10.938
54294W        W26554  36.952   0.320   3.809
54295W        W26555  39.936  39.545   0.904
54296W        W26556   5.230  41.361  12.904
54297W        W26557  24.124  35.392  11.004
54298W        W26558   1.860  41.367  13.929
54299W        W26559  15.175  37.072  13.956
54300W        W26560  36.358  44.859  14.367
54301W        W26561  26.961  28.176   1.873
54302W        W26562  12.637  34.482   2.178
54303W        W26563  11.765   6.345   3.300
54304W        W26564  17.717  35.524  10.551
54305W        W26565  25.614  36.005   1.231
54306W        W26566   8.212  28.133  10.155
54307W        W26567  32.574  21.172   4.194
54308W        W26568  25.984  30.946   2.232
54309W        W26569   4.899  33.941  10.958
54310W        W26570  18.699   2.420  11.423
54311W        W26571  10.758  31.404  13.841
54312W        W26572  14.619  27.508  13.357
54313W        W26573  39.025  42.523   3.686
54314W        W26574   4.752  35.998   1.723
54315W        W26575   4.422  38.926   0.375
54316W        W26576  24.223   1.427   4.636
54317W        W26577  23.132  32.964   2.816
54318W        W26578  34.556  41.411  12.356
54319W        W26579   8.330  40.921  13.455
54320W        W26580  28.023  33.496   4.838
54321W        W26581  38.882  26.078   2.219
54322W        W26582  33.587  17.784  13.504
54323W        W26583   7.878   9.704  11.574
54324W        W26584  39.398  25.021   3.717
54325W        W26585  41.460  30.550   1.848
54326W        W26586  36.461  36.867  12.578
54327W        W26587  17.575   4.914   1.842
54328W        W26588   4.789  39.051  11.110
54329W        W26589  38.353   2.257  13.481
54330W        W26590  21.084  35.934   0.833
54331W        W26591  43.397  34.472  12.002
54332W        W26592  23.685  10.742   0.734
54333W        W26593  34.516  12.842   1.290
54334W        W26594  34.100  23.000  12.997
54335W        W26595  24.673  15.216   1.372
54336W        W26596  22.579   4.739  13.811
54337W        W26597   4.705   0.941   0.409
54338W        W26598  13.706  42.502  10.408
54339W        W26599  42.029  25.007  12.089
54340W        W26600  15.319  23.683   3.337
54341W        W26601  19.285  43.987  14.824
54342W        W26602   2.831   8.301  12.997
54343W        W26603   2.844  37.005  11.395
54344W        W26604  24.552  35.892  11.073
54345W        W26605  28.453  23.170  14.781
54346W        W26606   9.654  43.502   2.723
54347W        W26607   1.877  40.339   4.265
54348W        W26608  40.929  42.498  11.398
54349W        W26609   2.763  36.581   4.146
54350W        W26610  22.619  31.147   4.283
54351W        W26611   1.404  19.666   1.405
54352W        W26612  21.130  25.636  10.921
54353W        W26613  40.479  15.757  12.394
54354W        W26614  33.626   2.742   2.667
54355W        W26615  41.375  29.175  13.026
54356W        W26616  15.661  37.061  11.399
54357W        W26617  20.576  44.502   0.467
54358W        W26618  24.512  17.651   4.226
54359W        W26619  38.375  13.114   2.714
54360W        W26620  23.112  13.723   4.187
54361W        W26621  11.694  36.030   9.969
54362W        W26622  13.207  42.952   0.430
54363W        W26623  29.116  10.682   0.964
54364W        W26624  19.544  25.563   1.419
54365W        W26625  40.982  22.154   0.260
54366W        W26626  22.629   3.265   4.290
54367W        W26627  37.066  27.547   2.213
54368W        W26628   6.351  24.185   2.278
54369W        W26629  12.266  42.934  14.865
54370W        W26630  24.168  31.928   0.483
54371W        W26631  42.480   9.701   0.770
54372W        W26632  18.649  32.039  12.862
54373W        W26633  39.989  37.920   4.787
54374W        W26634  19.651  19.282  10.484
54375W        W26635  35.583   1.299   2.800
54376W        W26636  19.244  26.545  10.033
54377W        W26637  21.208  20.650  12.876
54378W        W26638   4.806  39.514   4.655
54379W        W26639  23.629  32.990  12.501
54380W        W26640  27.605  32.041   9.481
54381W        W26641  37.004  24.552   2.258
54382W        W26642  12.298  25.109   3.370
54383W        W26643  32.609  16.259   1.306
54384W        W26644  15.657  27.176   0.477
54385W        W26645  36.581  15.211  11.089
54386W        W26646   7.297  40.015   3.832
54387W        W26647   2.399  28.667   4.640
54388W        W26648  12.626   6.206   2.737
54389W        W26649  21.514  37.991   3.271
54390W        W26650  23.025  26.054  10.439
54391W        W26651   3.721   7.709   3.183
54392W        W26652  38.420  36.969   4.771
54393W        W26653  33.912  38.837   0.899
54394W        W26654  29.965  29.573  13.444
54395W        W26655  24.002  13.759   0.354
54396W        W26656   7.387  42.413  13.817
54397W        W26657  30.431   2.426  12.493
54398W        W26658  20.063  14.171  13.891
54399W        W26659   1.425  39.531  14.293
54400W        W26660  33.514  20.123   2.301
54401W        W26661  12.664  16.673  14.402
54402W        W26662  32.956  14.602  11.999
54403W        W26663  15.187  41.331   2.815
54404W        W26664  11.243  36.936  10.419
54405W        W26665  37.375  27.573  10.980
54406W        W26666  23.010  13.641  13.512
54407W        W26667  43.423   2.875  14.021
54408W        W26668  43.510   4.873  10.521
54409W        W26669   7.339  32.531  11.471
54410W        W26670  16.096   7.223   4.611
54411W        W26671  44.302  37.426   1.451
54412W        W26672  37.060  30.125   3.639
54413W        W26673  31.402  40.894   0.734
54414W        W26674  42.527  35.396  12.516
54415W        W26675  39.492   4.717   4.663
54416W        W26676  17.154   5.224  14.930
54417W        W26677   2.807  42.796  11.967
54418W        W26678  19.565   1.904  11.948
54419W        W26679  22.165   8.369   3.716
54420W        W26680  22.601  19.779   3.231
54421W        W26681  18.750  27.073  14.820
54422W        W26682  11.826   7.279  12.447
54423W        W26683  36.892  43.812  10.970
54424W        W26684  18.569  38.893  11.921
54425W        W26685  41.437  37.358   1.805
54426W        W26686  28.180  19.727   1.448
54427W        W26687  31.629   0.262   4.118
54428W        W26688  16.183  28.042   1.819
54429W        W26689  11.667  12.770  11.022
54430W        W26690   2.344   9.195   2.887
54431W        W26691  35.985   1.876   4.720
54432W        W26692  36.973  20.554   0.744
54433W        W26693  36.394  36.504   1.933
54434W        W26694   6.729   5.875   4.817
54435W        W26695  29.025  43.502   0.843
54436W        W26696  27.554  37.936  14.432
54437W        W26697  15.305  38.918  11.412
54438W        W26698  13.815  32.609   0.287
54439W        W26699   3.830  27.156   1.389
54440W        W26700   2.423  26.645  13.904
54441W        W26701   3.337  29.926   1.356
54442W        W26702  17.618  42.871  13.401
54443W        W26703  33.560  10.687   0.857
54444W        W26704  15.580   8.373   3.858
54445W        W26705  39.535  38.854   4.759
54446W        W26706  23.491   3.363  12.964
54447W        W26707  41.884   5.773  14.372
54448W        W26708  33.603  23.620  14.917
54449W        W26709  16.303   0.778   2.729
54450W        W26710  17.172   7.278   4.601
54451W        W26711  29.630  15.765  11.405
54452W        W26712  32.521   9.317  13.823
54453W        W26713  43.366  44.848  10.489
54454W        W26714   8.259   1.898   4.670
54455W        W26715   5.866  10.150   4.620
54456W        W26716  17.586  44.466   4.615
54457W        W26717  43.335   8.179   2.828
54458W        W26718  16.163   3.240  11.010
54459W        W26719  35.091   0.840   0.941
54460W        W26720  24.661  21.110  13.313
54461W        W26721  38.958   3.909   1.780
54462W        W26722  34.395  28.140  14.936
54463W        W26723  14.235  27.114   0.897
54464W        W26724  44.452   0.840   2.878
54465W        W26725  26.138  23.180  11.496
54466W        W26726  37.050   8.336  13.485
54467W        W26727  14.719  14.763   0.282
54468W        W26728  37.066  13.751  14.401
54469W        W26729  39.438  37.471   4.790
54470W        W26730  17.602  22.995   2.893
54471W        W26731  14.695  34.868  12.956
54472W        W26732  24.219  22.648  13.334
54473W        W26733  40.869  39.826   0.872
54474W        W26734   7.234  18.193   4.729
54475W        W26735   2.273  42.440   1.789
54476W        W26736   6.329  22.558   1.366
54477W        W26737  22.527   7.244  10.517
54478W        W26738  13.610  21.160  14.790
54479W        W26739  38.333  10.752   5.754
54480W        W26740  17.256   7.667   1.930
54481W        W26741  33.907  11.791  11.922
54482W        W26742  23.000  26.534  14.784
54483W        W26743  27.037  39.902  12.345
54484W        W26744   5.341  35.417   1.401
54485W        W26745  18.289  10.777  13.848
54486W        W26746   6.192  21.711   0.243
54487W        W26747  15.285  15.645  12.910
54488W        W26748  27.114  10.278  13.547
54489W        W26749  41.325  23.494  11.931
54490W        W26750  27.141  14.778   1.733
54491W        W26751  26.097  27.159  14.412
54492W        W26752  27.155  38.856   2.378
54493W        W26753  20.034  40.972  14.411
54494W        W26754  30.470  28.977   4.622
54495W        W26755  17.162  36.874  13.896
54496W        W26756  41.362  38.909  10.139
54497W        W26757  20.209  42.908   2.278
54498W        W26758  26.534   9.826  11.458
54499W        W26759  25.175  30.969   3.764
54500W        W26760   8.383  28.131   0.377
54501W        W26761  23.021  38.009   4.275
54502W        W26762  24.220  33.918   2.751
54503W        W26763  21.158  27.993   4.270
54504W        W26764  27.620  41.899   2.743
54505W        W26765   6.223   4.381  13.852
54506W        W26766   1.377  34.571  10.962
54507W        W26767  26.039  10.266   2.220
54508W        W26768  34.074  25.161   2.280
54509W        W26769  25.683  29.099  10.146
54510W        W26770  19.118  32.471  13.964
54511W        W26771  26.203  15.255  13.053
54512W        W26772  33.503  44.322   3.261
54513W        W26773   8.674  11.633   4.187
54514W        W26774  32.048   8.346  11.526
54515W        W26775  31.627  44.460   2.677
54516W        W26776   6.855  40.418   4.783
54517W        W26777  38.991  30.106  14.882
54518W        W26778  35.510  26.657  12.038
54519W        W26779  26.558  33.876   3.183
54520W        W26780  41.026  32.018   1.809
54521W        W26781  14.099   9.362   3.739
54522W        W26782  16.716   1.266   2.415
54523W        W26783  42.445   3.848   3.387
54524W        W26784   0.400  19.099   0.424
54525W        W26785   7.410  17.135  14.926
54526W        W26786  10.225  42.821   5.250
54527W        W26787   1.962  33.880   2.241
54528W        W26788  17.276  20.569   3.712
54529W        W26789  28.041   9.271  13.931
54530W        W26790  15.158  18.760   0.798
54531W        W26791  37.933   2.288  14.365
54532W        W26792  33.448   4.337   0.372
54533W        W26793  39.365  18.625  13.900
54534W        W26794  28.058  35.521   3.317
54535W        W26795   6.305  28.116   3.640
54536W        W26796   4.345   5.408   1.868
54537W        W26797  21.198  22.548   4.291
54538W        W26798  34.869  30.634   3.847
54539W        W26799   6.196  29.018  10.922
54540W        W26800   4.219  29.143  12.516
54541W        W26801  31.469  21.751   2.311
54542W        W26802   1.294  14.743  12.559
54543W        W26803  35.369  35.407  12.871
54544W        W26804  38.430  18.103  13.064
54545W        W26805   5.818  12.644  14.343
54546W        W26806  31.494  13.681  11.572
54547W        W26807  14.767  41.828  12.345
54548W        W26808  27.503  24.060  14.786
54549W        W26809  13.217  33.429   4.136
54550W        W26810   8.768  25.590  11.906
54551W        W26811  44.849  12.811   0.757
54552W        W26812  43.477  30.519  12.524
54553W        W26813  26.695  36.870   2.863
54554W        W26814  12.733  28.008   2.670
54555W        W26815  34.600  30.980   1.731
54556W        W26816  11.146  36.579  14.348
54557W        W26817  27.629  32.524   1.777
54558W        W26818  38.063  29.426  13.376
54559W        W26819  30.462  12.229   3.178
54560W        W26820  22.741   5.244   2.852
54561W        W26821  19.683   7.784  11.536
54562W        W26822  18.678  21.666  14.487
54563W        W26823  27.192  24.712   2.888
54564W        W26824  18.790  25.046  13.483
54565W        W26825  40.987  31.005  10.940
54566W        W26826  18.095  32.109   0.367
54567W        W26827  21.133   6.293  11.059
54568W        W26828   0.356  25.554   0.804
54569W        W26829  38.017   8.718  11.417
54570W        W26830  25.545  24.159   2.270
54571W        W26831  20.201  23.510   3.716
54572W        W26832  10.803  23.163  13.863
54573W        W26833  39.911  36.061  13.331
54574W        W26834  22.553  34.376   0.263
54575W        W26835   8.226  33.431  12.517
54576W        W26836  30.104   5.712  11.983
54577W        W26837  41.361  40.525  13.922
54578W        W26838  40.501  18.684  13.507
54579W        W26839  15.816  25.613   4.327
54580W        W26840   0.786   6.701   1.730
54581W        W26841  39.843  43.842  11.943
54582W        W26842  42.292  19.541  12.375
54583W        W26843  25.497   2.271  14.015
54584W        W26844  36.898   0.298  14.843
54585W        W26845  31.119  41.880  13.429
54586W        W26846  19.131  22.670  12.515
54587W        W26847  38.011   2.737   0.830
54588W        W26848  38.458  16.641  14.496
54589W        W26849  22.143   7.740  14.361
54590W        W26850  24.070  24.672  12.008
54591W        W26851   0.441  10.302   1.338
54592W        W26852  23.018  31.095  13.899
54593W        W26853  33.483  36.432  11.048
54594W        W26854  26.457  40.902  14.843
54595W        W26855  17.258  23.508  14.461
54596W        W26856  21.521   0.255   3.228
54597W        W26857  16.776   7.302   1.746
54598W        W26858  21.634  25.577   1.828
54599W        W26859  38.997  43.953  11.992
54600W        W26860  37.858  10.809   3.673
54601W        W26861  26.604  35.424   2.765
54602W        W26862  24.136  33.470  10.927
54603W        W26863  25.534   8.279  11.950
54604W        W26864  12.339  24.998   0.273
54605W        W26865  12.682  30.084  11.976
54606W        W26866  38.941  27.104  13.459
54607W        W26867  34.075  30.498   4.227
54608W        W26868  33.520  24.585   2.824
54609W        W26869   9.196  40.893  10.945
54610W        W26870  12.741  41.980   2.843
54611W        W26871   3.389  23.558   2.743
54612W        W26872  43.925  30.621  13.796
54613W        W26873  23.125  30.055  10.608
54614W        W26874  42.404  43.801   2.356
54615W        W26875   6.412  30.452  12.955
54616W        W26876  26.617  33.128  13.861
54617W        W26877  11.636  44.960  12.355
54618W        W26878  15.719  32.959   1.332
54619W        W26879  29.537  36.886   2.203
54620W        W26880  14.148   8.672  12.501
54621W        W26881  27.606  44.501   2.291
54622W        W26882  40.841  20.249   3.797
54623W        W26883  15.226  12.828  13.017
54624W        W26884  32.936   0.952  10.894
54625W        W26885  16.212   9.376  13.061
54626W        W26886   9.724  38.481   1.294
54627W        W26887  40.039  39.054   2.289
54628W        W26888  10.804  32.029   2.771
54629W        W26889  29.502  42.811   0.248
54630W        W26890   0.854  14.107  13.973
54631W        W26891  10.754  17.624   4.671
54632W        W26892  25.680  11.643   0.898
54633W        W26893  14.308  19.062  10.585
54634W        W26894  12.119  31.433  10.976
54635W        W26895  31.496   8.729   4.198
54636W        W26896  32.568  22.053   3.743
54637W        W26897  22.534  17.735  14.777
54638W        W26898   6.886  20.541  12.498
54639W        W26899  39.949  23.578  10.513
54640W        W26900  34.011   9.658   0.819
54641W        W26901   7.877  19.223   2.846
54642W        W26902   9.236  20.527   4.129
54643W        W26903  43.475  13.131  14.388
54644W        W26904  11.726  34.937  13.437
54645W        W26905  14.689  10.728   3.848
54646W        W26906   7.189  16.617  13.944
54647W        W26907   6.395  23.544   3.296
54648W        W26908  32.924   8.838   4.254
54649W        W26909  20.147  22.612  10.156
54650W        W26910   9.776   9.863   0.372
54651W        W26911  20.119  10.148   1.776
54652W        W26912  27.175  11.205  10.509
54653W        W26913  18.757  17.163  12.948
54654W        W26914  29.016   3.343  12.065
54655W        W26915  10.344  27.663   2.792
54656W        W26916  42.319  18.124  13.063
54657W        W26917  40.986  17.164   0.254
54658W        W26918  36.577   6.283   2.393
54659W        W26919  42.427  21.209  14.961
54660W        W26920   1.396   3.917   1.387
54661W        W26921  43.384  43.340   0.394
54662W        W26922  31.055  32.050  13.986
54663W        W26923  15.179  44.857  14.470
54664W        W26924  15.786  29.140   3.707
54665W        W26925  15.152  34.568  14.296
54666W        W26926  30.600  27.519  10.598
54667W        W26927  37.971  37.979   4.798
54668W        W26928   9.392  34.370  10.504
54669W        W26929  19.776  36.848   4.220
54670W        W26930  40.465   2.242  11.575
54671W        W26931  19.550   8.369   5.268
54672W        W26932  34.944  18.197   0.345
54673W        W26933  32.603  10.706   4.321
54674W        W26934  24.115   8.390  14.372
54675W        W26935  25.024  42.031  12.960
54676W        W26936  44.497  15.266  14.341
54677W        W26937  27.549  42.906  11.889
54678W        W26938  31.488  33.100   1.703
54679W        W26939  22.658  19.746  10.515
54680W        W26940  31.541   5.738   1.355
54681W        W26941  22.044  26.618   3.729
54682W        W26942  31.589   9.364  12.966
54683W        W26943   6.257  39.433  11.574
54684W        W26944   6.758  30.553   5.224
54685W        W26945  28.148   8.820  14.408
54686W        W26946  44.494  20.150  12.344
54687W        W26947  40.532   9.835   2.245
54688W        W26948  40.807  15.652   1.223
54689W        W26949  24.479  10.856  11.010
54690W        W26950  22.736  11.374  13.376
54691W        W26951  29.941   9.151  13.040
54692W        W26952  13.645  16.729   2.716
54693W        W26953   9.260  43.004   1.335
54694W        W26954  22.602  33.975  10.458
54695W        W26955  36.859  21.164  13.452
54696W        W26956  18.730  26.017  14.353
54697W        W26957  43.888   0.988   3.691
54698W        W26958  32.040  19.555  13.441
54699W        W26959  17.580   9.300  12.824
54700W        W26960   4.345   8.868   4.180
54701W        W26961  16.247  35.387  14.469
54702W        W26962  30.630  34.013  13.855
54703W        W26963  43.340  44.302   3.781
54704W        W26964  31.606  11.326  14.791
54705W        W26965  18.650   9.219   4.760
54706W        W26966  43.455  44.412  10.549
54707W        W26967  40.364  21.185   4.750
54708W        W26968  42.854  35.956  10.927
54709W        W26969  21.625  40.549   1.412
54710W        W26970   2.843   4.880  12.050
54711W        W26971  28.045  18.558  13.378
54712W        W26972  32.486  39.870   1.816
54713W        W26973  38.917  10.381  11.858
54714W        W26974   5.292  29.127   0.249
54715W        W26975  22.995  37.362  11.463
54716W        W26976   2.435  22.710   4.755
54717W        W26977   2.428  24.683  11.954
54718W        W26978  42.498  41.880  11.596
54719W        W26979  12.219   9.149   3.198
54720W        W26980  35.490  34.118   1.375
54721W        W26981  42.979  29.476   2.796
54722W        W26982   5.706  21.517  13.416
54723W        W26983  26.653  26.058  12.834
54724W        W26984  28.500  14.210   3.635
54725W        W26985  39.881  29.660   2.772
54726W        W26986  21.207   8.747  10.891
54727W        W26987  31.095  44.261   1.326
54728W        W26988  20.682  39.329  12.000
54729W        W26989  19.707  39.821  14.881
54730W        W26990  28.090  19.258   1.867
54731W        W26991  29.149   3.722   2.787
54732W        W26992  44.766  29.655  10.411
54733W        W26993  28.589  24.105   1.265
54734W        W26994   0.768   6.783   2.705
54735W        W26995  19.730  12.712   2.902
54736W        W26996  25.597   1.447  11.929
54737W        W26997  12.621   1.332  13.365
54738W        W26998  28.994   5.286   3.302
54739W        W26999  29.582  24.127   4.606
54740W        W27000  16.222  20.054   2.795
54741W        W27001  44.898  23.128  13.412
54742W        W27002  26.005  10.787   1.708
54743W        W27003  11.755  35.373   3.165
54744W        W27004  44.944  38.864   1.919
54745W        W27005  25.086   1.309  12.974
54746W        W27006   5.203   8.713  12.529
54747W        W27007  23.682  16.695  14.284
54748W        W27008  12.817  28.138  13.482
54749W        W27009   6.742  24.150   3.856
54750W        W27010  44.841   6.331  14.417
54751W        W27011  13.826  33.921   2.832
54752W        W27012  20.179   3.820  14.888
54753W        W27013   6.282   5.693   4.260
54754W        W27014  23.234  36.535   0.886
54755W        W27015  38.833  43.018  12.842
54756W        W27016  32.989  28.937  12.578
54757W        W27017  10.697  40.828   2.310
54758W        W27018  42.957  12.130   1.257
54759W        W27019   3.739   9.360   4.611
54760W        W27020   2.777   8.718   1.295
54761W        W27021  25.512  22.647   0.739
54762W        W27022  41.920  36.482   3.266
54763W        W27023  14.828   5.855  13.311
54764W        W27024  17.634  29.026   3.348
54765W        W27025  17.630  14.802  12.377
54766W        W27026   8.746  39.964   4.690
54767W        W27027  22.723  19.563  13.464
54768W        W27028  13.186  15.322  13.415
54769W        W27029  25.504   4.408   0.426
54770W        W27030   3.929  35.914   0.846
54771W        W27031  16.247  38.471  10.887
54772W        W27032  27.520  25.012   3.769
54773W        W27033   0.756  33.610  11.458
54774W        W27034  15.765  28.657  11.053
54775W        W27035  35.360  44.258   4.219
54776W        W27036  37.411   6.189  13.819
54777W        W27037  13.838  41.959  12.074
54778W        W27038  33.398   0.278   2.371
54779W        W27039  31.439  24.604  12.847
54780W        W27040  16.264   6.342   2.754
54781W        W27041  13.823  27.194  14.952
54782W        W27042  13.616  13.131   2.695
54783W        W27043  10.845  34.610  11.937
54784W        W27044  18.734  18.146  14.366
54785W        W27045   0.395   3.869   3.652
54786W        W27046  28.044  11.322  10.514
54787W        W27047  37.409  44.899  11.992
54788W        W27048   1.260  25.526  12.903
54789W        W27049   6.302  23.543  10.583
54790W        W27050  38.352  36.907   2.354
54791W        W27051  40.393   8.746   0.734
54792W        W27052  19.141  19.119   3.310
54793W        W27053  27.675  20.574  13.892
54794W        W27054  19.643   9.643  13.836
54795W        W27055   9.230  38.459  14.833
54796W        W27056  39.041  24.659   3.852
54797W        W27057  16.706  19.133   4.318
54798W        W27058   8.395  25.040   0.960
54799W        W27059  22.233  36.889  12.897
54800W        W27060  18.090  39.413   0.249
54801W        W27061  28.568  13.263   0.265
54802W        W27062  36.470  42.990   2.281
54803W        W27063  15.670  12.177   4.838
54804W        W27064  15.693  17.261  10.631
54805W        W27065  29.512   9.227  11.879
54806W        W27066  34.376  30.555   2.203
54807W        W27067   5.227  41.379   0.758
54808W        W27068   6.695  22.082   4.740
54809W        W27069  16.223  10.212   1.764
54810W        W27070  36.516  41.925  14.778
54811W        W27071  19.618  21.126  14.825
54812W        W27072  11.819   2.828  14.315
54813W        W27073  31.422  26.157  11.915
54814W        W27074  33.076  44.879  12.061
54815W        W27075  29.156  40.817  10.533
54816W        W27076  26.161  19.116   2.712
54817W        W27077  44.899   2.906   1.353
54818W        W27078   5.890   9.169  11.026
54819W        W27079   4.211  29.651  13.507
54820W        W27080   4.901   4.351  14.848
54821W        W27081  19.607  19.763  14.500
54822W        W27082  34.613  44.388  10.087
54823W        W27083   0.300   9.358   1.402
54824W        W27084  27.476  10.838   3.318
54825W        W27085  17.764  44.907  11.527
54826W        W27086  43.854  44.803  12.926
54827W        W27087  12.824  24.174  14.805
54828W        W27088  36.897  18.770   2.756
54829W        W27089   8.245   7.673  10.942
54830W        W27090  43.464  39.995   3.216
54831W        W27091  29.530   5.836   1.882
54832W        W27092  36.985  42.330   1.786
54833W        W27093   5.221  37.039  12.080
54834W        W27094  14.720  14.296  11.933
54835W        W27095  36.401  20.537   3.234
54836W        W27096  44.772   7.857   2.720
54837W        W27097  34.497  29.553  14.387
54838W        W27098   4.739  43.416  10.504
54839W        W27099  44.306   4.895  13.029
54840W        W27100  16.699   4.937  12.973
54841W        W27101  41.387  40.905  14.319
54842W        W27102   2.246   3.328   2.698
54843W        W27103   4.756  40.958  14.864
54844W        W27104   4.757  16.319  13.999
54845W        W27105  32.403  40.464   1.831
54846W        W27106  13.666  29.006   3.818
54847W        W27107  35.370   2.390  13.384
54848W        W27108  10.852  35.572  14.961
54849W        W27109  42.907  26.016  12.905
54850W        W27110   1.799   5.819   1.784
54851W        W27111  23.204  41.356  11.969
54852W        W27112  14.122  44.993   4.726
54853W        W27113  44.319  30.924  12.387
54854W        W27114  13.161  35.944   2.306
54855W        W27115  28.005  33.995   1.879
54856W        W27116  30.949  10.777  11.909
54857W        W27117   8.362  41.936   2.698
54858W        W27118  35.395  31.469   2.715
54859W        W27119  12.229  29.440   1.350
54860W        W27120  43.279  20.599   1.779
54861W        W27121   1.462   4.934  14.868
54862W        W27122  38.497  26.128   2.373
54863W        W27123  24.660  22.175   4.744
54864W        W27124   5.715   1.785  13.532
54865W        W27125  15.758   6.378   2.372
54866W        W27126   3.321  10.144   2.385
54867W        W27127  13.134  26.200  13.863
54868W        W27128  32.933  11.625  13.007
54869W        W27129   9.219  35.034  14.430
54870W        W27130  42.392  18.600   4.677
54871W        W27131  36.977  32.130  11.009
54872W        W27132   7.269  31.461   2.738
54873W        W27133  23.624  19.627   3.176
54874W        W27134  33.934  32.995   4.240
54875W        W27135  26.700  29.129   3.870
54876W        W27136  30.450   3.753   1.256
54877W        W27137  13.140  42.394  13.968
54878W        W27138  19.687  30.092  13.406
54879W        W27139   0.840  33.431   2.318
54880W        W27140  40.501  16.137   2.868
54881W        W27141   0.468  39.038   9.979
54882W        W27142  27.064  44.858   0.284
54883W        W27143  42.524  26.633   4.211
54884W        W27144  12.693  17.102  13.466
54885W        W27145  42.400  33.953  12.060
54886W        W27146  39.463  15.262   2.273
54887W        W27147   0.757  24.127  11.563
54888W        W27148   1.478  44.364   4.151
54889W        W27149  25.155  20.672   3.656
54890W        W27150  32.425  22.077  10.923
54891W        W27151  23.596  28.176   3.368
54892W        W27152  41.368   5.701   1.214
54893W        W27153  29.469  23.607  11.078
54894W        W27154  13.671  19.240   0.459
54895W        W27155  16.636  42.847   1.278
54896W        W27156  24.724  36.042   4.735
54897W        W27157  15.717  30.450  14.912
54898W        W27158  29.998  19.056   1.818
54899W        W27159  10.711  24.510   2.856
54900W        W27160  40.465  32.488  12.020
54901W        W27161   6.412  20.645  14.313
54902W        W27162  10.219  38.844   4.690
54903W        W27163  27.051  24.172  14.790
54904W        W27164   4.426   8.338   3.355
54905W        W27165  23.570  33.108  14.915
54906W        W27166   9.775  12.179   4.659
54907W        W27167  37.932   5.810   3.249
54908W        W27168   1.969   6.702  11.954
54909W        W27169  21.634  23.146  14.362
54910W        W27170   8.363  13.165   1.277
54911W        W27171  40.324  27.692   4.613
54912W        W27172   6.702  13.603  13.942
54913W        W27173  26.075  25.670  13.478
54914W        W27174  27.951  34.526  12.870
54915W        W27175  37.999  43.020   0.820
54916W        W27176   9.335  25.648   4.651
54917W        W27177  24.524   9.789  12.459
54918W        W27178   8.814  31.094   2.296
54919W        W27179  28.025  44.774   1.848
54920W        W27180  43.343   1.857  12.364
54921W        W27181  33.879  37.413  10.596
54922W        W27182  42.841  22.702  11.068
54923W        W27183  39.325  12.849   2.247
54924W        W27184  17.259  21.694   4.272
54925W        W27185  18.271  26.580   3.658
54926W        W27186  42.781  42.366   4.338
54927W        W27187  35.029   2.822   4.205
54928W        W27188  17.079   0.986   3.221
54929W        W27189   5.809  10.152  11.978
54930W        W27190   8.846  21.122  10.100
54931W        W27191   2.933  26.618   3.276
54932W        W27192  11.150  31.636   2.345
54933W        W27193  20.027  20.715  12.902
54934W        W27194  41.016  28.634   3.838
54935W        W27195  16.109  17.300   4.331
54936W        W27196  24.496  20.763   4.144
54937W        W27197  39.005  19.170   1.430
54938W        W27198  44.882  33.880  14.480
54939W        W27199  20.162  27.659   2.391
54940W        W27200   2.351  42.838   0.885
54941W        W27201  15.122  16.698   2.687
54942W        W27202  24.552  10.275   0.402
54943W        W27203   5.283  44.857  11.972
54944W        W27204  12.854   4.749   0.327
54945W        W27205  44.313  37.351  12.947
54946W        W27206  21.161  21.138  13.856
54947W        W27207  26.522  13.743   2.181
54948W        W27208  16.306  36.880  12.023
54949W        W27209   4.378  44.467   2.745
54950W        W27210  32.510  40.985  14.493
54951W        W27211  11.831  12.776  11.924
54952W        W27212   8.665  44.816   1.407
54953W        W27213  22.223  21.156  11.906
54954W        W27214  33.925  35.893  13.415
54955W        W27215  43.911  12.295  14.788
54956W        W27216  33.576  21.106   2.384
54957W        W27217  37.522  28.114   1.311
54958W        W27218  11.361   0.829   0.941
54959W        W27219  26.024   7.823  12.874
54960W        W27220   4.425  37.463  14.400
54961W        W27221   3.338   7.696   4.618
54962W        W27222   9.379  42.846   3.659
54963W        W27223  11.344  28.515   0.799
54964W        W27224  40.826   9.801   2.777
54965W        W27225   2.895  26.996   0.397
54966W        W27226   3.795  37.532   1.367
54967W        W27227  13.629  23.721  11.560
54968W        W27228  24.065  30.540   3.770
54969W        W27229  24.131  21.183  11.406
54970W        W27230  15.286   5.310  10.494
54971W        W27231  24.151  38.377  14.300
54972W        W27232  36.035  25.486   3.235
54973W        W27233   8.852  29.952   1.831
54974W        W27234  43.789  23.700   3.745
54975W        W27235  20.119  15.294  11.897
54976W        W27236  40.827  11.765   0.385
54977W        W27237   7.396  31.070   4.122
54978W        W27238  30.115  16.775  12.424
54979W        W27239  20.248  38.013   0.908
54980W        W27240  35.090   3.814  12.367
54981W        W27241  11.730   7.307  10.940
54982W        W27242   4.782  11.732  14.847
54983W        W27243  30.164  36.900  14.784
54984W        W27244  19.238  20.764  12.021
54985W        W27245  41.832  37.028   1.787
54986W        W27246  21.212   4.917  11.113
54987W        W27247   7.696  27.951  13.483
54988W        W27248   6.194  34.590  11.604
54989W        W27249  16.634  40.911   3.829
54990W        W27250   1.483  20.568  14.825
54991W        W27251  37.543   7.173  14.990
54992W        W27252   7.355  37.052  13.396
54993W        W27253  32.113  36.487   1.431
54994W        W27254  30.075   4.405   2.849
54995W        W27255  43.930  29.585  13.005
54996W        W27256  11.164  11.729  10.560
54997W        W27257  13.823  38.970   3.827
54998W        W27258  14.340  11.719  14.354
54999W        W27259  38.499  41.043  14.937
55000W        W27260   1.400  38.489   0.340
55001W        W27261  13.176  17.179  13.459
55002W        W27262  44.271  34.016   4.670
55003W        W27263  20.038  17.171  10.617
55004W        W27264  35.051  10.710  11.496
55005W        W27265  10.168  13.614   3.719
55006W        W27266   4.359  13.642   1.287
55007W        W27267  24.632  15.211  10.449
55008W        W27268  25.192  12.121   2.848
55009W        W27269  13.210  33.612   0.807
55010W        W27270  11.635  11.667  14.775
55011W        W27271   6.773  37.014   3.188
55012W        W27272  34.092  20.536  12.490
55013W        W27273   3.830   5.691  10.572
55014W        W27274  20.616  22.645  13.842
55015W        W27275  41.367  20.657  11.064
55016W        W27276  29.136  21.084   3.682
55017W        W27277  19.216   8.666   1.758
55018W        W27278  27.012  18.293  12.391
55019W        W27279  18.752  32.546   3.739
55020W        W27280  11.839  27.065   4.618
55021W        W27281  22.167  14.721   4.713
55022W        W27282  21.139  28.073  12.489
55023W        W27283  23.228  36.461  12.004
55024W        W27284  40.035   7.247  11.052
55025W        W27285  33.874  43.924   4.817
55026W        W27286  21.221  31.541   1.396
55027W        W27287  26.070  10.648  13.517
55028W        W27288  33.516  31.543   4.693
55029W        W27289  40.469  30.038   4.274
55030W        W27290  14.101  22.065  12.522
55031W        W27291  41.943  26.109  10.597
55032W        W27292   1.806  25.590  14.403
55033W        W27293  22.069  41.295  11.395
55034W        W27294  25.690  41.004   4.763
55035W        W27295  19.094   4.930   0.858
55036W        W27296  13.108  35.969  11.114
55037W        W27297  20.219  27.122  10.624
55038W        W27298  42.985  14.664  14.349
55039W        W27299  22.664  40.430   5.085
55040W        W27300   8.306  11.634   2.409
55041W        W27301  14.593  13.740  10.602
55042W        W27302  13.686  24.513   2.841
55043W        W27303  36.476   4.776   1.441
55044W        W27304   9.286   9.273  11.119
55045W        W27305  37.866  37.579   0.942
55046W        W27306  33.061  24.046   0.839
55047W        W27307  25.504   2.826   0.391
55048W        W27308   7.746  29.942  12.001
55049W        W27309  18.127  44.282   2.761
55050W        W27310   5.838  17.094   1.365
55051W        W27311  20.610  33.547   2.886
55052W        W27312   6.297  25.623   3.700
55053W        W27313  42.497  28.134   2.206
55054W        W27314  12.336   0.769  13.919
55055W        W27315  27.059  20.548  10.514
55056W        W27316   0.362  30.436  14.913
55057W        W27317  25.189  22.153  13.401
55058W        W27318  11.165  26.154   3.660
55059W        W27319  10.292   9.340   2.283
55060W        W27320  37.890  41.950  11.069
55061W        W27321  37.453  11.625   3.254
55062W        W27322  31.631  34.427  13.898
55063W        W27323  39.831   9.821   0.393
55064W        W27324  28.948  19.194  13.441
55065W        W27325  25.119  39.819   1.846
55066W        W27326  13.210  29.661   3.350
55067W        W27327   0.964  27.059  12.949
55068W        W27328   7.397  37.060  13.994
55069W        W27329  34.058  19.725  10.427
55070W        W27330  39.512  23.535  10.410
55071W        W27331  28.643  22.075   3.205
55072W        W27332  38.330  16.615   1.225
55073W        W27333  22.157  11.178   2.252
55074W        W27334  27.003  19.096  11.950
55075W        W27335  39.529  15.733   0.262
55076W        W27336  25.123  44.817  13.337
55077W        W27337  21.175   5.826  12.474
55078W        W27338  26.529  22.096  14.332
55079W        W27339  44.836  44.763  10.624
55080W        W27340  17.290  34.083  10.461
55081W        W27341  21.136  21.200  11.516
55082W        W27342   2.452  17.690   3.229
55083W        W27343  19.083  18.774   0.332
55084W        W27344  37.831  43.416   3.280
55085W        W27345  30.950  24.186   4.756
55086W        W27346  21.250  15.822  11.038
55087W        W27347  26.550   1.755   0.808
55088W        W27348  15.134  44.873   0.417
55089W        W27349  22.042  13.778   4.165
55090W        W27350   8.857  14.673   2.838
55091W        W27351  23.582  42.512  12.085
55092W        W27352  35.382   1.401  10.456
55093W        W27353   7.360   7.403  13.484
55094W        W27354   2.448  28.153   9.932
55095W        W27355  27.520  14.728   4.340
55096W        W27356  10.278  26.080  13.499
55097W        W27357  29.488  22.592   0.789
55098W        W27358  34.867  40.379   1.351
55099W        W27359  43.788   9.153   4.794
55100W        W27360  39.858   9.298  10.457
55101W        W27361  28.467   6.843   3.358
55102W        W27362   6.731  44.948  12.428
55103W        W27363  18.712  38.346   3.746
55104W        W27364  10.235   6.191   1.844
55105W        W27365  15.686  38.493  12.991
55106W        W27366  14.225  33.093   0.269
55107W        W27367  31.635   6.804   1.706
55108W        W27368  32.962  33.575   1.894
55109W        W27369  29.084  26.050  14.904
55110W        W27370  32.519  36.040  10.413
55111W        W27371  27.462  40.542   3.349
55112W        W27372  30.956  35.105  11.998
55113W        W27373  29.956   1.289   4.693
55114W        W27374   9.753  32.130  10.078
55115W        W27375  28.947   8.284   2.369
55116W        W27376  14.752  42.446  14.911
55117W        W27377  13.178   5.812   4.616
55118W        W27378  37.927  16.753  13.400
55119W        W27379  24.582   8.731  12.889
55120W        W27380   5.362  17.571   1.725
55121W        W27381  16.281  12.209  14.479
55122W        W27382   0.787   6.721  12.973
55123W        W27383  11.253  30.482   4.349
55124W        W27384   8.711   7.735  10.996
55125W        W27385  40.341  23.636  14.922
55126W        W27386  17.687  42.905  14.515
55127W        W27387  35.936  33.570   2.902
55128W        W27388  12.349  42.861   0.290
55129W        W27389  26.991   9.381  13.895
55130W        W27390  13.721   8.180  10.554
55131W        W27391   0.442  12.349   0.429
55132W        W27392  19.156   0.486   0.446
55133W        W27393  28.446   2.800  12.021
55134W        W27394   1.776   2.927   1.215
55135W        W27395  42.493  35.925   0.429
55136W        W27396   1.838  15.185   2.403
55137W        W27397  17.164  40.031  10.448
55138W        W27398  10.234  17.567  13.407
55139W        W27399  27.527  40.460  11.938
55140W        W27400  19.690  31.073   4.223
55141W        W27401  35.055  37.456   4.635
55142W        W27402  25.660  10.342  14.829
55143W        W27403  16.281  24.573  12.075
55144W        W27404  10.354  20.165   4.734
55145W        W27405  44.313  11.646   0.288
55146W        W27406  35.481  35.535  11.958
55147W        W27407  11.130  25.167  11.888
55148W        W27408  20.052  12.704  14.759
55149W        W27409  26.200   1.796   4.281
55150W        W27410  38.407  11.151   1.423
55151W        W27411  31.050  32.923   4.248
55152W        W27412  36.437  43.947  14.856
55153W        W27413  39.952  39.324  12.036
55154W        W27414  38.379   6.903  11.422
55155W        W27415  18.130  22.229   3.705
55156W        W27416  17.190  17.220  11.909
55157W        W27417  35.513  30.560  12.379
55158W        W27418  19.571  25.135  12.886
55159W        W27419  40.944   4.752  13.961
55160W        W27420   2.273  42.784  14.935
55161W        W27421  27.988  17.725   4.778
55162W        W27422   5.779  24.092  11.094
55163W        W27423  21.201  33.021  11.914
55164W        W27424  22.571  14.339   9.947
55165W        W27425   0.963   1.970   1.859
55166W        W27426  17.271  11.819   4.202
55167W        W27427  38.051  18.055  12.477
55168W        W27428  19.105  10.770  11.128
55169W        W27429  19.740  19.104  14.958
55170W        W27430  15.211  34.581   3.324
55171W        W27431  17.788  29.485   0.735
55172W        W27432   5.748  44.497   0.741
55173W        W27433  18.211  29.648  14.007
55174W        W27434  31.034   9.283   4.761
55175W        W27435  44.258  21.112   2.797
55176W        W27436   0.484  27.677   3.149
55177W        W27437  22.541  11.268   0.425
55178W        W27438  32.932  19.055   5.195
55179W        W27439  21.060  42.306   2.767
55180W        W27440  13.605  16.126   3.806
55181W        W27441  14.705  15.613   0.391
55182W        W27442  36.918  40.882   2.774
55183W        W27443  24.676  37.031  13.048
55184W        W27444  33.400  21.074  13.858
55185W        W27445  43.444  16.749   4.128
55186W        W27446  26.614  19.219   4.799
55187W        W27447  19.634   4.347   3.677
55188W        W27448  17.266  10.289   3.306
55189W        W27449  42.951   6.884   3.271
55190W        W27450  33.514   3.772   2.862
55191W        W27451  27.148  35.852  13.860
55192W        W27452  24.637  27.069  12.077
55193W        W27453  43.971   3.431  14.282
55194W        W27454  44.986  23.660   3.861
55195W        W27455   7.671  18.129  13.466
55196W        W27456  29.065  39.320  11.467
55197W        W27457  27.987  21.593  10.975
55198W        W27458   3.762  42.928   0.324
55199W        W27459   2.302   4.762  14.420
55200W        W27460  42.013  25.491   1.303
55201W        W27461  18.188  40.475   4.131
55202W        W27462  32.916  24.116  14.455
55203W        W27463  44.321  23.600  11.394
55204W        W27464   2.912  24.722   1.783
55205W        W27465  20.243  26.491  11.528
55206W        W27466  21.232  10.363   2.298
55207W        W27467  24.553  14.136   3.862
55208W        W27468  41.880  19.247  13.013
55209W        W27469  20.199  23.602   4.816
55210W        W27470   3.952  13.153  10.450
55211W        W27471   0.441  24.516   3.630
55212W        W27472  44.315   6.677   3.210
55213W        W27473  21.538  10.176   0.761
55214W        W27474  43.841  28.563   0.320
55215W        W27475   2.421  42.905   5.132
55216W        W27476  43.501  14.591   1.264
55217W        W27477  36.083   2.860   4.682
55218W        W27478  15.650  36.984   0.277
55219W        W27479  31.596   1.252   1.712
55220W        W27480  14.709  19.542  10.633
55221W        W27481  40.412  32.002   5.285
55222W        W27482  18.713   7.346   1.215
55223W        W27483  28.650  30.919   4.178
55224W        W27484  43.810  14.319   5.231
55225W        W27485   0.904   4.287  14.859
55226W        W27486  27.602   6.407   2.240
55227W        W27487  14.688  10.280  13.544
55228W        W27488   7.728  41.321   3.723
55229W        W27489  37.978  26.979   2.857
55230W        W27490  36.022  23.704  13.886
55231W        W27491  29.135  27.661  10.493
55232W        W27492  36.416  25.205   3.810
55233W        W27493  10.746   4.217  11.083
55234W        W27494  18.604  19.186  13.859
55235W        W27495  38.494  16.731   0.313
55236W        W27496   5.819  17.780  12.991
55237W        W27497  42.998  17.307   3.768
55238W        W27498  39.041  31.100  11.103
55239W        W27499  36.515  10.165   0.248
55240W        W27500  27.482  28.538   1.909
55241W        W27501  26.640  11.137  13.544
55242W        W27502  17.589  18.069  13.992
55243W        W27503  43.306  26.575   3.283
55244W        W27504   1.904  19.714   2.190
55245W        W27505  26.023  27.967  14.924
55246W        W27506   3.288  21.664  14.923
55247W        W27507  40.510  23.733  13.536
55248W        W27508   1.922  25.219   2.390
55249W        W27509  30.042  42.020  12.543
55250W        W27510  43.997  20.255  14.282
55251W        W27511  29.650  18.231  12.040
55252W        W27512  22.165  38.444  12.025
55253W        W27513   1.828  36.430   4.286
55254W        W27514  44.423  16.615  10.154
55255W        W27515  28.490   3.455  12.426
55256W        W27516   6.894  12.815  13.936
55257W        W27517   7.226  12.192   3.820
55258W        W27518  27.945  20.666  14.516
55259W        W27519   9.836  37.839   0.314
55260W        W27520  24.019  15.684  11.378
55261W        W27521  40.441  40.544   2.772
55262W        W27522  42.014  29.131   3.670
55263W        W27523  17.163   0.938  13.548
55264W        W27524  15.688  20.603  12.528
55265W        W27525  21.600   4.449  10.621
55266W        W27526  33.521  24.207   2.223
55267W        W27527   9.282   1.277  10.554
55268W        W27528  44.944   3.330   2.770
55269W        W27529   6.382  11.182   2.796
55270W        W27530   2.753  18.082   2.239
55271W        W27531   8.824   2.394   5.302
55272W        W27532  24.678  38.966  11.425
55273W        W27533   9.263  38.422   3.207
55274W        W27534  29.603  20.149   1.781
55275W        W27535  21.218  29.457  12.973
55276W        W27536  39.497  37.940  10.615
55277W        W27537  11.716  43.864  10.967
55278W        W27538  34.539  40.470   4.278
55279W        W27539  19.583   9.154  14.011
55280W        W27540  32.962  14.682  14.427
55281W        W27541  10.244  28.664   3.737
55282W        W27542  35.391  30.092  10.990
55283W        W27543  33.411   4.237  11.100
55284W        W27544  37.939  41.405   0.252
55285W        W27545  10.191  39.496   3.385
55286W        W27546  36.589   1.466   2.304
55287W        W27547  28.533  15.751   3.354
55288W        W27548  38.447  25.180  12.540
55289W        W27549  35.437  26.630  14.414
55290W        W27550  37.015  17.241  11.535
55291W        W27551   3.848   2.259  14.988
55292W        W27552   5.786   4.870   2.806
55293W        W27553   1.409  34.432   4.283
55294W        W27554  10.693  22.512   4.275
55295W        W27555  32.465  38.843  12.513
55296W        W27556   8.776  21.743   1.302
55297W        W27557  37.863  19.138   0.832
55298W        W27558   1.774  40.458  10.982
55299W        W27559  35.992  13.769   4.167
55300W        W27560  44.504   3.897   3.207
55301W        W27561  32.911  10.820  11.027
55302W        W27562  32.941  37.566   0.860
55303W        W27563   8.704  21.220  14.328
55304W        W27564  32.043  42.517   0.874
55305W        W27565   6.400  42.937  13.011
55306W        W27566  29.567  13.613   4.719
55307W        W27567  16.631   9.775  10.548
55308W        W27568  42.022  17.593  14.791
55309W        W27569   3.325  22.065  12.464
55310W        W27570  19.684  39.428   0.854
55311W        W27571  38.829  15.727  11.983
55312W        W27572   0.948  21.228   5.093
55313W        W27573  39.969  28.930   4.201
55314W        W27574  36.454  19.096   5.776
55315W        W27575  39.385  38.507  10.512
55316W        W27576   3.832  10.838   1.910
55317W        W27577  24.161  15.244  12.909
55318W        W27578  20.092   8.857   2.242
55319W        W27579  20.079  36.384   2.737
55320W        W27580  39.058  26.104   4.610
55321W        W27581  19.191  43.484  14.021
55322W        W27582  14.656  21.113   2.402
55323W        W27583   1.301  42.017   0.782
55324W        W27584   6.351  31.429   0.767
55325W        W27585   2.325  13.760  12.948
55326W        W27586  34.097  30.650  14.407
55327W        W27587  25.196   7.355   1.369
55328W        W27588  44.433  23.704  12.006
55329W        W27589  32.481  32.400   4.164
55330W        W27590  13.679  17.109   2.773
55331W        W27591  44.974  31.432  10.547
55332W        W27592  23.594  15.088  12.547
55333W        W27593   4.328  41.437   2.897
55334W        W27594  44.306   3.427  11.946
55335W        W27595  16.722   2.245   1.450
55336W        W27596   5.848  27.115   0.311
55337W        W27597  37.562   7.191   4.640
55338W        W27598  20.129  22.086  14.839
55339W        W27599  24.601  25.208   1.349
55340W        W27600  29.434  12.695   1.774
55341W        W27601   4.290  35.558  11.126
55342W        W27602  42.810   8.377   1.213
55343W        W27603  35.930  18.148   3.669
55344W        W27604   0.474  18.053   0.361
55345W        W27605  23.539  25.059  14.011
55346W        W27606  20.758   0.247  13.508
55347W        W27607   1.240   7.738  10.513
55348W        W27608   3.792   1.966   4.743
55349W        W27609  25.129  40.443  10.596
55350W        W27610   2.855  28.946   4.314
55351W        W27611  30.618  25.113   2.236
55352W        W27612  16.097  35.401   2.812
55353W        W27613  12.628  43.927  12.057
55354W        W27614   8.726  19.141   2.417
55355W        W27615  22.107  26.647   1.258
55356W        W27616   0.287   5.818  12.485
55357W        W27617  37.462  33.014   3.271
55358W        W27618  36.571   0.976   2.316
55359W        W27619  11.188  17.725  13.342
55360W        W27620  12.313  17.195   2.868
55361W        W27621  12.242  16.794  13.502
55362W        W27622   6.251  40.507  11.924
55363W        W27623  16.576  23.676  11.551
55364W        W27624   1.456  41.926   4.159
55365W        W27625   1.909  13.247  13.846
55366W        W27626  37.563  44.322   4.680
55367W        W27627  23.042  22.115   4.212
55368W        W27628  25.679  20.712  14.329
55369W        W27629  36.456   3.283  14.441
55370W        W27630  33.621   5.717   0.302
55371W        W27631  23.032  23.003   1.707
55372W        W27632  21.176   9.678  11.932
55373W        W27633  33.528   3.865   1.695
55374W        W27634   3.377  35.066   4.343
55375W        W27635  44.947  21.045   4.792
55376W        W27636   4.339  19.077  12.885
55377W        W27637   3.926  11.733  11.038
55378W        W27638  18.680  21.024  13.060
55379W        W27639  38.074   9.388  12.996
55380W        W27640  43.395   0.487   1.393
55381W        W27641  33.608  18.780  12.456
55382W        W27642  16.581  24.169   3.286
55383W        W27643   9.692  26.657   4.659
55384W        W27644  24.145  12.322   0.902
55385W        W27645  39.442   2.348   0.306
55386W        W27646  39.018  11.194  10.955
55387W        W27647  37.471  23.037   3.661
55388W        W27648  44.463   0.884   4.798
55389W        W27649  24.135   5.284  13.966
55390W        W27650  11.209  16.242  13.057
55391W        W27651  43.427  16.265   1.699
55392W        W27652  18.762  40.461   2.794
55393W        W27653  22.711  15.771  12.451
55394W        W27654  27.954  28.475   2.812
55395W        W27655   2.228  18.609   1.428
55396W        W27656  21.754  36.511  13.866
55397W        W27657  40.320  29.551  14.011
55398W        W27658  15.214  22.060   0.479
55399W        W27659  36.036  22.054   2.382
55400W        W27660  34.439  30.567   3.710
55401W        W27661  29.152  42.504  12.900
55402W        W27662  37.578  14.304   4.167
55403W        W27663   7.808  21.173  12.014
55404W        W27664   6.819  43.814  12.857
55405W        W27665  28.559  28.536   0.255
55406W        W27666   4.307  30.013   4.746
55407W        W27667  35.377  19.148  13.393
55408W        W27668  40.935  17.741   2.298
55409W        W27669  40.988  44.933   2.759
55410W        W27670   4.822   4.754  14.305
55411W        W27671  12.661  34.456   1.451
55412W        W27672  20.597  32.965   1.723
55413W        W27673  37.885  21.518  13.958
55414W        W27674  11.270  37.412  11.123
55415W        W27675   5.260  24.568   3.844
55416W        W27676  42.875  23.053   4.216
55417W        W27677   2.945  44.912  13.475
55418W        W27678   7.287  19.220   4.120
55419W        W27679   2.399  22.732  14.290
55420W        W27680   3.914   7.815   1.221
55421W        W27681  14.647  12.799  12.533
55422W        W27682  40.874  15.779  12.014
55423W        W27683   2.799  19.254  14.970
55424W        W27684  37.544  37.087   4.354
55425W        W27685   1.952  21.063  10.426
55426W        W27686  14.128  26.641  11.595
55427W        W27687  20.655  23.639  11.914
55428W        W27688   4.375  43.768  11.919
55429W        W27689  44.821  13.306   2.362
55430W        W27690   4.423  30.057   3.223
55431W        W27691  29.112  44.951  14.825
55432W        W27692  38.399  15.582   0.398
55433W        W27693  36.420  13.743   0.779
55434W        W27694  30.100   0.814  14.401
55435W        W27695  32.544  22.601   1.263
55436W        W27696  19.064  21.175  14.812
55437W        W27697  41.941  39.062  11.388
55438W        W27698  31.059   1.478   1.737
55439W        W27699  23.509   6.757   0.900
55440W        W27700  21.690  22.585   9.981
55441W        W27701   6.819   5.430  10.983
55442W        W27702  31.425  25.547  10.522
55443W        W27703  33.543  14.600   1.727
55444W        W27704   5.242  14.732   2.713
55445W        W27705  25.015   1.787  13.923
55446W        W27706  24.024  32.016  10.478
55447W        W27707   5.829  41.514   3.335
55448W        W27708  30.620  29.577   1.389
55449W        W27709   7.297  17.225   4.326
55450W        W27710   1.925  40.500  14.934
55451W        W27711  13.275  38.888  13.460
55452W        W27712  38.425  30.025   0.461
55453W        W27713  29.662  15.644   0.426
55454W        W27714  32.991  14.324   3.804
55455W        W27715  24.212   0.416  11.938
55456W        W27716  11.643   0.253  13.493
55457W        W27717  35.856  28.982  12.850
55458W        W27718  22.600  27.608  13.379
55459W        W27719  15.594  18.669  11.436
55460W        W27720  26.504  43.816  13.322
55461W        W27721  44.910  24.651   3.853
55462W        W27722  25.070  16.107   3.766
55463W        W27723   4.293  38.413   1.803
55464W        W27724  35.020  14.292  14.499
55465W        W27725  40.896  27.021  12.050
55466W        W27726  16.631  28.943   0.848
55467W        W27727  19.079  13.324  14.828
55468W        W27728  18.137   7.237   2.256
55469W        W27729  43.982  15.742  13.472
55470W        W27730  22.666  25.011  12.579
55471W        W27731  31.619   4.355  13.968
55472W        W27732  24.501   6.194  12.992
55473W        W27733   9.369   5.204  13.360
55474W        W27734  35.568  26.106  11.605
55475W        W27735  39.355  18.739   4.255
55476W        W27736   0.392  32.408  10.909
55477W        W27737  44.407  14.116   3.148
55478W        W27738  25.493   0.847  12.071
55479W        W27739  31.497  42.348   1.878
55480W        W27740  25.692  14.104   4.697
55481W        W27741  42.413  14.688   2.663
55482W        W27742  19.169  10.766  12.076
55483W        W27743  42.371  28.041   4.305
55484W        W27744   9.665   9.319  11.079
55485W        W27745  27.135  32.437  13.497
55486W        W27746  35.474  31.941   1.895
55487W        W27747  12.853   9.885  11.402
55488W        W27748  44.806  25.964  14.854
55489W        W27749  37.358  41.043  14.395
55490W        W27750  34.426  40.964   1.769
55491W        W27751  26.021   5.830   3.630
55492W        W27752  34.090  17.686  13.491
55493W        W27753  37.507  38.453   2.891
55494W        W27754  37.082  29.927  13.397
55495W        W27755  23.113  14.744   4.737
55496W        W27756  34.530  37.480  13.810
55497W        W27757  38.450  31.093  12.044
55498W        W27758  23.215  35.069   3.236
55499W        W27759   7.371   6.764  13.798
55500W        W27760  23.025  30.604   2.368
55501W        W27761  18.595   3.260  10.135
55502W        W27762  42.793  25.490   5.170
55503W        W27763   4.380  36.397   2.207
55504W        W27764  11.359  18.062  13.487
55505W        W27765   0.853   8.304   4.829
55506W        W27766  34.063  21.221  10.599
55507W        W27767  43.802  14.235  12.528
55508W        W27768  22.588  15.684  14.829
55509W        W27769  44.812  18.547   2.375
55510W        W27770  23.097  24.037   1.385
55511W        W27771  30.460  10.869   1.231
55512W        W27772  12.292  35.063  11.566
55513W        W27773  35.426  28.633  11.421
55514W        W27774  15.664   6.829  10.946
55515W        W27775  15.141  10.206   2.324
55516W        W27776  12.176   5.777  11.094
55517W        W27777   3.914  16.229   1.803
55518W        W27778  44.491  23.570  14.399
55519W        W27779  12.638   3.719   4.312
55520W        W27780   8.764  43.773  14.828
55521W        W27781  37.447  17.761  12.023
55522W        W27782  12.117  13.829  12.863
55523W        W27783   3.921  27.639  14.946
55524W        W27784  28.064  19.735   4.702
55525W        W27785  29.446   0.840   4.610
55526W        W27786   0.436  19.076   1.360
55527W        W27787  10.272   6.363   3.662
55528W        W27788  40.822   8.228  14.511
55529W        W27789   3.876  13.286   4.234
55530W        W27790   1.404  16.105  11.123
55531W        W27791  27.629   6.184   4.201
55532W        W27792  18.633  27.610   1.427
55533W        W27793   5.392   1.822  11.057
55534W        W27794  19.211  19.250  11.505
55535W        W27795  10.733  15.602   4.277
55536W        W27796   8.856   4.225   2.788
55537W        W27797  13.182  17.621  10.980
55538W        W27798  36.396  22.698  14.275
55539W        W27799  23.584   7.886   3.202
55540W        W27800  27.044  29.467  12.053
55541W        W27801  43.482  18.265  11.517
55542W        W27802   6.205  39.378   3.716
55543W        W27803  10.713  17.154  11.997
55544W        W27804  41.969  27.959   4.189
55545W        W27805  22.621  20.753   1.762
55546W        W27806   3.233  39.814  10.536
55547W        W27807  16.582  11.785  11.129
55548W        W27808   8.288  39.919  11.376
55549W        W27809   4.359   1.359  14.361
55550W        W27810  25.590  12.174  12.092
55551W        W27811  32.415   9.311   0.801
55552W        W27812   8.659  21.523  13.512
55553W        W27813  20.195  26.150   2.278
55554W        W27814  32.989  17.734  14.482
55555W        W27815  17.232  42.364   3.646
55556W        W27816  37.954  20.607  10.923
55557W        W27817  29.518  29.533  11.862
55558W        W27818  30.512   1.869   1.727
55559W        W27819  28.066   3.403   1.722
55560W        W27820   9.361  19.218   1.923
55561W        W27821   0.823  24.105  10.625
55562W        W27822  32.541  29.600  12.355
55563W        W27823   0.440  41.972   2.677
55564W        W27824   9.334   3.321  14.919
55565W        W27825   7.357  28.156   2.204
55566W        W27826  14.287  20.587  12.430
55567W        W27827  37.870  26.523  12.935
55568W        W27828  20.760  44.443  13.968
55569W        W27829   3.904  13.209  14.871
55570W        W27830  32.519   2.893   2.720
55571W        W27831   2.940   6.323   4.834
55572W        W27832  16.802  17.119   4.335
55573W        W27833  21.593  41.920  10.964
55574W        W27834  41.996  37.925   3.868
55575W        W27835   9.848  35.570  12.068
55576W        W27836  40.009  32.624   4.747
55577W        W27837   8.752   0.955   5.216
55578W        W27838  41.372   5.336  14.394
55579W        W27839  15.674  20.729  14.767
55580W        W27840  30.938  28.526   2.875
55581W        W27841   3.897   6.921   1.449
55582W        W27842  20.134  38.879  12.487
55583W        W27843  33.403  26.149   4.276
55584W        W27844  23.158   8.820   1.707
55585W        W27845  22.214  19.734  11.868
55586W        W27846  20.732  26.641  10.139
55587W        W27847   3.376  17.292  13.429
55588W        W27848   2.895  42.289   0.799
55589W        W27849   1.282  24.546  11.554
55590W        W27850  16.762  15.308   5.100
55591W        W27851  26.458  21.102   3.753
55592W        W27852  42.782   3.450  10.015
55593W        W27853  42.453  28.153  13.791
55594W        W27854  30.446   4.777  11.070
55595W        W27855  29.943  43.330   0.744
55596W        W27856  22.091   4.800  11.915
55597W        W27857  39.948  21.208  12.017
55598W        W27858  35.903  44.934  14.763
55599W        W27859  42.382  16.132  12.836
55600W        W27860  10.300  22.650   0.768
55601W        W27861  36.063   5.908  12.426
55602W        W27862  31.938  24.174  12.062
55603W        W27863  11.292  13.272   0.866
55604W        W27864  20.702  37.842   1.350
55605W        W27865  11.182   9.170  13.058
55606W        W27866  30.507  13.260  11.454
55607W        W27867   4.398  27.106   5.137
55608W        W27868  30.154  21.725   4.626
55609W        W27869  35.555  28.494  12.846
55610W        W27870  26.185  35.040  14.012
55611W        W27871  43.302  18.145  14.978
55612W        W27872  37.484  18.754   1.392
55613W        W27873  23.576   4.448  11.027
55614W        W27874  32.134  12.663   4.354
55615W        W27875  39.003  13.269  12.574
55616W        W27876  39.317  32.587  14.797
55617W        W27877  13.234  20.074   4.656
55618W        W27878  22.679  24.525  13.967
55619W        W27879  37.879  34.464  11.008
55620W        W27880  31.004  27.577   0.264
55621W        W27881  18.713  13.351  11.897
55622W        W27882  30.985  43.325  10.591
55623W        W27883  18.084  15.105   2.823
55624W        W27884   5.890   7.880   0.304
55625W        W27885  30.976  37.460   4.662
55626W        W27886  37.842  40.397  13.499
55627W        W27887  10.730  41.522  13.320
55628W        W27888  25.112  12.320  14.278
55629W        W27889  43.335  26.198   2.708
55630W        W27890  13.256  31.008   2.695
55631W        W27891  36.857  29.132   3.329
55632W        W27892  28.566  21.739  13.006
55633W        W27893  17.070  43.404   3.828
55634W        W27894   9.301  33.398   9.981
55635W        W27895   3.859  18.156   3.860
55636W        W27896  13.846   4.435   4.704
55637W        W27897   1.939   5.433  14.760
55638W        W27898  41.996  12.660   0.938
55639W        W27899  17.071   7.311  13.341
55640W        W27900  19.646  28.503   0.435
55641W        W27901   1.290  26.682  13.954
55642W        W27902   5.354  41.989   0.280
55643W        W27903  34.960  28.087   4.118
55644W        W27904  21.089  33.437   1.387
55645W        W27905  37.436  17.229  11.381
55646W        W27906  38.405  22.508  13.808
55647W        W27907   7.366   7.860   2.415
55648W        W27908  16.100   7.674   0.791
55649W        W27909  36.576  37.082  10.644
55650W        W27910   7.239  27.667   5.726
55651W        W27911   4.832  20.659  11.993
55652W        W27912  15.279  20.569  14.304
55653W        W27913  36.433  20.563   3.722
55654W        W27914  38.904  37.392  11.940
55655W        W27915  43.791   7.898   1.806
55656W        W27916  43.806  25.622   1.745
55657W        W27917  13.609  11.636   0.425
55658W        W27918  15.800   9.167   2.806
55659W        W27919  22.700  33.935  12.074
55660W        W27920  26.677  15.112  10.887
55661W        W27921   7.205  44.470  12.095
55662W        W27922  19.625  39.319   4.835
55663W        W27923   3.290  26.459  12.511
55664W        W27924  16.736  27.649   0.864
55665W        W27925  43.398   7.173   1.894
55666W        W27926  14.099   1.454  14.933
55667W        W27927   2.846  35.419   1.439
55668W        W27928  32.573   9.818   0.767
55669W        W27929   4.942  42.892  11.537
55670W        W27930  12.732  15.271  11.567
55671W        W27931  19.668   4.252  13.924
55672W        W27932   7.208  28.008  12.404
55673W        W27933  43.305  28.538   0.410
55674W        W27934   3.737  11.864  11.420
55675W        W27935  38.948  31.423   3.786
55676W        W27936  44.973  21.069  14.930
55677W        W27937  44.893  15.783  13.383
55678W        W27938  26.511  33.483   4.308
55679W        W27939   8.213  36.473  13.417
55680W        W27940  41.439   7.259  11.480
55681W        W27941  38.965   3.274   1.713
55682W        W27942  37.357   2.397  11.491
55683W        W27943  30.574   0.466   4.117
55684W        W27944  29.948   7.240   0.268
55685W        W27945  12.646   9.749   2.720
55686W        W27946   5.878  15.717   3.291
55687W        W27947  34.417  23.017   3.251
55688W        W27948  24.169  13.619  13.409
55689W        W27949   7.209  16.247  11.482
55690W        W27950   7.858  12.715   4.197
55691W        W27951   4.305  31.966   1.285
55692W        W27952  44.994  12.738   3.305
55693W        W27953  43.839  28.076   4.340
55694W        W27954   5.932   3.950   4.653
55695W        W27955   6.262  37.450  11.071
55696W        W27956   2.810  22.734   2.694
55697W        W27957  14.150  40.439  10.540
55698W        W27958  20.243  15.175   0.765
55699W        W27959  17.256  37.504   1.809
55700W        W27960   1.886  27.587  14.002
55701W        W27961  43.011  40.046   1.286
55702W        W27962  42.871  12.190   1.892
55703W        W27963  35.892  35.451  12.046
55704W        W27964  31.615  34.584  12.558
55705W        W27965  22.112   8.337   0.351
55706W        W27966  23.714   6.715   4.331
55707W        W27967  26.206   5.429   1.726
55708W        W27968  23.523   5.418  13.472
55709W        W27969  42.429  22.537   3.828
55710W        W27970   9.256  30.946   1.301
55711W        W27971  37.550  22.012   1.237
55712W        W27972   4.736  15.712  12.948
55713W        W27973  40.533  32.602   2.779
55714W        W27974  34.063   7.415   4.353
55715W        W27975   2.246  12.328  11.020
55716W        W27976  32.474   8.313  12.878
55717W        W27977  19.661  27.573   3.237
55718W        W27978  29.996  34.976  10.543
55719W        W27979  21.164  39.399   1.805
55720W        W27980  30.952  43.475   3.842
55721W        W27981  15.642  14.148  11.441
55722W        W27982  29.633  44.449   5.273
55723W        W27983  37.490  33.934  12.465
55724W        W27984   2.306  35.042   5.296
55725W        W27985  42.955  38.009  12.934
55726W        W27986  26.173  29.961   2.292
55727W        W27987  11.175   5.888  14.777
55728W        W27988   9.153  29.525  10.959
55729W        W27989   6.798   5.883   3.809
55730W        W27990  32.978   1.780   3.651
55731W        W27991   9.235  12.702   1.825
55732W        W27992  18.768   1.750  12.555
55733W        W27993  28.540  23.003   1.304
55734W        W27994  34.454  11.795   1.753
55735W        W27995   7.885  15.654  11.947
55736W        W27996   8.884  30.104  11.562
55737W        W27997  27.645   5.411   4.748
55738W        W27998  10.254  33.593   1.274
55739W        W27999  41.019  26.700  14.458
55740W        W28000  36.557   4.237  12.532
55741W        W28001   9.317  39.514   1.385
55742W        W28002  42.370  26.587   1.754
55743W        W28003  25.172  14.149  12.893
55744W        W28004  38.845   3.293  10.475
55745W        W28005  20.739  25.557   2.687
55746W        W28006   6.762  23.012  11.943
55747W        W28007  20.090  11.659   2.884
55748W        W28008   1.474  40.538  14.981
55749W        W28009  43.320  43.477  13.802
55750W        W28010  35.373   6.676  13.796
55751W        W28011   3.846   9.317   1.741
55752W        W28012  10.175  33.421   4.824
55753W        W28013  25.016   7.790  11.473
55754W        W28014  27.564  23.220  10.468
55755W        W28015   3.263  43.310   3.337
55756W        W28016   2.836  30.125  11.603
55757W        W28017  37.519  33.538   0.415
55758W        W28018  21.735  37.025   3.812
55759W        W28019  30.038  32.428  12.579
55760W        W28020  19.233   7.248   2.188
55761W        W28021  41.040  36.588   1.866
55762W        W28022  24.645   2.263  13.534
55763W        W28023   7.710  18.164  14.353
55764W        W28024  31.945  11.641  12.862
55765W        W28025  39.005  43.420  12.036
55766W        W28026  12.826  42.808  13.502
55767W        W28027  28.050  14.297  12.414
55768W        W28028  18.166  42.916   2.886
55769W        W28029  31.010  23.160  14.351
55770W        W28030   5.803  41.419   0.924
55771W        W28031   0.825   2.382  12.992
55772W        W28032   5.379  11.150  11.505
55773W        W28033   2.790  36.921  13.864
55774W        W28034  21.535  35.492  10.994
55775W        W28035  12.751  12.292   1.371
55776W        W28036  24.083  10.144   3.689
55777W        W28037  14.272  42.838   3.203
55778W        W28038  19.587  22.608  11.030
55779W        W28039   1.406  20.227  10.559
55780W        W28040  35.492  19.718  11.578
55781W        W28041  44.869  39.448  10.507
55782W        W28042  17.240  29.443   3.254
55783W        W28043   4.876   1.737   0.285
55784W        W28044   2.440  34.550  14.516
55785W        W28045  19.548  11.150   2.273
55786W        W28046  20.663   4.282  13.909
55787W        W28047  32.627  43.373   3.211
55788W        W28048   5.821   1.372  12.878
55789W        W28049  14.763  26.483   0.825
55790W        W28050  13.301   7.395  13.428
55791W        W28051  34.583  29.071   3.318
55792W        W28052  25.057  15.777   2.280
55793W        W28053   7.354  41.463  11.982
55794W        W28054  35.570  40.017   4.764
55795W        W28055   3.800  21.710  13.963
55796W        W28056  25.477  16.742  14.950
55797W        W28057  25.086   4.224  14.834
55798W        W28058  29.937  20.274  12.551
55799W        W28059  14.296  30.060   2.339
55800W        W28060  34.390  12.852  11.418
55801W        W28061  33.429  22.688  14.512
55802W        W28062  22.681  39.518   2.180
55803W        W28063   4.404  26.059  11.480
55804W        W28064  36.096  36.879   3.651
55805W        W28065  19.649  21.069   5.293
55806W        W28066   2.890   3.812   1.323
55807W        W28067  18.557   3.436  13.404
55808W        W28068  28.637   8.340   2.297
55809W        W28069  28.528  30.999  11.945
55810W        W28070  34.503  28.935  13.406
55811W        W28071  42.405  10.873  12.500
55812W        W28072  37.031  12.354   3.693
55813W        W28073  35.952   9.819   2.256
55814W        W28074  25.170  24.975  11.035
55815W        W28075  22.113  36.456  14.911
55816W        W28076  39.403  15.804   0.830
55817W        W28077  43.429  39.485   2.787
55818W        W28078  18.064   0.939   1.763
55819W        W28079  22.538  35.481  14.473
55820W        W28080  29.427  39.993  12.462
55821W        W28081  34.025  28.654   2.302
55822W        W28082  16.671  22.073  14.465
55823W        W28083  35.592  13.749  14.884
55824W        W28084  16.802   5.417  13.796
55825W        W28085   3.262  29.057   1.872
55826W        W28086  41.477  13.753   4.638
55827W        W28087   5.360  39.002  12.078
55828W        W28088   8.318  28.566   0.929
55829W        W28089  39.874  43.952  13.863
55830W        W28090  18.099  33.548  13.838
55831W        W28091  15.255  19.091   1.776
55832W        W28092   3.454  27.127   4.661
55833W        W28093  42.284  31.113  12.933
55834W        W28094  34.060  26.026   0.839
55835W        W28095  12.333   7.787  10.479
55836W        W28096   9.699   4.914   4.702
55837W        W28097   1.852   4.860   2.263
55838W        W28098  13.219  26.473  12.579
55839W        W28099  14.797  39.046   3.646
55840W        W28100  25.072  13.119   1.784
55841W        W28101  15.722  31.101   2.854
55842W        W28102   9.868  34.610   0.963
55843W        W28103  33.587  34.425  10.408
55844W        W28104   2.329  26.184  11.392
55845W        W28105   0.338  43.867   0.412
55846W        W28106  16.619  12.680   1.314
55847W        W28107  13.185  17.760  13.501
55848W        W28108  21.087  19.763  13.417
55849W        W28109  17.116  23.641   9.995
55850W        W28110  41.811   2.840   4.120
55851W        W28111  25.152  26.974   2.358
55852W        W28112  13.641  44.465  10.957
55853W        W28113   0.386  36.424   0.361
55854W        W28114   1.311  23.624   1.717
55855W        W28115  14.695  11.655  14.963
55856W        W28116  22.120  14.776   0.761
55857W        W28117  14.830  44.795  13.968
55858W        W28118  29.533  11.193  14.890
55859W        W28119   6.844   3.452  13.950
55860W        W28120   9.763  16.680   2.202
55861W        W28121  41.786  28.524  11.917
55862W        W28122  33.476  18.785   3.767
55863W        W28123  19.060  16.118   3.199
55864W        W28124   9.809  34.606  13.919
55865W        W28125   7.859  30.987   4.151
55866W        W28126  14.268  15.787  13.507
55867W        W28127  15.759  33.949  12.902
55868W        W28128   3.233  41.991   2.886
55869W        W28129   2.732  14.737  12.052
55870W        W28130   3.854   6.417   1.900
55871W        W28131  31.105  31.501   0.262
55872W        W28132  20.547  40.470  13.944
55873W        W28133   3.409  43.502  10.942
55874W        W28134  38.031   0.961  11.585
55875W        W28135  31.927  33.009  11.869
55876W        W28136  41.400  16.657  11.576
55877W        W28137  38.527  32.901  12.871
55878W        W28138  28.506  32.576   9.588
55879W        W28139   0.788  17.230   2.755
55880W        W28140  44.917  12.837  10.610
55881W        W28141  27.542  41.446  11.949
55882W        W28142  24.200   2.345   2.232
55883W        W28143  24.155  14.290   1.211
55884W        W28144  24.028  34.391   4.286
55885W        W28145   9.231  20.536  14.463
55886W        W28146  39.473  34.020   4.827
55887W        W28147  11.734   5.708  12.377
55888W        W28148  30.627  43.304   0.857
55889W        W28149   0.330  34.912  10.923
55890W        W28150  15.096   1.868  11.078
55891W        W28151  39.534  10.325  10.415
55892W        W28152  23.183  39.550  12.558
55893W        W28153   5.399   0.910  12.058
55894W        W28154   7.325  42.992   2.818
55895W        W28155  35.046   7.786  12.838
55896W        W28156  44.454  15.656  14.905
55897W        W28157  30.002  32.108  11.543
55898W        W28158  14.262  38.977   3.168
55899W        W28159  13.227  40.485  11.930
55900W        W28160  16.652  28.987   1.446
55901W        W28161  41.391  36.904  10.407
55902W        W28162  21.077  43.000  12.410
55903W        W28163  22.541   7.841   1.787
55904W        W28164  23.579   2.897  14.775
55905W        W28165   0.960   3.841   1.761
55906W        W28166  16.236  24.137   0.379
55907W        W28167  29.173   3.944  14.876
55908W        W28168  28.008  33.051  12.419
55909W        W28169  34.117  22.175   4.725
55910W        W28170  35.507   7.239   3.695
55911W        W28171  19.724   4.430  14.812
55912W        W28172  17.246  38.845  11.114
55913W        W28173   5.327  10.798  10.572
55914W        W28174  44.829   1.945   4.199
55915W        W28175  23.009  21.248   2.766
55916W        W28176   4.427  24.636   0.472
55917W        W28177  33.561  42.952  12.880
55918W        W28178  22.606  32.413  10.003
55919W        W28179  20.718  19.571   0.815
55920W        W28180  20.079   7.306  13.993
55921W        W28181   0.448  17.140  14.277
55922W        W28182  30.969  24.997   1.922
55923W        W28183  12.644  41.506  11.485
55924W        W28184   0.930  11.266  10.534
55925W        W28185  15.144  31.123   2.783
55926W        W28186   8.237  32.513  10.636
55927W        W28187  21.677   2.866   3.769
55928W        W28188  34.992  23.203   3.736
55929W        W28189  35.102  33.047   0.933
55930W        W28190  32.909  24.603   3.151
55931W        W28191  21.181  37.992  14.767
55932W        W28192  11.174  27.478   4.200
55933W        W28193  27.104   5.760  11.991
55934W        W28194  15.241  11.295  12.947
55935W        W28195   0.419  12.645  13.516
55936W        W28196  14.805  21.142  11.920
55937W        W28197  31.938   2.245   3.758
55938W        W28198  11.628   4.450  11.118
55939W        W28199  27.980  18.122   1.322
55940W        W28200  13.701  23.729   2.213
55941W        W28201   2.425  42.433  12.347
55942W        W28202  31.051   4.864   2.856
55943W        W28203  21.192  16.690  11.566
55944W        W28204   4.373  44.884  14.977
55945W        W28205  25.992  25.565   2.335
55946W        W28206  22.614  31.513   1.842
55947W        W28207  14.307  30.145   0.817
55948W        W28208   8.165  44.009  13.458
55949W        W28209  39.539  12.801  12.947
55950W        W28210  19.231  28.043   1.416
55951W        W28211  14.637  41.342   0.728
55952W        W28212  43.292  40.352   1.409
55953W        W28213   3.860  28.511   2.749
55954W        W28214  35.474   0.757   2.329
55955W        W28215  10.153  25.572  11.436
55956W        W28216   2.395  18.273  12.509
55957W        W28217  37.014  40.352   4.633
55958W        W28218  32.602  30.121   4.753
55959W        W28219  10.700  43.873  11.101
55960W        W28220  27.509  17.191  12.360
55961W        W28221  21.116  13.805  14.471
55962W        W28222   7.247  43.864  11.441
55963W        W28223  25.117  22.539   0.413
55964W        W28224   4.857   7.403  11.026
55965W        W28225   5.427  39.458   4.315
55966W        W28226  33.448   8.394  12.875
55967W        W28227  11.662  40.476  12.540
55968W        W28228  44.505  38.847  10.947
55969W        W28229  26.960  26.618   1.841
55970W        W28230   8.267   1.439  11.565
55971W        W28231  20.222  12.755   1.294
55972W        W28232   0.817  39.384  10.895
55973W        W28233  36.909  18.261  14.904
55974W        W28234  40.946  29.925   0.337
55975W        W28235  25.621  22.066   3.843
55976W        W28236  37.442  41.860  14.400
55977W        W28237  23.989  13.734  11.421
55978W        W28238  26.669  28.680  11.460
55979W        W28239  39.824  34.516   0.834
55980W        W28240  37.872  44.884  12.865
55981W        W28241  19.534  27.148  13.470
55982W        W28242  44.406  17.747  13.893
55983W        W28243   3.228  13.834  13.349
55984W        W28244  33.028  14.184   2.790
55985W        W28245  20.104  43.508  10.947
55986W        W28246  19.559  12.682   4.809
55987W        W28247  13.267  16.115  11.058
55988W        W28248  26.026  33.962  14.484
55989W        W28249   9.760  13.629  10.990
55990W        W28250  37.514  39.421   2.703
55991W        W28251  43.314  11.336   2.360
55992W        W28252  21.124  17.209  10.944
55993W        W28253  16.627   1.287  10.530
55994W        W28254  13.693  16.605   3.832
55995W        W28255   0.868   4.876   4.693
55996W        W28256  44.264   7.847  11.930
55997W        W28257  10.675   3.845   0.844
55998W        W28258  22.699  35.088  11.380
55999W        W28259  16.153  34.454   1.817
56000W        W28260  29.465  10.209  12.431
56001W        W28261  23.010  15.618   4.291
56002W        W28262  25.495  27.473   3.348
56003W        W28263   1.802  14.143   4.768
56004W        W28264  28.153  10.229  14.954
56005W        W28265  16.629   6.231  11.599
56006W        W28266  13.133   8.387   3.289
56007W        W28267  20.570  31.601  10.995
56008W        W28268  21.607  31.076  14.503
56009W        W28269  28.570  17.200   0.812
56010W        W28270   3.809  12.854  14.283
56011W        W28271  33.054  10.345  13.409
56012W        W28272   4.412  33.129   4.727
56013W        W28273  31.982  34.987   5.094
56014W        W28274  23.113   4.861  14.418
56015W        W28275  40.901  33.523   3.764
56016W        W28276  10.214  12.167   1.434
56017W        W28277  44.882  24.083  11.084
56018W        W28278  35.389  21.194  12.348
56019W        W28279  41.991  18.637  13.403
56020W        W28280  34.103  18.164   5.245
56021W        W28281  16.569  21.112   3.251
56022W        W28282  43.387  21.195   2.681
56023W        W28283  41.833  32.011  14.956
56024W        W28284  33.565   4.902   1.442
56025W        W28285   6.182  15.578  14.797
56026W        W28286  31.143  24.687   3.359
56027W        W28287  33.045   4.262  10.404
56028W        W28288   3.267  35.541  11.038
56029W        W28289   6.402   0.751   4.298
56030W        W28290  29.058  41.925  14.356
56031W        W28291  30.936  16.597   1.771
56032W        W28292  44.392  43.842   3.223
56033W        W28293  18.552   0.802   1.754
56034W        W28294   8.829  38.972   3.205
56035W        W28295  19.720  42.935  13.013
56036W        W28296  40.516  11.795   4.183
56037W        W28297  22.119  41.498   0.372
56038W        W28298  39.340  41.378  12.071
56039W        W28299  20.544  36.025   1.308
56040W        W28300   4.207   9.160  14.903
56041W        W28301   7.260  15.206   1.706
56042W        W28302   0.277  13.600   4.684
56043W        W28303  13.174  41.895   0.856
56044W        W28304  10.161  44.261  14.783
56045W        W28305  38.908  30.568   4.806
56046W        W28306  21.588  17.206  13.411
56047W        W28307  41.043  26.150   2.258
56048W        W28308  38.829  27.187  13.022
56049W        W28309   6.835   5.782   1.700
56050W        W28310   3.933  18.642   4.785
56051W        W28311  22.615  14.223  13.976
56052W        W28312  11.822  43.284   2.738
56053W        W28313  32.518  30.431   2.710
56054W        W28314   9.167   3.324   1.881
56055W        W28315  18.577  25.678  14.356
56056W        W28316   9.684  25.113  11.969
56057W        W28317  31.623  10.801  10.487
56058W        W28318  18.121  20.141   3.754
56059W        W28319  43.914  15.276   4.720
56060W        W28320   1.339  28.459   0.900
56061W        W28321  37.064  13.143  11.009
56062W        W28322  27.661  41.947  12.832
56063W        W28323  33.096  25.136  12.006
56064W        W28324  18.624  26.524   1.707
56065W        W28325   2.444  39.026   2.765
56066W        W28326  11.771  18.768   2.415
56067W        W28327  36.074  44.471  10.887
56068W        W28328  30.594  40.450   4.698
56069W        W28329  41.378  21.049  11.526
56070W        W28330  11.291  21.585  11.445
56071W        W28331  27.527  41.384  14.772
56072W        W28332  17.634  19.749   0.292
56073W        W28333  39.362  41.415   1.363
56074W        W28334  33.597  39.457  14.922
56075W        W28335  11.650   4.385   2.205
56076W        W28336  27.964  41.353   4.271
56077W        W28337   3.364  27.166   0.386
56078W        W28338  11.255  38.936   2.192
56079W        W28339  26.131  15.176   4.737
56080W        W28340  34.994  33.973  12.970
56081W        W28341  22.112  24.511  10.980
56082W        W28342  42.831  39.941  12.951
56083W        W28343  33.445  39.845  13.341
56084W        W28344  18.734  37.842  11.044
56085W        W28345  37.341  14.729  14.510
56086W        W28346  23.029  41.970  11.398
56087W        W28347  23.050  40.382  10.107
56088W        W28348  23.151  42.453   3.653
56089W        W28349  40.896  18.674  10.527
56090W        W28350  38.889   7.859   3.246
56091W        W28351  40.851  41.938   0.761
56092W        W28352  36.851  43.290  13.374
56093W        W28353  31.510  27.691   3.225
56094W        W28354  14.760  32.116  13.984
56095W        W28355  16.317  39.355  11.074
56096W        W28356   1.906  37.937  13.470
56097W        W28357  13.796  22.171   1.316
56098W        W28358   1.359  36.537   4.750
56099W        W28359  19.663  33.874  12.576
56100W        W28360  12.672  44.298  12.991
56101W        W28361   7.410   0.847  13.000
56102W        W28362  44.779  10.843   2.248
56103W        W28363  18.063  38.450   3.768
56104W        W28364   3.284  42.405   3.298
56105W        W28365  36.950  11.321  10.472
56106W        W28366  17.774  11.650   0.871
56107W        W28367   6.779  18.232   2.294
56108W        W28368  42.363  12.830   0.733
56109W        W28369  15.277  16.147   5.215
56110W        W28370   8.858  37.897  12.879
56111W        W28371   4.410  36.962   4.219
56112W        W28372  22.161  40.812   3.290
56113W        W28373  22.111  15.583   3.826
56114W        W28374  28.001   1.736   1.718
56115W        W28375  42.999  33.128  13.907
56116W        W28376   2.342  18.259   4.650
56117W        W28377  16.750  35.921   4.701
56118W        W28378  41.343   5.703  10.485
56119W        W28379  13.310   7.288  13.818
56120W        W28380   6.249  44.296   2.198
56121W        W28381   7.676  21.260  10.444
56122W        W28382  18.181  14.228  14.796
56123W        W28383  22.053  11.341   0.404
56124W        W28384  32.070  43.891  12.932
56125W        W28385   6.222  27.522  10.892
56126W        W28386  11.672   8.242   4.831
56127W        W28387   5.780  16.758   3.263
56128W        W28388  16.139  40.326  10.606
56129W        W28389  13.620  24.515   0.400
56130W        W28390  40.382  35.465   0.425
56131W        W28391  16.724  33.496  11.950
56132W        W28392  44.945   9.668   0.277
56133W        W28393  30.090   7.882   1.430
56134W        W28394  27.996  37.062  14.340
56135W        W28395  38.003  31.951  13.498
56136W        W28396  34.533  18.221   3.295
56137W        W28397  26.010  22.502  14.322
56138W        W28398  15.131   0.429  12.084
56139W        W28399  40.972  15.808   2.738
56140W        W28400  29.122  28.071   3.386
56141W        W28401   8.782  30.643  12.973
56142W        W28402  27.970  36.950   3.705
56143W        W28403  11.810  29.153   1.933
56144W        W28404  39.990  18.775  12.059
56145W        W28405  15.773  24.565   0.774
56146W        W28406  41.846  17.575  14.423
56147W        W28407   4.729  26.201  12.864
56148W        W28408  41.994  23.596  10.047
56149W        W28409  27.086  18.706  12.534
56150W        W28410  17.249  38.454  10.907
56151W        W28411  37.053  16.167  10.608
56152W        W28412   8.388  38.071   0.865
56153W        W28413   1.263  35.478   2.763
56154W        W28414  39.369  15.668  14.455
56155W        W28415   1.332  18.210   2.219
56156W        W28416  14.162   5.431  10.618
56157W        W28417  31.535  14.795  10.545
56158W        W28418   6.767  39.857  12.016
56159W        W28419  17.262  15.300  14.772
56160W        W28420  23.098   8.725  14.431
56161W        W28421  43.455   1.934   4.620
56162W        W28422   4.425  14.766   2.314
56163W        W28423   8.222   2.254  12.511
56164W        W28424   0.885   7.209   4.354
56165W        W28425  42.292   8.186   4.235
56166W        W28426  36.564  34.545   3.308
56167W        W28427  43.834  25.127   2.382
56168W        W28428   5.343  37.536  14.293
56169W        W28429  18.083  32.564  11.439
56170W        W28430  24.993  18.266  12.542
56171W        W28431  20.688  31.586  11.401
56172W        W28432  19.606  30.490  10.441
56173W        W28433  21.112  39.536   5.203
56174W        W28434   9.704  35.358  13.518
56175W        W28435  19.254   9.748   0.248
56176W        W28436   9.214  18.275  11.445
56177W        W28437   8.338  38.337   3.296
56178W        W28438  14.154  32.949  14.315
56179W        W28439   6.191  34.399   1.352
56180W        W28440   8.294  26.117  11.121
56181W        W28441  26.161  22.035  12.475
56182W        W28442   1.828  35.358   0.385
56183W        W28443   5.703   7.194  13.056
56184W        W28444  19.640  39.900   2.751
56185W        W28445  22.247  30.973  10.893
56186W        W28446  18.573  27.473  13.002
56187W        W28447  34.488   0.845   3.277
56188W        W28448  25.692  44.815   2.203
56189W        W28449  14.125   5.693   1.324
56190W        W28450  28.665  39.063  13.434
56191W        W28451  11.133   6.258   0.792
56192W        W28452  37.425   8.182  12.895
56193W        W28453  17.240  13.260  13.524
56194W        W28454  25.120  22.145  10.418
56195W        W28455  30.970  21.527  12.940
56196W        W28456  31.431  25.702  13.355
56197W        W28457   1.354   8.731   2.240
56198W        W28458   0.912   7.690   3.648
56199W        W28459  29.062  19.175  14.512
56200W        W28460  37.358   4.916   0.456
56201W        W28461  19.187   8.240  12.954
56202W        W28462  31.573  37.019  14.919
56203W        W28463  20.187   5.737  11.866
56204W        W28464  27.162  24.052  10.458
56205W        W28465  12.125   1.851   2.888
56206W        W28466   9.366  40.316   4.296
56207W        W28467  29.652  24.609  13.360
56208W        W28468  43.832  21.040  13.794
56209W        W28469  37.442  28.669   0.769
56210W        W28470  34.873  19.078  10.957
56211W        W28471  26.025  36.858  11.430
56212W        W28472   4.862   4.800  10.415
56213W        W28473  39.967  13.283   2.846
56214W        W28474  25.587  26.081  13.828
56215W        W28475  40.505  21.056   0.466
56216W        W28476  21.259  31.531   2.269
56217W        W28477  32.017  27.092  13.927
56218W        W28478  44.477  38.942   1.217
56219W        W28479   5.708  42.798  11.951
56220W        W28480  28.563  36.506  12.855
56221W        W28481  15.628  41.339   4.281
56222W        W28482  25.192  25.498  12.051
56223W        W28483  34.080  27.521  10.451
56224W        W28484  23.632  33.609  14.450
56225W        W28485  36.039  35.545  11.544
56226W        W28486  33.470   9.199  14.800
56227W        W28487   2.742  14.815   0.276
56228W        W28488  11.285  38.898   3.817
56229W        W28489  22.244  12.713  13.935
56230W        W28490  30.487  42.992   3.220
56231W        W28491   0.486  11.857  11.600
56232W        W28492  25.675  42.393   9.496
56233W        W28493  34.601  36.049  13.474
56234W        W28494  19.042  20.029  10.593
56235W        W28495  37.022  24.178  13.488
56236W        W28496  24.489  27.558   4.796
56237W        W28497  10.192  10.300   3.379
56238W        W28498   5.770  23.115  12.476
56239W        W28499  29.959  37.870   3.799
56240W        W28500  42.948  30.544  11.935
56241W        W28501   8.797  20.101   3.742
56242W        W28502  32.400  32.926  12.017
56243W        W28503  37.365  22.726  14.885
56244W        W28504  27.588   5.825  11.073
56245W        W28505   3.418   4.204  13.882
56246W        W28506   3.312  39.349  12.921
56247W        W28507  12.785  27.685  10.935
56248W        W28508  29.073  28.545   3.686
56249W        W28509  40.890  25.593   0.938
56250W        W28510  12.671  40.453   0.255
56251W        W28511  11.782   3.771  11.373
56252W        W28512  24.478  19.536   3.246
56253W        W28513  37.580  20.081   3.842
56254W        W28514  18.637   4.217  14.816
56255W        W28515  27.049   8.890   5.272
56256W        W28516  29.463  32.101  10.998
56257W        W28517  11.239  38.408   4.207
56258W        W28518   2.351  20.767   4.753
56259W        W28519  31.049  25.505  13.886
56260W        W28520  40.537  35.878  12.897
56261W        W28521  38.966  28.627  14.312
56262W        W28522  34.613  13.771   2.205
56263W        W28523  17.563   0.332   0.433
56264W        W28524  18.173  29.117   4.293
56265W        W28525  38.365  29.486   0.420
56266W        W28526  37.418  41.854  14.946
56267W        W28527   2.913  42.960   1.359
56268W        W28528  38.347  20.031  14.367
56269W        W28529  19.259  33.049   0.354
56270W        W28530   7.665  13.110   4.245
56271W        W28531  20.675  30.147  12.457
56272W        W28532   8.332  39.886   2.823
56273W        W28533   2.914   5.785   0.377
56274W        W28534  33.956  22.651   3.650
56275W        W28535  24.044  34.965  14.372
56276W        W28536  42.882  25.642   0.943
56277W        W28537  42.421  33.510   4.253
56278W        W28538  21.112  24.708   1.790
56279W        W28539  36.895  32.450  10.988
56280W        W28540  14.831   6.342  14.978
56281W        W28541  29.962   4.438   3.801
56282W        W28542  10.217   5.692  11.054
56283W        W28543  29.511  30.068  10.612
56284W        W28544  25.083  17.628   2.848
56285W        W28545  26.046   5.712  10.406
56286W        W28546   4.311  33.007   1.818
56287W        W28547  22.518  16.284  14.411
56288W        W28548  11.161  22.235  14.822
56289W        W28549   0.913  41.014   2.783
56290W        W28550  19.175  20.620   3.729
56291W        W28551  14.674  30.125  12.382
56292W        W28552  24.065  41.347   2.712
56293W        W28553  25.147   2.409   4.659
56294W        W28554   1.279   2.378   4.263
56295W        W28555  20.265  32.976   2.805
56296W        W28556  28.530   5.296  12.999
56297W        W28557  44.479   2.858   4.218
56298W        W28558  44.416  13.651   0.810
56299W        W28559   9.290   7.676   2.708
56300W        W28560  24.542  22.102  13.849
56301W        W28561  20.735  36.965  12.892
56302W        W28562  18.215  44.761   2.875
56303W        W28563   3.419  28.140   0.733
56304W        W28564  41.798   1.918  14.920
56305W        W28565   8.701  28.967   1.901
56306W        W28566  32.107   7.791  13.433
56307W        W28567  28.174  32.901   1.331
56308W        W28568  32.015  39.366   3.310
56309W        W28569  28.551  18.600  14.850
56310W        W28570  25.590  32.588  10.440
56311W        W28571  44.442  29.092   0.442
56312W        W28572  10.633  23.212   0.773
56313W        W28573  20.523  18.755  12.837
56314W        W28574  24.684  22.057  12.397
56315W        W28575   2.403  26.699  14.466
56316W        W28576  30.966  15.613   2.362
56317W        W28577  29.589  32.909   4.597
56318W        W28578  30.044  32.938  11.387
56319W        W28579  27.973  38.002  12.076
56320W        W28580  23.989   0.930   3.844
56321W        W28581  27.579  18.757  10.964
56322W        W28582  14.282   0.366   1.713
56323W        W28583   4.235  41.893  13.017
56324W        W28584   6.379  28.591  14.341
56325W        W28585   0.940  40.353   3.308
56326W        W28586  25.174  19.770  11.028
56327W        W28587   6.283  18.552   2.744
56328W        W28588  44.922  25.067   2.855
56329W        W28589  19.621  27.675   1.807
56330W        W28590  40.847   3.425   2.359
56331W        W28591  37.976  27.614   2.712
56332W        W28592  22.601  43.327   2.185
56333W        W28593  38.441   3.280   2.230
56334W        W28594  14.187  13.618  13.940
56335W        W28595   9.880  16.803   4.286
56336W        W28596  23.217   7.864  13.831
56337W        W28597  13.140   0.790   5.161
56338W        W28598  27.654  40.437  13.430
56339W        W28599  24.184  32.606   1.899
56340W        W28600  11.228   2.815  12.965
56341W        W28601  38.559  20.707  10.900
56342W        W28602  21.739  17.179   0.767
56343W        W28603  42.840   4.304  12.056
56344W        W28604  38.949  27.942  12.451
56345W        W28605  25.517  16.717   1.726
56346W        W28606  43.995   6.425   0.337
56347W        W28607   8.888  27.563  14.938
56348W        W28608  43.420  18.295  13.931
56349W        W28609   2.308  40.443  11.486
56350W        W28610   6.377   2.278   1.885
56351W        W28611  31.899  24.561   3.656
56352W        W28612  36.885   4.838  12.984
56353W        W28613  32.968  35.377   1.259
56354W        W28614  26.531  40.800   1.375
56355W        W28615  23.036  12.754   1.360
56356W        W28616  32.027  20.740  10.617
56357W        W28617  44.773  33.477   0.271
56358W        W28618  42.934   1.792   3.373
56359W        W28619   8.810  19.044   4.785
56360W        W28620  44.943  24.635  11.479
56361W        W28621  27.483  44.869  13.946
56362W        W28622  16.257  15.728   1.314
56363W        W28623  12.691  44.437   2.703
56364W        W28624  25.169   3.850  10.554
56365W        W28625   9.664  43.456   1.747
56366W        W28626  29.581   3.244  14.951
56367W        W28627   4.315   4.268  11.015
56368W        W28628  36.507  10.278   5.306
56369W        W28629  42.986  32.607  14.827
56370W        W28630   5.198  24.991  13.981
56371W        W28631  39.996  21.164   2.690
56372W        W28632  29.928   7.712   3.265
56373W        W28633   6.240  35.526   2.192
56374W        W28634  11.842   4.780   1.282
56375W        W28635  32.436  15.588  14.820
56376W        W28636  22.031  14.794  10.617
56377W        W28637  28.606  24.573  11.121
56378W        W28638   5.415   1.298   3.152
56379W        W28639  14.103  28.043   2.757
56380W        W28640  31.499  22.052  12.848
56381W        W28641   4.931  34.428  11.978
56382W        W28642  31.013  17.222  12.998
56383W        W28643  27.076  16.294   0.415
56384W        W28644   4.915  15.709   3.651
56385W        W28645  17.177  23.584  13.876
56386W        W28646  38.335  18.259  10.532
56387W        W28647  15.187  23.708   2.772
56388W        W28648  15.741  36.493  12.964
56389W        W28649   0.871  42.940  14.824
56390W        W28650  17.187  42.411  13.823
56391W        W28651  14.129  37.571   0.799
56392W        W28652  32.469   0.428   0.938
56393W        W28653  19.561  17.299   1.389
56394W        W28654   6.307  37.962  11.374
56395W        W28655  37.032  19.283   4.214
56396W        W28656  27.649  41.379   5.111
56397W        W28657  30.093  44.476  13.421
56398W        W28658  35.489  30.585  11.008
56399W        W28659   3.396  23.161  13.424
56400W        W28660  41.500   0.330  13.902
56401W        W28661   1.760  16.275  11.373
56402W        W28662  10.731  42.901  12.440
56403W        W28663  14.238   8.255  10.977
56404W        W28664  23.177   7.853  12.483
56405W        W28665  20.633  15.592   4.296
56406W        W28666  10.272  11.774  13.828
56407W        W28667   8.707  15.622  12.393
56408W        W28668  39.353  38.919   3.243
56409W        W28669  14.298   8.749   3.296
56410W        W28670  32.110  25.053   9.977
56411W        W28671  40.350  26.474  14.796
56412W        W28672   2.289  35.922  11.480
56413W        W28673  19.753  29.126  12.384
56414W        W28674  26.132  15.650   3.818
56415W        W28675  29.516  15.814  12.985
56416W        W28676  25.988  26.620  13.469
56417W        W28677   2.794  20.201   4.279
56418W        W28678  27.114  13.816   2.267
56419W        W28679  16.747  25.167  12.556
56420W        W28680  37.049  13.839   0.950
56421W        W28681  14.619   0.282  14.342
56422W        W28682  39.972   2.297   3.806
56423W        W28683   3.303  30.437   0.920
56424W        W28684  22.161  29.435  13.542
56425W        W28685  32.998  20.722  13.924
56426W        W28686  31.548  22.535   2.197
56427W        W28687  37.860  33.623  13.951
56428W        W28688  42.909  44.332   2.777
56429W        W28689  25.558  29.589   2.751
56430W        W28690  26.599  11.259  11.005
56431W        W28691  32.590  34.956  11.014
56432W        W28692   2.448  43.826   4.240
56433W        W28693  30.069  41.804  13.328
56434W        W28694   0.942  19.181   4.718
56435W        W28695  38.061   4.926   1.900
56436W        W28696  19.122   1.309   3.213
56437W        W28697  12.311  33.059  14.802
56438W        W28698   6.723  39.432  14.283
56439W        W28699  40.476   8.895  12.488
56440W        W28700  38.007  29.615   2.232
56441W        W28701  24.067  11.806   1.400
56442W        W28702   8.760  21.701  10.478
56443W        W28703  20.047  18.669   4.764
56444W        W28704  38.041  34.054  12.995
56445W        W28705  22.074  33.541  14.972
56446W        W28706  36.003  14.125  13.433
56447W        W28707  28.995  44.442  10.644
56448W        W28708  40.854   3.865   4.236
56449W        W28709  39.883  27.191  14.019
56450W        W28710  19.154  25.141   4.250
56451W        W28711  39.901  33.574   0.273
56452W        W28712  16.248  26.510   3.313
56453W        W28713   0.830  13.789   2.898
56454W        W28714  32.396   1.954  13.469
56455W        W28715  30.639   9.188  13.402
56456W        W28716   7.898   3.318  10.605
56457W        W28717  40.454  27.526   3.713
56458W        W28718   5.874   0.417  10.579
56459W        W28719  25.590  23.559  10.936
56460W        W28720   6.426   4.908  14.405
56461W        W28721  34.000  25.504  11.374
56462W        W28722  26.549  31.089  11.128
56463W        W28723   6.801  20.578   3.373
56464W        W28724  21.164  18.574  11.942
56465W        W28725  39.878  40.805   3.258
56466W        W28726  27.140  25.533  14.810
56467W        W28727  16.765   7.827  13.463
56468W        W28728  40.315  42.966  14.912
56469W        W28729  21.556  20.229   2.200
56470W        W28730  16.097  39.540   2.832
56471W        W28731  17.301  16.644   4.243
56472W        W28732   5.849  15.188   1.427
56473W        W28733   2.314  19.560  11.371
56474W        W28734  37.347  15.777   1.273
56475W        W28735  24.170  37.871  12.012
56476W        W28736   3.351  22.747  10.993
56477W        W28737  13.312  31.076   4.132
56478W        W28738  28.075  25.550  12.903
56479W        W28739  40.919  24.186   3.371
56480W        W28740   4.737   9.214   2.377
56481W        W28741   4.885   3.273  14.803
56482W        W28742   1.447  36.903   3.239
56483W        W28743  21.686  14.784  14.448
56484W        W28744  36.915  30.111  10.953
56485W        W28745  17.638  23.674  12.045
56486W        W28746   7.358  24.116   1.370
56487W        W28747  18.575  10.841  13.031
56488W        W28748  33.971   9.306  12.947
56489W        W28749   1.767  38.849   2.899
56490W        W28750  27.545  22.591   2.376
56491W        W28751  10.655   3.725   4.290
56492W        W28752   1.862  33.919   3.706
56493W        W28753   4.235  43.977   1.861
56494W        W28754  34.544  31.612  12.038
56495W        W28755  10.220   2.270  14.894
56496W        W28756  42.460  35.109   2.727
56497W        W28757  31.950   5.415   3.741
56498W        W28758   2.887  29.563   2.340
56499W        W28759  19.255  29.554  13.857
56500W        W28760  21.049  18.718   1.817
56501W        W28761  36.581  25.998   3.753
56502W        W28762  32.634   2.880   0.347
56503W        W28763  22.231  38.029  10.891
56504W        W28764  23.505   2.907   4.217
56505W        W28765  24.027  22.673  14.425
56506W        W28766  10.836  15.101   2.385
56507W        W28767  41.391  24.144  14.405
56508W        W28768  43.409  24.526   1.783
56509W        W28769  34.028  17.154   2.348
56510W        W28770  16.740  21.183  11.043
56511W        W28771  20.641  26.114   3.362
56512W        W28772   2.822  31.570  13.960
56513W        W28773  22.575  34.440  13.407
56514W        W28774  43.382  38.484  14.823
56515W        W28775  34.100  30.991  11.541
56516W        W28776  15.614   2.334   1.891
56517W        W28777  29.004   5.797   0.929
56518W        W28778  11.249  34.027  11.920
56519W        W28779  37.069   8.677   2.728
56520W        W28780  39.901  38.369   2.409
56521W        W28781  17.256  41.394   0.737
56522W        W28782   5.420  29.982   4.196
56523W        W28783  32.897   3.284   0.393
56524W        W28784   6.312  38.454   1.897
56525W        W28785   0.875  32.927  11.455
56526W        W28786  15.780  36.858  12.019
56527W        W28787  30.075  22.184   3.244
56528W        W28788   0.264  29.433  14.873
56529W        W28789  30.598  20.682   4.131
56530W        W28790  13.669  14.327   0.871
56531W        W28791  43.326  42.778  12.522
56532W        W28792  34.615  44.285  13.348
56533W        W28793   3.756  30.464   1.429
56534W        W28794  17.779   7.269  13.374
56535W        W28795   9.708  24.214  11.102
56536W        W28796  13.216   2.956   1.732
56537W        W28797  16.142  16.130  12.534
56538W        W28798  14.262  31.914  14.407
56539W        W28799  43.995   7.261   4.127
56540W        W28800   9.301   9.814  12.900
56541W        W28801  27.503  34.397  11.470
56542W        W28802  17.144  39.864   5.180
56543W        W28803  20.576  17.063  12.082
56544W        W28804   4.706  36.574   4.213
56545W        W28805  24.085  41.789   0.402
56546W        W28806  32.563   3.723   0.301
56547W        W28807  32.022  35.494   3.774
56548W        W28808  33.898  11.263   0.964
56549W        W28809  38.892   5.809   1.721
56550W        W28810   7.761  33.108  11.414
56551W        W28811  20.118  18.203  11.945
56552W        W28812  31.951  44.491   4.246
56553W        W28813  19.090  12.857   1.744
56554W        W28814  15.716  21.019   3.309
56555W        W28815  33.882  15.138  10.516
56556W        W28816   3.750  36.900   4.304
56557W        W28817   2.313   7.859   2.771
56558W        W28818   8.788   0.432  11.404
56559W        W28819  28.168  27.103   4.294
56560W        W28820  10.739  21.582  14.378
56561W        W28821  41.522  18.227  10.615
56562W        W28822  42.927  23.116  10.483
56563W        W28823  28.589  37.853  14.984
56564W        W28824  43.314  36.468  11.129
56565W        W28825  11.681  44.899   0.385
56566W        W28826  29.988  10.789  10.941
56567W        W28827  11.684   1.466  13.896
56568W        W28828  35.998  36.520  14.359
56569W        W28829  39.341  28.615   2.865
56570W        W28830   0.839  28.113   1.223
56571W        W28831  32.565  11.746  11.397
56572W        W28832  44.874  44.004  11.126
56573W        W28833  30.583   7.371  14.955
56574W        W28834  22.072  22.629   2.762
56575W        W28835  20.147   5.279  10.560
56576W        W28836  14.690  35.547   1.303
56577W        W28837  10.794  29.618  13.456
56578W        W28838  14.260  40.018  11.880
56579W        W28839   0.809  33.973  13.051
56580W        W28840   4.726  24.565  13.432
56581W        W28841  31.527  14.199  14.814
56582W        W28842  36.906  17.177   3.195
56583W        W28843  40.803  44.963   4.320
56584W        W28844  44.455  13.751   4.155
56585W        W28845  20.602  35.996   3.787
56586W        W28846   9.234  28.557  10.630
56587W        W28847  28.120  14.294   1.332
56588W        W28848  44.902   6.727  13.003
56589W        W28849   8.303  17.273  13.378
56590W        W28850   8.699   8.654  14.906
56591W        W28851  29.113   1.390  11.582
56592W        W28852  38.014  43.358   3.724
56593W        W28853   7.247  17.206  12.441
56594W        W28854  27.114  27.118   4.780
56595W        W28855   4.342  26.005  12.361
56596W        W28856  16.611  31.528  14.415
56597W        W28857   7.260   3.779  13.429
56598W        W28858  28.533  10.651  12.883
56599W        W28859  21.709  44.263  11.440
56600W        W28860  42.302  30.045   4.267
56601W        W28861  21.695  10.694   4.773
56602W        W28862   0.988  18.606   4.275
56603W        W28863  24.512  33.122  14.766
56604W        W28864  29.098  43.900  10.464
56605W        W28865  12.649  17.226   0.342
56606W        W28866   8.307  11.128   0.873
56607W        W28867  22.084  17.276  13.843
56608W        W28868   3.823   9.305   1.235
56609W        W28869  25.988  17.762   1.363
56610W        W28870  44.276  11.199   1.895
56611W        W28871  24.110  20.187  14.924
56612W        W28872   6.342  44.001   0.398
56613W        W28873  35.956  14.735  12.018
56614W        W28874   2.446  11.296  13.881
56615W        W28875   0.793  43.432   4.627
56616W        W28876  28.437  40.847  10.408
56617W        W28877  25.655  35.032   1.904
56618W        W28878  26.675   2.283   4.268
56619W        W28879  38.992   7.243   5.739
56620W        W28880  41.801  12.621  14.450
56621W        W28881  11.198   2.932   3.195
56622W        W28882   5.302  32.101   4.318
56623W        W28883  14.641  22.609   2.671
56624W        W28884   0.308  18.090  13.473
56625W        W28885  31.133  35.034   2.785
56626W        W28886  42.417  25.582   4.288
56627W        W28887  16.302  39.808  11.601
56628W        W28888  41.972  36.374  14.886
56629W        W28889  12.198  24.129   0.432
56630W        W28890  29.061  23.570   4.279
56631W        W28891  18.221  25.550  11.993
56632W        W28892  15.274  39.939  13.438
56633W        W28893   5.737   4.846   3.366
56634W        W28894  39.556  24.203  13.529
56635W        W28895  42.922  32.109  11.449
56636W        W28896  14.814   5.892   2.826
56637W        W28897  37.879  20.101   4.809
56638W        W28898  44.459   2.291   1.340
56639W        W28899  37.552  30.089   4.118
56640W        W28900  42.379  38.336  11.925
56641W        W28901  22.577  11.371  11.545
56642W        W28902  24.173  19.124  10.423
56643W        W28903  27.684  36.458   0.450
56644W        W28904  38.008   0.307   0.395
56645W        W28905   6.270  30.524   0.839
56646W        W28906  42.384  39.557   4.661
56647W        W28907   0.752   8.791  13.511
56648W        W28908  16.272  37.038   2.243
56649W        W28909  35.074  33.589   2.196
56650W        W28910  13.717   7.895   3.272
56651W        W28911  40.985  23.720   4.780
56652W        W28912  21.154  11.833  10.516
56653W        W28913   9.350   5.719   2.797
56654W        W28914  39.000  26.041  10.601
56655W        W28915  43.819  21.033  14.820
56656W        W28916  11.199   8.671  12.836
56657W        W28917   4.316  27.133  10.593
56658W        W28918  42.814  21.152   2.327
56659W        W28919   0.836  19.603   3.285
56660W        W28920  26.174  16.691  14.283
56661W        W28921  30.148  32.111   5.699
56662W        W28922  11.199  40.393   0.907
56663W        W28923  10.331  15.582  12.831
56664W        W28924  26.513  42.326  10.563
56665W        W28925  40.386  29.961   3.793
56666W        W28926  30.109  44.868   3.210
56667W        W28927  17.792  23.709  12.523
56668W        W28928  41.794  12.270   4.241
56669W        W28929   4.237   6.212   2.788
56670W        W28930  28.949  42.502   0.289
56671W        W28931  35.051  12.342   4.183
56672W        W28932  26.954  31.430  11.581
56673W        W28933  24.142  19.107   1.249
56674W        W28934  44.347  16.585   3.285
56675W        W28935  42.366  26.691  13.452
56676W        W28936  37.887  38.976  11.109
56677W        W28937  27.180  31.898   4.761
56678W        W28938  40.361  33.032  10.948
56679W        W28939  11.354  36.075  10.966
56680W        W28940   0.874  32.454  11.438
56681W        W28941  22.114  34.875   3.207
56682W        W28942  11.135  28.678  12.478
56683W        W28943  25.511   2.767   3.632
56684W        W28944  36.457  32.081  11.930
56685W        W28945  39.835   2.387   2.303
56686W        W28946  34.009   0.901  10.135
56687W        W28947  23.079  16.809  13.931
56688W        W28948  19.157  34.561   4.769
56689W        W28949  23.559   7.722  13.833
56690W        W28950  25.128  37.525   4.231
56691W        W28951  43.801  36.976  13.020
56692W        W28952  11.139   3.457   0.781
56693W        W28953   7.281  35.956  11.077
56694W        W28954   8.393  21.241   1.728
56695W        W28955  25.173   1.761   3.673
56696W        W28956   9.659   3.942   2.832
56697W        W28957  30.050  43.443   2.234
56698W        W28958  24.092   2.756   4.303
56699W        W28959  22.252  43.946   0.446
56700W        W28960  21.176   2.400  11.087
56701W        W28961  38.388  20.721  12.402
56702W        W28962  31.430   7.333   0.291
56703W        W28963   7.867  24.724  13.343
56704W        W28964  24.662   8.385   2.393
56705W        W28965  35.855  10.738   1.723
56706W        W28966   8.302  37.982  12.011
56707W        W28967  39.958  11.859   2.216
56708W        W28968   1.807  14.762   1.754
56709W        W28969  12.679  10.845  11.884
56710W        W28970  36.478  34.947  13.443
56711W        W28971   8.692  20.612  13.057
56712W        W28972  15.713   3.337   3.348
56713W        W28973  25.116   3.372   1.840
56714W        W28974  21.679  43.958   4.779
56715W        W28975   9.867  39.840  14.997
56716W        W28976   3.287  36.922   4.642
56717W        W28977  27.086   2.732   1.777
56718W        W28978  16.108  31.640  11.495
56719W        W28979   9.720   3.357   4.786
56720W        W28980  11.721  27.190  10.991
56721W        W28981  28.596  20.129   4.213
56722W        W28982   6.818  27.625   3.379
56723W        W28983  35.567  24.656   4.218
56724W        W28984  14.282  14.744   3.793
56725W        W28985  42.492  43.475   4.723
56726W        W28986  16.632  35.101  13.446
56727W        W28987  14.775  24.143   4.770
56728W        W28988  40.504  44.916   4.169
56729W        W28989   2.822  35.035  12.980
56730W        W28990  32.112  42.410  12.033
56731W        W28991  11.858  27.642  14.352
56732W        W28992  28.488  18.705  11.915
56733W        W28993  18.106  38.926  11.594
56734W        W28994  33.597  35.921   0.957
56735W        W28995  32.917   4.399   4.218
56736W        W28996  14.745  24.980   0.765
56737W        W28997  32.534   2.841  12.443
56738W        W28998   3.384  17.170   5.255
56739W        W28999   3.359  38.054  11.031
56740W        W29000   9.158   6.726   2.673
56741W        W29001  18.552  44.450   1.226
56742W        W29002  30.485   2.381   1.331
56743W        W29003  43.844   1.915  13.875
56744W        W29004  17.197  20.768   4.782
56745W        W29005   5.202  29.087  12.862
56746W        W29006   5.253  22.016  10.406
56747W        W29007  38.389  37.529   0.730
56748W        W29008  34.110  41.880  12.369
56749W        W29009  30.120  34.558  14.928
56750W        W29010  40.012   2.962   1.914
56751W        W29011  16.125  33.942  14.997
56752W        W29012  21.705  40.384   1.833
56753W        W29013  36.554   0.833   1.213
56754W        W29014  30.469  43.986   1.335
56755W        W29015  12.239   1.862  14.475
56756W        W29016  31.068  35.945   1.773
56757W        W29017  18.590  12.157  13.804
56758W        W29018  38.467  39.456   2.397
56759W        W29019   6.303  13.701  12.424
56760W        W29020   6.374  19.143  14.418
56761W        W29021  36.022  14.684   2.814
56762W        W29022  33.398  43.894   2.738
56763W        W29023  42.397  41.931   0.314
56764W        W29024   5.379  25.713  10.920
56765W        W29025  41.941  40.539   0.265
56766W        W29026   6.740  11.692   1.795
56767W        W29027   3.379  36.427   2.227
56768W        W29028  35.881  20.539   1.407
56769W        W29029  21.697  29.060  13.461
56770W        W29030  21.636  25.103   2.201
56771W        W29031  30.162  17.600  12.003
56772W        W29032  31.511   9.886  13.310
56773W        W29033  44.923  16.653  10.443
56774W        W29034  33.581   8.400   3.671
56775W        W29035  20.567   8.770  14.488
56776W        W29036  37.434  37.492   4.662
56777W        W29037  18.291  31.618   4.669
56778W        W29038  36.425  19.101  14.937
56779W        W29039  23.097   2.837  10.411
56780W        W29040  17.722  15.107  13.999
56781W        W29041  13.629   2.943  14.297
56782W        W29042  29.425  20.754  13.893
56783W        W29043  14.225  36.555  11.956
56784W        W29044  37.856   5.332   4.828
56785W        W29045   8.323  32.497  10.909
56786W        W29046  26.664   0.900  13.374
56787W        W29047  35.102  29.660  10.435
56788W        W29048  16.586  31.914  12.915
56789W        W29049  29.933   7.389  10.625
56790W        W29050  31.452   0.256   0.777
56791W        W29051  11.813  27.516  10.943
56792W        W29052  43.320  22.037   4.740
56793W        W29053  42.473  28.939  11.107
56794W        W29054  31.533  14.809  13.425
56795W        W29055  40.948   1.815  14.283
56796W        W29056   4.937  38.524  11.430
56797W        W29057  28.986  14.286  13.316
56798W        W29058  26.649   5.870  12.481
56799W        W29059   5.387  20.225  14.958
56800W        W29060  13.237  17.569   1.883
56801W        W29061   4.842  25.169   0.884
56802W        W29062  26.121   8.166  14.973
56803W        W29063  33.068  10.371  11.004
56804W        W29064  26.179   4.444  10.583
56805W        W29065  15.641  21.741  14.451
56806W        W29066  16.750  30.131  14.310
56807W        W29067  42.977  16.589  11.559
56808W        W29068  16.292  44.320  12.580
56809W        W29069  38.490  17.113   0.933
56810W        W29070   8.864   5.222  10.895
56811W        W29071  42.938   8.703   0.933
56812W        W29072   2.269   3.456  10.957
56813W        W29073   1.474  42.456   4.644
56814W        W29074  27.691  26.656  11.593
56815W        W29075  29.993   6.917   4.322
56816W        W29076  19.690  28.488  11.591
56817W        W29077  29.080  42.305  14.960
56818W        W29078   5.776  28.159  14.335
56819W        W29079  38.869  17.128   5.205
56820W        W29080   0.335  10.160   0.290
56821W        W29081   7.385  20.747   0.960
56822W        W29082  12.245  31.550   1.880
56823W        W29083  14.163  29.644   4.604
56824W        W29084   3.272   0.402   3.666
56825W        W29085  33.008  33.503   3.645
56826W        W29086  39.000   6.886  14.321
56827W        W29087  39.408  12.285  11.526
56828W        W29088  28.572  31.462  11.565
56829W        W29089  38.980  11.721   3.247
56830W        W29090  26.481  17.122   1.271
56831W        W29091   2.246   9.863  13.815
56832W        W29092  10.155  25.064   5.083
56833W        W29093  19.615  35.953   4.237
56834W        W29094   9.173   6.880  12.089
56835W        W29095  41.852  12.681   9.974
56836W        W29096   6.318  36.548  14.020
56837W        W29097  20.686  39.876   1.926
56838W        W29098  23.125   4.733   0.846
56839W        W29099  37.353   5.827   0.838
56840W        W29100  42.914  10.194  14.321
56841W        W29101   1.315   2.334  14.449
56842W        W29102  35.065   4.216   2.897
56843W        W29103  10.799   3.784  11.518
56844W        W29104   0.335  33.907  12.355
56845W        W29105   7.817  40.836   0.288
56846W        W29106   4.388  28.532   4.200
56847W        W29107  33.940  22.145  10.644
56848W        W29108  41.524  11.650   3.700
56849W        W29109  44.291   0.398  11.559
56850W        W29110  21.619  33.958   1.374
56851W        W29111  30.089  22.213  10.503
56852W        W29112  44.462  29.975   0.295
56853W        W29113  25.693   3.735   2.289
56854W        W29114  35.053  38.934  10.105
56855W        W29115  23.123  39.515  13.327
56856W        W29116   0.327  30.977   0.929
56857W        W29117  14.596  25.645  13.813
56858W        W29118   6.688  33.058  14.765
56859W        W29119  28.020  31.515  14.506
56860W        W29120  30.057  15.662  12.873
56861W        W29121  24.072  21.604   3.691
56862W        W29122   3.416  35.433  14.362
56863W        W29123   3.415   6.341   5.135
56864W        W29124  32.001   3.823   0.322
56865W        W29125  40.937  25.090   0.965
56866W        W29126  19.262  44.008  10.434
56867W        W29127  31.458  40.962  11.585
56868W        W29128  23.201   9.382   4.216
56869W        W29129   9.866   1.930  13.978
56870W        W29130  31.456  30.928  10.554
56871W        W29131  24.641   7.336   3.156
56872W        W29132  28.584  26.173  11.082
56873W        W29133  19.205  43.300   3.637
56874W        W29134   5.294  18.265   1.324
56875W        W29135  14.633   3.769   1.237
56876W        W29136  36.902  22.604   3.198
56877W        W29137  35.101  44.275   0.792
56878W        W29138   4.290  30.064   1.240
56879W        W29139  21.223   0.778   3.385
56880W        W29140  25.055  38.884   2.667
56881W        W29141   8.382  18.618  11.577
56882W        W29142  42.341   0.790  12.932
56883W        W29143  22.716  21.052  13.379
56884W        W29144   6.394  17.108   2.758
56885W        W29145  32.451  11.731  14.439
56886W        W29146  38.826   8.259   2.806
56887W        W29147   3.872  28.615   3.255
56888W        W29148  15.614  10.212  12.452
56889W        W29149   5.756  42.351   0.318
56890W        W29150  42.819  24.518   4.748
56891W        W29151  22.581  41.815  11.910
56892W        W29152  16.285  41.955  10.892
56893W        W29153   5.762  43.863   4.181
56894W        W29154  26.493  41.000  11.423
56895W        W29155  28.597   6.353   4.327
56896W        W29156  29.453  31.044  14.289
56897W        W29157  31.424  29.482   2.697
56898W        W29158  43.921  41.876  12.451
56899W        W29159  24.025  25.964  14.331
56900W        W29160  40.020   1.400  13.509
56901W        W29161  10.158  25.012  12.381
56902W        W29162  43.937  25.009  13.544
56903W        W29163  39.003  20.274   4.132
56904W        W29164  16.730   9.852   0.303
56905W        W29165  25.533  30.479   2.711
56906W        W29166  17.068  13.602  10.456
56907W        W29167  34.522  13.716  10.482
56908W        W29168  43.994  28.618   2.696
56909W        W29169  20.710  17.660  12.534
56910W        W29170  36.070  28.178  14.426
56911W        W29171  38.035   7.902   5.112
56912W        W29172  37.456   7.299   1.836
56913W        W29173  17.246  13.219  12.840
56914W        W29174  27.104   0.435   2.684
56915W        W29175   0.897  12.123   4.619
56916W        W29176  20.063   2.272  10.471
56917W        W29177  44.867   6.743  14.472
56918W        W29178  17.797   5.219  10.957
56919W        W29179  16.636   3.918   0.401
56920W        W29180  25.138  23.689   2.236
56921W        W29181  19.161  12.802  11.477
56922W        W29182  15.658  19.724  12.402
56923W        W29183  26.041  29.635   1.323
56924W        W29184  27.019  15.216  10.423
56925W        W29185   8.831  42.952  14.452
56926W        W29186  15.147  27.454  14.026
56927W        W29187  21.525  28.932  11.607
56928W        W29188  27.969  44.285  12.844
56929W        W29189  36.957  38.884  13.971
56930W        W29190  40.917  37.399  14.794
56931W        W29191   3.280  34.520   1.790
56932W        W29192   3.286   8.246  12.416
56933W        W29193  29.456   9.237   0.244
56934W        W29194  42.996  38.994   3.815
56935W        W29195  17.695  25.004  12.341
56936W        W29196  10.228  36.975   1.371
56937W        W29197  20.612  26.629   2.861
56938W        W29198  12.304  21.090   0.935
56939W        W29199  20.578   5.864  12.080
56940W        W29200  27.979  21.580   3.362
56941W        W29201  32.054  42.371  12.425
56942W        W29202  24.509   3.785   0.895
56943W        W29203   0.822   4.431   4.837
56944W        W29204  38.496  12.149  14.851
56945W        W29205   9.252  39.902  11.906
56946W        W29206  32.622   2.785  13.038
56947W        W29207  25.091  43.765  11.038
56948W        W29208  16.612   8.688  12.497
56949W        W29209  17.665  17.200   4.837
56950W        W29210  33.611  13.185  10.641
56951W        W29211  40.523   8.852   0.462
56952W        W29212  41.496  39.519  13.471
56953W        W29213  42.337  26.971  12.495
56954W        W29214  32.409  41.332   3.633
56955W        W29215  11.757   2.744   4.791
56956W        W29216  24.723  10.864   2.395
56957W        W29217  33.071  22.516   4.824
56958W        W29218  30.423  12.681  14.376
56959W        W29219  26.471   3.321   4.608
56960W        W29220  10.240  11.279  10.128
56961W        W29221  26.033  36.893  14.955
56962W        W29222   3.265   1.886  12.034
56963W        W29223  33.589   1.283  10.063
56964W        W29224   7.197  16.274   2.352
56965W        W29225   7.878  19.756   0.886
56966W        W29226  44.426  17.256  13.931
56967W        W29227   3.866   1.367   3.842
56968W        W29228  34.462   7.724  11.027
56969W        W29229  14.159  30.578   4.150
56970W        W29230  31.020  29.041  10.462
56971W        W29231  26.017  42.388  11.868
56972W        W29232  32.070  43.819  13.526
56973W        W29233  28.098   5.404   1.884
56974W        W29234  20.031  11.158  14.283
56975W        W29235  39.555  39.335   4.696
56976W        W29236   7.841  20.695   3.823
56977W        W29237  10.221   5.758  12.062
56978W        W29238   0.911  13.755  12.438
56979W        W29239   0.396  25.059  11.061
56980W        W29240  44.942  15.148  14.381
56981W        W29241  32.526  10.712   1.269
56982W        W29242  20.596  11.684   2.399
56983W        W29243  37.404  11.157   4.185
56984W        W29244   1.363  43.983  12.517
56985W        W29245   5.771   7.818  14.303
56986W        W29246  16.722  38.399  11.527
56987W        W29247  32.066  40.531  10.423
56988W        W29248  30.097  40.006   4.607
56989W        W29249   6.415  41.363  12.062
56990W        W29250  37.553  33.904  12.087
56991W        W29251  17.080   3.879  10.534
56992W        W29252  15.325  32.622  11.584
56993W        W29253   5.930  22.137   3.786
56994W        W29254   9.290  31.941   1.747
56995W        W29255  24.222  26.122  11.519
56996W        W29256  26.563  34.524  11.919
56997W        W29257  18.175  20.613  12.014
56998W        W29258  18.628  16.784   0.766
56999W        W29259   7.314   9.196  11.470
57000W        W29260   2.316  44.893   3.672
57001W        W29261  43.818  29.636  12.419
57002W        W29262  32.555  24.705   4.707
57003W        W29263  40.824  23.693  13.444
57004W        W29264  42.365   4.256   3.776
57005W        W29265  16.691   7.173   5.097
57006W        W29266  20.617   0.838  11.044
57007W        W29267   8.175  38.519  13.359
57008W        W29268   9.785   4.324  11.562
57009W        W29269  40.447   5.931   1.773
57010W        W29270  18.237  20.037  12.415
57011W        W29271   4.884  18.662  13.031
57012W        W29272  21.725  30.659   4.178
57013W        W29273  44.955  31.947   0.757
57014W        W29274  16.251  37.419   2.727
57015W        W29275   4.781   3.932   2.789
57016W        W29276  36.365   1.938   3.691
57017W        W29277  37.403  41.300  14.292
57018W        W29278  30.064  21.757  14.488
57019W        W29279  16.683  40.827   0.854
57020W        W29280  40.869   6.810   3.842
57021W        W29281  33.453   4.807  10.020
57022W        W29282  29.515   9.789   2.870
57023W        W29283  43.346   7.840   1.819
57024W        W29284  29.947  10.823   3.750
57025W        W29285  42.916  25.966   3.682
57026W        W29286  40.845  43.816   1.818
57027W        W29287   7.679  39.427   0.778
57028W        W29288  20.564  17.617   3.795
57029W        W29289  43.914  15.684  12.393
57030W        W29290  35.570  14.193   2.880
57031W        W29291  24.159   0.984  10.925
57032W        W29292  30.617  30.569   0.427
57033W        W29293  38.056  32.433  12.842
57034W        W29294  42.885  16.718  12.341
57035W        W29295   9.275  40.869  12.404
57036W        W29296  41.850  34.373   4.789
57037W        W29297   8.875  39.862  10.903
57038W        W29298   6.209  36.966  12.830
57039W        W29299  13.781  23.565  14.904
57040W        W29300  10.795  30.573  10.903
57041W        W29301   7.348  26.701   4.708
57042W        W29302   2.766  31.983   3.336
57043W        W29303   3.319   0.887   1.696
57044W        W29304  12.855  44.463  10.521
57045W        W29305  35.412  25.050   0.769
57046W        W29306  35.508   1.798   3.223
57047W        W29307  34.872  29.017   4.114
57048W        W29308  31.521   1.968   0.778
57049W        W29309  27.104  42.030   0.876
57050W        W29310  27.492  38.905   3.273
57051W        W29311  13.206  24.148  10.637
57052W        W29312  36.367   0.384  11.569
57053W        W29313  20.234  39.986  10.568
57054W        W29314  22.678  44.946  10.411
57055W        W29315  37.943   9.871  10.617
57056W        W29316  42.323  24.081  13.491
57057W        W29317   2.755  28.013  11.911
57058W        W29318  42.429  22.689   1.816
57059W        W29319   2.886  39.388  14.951
57060W        W29320  18.633  35.863   9.922
57061W        W29321   8.823  18.057  10.980
57062W        W29322  15.637  43.019   5.241
57063W        W29323  33.931   1.429   0.754
57064W        W29324  32.445  32.468  14.867
57065W        W29325   2.261  35.364  10.615
57066W        W29326   1.320  18.761  13.435
57067W        W29327  23.640  24.709   1.784
57068W        W29328  42.017   1.868   4.315
57069W        W29329   5.425  36.400  14.416
57070W        W29330  20.752  43.918   1.393
57071W        W29331   9.266  34.028  12.897
57072W        W29332  37.564  20.550  11.022
57073W        W29333  41.464  42.491   0.849
57074W        W29334  18.696   2.396   0.822
57075W        W29335  20.608  10.858   1.405
57076W        W29336  16.247   2.812  13.830
57077W        W29337   9.180  23.583   1.751
57078W        W29338  29.559  31.647   4.266
57079W        W29339  22.205   7.349   0.465
57080W        W29340   3.219  41.971   4.663
57081W        W29341   8.269  14.811   0.364
57082W        W29342   6.905  38.912  12.000
57083W        W29343  15.651   4.872   4.758
57084W        W29344  42.447  12.761  10.470
57085W        W29345  32.544  10.810  14.412
57086W        W29346  43.439  41.427  11.077
57087W        W29347  11.782   7.265   3.261
57088W        W29348  15.640  21.754  11.039
57089W        W29349  44.442  42.367   1.861
57090W        W29350  26.101  19.206  14.299
57091W        W29351  39.447  36.512   3.750
57092W        W29352  30.576  38.905   2.694
57093W        W29353  18.671  15.716  12.343
57094W        W29354  36.076  27.456   2.183
57095W        W29355  19.708   3.271   1.788
57096W        W29356   2.277  34.988  13.422
57097W        W29357  32.501  35.913   5.215
57098W        W29358  20.273  10.787   4.282
57099W        W29359  39.436  28.187  12.379
57100W        W29360   8.362  18.636  14.387
57101W        W29361  19.254  16.169  12.933
57102W        W29362  41.797  39.941  13.856
57103W        W29363  24.983  39.418   2.308
57104W        W29364  28.478  24.553  14.026
57105W        W29365   6.274   7.222  14.512
57106W        W29366  14.118  12.161  10.635
57107W        W29367  11.655  20.643  11.419
57108W        W29368  41.909  27.015  14.873
57109W        W29369  41.984  43.351  14.974
57110W        W29370  13.677  37.979  14.990
57111W        W29371  44.277  33.033   4.726
57112W        W29372  22.132   0.874  14.341
57113W        W29373  15.181  16.088   2.713
57114W        W29374  27.644   1.266  13.437
57115W        W29375  22.070  24.992   0.418
57116W        W29376  10.358   8.282   2.705
57117W        W29377  20.174   5.847   1.816
57118W        W29378  18.241  21.741  13.791
57119W        W29379   9.362  18.292   0.881
57120W        W29380  18.082  44.440   0.921
57121W        W29381  13.600  19.188   3.168
57122W        W29382  31.402  18.141  12.433
57123W        W29383  39.544  32.899   1.705
57124W        W29384   9.846   2.846  14.819
57125W        W29385  40.347  12.650   0.930
57126W        W29386  27.990  18.161  12.507
57127W        W29387  37.042   2.318   3.155
57128W        W29388  14.114  18.252  14.326
57129W        W29389  39.391   5.439   3.257
57130W        W29390  12.634  37.879   1.343
57131W        W29391   2.392   5.792  12.497
57132W        W29392  13.175  37.067  13.875
57133W        W29393  16.650  38.520   4.198
57134W        W29394   8.198  24.506  11.035
57135W        W29395  25.048   7.670  13.828
57136W        W29396   8.397  37.368   3.800
57137W        W29397  15.742  20.619   3.182
57138W        W29398  36.404  41.841   3.212
57139W        W29399  12.833  17.724  10.921
57140W        W29400   6.380  34.438   4.313
57141W        W29401  37.998  32.056  14.852
57142W        W29402   6.245  24.015  12.088
57143W        W29403  41.992  24.587   3.749
57144W        W29404   0.340   9.687  11.573
57145W        W29405  21.126  38.425  12.059
57146W        W29406   8.867   7.825   2.407
57147W        W29407  22.619  21.512   5.212
57148W        W29408   8.396  37.476   3.203
57149W        W29409  29.482   1.781   2.215
57150W        W29410   6.822  39.929  12.513
57151W        W29411   9.217  16.121  13.455
57152W        W29412  36.009   8.266   3.688
57153W        W29413  40.452  19.667   1.325
57154W        W29414  18.648  37.412   1.819
57155W        W29415   5.743  36.932   3.216
57156W        W29416  10.314  33.097   1.913
57157W        W29417   6.253  18.686  13.462
57158W        W29418  12.642  44.317   3.271
57159W        W29419   1.390   3.861  11.065
57160W        W29420   1.884  26.562  10.533
57161W        W29421  21.060   3.922  13.544
57162W        W29422  15.743  42.387   4.132
57163W        W29423  27.165  20.578   4.246
57164W        W29424  18.091   8.289  10.534
57165W        W29425  32.977  44.479   3.379
57166W        W29426   2.432  40.011  10.091
57167W        W29427  38.867  21.724  10.589
57168W        W29428  10.802  21.258  13.341
57169W        W29429  13.687  42.453  14.513
57170W        W29430  14.671  44.287   4.228
57171W        W29431  20.057   9.795   0.246
57172W        W29432  17.139   1.382   4.790
57173W        W29433  15.167  13.170   4.293
57174W        W29434  17.154  30.655  10.067
57175W        W29435   2.839  21.225   3.196
57176W        W29436  24.650  25.480   3.694
57177W        W29437  10.380  30.438  12.855
57178W        W29438  26.204  31.975  13.522
57179W        W29439  29.630  43.360   4.257
57180W        W29440   8.712  30.139  10.634
57181W        W29441  33.435   1.835   3.194
57182W        W29442   5.863  19.094   0.879
57183W        W29443  25.587  24.980   3.742
57184W        W29444  27.195   4.870   4.670
57185W        W29445  18.140  32.404  14.845
57186W        W29446  10.774  20.628   1.319
57187W        W29447  13.624  36.979   1.289
57188W        W29448  41.979  21.566   3.259
57189W        W29449   4.699  27.471   1.919
57190W        W29450  39.849   6.331   3.299
57191W        W29451  25.543  11.266  11.381
57192W        W29452   8.272   9.150  14.787
57193W        W29453  11.795   9.852  13.826
57194W        W29454  31.933  38.823   2.898
57195W        W29455  20.755  28.506  13.490
57196W        W29456  18.122  31.521   3.643
57197W        W29457   6.892  44.299  10.979
57198W        W29458  30.099   5.349  12.354
57199W        W29459  32.534   6.690  14.763
57200W        W29460  13.774  44.330   4.234
57201W        W29461  26.562  18.220   3.199
57202W        W29462   4.823  42.491  14.829
57203W        W29463  38.959  25.018  14.300
57204W        W29464  23.578  22.719   4.169
57205W        W29465  33.934  23.707  11.575
57206W        W29466  13.772  32.985  11.549
57207W        W29467   2.898  15.654  11.095
57208W        W29468  42.789  15.726   1.712
57209W        W29469  41.817   9.354  10.413
57210W        W29470   0.450  24.667  11.938
57211W        W29471  17.581  43.292   4.690
57212W        W29472  31.990   7.253  12.930
57213W        W29473   2.370  43.775  12.932
57214W        W29474  37.449  23.226  14.342
57215W        W29475   8.315   3.939   1.280
57216W        W29476  24.566  41.533   3.738
57217W        W29477  20.044  31.146   0.771
57218W        W29478  29.006  19.692  14.485
57219W        W29479  26.478  42.959  13.328
57220W        W29480   9.353  30.598  12.547
57221W        W29481  43.856  15.257  13.367
57222W        W29482   6.882  27.618   5.108
57223W        W29483  16.201   5.254   4.809
57224W        W29484  44.837  16.761  13.376
57225W        W29485  33.065  17.085  10.613
57226W        W29486  35.601  10.277   2.695
57227W        W29487  38.510  23.556  14.463
57228W        W29488  20.543  26.544  11.050
57229W        W29489   9.373  44.461   1.761
57230W        W29490  20.130  16.768   1.274
57231W        W29491  11.188  14.772  11.402
57232W        W29492  30.642   1.349   1.250
57233W        W29493  22.512   3.378   0.788
57234W        W29494  21.239   7.273   3.278
57235W        W29495  31.940  37.972  12.563
57236W        W29496   9.364   2.336  11.877
57237W        W29497  26.513  28.000   3.712
57238W        W29498  20.205  32.935  12.555
57239W        W29499  16.581  16.798   3.815
57240W        W29500  25.141  42.478  11.950
57241W        W29501  22.736   5.213   3.339
57242W        W29502  13.151   7.814   4.682
57243W        W29503  42.431  28.133   4.833
57244W        W29504  43.015  42.379   2.689
57245W        W29505  24.652  42.877  10.524
57246W        W29506  14.291  36.346  13.548
57247W        W29507  37.582   1.826   0.382
57248W        W29508  33.421  14.209   0.306
57249W        W29509  37.014  31.576   2.853
57250W        W29510  33.571  11.655  13.478
57251W        W29511  31.125   4.889  10.913
57252W        W29512   0.475   2.395  14.898
57253W        W29513  23.725   0.285   2.843
57254W        W29514  17.566  10.666   0.828
57255W        W29515  30.132  20.595  13.826
57256W        W29516  16.659   8.738   3.298
57257W        W29517  22.575   9.781  14.460
57258W        W29518  20.125   4.298   0.884
57259W        W29519  44.929  29.978  12.988
57260W        W29520  40.912   9.713   0.768
57261W        W29521  26.621  40.348  11.373
57262W        W29522  21.525  25.196  10.495
57263W        W29523  26.976  11.198   4.251
57264W        W29524  14.686  31.094   1.737
57265W        W29525  15.169  15.814   0.251
57266W        W29526  25.485  25.534  12.026
57267W        W29527  10.793   0.769  12.926
57268W        W29528  18.269  16.235   1.352
57269W        W29529  36.560  15.752   9.998
57270W        W29530  30.547  21.113  13.904
57271W        W29531  23.707  36.470  12.033
57272W        W29532  29.476   8.191   0.964
57273W        W29533  37.372  23.559  14.990
57274W        W29534   9.225  42.026  11.590
57275W        W29535  15.136  27.178   3.295
57276W        W29536  39.040  44.825  11.012
57277W        W29537  18.056  18.060  13.993
57278W        W29538  39.933  33.491   1.921
57279W        W29539  35.427   5.323   3.306
57280W        W29540  41.875  17.677   1.884
57281W        W29541   1.827   0.375  13.943
57282W        W29542  26.592   0.743   0.468
57283W        W29543  24.012  23.199  11.939
57284W        W29544  40.866  26.194  12.979
57285W        W29545  15.213  41.351   0.345
57286W        W29546  23.728  37.868   4.663
57287W        W29547  11.358  18.246  11.919
57288W        W29548  41.520  36.401  13.836
57289W        W29549  37.971   1.849   3.263
57290W        W29550  24.573  43.835   3.664
57291W        W29551   0.414  18.552   3.279
57292W        W29552  36.404  30.006   2.377
57293W        W29553  12.159  28.460  14.874
57294W        W29554   3.326   0.825  14.761
57295W        W29555  44.405  31.638  10.949
57296W        W29556  25.187  22.018   0.335
57297W        W29557  15.175   6.740  10.509
57298W        W29558  35.984   2.939  12.405
57299W        W29559  31.484  40.369   3.204
57300W        W29560  19.573  41.825   4.258
57301W        W29561   2.951  41.947   1.783
57302W        W29562   6.237   4.712  13.988
57303W        W29563   6.258  44.463  14.374
57304W        W29564  12.130  16.740   1.297
57305W        W29565  21.547  18.293  14.950
57306W        W29566   3.238  32.610   4.602
57307W        W29567  19.566  28.039  13.853
57308W        W29568   8.673  11.627  10.407
57309W        W29569   9.275  15.202  12.420
57310W        W29570  24.022  44.857  13.992
57311W        W29571  18.074  41.826   0.760
57312W        W29572  41.444  26.153  13.046
57313W        W29573  16.635  22.544   3.270
57314W        W29574   3.847  29.428   3.285
57315W        W29575  20.726  14.699   2.413
57316W        W29576   3.879  25.186   2.752
57317W        W29577  29.922  41.304   4.722
57318W        W29578  44.869  31.054  13.533
57319W        W29579  22.250  12.209  12.447
57320W        W29580  13.149   0.360   0.434
57321W        W29581  30.536  41.908  14.926
57322W        W29582  34.492  15.183  13.487
57323W        W29583   2.442  38.424   4.792
57324W        W29584   1.264  23.190  11.608
57325W        W29585  29.160  22.625   1.238
57326W        W29586  32.887   1.925   1.312
57327W        W29587  22.061  15.276  13.499
57328W        W29588  36.960  43.330   3.231
57329W        W29589  24.180   4.855   1.707
57330W        W29590  19.547   9.358   4.752
57331W        W29591  34.382   0.872  13.351
57332W        W29592  23.552  35.460  11.504
57333W        W29593   3.875  20.252   4.219
57334W        W29594  42.512  36.588  12.009
57335W        W29595  42.927   3.892  13.366
57336W        W29596  42.822  33.877   0.824
57337W        W29597  42.899  17.117   2.882
57338W        W29598   5.301  27.116  10.540
57339W        W29599   4.255   7.193  10.633
57340W        W29600  30.071   2.395  14.514
57341W        W29601  27.132  41.837  13.522
57342W        W29602  13.819  18.167   0.305
57343W        W29603  39.535  30.586  14.867
57344W        W29604  28.061  16.653   0.888
57345W        W29605  26.027  42.834   4.704
57346W        W29606  17.193  42.817   3.690
57347W        W29607  37.879  40.942   0.369
57348W        W29608  44.436  18.159   3.303
57349W        W29609  26.673   3.433  10.909
57350W        W29610  42.957  10.234  13.942
57351W        W29611  28.117  42.936   4.246
57352W        W29612  14.231  38.074   4.702
57353W        W29613  33.975  32.912  11.535
57354W        W29614  40.939  30.925   2.872
57355W        W29615  21.256  35.513  12.425
57356W        W29616   5.368  22.155  11.021
57357W        W29617  38.334   8.209  13.308
57358W        W29618  32.048  14.731   2.696
57359W        W29619   2.366   8.865   0.247
57360W        W29620  15.584  31.973  11.105
57361W        W29621  33.949  41.490   1.403
57362W        W29622   9.729  38.508   1.929
57363W        W29623   6.216  11.693   1.796
57364W        W29624  30.557  13.705  11.012
57365W        W29625   7.332  21.162  13.357
57366W        W29626  19.605  11.347  11.451
57367W        W29627   2.283  29.123  14.768
57368W        W29628  10.287  22.245  12.570
57369W        W29629  12.799  40.527   4.304
57370W        W29630  20.717  39.455   4.820
57371W        W29631  39.815  14.718   2.741
57372W        W29632  30.109  22.057  12.852
57373W        W29633   9.394  11.760   2.778
57374W        W29634  27.601  17.669   3.703
57375W        W29635  10.159  13.753   1.798
57376W        W29636  22.618  22.039   3.705
57377W        W29637  32.996   2.864  12.498
57378W        W29638  19.746  18.566   0.755
57379W        W29639  34.416  28.572   3.269
57380W        W29640  31.107  19.273   4.162
57381W        W29641  30.421  25.036   4.776
57382W        W29642   2.794  32.050  13.948
57383W        W29643   8.305  11.330   2.283
57384W        W29644  30.648  34.496  13.478
57385W        W29645   9.286  19.698   2.733
57386W        W29646  20.274  21.105  14.842
57387W        W29647  27.091   5.203  12.575
57388W        W29648  29.510  23.011   4.672
57389W        W29649  28.622   7.214   3.856
57390W        W29650   8.662  40.930   2.324
57391W        W29651  35.061   3.317  11.469
57392W        W29652  31.980  43.005  11.009
57393W        W29653  24.118  37.528  12.878
57394W        W29654  39.986   0.899   2.744
57395W        W29655  36.498  22.096   1.914
57396W        W29656  33.913   9.324   4.736
57397W        W29657   4.396  42.926   4.346
57398W        W29658   0.945   6.413   0.289
57399W        W29659  11.281   3.837   2.308
57400W        W29660  16.190  27.058   2.262
57401W        W29661  15.582  23.590  11.540
57402W        W29662   1.432  33.437  12.994
57403W        W29663   8.778   5.738   4.148
57404W        W29664   6.745   1.951  13.453
57405W        W29665  35.953  43.275  14.360
57406W        W29666  28.633   3.433  10.967
57407W        W29667  20.559  34.897   0.268
57408W        W29668  14.825  41.928   5.167
57409W        W29669  41.929  34.987  12.830
57410W        W29670  30.575  15.290   2.181
57411W        W29671  38.554  28.632   2.690
57412W        W29672  18.061  43.356  12.982
57413W        W29673  17.101  20.087   2.844
57414W        W29674  44.344   5.216  12.394
57415W        W29675  28.557  18.726  10.932
57416W        W29676  18.181   1.829   0.893
57417W        W29677  37.983   9.375  12.569
57418W        W29678   2.392  26.961  14.899
57419W        W29679  28.003  20.631  14.815
57420W        W29680   6.323   6.282   0.823
57421W        W29681   1.433  12.329  10.487
57422W        W29682  20.587  37.894  12.870
57423W        W29683   2.308   1.951   1.362
57424W        W29684  30.153  39.359   1.905
57425W        W29685  20.247  21.185   2.180
57426W        W29686   4.382  23.207   2.687
57427W        W29687  36.398  33.626   1.355
57428W        W29688  20.593   1.804   3.858
57429W        W29689   2.809  40.849   4.339
57430W        W29690  24.187  42.504  14.931
57431W        W29691  36.859  16.258   0.764
57432W        W29692  36.365  28.626   2.364
57433W        W29693  37.927  36.004  14.955
57434W        W29694  33.573  14.755   3.646
57435W        W29695   7.361  18.580   3.699
57436W        W29696  42.835  40.519  12.559
57437W        W29697   4.265   4.865  11.902
57438W        W29698   1.428   4.249  12.574
57439W        W29699  44.853  27.061  12.882
57440W        W29700   0.440  15.704   3.349
57441W        W29701   2.404  20.703   0.304
57442W        W29702  30.465  35.399  13.377
57443W        W29703  16.602  38.853  12.012
57444W        W29704  31.531  15.706  12.412
57445W        W29705  11.168  41.980   0.260
57446W        W29706  27.526   9.698  12.002
57447W        W29707  13.191  40.890  11.500
57448W        W29708  10.769   6.863  10.893
57449W        W29709  19.695   8.875   3.245
57450W        W29710  28.182  13.162  14.933
57451W        W29711  22.589  15.769  11.003
57452W        W29712  20.574  36.483   2.850
57453W        W29713  35.103  22.072  14.294
57454W        W29714  20.202  19.709  14.015
57455W        W29715  29.121  18.109  14.956
57456W        W29716  13.275  40.822  13.355
57457W        W29717  32.907  12.806  14.345
57458W        W29718   3.244  10.762   1.825
57459W        W29719   9.201  25.136   1.385
57460W        W29720  14.753  24.135  11.556
57461W        W29721  30.914  13.726  12.389
57462W        W29722  14.616   5.836  14.476
57463W        W29723  32.898  22.092   4.318
57464W        W29724  43.002  40.038  11.102
57465W        W29725  11.651   7.250   5.184
57466W        W29726  14.170  20.228  14.802
57467W        W29727   9.379  10.233   1.877
57468W        W29728  33.485  39.943   3.216
57469W        W29729  38.906  27.475   2.745
57470W        W29730  23.637  40.433   1.325
57471W        W29731   0.858  38.559   1.802
57472W        W29732  15.762  10.376  14.376
57473W        W29733   4.353   7.362   3.255
57474W        W29734  36.546   6.761  12.075
57475W        W29735  44.482   0.826  10.620
57476W        W29736  13.274  17.116  13.014
57477W        W29737  30.538  38.990   1.439
57478W        W29738   9.788  36.036  11.536
57479W        W29739   7.824  27.660   0.412
57480W        W29740   4.715  37.954  12.963
57481W        W29741  28.981  29.938  12.456
57482W        W29742  24.088  24.674   4.772
57483W        W29743  40.001  41.449  12.578
57484W        W29744   4.210   6.266   2.238
57485W        W29745  31.500  29.044  12.852
57486W        W29746   4.404  18.243   3.810
57487W        W29747  14.743  28.453   3.791
57488W        W29748  28.449  22.657  11.585
57489W        W29749  25.509  21.629   0.903
57490W        W29750  17.145  15.119   1.296
57491W        W29751  30.492  16.318   3.385
57492W        W29752  15.149  24.039  13.838
57493W        W29753  32.009  12.259   1.282
57494W        W29754  28.479  28.034  13.460
57495W        W29755  11.806  21.596   3.200
57496W        W29756  27.042   5.874   0.417
57497W        W29757   7.259   4.273   1.266
57498W        W29758  28.933  44.440   2.880
57499W        W29759  29.648  15.098   0.757
57500W        W29760  27.652  16.733  12.467
57501W        W29761   2.829  30.457   4.754
57502W        W29762  38.401  18.181  12.020
57503W        W29763   9.274  43.912  10.979
57504W        W29764  20.109   0.750  11.381
57505W        W29765  12.733   8.169  12.898
57506W        W29766   1.770  40.326  12.558
57507W        W29767   9.293   9.320   0.441
57508W        W29768  30.153  36.348  11.460
57509W        W29769  19.773  43.940   3.767
57510W        W29770  18.748   5.901   3.310
57511W        W29771  41.329  33.586   2.688
57512W        W29772  12.764   4.294   3.386
57513W        W29773  38.499  40.499  13.039
57514W        W29774  20.524  15.205   0.911
57515W        W29775  12.187  22.018   2.290
57516W        W29776  20.561  35.387   3.247
57517W        W29777  31.100   9.773  12.507
57518W        W29778  24.137  27.609   2.306
57519W        W29779  17.622  24.211   4.813
57520W        W29780  34.035   0.494   2.392
57521W        W29781  26.682   5.904  14.913
57522W        W29782  38.949  10.205  14.991
57523W        W29783  11.812   3.394   1.873
57524W        W29784  40.941   4.259  14.917
57525W        W29785  16.263   8.696   0.293
57526W        W29786  38.948  19.769   0.434
57527W        W29787  40.948  31.600  11.548
57528W        W29788  38.050  10.152  12.965
57529W        W29789  39.928  40.858  13.025
57530W        W29790  44.502  30.975  12.022
57531W        W29791  19.705  21.144   0.740
57532W        W29792  31.530  36.843  13.397
57533W        W29793  20.724   2.246   4.246
57534W        W29794  15.817  42.461   2.407
57535W        W29795  43.323  14.803   0.261
57536W        W29796   8.267  22.559  12.461
57537W        W29797  16.185   3.428   0.248
57538W        W29798  30.643  11.158   0.322
57539W        W29799  43.870  17.253  12.533
57540W        W29800  26.980   2.801   2.390
57541W        W29801  38.917  30.553  11.486
57542W        W29802   8.385  43.935   1.353
57543W        W29803  33.399   4.390   1.867
57544W        W29804   5.229  42.864  10.966
57545W        W29805  24.485   2.323  14.450
57546W        W29806  38.346  43.480   3.790
57547W        W29807  39.500  26.617  10.006
57548W        W29808  36.895  35.990  13.386
57549W        W29809   7.686  40.410  13.832
57550W        W29810  36.435  27.165  11.974
57551W        W29811  39.011  43.306   1.322
57552W        W29812  38.833  42.418  11.904
57553W        W29813   5.278  41.862   3.672
57554W        W29814   3.276  38.468  10.986
57555W        W29815  39.423   9.795  11.466
57556W        W29816  26.677  17.760  10.931
57557W        W29817  40.037  26.097  11.561
57558W        W29818  27.034  44.314  10.620
57559W        W29819  16.742  16.295   2.375
57560W        W29820  30.518  44.430  13.490
57561W        W29821  14.815  40.405  12.562
57562W        W29822   1.387  21.023   1.214
57563W        W29823  30.028  39.870  11.511
57564W        W29824   4.926  23.627  10.019
57565W        W29825  29.945  14.763   0.822
57566W        W29826  42.365  38.026  12.481
57567W        W29827  19.577  10.284  11.511
57568W        W29828  18.581  19.658   2.197
57569W        W29829  16.262   1.805   4.639
57570W        W29830  39.344   9.271  10.136
57571W        W29831  23.110  13.602   3.317
57572W        W29832  32.068  16.645  12.345
57573W        W29833  12.747  20.160  13.916
57574W        W29834   3.381  22.009   2.266
57575W        W29835  40.345  30.490   2.722
57576W        W29836  17.787   3.886  13.402
57577W        W29837  42.945  17.228   0.470
57578W        W29838  34.476  40.035   1.792
57579W        W29839  19.608  18.153  14.310
57580W        W29840  34.915  36.031   3.848
57581W        W29841  39.942  33.973   0.854
57582W        W29842   0.968  35.011  11.127
57583W        W29843   9.205  21.618  10.573
57584W        W29844  11.320  36.562  11.894
57585W        W29845  10.353  43.273  14.466
57586W        W29846  11.669  27.167   4.147
57587W        W29847   8.217  33.545   0.470
57588W        W29848  14.141  15.133   2.777
57589W        W29849  33.008  31.132  12.536
57590W        W29850  16.692  41.305   2.704
57591W        W29851  19.606  44.923   0.828
57592W        W29852   8.309  35.083   4.148
57593W        W29853   5.238  40.447   2.697
57594W        W29854  37.557  19.756  14.836
57595W        W29855  38.378  24.006  14.319
57596W        W29856  28.014  41.848   4.749
57597W        W29857  21.685  40.541  14.414
57598W        W29858  17.745  43.921   4.249
57599W        W29859  15.776  13.805  11.597
57600W        W29860   0.825  37.497  14.358
57601W        W29861   3.460  39.837   1.406
57602W        W29862   4.276  32.918  12.985
57603W        W29863   1.417  37.347  11.900
57604W        W29864  10.381  40.888  10.547
57605W        W29865  10.768  18.764   2.319
57606W        W29866   8.393  20.218   2.769
57607W        W29867   5.845  16.267  14.469
57608W        W29868  30.552   2.418  13.977
57609W        W29869  20.047  19.693  10.915
57610W        W29870  31.509  21.117   0.945
57611W        W29871  44.326   2.347   5.134
57612W        W29872   7.879  33.388   3.685
57613W        W29873   1.332  29.983   3.755
57614W        W29874  43.461  35.014   2.722
57615W        W29875   6.711  39.818   4.259
57616W        W29876  23.993  42.893  11.413
57617W        W29877  26.982  15.229  14.451
57618W        W29878  13.811  37.499  14.397
57619W        W29879   3.866  41.415  14.835
57620W        W29880  19.697  15.221  10.961
57621W        W29881  12.705  24.051   1.394
57622W        W29882  23.001  35.052  11.941
57623W        W29883  29.485   9.773   4.207
57624W        W29884  41.486  32.044   1.721
57625W        W29885  41.030  24.025  11.858
57626W        W29886   4.420  11.219   3.723
57627W        W29887  14.168  36.927  13.327
57628W        W29888  33.589  32.141  14.394
57629W        W29889  10.870  17.685  10.623
57630W        W29890   6.708   7.736   1.262
57631W        W29891  33.429  10.372  12.873
57632W        W29892  28.993  14.184   1.403
57633W        W29893  17.083  38.904   0.807
57634W        W29894  32.126  44.008  14.957
57635W        W29895  20.559   8.679   3.821
57636W        W29896  31.092  30.445   4.626
57637W        W29897  18.207  37.457  12.941
57638W        W29898   3.459  22.157   4.652
57639W        W29899  28.172  40.417   4.694
57640W        W29900  28.006  10.748  14.989
57641W        W29901  23.001  37.839  11.997
57642W        W29902   0.381  35.936  14.968
57643W        W29903  10.340  32.414  13.500
57644W        W29904  44.281  13.744   3.241
57645W        W29905  24.659  42.399  13.364
57646W        W29906   4.877  14.324   2.670
57647W        W29907  24.542  28.930   1.866
57648W        W29908  38.345  40.954  11.927
57649W        W29909  22.083   5.427   2.887
57650W        W29910  20.119  25.017   2.313
57651W        W29911  41.805  44.446  12.004
57652W        W29912  23.712   8.837   4.825
57653W        W29913  37.529  42.031   4.261
57654W        W29914  12.324  38.566  10.997
57655W        W29915  20.656   3.837   3.149
57656W        W29916  22.196  32.520  12.392
57657W        W29917  16.174  35.082   0.337
57658W        W29918  30.461  12.156  14.970
57659W        W29919  12.624  33.388   0.413
57660W        W29920  39.491   6.910  10.429
57661W        W29921  38.921   8.179   0.308
57662W        W29922  32.415  21.593  13.820
57663W        W29923   1.952  16.781   4.262
57664W        W29924  10.744  13.612   0.430
57665W        W29925   5.247  41.388  11.464
57666W        W29926   7.357  44.808   3.300
57667W        W29927  35.463   8.384   4.295
57668W        W29928   4.797   1.792  11.893
57669W        W29929  37.950  13.706  12.894
57670W        W29930  24.021  15.783  14.958
57671W        W29931   9.379   7.399   3.822
57672W        W29932   0.438  32.065  10.571
57673W        W29933  27.983  39.539  13.859
57674W        W29934  33.917  34.474   1.896
57675W        W29935  39.989  39.984   4.832
57676W        W29936  44.435   1.796  11.890
57677W        W29937   6.309  43.880   3.649
57678W        W29938  29.653  44.381   3.727
57679W        W29939  34.907  20.681  14.906
57680W        W29940   6.225  39.008  10.636
57681W        W29941  20.163   6.698  13.874
57682W        W29942   9.354  12.823  13.799
57683W        W29943  13.336  17.788   3.685
57684W        W29944  37.925   0.394   2.220
57685W        W29945   0.884  34.398   0.344
57686W        W29946  33.481  39.369   4.266
57687W        W29947  41.955   8.763   4.756
57688W        W29948  21.113   8.811  14.029
57689W        W29949  17.235  39.004  11.576
57690W        W29950  36.869  43.794   1.695
57691W        W29951  16.169  44.911  14.495
57692W        W29952  15.323  31.471   1.236
57693W        W29953  44.911   2.252   1.310
57694W        W29954  14.663  37.449   0.967
57695W        W29955  13.793  34.969  11.598
57696W        W29956  33.897  40.316   0.795
57697W        W29957   2.800  28.674  14.932
57698W        W29958   9.662  23.598  10.528
57699W        W29959  23.097  44.832  14.804
57700W        W29960  14.684  38.970  12.529
57701W        W29961   7.269  32.064  10.508
57702W        W29962  13.745  24.650  14.462
57703W        W29963   5.211  23.682  12.978
57704W        W29964  39.435  20.259  11.386
57705W        W29965  13.283  14.754   4.682
57706W        W29966   3.890  44.396   1.757
57707W        W29967  29.433  15.180  14.964
57708W        W29968   6.218  21.533   3.241
57709W        W29969  23.086  19.568   0.773
57710W        W29970  19.067  43.332   1.268
57711W        W29971  20.749  31.109  13.537
57712W        W29972  10.697  26.698   0.764
57713W        W29973  31.639  26.591  13.427
57714W        W29974   6.909  22.193  14.801
57715W        W29975  29.569  20.203   3.816
57716W        W29976  23.123  34.525  12.512
57717W        W29977  26.526  15.216  13.876
57718W        W29978  41.529  42.504   2.850
57719W        W29979  31.021   9.269   3.216
57720W        W29980   0.971  37.002  13.373
57721W        W29981  44.309  42.390  14.905
57722W        W29982  22.658  16.247  12.908
57723W        W29983  32.459  43.418  11.420
57724W        W29984  31.998   0.290  12.935
57725W        W29985  12.233  36.955  11.543
57726W        W29986  34.895  39.354   3.796
57727W        W29987  40.313   4.356  12.364
57728W        W29988  16.117  11.328  10.959
57729W        W29989  31.569   6.774  10.456
57730W        W29990  20.058   5.865  10.619
57731W        W29991   6.802  36.914   4.305
57732W        W29992  35.551  13.701   3.654
57733W        W29993   4.748  10.203   2.701
57734W        W29994  38.927  27.144  12.061
57735W        W29995  36.062  32.467   0.783
57736W        W29996  18.610   9.796   4.322
57737W        W29997   0.370   2.871   1.253
57738W        W29998  35.086   8.294  10.588
57739W        W29999  24.542  37.555  11.434
57740W        W30000  10.666  23.067   1.741
57741W        W30001  25.096  18.614   5.151
57742W        W30002  24.157  17.064   1.275
57743W        W30003  19.168  37.049   1.215
57744W        W30004   8.755  11.245   3.367
57745W        W30005  36.871  38.055   0.287
57746W        W30006  29.113  30.521  10.644
57747W        W30007   7.234  43.945   3.725
57748W        W30008  43.010  22.598   0.913
57749W        W30009   7.250   3.790  10.608
57750W        W30010  25.200  32.038  13.948
57751W        W30011  26.998   8.797  14.877
57752W        W30012  11.632   5.840  14.794
57753W        W30013  21.225   2.888   0.264
57754W        W30014  15.600  21.198  14.908
57755W        W30015  26.020  15.172   2.336
57756W        W30016  33.035  19.198   1.378
57757W        W30017  42.828  33.433  12.556
57758W        W30018  30.154  33.476   0.357
57759W        W30019  18.234  27.013   4.599
57760W        W30020  43.360  44.894   1.306
57761W        W30021  27.187  23.015   0.812
57762W        W30022  31.473  15.763   2.884
57763W        W30023  24.654   2.825   2.217
57764W        W30024  38.850  41.298  13.500
57765W        W30025  34.060  32.593  13.878
57766W        W30026  38.919  15.144   3.272
57767W        W30027  30.582  21.156   1.331
57768W        W30028   7.907  20.098   1.415
57769W        W30029  36.568  22.202  14.769
57770W        W30030   0.742  32.411   2.305
57771W        W30031  15.728  44.906  13.865
57772W        W30032  16.271  40.972   4.199
57773W        W30033  20.116  14.676   3.830
57774W        W30034  17.751  25.545  13.905
57775W        W30035  37.948  26.031  14.344
57776W        W30036  42.778  39.391   1.742
57777W        W30037   1.843  39.817  13.863
57778W        W30038  14.700  28.569  12.570
57779W        W30039  33.119  10.228  10.138
57780W        W30040  10.697  41.515   4.339
57781W        W30041   9.856  35.917   1.727
57782W        W30042  18.665   8.858  11.429
57783W        W30043  34.958   9.813  14.372
57784W        W30044   4.808   6.847   4.775
57785W        W30045  23.649  20.097   0.947
57786W        W30046  22.594  28.016  13.535
57787W        W30047  37.921  35.901   0.302
57788W        W30048  26.962  14.589   0.869
57789W        W30049  28.554  30.984  11.535
57790W        W30050  31.137  18.197   0.423
57791W        W30051  37.344  10.337   3.801
57792W        W30052   7.173  19.745   5.202
57793W        W30053  41.810  25.658  10.586
57794W        W30054  15.735   3.241  13.439
57795W        W30055  16.796   5.908  12.882
57796W        W30056  11.749  21.647   0.310
57797W        W30057  26.096   9.286  11.960
57798W        W30058  36.000  18.203  13.376
57799W        W30059   4.927  22.517   5.105
57800W        W30060  42.392  38.034   0.357
57801W        W30061  39.380  31.071  12.364
57802W        W30062  37.566  22.093   2.809
57803W        W30063  32.493  13.602   1.722
57804W        W30064   4.821  18.057   0.324
57805W        W30065  26.049   6.814   4.331
57806W        W30066  21.590  38.464   2.312
57807W        W30067  31.959  23.521  11.070
57808W        W30068  16.682  22.133  12.425
57809W        W30069  41.536  10.785  13.811
57810W        W30070  44.438  39.932   4.665
57811W        W30071  25.147  44.446   2.256
57812W        W30072   7.800  23.992   3.375
57813W        W30073  40.437  16.610   0.822
57814W        W30074   3.229  18.104  12.507
57815W        W30075  16.291   0.764   2.336
57816W        W30076  44.368  24.214   2.729
57817W        W30077  35.892  23.237   4.137
57818W        W30078  37.577   4.729  10.964
57819W        W30079  40.342  40.839   0.825
57820W        W30080   0.256  26.548  14.310
57821W        W30081  39.887   9.677   2.710
57822W        W30082  44.873  25.159   5.226
57823W        W30083  28.011  41.361  14.844
57824W        W30084  22.628  23.005  12.395
57825W        W30085  40.536  12.273   3.240
57826W        W30086  37.976  23.072  14.343
57827W        W30087  22.740  36.066  11.022
57828W        W30088  14.637  32.118   3.185
57829W        W30089  17.555  15.802   3.338
57830W        W30090  40.516  20.088  10.448
57831W        W30091  15.788  13.812  11.008
57832W        W30092  25.661   7.357   2.255
57833W        W30093  36.092  33.969  14.763
57834W        W30094   5.716  29.051  14.321
57835W        W30095  13.647  10.151  11.953
57836W        W30096  42.521  35.084  10.534
57837W        W30097  28.519  11.254  13.400
57838W        W30098  36.541   5.309   3.347
57839W        W30099   6.384   7.797  11.043
57840W        W30100  36.554  15.803   2.334
57841W        W30101  35.952   4.937   3.349
57842W        W30102  29.008  28.528   2.706
57843W        W30103  20.137  34.405  11.939
57844W        W30104  35.408  41.337  14.406
57845W        W30105   4.312  19.574  13.860
57846W        W30106  42.301  29.629  12.971
57847W        W30107  36.501  40.492  12.041
57848W        W30108  35.930  21.020  12.467
57849W        W30109  17.754  11.782  11.524
57850W        W30110   7.682  44.812   0.259
57851W        W30111   6.221  32.405   3.262
57852W        W30112  35.564  29.521   0.441
57853W        W30113  40.842  38.400  13.983
57854W        W30114  26.191   4.781  14.914
57855W        W30115   2.772  41.820   4.788
57856W        W30116  31.620  40.363   0.961
57857W        W30117  16.086  24.012   3.847
57858W        W30118  36.942  21.664   0.266
57859W        W30119  20.558  33.028   1.426
57860W        W30120  40.497  41.475  14.878
57861W        W30121   7.283   7.342   3.699
57862W        W30122  15.262  25.208   0.425
57863W        W30123   9.696  10.203  10.629
57864W        W30124  41.953  23.675   0.810
57865W        W30125  12.273  19.181  11.122
57866W        W30126  44.283  27.598   1.449
57867W        W30127   5.760  40.467   1.730
57868W        W30128  29.435  34.452   3.698
57869W        W30129  20.701   0.969  11.383
57870W        W30130  33.598  14.731   9.931
57871W        W30131   0.867   0.435   2.734
57872W        W30132  35.906  37.976   0.443
57873W        W30133  17.726  34.937   3.369
57874W        W30134  28.956  30.927   1.719
57875W        W30135  14.752  23.591  13.813
57876W        W30136  31.593   4.337  11.540
57877W        W30137   4.916  18.193  11.969
57878W        W30138  11.245  33.058   2.757
57879W        W30139  36.364  27.992  10.000
57880W        W30140  15.242   6.691  14.778
57881W        W30141  42.891   5.928  14.277
57882W        W30142  32.418  42.935  12.564
57883W        W30143  24.697   1.817   1.273
57884W        W30144   1.968  30.014   3.823
57885W        W30145   5.705   7.730   2.667
57886W        W30146  32.072   5.785   1.351
57887W        W30147   6.286  44.830   1.223
57888W        W30148   9.692  11.357   0.754
57889W        W30149  40.933  15.304  14.297
57890W        W30150  39.047  37.444  10.440
57891W        W30151  12.316  37.438  13.445
57892W        W30152  13.748  15.765   3.216
57893W        W30153  10.250  11.819  12.526
57894W        W30154  12.787  36.528   1.216
57895W        W30155  33.933  27.113  10.543
57896W        W30156   8.895  33.016   3.174
57897W        W30157   9.833  35.079  11.949
57898W        W30158  10.728  27.026  13.031
57899W        W30159   8.361  20.166   4.756
57900W        W30160  10.788   1.803   0.465
57901W        W30161  29.513   0.474  11.030
57902W        W30162   2.243  27.645   4.760
57903W        W30163   5.213  40.481   1.395
57904W        W30164  41.807   3.867   0.892
57905W        W30165  20.527  41.984  14.279
57906W        W30166  16.570  26.660  14.814
57907W        W30167  12.148   4.900  13.963
57908W        W30168  17.724  18.104  11.867
57909W        W30169   1.884  43.846   0.248
57910W        W30170  18.226  14.105  13.009
57911W        W30171   0.807  37.397   9.972
57912W        W30172  24.114  10.261   4.149
57913W        W30173  40.885   3.248  12.837
57914W        W30174  17.592  30.519  13.987
57915W        W30175  20.119   8.829  10.490
57916W        W30176  16.270  29.992  12.002
57917W        W30177  42.496  25.484   0.255
57918W        W30178  40.423   8.235   2.890
57919W        W30179   9.393  27.967  10.420
57920W        W30180  34.890  12.643   3.264
57921W        W30181  21.754   3.305   4.176
57922W        W30182  13.755  35.449  10.973
57923W        W30183  44.390   6.893   0.847
57924W        W30184   1.858   7.313  12.361
57925W        W30185  30.444  28.608  10.544
57926W        W30186  41.940  18.607  14.482
57927W        W30187  18.699  11.159   1.913
57928W        W30188  23.728  15.631  13.945
57929W        W30189  26.612  21.216   1.431
57930W        W30190   1.371  33.483  10.489
57931W        W30191  38.848   3.378  12.927
57932W        W30192  19.136  32.482  14.964
57933W        W30193   5.313  33.499  13.016
57934W        W30194  11.813   4.371   0.463
57935W        W30195   3.263   3.331  11.531
57936W        W30196  39.980  25.181  11.091
57937W        W30197   6.304  44.451  13.440
57938W        W30198   6.825  18.760   4.314
57939W        W30199   3.389  21.640  12.355
57940W        W30200  26.963  34.973   0.809
57941W        W30201  22.611  12.279   3.819
57942W        W30202  17.648   6.733   2.894
57943W        W30203  24.009  35.982   1.902
57944W        W30204   0.820   5.788  11.479
57945W        W30205  22.551  35.942  11.978
57946W        W30206  29.044   6.422  13.444
57947W        W30207  28.141  41.933   5.238
57948W        W30208  12.267   3.849  11.573
57949W        W30209  17.641  29.605  13.479
57950W        W30210  12.740  15.807  13.444
57951W        W30211  18.783  18.586   3.262
57952W        W30212   4.436   4.736  12.841
57953W        W30213  17.641  30.022   4.186
57954W        W30214  18.781  17.707   2.818
57955W        W30215  35.916  29.464   0.843
57956W        W30216  14.278  40.856  12.079
57957W        W30217  18.140   0.275   0.727
57958W        W30218  36.492  37.526  12.354
57959W        W30219   1.887   8.360   0.888
57960W        W30220   2.904  28.582   1.773
57961W        W30221  14.644  41.301   1.780
57962W        W30222  39.018   3.360  14.343
57963W        W30223  13.637   4.707   0.310
57964W        W30224  21.709  32.480   3.345
57965W        W30225   7.723  17.747   4.165
57966W        W30226  12.679  15.595  11.903
57967W        W30227  30.067  23.648   2.867
57968W        W30228  20.720   0.367  14.358
57969W        W30229  16.598  16.688   1.366
57970W        W30230  19.779   7.300   2.179
57971W        W30231  40.827  42.983   1.858
57972W        W30232  21.570  25.141  12.435
57973W        W30233   5.908  40.473   1.245
57974W        W30234   4.330  12.815   0.738
57975W        W30235  15.653  39.450  10.551
57976W        W30236   1.401  32.465   2.895
57977W        W30237  30.641  29.051   3.167
57978W        W30238  32.034  23.730  13.485
57979W        W30239  32.609   6.281  13.903
57980W        W30240  20.528  12.122  11.416
57981W        W30241  21.725  23.177   4.317
57982W        W30242  26.193  30.028  13.398
57983W        W30243  30.052   0.454  14.758
57984W        W30244  17.086  30.157   1.762
57985W        W30245  37.940  41.946   1.441
57986W        W30246  36.878   9.251   0.820
57987W        W30247   4.924  19.173   3.304
57988W        W30248  18.111  40.426   3.356
57989W        W30249  22.546  28.178   1.787
57990W        W30250  35.417   6.736   0.466
57991W        W30251   3.920  34.588  14.965
57992W        W30252  19.177  12.795   1.325
57993W        W30253  18.634  24.992  12.994
57994W        W30254  10.781  14.144  13.331
57995W        W30255  23.542  13.694  12.048
57996W        W30256  22.640  36.938  12.001
57997W        W30257  42.996   0.787  10.973
57998W        W30258  40.398   6.311  10.918
57999W        W30259   4.393  25.691   4.347
58000W        W30260  22.248  38.075   2.353
58001W        W30261  10.164   5.272   3.828
58002W        W30262  21.592  22.573   3.815
58003W        W30263  14.716  29.964   9.951
58004W        W30264  39.050  35.940   0.295
58005W        W30265  18.266  21.049  11.996
58006W        W30266  13.627  40.326  12.439
58007W        W30267  25.079   6.858  11.078
58008W        W30268  27.613   1.332  12.507
58009W        W30269  40.353   1.390  14.986
58010W        W30270  12.810  11.693   1.394
58011W        W30271  33.896  42.384  11.070
58012W        W30272  25.154  20.538   1.289
58013W        W30273  27.073  34.463  14.286
58014W        W30274  32.961  17.575  10.436
58015W        W30275  26.976   3.714   3.638
58016W        W30276  43.289   3.241   4.687
58017W        W30277  20.534  35.580   0.443
58018W        W30278  19.178  38.404   3.190
58019W        W30279  16.152  37.929   0.294
58020W        W30280  39.989   9.783   0.918
58021W        W30281  29.986  21.610  13.864
58022W        W30282  12.223  34.994   4.341
58023W        W30283  35.417  23.697   3.247
58024W        W30284  31.040   4.244   1.388
58025W        W30285  29.527  36.045  10.457
58026W        W30286  20.556  43.863   4.223
58027W        W30287  17.595   4.293   4.128
58028W        W30288  25.188   9.205  14.975
58029W        W30289  28.675   9.725   0.860
58030W        W30290  15.323  41.851   3.706
58031W        W30291   8.249  37.446  10.582
58032W        W30292  26.963  30.465   1.788
58033W        W30293  22.723  18.231  13.360
58034W        W30294  37.978   9.260   4.256
58035W        W30295  33.958  28.036   3.733
58036W        W30296   7.186   0.289  12.882
58037W        W30297  30.151  24.505   4.715
58038W        W30298  13.709  18.694  13.049
58039W        W30299  37.877  21.677   4.768
58040W        W30300  36.965  41.496  13.889
58041W        W30301  12.712  25.703  11.546
58042W        W30302  35.910  15.183   3.192
58043W        W30303  13.183  12.812   2.805
58044W        W30304  10.352  44.354  10.952
58045W        W30305   6.717  38.993   0.249
58046W        W30306  26.001  40.402  11.432
58047W        W30307  44.836  30.117  12.371
58048W        W30308   8.272  27.677  10.110
58049W        W30309  31.558  12.280  12.850
58050W        W30310  32.042   7.283   2.246
58051W        W30311  24.147  17.609  13.858
58052W        W30312  26.509  15.770   5.166
58053W        W30313   8.781   9.846  13.056
58054W        W30314  24.565  29.507   1.778
58055W        W30315  41.851   1.434  11.536
58056W        W30316   0.305  10.823  14.514
58057W        W30317   3.404  11.201  11.913
58058W        W30318  28.500  33.450  10.521
58059W        W30319  11.816   0.318  10.081
58060W        W30320   0.949   9.683  10.562
58061W        W30321  15.737   1.879  12.964
58062W        W30322  26.491   7.331   5.108
58063W        W30323  17.754  10.682  11.404
58064W        W30324  37.898  24.981   0.356
58065W        W30325  41.325  44.413   2.184
58066W        W30326  19.754  30.591  11.027
58067W        W30327  24.532  19.750  11.961
58068W        W30328  34.119   5.743   3.758
58069W        W30329  43.837   6.377   4.820
58070W        W30330  39.467  14.790  12.352
58071W        W30331  20.096  44.866   3.149
58072W        W30332  35.991  34.085  14.321
58073W        W30333   5.854  16.653  14.796
58074W        W30334  32.017  26.556   0.798
58075W        W30335  42.984  21.175   4.676
58076W        W30336  42.487  14.260   0.946
58077W        W30337  21.044   9.876  13.989
58078W        W30338  24.094  10.376  12.428
58079W        W30339  13.628  33.067  11.959
58080W        W30340   2.457  43.012   2.396
58081W        W30341  11.824  31.641  10.416
58082W        W30342  38.522  41.411  13.898
58083W        W30343  22.067  42.362   0.833
58084W        W30344  41.868   2.908   3.711
58085W        W30345   9.327   9.153   2.697
58086W        W30346  35.092  10.332  11.970
58087W        W30347  28.933  31.444   5.294
58088W        W30348   6.295  22.569   0.483
58089W        W30349  34.565  18.699   9.985
58090W        W30350  23.505  34.872  13.546
58091W        W30351  17.105  23.063   0.419
58092W        W30352  10.380  15.283  11.459
58093W        W30353   5.924  15.728   3.679
58094W        W30354  41.490  16.706  14.353
58095W        W30355   6.894  36.467  14.381
58096W        W30356  32.442  39.929   0.947
58097W        W30357   9.772  15.185   4.774
58098W        W30358  21.192  20.561   2.677
58099W        W30359   1.808  17.082  11.075
58100W        W30360   5.205   7.240   2.731
58101W        W30361  26.663  32.125   2.819
58102W        W30362  16.228   9.153   3.654
58103W        W30363   4.353   2.299   1.802
58104W        W30364   9.765  35.881   1.393
58105W        W30365   5.439  15.651  11.502
58106W        W30366   3.241   3.765  11.998
58107W        W30367  43.919  13.675   0.958
58108W        W30368  32.958  19.062   2.275
58109W        W30369  14.094   6.791  12.463
58110W        W30370  36.430  11.694   2.882
58111W        W30371  10.371   2.926   1.264
58112W        W30372   7.255   0.267  14.028
58113W        W30373  18.099   8.721   1.724
58114W        W30374   4.924  19.074   0.941
58115W        W30375  34.112   8.243  12.341
58116W        W30376  23.611  22.523  13.418
58117W        W30377   7.201  42.285   1.835
58118W        W30378  33.451  16.699  12.835
58119W        W30379  26.026   7.676   2.806
58120W        W30380  38.864  28.127  14.824
58121W        W30381   7.768  32.964   0.956
58122W        W30382  16.185  24.132  14.432
58123W        W30383  27.089  23.709  10.406
58124W        W30384   2.761  40.302  11.098
58125W        W30385  41.965  28.037   3.250
58126W        W30386   0.332   3.269  10.560
58127W        W30387  34.396  33.611  11.597
58128W        W30388   3.358  20.688   0.299
58129W        W30389   7.304  39.850   0.866
58130W        W30390  34.486  23.726   0.285
58131W        W30391  31.573  20.634  10.507
58132W        W30392  34.013  38.932  11.557
58133W        W30393   4.718  12.728  12.535
58134W        W30394  21.619  39.811   1.935
58135W        W30395  42.835   9.391   2.757
58136W        W30396  34.064  30.939   1.267
58137W        W30397  12.342  43.877  12.346
58138W        W30398   7.250  26.002   2.707
58139W        W30399  37.553  43.015   2.190
58140W        W30400   5.847  41.325   4.244
58141W        W30401  20.700  25.077  14.868
58142W        W30402   6.314   1.247  12.480
58143W        W30403  29.634  24.159   3.174
58144W        W30404  16.775  32.050   2.291
58145W        W30405   1.940  44.878  12.014
58146W        W30406  24.016  20.696   4.784
58147W        W30407   8.267   8.306  10.921
58148W        W30408  31.464   1.427   3.672
58149W        W30409  19.766   8.245  11.593
58150W        W30410  20.095  15.814  11.433
58151W        W30411  30.459  26.972  13.376
58152W        W30412  26.105  35.553  12.388
58153W        W30413   7.707  16.199  12.047
58154W        W30414  32.504  27.504   3.231
58155W        W30415  12.769  21.017   0.319
58156W        W30416  19.760   8.812   9.940
58157W        W30417  20.161   5.702  11.502
58158W        W30418  12.159  42.914  12.455
58159W        W30419  42.849  16.206   3.743
58160W        W30420   6.236  40.338  11.409
58161W        W30421   5.315  20.763   1.215
58162W        W30422  40.404   6.357  12.046
58163W        W30423  37.431  20.708  13.534
58164W        W30424  26.124  18.709  14.286
58165W        W30425  40.385  34.397  11.517
58166W        W30426   7.807  15.632   5.305
58167W        W30427  40.354   4.215   4.779
58168W        W30428   3.713   7.866  10.523
58169W        W30429  19.256  19.194   0.251
58170W        W30430  30.917  36.864  13.473
58171W        W30431  44.385  18.769  13.411
58172W        W30432  14.598  18.676   2.192
58173W        W30433   7.801   5.334  13.008
58174W        W30434  30.580  33.616   4.307
58175W        W30435  25.559  39.000  11.019
58176W        W30436  41.877  30.415  13.469
58177W        W30437  35.409  14.182   5.144
58178W        W30438  20.080  16.201  13.548
58179W        W30439   9.245   0.855   2.183
58180W        W30440  32.111   1.797   3.826
58181W        W30441  17.215  31.566   1.751
58182W        W30442  29.069  29.599   3.293
58183W        W30443   4.250  38.336  10.950
58184W        W30444  41.798  23.193  13.863
58185W        W30445  33.009  18.271  10.638
58186W        W30446  17.771  22.502  12.905
58187W        W30447  18.118  40.423   3.725
58188W        W30448  12.744  14.296  13.827
58189W        W30449  38.991  11.298  12.542
58190W        W30450   4.739  32.968   0.837
58191W        W30451  36.462   0.385  12.894
58192W        W30452  44.933  41.417   1.869
58193W        W30453  10.305   4.312  14.442
58194W        W30454  33.411  37.474   2.791
58195W        W30455  24.713   7.732  13.058
58196W        W30456  28.994  35.870   0.727
58197W        W30457  13.624  42.990  11.540
58198W        W30458  24.186  31.505  13.819
58199W        W30459  43.990  22.507  12.452
58200W        W30460   7.764   1.399  13.953
58201W        W30461  25.643  27.053   0.968
58202W        W30462  21.158  27.650  10.514
58203W        W30463  43.297  16.299  11.552
58204W        W30464  43.809  31.477   1.914
58205W        W30465   2.867  24.167  10.406
58206W        W30466   5.896  37.441  11.397
58207W        W30467   6.297  22.149   4.225
58208W        W30468  14.648  29.555  13.926
58209W        W30469   6.734  10.647  13.533
58210W        W30470  33.464   9.823   4.622
58211W        W30471  41.786  40.413   1.774
58212W        W30472  28.540  42.923   0.465
58213W        W30473  20.070  34.595  13.917
58214W        W30474  22.028  21.558   0.418
58215W        W30475  16.243  44.900   2.717
58216W        W30476  34.107  42.454   3.299
58217W        W30477   4.376   8.161   2.322
58218W        W30478   7.733  28.501   4.632
58219W        W30479  24.707  44.300  12.078
58220W        W30480  36.066  19.615  11.455
58221W        W30481  36.082  17.797  14.847
58222W        W30482   5.903   0.416  13.338
58223W        W30483  43.336  31.419   0.476
58224W        W30484  41.813   6.687  12.404
58225W        W30485   3.278  24.069  12.955
58226W        W30486   5.841   4.391   0.786
58227W        W30487  16.717  43.480  13.409
58228W        W30488  13.289   8.848   4.741
58229W        W30489  34.453  14.280  11.533
58230W        W30490  38.414  34.094   1.890
58231W        W30491  29.519  21.743  10.463
58232W        W30492  34.555  14.193  13.991
58233W        W30493  43.353  23.180  10.908
58234W        W30494  14.813  15.236   2.792
58235W        W30495  28.594   6.761   3.822
58236W        W30496  35.459  14.746   1.913
58237W        W30497   9.770   3.287   3.188
58238W        W30498  12.725  20.570  12.071
58239W        W30499  27.966   7.763  12.980
58240W        W30500  18.587  22.152  12.850
58241W        W30501   0.790  37.864  12.393
58242W        W30502   3.453  36.480  14.477
58243W        W30503   0.761  14.193  11.403
58244W        W30504  10.232   0.917  13.844
58245W        W30505   0.757  20.633   0.469
58246W        W30506  22.679  16.765   3.825
58247W        W30507   4.787  20.613   2.786
58248W        W30508  26.513  41.915   0.760
58249W        W30509  31.127  22.071  11.381
58250W        W30510   6.385  20.145  13.483
58251W        W30511   7.810  36.878   0.767
58252W        W30512  18.107  42.834   0.829
58253W        W30513  31.616  20.146   1.258
58254W        W30514  26.491  42.524  10.977
58255W        W30515  34.102  37.929   1.916
58256W        W30516  18.693   3.377   3.371
58257W        W30517  23.009  38.882  14.788
58258W        W30518  19.188  41.404  11.965
58259W        W30519  39.523   2.452   4.815
58260W        W30520   5.891  41.445  12.347
58261W        W30521  42.507  34.081   0.263
58262W        W30522   8.804  16.754  12.521
58263W        W30523  36.485   5.305   2.719
58264W        W30524  37.386   2.778  14.301
58265W        W30525   1.483  15.329   2.319
58266W        W30526  37.550  28.584   2.839
58267W        W30527  25.666   0.307   4.831
58268W        W30528  28.524  33.581   2.764
58269W        W30529  31.564  32.455  10.130
58270W        W30530  25.992  28.529  12.544
58271W        W30531  34.985  12.620   1.765
58272W        W30532   4.232  19.665  11.873
58273W        W30533  27.508   1.314   3.262
58274W        W30534  30.435  21.076   4.179
58275W        W30535  37.546  39.852  12.570
58276W        W30536  26.997  23.985   4.793
58277W        W30537   5.213   3.274   1.726
58278W        W30538  40.920  22.167  11.039
58279W        W30539   8.776  38.444   2.221
58280W        W30540  36.071  24.571  13.988
58281W        W30541  13.151   6.299   5.247
58282W        W30542  41.310  41.507   3.255
58283W        W30543  13.190   4.359   0.855
58284W        W30544  27.456  21.614  10.504
58285W        W30545   8.291   6.825   1.910
58286W        W30546  20.704  20.714   1.933
58287W        W30547  36.495   6.762  14.334
58288W        W30548   6.782  27.565   2.384
58289W        W30549  33.989   0.438  13.002
58290W        W30550   3.786  39.428   0.776
58291W        W30551   9.155  38.874   5.099
58292W        W30552   5.801  39.908  14.924
58293W        W30553  39.383  31.124   2.802
58294W        W30554  28.475   1.470  12.397
58295W        W30555   0.371  43.428  12.039
58296W        W30556  29.641  36.369  10.629
58297W        W30557  36.994   5.923   0.849
58298W        W30558   5.736  23.599  14.307
58299W        W30559  20.677   1.811  12.393
58300W        W30560  41.345  22.123  14.400
58301W        W30561  16.758   0.483  11.871
58302W        W30562   4.386  18.242   1.818
58303W        W30563  23.041   0.291  13.482
58304W        W30564  23.623  11.286   0.901
58305W        W30565   5.799   6.231   3.354
58306W        W30566  34.577  32.422  11.899
58307W        W30567  27.966  17.701  12.974
58308W        W30568  11.828  16.738  11.085
58309W        W30569  36.419   8.875   2.335
58310W        W30570  14.614  16.081   1.245
58311W        W30571   1.378   8.716   1.759
58312W        W30572  20.158  22.727   0.345
58313W        W30573  39.820   2.327  13.949
58314W        W30574  23.491   0.393   1.705
58315W        W30575  31.420  36.548  11.960
58316W        W30576  30.087   6.242  12.524
58317W        W30577  18.567  44.415   0.419
58318W        W30578  19.707  27.662   2.334
58319W        W30579  34.600  22.718   0.417
58320W        W30580  13.218  25.186   1.255
58321W        W30581  44.922  19.621  11.413
58322W        W30582  44.412  23.132   0.958
58323W        W30583  13.706   1.263   4.707
58324W        W30584  23.706  11.148   3.800
58325W        W30585   3.223  41.358  11.013
58326W        W30586  14.170  15.215  11.023
58327W        W30587  15.263  34.942  11.957
58328W        W30588  10.818   2.852   0.821
58329W        W30589  11.348  39.924  11.935
58330W        W30590   7.890  12.817  13.876
58331W        W30591  19.741   6.184  11.874
58332W        W30592  36.956  25.682  14.888
58333W        W30593  21.555   1.837  12.062
58334W        W30594  35.037  20.182  14.331
58335W        W30595  43.367  22.147  12.394
58336W        W30596  13.626  31.958  11.520
58337W        W30597  23.587  17.073   0.732
58338W        W30598  21.066  37.922  12.390
58339W        W30599   1.274  10.216  12.864
58340W        W30600  32.588  24.631  11.057
58341W        W30601  26.694  24.116   4.143
58342W        W30602  40.019   8.823  14.302
58343W        W30603  26.988  19.115  12.429
58344W        W30604   9.281  11.200   3.869
58345W        W30605  18.681  41.801  14.299
58346W        W30606  27.537  26.000  12.976
58347W        W30607  19.133   1.365   4.158
58348W        W30608  33.568  24.007   1.420
58349W        W30609  33.983  22.009  14.863
58350W        W30610  34.059  28.566  14.803
58351W        W30611  26.622  22.058  13.968
58352W        W30612  39.372  38.965   4.168
58353W        W30613   2.454  38.904  11.104
58354W        W30614  44.498  23.735  12.382
58355W        W30615  21.551   7.707  13.833
58356W        W30616   7.863  34.969  14.933
58357W        W30617  17.665  14.826  10.451
58358W        W30618  31.934  16.242   2.703
58359W        W30619  28.029  12.852   3.831
58360W        W30620  28.499   1.965   3.785
58361W        W30621  37.521  29.984  14.009
58362W        W30622  30.606  37.532   1.289
58363W        W30623  29.568   2.307   4.263
58364W        W30624  33.399  25.629  13.053
58365W        W30625  33.429  42.320  13.382
58366W        W30626  21.264   5.868  12.032
58367W        W30627   9.771   6.384  12.919
58368W        W30628  13.811  14.785  14.893
58369W        W30629  21.165  10.737   3.304
58370W        W30630  16.575  38.493  13.544
58371W        W30631  15.086  37.576   2.306
58372W        W30632  25.081  40.044  11.414
58373W        W30633   4.938   3.411  10.016
58374W        W30634  30.631  18.732   1.785
58375W        W30635  26.997  13.795   4.149
58376W        W30636   8.301  23.037  14.391
58377W        W30637  24.150   1.883  12.441
58378W        W30638  31.639  43.985   0.837
58379W        W30639  18.726  38.567  13.457
58380W        W30640  14.103  18.706   2.903
58381W        W30641   9.695  44.459   4.774
58382W        W30642  10.264  25.035  10.091
58383W        W30643   3.369   5.217  10.563
58384W        W30644  24.087  42.390  13.857
58385W        W30645  44.915  36.521   1.238
58386W        W30646  28.997  12.658  13.386
58387W        W30647  43.974  29.600  13.855
58388W        W30648  15.710   6.357  14.961
58389W        W30649  38.017  25.661  14.383
58390W        W30650  19.227  12.639   3.757
58391W        W30651  12.747  43.496   4.120
58392W        W30652  18.602  42.843   2.794
58393W        W30653  35.508  21.166   4.298
58394W        W30654  25.970  24.087   3.371
58395W        W30655  36.014  23.712   4.693
58396W        W30656  27.526   3.809   3.672
58397W        W30657   9.175  33.434   3.382
58398W        W30658  39.993   6.813  10.571
58399W        W30659  16.099  14.694   9.673
58400W        W30660   5.775  12.339   4.730
58401W        W30661   7.855  39.928  12.397
58402W        W30662  15.173   5.808  10.914
58403W        W30663  40.346  32.044   1.306
58404W        W30664  29.460  10.263  13.847
58405W        W30665  26.488  24.667   2.766
58406W        W30666  11.280  39.997   0.456
58407W        W30667  22.155  18.285  13.017
58408W        W30668  26.007  33.616  10.904
58409W        W30669  15.644  13.276   0.753
58410W        W30670  41.978  23.009  10.434
58411W        W30671  40.447  15.100  13.321
58412W        W30672   8.197   6.707   2.284
58413W        W30673  33.460  24.136   3.385
58414W        W30674   3.828  26.031  13.545
58415W        W30675  23.024  39.498  12.883
58416W        W30676   3.234  34.405   2.255
58417W        W30677  36.548  15.757  14.999
58418W        W30678   8.184  31.529   2.212
58419W        W30679  44.299  28.147   1.900
58420W        W30680   4.435  30.545  14.992
58421W        W30681  31.912  27.490   3.702
58422W        W30682  26.132  17.785   1.855
58423W        W30683  16.164  12.145   1.297
58424W        W30684   5.909   3.287   0.879
58425W        W30685  43.359  10.165   0.951
58426W        W30686  44.841  18.123   5.126
58427W        W30687  12.836  33.484   1.898
58428W        W30688   1.790  26.478  10.059
58429W        W30689   6.748   8.707  11.889
58430W        W30690  22.596  25.107   2.235
58431W        W30691  35.474   4.699  14.384
58432W        W30692  27.169  33.051  11.006
58433W        W30693  40.327  29.024  14.009
58434W        W30694  27.979  32.463   1.344
58435W        W30695  27.072  15.147   1.355
58436W        W30696  31.908  16.091  12.407
58437W        W30697  30.152   5.745  14.412
58438W        W30698  24.997  30.942   3.178
58439W        W30699  25.134  40.967  11.105
58440W        W30700  11.254  22.549  10.968
58441W        W30701  19.096  38.466  13.866
58442W        W30702  38.024  23.644   0.956
58443W        W30703  41.293  23.584   4.827
58444W        W30704  28.511   9.366  11.482
58445W        W30705  20.526  21.126  14.916
58446W        W30706   5.249  25.111   0.775
58447W        W30707  38.036  12.344  12.836
58448W        W30708  14.110  21.647   0.477
58449W        W30709  13.829  24.560   1.382
58450W        W30710   1.824  36.409   1.726
58451W        W30711  19.044  44.944   2.825
58452W        W30712  16.796  22.738   2.351
58453W        W30713  24.142   2.778   3.747
58454W        W30714  21.515   6.318  11.519
58455W        W30715  19.616   8.835  14.006
58456W        W30716  44.783  43.881  10.642
58457W        W30717   5.253  28.678   2.354
58458W        W30718  23.509  28.075   3.653
58459W        W30719  16.153   8.767  14.374
58460W        W30720  37.457  15.239   3.222
58461W        W30721  24.070   7.879  11.896
58462W        W30722  12.814  11.191   3.868
58463W        W30723   3.889  12.329  10.645
58464W        W30724  22.570  38.972  12.379
58465W        W30725  18.592  33.576   2.321
58466W        W30726  13.688  16.665   0.922
58467W        W30727   8.866   8.261   4.660
58468W        W30728  20.704  13.182  13.905
58469W        W30729  25.963  31.984  14.009
58470W        W30730  32.506  24.105   4.314
58471W        W30731  36.582  33.598  13.383
58472W        W30732  37.458  24.019  14.292
58473W        W30733  33.387  40.926   3.274
58474W        W30734  41.435  11.751  11.042
58475W        W30735  16.789  28.182  12.911
58476W        W30736  38.519  42.323  14.374
58477W        W30737  12.616  16.192  11.953
58478W        W30738  44.967  36.548   0.373
58479W        W30739  31.950  36.581  14.446
58480W        W30740  42.776  31.026   0.784
58481W        W30741  35.405  39.971  13.864
58482W        W30742  18.282  30.419   2.755
58483W        W30743  29.119   7.793  12.442
58484W        W30744   3.363   6.713  13.881
58485W        W30745  15.587  26.085  12.530
58486W        W30746  36.892  16.781   2.308
58487W        W30747   7.235  16.074  13.919
58488W        W30748  17.780  41.818   2.722
58489W        W30749   0.308  26.016  14.288
58490W        W30750  40.541  42.372   1.372
58491W        W30751  41.887  38.350   2.294
58492W        W30752  20.722  39.411   2.688
58493W        W30753  42.963  10.685  12.033
58494W        W30754  30.004  22.230  14.385
58495W        W30755  24.685  26.093   2.249
58496W        W30756   6.716  27.047   0.905
58497W        W30757  18.241  39.037  11.957
58498W        W30758  26.658  15.713   4.218
58499W        W30759  13.764   9.177   4.624
58500W        W30760  13.822  11.626  12.929
58501W        W30761  42.800   6.723  12.011
58502W        W30762  20.549  17.223   3.849
58503W        W30763  20.076  32.922  13.918
58504W        W30764   9.380  30.154   3.736
58505W        W30765  28.598   7.706   1.765
58506W        W30766  23.590  17.678  14.461
58507W        W30767  19.221  12.613  11.866
58508W        W30768   3.369  40.848  12.872
58509W        W30769  12.218  20.223  11.893
58510W        W30770  43.922  11.666   0.301
58511W        W30771  10.208   6.844   2.297
58512W        W30772  12.670  24.003  14.421
58513W        W30773  44.985  36.530  14.806
58514W        W30774  19.647  10.812   4.194
58515W        W30775  33.476  42.822   2.331
58516W        W30776  17.780   7.305  11.018
58517W        W30777   9.328  20.237   1.917
58518W        W30778  44.316  35.020  13.962
58519W        W30779  14.832  39.850  12.438
58520W        W30780   7.340  36.478   2.863
58521W        W30781  42.975   5.700   0.282
58522W        W30782  11.152  37.971   1.840
58523W        W30783  42.355   9.168  11.896
58524W        W30784  10.254  36.078   4.251
58525W        W30785   7.667  30.051  12.896
58526W        W30786  14.321  37.378  12.388
58527W        W30787  21.114  23.135   1.798
58528W        W30788  41.824  34.389   5.099
58529W        W30789  33.935  25.496   3.645
58530W        W30790  14.276  42.886  10.565
58531W        W30791  25.181   7.194   4.659
58532W        W30792  30.049   6.186   3.848
58533W        W30793  15.581  41.392   4.659
58534W        W30794  22.220  10.747   0.746
58535W        W30795  20.244  37.012  14.844
58536W        W30796  41.043  34.873   4.274
58537W        W30797  42.945  30.074  13.381
58538W        W30798  11.753   5.200   2.209
58539W        W30799  39.809  33.933   3.667
58540W        W30800   8.757  15.586  12.851
58541W        W30801  31.413  30.068   4.669
58542W        W30802  27.144  36.856   2.883
58543W        W30803  23.587   6.423  13.810
58544W        W30804  18.707  11.766   4.685
58545W        W30805  10.869  29.984  14.865
58546W        W30806  28.178  14.216  13.437
58547W        W30807   2.815  40.026  12.902
58548W        W30808  32.553  21.017  10.495
58549W        W30809  26.032   0.775   2.223
58550W        W30810   5.436  41.490   1.248
58551W        W30811  31.102  31.492  13.817
58552W        W30812   9.845  19.661  13.799
58553W        W30813  11.702  21.653  11.875
58554W        W30814  28.591  43.411  11.115
58555W        W30815  24.215   4.237   0.924
58556W        W30816   5.385  24.042   4.140
58557W        W30817  19.597   3.416   3.796
58558W        W30818  20.049  37.997  11.421
58559W        W30819   1.413  18.683  10.511
58560W        W30820   9.726  25.634  12.406
58561W        W30821  42.823  23.724   2.358
58562W        W30822   9.753  29.109  14.028
58563W        W30823   5.818  38.826  10.930
58564W        W30824   3.455  26.001   1.318
58565W        W30825  23.632  19.138   5.739
58566W        W30826  16.740   2.842  13.016
58567W        W30827   3.849  31.524   4.605
58568W        W30828  37.972  41.858  14.284
58569W        W30829   8.661  35.472  13.005
58570W        W30830  35.004  21.151  11.551
58571W        W30831  13.777  30.025   3.812
58572W        W30832   0.806  26.187  12.914
58573W        W30833  17.796  44.317   3.757
58574W        W30834  42.282   4.310  14.305
58575W        W30835  35.524  36.099   3.288
58576W        W30836  26.528  15.285  11.557
58577W        W30837  33.622  22.559  12.954
58578W        W30838   9.171  10.802   3.239
58579W        W30839   5.746  12.235   1.791
58580W        W30840  40.318  25.029  11.127
58581W        W30841  25.701  10.160  14.420
58582W        W30842  29.955  23.163   0.931
58583W        W30843  31.634   6.315   1.449
58584W        W30844  38.886  27.598   2.207
58585W        W30845  37.535  34.969   0.791
58586W        W30846  43.382  17.706  11.609
58587W        W30847  19.699  28.444  14.839
58588W        W30848  25.700  27.958  10.553
58589W        W30849  16.787  38.455   2.213
58590W        W30850   6.792  19.198  14.505
58591W        W30851   1.763  14.658  12.096
58592W        W30852  40.890  34.614   3.868
58593W        W30853  20.093  24.671   3.760
58594W        W30854   4.237  11.256   4.783
58595W        W30855  12.847  39.551  13.424
58596W        W30856  39.547  21.144   4.180
58597W        W30857  11.671  22.086  11.091
58598W        W30858  22.621  14.316  13.458
58599W        W30859  28.665  24.125  13.503
58600W        W30860   9.740  10.291   3.664
58601W        W30861  32.954   1.338   4.726
58602W        W30862  12.350   3.875   3.637
58603W        W30863  30.032  30.084   2.813
58604W        W30864  29.918  26.692  10.890
58605W        W30865   6.775  43.473   2.369
58606W        W30866  20.680  32.578   2.843
58607W        W30867  38.551   9.691   5.789
58608W        W30868  21.644  22.739   1.797
58609W        W30869  35.597   1.820  10.454
58610W        W30870  28.501  11.295  11.591
58611W        W30871  28.002  10.735  12.854
58612W        W30872  33.921  22.503  11.882
58613W        W30873   0.867  29.436   4.307
58614W        W30874  17.179  17.119   4.810
58615W        W30875   2.807  24.536   4.713
58616W        W30876  31.135  23.988   0.455
58617W        W30877  23.984  17.090  13.055
58618W        W30878  26.527   9.285  14.500
58619W        W30879  41.474  28.026  11.032
58620W        W30880   3.710  16.677   3.258
58621W        W30881  27.628  26.972   1.356
58622W        W30882  32.968   8.312   4.195
58623W        W30883  18.280  24.172   3.718
58624W        W30884   9.758  12.341   1.865
58625W        W30885   0.878  31.011   0.923
58626W        W30886  26.584   0.344  11.028
58627W        W30887   0.924  28.136   2.776
58628W        W30888  25.469   0.859   3.702
58629W        W30889   6.283  13.834   0.880
58630W        W30890  13.741  20.725  12.458
58631W        W30891  26.625  29.444  12.410
58632W        W30892  30.467  36.357   2.324
58633W        W30893   8.241  23.087   0.918
58634W        W30894  26.575  38.514  13.002
58635W        W30895  21.027  22.249   5.302
58636W        W30896  19.569  17.144  13.522
58637W        W30897   9.678   1.749  11.964
58638W        W30898  43.903  24.593   4.205
58639W        W30899  13.346  36.373  12.351
58640W        W30900  44.396  11.207  12.997
58641W        W30901  38.893  41.530  10.411
58642W        W30902   7.291  27.635  12.390
58643W        W30903  32.010  15.726   4.354
58644W        W30904  27.138  37.020  11.483
58645W        W30905  34.500  11.867  11.537
58646W        W30906  33.079  43.442  13.474
58647W        W30907  30.106  20.063   4.211
58648W        W30908  43.820  12.137  12.907
58649W        W30909  14.799  23.110  14.278
58650W        W30910  21.544  42.498   2.732
58651W        W30911   5.399  38.570   4.821
58652W        W30912  12.237  40.417   2.694
58653W        W30913  31.962   9.712  13.507
58654W        W30914  25.060   5.874  12.096
58655W        W30915  13.820  25.217  11.597
58656W        W30916  42.015  19.046   0.825
58657W        W30917  39.438   4.714   0.335
58658W        W30918  44.825   4.718   3.277
58659W        W30919  21.138  22.197  11.524
58660W        W30920   2.339  42.349  13.315
58661W        W30921  16.144   0.335   3.821
58662W        W30922  29.006   3.325  10.564
58663W        W30923  21.231  14.259   3.868
58664W        W30924  37.960  18.686   1.293
58665W        W30925   2.412  38.951   4.656
58666W        W30926  37.061  13.703  14.760
58667W        W30927   6.922   7.698  13.935
58668W        W30928  17.689  24.177   2.804
58669W        W30929   4.926  34.537  14.454
58670W        W30930  11.325   2.859   3.661
58671W        W30931  23.061  25.681   4.694
58672W        W30932   8.300  35.874  14.289
58673W        W30933   6.396  38.846  14.427
58674W        W30934  37.348  19.143  12.532
58675W        W30935   0.799  15.122   3.213
58676W        W30936  32.623   4.448   1.339
58677W        W30937  35.580  22.617   3.851
58678W        W30938  25.180  25.053   2.757
58679W        W30939  10.206  18.690   1.745
58680W        W30940  44.281   0.783   0.809
58681W        W30941  27.622   4.211   3.189
58682W        W30942  37.489  22.686  10.632
58683W        W30943   8.214  19.197  10.543
58684W        W30944  24.018  31.997   5.256
58685W        W30945  44.348  10.157  11.485
58686W        W30946   5.377  22.015   0.857
58687W        W30947  23.678   5.743   0.443
58688W        W30948   7.699  16.155   3.221
58689W        W30949   7.324  34.034   4.154
58690W        W30950  25.190  40.315  14.813
58691W        W30951  40.948  23.172   1.391
58692W        W30952   0.766   6.890  11.084
58693W        W30953  24.519  14.591  14.482
58694W        W30954   9.276  37.967   4.142
58695W        W30955  19.710  17.216   3.345
58696W        W30956  12.151  15.721   2.717
58697W        W30957   4.309   1.900   0.932
58698W        W30958   8.844  12.666   2.672
58699W        W30959   1.924  28.669  14.902
58700W        W30960  42.526  41.985  14.320
58701W        W30961  27.007  10.245  11.943
58702W        W30962  38.419  14.801   2.771
58703W        W30963  25.009  17.131   1.896
58704W        W30964  38.395  36.450  13.816
58705W        W30965  36.048   8.377   0.380
58706W        W30966  27.051   5.721   1.855
58707W        W30967  36.971   3.896   4.799
58708W        W30968  11.704   8.700   4.349
58709W        W30969  28.499  35.403  11.895
58710W        W30970  25.549  35.483   2.828
58711W        W30971  38.452   5.768   3.718
58712W        W30972  25.661   5.707   3.231
58713W        W30973   4.838  44.940  12.558
58714W        W30974  17.246  18.107   0.305
58715W        W30975  39.559  44.948  11.426
58716W        W30976  35.405  43.951  14.317
58717W        W30977   2.463  17.734  14.920
58718W        W30978  14.229  37.455   3.830
58719W        W30979  39.809  44.296   4.692
58720W        W30980  16.160  33.115  13.514
58721W        W30981  26.593  38.335   4.280
58722W        W30982  19.039  36.091   4.288
58723W        W30983  29.436  38.066  13.521
58724W        W30984  23.536   0.475  10.416
58725W        W30985   1.775  44.818  13.481
58726W        W30986  32.547  30.442  11.582
58727W        W30987   4.861  39.965   0.292
58728W        W30988   6.721   7.706   2.221
58729W        W30989  14.301   8.723   0.352
58730W        W30990  10.215  26.196   4.321
58731W        W30991   4.450  13.325  11.045
58732W        W30992  22.515  24.193   5.171
58733W        W30993  18.053  25.653   3.645
58734W        W30994  34.942  19.112   1.239
58735W        W30995   9.655  26.516   0.821
58736W        W30996   9.285  27.630  12.514
58737W        W30997   3.711  35.603   2.191
58738W        W30998  35.060  26.468  10.554
58739W        W30999  29.459   3.896  13.538
58740W        W31000  33.520  21.051  10.934
58741W        W31001  20.601  12.233  10.547
58742W        W31002  41.337  11.331   2.323
58743W        W31003  15.800  39.457   4.838
58744W        W31004  36.087   8.748  13.436
58745W        W31005   6.807  31.148  11.524
58746W        W31006  31.529  11.321   1.748
58747W        W31007  29.624  26.027  11.036
58748W        W31008  40.820  15.267   3.365
58749W        W31009   1.320   6.368  14.832
58750W        W31010  24.174   2.892  14.467
58751W        W31011  26.184   1.770   1.331
58752W        W31012  37.842  30.426   4.756
58753W        W31013   1.367  30.113  12.565
58754W        W31014  30.058  20.537  10.996
58755W        W31015  26.620  17.075  13.055
58756W        W31016  37.336  21.517  10.953
58757W        W31017  16.251  43.511   4.262
58758W        W31018  14.647  44.430   2.334
58759W        W31019   8.166  21.098   3.684
58760W        W31020   1.431  39.340   0.873
58761W        W31021  10.205   2.906  14.419
58762W        W31022  28.628  37.572   4.813
58763W        W31023  30.152  36.976  11.588
58764W        W31024   4.362  32.135   2.344
58765W        W31025  40.813  42.994  12.978
58766W        W31026  29.110  36.046   4.678
58767W        W31027  37.068   8.361   2.885
58768W        W31028  11.792  26.989  14.982
58769W        W31029  10.278  29.544   0.892
58770W        W31030  10.808   6.410   2.329
58771W        W31031  30.935  28.151  10.528
58772W        W31032  40.344  21.668  10.561
58773W        W31033  33.987  11.829   1.414
58774W        W31034  10.358  41.361   1.847
58775W        W31035  39.398  38.968  14.776
58776W        W31036   5.711  31.044  13.842
58777W        W31037  21.046  20.111  11.078
58778W        W31038  27.558  14.178   1.806
58779W        W31039  14.800  20.767  12.869
58780W        W31040  40.829  27.040   4.270
58781W        W31041  17.138  28.619   4.746
58782W        W31042  18.105   6.389  13.815
58783W        W31043  32.040  37.994   1.829
58784W        W31044   6.863  10.709   1.889
58785W        W31045  19.047  44.267   0.954
58786W        W31046   3.265  12.725  13.463
58787W        W31047  37.462   3.459   2.311
58788W        W31048  40.979  21.087   3.257
58789W        W31049  31.557  38.466  10.534
58790W        W31050  36.060  28.465  14.959
58791W        W31051  13.238  21.624  14.979
58792W        W31052  14.301  22.732   0.397
58793W        W31053  10.292  44.896   2.702
58794W        W31054  10.683  26.493   4.832
58795W        W31055  15.752   9.322   3.337
58796W        W31056  29.433  14.281   2.674
58797W        W31057  21.621  26.467   1.841
58798W        W31058   1.320   8.264   4.158
58799W        W31059   7.738  31.930   2.331
58800W        W31060  16.132  28.681  13.977
58801W        W31061  43.764  15.776  14.004
58802W        W31062  34.070   8.214  10.992
58803W        W31063  10.276  19.721   0.937
58804W        W31064   8.234  32.903  13.433
58805W        W31065  25.496  11.258  12.370
58806W        W31066  29.158   8.349  11.531
58807W        W31067   9.712  23.204   2.316
58808W        W31068  40.846  31.544   3.208
58809W        W31069  13.133  35.463   3.371
58810W        W31070  21.199  17.613   2.258
58811W        W31071   8.738  25.153   0.732
58812W        W31072  23.053  37.882   4.815
58813W        W31073  27.069  38.427  13.869
58814W        W31074  40.430  32.636  14.921
58815W        W31075  24.563  31.521  12.939
58816W        W31076  38.348  16.197   2.793
58817W        W31077   0.947  25.625   0.875
58818W        W31078  22.231  38.430   1.282
58819W        W31079  19.585  37.457  12.832
58820W        W31080  18.702  12.178   1.291
58821W        W31081  32.447  29.941   0.467
58822W        W31082  18.147  42.483   3.150
58823W        W31083   8.269  27.526  14.962
58824W        W31084   5.866   1.766   3.191
58825W        W31085  13.310  24.993   1.750
58826W        W31086  31.465  44.861  12.839
58827W        W31087   7.236  29.502   0.254
58828W        W31088   3.371  43.271  14.453
58829W        W31089  11.675  23.172  10.914
58830W        W31090  32.619  22.741  14.313
58831W        W31091   8.316  43.856  12.830
58832W        W31092  36.089  26.541  13.053
58833W        W31093  10.195  31.087  13.528
58834W        W31094  10.651  11.322   3.149
58835W        W31095  42.777  23.599   2.761
58836W        W31096  20.275  28.014  14.829
58837W        W31097  38.053  42.948   1.772
58838W        W31098  40.864  44.337  11.128
58839W        W31099  22.572  39.844  12.834
58840W        W31100   6.918  17.158   1.377
58841W        W31101  44.859  34.994  14.899
58842W        W31102   7.897  23.543   4.682
58843W        W31103  15.215  14.306   9.985
58844W        W31104   0.284  24.549   3.361
58845W        W31105  13.824   4.812   1.414
58846W        W31106  16.135   8.751  13.346
58847W        W31107   7.701  33.094   3.200
58848W        W31108  31.606  17.231   4.681
58849W        W31109  38.952   1.870  10.525
58850W        W31110  15.312  15.198   0.753
58851W        W31111  18.254   4.354   1.310
58852W        W31112  40.946  15.205  13.462
58853W        W31113   2.327  30.570   3.825
58854W        W31114  14.249  25.983   4.157
58855W        W31115  23.705  24.101  13.377
58856W        W31116  25.015  36.019   2.814
58857W        W31117  28.174  34.478  12.360
58858W        W31118  27.991  11.783   5.110
58859W        W31119  35.868  38.505  11.104
58860W        W31120  27.012  44.857   3.370
58861W        W31121  14.691  43.377   1.740
58862W        W31122   1.761   2.309  14.434
58863W        W31123  11.204  32.451   3.737
58864W        W31124  31.037  18.252  14.351
58865W        W31125  40.456  14.622  11.498
58866W        W31126  17.657  36.911  14.816
58867W        W31127  44.863  15.234   0.742
58868W        W31128  39.886   5.928  14.462
58869W        W31129   2.320  24.005   1.353
58870W        W31130  40.897  18.592  14.876
58871W        W31131   7.825   3.439   3.382
58872W        W31132  16.771  21.169   2.233
58873W        W31133   2.433  10.865   1.850
58874W        W31134  14.591  44.408  11.037
58875W        W31135  29.563  28.454  14.483
58876W        W31136   7.265  29.074   2.400
58877W        W31137  24.610  24.012   2.677
58878W        W31138  18.050  32.931   2.269
58879W        W31139   3.902   6.915   3.236
58880W        W31140  20.067  16.143   2.370
58881W        W31141  34.404  23.089  14.813
58882W        W31142  23.053  14.234   1.429
58883W        W31143  21.122   9.246  12.367
58884W        W31144  44.764  18.190   3.635
58885W        W31145  43.904  10.263  12.444
58886W        W31146  13.304   3.763  12.917
58887W        W31147  17.232  11.698   3.199
58888W        W31148  18.640  31.024  10.892
58889W        W31149  33.002  11.248  12.365
58890W        W31150  21.216  39.360   4.616
58891W        W31151  11.153  19.201  13.996
58892W        W31152  19.234  25.156  12.854
58893W        W31153   4.800  42.447   1.910
58894W        W31154  13.325  13.268  12.927
58895W        W31155  31.633   5.344  10.577
58896W        W31156  16.641  37.387  11.111
58897W        W31157  16.233  25.184   1.812
58898W        W31158   4.738  17.569   2.241
58899W        W31159   1.317  11.237  11.068
58900W        W31160  34.406  17.730  11.393
58901W        W31161  31.522  25.098  13.991
58902W        W31162   9.160  11.279  11.940
58903W        W31163  38.922  33.537   3.202
58904W        W31164   9.377  43.991  13.057
58905W        W31165  19.277  33.579  14.441
58906W        W31166   4.820  12.847   3.759
58907W        W31167  21.067  37.379  12.511
58908W        W31168  13.203  19.045  10.585
58909W        W31169  23.132  38.356   3.653
58910W        W31170  22.680   7.903   4.713
58911W        W31171  26.491  35.571  13.497
58912W        W31172   1.849   5.355  13.324
58913W        W31173  26.700  28.601  14.345
58914W        W31174  24.647  32.622   2.216
58915W        W31175   3.841  38.358   1.352
58916W        W31176  37.072   5.842   3.287
58917W        W31177  36.565  17.652   4.342
58918W        W31178  17.763  11.800   4.696
58919W        W31179  23.203  24.985  14.772
58920W        W31180  31.037  15.290   2.336
58921W        W31181   2.229  29.964  11.902
58922W        W31182  12.197   8.301   4.347
58923W        W31183  11.645   0.298  11.380
58924W        W31184  41.387   2.317   4.759
58925W        W31185  18.148  13.711   0.797
58926W        W31186  40.981   3.771  13.794
58927W        W31187  26.141   0.410   0.355
58928W        W31188   7.745  27.638   4.273
58929W        W31189  32.097  20.677   2.662
58930W        W31190   3.328  12.816   1.875
58931W        W31191  27.063   2.944   4.263
58932W        W31192  34.015  37.028  11.886
58933W        W31193   3.776  27.499  13.867
58934W        W31194  43.991  11.271   3.704
58935W        W31195  42.308  31.106   0.428
58936W        W31196   0.266  35.025  13.466
58937W        W31197   8.383  36.459  13.866
58938W        W31198   6.699  15.596  13.339
58939W        W31199  18.614  32.575  14.326
58940W        W31200   4.308  36.092  13.518
58941W        W31201  34.480  32.133   1.244
58942W        W31202   6.909  41.791   0.262
58943W        W31203  27.553  15.585   3.804
58944W        W31204   1.811  38.859  13.481
58945W        W31205  16.257   7.261  11.015
58946W        W31206  40.043  18.700  10.898
58947W        W31207   9.866   9.309   2.286
58948W        W31208   6.890  44.768  13.950
58949W        W31209  14.741  34.913  14.476
58950W        W31210  34.973  16.202   1.914
58951W        W31211  12.848  31.018   1.372
58952W        W31212  36.434  43.794   0.787
58953W        W31213  35.868  13.216   4.179
58954W        W31214  38.887  25.113  12.049
58955W        W31215  13.801   9.726   2.235
58956W        W31216   0.875  37.997   0.482
58957W        W31217   1.975  18.590  10.642
58958W        W31218   5.720  44.428  13.539
58959W        W31219  21.736  18.097  14.022
58960W        W31220   1.859  26.595  14.362
58961W        W31221  30.086  38.882  13.916
58962W        W31222  28.506   2.249   2.367
58963W        W31223   1.905  15.613  13.336
58964W        W31224  20.095  33.490   4.777
58965W        W31225  19.243  12.296  11.863
58966W        W31226   8.707   9.752   4.239
58967W        W31227  31.061  16.177  10.625
58968W        W31228   9.156  33.965  10.469
58969W        W31229   5.346  27.153  12.932
58970W        W31230  24.515   6.296  14.472
58971W        W31231  13.756  21.756   1.871
58972W        W31232  25.532  40.537   1.273
58973W        W31233  27.505  21.723   3.229
58974W        W31234  35.027   9.159  12.405
58975W        W31235   5.267  33.890   4.747
58976W        W31236   2.907  21.653  13.377
58977W        W31237  41.812   5.813  11.548
58978W        W31238  24.618  43.918   2.757
58979W        W31239   6.375  13.675  13.354
58980W        W31240  39.906  24.643   0.822
58981W        W31241  11.215  42.469  11.078
58982W        W31242  29.647  37.975  10.535
58983W        W31243  12.793  38.959  14.481
58984W        W31244   6.380  44.314  14.767
58985W        W31245  35.562   2.301  11.515
58986W        W31246  44.355  11.852  10.952
58987W        W31247   3.410  32.956   2.750
58988W        W31248  10.850  32.633   4.254
58989W        W31249  35.942  27.570  13.029
58990W        W31250  44.395  26.579  14.499
58991W        W31251  27.986  25.493  11.570
58992W        W31252  17.629  19.050  11.074
58993W        W31253  26.470   0.984   4.289
58994W        W31254  22.075  28.018  14.496
58995W        W31255  29.110  24.582  13.477
58996W        W31256  36.917  33.924   4.779
58997W        W31257  16.181  35.464  10.529
58998W        W31258  41.302   2.339  10.597
58999W        W31259  40.504  27.553  10.573
59000W        W31260   7.351   9.748  14.470
59001W        W31261  21.706   7.310  12.571
59002W        W31262  26.059  21.699   4.172
59003W        W31263  40.336   2.340   3.828
59004W        W31264  11.839  26.670   2.334
59005W        W31265  16.579  39.986  14.826
59006W        W31266   5.239  20.048  14.020
59007W        W31267  36.384  22.108  11.449
59008W        W31268  23.496  39.399   0.370
59009W        W31269   8.876   3.401  10.507
59010W        W31270  24.039  13.144  10.632
59011W        W31271   7.260  36.931  11.578
59012W        W31272  31.905  41.021   0.464
59013W        W31273  32.058  37.952   4.140
59014W        W31274   2.291  11.149  11.588
59015W        W31275  44.477   9.388  13.836
59016W        W31276   3.777  13.110  10.954
59017W        W31277  20.127  26.994  13.330
59018W        W31278  33.506  34.003   0.732
59019W        W31279  22.168  21.253   1.785
59020W        W31280   8.899  31.468  14.310
59021W        W31281  19.612  38.887  12.476
59022W        W31282  42.837  24.222   5.104
59023W        W31283  36.936  20.581  13.525
59024W        W31284  25.137   8.184  12.894
59025W        W31285  18.064   0.432   0.259
59026W        W31286   8.765  40.882   2.727
59027W        W31287   2.944  43.862   1.710
59028W        W31288  44.858  30.608   0.852
59029W        W31289  13.183  10.813  11.590
59030W        W31290  12.239  14.238  12.957
59031W        W31291   4.430   3.788   4.317
59032W        W31292  19.589  22.109   1.398
59033W        W31293  42.894  21.666   2.207
59034W        W31294  11.130  30.970  12.003
59035W        W31295  19.779  43.321  13.918
59036W        W31296  19.159   7.697   2.215
59037W        W31297   0.421   4.704   3.729
59038W        W31298  10.185  15.767  14.917
59039W        W31299  20.104  36.588   3.386
59040W        W31300  42.510  19.094  12.836
59041W        W31301  36.086  34.477   1.771
59042W        W31302   9.717  39.036  12.912
59043W        W31303   5.866   4.732  14.480
59044W        W31304  27.040  27.664   1.904
59045W        W31305  15.197  18.232   0.884
59046W        W31306  29.660  15.290  13.308
59047W        W31307   0.980  17.227   4.609
59048W        W31308  18.767  28.605   3.227
59049W        W31309  17.237  28.160  14.761
59050W        W31310  38.878  40.457   3.384
59051W        W31311   7.771  42.866   0.734
59052W        W31312  16.192   1.893   1.792
59053W        W31313  33.602   6.303   0.316
59054W        W31314  12.742  14.598  13.942
59055W        W31315  16.305  30.574   3.693
59056W        W31316  28.067  44.329  14.298
59057W        W31317  38.892  32.617  10.965
59058W        W31318  41.799  30.650   1.289
59059W        W31319  12.642  13.766   0.386
59060W        W31320  33.530  18.198  14.023
59061W        W31321  40.508  27.491   2.858
59062W        W31322   8.674  20.081   4.731
59063W        W31323   5.702  26.511  14.499
59064W        W31324  29.157   3.365   0.844
59065W        W31325  40.050  21.065  12.368
59066W        W31326  36.364  27.065   3.384
59067W        W31327   4.702   3.822   4.301
59068W        W31328  36.014  20.082  10.513
59069W        W31329  23.218  16.309  12.425
59070W        W31330   7.686   9.204   1.811
59071W        W31331   1.771  10.346  11.882
59072W        W31332   2.933  28.127   4.760
59073W        W31333  43.923   5.366  10.941
59074W        W31334  31.108  41.300   2.877
59075W        W31335  36.494   1.738  11.380
59076W        W31336  25.699   7.252  14.816
59077W        W31337  44.802  30.592   0.268
59078W        W31338  33.395  19.645   9.588
59079W        W31339  37.039   3.224  11.920
59080W        W31340  15.296  41.928   1.765
59081W        W31341   7.236  26.185  11.998
59082W        W31342  33.469  19.090   3.868
59083W        W31343  42.524  37.082  14.301
59084W        W31344   4.411  30.101  13.872
59085W        W31345   3.336  24.115  12.435
59086W        W31346  22.579   8.838  13.473
59087W        W31347  39.820  33.039   2.406
59088W        W31348  21.214  14.815  11.456
59089W        W31349  19.051  44.980   2.412
59090W        W31350  18.727  40.990  14.824
59091W        W31351   4.750   5.894   4.192
59092W        W31352  40.324  35.968   0.819
59093W        W31353  37.992  19.761  13.036
59094W        W31354   6.271  36.080   4.315
59095W        W31355  35.457   1.787   3.826
59096W        W31356  30.027  14.188  14.469
59097W        W31357   4.904  43.892  11.934
59098W        W31358  25.186  35.073  12.926
59099W        W31359  34.427  26.680  12.483
59100W        W31360  40.908   6.294  11.039
59101W        W31361   4.329  20.688   1.244
59102W        W31362  38.551   7.851   0.358
59103W        W31363  41.967   6.770  14.902
59104W        W31364   0.943  21.750   4.263
59105W        W31365   8.819  25.107   2.832
59106W        W31366  11.656   2.758   3.314
59107W        W31367  13.181  13.212  10.929
59108W        W31368  23.606  30.088  13.471
59109W        W31369  11.743  11.782  14.358
59110W        W31370  23.613   1.967  11.473
59111W        W31371  30.547   1.393   4.694
59112W        W31372  27.983   1.478  13.882
59113W        W31373  15.645   6.787   1.778
59114W        W31374  26.953  29.494   4.115
59115W        W31375  23.567  35.919   1.333
59116W        W31376   5.334  15.296   0.269
59117W        W31377  43.936  33.558  14.408
59118W        W31378  25.593  33.089  12.909
59119W        W31379  34.513  34.418  13.499
59120W        W31380  12.133   1.414   3.160
59121W        W31381  43.001  21.138  11.455
59122W        W31382  11.795  31.405  12.481
59123W        W31383   1.922  17.193   0.454
59124W        W31384   2.405  15.271  12.964
59125W        W31385  25.978  27.602  12.953
59126W        W31386  27.453  40.862  10.120
59127W        W31387  23.117  23.631  12.044
59128W        W31388   6.412   5.267  14.311
59129W        W31389   2.396  44.463   1.885
59130W        W31390  11.705  11.827   3.277
59131W        W31391   7.326  20.531   0.376
59132W        W31392  35.980  40.863   3.834
59133W        W31393   2.813  21.167   2.338
59134W        W31394  31.456  14.204  13.454
59135W        W31395  37.531  23.568  10.977
59136W        W31396  34.003   5.314  12.877
59137W        W31397  16.772  37.453   3.672
59138W        W31398  23.005  14.616   0.917
59139W        W31399   2.849  32.100  13.454
59140W        W31400  42.283  19.684  10.573
59141W        W31401  40.997  19.542   4.743
59142W        W31402  24.557  25.640  11.482
59143W        W31403  41.491  10.168  10.557
59144W        W31404  38.035  39.026   9.942
59145W        W31405  39.314  11.735  11.860
59146W        W31406   7.819   1.883   4.676
59147W        W31407  37.950  13.330   4.237
59148W        W31408  12.625  32.611   4.235
59149W        W31409  17.691  29.087  14.292
59150W        W31410  24.559  19.537   4.269
59151W        W31411   1.482  41.328   4.341
59152W        W31412  18.240  36.442  10.942
59153W        W31413  36.563  35.470  11.121
59154W        W31414  20.058  24.587  14.765
59155W        W31415  33.100  33.018  13.998
59156W        W31416  11.791  18.125  14.403
59157W        W31417  29.645  26.613   5.162
59158W        W31418  43.488  15.148   4.240
59159W        W31419   9.236   1.447  14.920
59160W        W31420  31.488  35.511  12.423
59161W        W31421  31.514   6.338  11.915
59162W        W31422  38.493  30.532   1.307
59163W        W31423   8.674  18.131  11.943
59164W        W31424  17.191  13.785  13.816
59165W        W31425  30.621  36.983  14.993
59166W        W31426  40.852   0.425   3.779
59167W        W31427   8.824   4.339  10.907
59168W        W31428  26.559  43.898   9.958
59169W        W31429  23.106   4.930   3.203
59170W        W31430  31.516  33.387  11.500
59171W        W31431  13.618  13.712   0.814
59172W        W31432  40.893  35.443  13.308
59173W        W31433   6.428  36.572   4.343
59174W        W31434  11.625  41.305   2.734
59175W        W31435   9.235  44.390  14.373
59176W        W31436  38.876  35.562  10.541
59177W        W31437  21.203  38.975   3.267
59178W        W31438  42.883  36.497   3.756
59179W        W31439  31.450  19.171  11.999
59180W        W31440  15.236  39.378   3.181
59181W        W31441   5.327  32.486  13.040
59182W        W31442  21.703  36.969   0.249
59183W        W31443  42.952  38.397  14.439
59184W        W31444  19.156  36.379   2.233
59185W        W31445  16.282  33.571   2.768
59186W        W31446   5.288  29.571   2.204
59187W        W31447  15.140   0.747  14.512
59188W        W31448  13.339  31.064  10.639
59189W        W31449  40.530  41.487   4.823
59190W        W31450  15.579  28.144  14.334
59191W        W31451  21.618  42.514  10.909
59192W        W31452   2.355  19.570   0.793
59193W        W31453  28.549  41.374  13.539
59194W        W31454  40.477   0.346  14.969
59195W        W31455  38.857  40.017  13.390
59196W        W31456  38.028  34.539  14.379
59197W        W31457   8.276  26.665  14.861
59198W        W31458  16.632  26.032   3.755
59199W        W31459  10.733   3.890   3.240
59200W        W31460   0.367  37.436   3.650
59201W        W31461  17.610  41.373  13.937
59202W        W31462  35.003   1.884   0.764
59203W        W31463   2.424  22.104   4.345
59204W        W31464  40.430  10.842  10.513
59205W        W31465  35.014  16.175  12.894
59206W        W31466  30.925   8.290   1.822
59207W        W31467  16.810  24.118  14.449
59208W        W31468  39.981  22.168   0.782
59209W        W31469  22.602  26.582   9.970
59210W        W31470  29.036   8.394   0.806
59211W        W31471  24.173  26.095   2.273
59212W        W31472  29.499  16.642  14.343
59213W        W31473  44.763   7.413  13.903
59214W        W31474  17.229  40.026  11.381
59215W        W31475  17.801  33.938  10.953
59216W        W31476   2.374  25.654  14.412
59217W        W31477  21.059  14.773  12.019
59218W        W31478   8.166   6.877  12.959
59219W        W31479  16.145  12.758   4.648
59220W        W31480   0.485  42.520  13.395
59221W        W31481  32.093  15.146  10.559
59222W        W31482  22.697  24.607  14.289
59223W        W31483  28.502  15.124   0.384
59224W        W31484  22.648  41.310   5.211
59225W        W31485  36.869  12.150   2.294
59226W        W31486  44.815  23.115   3.752
59227W        W31487   1.755  42.875   1.744
59228W        W31488   4.342  24.480   4.236
59229W        W31489  24.119  28.017   5.263
59230W        W31490  43.459  29.042   4.273
59231W        W31491  44.300  37.530   4.119
59232W        W31492  16.291  16.811   5.189
59233W        W31493  11.253  31.053   3.823
59234W        W31494  35.376   6.729   1.293
59235W        W31495  39.558  32.519   3.681
59236W        W31496   4.285  33.026  11.612
59237W        W31497  11.258  15.600  14.326
59238W        W31498  17.285  10.841  13.793
59239W        W31499   7.748  41.858   0.358
59240W        W31500  10.851  44.495   2.667
59241W        W31501  34.895  32.113   4.284
59242W        W31502   6.410   0.782  12.431
59243W        W31503   0.330  37.505  13.384
59244W        W31504  31.417  37.939  11.541
59245W        W31505  35.567  31.529  13.478
59246W        W31506   7.843  27.484  12.346
59247W        W31507  37.072   4.416   0.424
59248W        W31508  33.552  29.131  11.926
59249W        W31509   6.738  15.186   0.909
59250W        W31510  22.522  27.056   0.771
59251W        W31511  37.535  21.079   4.727
59252W        W31512  39.018   4.837  10.954
59253W        W31513  37.039  16.715   4.127
59254W        W31514  41.508  11.317  11.563
59255W        W31515   4.728   4.733   2.324
59256W        W31516  43.831   0.850   0.782
59257W        W31517  22.512  27.484   1.713
59258W        W31518  32.544   9.305   3.828
59259W        W31519  15.173  23.209  13.503
59260W        W31520  17.650   8.722   0.897
59261W        W31521  24.116  27.013   4.150
59262W        W31522  22.613   9.774   1.802
59263W        W31523  35.576  11.735   0.291
59264W        W31524  32.623  15.699   0.790
59265W        W31525  17.582  21.030  13.037
59266W        W31526  19.779  32.554   2.315
59267W        W31527  13.111  11.204   4.831
59268W        W31528   5.824   5.425  13.423
59269W        W31529   6.917  16.604  13.847
59270W        W31530  33.976  27.995  12.347
59271W        W31531  40.382  12.146   4.607
59272W        W31532  37.884  11.685   0.336
59273W        W31533  43.845  17.115   4.828
59274W        W31534  44.935  23.631   2.183
59275W        W31535  44.387  38.443  12.070
59276W        W31536  35.871  34.590   3.645
59277W        W31537  15.123  30.978   1.312
59278W        W31538  31.087  43.953   2.739
59279W        W31539  27.191   6.739   4.270
59280W        W31540  33.416   0.261  13.509
59281W        W31541  41.448  17.586  14.437
59282W        W31542  30.640  17.197  13.536
59283W        W31543  40.491  41.357  12.914
59284W        W31544  38.848  36.067   1.315
59285W        W31545   0.312   9.706   1.851
59286W        W31546  41.375   0.916  13.320
59287W        W31547   3.287  14.610  11.549
59288W        W31548  44.772  25.999  13.844
59289W        W31549  30.528  27.996   1.887
59290W        W31550   2.828  13.762   3.816
59291W        W31551  44.009  40.410  11.972
59292W        W31552  13.255  40.966  12.421
59293W        W31553  33.584  44.415   0.943
59294W        W31554  38.344   0.299   2.709
59295W        W31555  31.123  39.050  10.557
59296W        W31556  16.093  14.330   3.261
59297W        W31557  21.524  19.145  13.797
59298W        W31558  12.302  10.732   3.174
59299W        W31559  26.549  42.021   2.374
59300W        W31560   0.883  36.021  11.450
59301W        W31561  17.068  15.682  14.025
59302W        W31562  17.152  10.653  14.497
59303W        W31563  37.079  20.645  14.444
59304W        W31564  31.922  11.832   2.206
59305W        W31565  12.713  41.314   0.911
59306W        W31566  41.537  42.860  10.987
59307W        W31567  42.452  30.134   1.243
59308W        W31568  11.725  12.647   0.948
59309W        W31569   1.287  29.577   2.375
59310W        W31570   7.786  18.590  11.485
59311W        W31571   5.689  44.760  11.104
59312W        W31572  14.175  32.945  14.948
59313W        W31573  33.414  11.632   3.731
59314W        W31574  18.643  26.615   2.729
59315W        W31575   1.447   9.303  13.950
59316W        W31576  24.214  17.605  11.997
59317W        W31577  24.551  28.083  13.922
59318W        W31578  18.096  28.152  12.075
59319W        W31579  22.603   2.865  11.046
59320W        W31580  42.987  34.115  13.516
59321W        W31581  19.673  13.776  12.054
59322W        W31582  38.824   5.748  14.405
59323W        W31583  41.495  18.647  13.023
59324W        W31584   1.263  33.529  14.331
59325W        W31585   0.849  34.547   4.248
59326W        W31586   9.878  30.557  11.943
59327W        W31587  28.459  14.666   4.818
59328W        W31588   4.847  24.156  10.034
59329W        W31589   5.757  22.584   0.959
59330W        W31590  36.022   0.861  12.869
59331W        W31591  28.180  30.064   1.783
59332W        W31592  20.602  37.925  10.472
59333W        W31593  31.003  33.583   0.263
59334W        W31594  28.094  25.081  14.429
59335W        W31595  28.573  40.378   4.293
59336W        W31596  19.134  10.162   3.703
59337W        W31597  23.239  43.920  12.989
59338W        W31598  25.471  24.156   0.283
59339W        W31599  38.393  24.620  12.569
59340W        W31600  38.961  35.009  14.405
59341W        W31601   9.259  34.458  11.004
59342W        W31602  38.512  33.127   1.380
59343W        W31603  14.193  36.061  12.094
59344W        W31604  11.702  10.682  12.014
59345W        W31605  15.731  39.559  13.927
59346W        W31606  15.735   3.847   3.237
59347W        W31607   5.272  13.630  10.976
59348W        W31608  15.302   8.836  10.592
59349W        W31609  10.812  43.886   1.786
59350W        W31610   3.871  36.593  10.913
59351W        W31611  12.775  36.578  14.416
59352W        W31612  30.554  14.770  14.896
59353W        W31613  31.112  38.943   3.744
59354W        W31614  12.183  10.632   1.286
59355W        W31615  24.175  11.631  10.513
59356W        W31616  33.983  33.025  12.472
59357W        W31617  28.997  41.357   4.154
59358W        W31618  10.842  36.400   4.728
59359W        W31619  43.335  20.642  10.598
59360W        W31620   9.773  42.813   4.765
59361W        W31621  43.374  24.106   0.775
59362W        W31622   9.651  22.179  11.988
59363W        W31623  43.323  12.158  11.983
59364W        W31624  37.554  18.288   2.275
59365W        W31625  17.768   9.686  12.544
59366W        W31626  26.953   0.923  11.446
59367W        W31627  27.969  31.619  10.145
59368W        W31628  14.786  29.989  12.017
59369W        W31629   2.880  31.136   2.822
59370W        W31630  15.109  34.026   2.226
59371W        W31631  29.660  12.314  11.609
59372W        W31632  37.449  21.143   1.921
59373W        W31633  16.681  30.589  10.492
59374W        W31634   2.833  35.971  12.074
59375W        W31635  44.488  38.379  10.132
59376W        W31636  16.232  39.386   1.701
59377W        W31637  27.604  32.609  13.837
59378W        W31638  17.769  28.634  12.914
59379W        W31639   3.235  13.724  13.937
59380W        W31640  24.037  11.740   4.164
59381W        W31641  26.643  21.691   2.811
59382W        W31642  42.389  30.590   3.199
59383W        W31643  14.273  18.583  13.322
59384W        W31644  19.185  43.991   1.237
59385W        W31645  36.928  16.695  12.412
59386W        W31646  15.581  20.697  11.077
59387W        W31647  28.677  29.655   3.302
59388W        W31648  17.130  30.604  11.411
59389W        W31649  20.757  40.362   2.754
59390W        W31650  39.891  23.558   2.770
59391W        W31651  21.656  11.208   0.291
59392W        W31652  15.645  20.189   4.144
59393W        W31653  42.450  12.767  13.836
59394W        W31654   3.291  29.434   2.376
59395W        W31655   4.813   5.718   0.928
59396W        W31656  10.330   2.763  13.505
59397W        W31657  25.477  43.489  12.345
59398W        W31658   2.445  32.497   0.337
59399W        W31659  32.444  42.776  11.564
59400W        W31660  36.468  23.140   2.709
59401W        W31661  44.931  13.288   1.928
59402W        W31662  41.534  38.890   4.709
59403W        W31663  32.470  12.337   1.301
59404W        W31664  16.724  25.692   1.815
59405W        W31665  43.495  20.665   3.699
59406W        W31666  24.572  33.892   4.647
59407W        W31667  41.525  29.016  11.974
59408W        W31668   9.776  11.222  13.463
59409W        W31669   4.243  32.505  13.456
59410W        W31670   9.338  21.193   5.145
59411W        W31671  31.097  11.151  11.861
59412W        W31672  40.548  38.542   2.827
59413W        W31673  42.839   3.925  10.640
59414W        W31674  39.397   1.841   2.281
59415W        W31675  13.634  44.322   0.297
59416W        W31676  31.640  18.743   0.964
59417W        W31677  13.780  26.113  11.955
59418W        W31678  37.025  42.505   2.877
59419W        W31679  32.066  24.049   1.245
59420W        W31680  23.210  44.348   1.723
59421W        W31681  13.608   1.291  12.959
59422W        W31682  26.074  21.598   1.271
59423W        W31683   9.306   7.398  13.842
59424W        W31684  13.115  15.706   1.401
59425W        W31685  40.493  28.516   4.652
59426W        W31686   3.428  28.648   3.147
59427W        W31687  37.433  15.757  12.966
59428W        W31688  40.885  43.813  12.860
59429W        W31689  32.071  37.905  13.413
59430W        W31690  21.102  18.224   3.632
59431W        W31691  15.740  33.393  11.935
59432W        W31692  14.122  37.440   1.234
59433W        W31693  15.272  36.079   1.900
59434W        W31694   0.269  44.800  11.069
59435W        W31695  29.484  19.214  10.513
59436W        W31696  26.640  36.425   1.695
59437W        W31697  41.485  39.899  12.891
59438W        W31698   0.450  33.119  10.528
59439W        W31699  39.439   6.219   2.736
59440W        W31700  28.004  30.573  10.002
59441W        W31701   4.885  12.281  10.458
59442W        W31702  31.599   1.390  14.463
59443W        W31703  38.419  30.048  13.933
59444W        W31704  44.959  22.691   2.785
59445W        W31705   1.954  32.059   0.422
59446W        W31706  24.147  41.350  13.442
59447W        W31707   2.464  39.335  11.388
59448W        W31708  30.500  36.088   3.160
59449W        W31709  31.003   4.836   1.897
59450W        W31710  33.403   1.477   3.683
59451W        W31711   0.852  26.514   9.920
59452W        W31712   8.787  26.475   3.762
59453W        W31713  10.852  40.821   4.131
59454W        W31714  32.046  39.018   0.865
59455W        W31715  32.439  20.528   2.819
59456W        W31716  37.370   5.359   1.286
59457W        W31717  10.271  12.698  10.975
59458W        W31718  17.236   6.901   0.342
59459W        W31719  39.558  13.799  14.427
59460W        W31720  29.463   8.283  10.927
59461W        W31721  29.055  32.515  11.929
59462W        W31722   4.724  19.623   0.391
59463W        W31723   1.294   7.830  11.865
59464W        W31724  44.260  43.940  13.931
59465W        W31725  24.162  22.557  12.531
59466W        W31726  43.275  28.972  10.995
59467W        W31727   5.325  26.162  11.507
59468W        W31728  36.380   0.301   0.913
59469W        W31729   5.437  27.037  11.427
59470W        W31730  23.045  21.713   5.087
59471W        W31731  21.576  44.335  12.358
59472W        W31732  41.478  38.567   3.323
59473W        W31733  34.524  29.479   2.831
59474W        W31734  44.830  18.250  11.095
59475W        W31735  27.557  29.507   0.297
59476W        W31736  36.940   5.804  14.838
59477W        W31737  30.435  31.575   4.599
59478W        W31738  29.095  32.455   2.361
59479W        W31739  20.726  10.346   0.273
59480W        W31740   1.309   7.252   3.860
59481W        W31741   5.198  10.252   1.395
59482W        W31742  41.400  36.921   4.751
59483W        W31743  35.055  42.495   2.681
59484W        W31744  44.779  15.295   1.280
59485W        W31745  14.816  37.081   2.226
59486W        W31746  21.191  37.924  14.495
59487W        W31747  18.188  12.809  10.436
59488W        W31748  33.958  18.068   0.809
59489W        W31749  39.338   3.853   2.222
59490W        W31750   9.199  15.200   2.886
59491W        W31751  30.439  42.403   1.786
59492W        W31752  37.490  30.923  11.566
59493W        W31753  37.346  43.373   3.371
59494W        W31754  31.060  42.486  12.946
59495W        W31755  20.139  39.403  13.906
59496W        W31756   8.898  24.124  12.990
59497W        W31757   3.218  18.248  12.902
59498W        W31758   6.215  30.152   4.283
59499W        W31759   1.255  33.126  14.486
59500W        W31760  12.723  29.918   4.170
59501W        W31761  36.946  32.912   2.218
59502W        W31762  20.207  38.823  11.554
59503W        W31763  31.513  35.470  11.564
59504W        W31764  35.951  10.720   4.796
59505W        W31765  28.117  36.007   4.719
59506W        W31766  43.353  35.568   0.476
59507W        W31767  32.401  43.445  10.969
59508W        W31768  13.629  30.443   2.814
59509W        W31769  28.078   3.339   0.764
59510W        W31770   9.840  20.081  13.520
59511W        W31771  32.014  29.665   5.132
59512W        W31772   4.771   2.302  13.034
59513W        W31773  21.169  27.087  13.816
59514W        W31774  14.781  14.114  10.925
59515W        W31775  25.056  39.828  10.131
59516W        W31776  12.620   6.725  10.533
59517W        W31777  20.666  43.791   3.202
59518W        W31778  15.248  21.261  11.948
59519W        W31779   6.798  39.340   3.296
59520W        W31780   8.384  27.051   1.433
59521W        W31781  38.968  20.159  13.064
59522W        W31782  42.901   1.731  10.998
59523W        W31783  10.282  33.003  12.412
59524W        W31784  30.571   8.327  12.404
59525W        W31785   5.815   1.273   0.334
59526W        W31786   4.307  24.688   3.795
59527W        W31787   9.659  23.109   0.731
59528W        W31788   7.181  17.668  13.946
59529W        W31789   6.855  27.180  13.354
59530W        W31790  17.141  36.974  11.580
59531W        W31791  36.431  16.119  14.831
59532W        W31792  20.571  15.307   3.303
59533W        W31793  31.569   9.786  14.501
59534W        W31794  11.303   2.323   2.892
59535W        W31795   3.757  39.399   3.332
59536W        W31796  29.640  43.884  13.388
59537W        W31797  34.086  35.475  10.896
59538W        W31798   9.293  25.080   3.297
59539W        W31799  20.046  12.194   4.804
59540W        W31800   2.758  24.723   1.389
59541W        W31801   2.819  11.818  12.075
59542W        W31802   0.423  14.135   3.297
59543W        W31803  39.418  24.716  12.371
59544W        W31804  36.037  31.454  13.494
59545W        W31805   8.225  21.644  12.045
59546W        W31806  39.488  18.178   1.293
59547W        W31807   0.383  19.582   3.654
59548W        W31808  13.728  37.433  11.558
59549W        W31809  39.491  13.136  10.554
59550W        W31810  33.934  39.910  13.989
59551W        W31811  16.191   9.661   2.379
59552W        W31812  19.201  44.348  11.438
59553W        W31813  38.066  41.015   4.225
59554W        W31814  38.002  10.206   4.664
59555W        W31815  18.706  21.250   3.650
59556W        W31816  25.598  11.858  11.960
59557W        W31817  22.182  10.767   4.319
59558W        W31818  26.569  32.033  13.883
59559W        W31819  32.595  29.459  13.466
59560W        W31820  10.194   0.469  14.413
59561W        W31821  25.544  36.950  10.939
59562W        W31822  11.169  16.679   4.325
59563W        W31823  27.484  28.483  13.313
59564W        W31824  13.129  28.589   4.797
59565W        W31825  18.742  20.708   4.185
59566W        W31826  11.359  43.342   2.239
59567W        W31827  24.677  10.175  12.403
59568W        W31828  43.422  28.145  10.486
59569W        W31829   9.359  37.403   0.766
59570W        W31830  39.473   6.802   2.286
59571W        W31831  29.972   9.795   1.425
59572W        W31832  16.084  39.420  13.404
59573W        W31833  29.519  34.119   1.765
59574W        W31834  40.850  41.368   4.305
59575W        W31835  31.074  41.979  13.964
59576W        W31836  24.531  37.392  13.411
59577W        W31837  24.215  42.312   3.849
59578W        W31838  34.594  22.236   2.707
59579W        W31839   4.868  33.446  13.853
59580W        W31840   4.263   7.844  11.034
59581W        W31841  19.188   9.773  10.411
59582W        W31842  14.201  24.558   0.369
59583W        W31843   2.326  17.252   3.352
59584W        W31844   2.963  13.251   0.327
59585W        W31845   7.837  43.501  12.557
59586W        W31846  31.575  31.504   2.373
59587W        W31847  27.634  30.119   2.852
59588W        W31848   1.452  23.141  11.121
59589W        W31849  42.288  13.314  14.962
59590W        W31850  32.919  38.970  11.023
59591W        W31851  22.646  22.107  13.980
59592W        W31852  38.901   8.370  14.771
59593W        W31853  16.091   2.335  13.333
59594W        W31854  24.485  28.551  10.932
59595W        W31855   3.715  32.610   1.358
59596W        W31856  31.115  17.114  12.354
59597W        W31857  27.039   7.358  11.120
59598W        W31858  40.902  42.451   0.939
59599W        W31859  31.640   2.891  10.904
59600W        W31860   0.369  11.264   1.220
59601W        W31861  17.672   1.902  12.442
59602W        W31862  26.529  17.610   3.163
59603W        W31863  36.966  17.572   2.351
59604W        W31864  36.355  30.137  14.312
59605W        W31865  27.137  22.561   3.763
59606W        W31866  33.984  22.730  13.968
59607W        W31867  35.039  42.513  13.463
59608W        W31868  36.510  15.804  14.406
59609W        W31869  41.875  17.115  14.810
59610W        W31870  22.239   5.215  14.765
59611W        W31871  43.788  37.983  11.482
59612W        W31872   0.852  24.013   1.429
59613W        W31873  34.071  17.178  13.898
59614W        W31874  33.088  37.027   2.242
59615W        W31875  17.661  13.300  12.037
59616W        W31876  26.531  37.463  12.511
59617W        W31877  32.444  38.470  14.397
59618W        W31878  29.566   2.450  13.021
59619W        W31879  22.100   1.352  11.862
59620W        W31880  37.067  19.598   2.740
59621W        W31881  29.457  32.981  10.030
59622W        W31882  38.454  37.563  10.130
59623W        W31883  31.546  27.680  10.641
59624W        W31884  19.215  25.661  11.609
59625W        W31885  33.923  44.918   4.621
59626W        W31886  19.674   5.740   4.754
59627W        W31887  31.530  11.700   1.787
59628W        W31888  13.155  26.002  14.299
59629W        W31889  35.041   1.945   1.268
59630W        W31890  10.797   1.321  10.900
59631W        W31891  39.346  38.026  14.490
59632W        W31892   0.342   2.244  13.839
59633W        W31893  18.750  43.350   3.160
59634W        W31894  27.082  42.303   1.890
59635W        W31895  23.056  32.903   2.268
59636W        W31896  30.597  23.238   3.725
59637W        W31897   5.408  21.245   0.337
59638W        W31898  37.918  37.551   0.400
59639W        W31899  19.669  24.694   2.203
59640W        W31900  42.922   2.416  12.069
59641W        W31901  36.041  32.019  11.499
59642W        W31902  29.043   8.272  13.405
59643W        W31903   7.277  41.969  10.925
59644W        W31904  10.761  13.323   1.435
59645W        W31905   1.759  22.524  12.974
59646W        W31906  22.148  37.379  13.377
59647W        W31907  32.075   9.693  11.936
59648W        W31908  20.766  33.097   3.262
59649W        W31909  20.137  42.295   3.261
59650W        W31910  42.907  21.186   3.807
59651W        W31911  42.891  12.690   2.709
59652W        W31912   2.472  10.253   0.844
59653W        W31913  17.108  27.993  11.490
59654W        W31914  34.958   1.732   1.886
59655W        W31915   7.820   1.285  14.405
59656W        W31916  22.597  33.906   4.272
59657W        W31917   3.928  40.432   1.718
59658W        W31918  28.157   6.310  10.954
59659W        W31919  11.848  44.376   0.912
59660W        W31920  40.533  15.632  11.034
59661W        W31921  21.201  21.236   0.423
59662W        W31922  26.180   7.287   0.871
59663W        W31923  25.699  42.491   3.855
59664W        W31924   0.478   0.915  11.591
59665W        W31925  12.686  43.962  14.494
59666W        W31926   7.864   7.320  13.386
59667W        W31927  13.342  21.682  13.937
59668W        W31928  19.106  37.473  11.978
59669W        W31929  36.362   7.723   0.437
59670W        W31930  22.170   0.260  12.878
59671W        W31931  37.491  32.023   2.750
59672W        W31932  36.354  30.518   0.749
59673W        W31933   1.351  42.500  10.628
59674W        W31934  35.891  25.216   0.369
59675W        W31935  40.529   2.820  12.480
59676W        W31936  25.506  12.283   1.344
59677W        W31937   0.391  35.039  14.376
59678W        W31938  22.546  37.562  12.506
59679W        W31939   2.854  28.537   4.167
59680W        W31940  36.872   5.767  14.418
59681W        W31941   8.362  24.524   2.825
59682W        W31942  30.424  41.440  10.567
59683W        W31943  26.027  21.724  11.381
59684W        W31944  29.154  12.226  13.055
59685W        W31945  20.168  18.709  10.940
59686W        W31946   9.280  27.191  10.456
59687W        W31947   9.851  32.076   4.182
59688W        W31948  11.242  16.073   3.752
59689W        W31949   3.435  10.817  10.514
59690W        W31950  39.881   6.713  13.870
59691W        W31951  44.449  23.133  11.070
59692W        W31952  13.282   0.437   0.880
59693W        W31953  19.157  28.556   0.251
59694W        W31954  38.920  35.950  13.447
59695W        W31955   1.813   4.390  11.899
59696W        W31956  24.682  26.168   4.129
59697W        W31957   7.257   2.388   3.204
59698W        W31958  22.229  33.928  11.109
59699W        W31959  16.177  16.233   3.202
59700W        W31960  14.302  35.033  14.466
59701W        W31961  11.295  20.159  11.962
59702W        W31962  23.065  41.463   2.182
59703W        W31963   2.724   3.264   3.713
59704W        W31964   1.761  12.145   1.426
59705W        W31965  29.646  30.050   4.687
59706W        W31966   0.948   1.956  13.032
59707W        W31967   0.450  35.004   0.754
59708W        W31968  42.917   0.907   4.653
59709W        W31969  10.841  40.047   2.733
59710W        W31970  36.590  38.369  12.843
59711W        W31971  15.790  21.578   3.207
59712W        W31972   0.292  19.614  14.376
59713W        W31973  36.472  38.540  14.317
59714W        W31974  30.650  15.720   1.313
59715W        W31975  37.564  11.710   1.802
59716W        W31976  22.578  37.483  11.585
59717W        W31977  31.963   3.884  11.938
59718W        W31978  30.415  23.086   4.258
59719W        W31979  43.298  30.146  12.097
59720W        W31980   7.296  19.580   3.281
59721W        W31981  40.943  29.664   3.340
59722W        W31982   7.763  42.928  11.390
59723W        W31983  15.108  36.543   4.352
59724W        W31984  30.638  24.511   2.356
59725W        W31985  43.791  42.835  14.823
59726W        W31986  11.716  25.560  12.393
59727W        W31987  12.709  25.491  10.467
59728W        W31988  36.898  18.265   3.648
59729W        W31989  25.516  26.099  10.426
59730W        W31990  14.776  39.003  10.055
59731W        W31991  15.645  41.390   2.765
59732W        W31992  19.774  18.237  13.910
59733W        W31993  17.752  23.002   3.317
59734W        W31994   8.688   2.783   3.682
59735W        W31995   7.335  33.026   3.648
59736W        W31996  20.698  41.492   1.745
59737W        W31997  21.512  26.653   5.204
59738W        W31998  36.886  15.641  12.993
59739W        W31999  20.261   7.698   3.173
59740W        W32000   5.923  12.323  13.010
59741W        W32001  17.734  26.162   4.114
59742W        W32002  20.165  37.371  13.876
59743W        W32003  43.437  16.679   3.243
59744W        W32004  28.172  40.346  10.961
59745W        W32005   8.818  24.612  14.781
59746W        W32006   9.219  31.925  14.492
59747W        W32007   6.356  21.080   5.217
59748W        W32008  43.945  29.432   4.172
59749W        W32009  41.425  40.329  14.346
59750W        W32010  28.126   5.698  10.595
59751W        W32011  32.501   8.290  11.860
59752W        W32012  27.003  39.894   0.324
59753W        W32013  41.356  25.107  14.019
59754W        W32014  19.247   1.844  10.443
59755W        W32015  13.340  32.403  10.579
59756W        W32016   6.905  27.173  10.009
59757W        W32017  37.059   6.314   1.824
59758W        W32018  21.136  44.292  11.495
59759W        W32019  28.529   1.848  10.889
59760W        W32020  38.053  31.488   1.369
59761W        W32021  28.446  34.570   1.343
59762W        W32022  17.780  21.566   0.810
59763W        W32023   7.722  22.213   4.290
59764W        W32024  20.552  33.054   3.710
59765W        W32025  10.210  41.502  13.976
59766W        W32026  38.506  32.009  12.082
59767W        W32027  35.471  12.776  14.323
59768W        W32028  11.300  33.535   3.366
59769W        W32029  17.128   6.908   1.823
59770W        W32030  37.557  44.285   3.322
59771W        W32031  37.075  14.264   5.276
59772W        W32032   4.757   9.344  14.320
59773W        W32033  22.032  25.612  10.441
59774W        W32034   6.356  40.341   3.382
59775W        W32035  27.076  24.587   0.795
59776W        W32036  40.358  14.310  10.624
59777W        W32037  43.921  15.237  12.055
59778W        W32038   7.187  17.753  11.470
59779W        W32039  39.461  42.859   2.345
59780W        W32040  13.312  32.033   9.944
59781W        W32041  17.692  14.280   2.276
59782W        W32042  37.975  40.036  14.999
59783W        W32043  27.660  16.104  13.796
59784W        W32044   7.190  27.676   0.375
59785W        W32045  18.213  17.608   1.439
59786W        W32046  41.898  42.447   2.768
59787W        W32047   9.659   5.313  12.894
59788W        W32048  35.077  24.017   0.308
59789W        W32049  33.460  36.976  11.017
59790W        W32050  22.139  21.214  12.887
59791W        W32051   8.845  15.125   0.890
59792W        W32052  13.701  14.260  12.412
59793W        W32053  33.488  17.304  10.565
59794W        W32054  37.064  24.616  10.565
59795W        W32055  22.722   5.752  14.450
59796W        W32056  44.271   2.247  14.852
59797W        W32057  30.557  22.074  12.841
59798W        W32058  32.090  30.942   0.408
59799W        W32059  11.680  41.012  14.483
59800W        W32060   4.236  12.162   0.477
59801W        W32061   4.401  38.456  13.821
59802W        W32062   2.236  22.158   2.225
59803W        W32063  18.206  16.793  12.418
59804W        W32064   1.467  26.127   4.268
59805W        W32065   4.399  11.196  11.885
59806W        W32066  32.573  13.798   0.390
59807W        W32067  32.595  39.349  11.897
59808W        W32068  37.521  39.811   0.306
59809W        W32069  20.041  34.571   0.303
59810W        W32070  33.930   4.426   2.776
59811W        W32071  16.215  28.522   0.369
59812W        W32072   6.426  39.367   1.329
59813W        W32073  28.534   5.874   0.764
59814W        W32074  25.965  14.718   3.766
59815W        W32075  12.784   1.828  11.543
59816W        W32076  19.721  34.603  13.982
59817W        W32077   1.274  28.131   4.749
59818W        W32078  20.247  32.636  13.930
59819W        W32079  42.929  18.599  14.499
59820W        W32080  34.511   6.279  10.615
59821W        W32081   8.176  19.275  12.862
59822W        W32082  37.938  37.389  14.477
59823W        W32083  43.499  21.653   1.708
59824W        W32084  35.431  44.841  14.918
59825W        W32085  12.145   1.806   3.665
59826W        W32086  27.535   7.409  12.571
59827W        W32087  34.508  40.420  13.361
59828W        W32088  16.598  16.728  13.341
59829W        W32089  40.434  12.761   3.151
59830W        W32090  34.545  32.531   1.300
59831W        W32091  21.636   7.667   2.790
59832W        W32092  41.429   8.264  12.347
59833W        W32093  40.871  35.391  11.958
59834W        W32094  14.196  40.474  11.579
59835W        W32095  33.963  36.494   2.872
59836W        W32096  22.156  44.269  10.445
59837W        W32097  43.344  44.929   2.670
59838W        W32098  24.635  37.541   3.681
59839W        W32099  39.477  23.630  12.441
59840W        W32100  36.095  35.858  11.397
59841W        W32101  19.619  44.319   4.133
59842W        W32102  25.124  22.183   0.751
59843W        W32103  16.804  18.691   3.816
59844W        W32104   6.804  15.618   2.409
59845W        W32105  38.073  25.558   1.212
59846W        W32106  10.823  22.670   3.836
59847W        W32107  23.090  12.263  11.998
59848W        W32108  22.230  39.313  11.520
59849W        W32109  29.007   0.437  12.856
59850W        W32110  17.587   2.795   1.911
59851W        W32111  20.230   7.213   3.207
59852W        W32112  41.327   4.836   4.255
59853W        W32113  16.810  36.591  13.966
59854W        W32114  17.079   6.352   4.210
59855W        W32115  37.848  35.038   4.163
59856W        W32116  19.070  12.647   3.364
59857W        W32117  17.777  26.032  14.475
59858W        W32118  40.332  23.153  13.355
59859W        W32119  11.741  29.561   2.763
59860W        W32120  44.458  31.525   4.749
59861W        W32121  25.502   3.454  10.639
59862W        W32122   6.747  28.615  11.950
59863W        W32123  16.700  42.347  13.868
59864W        W32124  41.498  25.981  12.374
59865W        W32125  30.413   9.152  14.941
59866W        W32126  11.717  24.680   3.829
59867W        W32127  13.829  27.984   5.096
59868W        W32128  41.307  36.005   3.352
59869W        W32129   7.699   0.419   1.433
59870W        W32130  16.779  28.606   1.702
59871W        W32131  43.277   9.167   0.383
59872W        W32132  38.980  11.278   9.981
59873W        W32133  16.128  25.533   4.249
59874W        W32134  32.903  38.514   0.438
59875W        W32135  17.601   4.244  10.403
59876W        W32136   3.784  42.285  14.834
59877W        W32137  30.136  44.296   1.252
59878W        W32138   6.359  26.509   4.195
59879W        W32139  23.561  27.494   0.441
59880W        W32140  22.683   7.752   2.410
59881W        W32141  43.974  42.340  12.549
59882W        W32142  11.280   0.926  10.440
59883W        W32143  29.020  35.573  10.547
59884W        W32144  18.056  42.805   1.869
59885W        W32145   1.954  21.042   2.889
59886W        W32146  17.067  36.521   1.409
59887W        W32147  10.724  35.073   4.144
59888W        W32148  25.507  37.462   2.303
59889W        W32149  17.224  43.399  14.879
59890W        W32150  26.173  37.868  10.446
59891W        W32151  44.817   9.662   1.715
59892W        W32152  21.028   9.291   0.369
59893W        W32153   0.472  39.055  13.490
59894W        W32154  31.515  24.723   2.196
59895W        W32155  13.734  30.464  10.584
59896W        W32156   2.798  40.900  13.490
59897W        W32157  13.795  16.769   4.711
59898W        W32158  17.258  23.145   3.643
59899W        W32159  17.595  25.090   2.260
59900W        W32160  44.355  22.231  11.930
59901W        W32161  34.112  12.725  12.389
59902W        W32162  41.443   6.764  10.641
59903W        W32163   7.379  36.899   3.206
59904W        W32164   7.193  29.066   1.856
59905W        W32165   5.915  11.735  13.828
59906W        W32166   8.856   6.397   3.669
59907W        W32167   2.465   9.745   2.788
59908W        W32168  31.548  26.068   3.704
59909W        W32169  22.131  41.943  13.876
59910W        W32170  11.184   6.756  10.927
59911W        W32171  20.684  23.530   1.806
59912W        W32172  21.733  11.164   3.204
59913W        W32173  13.307   0.248  10.932
59914W        W32174  15.301  16.733  11.404
59915W        W32175   4.427  23.171   3.294
59916W        W32176  20.714  38.432   2.722
59917W        W32177  43.797  27.965  13.020
59918W        W32178  40.477  11.157   2.378
59919W        W32179  36.412  26.111  14.407
59920W        W32180  14.824  27.989   2.316
59921W        W32181  16.103  12.170  12.574
59922W        W32182  18.651  29.017  13.476
59923W        W32183  22.586   6.734   0.898
59924W        W32184  32.047   4.392   3.843
59925W        W32185  17.713  36.487  12.831
59926W        W32186  28.159  15.691   2.883
59927W        W32187   2.848   4.263  11.422
59928W        W32188   3.264  36.471   2.687
59929W        W32189  44.421  33.492   2.804
59930W        W32190   7.767   4.366   1.769
59931W        W32191  22.537  13.720   4.834
59932W        W32192  32.116   5.342  13.337
59933W        W32193  27.665  29.015  14.975
59934W        W32194  26.054  24.063   0.271
59935W        W32195  35.414  10.650  11.077
59936W        W32196  36.447  16.213  14.455
59937W        W32197  15.113  23.557  11.493
59938W        W32198  27.106  39.831   3.329
59939W        W32199  14.331   8.663   0.869
59940W        W32200  38.426   7.282  12.978
59941W        W32201  43.975  30.012  11.556
59942W        W32202  17.629  30.466   1.860
59943W        W32203  12.342  14.693   3.675
59944W        W32204   7.666  32.523   0.769
59945W        W32205  11.659   6.274   1.278
59946W        W32206  11.333  23.030   1.801
59947W        W32207  37.473   2.255   4.798
59948W        W32208  32.427   4.718  14.996
59949W        W32209  13.215  28.083   0.445
59950W        W32210   4.352  15.288   4.775
59951W        W32211  20.081  40.902   0.953
59952W        W32212  44.880   7.812  13.323
59953W        W32213  25.096   4.859   0.915
59954W        W32214   2.818  41.448  11.037
59955W        W32215   7.869  29.551  13.358
59956W        W32216  15.159  33.057  14.813
59957W        W32217  30.946  28.016   0.313
59958W        W32218  32.608  34.876  12.941
59959W        W32219  26.130  15.747   4.176
59960W        W32220   1.242  15.271  11.523
59961W        W32221  25.486   8.766  10.425
59962W        W32222  13.717  30.907  12.428
59963W        W32223  41.801  43.445   2.790
59964W        W32224  18.079  30.608   1.836
59965W        W32225  38.007  41.345  11.980
59966W        W32226  12.117  24.725  14.827
59967W        W32227  38.518  15.165  13.540
59968W        W32228  10.352  33.984   1.327
59969W        W32229  32.055  27.454  11.013
59970W        W32230  37.930  18.220   1.354
59971W        W32231   6.246  22.679  12.864
59972W        W32232  22.202   1.814   0.890
59973W        W32233  14.264  38.984  12.824
59974W        W32234  31.116  44.897  13.995
59975W        W32235  19.233  16.164   4.770
59976W        W32236  11.635   5.806  10.610
59977W        W32237  42.387   1.974  11.968
59978W        W32238  39.895  44.783   3.262
59979W        W32239  43.394  16.625   1.362
59980W        W32240   4.786  32.004  11.587
59981W        W32241  29.640  14.199  11.990
59982W        W32242  41.537  34.403  13.841
59983W        W32243  39.993  40.437   2.412
59984W        W32244  19.274  40.309  11.002
59985W        W32245  16.242  44.342  10.576
59986W        W32246   3.330  28.038   2.193
59987W        W32247  17.572  19.749   1.326
59988W        W32248  20.052  22.738  12.934
59989W        W32249   0.256  35.928   0.910
59990W        W32250  14.691  14.650   4.233
59991W        W32251  18.730  41.023   1.221
59992W        W32252  35.460  16.184   4.698
59993W        W32253  40.539   5.362   2.277
59994W        W32254  44.990  20.729   0.786
59995W        W32255  38.422  26.982   0.411
59996W        W32256  25.619  20.270   3.356
59997W        W32257  15.767  10.289   4.767
59998W        W32258  32.620  18.684   0.868
59999W        W32259  41.381   0.358   3.742
60000W        W32260  22.657  40.313   1.875
60001W        W32261   2.886  34.477   0.427
60002W        W32262   7.686  17.285  14.842
60003W        W32263   9.181   4.862  10.070
60004W        W32264  43.902  13.599  13.042
60005W        W32265  17.162  37.474  10.449
60006W        W32266  40.341  30.562  13.061
60007W        W32267  37.536   6.848  12.890
60008W        W32268  29.555   6.682  13.038
60009W        W32269  11.756   7.861   4.825
60010W        W32270  41.320  40.868  10.480
60011W        W32271  36.087   6.196   0.874
60012W        W32272  35.458  27.016  13.932
60013W        W32273  15.589  32.593  12.068
60014W        W32274  22.014  44.985  10.944
60015W        W32275  24.059   7.813   0.344
60016W        W32276  26.673  41.854  14.948
60017W        W32277  32.108  31.963   3.812
60018W        W32278  33.023   2.783   2.814
60019W        W32279   6.792  41.004  10.996
60020W        W32280  39.839   6.848   2.810
60021W        W32281  25.067   6.771  13.351
60022W        W32282  26.113   5.761   2.699
60023W        W32283   0.979   9.801   4.598
60024W        W32284  22.166  21.668   2.208
60025W        W32285   5.246   6.300  10.889
60026W        W32286  10.378   2.419   1.232
60027W        W32287   4.346  37.851  11.934
60028W        W32288  29.487  21.597   0.481
60029W        W32289   6.862   6.703  13.494
60030W        W32290   2.322  22.513  11.435
60031W        W32291   8.347   9.805  14.299
60032W        W32292  17.171  34.879  14.429
60033W        W32293   9.707  30.940  14.796
60034W        W32294  42.310  18.687   2.246
60035W        W32295  31.014  30.954   4.682
60036W        W32296  14.188  14.146  13.416
60037W        W32297  39.360   1.437  12.840
60038W        W32298   7.734  16.733  10.622
60039W        W32299  41.524   3.792  10.641
60040W        W32300   5.225  22.098   2.364
60041W        W32301  36.503   9.681   0.961
60042W        W32302   6.412  38.488  12.500
60043W        W32303  20.042  31.148  13.804
60044W        W32304   4.725  13.625   0.841
60045W        W32305  24.548  16.779   3.663
60046W        W32306  17.714  38.547   2.329
60047W        W32307   1.344  43.312   4.328
60048W        W32308  33.107  32.406  14.974
60049W        W32309  38.006  40.509  10.075
60050W        W32310   6.838  21.672   3.179
60051W        W32311  23.634  29.511   3.284
60052W        W32312   8.801  43.384  12.084
60053W        W32313  33.549  27.457  10.950
60054W        W32314  31.628  29.148  10.918
60055W        W32315  39.875  14.621  11.073
60056W        W32316   8.201   8.363   2.250
60057W        W32317  31.975  10.656   2.889
60058W        W32318   0.847  12.165   1.240
60059W        W32319  26.954  10.224   0.902
60060W        W32320  22.536  38.982  13.512
60061W        W32321   7.211   4.223   2.817
60062W        W32322   5.333   6.684   0.337
60063W        W32323   2.956  24.115  12.359
60064W        W32324   3.722   1.793  14.506
60065W        W32325   0.909   6.203  14.878
60066W        W32326  39.522  37.347  12.012
60067W        W32327  43.898  15.118   2.717
60068W        W32328  20.126  22.680  11.549
60069W        W32329  31.028  42.851  14.335
60070W        W32330  16.166   7.177  12.927
60071W        W32331  40.376  13.726  11.511
60072W        W32332  16.708  38.463  11.957
60073W        W32333  33.610  36.442  14.011
60074W        W32334  33.889   5.708  12.938
60075W        W32335  33.413  35.103  14.032
60076W        W32336   6.829  33.979  12.961
60077W        W32337  42.288   2.730   4.638
60078W        W32338  21.133  26.577   2.867
60079W        W32339  21.209  26.190  10.032
60080W        W32340  24.153   6.235  14.863
60081W        W32341  27.070  32.588  12.876
60082W        W32342  35.052  25.142   0.378
60083W        W32343  43.395  26.668  11.401
60084W        W32344  37.916  21.712   0.271
60085W        W32345  34.031  28.582  13.034
60086W        W32346  24.580  33.070  13.537
60087W        W32347  40.341  39.826  11.944
60088W        W32348  20.168  32.141  10.620
60089W        W32349  11.205  43.489   1.429
60090W        W32350  14.137  16.626   0.313
60091W        W32351  17.114  21.151  11.984
60092W        W32352  14.821  36.968   1.273
60093W        W32353  37.491  29.960  12.848
60094W        W32354  27.648  31.516   5.744
60095W        W32355  36.544  18.236  10.121
60096W        W32356  34.449  13.150  13.911
60097W        W32357  41.323  37.568  10.588
60098W        W32358  34.454  20.263   1.820
60099W        W32359  17.559  39.525   2.192
60100W        W32360  25.049  19.667   3.295
60101W        W32361  10.742  24.192  13.497
60102W        W32362  41.330  12.857  10.542
60103W        W32363  43.947  38.391   0.440
60104W        W32364  16.673   4.388  14.490
60105W        W32365  14.646   2.293  12.866
60106W        W32366  36.862  43.380  12.454
60107W        W32367   7.821  16.183   4.824
60108W        W32368  33.410  22.150   3.725
60109W        W32369  19.053  26.593   0.450
60110W        W32370   2.258  25.657   2.678
60111W        W32371  26.492  42.526   2.901
60112W        W32372  10.336  18.591   0.249
60113W        W32373  10.177  34.894   1.273
60114W        W32374  10.207   4.901   4.809
60115W        W32375   1.352  30.914  14.345
60116W        W32376  21.043  22.223  14.380
60117W        W32377   2.782  15.709   4.312
60118W        W32378   0.833   2.784   1.785
60119W        W32379  14.800  30.614   3.283
60120W        W32380   4.440  43.769  11.406
60121W        W32381  36.915  25.089   1.390
60122W        W32382   9.747   4.895  12.865
60123W        W32383  22.646   4.395   3.362
60124W        W32384  19.220   4.727  11.460
60125W        W32385  41.520  11.218   0.810
60126W        W32386  44.894   7.725  13.940
60127W        W32387   3.822  28.988  11.917
60128W        W32388  33.894  14.234   0.862
60129W        W32389  37.832   7.807  14.299
60130W        W32390  19.103  41.917  10.554
60131W        W32391  31.500  37.502   2.365
60132W        W32392  13.695  11.276  14.966
60133W        W32393  10.147  39.381  12.960
60134W        W32394   9.265  30.510  12.936
60135W        W32395   8.216  44.877   0.734
60136W        W32396  37.943   7.201   2.351
60137W        W32397  26.168  24.572   4.693
60138W        W32398  27.073  12.335  14.967
60139W        W32399  35.038  37.963  11.963
60140W        W32400   1.735   2.899   4.628
60141W        W32401  15.663  40.906  14.469
60142W        W32402  20.241  32.039  14.810
60143W        W32403  40.539  24.724   4.153
60144W        W32404  20.747  22.638   4.251
60145W        W32405  10.260  17.183  14.868
60146W        W32406  25.065  26.678   2.344
60147W        W32407   8.716   4.757   3.359
60148W        W32408  32.511   9.335  12.857
60149W        W32409  10.301  27.469  12.342
60150W        W32410  44.303  32.124  14.444
60151W        W32411   1.243  38.938   3.840
60152W        W32412  22.121  25.477  12.901
60153W        W32413  31.524   3.414   3.640
60154W        W32414  43.982   7.357  12.892
60155W        W32415  35.933   6.427  14.900
60156W        W32416  15.276   2.771  10.421
60157W        W32417  32.621  39.436  11.040
60158W        W32418   4.258  14.827   0.915
60159W        W32419  19.114   0.791  14.349
60160W        W32420  28.601  14.227   0.849
60161W        W32421  36.020  35.989   1.869
60162W        W32422  21.512  35.463  13.332
60163W        W32423  40.322  20.628   0.913
60164W        W32424  26.628   2.429  14.405
60165W        W32425  23.572  34.402  13.457
60166W        W32426   2.312   1.320  12.342
60167W        W32427   7.806   6.295   4.671
60168W        W32428  10.344   0.963   2.879
60169W        W32429  33.062  23.208   1.866
60170W        W32430  28.138   8.306  14.921
60171W        W32431  33.881   9.387  11.387
60172W        W32432  34.070  42.789   1.738
60173W        W32433  32.473  15.608   3.177
60174W        W32434   7.384  32.580   3.153
60175W        W32435  23.592  37.046  13.943
60176W        W32436  26.017  39.862   1.305
60177W        W32437  39.324  21.604  11.513
60178W        W32438   7.380   5.261  13.529
60179W        W32439  23.688  17.568   4.335
60180W        W32440   7.708  44.493  12.876
60181W        W32441  24.061   4.921  14.509
60182W        W32442  32.615  44.428  14.943
60183W        W32443  25.046  33.500   0.840
60184W        W32444  29.459   8.281  12.446
60185W        W32445  26.686  30.591  12.883
60186W        W32446  42.305  24.593   0.796
60187W        W32447   1.348   3.327   0.376
60188W        W32448  23.614  43.445  12.886
60189W        W32449  25.615  24.997  13.036
60190W        W32450  15.586  33.889   2.258
60191W        W32451  12.223  23.617   1.402
60192W        W32452  12.326  14.683  12.445
60193W        W32453  11.165   8.843  11.936
60194W        W32454  35.497  18.588  11.929
60195W        W32455  13.752  12.835  10.535
60196W        W32456  40.838  16.734   4.116
60197W        W32457  44.904  40.332  12.042
60198W        W32458  33.106   7.293  14.835
60199W        W32459  19.575  41.414  14.789
60200W        W32460  12.779   6.391  14.342
60201W        W32461  18.725   8.897  14.349
60202W        W32462  42.991  35.385  12.577
60203W        W32463  32.406   7.393   4.723
60204W        W32464  36.980  38.071  12.864
60205W        W32465  15.793   3.732  11.936
60206W        W32466  26.986  16.810  13.429
60207W        W32467  25.219  14.789   4.159
60208W        W32468  40.520  29.583  14.769
60209W        W32469  21.651   9.712  10.567
60210W        W32470  38.333  29.453   1.307
60211W        W32471  33.531  11.203  11.396
60212W        W32472  15.744  15.304   2.403
60213W        W32473  37.482  33.404  12.963
60214W        W32474  42.928  30.984  13.311
60215W        W32475   0.796  42.418   2.837
60216W        W32476  29.530  28.060  12.447
60217W        W32477  23.076  18.563  13.508
60218W        W32478  38.536  44.853  13.016
60219W        W32479  40.915  39.847   4.326
60220W        W32480   4.887   8.211  11.050
60221W        W32481  10.790   5.840   3.334
60222W        W32482  23.611  21.101  14.833
60223W        W32483  27.469  10.736   3.735
60224W        W32484  20.688  16.197  12.891
60225W        W32485  12.170  25.013  13.978
60226W        W32486   0.870  36.083  10.075
60227W        W32487  39.029  18.289   5.212
60228W        W32488  24.132  28.436   2.311
60229W        W32489  35.906  12.817  14.837
60230W        W32490  32.487  31.969  13.401
60231W        W32491   9.375  31.961  11.428
60232W        W32492  36.506  21.228  14.874
60233W        W32493  31.427   3.899   1.834
60234W        W32494  13.660  33.443   2.246
60235W        W32495  35.901  16.811   3.263
60236W        W32496  31.419   4.867  10.606
60237W        W32497  24.183  12.742  13.882
60238W        W32498  29.995   9.239  12.072
60239W        W32499  29.032  43.869  11.900
60240W        W32500  19.618   8.851   4.275
60241W        W32501  10.837  35.863  14.382
60242W        W32502  29.516  19.571   5.113
60243W        W32503  21.073   2.304   2.817
60244W        W32504  39.984  21.524  13.941
60245W        W32505  16.600  18.050   1.743
60246W        W32506   1.913  20.101   3.221
60247W        W32507  41.021   1.482  14.810
60248W        W32508  11.309  41.413   3.635
60249W        W32509  33.477  19.234  10.533
60250W        W32510  22.206  17.588  14.390
60251W        W32511  27.054  10.862   3.354
60252W        W32512  37.556  32.489   2.695
60253W        W32513  11.838  43.374  13.899
60254W        W32514  29.652  25.167   3.289
60255W        W32515  38.924  32.992  12.529
60256W        W32516  23.224  24.720  14.839
60257W        W32517  22.656  37.860  14.367
60258W        W32518   9.744   4.890  11.521
60259W        W32519  38.952  19.162  14.956
60260W        W32520   9.766   3.774   4.690
60261W        W32521  10.661  41.954   0.313
60262W        W32522  31.526  35.535   1.729
60263W        W32523  20.701  33.924   2.862
60264W        W32524  34.384  23.495  14.373
60265W        W32525  39.330  20.628   1.326
60266W        W32526  44.801  39.398   0.811
60267W        W32527  37.428   1.773  14.990
60268W        W32528  13.733  44.280   2.726
60269W        W32529  16.691  23.599  14.975
60270W        W32530   5.252  12.803   3.369
60271W        W32531  29.490  18.678  14.464
60272W        W32532  42.878  26.654  14.836
60273W        W32533  28.069  25.014  12.033
60274W        W32534  23.683  26.960   4.676
60275W        W32535  41.405  28.005   2.397
60276W        W32536  43.448  18.084   4.821
60277W        W32537  16.621   9.771  13.802
60278W        W32538  22.108   0.379  11.507
60279W        W32539  42.524  17.161   2.393
60280W        W32540   6.247  31.448   2.788
60281W        W32541  38.485   9.269   5.143
60282W        W32542  15.720  32.077  14.316
60283W        W32543   8.226  38.862  11.461
60284W        W32544  43.773  25.702  12.508
60285W        W32545  42.799  26.476   0.749
60286W        W32546   5.843  42.383   4.299
60287W        W32547  24.542  29.436  13.030
60288W        W32548   0.469  10.381  11.051
60289W        W32549   0.331   3.355   0.276
60290W        W32550   7.348   3.417   1.887
60291W        W32551  40.835  41.337  14.760
60292W        W32552  11.277  15.104  10.949
60293W        W32553  18.252  39.983  12.850
60294W        W32554  12.304  32.549  10.984
60295W        W32555  19.567  25.564  14.458
60296W        W32556  11.744  41.481  11.563
60297W        W32557   3.276   6.823  10.905
60298W        W32558  15.260   3.458   0.441
60299W        W32559  34.117   6.310  11.541
60300W        W32560  14.236  29.156  10.588
60301W        W32561  24.160  26.113  13.846
60302W        W32562  21.166  13.157   2.687
60303W        W32563   6.705  36.912  10.950
60304W        W32564   5.725  29.920  10.924
60305W        W32565  44.492  17.775  11.398
60306W        W32566  44.372   2.279   4.716
60307W        W32567  13.652  19.705   2.227
60308W        W32568  39.926   3.416   3.761
60309W        W32569  28.623  41.787   0.754
60310W        W32570   0.971  18.777  10.548
60311W        W32571  37.988  42.009   0.366
60312W        W32572  43.269  37.015   3.859
60313W        W32573  11.763  12.695   0.275
60314W        W32574  33.994   8.796   1.301
60315W        W32575  39.960  42.447  13.047
60316W        W32576  44.298   4.765  14.808
60317W        W32577  25.204   5.713   1.730
60318W        W32578   9.836  38.987   0.893
60319W        W32579  13.149  24.662  14.785
60320W        W32580  33.613  23.068   1.776
60321W        W32581  20.232  33.108  13.061
60322W        W32582   7.749  33.400  14.416
60323W        W32583  40.435  38.408  10.588
60324W        W32584  38.886   9.769   3.838
60325W        W32585  15.601  26.649   5.193
60326W        W32586   5.261  21.604   2.882
60327W        W32587   8.665  15.720  11.886
60328W        W32588  34.582  42.480   3.260
60329W        W32589  20.170  23.718   1.877
60330W        W32590   6.865  12.731  14.379
60331W        W32591  22.624  11.747  13.964
60332W        W32592   7.189  10.701   4.167
60333W        W32593   3.381  36.870   4.310
60334W        W32594  32.400  35.485  11.433
60335W        W32595  24.170  36.075  11.909
60336W        W32596  31.442   8.851   5.265
60337W        W32597  18.241  21.579  12.862
60338W        W32598  33.876   5.697  11.927
60339W        W32599   6.750  28.453  13.491
60340W        W32600   3.865  38.497   2.840
60341W        W32601  14.240  35.943   1.387
60342W        W32602  37.031   5.850  11.080
60343W        W32603  13.778  44.460  12.445
60344W        W32604  24.657  22.527   4.124
60345W        W32605  18.063   8.812   3.171
60346W        W32606   2.930   8.886  12.830
60347W        W32607  44.376  41.883  14.861
60348W        W32608  11.828  31.421   1.239
60349W        W32609  39.441  42.438  12.866
60350W        W32610  31.963  32.913  13.930
60351W        W32611  19.708  35.373   4.660
60352W        W32612  32.627  12.747   4.632
60353W        W32613  28.646  36.028   1.357
60354W        W32614  37.079  42.004  11.394
60355W        W32615  10.311  23.178   0.368
60356W        W32616   1.977  16.705  13.903
60357W        W32617  29.454  23.639   0.432
60358W        W32618  16.721  11.845  12.971
60359W        W32619  16.570  18.660   0.812
60360W        W32620  13.642  43.383   1.223
60361W        W32621  31.546  36.072   4.782
60362W        W32622  22.115  17.221  12.506
60363W        W32623  21.727   9.298   3.214
60364W        W32624   3.944  25.548   1.338
60365W        W32625   0.295   9.370  11.387
60366W        W32626  38.011  12.188  11.608
60367W        W32627  14.609  26.068   2.704
60368W        W32628  26.681  30.142  10.949
60369W        W32629  37.880  40.416  13.868
60370W        W32630  42.022   0.366  14.019
60371W        W32631  28.125   3.769   1.252
60372W        W32632  37.834   0.271  13.467
60373W        W32633   6.814   3.882  12.064
60374W        W32634  43.892   9.291  11.961
60375W        W32635   5.253  35.921   0.860
60376W        W32636  37.432  11.730   4.613
60377W        W32637  10.816   7.826  14.817
60378W        W32638   3.850  39.824   0.896
60379W        W32639  29.457   0.949  13.917
60380W        W32640  18.637  23.685   2.398
60381W        W32641   6.217  30.645  10.017
60382W        W32642  25.210  37.510   2.390
60383W        W32643  23.511  27.511   4.143
60384W        W32644  14.159  25.046   1.882
60385W        W32645  34.568  19.711   2.854
60386W        W32646  25.574   4.702  12.414
60387W        W32647   4.764  18.668   5.298
60388W        W32648  16.236  21.029  14.933
60389W        W32649  34.581  44.799   4.705
60390W        W32650  33.573   1.925   0.795
60391W        W32651  26.586  30.128   1.254
60392W        W32652  25.995  30.007  14.334
60393W        W32653  31.011  44.354  12.576
60394W        W32654   7.308  14.670   0.467
60395W        W32655  33.031  34.398  14.319
60396W        W32656  26.020   0.407   3.280
60397W        W32657  17.687  15.620   4.161
60398W        W32658  42.332  11.172   2.279
60399W        W32659  32.561  37.413  12.862
60400W        W32660  34.596  33.915   4.698
60401W        W32661  25.668   9.690  14.306
60402W        W32662  20.261  38.402  14.815
60403W        W32663  27.585   7.282  10.496
60404W        W32664  27.954  44.990  11.967
60405W        W32665   5.860   3.355  13.809
60406W        W32666  23.615  37.507  10.956
60407W        W32667  12.621   9.729  14.293
60408W        W32668  11.833  37.458  10.007
60409W        W32669   9.730  12.216   3.658
60410W        W32670  15.206  14.610   0.869
60411W        W32671  18.259   4.349  11.915
60412W        W32672  35.957  29.472  12.897
60413W        W32673  39.906  14.594   3.837
60414W        W32674  26.015  37.473  13.058
60415W        W32675   9.656   6.284   0.386
60416W        W32676  27.957  32.600   9.436
60417W        W32677  41.384  13.202   2.811
60418W        W32678  10.872  23.607   4.117
60419W        W32679   4.713  34.531  12.955
60420W        W32680  23.034  13.145   3.837
60421W        W32681  29.511  31.572  12.931
60422W        W32682  32.978  35.856   3.848
60423W        W32683  16.135  18.242   4.186
60424W        W32684   1.820  32.070  10.605
60425W        W32685  43.912  37.068   0.813
60426W        W32686  40.310  18.254   4.137
60427W        W32687  40.879  11.730   1.302
60428W        W32688  15.743   2.943   5.191
60429W        W32689  17.606  36.492  13.884
60430W        W32690  17.141  25.628  12.070
60431W        W32691  31.086  13.653   2.296
60432W        W32692   2.306  32.920   1.909
60433W        W32693   8.677  36.972   2.219
60434W        W32694   9.651  20.258   0.884
60435W        W32695  38.339  16.120   2.389
60436W        W32696  36.403  40.448  11.004
60437W        W32697   8.187  38.009   2.253
60438W        W32698  31.091   2.333  14.921
60439W        W32699  28.184  11.201   2.304
60440W        W32700   4.703  24.509   2.829
60441W        W32701  20.730   5.786   0.420
60442W        W32702  32.543  33.906   2.871
60443W        W32703  34.394  21.110  14.450
60444W        W32704  35.910  28.568  14.404
60445W        W32705  14.104   8.761  11.886
60446W        W32706   6.378  43.455  10.989
60447W        W32707  28.513   4.735  11.983
60448W        W32708  33.576  29.115  14.355
60449W        W32709  20.032  21.247   1.407
60450W        W32710  36.981  40.039   3.656
60451W        W32711  25.025  26.151  14.308
60452W        W32712  13.757  39.830   2.883
60453W        W32713   1.396   8.220  11.005
60454W        W32714  38.404   6.211   4.130
60455W        W32715   0.411  22.218   0.356
60456W        W32716   0.979   5.797  11.096
60457W        W32717  36.974   8.864  11.412
60458W        W32718  23.666  36.976   1.215
60459W        W32719   2.908  35.444  12.502
60460W        W32720  38.336  40.399   2.285
60461W        W32721  20.231  34.946  14.794
60462W        W32722  38.372  18.163  11.526
60463W        W32723  29.929  24.198  14.771
60464W        W32724  44.971  14.233   4.681
60465W        W32725  17.099   3.329   5.172
60466W        W32726  17.172  31.061   3.837
60467W        W32727  32.909  24.566   3.802
60468W        W32728  41.811  38.486  10.479
60469W        W32729  35.440  34.866  14.455
60470W        W32730   6.191  35.069  12.398
60471W        W32731  40.501  29.147  12.081
60472W        W32732   1.266   8.243   1.240
60473W        W32733  17.622  44.894  14.406
60474W        W32734  18.144   3.329   4.142
60475W        W32735   9.201   1.434  14.391
60476W        W32736  31.550  13.705  13.442
60477W        W32737   6.353   5.245  12.885
60478W        W32738  19.097  42.325   2.221
60479W        W32739  32.428   2.775   1.823
60480W        W32740  24.698   0.326  12.385
60481W        W32741   5.812  26.525   2.188
60482W        W32742  19.273  21.030  12.063
60483W        W32743   8.789  22.602  14.396
60484W        W32744  29.947  11.245  13.392
60485W        W32745  44.421   1.947   0.405
60486W        W32746  44.480   5.766  11.411
60487W        W32747   7.726  20.054   4.626
60488W        W32748  16.300  18.749   3.312
60489W        W32749  42.981   1.924   1.743
60490W        W32750  15.714  19.711  11.506
60491W        W32751  34.010  34.053  13.939
60492W        W32752  27.120  36.878   0.951
60493W        W32753  14.829  15.276   4.236
60494W        W32754   7.791  34.011  12.556
60495W        W32755  12.160  40.034   4.178
60496W        W32756  35.439  36.442  12.080
60497W        W32757   4.429  42.442  11.413
60498W        W32758   8.176   0.353  10.522
60499W        W32759   3.797   7.747  12.857
60500W        W32760  21.020  10.153   1.850
60501W        W32761  37.062  15.289  10.592
60502W        W32762   2.960   6.766  11.081
60503W        W32763  30.070   5.788   2.346
60504W        W32764   0.343  27.445  13.474
60505W        W32765  29.921  40.873   2.289
60506W        W32766  24.220  40.981   5.676
60507W        W32767  25.703  39.951  10.071
60508W        W32768  20.077  30.941  13.515
60509W        W32769  19.713  36.453   0.300
60510W        W32770   1.456   2.862   0.325
60511W        W32771  36.092  34.610   4.165
60512W        W32772  29.045  28.522  10.887
60513W        W32773  14.272   8.241  12.008
60514W        W32774   3.802  19.663  12.941
60515W        W32775  41.037  44.362   4.257
60516W        W32776   3.351  25.061  14.319
60517W        W32777  17.243  23.035  14.788
60518W        W32778  32.957  13.680  12.874
60519W        W32779  20.737  21.674   9.542
60520W        W32780  14.622  32.106   4.255
60521W        W32781  11.352   1.855  14.512
60522W        W32782  42.814  13.157  12.464
60523W        W32783  26.018  44.969   0.346
60524W        W32784  34.535  20.045  14.967
60525W        W32785  34.965   9.643  11.967
60526W        W32786   7.891   4.935  13.475
60527W        W32787  22.625   2.899  13.047
60528W        W32788  35.957  30.122   1.282
60529W        W32789  38.486  25.100   2.309
60530W        W32790  16.673  14.282   4.651
60531W        W32791  35.992  40.999   4.123
60532W        W32792  38.426  31.499   3.283
60533W        W32793  18.116   3.752  11.434
60534W        W32794  23.530  44.258   1.353
60535W        W32795   3.843  25.197   4.737
60536W        W32796  32.029  28.608   2.203
60537W        W32797  37.047  28.547   4.331
60538W        W32798  28.559  35.454   0.273
60539W        W32799  13.207  12.146   1.293
60540W        W32800   7.196  42.362  13.397
60541W        W32801  14.152  24.003   5.275
60542W        W32802  34.952  33.441  11.122
60543W        W32803   1.388  18.152   3.352
60544W        W32804  28.470  12.297  12.397
60545W        W32805  32.417   2.857  11.515
60546W        W32806   9.298  26.675  14.470
60547W        W32807  35.441  10.647   1.772
60548W        W32808  41.993  16.612   4.283
60549W        W32809  20.698   9.782  13.318
60550W        W32810  11.754  12.350  10.984
60551W        W32811  43.511  34.038  10.987
60552W        W32812  29.466  15.591   2.763
60553W        W32813  41.475  40.802  13.934
60554W        W32814  19.250  38.525   4.790
60555W        W32815  29.629   9.790  13.933
60556W        W32816  28.167  10.285   4.249
60557W        W32817  27.453   9.231   1.756
60558W        W32818  11.647  40.809  10.483
60559W        W32819  27.186  17.790  14.396
60560W        W32820  44.285   2.302   0.383
60561W        W32821  17.086  28.944   4.242
60562W        W32822  19.052  15.117   3.360
60563W        W32823  40.844  17.271  14.025
60564W        W32824   2.805  24.544   4.215
60565W        W32825  32.924  36.981  14.317
60566W        W32826  43.847  14.821   0.869
60567W        W32827  17.734   6.365   0.735
60568W        W32828   1.933  23.084   4.165
60569W        W32829   9.774  27.020   2.897
60570W        W32830  32.003  24.603  14.010
60571W        W32831  23.175  38.561  14.820
60572W        W32832  32.615   3.710   4.709
60573W        W32833  21.083  26.571   3.657
60574W        W32834  27.530  37.831  13.017
60575W        W32835  44.886  24.041  13.922
60576W        W32836   5.245   7.838   1.423
60577W        W32837  22.231  27.686   3.259
60578W        W32838   9.305  26.569  10.612
60579W        W32839  36.495  18.097   1.803
60580W        W32840  31.116  12.624   0.802
60581W        W32841   8.683  10.746  12.441
60582W        W32842  14.783  38.998   3.374
60583W        W32843   6.872  10.761   1.382
60584W        W32844  34.941  17.583   4.160
60585W        W32845  43.836  15.667   1.875
60586W        W32846   0.907  26.624  13.058
60587W        W32847  14.270  44.275  14.779
60588W        W32848   0.264  43.805  12.547
60589W        W32849  10.244  16.638  14.870
60590W        W32850  17.615  16.665   2.364
60591W        W32851  35.917   6.922   2.885
60592W        W32852  23.663  29.080   4.610
60593W        W32853  31.642   8.669  12.960
60594W        W32854  31.933  20.239  13.532
60595W        W32855  35.884   4.809  13.315
60596W        W32856  16.149  11.736  10.971
60597W        W32857  23.659  42.029  12.403
60598W        W32858   8.832  31.078   4.352
60599W        W32859  19.587  41.431   3.754
60600W        W32860  30.978  29.974   0.876
60601W        W32861   0.266  37.029  12.548
60602W        W32862  29.546  18.611   2.821
60603W        W32863   1.266  16.215   3.344
60604W        W32864  34.556  24.490  14.000
60605W        W32865  22.559  26.983   3.371
60606W        W32866   4.897  30.136  11.981
60607W        W32867   6.184  41.898  11.065
60608W        W32868   6.326  27.109   4.188
60609W        W32869  36.364  19.273   5.186
60610W        W32870  17.102  23.145   3.262
60611W        W32871  28.110  44.490  11.002
60612W        W32872  22.031  34.032  14.283
60613W        W32873  26.641  30.045  13.325
60614W        W32874  39.511  25.069   1.812
60615W        W32875  33.022  35.492   2.715
60616W        W32876   0.373  13.846  13.511
60617W        W32877  29.661  22.089  10.916
60618W        W32878  20.237  39.913   1.703
60619W        W32879  34.487  13.676   0.456
60620W        W32880   1.266  23.627   3.868
60621W        W32881  10.776   2.382  12.849
60622W        W32882  14.781  24.590   4.165
60623W        W32883  11.263   6.314   0.404
60624W        W32884   5.916  20.655   4.339
60625W        W32885   4.815   8.379   3.761
60626W        W32886  24.989   9.304   1.427
60627W        W32887  38.055  17.165  10.459
60628W        W32888  24.704   9.227  10.968
60629W        W32889   6.202  22.705   4.741
60630W        W32890  19.533  37.581  14.499
60631W        W32891  29.973  36.566   4.678
60632W        W32892  26.591  10.366   3.153
60633W        W32893  19.588   2.249   4.656
60634W        W32894  10.382  23.232  13.036
60635W        W32895  10.799  10.176  11.980
60636W        W32896  27.197   6.253   3.162
60637W        W32897  41.389  44.939   2.198
60638W        W32898  43.304  20.529   2.809
60639W        W32899   9.180  22.693  13.308
60640W        W32900  24.680   1.418  11.395
60641W        W32901  39.062  16.271   3.848
60642W        W32902  37.922  42.831  11.965
60643W        W32903  19.643  36.949  12.899
60644W        W32904  40.348   3.952  14.777
60645W        W32905  20.662  21.725  13.325
60646W        W32906   4.846  12.346  13.520
60647W        W32907  40.037   9.680   3.719
60648W        W32908  29.562  19.199  13.041
60649W        W32909  18.176  32.040  11.042
60650W        W32910   6.358  12.288  14.464
60651W        W32911  30.972   4.799  10.051
60652W        W32912  21.116  15.719   0.397
60653W        W32913   1.373   4.715   2.879
60654W        W32914  12.340   8.263   0.415
60655W        W32915  42.799  11.765   3.643
60656W        W32916   4.356  35.855   3.312
60657W        W32917   4.757  29.423  12.470
60658W        W32918  23.497  32.035   0.944
60659W        W32919  34.597  10.168   2.891
60660W        W32920  24.150  29.436   4.328
60661W        W32921  14.336   6.392  13.358
60662W        W32922  41.434   9.191  11.384
60663W        W32923  44.940   5.934  12.978
60664W        W32924   4.745  28.589  14.802
60665W        W32925   9.192  14.152   2.765
60666W        W32926  44.407  17.631   2.696
60667W        W32927   4.293  33.056  13.506
60668W        W32928  44.877  10.780  14.497
60669W        W32929  41.299  12.326  13.905
60670W        W32930  12.217  22.223  12.861
60671W        W32931  31.039  35.883  12.857
60672W        W32932  21.130  13.227  11.558
60673W        W32933  25.167   1.910   1.412
60674W        W32934  28.167  10.188  11.449
60675W        W32935  26.978  42.405   4.652
60676W        W32936   0.944  27.496  14.418
60677W        W32937  32.032  33.382  10.415
60678W        W32938  34.885   8.769  14.972
60679W        W32939  30.082  11.161   3.723
60680W        W32940   9.242  35.556  14.915
60681W        W32941  31.512  39.958   4.810
60682W        W32942  19.070   8.745   5.743
60683W        W32943  31.066   1.927   5.203
60684W        W32944  16.717   4.919   1.885
60685W        W32945  30.433   6.354  13.847
60686W        W32946  16.207  24.499   2.807
60687W        W32947   3.267   3.910   0.824
60688W        W32948  36.388   1.859   1.894
60689W        W32949  23.128  30.599   3.744
60690W        W32950   2.946  19.210  10.542
60691W        W32951  19.091  38.456  12.947
60692W        W32952  40.445  24.994  11.957
60693W        W32953  40.462  11.180   0.852
60694W        W32954  20.192   5.295   1.232
60695W        W32955  37.898  15.089  11.579
60696W        W32956  19.093  39.853   2.197
60697W        W32957  11.628  25.082  12.516
60698W        W32958  24.031  15.251   1.450
60699W        W32959  30.639  35.378  10.890
60700W        W32960  36.438  42.831   2.704
60701W        W32961   0.276   4.288  13.376
60702W        W32962  30.074  21.590  11.100
60703W        W32963  12.271   2.834   3.645
60704W        W32964  25.675  15.170   0.883
60705W        W32965  42.325  19.138   1.248
60706W        W32966  20.229   6.336  10.154
60707W        W32967  32.574  28.638   0.334
60708W        W32968  37.007   9.175  14.323
60709W        W32969  17.639  23.726   4.252
60710W        W32970   8.842   4.793  10.416
60711W        W32971  29.633  24.041   0.358
60712W        W32972  13.335  22.145  12.542
60713W        W32973  33.084  35.533  11.877
60714W        W32974   2.262  42.443  13.039
60715W        W32975  37.912  21.224   0.419
60716W        W32976  40.497  10.220   3.780
60717W        W32977  33.531  23.226   0.877
60718W        W32978  23.522  39.032  11.053
60719W        W32979  20.562  11.153   1.708
60720W        W32980   7.413  40.500   4.625
60721W        W32981  37.007  32.988  12.011
60722W        W32982  27.006  44.002   0.862
60723W        W32983   9.285  44.786   4.821
60724W        W32984  11.343  19.546   4.171
60725W        W32985  19.731  35.579   3.279
60726W        W32986  14.337  26.670  13.517
60727W        W32987   1.476   6.722  13.416
60728W        W32988  39.506   1.916  13.791
60729W        W32989  28.495  32.988   3.678
60730W        W32990   3.430   5.803  10.468
60731W        W32991  12.318  39.919  13.335
60732W        W32992  30.610   4.886   1.928
60733W        W32993  17.691   1.760  11.946
60734W        W32994  16.291   7.267   1.253
60735W        W32995  10.676  30.416  11.555
60736W        W32996  37.006  42.400  11.487
60737W        W32997  19.154  24.704   4.170
60738W        W32998  41.814   9.711   2.221
60739W        W32999  20.218   3.872   0.408
60740W        W33000  27.603  30.431  13.017
60741W        W33001  39.013  25.127   5.145
60742W        W33002  29.021  28.989   5.247
60743W        W33003  38.452  29.146   2.264
60744W        W33004   7.178  33.113   2.698
60745W        W33005  22.148  20.709  14.886
60746W        W33006   9.801  11.804   4.310
60747W        W33007   5.347  22.200   1.841
60748W        W33008  18.738  36.035   3.376
60749W        W33009  31.593  29.574  13.857
60750W        W33010  41.893  30.158   1.900
60751W        W33011  37.575  34.580  14.282
60752W        W33012  11.862   3.290   5.262
60753W        W33013  12.679  23.510   2.722
60754W        W33014  33.546  23.065  14.515
60755W        W33015  43.789  37.870   2.279
60756W        W33016  24.618  32.619  12.947
60757W        W33017  43.340   9.712  11.100
60758W        W33018  11.833   2.273   4.797
60759W        W33019   4.288  25.513   0.335
60760W        W33020  21.190  14.321   0.944
60761W        W33021   2.736  10.244  10.017
60762W        W33022  36.025   2.293  11.379
60763W        W33023  18.694  13.753  11.561
60764W        W33024   5.276   1.413  13.320
60765W        W33025  13.811  44.961   3.386
60766W        W33026  36.979  25.102   4.681
60767W        W33027  42.484  23.137  12.343
60768W        W33028  31.905  35.392  12.840
60769W        W33029  30.936   4.426  14.489
60770W        W33030   2.893  11.160  11.422
60771W        W33031  26.584   4.754   2.180
60772W        W33032   2.788  25.125   1.894
60773W        W33033  12.764   4.277  12.392
60774W        W33034  14.690  27.540   4.266
60775W        W33035  42.990   8.725   4.768
60776W        W33036  33.443  30.575  10.136
60777W        W33037  43.832   6.911  10.558
60778W        W33038  22.189  44.889  10.478
60779W        W33039  37.565  17.146  14.791
60780W        W33040  40.932  43.799  11.044
60781W        W33041  14.222   9.866  13.435
60782W        W33042   2.949  40.320   4.292
60783W        W33043  19.597  25.977  14.851
60784W        W33044  31.069  27.552  10.553
60785W        W33045   7.281  43.014   3.855
60786W        W33046   7.747  28.107  13.844
60787W        W33047  29.033  10.344   4.834
60788W        W33048  15.212  42.517   3.375
60789W        W33049  44.376  12.664   1.315
60790W        W33050  27.513   5.275  10.641
60791W        W33051   1.891  37.913  13.049
60792W        W33052  28.044  19.563  12.880
60793W        W33053  11.637  22.677   3.332
60794W        W33054  44.419  41.340  11.972
60795W        W33055  23.701  28.652  10.466
60796W        W33056  38.913   4.931   4.274
60797W        W33057  28.667   0.798   0.875
60798W        W33058  37.377  17.679   1.714
60799W        W33059   0.899  22.740  10.613
60800W        W33060  31.072   7.306   1.747
60801W        W33061  27.538  23.537   2.884
60802W        W33062  15.112  42.032  10.997
60803W        W33063  31.533  30.425  11.088
60804W        W33064  36.969  29.984  11.389
60805W        W33065  33.919   8.747   2.399
60806W        W33066   7.305  10.846  10.926
60807W        W33067  24.177  19.150  11.523
60808W        W33068  25.527  35.860   4.144
60809W        W33069  37.946   5.844  12.823
60810W        W33070  17.196  37.389   2.828
60811W        W33071   1.266   1.406   1.928
60812W        W33072  18.220  23.626   1.211
60813W        W33073  10.270   2.343  13.014
60814W        W33074  22.015  20.139  12.867
60815W        W33075   5.687  28.624   9.674
60816W        W33076  24.600  20.189   1.349
60817W        W33077  43.875  44.271  13.936
60818W        W33078  32.052  36.350  12.428
60819W        W33079  28.517  41.826   3.777
60820W        W33080  12.153  11.272  14.983
60821W        W33081  23.576  29.605   2.318
60822W        W33082  39.351  32.108   3.680
60823W        W33083  36.052   9.869  13.459
60824W        W33084  12.675   8.318   4.221
60825W        W33085  26.605   8.865   1.926
60826W        W33086  39.944  22.578  12.824
60827W        W33087  44.461   1.274  14.473
60828W        W33088  41.929  32.068   2.289
60829W        W33089  17.112  33.989   4.634
60830W        W33090   4.431  20.697  10.896
60831W        W33091  19.611  16.649   3.386
60832W        W33092  26.130   7.269   2.398
60833W        W33093  36.569  31.057  12.483
60834W        W33094  10.273   0.488  14.767
60835W        W33095  38.888  17.757   0.813
60836W        W33096  22.675   4.720   0.314
60837W        W33097   4.854  40.960  12.077
60838W        W33098  11.224  20.682  12.496
60839W        W33099  31.000   6.716  13.362
60840W        W33100  43.800  16.729  14.932
60841W        W33101  37.561   8.303   2.339
60842W        W33102   3.785  16.301   0.362
60843W        W33103   2.722  31.457   3.792
60844W        W33104  41.010  40.841  13.002
60845W        W33105  12.247  22.118   1.727
60846W        W33106  33.045   5.282  11.002
60847W        W33107   2.848  44.337  12.401
60848W        W33108  14.175  32.920   3.857
60849W        W33109  36.040   2.792   2.690
60850W        W33110  33.048  26.600   4.638
60851W        W33111  25.608  28.160  12.882
60852W        W33112  30.501  41.976  11.999
60853W        W33113  20.582  25.048  12.563
60854W        W33114  12.223  41.524   3.159
60855W        W33115  17.731  37.850   2.852
60856W        W33116  31.459   1.352  11.563
60857W        W33117  12.713   2.311   0.958
60858W        W33118  22.061   9.223   1.862
60859W        W33119  33.474  25.022   1.449
60860W        W33120  18.228   8.238   0.801
60861W        W33121  23.999  19.550   5.164
60862W        W33122  30.100  27.478  13.329
60863W        W33123  36.056  27.523   3.689
60864W        W33124   8.212   9.756   3.206
60865W        W33125  39.039   1.482  10.408
60866W        W33126  24.683  10.275  11.559
60867W        W33127  44.470  15.806  10.620
60868W        W33128  24.480  34.061  13.405
60869W        W33129  41.324  16.271   4.154
60870W        W33130   8.730   3.728   3.631
60871W        W33131   2.270   0.359   2.706
60872W        W33132  34.015  29.424   2.703
60873W        W33133   4.894  44.458  14.915
60874W        W33134  15.597  24.698  14.307
60875W        W33135  29.089  17.185  13.962
60876W        W33136  13.756  30.596  14.900
60877W        W33137  40.328  34.473  13.430
60878W        W33138  10.230  44.908   3.669
60879W        W33139  15.761  25.667   5.234
60880W        W33140  43.790  16.273   3.329
60881W        W33141  25.040  31.551   2.696
60882W        W33142  43.851  30.560   1.226
60883W        W33143   5.689  22.022  12.861
60884W        W33144  32.524   5.428  14.015
60885W        W33145  23.060  43.775  10.890
60886W        W33146  22.034  36.378  13.528
60887W        W33147   8.889  26.604  11.548
60888W        W33148  24.015   7.788  10.895
60889W        W33149  20.161   9.742   4.776
60890W        W33150  44.800  36.000  14.968
60891W        W33151  13.171   1.869  14.935
60892W        W33152  31.612  16.204   3.186
60893W        W33153  32.049  10.204   1.276
60894W        W33154  28.641  33.070   2.711
60895W        W33155  41.860  20.646  12.009
60896W        W33156  31.408  10.820  13.912
60897W        W33157  27.486  42.907   2.811
60898W        W33158  26.500   2.312   2.395
60899W        W33159  34.422   6.241   4.215
60900W        W33160  19.767   9.684   3.643
60901W        W33161  17.278   4.230  14.445
60902W        W33162  43.343   0.378   2.212
60903W        W33163  33.575  34.589   2.810
60904W        W33164  30.602  35.447   1.898
60905W        W33165  29.017  23.489  13.441
60906W        W33166   1.798  42.906   1.247
60907W        W33167  42.010  34.036   3.704
60908W        W33168  42.017  30.067  14.385
60909W        W33169  30.979  34.428  12.872
60910W        W33170  19.152  42.790  11.510
60911W        W33171  14.196  13.828  14.939
60912W        W33172   1.937  10.641   1.712
60913W        W33173  24.014  17.702   3.212
60914W        W33174  40.845  21.701   1.280
60915W        W33175  30.465  27.101  12.980
60916W        W33176   5.711   5.882  14.891
60917W        W33177  10.794  43.834   4.742
60918W        W33178  21.114   3.326   0.398
60919W        W33179  32.465  26.003  10.464
60920W        W33180  25.668  42.440  10.958
60921W        W33181  28.505  30.578   4.257
60922W        W33182   2.915  42.933   2.691
60923W        W33183  33.101   8.780  11.464
60924W        W33184   1.469  34.904  12.376
60925W        W33185  16.231  34.066   1.302
60926W        W33186   9.348  34.585  12.894
60927W        W33187  38.924   5.854  11.546
60928W        W33188   9.767  34.050  11.394
60929W        W33189   9.879  28.069  13.966
60930W        W33190  13.622  24.586  11.053
60931W        W33191   0.913  35.512   4.345
60932W        W33192  30.081  41.796   4.752
60933W        W33193   8.662  27.636  10.441
60934W        W33194  19.244  44.290  13.902
60935W        W33195  40.856  14.301  12.903
60936W        W33196  16.757  24.546   2.401
60937W        W33197  23.055  23.222  12.858
60938W        W33198  15.781  15.635  12.871
60939W        W33199  35.365  21.187   5.208
60940W        W33200  27.603  44.430  14.940
60941W        W33201  20.542  26.033   4.621
60942W        W33202   3.287   6.841   2.831
60943W        W33203  36.911  30.465  10.625
60944W        W33204   6.812  41.303   1.832
60945W        W33205  13.338  22.061   0.345
60946W        W33206   9.349  15.253  13.050
60947W        W33207  12.617  26.595   0.835
60948W        W33208  20.533  40.374   0.344
60949W        W33209   9.705  10.263   2.265
60950W        W33210  15.306  35.886   3.798
60951W        W33211  13.735  25.022   3.299
60952W        W33212  17.293  17.291   0.786
60953W        W33213  15.281  30.483   4.166
60954W        W33214  17.275   0.453   0.831
60955W        W33215   6.901   7.758  12.846
60956W        W33216  18.650  21.724   3.708
60957W        W33217  10.142  19.680  10.021
60958W        W33218  27.543  22.562   4.322
60959W        W33219  13.638  30.026  14.398
60960W        W33220  18.617  40.012   1.735
60961W        W33221  14.686  42.919  14.821
60962W        W33222   8.739  26.116   1.337
60963W        W33223   7.265  33.060   3.267
60964W        W33224  36.568  23.626   9.991
60965W        W33225  42.365  35.396  12.908
60966W        W33226  30.057  29.961   0.935
60967W        W33227  38.012   2.344   2.393
60968W        W33228  26.082   4.862  10.622
60969W        W33229   1.308   2.956  12.878
60970W        W33230  18.725  14.631  11.478
60971W        W33231   8.735   0.771  11.462
60972W        W33232  32.906  23.061   4.342
60973W        W33233  10.810  24.516   1.806
60974W        W33234  39.931  27.997   3.781
60975W        W33235  16.283  16.307   9.994
60976W        W33236  15.653   3.267   2.207
60977W        W33237  15.195   8.888   1.418
60978W        W33238   4.282  26.030   2.902
60979W        W33239  33.621  44.903   1.385
60980W        W33240  44.333   7.862  14.292
60981W        W33241  20.183  34.965  11.505
60982W        W33242  13.227  30.132   4.717
60983W        W33243  23.084  16.655   0.423
60984W        W33244   8.209  31.472   0.888
60985W        W33245  43.828  34.500  11.554
60986W        W33246  16.281  18.566  14.296
60987W        W33247  14.239  26.009  14.484
60988W        W33248  24.980  10.733  12.908
60989W        W33249   8.199   6.810  12.520
60990W        W33250  19.622  12.128   1.840
60991W        W33251  21.255  33.936   2.850
60992W        W33252  42.421  10.334   0.459
60993W        W33253  16.274  38.535  12.937
60994W        W33254  31.593  21.049   3.833
60995W        W33255  12.360  39.035  12.980
60996W        W33256   8.819  17.297   3.230
60997W        W33257  35.894  26.468  11.865
60998W        W33258  23.717  20.589  12.555
60999W        W33259  37.498  41.956  12.990
61000W        W33260  12.310  25.089  10.561
61001W        W33261  21.257   9.212   1.758
61002W        W33262  31.067  17.726  10.606
61003W        W33263   9.193  19.119   2.898
61004W        W33264  19.558  39.507  13.412
61005W        W33265  44.769  42.796   2.864
61006W        W33266  29.444  37.939  14.782
61007W        W33267  23.573  25.994  12.541
61008W        W33268  36.857  12.749   2.884
61009W        W33269  32.475  43.490  10.579
61010W        W33270  38.879  33.425   0.295
61011W        W33271  30.420  39.059   4.177
61012W        W33272  25.049  17.608   2.192
61013W        W33273  31.438  22.635   1.238
61014W        W33274  17.683  13.327   0.826
61015W        W33275  42.314   6.185  13.912
61016W        W33276  25.024   6.225   4.824
61017W        W33277  29.064  21.201  11.572
61018W        W33278  24.033  38.493  11.518
61019W        W33279   9.225  14.201   3.638
61020W        W33280  41.790  29.997  12.873
61021W        W33281  10.704  40.331   4.198
61022W        W33282  40.358  38.403   2.398
61023W        W33283  27.068  26.130   1.855
61024W        W33284  24.643  15.696  13.057
61025W        W33285  13.840  31.917   0.752
61026W        W33286  31.010   3.946   1.293
61027W        W33287  21.688   9.686   2.728
61028W        W33288  36.065  12.263  13.436
61029W        W33289   2.267  18.280   5.156
61030W        W33290  10.705  18.131   3.209
61031W        W33291  30.471  14.240  10.634
61032W        W33292   4.705  38.972  14.355
61033W        W33293  10.273  33.891  11.373
61034W        W33294  11.768  38.363  10.990
61035W        W33295   4.845  42.422  13.529
61036W        W33296  29.920  14.164   0.819
61037W        W33297  43.972   3.365   0.411
61038W        W33298  30.569  25.003   3.711
61039W        W33299  33.094  26.041   0.862
61040W        W33300  40.917  22.067  13.821
61041W        W33301   3.854   1.463   4.135
61042W        W33302  40.304  19.260  10.928
61043W        W33303  44.336  12.689   3.257
61044W        W33304  44.345  20.526   4.304
61045W        W33305  10.694  14.192   3.305
61046W        W33306  25.173  26.998   0.843
61047W        W33307  37.964  20.206  13.389
61048W        W33308   1.413  28.637   4.610
61049W        W33309  30.044  11.134   0.929
61050W        W33310  28.667   4.329   3.287
61051W        W33311  40.896  43.992  13.824
61052W        W33312  34.991  32.522   1.248
61053W        W33313  41.487  17.240  10.575
61054W        W33314  36.514  37.393  14.980
61055W        W33315  37.557  19.603  13.358
61056W        W33316  17.133  15.083   2.806
61057W        W33317  32.004   4.908  13.915
61058W        W33318   7.193  41.317   0.361
61059W        W33319  31.548  23.705   4.259
61060W        W33320  23.506  39.550  13.924
61061W        W33321  14.182   0.301  11.974
61062W        W33322  30.448  27.150   3.309
61063W        W33323  29.952  40.370  13.968
61064W        W33324  36.851  44.757   1.872
61065W        W33325   7.701  44.788  12.051
61066W        W33326  33.469  35.394  14.390
61067W        W33327  43.409  40.345  11.491
61068W        W33328  39.816  20.747   2.872
61069W        W33329  17.606  35.456   1.869
61070W        W33330  12.662  15.710  12.544
61071W        W33331   4.745  23.090   2.331
61072W        W33332  22.161   2.861  11.446
61073W        W33333  25.630  27.569   2.298
61074W        W33334  11.289  44.934  11.515
61075W        W33335   6.189   0.824   2.344
61076W        W33336  21.071  15.599   1.826
61077W        W33337   7.776  40.368   2.854
61078W        W33338   9.380  24.224   4.606
61079W        W33339  38.863   1.951  12.078
61080W        W33340  20.621  12.659   3.800
61081W        W33341   5.899  40.965   1.267
61082W        W33342  38.029  16.615   2.752
61083W        W33343  26.687  23.071  12.943
61084W        W33344   7.362  26.614  11.890
61085W        W33345  10.234  42.383  14.301
61086W        W33346  28.676   7.888   3.292
61087W        W33347  13.169  22.519   4.704
61088W        W33348  11.779  36.033  11.563
61089W        W33349  24.136   2.948  12.556
61090W        W33350  44.844  36.911   3.632
61091W        W33351  38.330  21.535   3.769
61092W        W33352   9.760  30.543   2.688
61093W        W33353   2.428  31.601  14.765
61094W        W33354  15.699  23.175   2.823
61095W        W33355   4.355   2.310  13.996
61096W        W33356   3.449  14.806  12.882
61097W        W33357  31.039   5.778   2.730
61098W        W33358  11.265   2.821  10.959
61099W        W33359   2.848  19.130  14.373
61100W        W33360  33.002  43.985  11.906
61101W        W33361  41.405  17.684   3.724
61102W        W33362  25.151  18.554  12.853
61103W        W33363   0.789  44.289  12.565
61104W        W33364  28.445  25.027  13.904
61105W        W33365  15.276  43.913   2.310
61106W        W33366  32.999  15.718   4.828
61107W        W33367  11.328  26.968  11.520
61108W        W33368  40.881  41.294  11.888
61109W        W33369  37.433  12.727  11.011
61110W        W33370  34.949  10.184  14.495
61111W        W33371  41.031  38.547  10.639
61112W        W33372  27.018  40.423  12.554
61113W        W33373   5.211  32.635  11.589
61114W        W33374  11.367  18.766  10.928
61115W        W33375  23.986  18.192  12.995
61116W        W33376   9.203  25.141  11.537
61117W        W33377  21.188  13.812  10.606
61118W        W33378  39.008   9.739  12.580
61119W        W33379  31.446  18.171   4.783
61120W        W33380  42.351  32.956   3.781
61121W        W33381  20.030  28.954  12.887
61122W        W33382  40.463  11.724   1.846
61123W        W33383   9.819  44.944  13.545
61124W        W33384  14.165  30.102  13.960
61125W        W33385   7.720  24.590  11.391
61126W        W33386  10.235   3.711   3.642
61127W        W33387  18.152   8.397   4.676
61128W        W33388  41.000  31.117   3.857
61129W        W33389  37.037  40.515   2.667
61130W        W33390   2.774   5.318   3.178
61131W        W33391   4.305  19.089   3.380
61132W        W33392  24.503  35.530  14.362
61133W        W33393  31.903  25.702   4.255
61134W        W33394  40.019   1.312  13.864
61135W        W33395  36.529   5.848  13.018
61136W        W33396  41.807  44.496   4.285
61137W        W33397  43.381  26.627   1.913
61138W        W33398   4.910  16.285  11.127
61139W        W33399  35.995   6.388  12.365
61140W        W33400  27.531  29.983   3.229
61141W        W33401  19.184  12.274   4.206
61142W        W33402   4.907  42.788  13.989
61143W        W33403  10.378  28.983  13.961
61144W        W33404  29.015   5.861   1.351
61145W        W33405  24.695  13.829  12.569
61146W        W33406  37.370   9.370  12.556
61147W        W33407   8.176  16.735   1.889
61148W        W33408   3.222  21.200  10.092
61149W        W33409  26.614  10.801  14.450
61150W        W33410  40.379  37.976  12.346
61151W        W33411  15.109   6.363  14.931
61152W        W33412   8.768   8.241   3.727
61153W        W33413  31.500  13.671  11.959
61154W        W33414  44.886   8.199  11.488
61155W        W33415   2.395  38.437   4.185
61156W        W33416  38.389  37.887  10.414
61157W        W33417  43.821  34.412   3.349
61158W        W33418  24.122  26.076   0.899
61159W        W33419  22.085  16.198   2.796
61160W        W33420   6.267  13.826  10.403
61161W        W33421  32.130  34.381   0.734
61162W        W33422   3.819  24.146  13.031
61163W        W33423  34.423  21.731  13.944
61164W        W33424   2.281  30.581  10.948
61165W        W33425  27.044  21.064   0.249
61166W        W33426  17.079  27.532   2.186
61167W        W33427  25.703  40.050   1.291
61168W        W33428  41.506   1.344  12.422
61169W        W33429  38.824  21.665   3.782
61170W        W33430   9.154  10.227   1.350
61171W        W33431  35.457  27.982   4.782
61172W        W33432  27.522   2.817   1.842
61173W        W33433  16.811   7.840  12.014
61174W        W33434  10.801  28.466   0.760
61175W        W33435  14.234  11.323  14.415
61176W        W33436   8.223  24.187   3.757
61177W        W33437  12.640  38.063   0.733
61178W        W33438  23.221  31.018  12.000
61179W        W33439  10.377  20.712   2.192
61180W        W33440  42.812   9.763   3.162
61181W        W33441  11.258  39.034   2.881
61182W        W33442  27.572   2.238  11.127
61183W        W33443  33.130  20.114   1.779
61184W        W33444   4.228   5.372  12.069
61185W        W33445  34.465  10.293  11.064
61186W        W33446  23.207  29.637  10.044
61187W        W33447  43.928  15.165  11.053
61188W        W33448  41.452  17.642   1.341
61189W        W33449   0.838  31.902   9.946
61190W        W33450   1.316   7.853   3.804
61191W        W33451  19.533  10.711  11.549
61192W        W33452  27.577   0.863  13.797
61193W        W33453   7.176  30.413  10.589
61194W        W33454  15.306  18.748   4.673
61195W        W33455   9.657  14.757   4.341
61196W        W33456  39.054   3.372  12.432
61197W        W33457  13.331  35.418   2.196
61198W        W33458   4.244  11.863  12.866
61199W        W33459  32.609  38.347  12.826
61200W        W33460  14.140   7.269  13.401
61201W        W33461  43.846   0.948   0.316
61202W        W33462  38.990  43.320  14.005
61203W        W33463  21.087  22.179  13.894
61204W        W33464  41.465  29.953   4.198
61205W        W33465   4.819   0.813   0.799
61206W        W33466  41.516  41.978  14.821
61207W        W33467  22.999  42.391   0.824
61208W        W33468  18.786  21.165  11.948
61209W        W33469   1.809  34.460   0.418
61210W        W33470  23.160  31.406  14.929
61211W        W33471  18.245  41.856   3.656
61212W        W33472   4.823  14.124   0.885
61213W        W33473  20.572  24.205   2.740
61214W        W33474   4.245  26.537   9.628
61215W        W33475  29.960  30.493   0.933
61216W        W33476  36.911  36.965   0.302
61217W        W33477  30.555   8.284  14.403
61218W        W33478  14.743   2.286  10.584
61219W        W33479  27.531  29.526   4.688
61220W        W33480   2.720  29.557   4.150
61221W        W33481  11.691   2.777   3.685
61222W        W33482  41.831  35.094  14.886
61223W        W33483  27.071   5.196   3.826
61224W        W33484  16.102   8.672   2.729
61225W        W33485   6.188   9.297  14.837
61226W        W33486  36.044  11.313   2.309
61227W        W33487  40.048  39.426   1.361
61228W        W33488  16.606   1.260   0.794
61229W        W33489  24.104   8.851  10.944
61230W        W33490  31.132  27.997   4.304
61231W        W33491   5.272  39.443  11.018
61232W        W33492  40.456  40.947  10.908
61233W        W33493  28.978   2.961  10.509
61234W        W33494  25.141  36.485  11.881
61235W        W33495  28.612  22.167  13.460
61236W        W33496   4.276  24.704   2.391
61237W        W33497  22.676  16.271   4.836
61238W        W33498   2.790  22.208   0.855
61239W        W33499  13.725  31.591  14.368
61240W        W33500  29.029  32.914  14.383
61241W        W33501  29.436  25.186   3.809
61242W        W33502  41.470  33.442   3.829
61243W        W33503  10.366  30.630   3.248
61244W        W33504  39.949  40.539  10.404
61245W        W33505  40.304  44.794   4.741
61246W        W33506   1.848   3.347   1.414
61247W        W33507  35.455  14.153   2.328
61248W        W33508   1.251  19.209  13.916
61249W        W33509  19.550  17.139  12.537
61250W        W33510  32.963  13.835  13.836
61251W        W33511  19.207  42.008  14.328
61252W        W33512  25.547  10.822   2.389
61253W        W33513   5.736   7.681  12.478
61254W        W33514  33.100  14.763   4.621
61255W        W33515  25.533   5.290   2.841
61256W        W33516   1.971  18.135  12.497
61257W        W33517  17.266  13.813  10.907
61258W        W33518  15.653  19.192   4.637
61259W        W33519  37.377  41.879  10.629
61260W        W33520  24.178   2.838   4.766
61261W        W33521  11.656  21.718   1.300
61262W        W33522  33.479  33.573   4.736
61263W        W33523  14.313  39.444  11.050
61264W        W33524  44.397  23.002   3.817
61265W        W33525   2.849   2.449  11.472
61266W        W33526  21.226  36.873  11.441
61267W        W33527   4.724   5.793  10.154
61268W        W33528  35.446  44.289  14.394
61269W        W33529  31.423  19.203  14.305
61270W        W33530  12.252  17.288   4.285
61271W        W33531   0.452  39.470   3.381
61272W        W33532   8.355  33.617   4.706
61273W        W33533  30.933  43.865   1.813
61274W        W33534  24.715  42.399   2.811
61275W        W33535  12.756  23.213  12.385
61276W        W33536  22.570  10.329  14.379
61277W        W33537  37.073   6.718  13.328
61278W        W33538  15.200  38.976   2.713
61279W        W33539  43.356  15.730  12.016
61280W        W33540  20.610  30.974   3.357
61281W        W33541   2.828  29.443   1.355
61282W        W33542  18.614  25.680  12.967
61283W        W33543   4.828  14.192   0.398
61284W        W33544  18.126  33.069  11.465
61285W        W33545  31.462  25.559   4.158
61286W        W33546  15.168  31.054  11.947
61287W        W33547  17.189  24.113  14.421
61288W        W33548   8.747  34.916  10.617
61289W        W33549  29.654   9.174   3.681
61290W        W33550  33.429   4.374  12.396
61291W        W33551  35.407  20.632  13.803
61292W        W33552  28.998  29.036  10.013
61293W        W33553   5.423  30.123   0.308
61294W        W33554   6.866  20.072   3.305
61295W        W33555  28.538  32.497  13.991
61296W        W33556  26.522  11.743   4.315
61297W        W33557  29.598  21.142  12.848
61298W        W33558  28.018  33.551  10.447
61299W        W33559  23.729  35.538  13.022
61300W        W33560  44.987  35.100  12.086
61301W        W33561  38.380  35.067  12.033
61302W        W33562  20.586  32.123  11.533
61303W        W33563   7.202   9.297   2.335
61304W        W33564  33.411  15.810   4.657
61305W        W33565  37.453   0.981  10.609
61306W        W33566   9.832  16.762  13.516
61307W        W33567  16.737  10.833   4.796
61308W        W33568   5.921  13.813  12.528
61309W        W33569  11.134  39.335  13.482
61310W        W33570   3.745  18.758   3.354
61311W        W33571   9.236  31.469   2.677
61312W        W33572  43.964  13.222  14.776
61313W        W33573   5.391  35.019  14.475
61314W        W33574  34.433   6.251  14.835
61315W        W33575  37.938  27.619  13.848
61316W        W33576  25.593  44.379  14.425
61317W        W33577   7.249   8.799  14.427
61318W        W33578   9.878   6.760   2.690
61319W        W33579  43.977  40.991  11.012
61320W        W33580  20.090   1.274  13.966
61321W        W33581  42.966   4.334  10.087
61322W        W33582  12.744  17.557  10.599
61323W        W33583  27.517  22.149  11.559
61324W        W33584  11.324  34.512   2.203
61325W        W33585  15.183   4.361   0.865
61326W        W33586  12.296  25.996   4.268
61327W        W33587  23.161  43.964   3.333
61328W        W33588   5.382  41.994   2.344
61329W        W33589   6.688   9.780  10.571
61330W        W33590  16.768  42.999   2.245
61331W        W33591  40.347  18.729   4.754
61332W        W33592  25.049  14.243   0.301
61333W        W33593  38.960  16.709   2.816
61334W        W33594  26.578  26.087  13.799
61335W        W33595   7.348  35.985   3.269
61336W        W33596   4.734   8.706  13.967
61337W        W33597   1.272  39.357  11.534
61338W        W33598  19.203  38.878   1.421
61339W        W33599  32.631  33.074   1.864
61340W        W33600  17.254  42.914  10.411
61341W        W33601   2.338  19.179  12.375
61342W        W33602  21.251  23.599   1.270
61343W        W33603  33.098   3.948  14.504
61344W        W33604  29.070  21.522  13.434
61345W        W33605   6.237  42.464  10.453
61346W        W33606  32.128  22.069  11.870
61347W        W33607  32.061  11.827   3.332
61348W        W33608  23.149  44.404   4.140
61349W        W33609  14.309  36.409  13.816
61350W        W33610  11.763  35.425   1.774
61351W        W33611   2.963   7.792  14.943
61352W        W33612   8.770   7.288   4.649
61353W        W33613  24.517  20.055   4.264
61354W        W33614  13.302  33.098   2.358
61355W        W33615   7.870  21.129  13.912
61356W        W33616  35.579  43.271   1.767
61357W        W33617   9.663  30.962  12.407
61358W        W33618  12.298  39.876  10.566
61359W        W33619  22.577  15.131   4.128
61360W        W33620  38.504   6.265  14.901
61361W        W33621  34.593   2.836  12.342
61362W        W33622  29.485  39.427  10.473
61363W        W33623  28.139  36.067  14.759
61364W        W33624  15.749  15.299  13.945
61365W        W33625  33.969  18.053  13.916
61366W        W33626  17.250   6.850  13.484
61367W        W33627  28.606  26.987  11.582
61368W        W33628  16.607  21.656   4.315
61369W        W33629  22.188  22.018  14.903
61370W        W33630  28.051  25.109   2.741
61371W        W33631  43.020   6.723   0.266
61372W        W33632  27.176   4.401  12.906
61373W        W33633  37.568  10.655  11.110
61374W        W33634  16.587  10.874   0.868
61375W        W33635  11.707  36.951   3.264
61376W        W33636  44.767  44.461   1.235
61377W        W33637  25.977  12.675  11.019
61378W        W33638  31.947  24.220   3.863
61379W        W33639  11.656   0.334  13.935
61380W        W33640  29.428  26.965   1.711
61381W        W33641  22.227  25.503   3.793
61382W        W33642  23.607  37.403  10.556
61383W        W33643  40.542  12.292  14.953
61384W        W33644  40.331  29.168  14.424
61385W        W33645  40.980  40.459   3.660
61386W        W33646  19.243  13.746   1.235
61387W        W33647   2.352  37.445  10.989
61388W        W33648  27.474  37.420   1.266
61389W        W33649  21.546  34.117  11.998
61390W        W33650  41.791  31.522  10.433
61391W        W33651  39.015   9.276   1.243
61392W        W33652  14.700  17.129  10.976
61393W        W33653  27.117  41.844  12.339
61394W        W33654  18.077  40.833   0.317
61395W        W33655  29.030  15.185   3.677
61396W        W33656   1.933  11.624   3.692
61397W        W33657  27.067   2.288  12.847
61398W        W33658  44.846  27.551   1.765
61399W        W33659  39.392  23.106  11.978
61400W        W33660  11.295  18.617  10.505
61401W        W33661  43.996  20.748   1.283
61402W        W33662  28.950  12.831   1.839
61403W        W33663   4.359  20.201   1.795
61404W        W33664  26.983  17.197  11.606
61405W        W33665  33.453  40.971   2.235
61406W        W33666  40.320  32.132  14.917
61407W        W33667  39.829   6.382  13.869
61408W        W33668  18.056  17.698   2.344
61409W        W33669  21.020   9.194   5.310
61410W        W33670  40.465   7.370  10.603
61411W        W33671  31.898  19.161  14.311
61412W        W33672  16.764  17.201   9.997
61413W        W33673  20.712  35.506  13.856
61414W        W33674  32.033  33.518   3.262
61415W        W33675  41.416  37.506  11.066
61416W        W33676  20.122  13.128   4.699
61417W        W33677  18.183  30.109   1.347
61418W        W33678  10.827  14.198  10.960
61419W        W33679   9.797   6.891   0.933
61420W        W33680   6.224  13.628   3.655
61421W        W33681  25.164   2.848  12.343
61422W        W33682  20.271  34.944   0.448
61423W        W33683  43.279   4.826  11.551
61424W        W33684  41.797  38.005   2.199
61425W        W33685  25.577  35.463   4.286
61426W        W33686  18.238  36.441  14.888
61427W        W33687  15.771   7.350  13.482
61428W        W33688  27.659   1.931  11.008
61429W        W33689   4.847  11.814  13.359
61430W        W33690   1.738  21.628   4.776
61431W        W33691  29.473  37.393   2.380
61432W        W33692  19.074   6.727   0.312
61433W        W33693  14.253  10.327  13.791
61434W        W33694  31.471  11.731   0.836
61435W        W33695  43.321  40.459   0.965
61436W        W33696  36.954  10.651  10.573
61437W        W33697  42.879   0.449  12.069
61438W        W33698  39.409   7.863  12.907
61439W        W33699  25.644  23.541  14.301
61440W        W33700  37.430  17.253  11.045
61441W        W33701  23.578   0.797  14.456
61442W        W33702   2.760   5.357   4.218
61443W        W33703  40.421  37.430  10.441
61444W        W33704  10.246  17.153  11.905
61445W        W33705  44.943  26.005   1.878
61446W        W33706   3.758   2.742   4.163
61447W        W33707  33.506  41.798  12.888
61448W        W33708   6.910   3.837   0.374
61449W        W33709  37.391  40.339  11.870
61450W        W33710  44.794  28.643   3.649
61451W        W33711  19.186  20.524   0.290
61452W        W33712  17.631  28.067   2.300
61453W        W33713  15.298  15.702   4.295
61454W        W33714  26.530  36.065  14.997
61455W        W33715  26.095  31.957  10.423
61456W        W33716  23.625   8.778  13.426
61457W        W33717  43.370   9.672   2.378
61458W        W33718  16.180   8.228   1.855
61459W        W33719  25.472  16.198  14.956
61460W        W33720  43.347  28.610  12.372
61461W        W33721  32.523  28.581  12.069
61462W        W33722  36.034  13.322  13.363
61463W        W33723   6.318   1.309  12.956
61464W        W33724  41.039  30.938   3.247
61465W        W33725  30.164  15.202  11.393
61466W        W33726  43.380  41.498   3.236
61467W        W33727  36.864   9.816   5.623
61468W        W33728  28.050   9.384   0.433
61469W        W33729  27.666   0.847   4.829
61470W        W33730   8.805  37.999  11.105
61471W        W33731  15.298   4.722  14.504
61472W        W33732   2.812  35.451   0.358
61473W        W33733   6.792  39.942  10.476
61474W        W33734  41.484  27.558   2.844
61475W        W33735  15.269  33.589  11.413
61476W        W33736  12.315  18.052  13.805
61477W        W33737  34.440  32.964   4.186
61478W        W33738  26.652   7.351   0.395
61479W        W33739  20.653  22.541   3.642
61480W        W33740  44.895  14.173  13.354
61481W        W33741  24.639  15.748   4.752
61482W        W33742  22.670  42.434   2.356
61483W        W33743  15.791   8.811   1.328
61484W        W33744   7.896  29.668  10.122
61485W        W33745   3.366   2.801   4.834
61486W        W33746   9.279  16.730   2.348
61487W        W33747  31.035  21.235  11.612
61488W        W33748   5.223  33.444  11.115
61489W        W33749  19.779  15.824  11.026
61490W        W33750  15.765  16.737   4.757
61491W        W33751   5.242  15.788   2.733
61492W        W33752  36.024  28.073   0.263
61493W        W33753  17.067  27.029  10.489
61494W        W33754   2.309  19.769  10.536
61495W        W33755   7.347   4.422   4.700
61496W        W33756  43.457  20.581   2.223
61497W        W33757  16.761  33.978   3.376
61498W        W33758  19.239  35.585   1.744
61499W        W33759  28.521  11.735   4.194
61500W        W33760  38.371  34.958   3.824
61501W        W33761  20.526   8.807  11.395
61502W        W33762   8.784   8.734  10.645
61503W        W33763   8.729  37.503   4.837
61504W        W33764  21.586  33.909  11.009
61505W        W33765  13.171  22.689  12.078
61506W        W33766   1.811  14.645   2.254
61507W        W33767  22.997  28.521   9.982
61508W        W33768  37.343  11.763   5.274
61509W        W33769  29.635  26.631  12.346
61510W        W33770  42.438  19.180   1.751
61511W        W33771  34.997  16.617  11.595
61512W        W33772  35.366  12.764  10.517
61513W        W33773  32.070  29.127  14.830
61514W        W33774   6.782  44.443  13.041
61515W        W33775  43.368   4.267   0.848
61516W        W33776  44.291  39.046   0.433
61517W        W33777   9.703   8.393   1.769
61518W        W33778  20.543  25.528  13.957
61519W        W33779  20.681  43.468   2.715
61520W        W33780  39.453   5.344   4.813
61521W        W33781   8.342   6.394  12.493
61522W        W33782  17.740  22.092  13.479
61523W        W33783  29.172  22.147  11.018
61524W        W33784  30.118  20.677   4.679
61525W        W33785  17.166  11.175   3.373
61526W        W33786  42.013  27.620   2.816
61527W        W33787  21.683  14.807   3.324
61528W        W33788  17.137  35.554   3.714
61529W        W33789   8.750   4.207  13.363
61530W        W33790   8.370   3.809  10.454
61531W        W33791   4.793   0.742   4.164
61532W        W33792  43.997  39.023   0.859
61533W        W33793  11.800   2.444  12.995
61534W        W33794  30.584  25.670  11.574
61535W        W33795   1.926   9.394   3.780
61536W        W33796  32.623  19.055   2.704
61537W        W33797  27.546   2.791  13.801
61538W        W33798   2.920  13.224   1.313
61539W        W33799  15.809  16.151   9.998
61540W        W33800  28.060   9.183   1.417
61541W        W33801  28.658  36.554   2.237
61542W        W33802   3.454  43.775  11.534
61543W        W33803  14.790  16.254   1.813
61544W        W33804   2.344  39.464   4.718
61545W        W33805  18.734  37.509  13.313
61546W        W33806  28.960   5.293  10.915
61547W        W33807  13.288  44.319   3.197
61548W        W33808   8.224  11.684  10.530
61549W        W33809   1.952   6.257   3.182
61550W        W33810  25.638  29.012  12.455
61551W        W33811  28.612  33.975  13.507
61552W        W33812  16.256  10.294  12.441
61553W        W33813  37.049  35.911   0.437
61554W        W33814  33.124   1.809   2.271
61555W        W33815   3.749   7.880  11.512
61556W        W33816  31.591   8.251   3.761
61557W        W33817  11.769  23.148  13.427
61558W        W33818  33.082   8.314   0.263
61559W        W33819   8.722  33.404   2.403
61560W        W33820  19.146  22.588   4.171
61561W        W33821  43.491   9.844  14.919
61562W        W33822  40.347  42.940  13.988
61563W        W33823  21.715   5.255   3.361
61564W        W33824  33.876  39.940  12.853
61565W        W33825  39.060   2.443  13.950
61566W        W33826   4.355   3.232  11.472
61567W        W33827  15.715  40.010   4.783
61568W        W33828  18.598  19.040   3.384
61569W        W33829  19.706  40.802  11.024
61570W        W33830  29.046  33.897  14.766
61571W        W33831   4.364  15.653  11.081
61572W        W33832  30.926  33.949   4.268
61573W        W33833  40.807  10.274   1.373
61574W        W33834   1.742   0.471  10.474
61575W        W33835  39.058  14.703   4.618
61576W        W33836   3.878   2.828  14.476
61577W        W33837   6.772   7.189   1.787
61578W        W33838  43.828  37.980   3.838
61579W        W33839  12.766   5.429   2.711
61580W        W33840  35.535  25.969   2.834
61581W        W33841  44.887   9.885   2.825
61582W        W33842   2.449   9.653   3.797
61583W        W33843   7.767   3.351  12.523
61584W        W33844  37.844   7.218   9.457
61585W        W33845  36.349  32.915  10.891
61586W        W33846  14.266   7.735   4.169
61587W        W33847  36.033  43.358   0.399
61588W        W33848  16.216   9.768   1.273
61589W        W33849  35.585  35.585  12.344
61590W        W33850  33.917  34.479  14.288
61591W        W33851  11.745   8.263  14.858
61592W        W33852  20.618   2.932   3.806
61593W        W33853  33.465  26.036   1.720
61594W        W33854  11.305  23.002   4.614
61595W        W33855   7.306  37.949   2.341
61596W        W33856  38.480  13.759   4.667
61597W        W33857  33.980  33.585   1.799
61598W        W33858  41.971  26.627  11.103
61599W        W33859  26.577  18.186  11.884
61600W        W33860  35.575  21.605   1.825
61601W        W33861  16.619  43.881  10.431
61602W        W33862  22.676  18.750  11.079
61603W        W33863   7.779  42.479   4.702
61604W        W33864   7.858   0.377  12.907
61605W        W33865  23.732  33.602   3.691
61606W        W33866  23.542  22.037  13.850
61607W        W33867   9.788  15.158   2.764
61608W        W33868  31.072  26.195   1.239
61609W        W33869  18.683  40.876   0.863
61610W        W33870  43.294  36.976  14.829
61611W        W33871  32.557   8.342  10.614
61612W        W33872  32.445  12.277  14.409
61613W        W33873  31.489   7.785   2.271
61614W        W33874  41.916   9.179   0.471
61615W        W33875  41.873  41.807  14.366
61616W        W33876   8.217  25.674  12.532
61617W        W33877  36.446  25.198   0.891
61618W        W33878   0.382  13.295   1.331
61619W        W33879  40.837  12.839  11.053
61620W        W33880  28.557   7.186   2.890
61621W        W33881  31.615   3.391  11.031
61622W        W33882  38.876  22.136  12.431
61623W        W33883  10.382  30.556  10.061
61624W        W33884   5.895   3.386   3.348
61625W        W33885  21.607  31.499  14.443
61626W        W33886  25.609   8.780   4.675
61627W        W33887  23.590  10.846  11.610
61628W        W33888  36.910   7.769   0.354
61629W        W33889   3.395   0.455  12.342
61630W        W33890  27.033  20.721   1.279
61631W        W33891  21.530   5.740   4.606
61632W        W33892   6.417  41.996  14.975
61633W        W33893  13.773  12.770  11.404
61634W        W33894  15.678  32.457   0.955
61635W        W33895  37.352  32.469   4.797
61636W        W33896  26.689  38.354  11.937
61637W        W33897  14.228  20.179   4.222
61638W        W33898  12.700  38.489  10.500
61639W        W33899  28.062   5.312  13.407
61640W        W33900  29.633  25.652   3.253
61641W        W33901   5.260  37.879  11.098
61642W        W33902   5.913  29.539   5.302
61643W        W33903   2.906   5.832  11.422
61644W        W33904   0.380  23.987  13.062
61645W        W33905   7.732  27.125   1.926
61646W        W33906   2.279  14.634  11.057
61647W        W33907   1.314  20.191   2.244
61648W        W33908  12.248  10.339  10.532
61649W        W33909  12.732  14.668   2.288
61650W        W33910  12.339  12.801   1.291
61651W        W33911  14.648  19.165   0.455
61652W        W33912  35.019  44.912   3.719
61653W        W33913  38.418  31.032  13.338
61654W        W33914   2.469  12.649  12.963
61655W        W33915  18.697  41.525  10.134
61656W        W33916  34.089  15.329  12.504
61657W        W33917   8.743  34.503  11.013
61658W        W33918  16.095  43.293   3.773
61659W        W33919  34.929  19.723  10.504
61660W        W33920  39.919  24.149  10.437
61661W        W33921  19.200  11.745  14.503
61662W        W33922  23.507  25.527  11.913
61663W        W33923  38.863   9.762   3.290
61664W        W33924  30.658  36.498  10.571
61665W        W33925  17.131  39.022  11.937
61666W        W33926  36.347   4.762  13.323
61667W        W33927  34.875  18.232  11.452
61668W        W33928  31.145  27.486  12.575
61669W        W33929  30.658  10.369  12.494
61670W        W33930  25.177  11.322  13.817
61671W        W33931  13.272   0.896   1.894
61672W        W33932  35.892   0.258   2.347
61673W        W33933   4.442  16.766  12.917
61674W        W33934   1.781  29.454   2.750
61675W        W33935  29.006  33.483   1.289
61676W        W33936  35.049  36.960  12.871
61677W        W33937  19.574  23.533  13.371
61678W        W33938  14.769  31.473   1.870
61679W        W33939  19.210  30.622  11.891
61680W        W33940  34.900  39.454  14.454
61681W        W33941   6.423   3.804  13.933
61682W        W33942  36.553  23.207  10.577
61683W        W33943   4.792  41.873   3.219
61684W        W33944  30.074  24.721   0.957
61685W        W33945  24.991  37.521   3.232
61686W        W33946  16.640  29.999   1.747
61687W        W33947  10.353  11.731  10.553
61688W        W33948   0.929   3.353   1.893
61689W        W33949  24.539   6.787   1.923
61690W        W33950  10.188  19.666   3.861
61691W        W33951  30.054  34.408   2.702
61692W        W33952   2.880  19.203   1.327
61693W        W33953  43.858  14.825  10.481
61694W        W33954  11.726   6.711   1.818
61695W        W33955  15.648  34.573  13.398
61696W        W33956  30.029  18.604   0.892
61697W        W33957  37.505  27.112  12.083
61698W        W33958  30.931  12.234   0.243
61699W        W33959  30.037  26.464  14.498
61700W        W33960  39.480   8.340  14.854
61701W        W33961   1.291  11.669  14.503
61702W        W33962  18.068   9.733  14.340
61703W        W33963  37.989  42.927   2.343
61704W        W33964  24.684  42.385   0.755
61705W        W33965  22.218  40.797   1.733
61706W        W33966  38.055  25.105   3.277
61707W        W33967  28.118  37.501   3.708
61708W        W33968   2.763  12.811   0.398
61709W        W33969  42.356  10.310   2.770
61710W        W33970  20.149  24.028  13.806
61711W        W33971  16.092  29.488   3.147
61712W        W33972  32.392  41.447   1.742
61713W        W33973   1.408   9.657  14.309
61714W        W33974  11.761  22.719   1.414
61715W        W33975  20.189  34.991   2.258
61716W        W33976  16.756  17.668   0.915
61717W        W33977  17.085  32.007  12.460
61718W        W33978   2.297  41.503   1.402
61719W        W33979   2.325  43.868  10.972
61720W        W33980  35.492   3.720  11.051
61721W        W33981  12.771  24.669  14.429
61722W        W33982  40.832  21.229  10.633
61723W        W33983  18.698  20.195   2.768
61724W        W33984  29.009  22.199   2.378
61725W        W33985  25.096  39.024   3.231
61726W        W33986  38.354  22.667  12.456
61727W        W33987  29.497  44.263   4.272
61728W        W33988   7.793  16.210  11.374
61729W        W33989  41.339   2.326   5.223
61730W        W33990   3.909  18.581  13.040
61731W        W33991  24.529  11.764   0.821
61732W        W33992  13.237  37.874   0.426
61733W        W33993   7.312  38.558  13.448
61734W        W33994  23.177  19.236   3.677
61735W        W33995  39.937  29.044   0.750
61736W        W33996   4.762  43.912   2.716
61737W        W33997  18.268  31.955   1.718
61738W        W33998  27.505  21.247   1.317
61739W        W33999  32.585  15.140   1.256
61740W        W34000  43.483   9.318   4.327
61741W        W34001  33.606  17.077   2.236
61742W        W34002  41.816   7.217   1.227
61743W        W34003  43.882  22.620  13.883
61744W        W34004   8.655  34.928  14.876
61745W        W34005   9.709  35.398   0.807
61746W        W34006   8.396   8.901   0.308
61747W        W34007   0.445   6.807  14.777
61748W        W34008  16.573  18.681   1.743
61749W        W34009  20.727  20.150  13.333
61750W        W34010  34.892  20.584  11.444
61751W        W34011  13.787  27.048   5.249
61752W        W34012   5.758  10.237   2.688
61753W        W34013  22.145  29.154  11.021
61754W        W34014  13.240   1.303   0.945
61755W        W34015  18.295  21.654   0.938
61756W        W34016  21.205  37.915   0.265
61757W        W34017  29.478  11.174   3.807
61758W        W34018  24.511  42.775   1.315
61759W        W34019  15.731   8.205  14.897
61760W        W34020  25.646   8.887  14.788
61761W        W34021  19.621  19.540   0.963
61762W        W34022  28.934  23.163   2.691
61763W        W34023  27.023  18.163   4.650
61764W        W34024   0.949   0.908  13.850
61765W        W34025  12.205   4.854   3.360
61766W        W34026  32.021  21.706   1.388
61767W        W34027  13.700  33.613  13.845
61768W        W34028  32.947  44.445   1.233
61769W        W34029  34.073  36.011  14.383
61770W        W34030   5.228  11.711   0.729
61771W        W34031  33.594  39.976   4.352
61772W        W34032  15.612  13.837   1.776
61773W        W34033  21.630   9.174   1.260
61774W        W34034  24.526   8.684  10.417
61775W        W34035  42.500   7.824  11.565
61776W        W34036   6.260  10.211  14.931
61777W        W34037  44.457  25.596  14.281
61778W        W34038  16.224   6.314  14.393
61779W        W34039  26.485  31.471   9.981
61780W        W34040  30.623  22.574  13.439
61781W        W34041  43.884  43.867  14.913
61782W        W34042   6.795  30.449  12.910
61783W        W34043  30.447  29.086   1.354
61784W        W34044  17.210   4.258  10.540
61785W        W34045  13.606  37.409  10.929
61786W        W34046  41.333  34.371  12.949
61787W        W34047  34.930  34.501   0.744
61788W        W34048  43.941  22.165   3.779
61789W        W34049  11.729  35.029   1.763
61790W        W34050  13.703  36.442  11.470
61791W        W34051   8.167  36.921   2.845
61792W        W34052  35.512  16.114   4.217
61793W        W34053  37.387  39.465  13.922
61794W        W34054   1.839  15.104  11.492
61795W        W34055  13.725  35.369   4.799
61796W        W34056  39.910  29.520  12.011
61797W        W34057   8.274  19.172   2.732
61798W        W34058  18.781  12.294  12.341
61799W        W34059  39.383  37.020   2.284
61800W        W34060  36.934  20.060   2.684
61801W        W34061  34.590  14.788  13.796
61802W        W34062  16.273  27.636  12.961
61803W        W34063  10.817  30.468   1.778
61804W        W34064  20.236   0.748  12.464
61805W        W34065  35.474  15.595  13.499
61806W        W34066   4.712  29.543  14.299
61807W        W34067  38.942  31.902  12.895
61808W        W34068  36.066   4.333  13.535
61809W        W34069   9.266   5.434  11.561
61810W        W34070   7.338   0.762  11.918
61811W        W34071   4.218  11.676   0.861
61812W        W34072  12.612  15.794   1.342
61813W        W34073  28.521  27.111   4.218
61814W        W34074  37.426   9.177  12.879
61815W        W34075   6.692  43.780  14.289
61816W        W34076  14.770  13.638  11.536
61817W        W34077   1.874  28.971   0.318
61818W        W34078  18.613  27.117  14.501
61819W        W34079  31.563   7.289   3.633
61820W        W34080  13.839  37.068  13.803
61821W        W34081  37.039  24.596   0.874
61822W        W34082  20.634  13.186  14.828
61823W        W34083  27.622  21.673   0.376
61824W        W34084   5.757  22.553  12.901
61825W        W34085   7.821  35.856  13.824
61826W        W34086  44.355   8.290   0.843
61827W        W34087  16.273  36.444  14.939
61828W        W34088  43.876   4.225  14.795
61829W        W34089   9.243   4.720  14.862
61830W        W34090  19.223  34.925   3.347
61831W        W34091  19.731  16.093   2.313
61832W        W34092   6.679  25.568   4.732
61833W        W34093  33.611   5.796  11.019
61834W        W34094  13.194  14.826   3.307
61835W        W34095   7.776   6.903  14.464
61836W        W34096  20.139  31.477  14.463
61837W        W34097  25.000  39.858   4.278
61838W        W34098  43.466   9.330  13.979
61839W        W34099  16.744  28.984   3.837
61840W        W34100   0.395  36.075   2.364
61841W        W34101   3.932  43.805   4.828
61842W        W34102   0.901  18.757   0.378
61843W        W34103  28.478  40.420  14.026
61844W        W34104  28.669  38.871  11.532
61845W        W34105   3.265  16.616   3.196
61846W        W34106  17.196  44.492  14.021
61847W        W34107  19.653  16.598  14.496
61848W        W34108  35.440  34.402  14.896
61849W        W34109   0.440  12.816   4.319
61850W        W34110  43.820  35.405  14.342
61851W        W34111   4.370  36.518  11.969
61852W        W34112  21.693  32.985  13.872
61853W        W34113  30.009  41.459  12.874
61854W        W34114   9.363  13.105  14.370
61855W        W34115  32.074   9.824   2.730
61856W        W34116   5.934  11.231  13.465
61857W        W34117   8.720   5.751   0.463
61858W        W34118   6.852  22.536  13.421
61859W        W34119  35.370   1.894  13.022
61860W        W34120  23.684   1.865   2.899
61861W        W34121  34.469  26.037  12.070
61862W        W34122  39.325   5.232   0.871
61863W        W34123  37.890  16.591  12.880
61864W        W34124   8.318  38.027   1.235
61865W        W34125  12.664  22.634   3.387
61866W        W34126  18.708  16.741   4.138
61867W        W34127  29.551  27.599  14.432
61868W        W34128  24.175  36.938   1.785
61869W        W34129  31.538  36.388   4.334
61870W        W34130  34.885  29.939   4.271
61871W        W34131  32.977  12.161   2.772
61872W        W34132  31.999  20.158  10.606
61873W        W34133   5.257  40.805  14.365
61874W        W34134  10.155  42.445   2.824
61875W        W34135  44.881  20.682   4.222
61876W        W34136  27.522  22.236   0.913
61877W        W34137  20.656  10.735   3.756
61878W        W34138  27.609   6.899  11.871
61879W        W34139  33.519   0.479  11.056
61880W        W34140  35.060   2.902   3.338
61881W        W34141   5.926  18.085   2.668
61882W        W34142  13.340   6.349   0.301
61883W        W34143  32.936  39.355  11.968
61884W        W34144  37.472  11.209   1.922
61885W        W34145   6.781  30.631   4.167
61886W        W34146   3.770  29.171   4.652
61887W        W34147  36.588  24.080  14.951
61888W        W34148  18.655  40.431  11.045
61889W        W34149  16.122  26.976  10.474
61890W        W34150   6.427  36.561  13.464
61891W        W34151  41.953  26.126   1.777
61892W        W34152  21.151  11.732   3.254
61893W        W34153  36.416  36.032   5.167
61894W        W34154  39.902  37.520   3.360
61895W        W34155  25.054  20.639   2.897
61896W        W34156  31.612  38.073   0.745
61897W        W34157   3.799  42.784  12.853
61898W        W34158  13.143  21.064   0.357
61899W        W34159  11.778  15.603   4.181
61900W        W34160   9.813  39.832   0.277
61901W        W34161  27.676  36.035  14.995
61902W        W34162   6.284  42.507  14.878
61903W        W34163   3.417   3.850  14.789
61904W        W34164  14.655   3.222  13.366
61905W        W34165  43.856  39.053  12.019
61906W        W34166  35.033  38.048   3.686
61907W        W34167  13.348  36.990   2.776
61908W        W34168  32.904  20.247  14.484
61909W        W34169  42.842  24.103  13.389
61910W        W34170   0.912  10.238  13.936
61911W        W34171  36.970  19.748   5.128
61912W        W34172  32.938  42.900  11.435
61913W        W34173  31.609  31.969   4.829
61914W        W34174  10.369  27.084   4.228
61915W        W34175   8.170  30.161   1.295
61916W        W34176  20.567  39.338   0.461
61917W        W34177  26.533   7.899   5.216
61918W        W34178   3.347  25.070   0.948
61919W        W34179  13.691  29.487   3.844
61920W        W34180  26.204  21.186   2.354
61921W        W34181  28.105   8.249   4.188
61922W        W34182   6.234  38.878  14.964
61923W        W34183  41.382  41.304  12.483
61924W        W34184   6.291  30.543  13.529
61925W        W34185  21.262  30.646   0.761
61926W        W34186   2.245  30.050   3.653
61927W        W34187  34.016   5.920  10.976
61928W        W34188  28.464  25.127   0.252
61929W        W34189   4.215  27.950  14.418
61930W        W34190  32.416   3.837  14.946
61931W        W34191  29.580  21.725   2.762
61932W        W34192  36.463  36.949   0.754
61933W        W34193  43.356  30.972  14.988
61934W        W34194  29.951   9.370   4.799
61935W        W34195  23.082  31.406   1.926
61936W        W34196  36.990  40.808  12.060
61937W        W34197  28.449  27.622  14.806
61938W        W34198  34.930  41.461   2.852
61939W        W34199  29.476   5.270  11.537
61940W        W34200  37.422  44.270  14.299
61941W        W34201  18.261   9.671   4.195
61942W        W34202   8.363  21.248  13.421
61943W        W34203  17.692   1.813   2.330
61944W        W34204   1.792  39.477  14.335
61945W        W34205  28.025  39.046  11.017
61946W        W34206  24.106  18.602  12.946
61947W        W34207   9.161  11.371  11.581
61948W        W34208  18.626  23.525  11.594
61949W        W34209  42.837  38.413   0.923
61950W        W34210   9.345  31.044   2.779
61951W        W34211   2.325   9.358  14.994
61952W        W34212  44.929  18.183  14.431
61953W        W34213  29.667  33.588   1.225
61954W        W34214   9.868  21.074   1.224
61955W        W34215  37.908  24.985   4.783
61956W        W34216  32.619   3.715  13.339
61957W        W34217  13.816  31.498   2.826
61958W        W34218  20.122  15.782   0.419
61959W        W34219  19.648  21.564  13.828
61960W        W34220  23.647  25.564   2.738
61961W        W34221  16.809   5.729   0.361
61962W        W34222  44.871   4.768  10.944
61963W        W34223  12.653  11.760   4.166
61964W        W34224  32.927  38.986   2.774
61965W        W34225  33.526  39.872  12.562
61966W        W34226   8.239  21.195  11.425
61967W        W34227  37.520  18.671   0.325
61968W        W34228  24.603   6.735  10.926
61969W        W34229  18.130   5.884  13.822
61970W        W34230  21.543  28.182  14.759
61971W        W34231  23.235  38.889  12.439
61972W        W34232   8.322  23.710  12.885
61973W        W34233  29.073   6.199  14.775
61974W        W34234  28.506   8.313   3.741
61975W        W34235  40.907   4.438   4.776
61976W        W34236  36.480  19.701  11.479
61977W        W34237  13.778  20.223   1.863
61978W        W34238  33.399  11.293   4.176
61979W        W34239  18.187  16.575  10.627
61980W        W34240  10.871   4.865  13.460
61981W        W34241  19.766   5.350   0.869
61982W        W34242  43.899  18.649  12.049
61983W        W34243  41.303  44.924   3.743
61984W        W34244  21.553  15.191  12.859
61985W        W34245  16.608  32.442  11.994
61986W        W34246  11.829  15.241  11.965
61987W        W34247  10.193  44.278   3.859
61988W        W34248   3.819  15.607  14.791
61989W        W34249  11.641  43.010   0.770
61990W        W34250  31.115  21.075   0.439
61991W        W34251  28.155   5.347  14.896
61992W        W34252   5.925  34.971   4.142
61993W        W34253  20.633   8.304   2.692
61994W        W34254  41.381  22.605   2.705
61995W        W34255  19.761  35.104  14.394
61996W        W34256  36.051  14.271   4.609
61997W        W34257  40.342  22.205   3.737
61998W        W34258  15.691  24.660  11.938
61999W        W34259  35.469  42.886  11.975
62000W        W34260   3.813  26.637  12.846
62001W        W34261  28.533  44.998  10.491
62002W        W34262  22.185  12.250   1.442
62003W        W34263  25.218  40.986   0.304
62004W        W34264   1.786   8.238  12.085
62005W        W34265  11.161   6.308  13.934
62006W        W34266  12.200  29.611  10.928
62007W        W34267  33.619  44.776  11.859
62008W        W34268   4.395  14.122  10.958
62009W        W34269   3.835  12.141  11.899
62010W        W34270   6.371  27.467   3.184
62011W        W34271  23.188  15.619   2.792
62012W        W34272   7.272  42.968  11.440
62013W        W34273  13.113  42.023  13.467
62014W        W34274  21.066  26.066  13.839
62015W        W34275  24.067  20.618   2.252
62016W        W34276  30.527   1.431   3.162
62017W        W34277  15.774  42.995   2.852
62018W        W34278  31.448  28.988   0.324
62019W        W34279  43.381  19.259   2.243
62020W        W34280  35.086  36.896   3.253
62021W        W34281  23.666  23.685   3.366
62022W        W34282  26.134  23.629  13.331
62023W        W34283  17.644  27.032  13.353
62024W        W34284  38.566  18.635   3.168
62025W        W34285  19.263  30.435   0.777
62026W        W34286  35.589   7.823   4.708
62027W        W34287  28.018   0.959  10.992
62028W        W34288  32.885  28.653   0.440
62029W        W34289  11.277  15.158   0.454
62030W        W34290  14.202  14.747   1.736
62031W        W34291  36.372  16.194   1.343
62032W        W34292  30.605  39.497  10.591
62033W        W34293  21.589  26.526   1.303
62034W        W34294   4.365  16.703  13.467
62035W        W34295   0.492  27.977  11.089
62036W        W34296  32.561  25.635   4.698
62037W        W34297   3.446  20.204   4.225
62038W        W34298  30.998  17.204   0.306
62039W        W34299  23.102   9.702  12.344
62040W        W34300  27.544  13.845   0.439
62041W        W34301  14.714   0.949  10.459
62042W        W34302  33.026  26.958  14.366
62043W        W34303   5.701  30.112   3.309
62044W        W34304  25.511   0.797   3.164
62045W        W34305  21.205  42.826   1.889
62046W        W34306  11.792  17.643  11.939
62047W        W34307   4.936   4.860  11.869
62048W        W34308  15.210  15.291   9.993
62049W        W34309  42.782  25.609   3.339
62050W        W34310  22.136  15.178   1.739
62051W        W34311  22.665   7.373   3.790
62052W        W34312  12.792  10.271   0.764
62053W        W34313  13.294  12.196   2.302
62054W        W34314  31.981  20.576   0.337
62055W        W34315  17.627  26.090   1.746
62056W        W34316  38.041  30.471  14.931
62057W        W34317  24.185  25.039  10.618
62058W        W34318  29.472   1.368   2.386
62059W        W34319  40.999  10.292   4.770
62060W        W34320  10.262  12.119  13.987
62061W        W34321  26.492  29.536   3.347
62062W        W34322  29.517  41.293  10.417
62063W        W34323  42.427   5.856  12.029
62064W        W34324  27.991  14.817   0.805
62065W        W34325  43.329   6.866   4.329
62066W        W34326   8.702  11.795  14.983
62067W        W34327  30.485  29.565   4.775
62068W        W34328  14.818  23.098   2.779
62069W        W34329  14.169  37.970  14.993
62070W        W34330  13.297  18.242  11.925
62071W        W34331  13.695  24.172   2.767
62072W        W34332   7.676  32.936  12.417
62073W        W34333  38.353  36.511   3.769
62074W        W34334  18.243  21.647  12.409
62075W        W34335  14.621  34.957  13.905
62076W        W34336  23.716   1.403  14.318
62077W        W34337   7.821  24.502  12.943
62078W        W34338  16.619  24.141   3.631
62079W        W34339  14.269  28.076   1.901
62080W        W34340  15.102  35.937   4.197
62081W        W34341  34.446  41.314  11.940
62082W        W34342  35.586  33.982  11.599
62083W        W34343  18.062  12.653   0.431
62084W        W34344  30.602  24.617  11.385
62085W        W34345   5.757  39.832  14.276
62086W        W34346  23.007  18.202  10.451
62087W        W34347  22.212  15.120  14.449
62088W        W34348  29.014  30.518  13.513
62089W        W34349  26.052  38.404   9.974
62090W        W34350  27.621  33.120  13.499
62091W        W34351   7.854  12.358   0.871
62092W        W34352   0.265  24.610  14.985
62093W        W34353  28.558  44.820   0.459
62094W        W34354  40.514  23.724  13.859
62095W        W34355   2.391  40.970  11.584
62096W        W34356  18.702  30.003  13.319
62097W        W34357  22.214  33.933  11.893
62098W        W34358  36.093  15.141  13.959
62099W        W34359  13.121  21.099   1.702
62100W        W34360  14.118  38.417  11.530
62101W        W34361   9.151   6.395  12.976
62102W        W34362  44.796  20.175  10.996
62103W        W34363  28.142  14.679   2.183
62104W        W34364  44.445  12.671   0.411
62105W        W34365   2.727  24.579   0.395
62106W        W34366  11.303   9.213   1.924
62107W        W34367  29.629  21.030   2.799
62108W        W34368   2.905   0.267   3.372
62109W        W34369  17.636  27.621  10.471
62110W        W34370  44.384   6.294   3.171
62111W        W34371  12.838  40.400  12.875
62112W        W34372   4.432  20.671   1.737
62113W        W34373  29.150  29.430   1.911
62114W        W34374   9.781   6.273   0.855
62115W        W34375  42.961  41.407   2.667
62116W        W34376   0.960  40.926  10.408
62117W        W34377  30.011  13.624  11.064
62118W        W34378  43.310   4.888   2.863
62119W        W34379  33.616  32.057  10.550
62120W        W34380  30.539  34.547  11.928
62121W        W34381  40.032  35.557  12.852
62122W        W34382  21.249  38.872   3.655
62123W        W34383  38.465   5.411   3.827
62124W        W34384  30.947   5.349   1.842
62125W        W34385   1.965  28.677   0.794
62126W        W34386   6.318  13.175  12.447
62127W        W34387   2.916   1.738  13.010
62128W        W34388  14.281  35.575  11.585
62129W        W34389  35.886  37.400   2.294
62130W        W34390  30.445  32.549   2.770
62131W        W34391  44.801  15.304  14.792
62132W        W34392  43.765   4.407  11.464
62133W        W34393   7.834  31.016   1.408
62134W        W34394  22.218  18.180  10.597
62135W        W34395  30.639   6.752   0.248
62136W        W34396  41.948  24.222  13.998
62137W        W34397  26.553  31.953   5.213
62138W        W34398   2.880  13.646  11.582
62139W        W34399  26.180  24.652  14.336
62140W        W34400  43.814  34.576  14.402
62141W        W34401   1.858  44.371  13.478
62142W        W34402  23.059   3.904   0.743
62143W        W34403  17.772  26.191  13.535
62144W        W34404  18.676  40.319   3.829
62145W        W34405  16.714  23.153  11.502
62146W        W34406  15.283  25.976   2.380
62147W        W34407  30.463  31.951   0.726
62148W        W34408  41.911   9.218   4.308
62149W        W34409   5.355   5.425  11.021
62150W        W34410   3.911  22.127   3.170
62151W        W34411   0.865  11.232  11.390
62152W        W34412   2.894   8.172   2.730
62153W        W34413  22.699  17.130  12.992
62154W        W34414   8.186  30.574  11.039
62155W        W34415  44.372  42.966   5.199
62156W        W34416  40.007   0.469   2.392
62157W        W34417  14.763  21.735   3.295
62158W        W34418  36.500  35.412   3.297
62159W        W34419  36.407  10.168  14.313
62160W        W34420  33.554  26.001  13.876
62161W        W34421  41.482   2.322  12.362
62162W        W34422  16.733   9.690   4.332
62163W        W34423   4.332  29.034   3.708
62164W        W34424  22.049  11.658   0.921
62165W        W34425  27.185  32.576   4.826
62166W        W34426  21.060   3.744   5.113
62167W        W34427  41.901  20.679  13.514
62168W        W34428  44.290  19.716  12.342
62169W        W34429  26.017   7.394  10.988
62170W        W34430  34.923  22.686  11.112
62171W        W34431  30.554  20.142  14.843
62172W        W34432  12.704  36.882  12.951
62173W        W34433   5.283  39.022   4.788
62174W        W34434  41.879  25.614  13.055
62175W        W34435   0.377  22.519  12.445
62176W        W34436  29.502  38.377   2.772
62177W        W34437  18.122   4.869   4.787
62178W        W34438   8.832  10.314  12.083
62179W        W34439  35.074  24.201  10.636
62180W        W34440  11.209  40.341  10.918
62181W        W34441  23.682  22.054  14.289
62182W        W34442  31.528  44.948  11.915
62183W        W34443  35.532  11.282   3.823
62184W        W34444   6.281   0.801   1.700
62185W        W34445  40.011  42.945  14.458
62186W        W34446  44.260  16.274   1.331
62187W        W34447  15.297  35.574  12.552
62188W        W34448  21.735  41.840  14.395
62189W        W34449  10.808  25.711  10.999
62190W        W34450  23.098  15.169   1.225
62191W        W34451  37.926  16.778  14.941
62192W        W34452   9.655  31.948   0.377
62193W        W34453  26.145  30.654  11.933
62194W        W34454  24.026   2.868   2.713
62195W        W34455  40.987  11.364  14.830
62196W        W34456   6.411  12.324   2.838
62197W        W34457  39.049  34.057   4.256
62198W        W34458  41.985   8.293  10.926
62199W        W34459   3.250  43.284  13.468
62200W        W34460   5.687   3.793   3.273
62201W        W34461  28.049  20.178  13.326
62202W        W34462   1.250  28.010  14.508
62203W        W34463  37.509  10.226   5.231
62204W        W34464  31.479  37.879   3.331
62205W        W34465  28.175  16.232  11.930
62206W        W34466  27.549  40.040   1.385
62207W        W34467  41.293  36.937   0.481
62208W        W34468  38.894  22.573   2.712
62209W        W34469   6.185  17.207   3.840
62210W        W34470  20.095  44.295   9.978
62211W        W34471  23.671  38.856   1.905
62212W        W34472  16.586  25.543  11.855
62213W        W34473  31.533   6.820   2.227
62214W        W34474  39.012  16.085   1.322
62215W        W34475  29.487  11.705  13.520
62216W        W34476  42.986  32.535   1.825
62217W        W34477  24.135  27.568  11.424
62218W        W34478  24.512  42.323  10.440
62219W        W34479  41.474  25.616  14.446
62220W        W34480  21.611  13.222  11.413
62221W        W34481  25.135  19.648   2.354
62222W        W34482  13.844  43.284  14.401
62223W        W34483  12.808   4.321  14.768
62224W        W34484  30.026  27.153  12.834
62225W        W34485  21.686  35.358   3.831
62226W        W34486  26.690  12.275  13.518
62227W        W34487  41.891   9.378  13.441
62228W        W34488  11.191   8.717  14.415
62229W        W34489   8.375  39.368   2.235
62230W        W34490   9.394   7.245  12.555
62231W        W34491   1.824  37.992  10.548
62232W        W34492   0.475  44.434  12.997
62233W        W34493  14.178   0.895  11.455
62234W        W34494  24.207  20.549  14.837
62235W        W34495   7.708  29.028  10.496
62236W        W34496   8.357  14.603   2.898
62237W        W34497   5.806  37.035   1.733
62238W        W34498  27.963   1.937  14.783
62239W        W34499  10.198  14.636  11.000
62240W        W34500  37.520  22.624  12.389
62241W        W34501  37.425  41.512   4.225
62242W        W34502  16.141  32.055  10.981
62243W        W34503  12.617  16.633  10.600
62244W        W34504   7.253  20.670   3.747
62245W        W34505   2.245  23.545  13.498
62246W        W34506  15.319  30.020  14.839
62247W        W34507   5.903   3.816   2.874
62248W        W34508  21.114  21.241   5.645
62249W        W34509  44.336  42.991  11.023
62250W        W34510  15.208  14.110  12.561
62251W        W34511   0.491  34.430  11.480
62252W        W34512  13.683  31.556  12.343
62253W        W34513  28.178  32.987  13.946
62254W        W34514  20.190   1.769  10.470
62255W        W34515  42.818   2.451   4.597
62256W        W34516   8.836  34.082   4.667
62257W        W34517  39.055  29.594  10.447
62258W        W34518  20.216  31.998  11.966
62259W        W34519  26.461   4.433   2.187
62260W        W34520  23.034  36.533   2.199
62261W        W34521  18.084  30.564   4.783
62262W        W34522  13.807   3.446  11.946
62263W        W34523  16.645  26.632   3.738
62264W        W34524  27.448  38.012  13.880
62265W        W34525   9.297  40.372  14.889
62266W        W34526  14.696  29.955  10.480
62267W        W34527  13.690  11.634  13.498
62268W        W34528  20.579  18.571   0.344
62269W        W34529  39.022   6.906  13.421
62270W        W34530  29.605  28.055   4.626
62271W        W34531  29.011  32.929  13.931
62272W        W34532  22.020  21.725   5.280
62273W        W34533   0.815  26.528   1.761
62274W        W34534   9.350  36.499  10.602
62275W        W34535  38.560  39.834  11.536
62276W        W34536  31.072  23.101  11.573
62277W        W34537  44.266  28.450   0.843
62278W        W34538   0.983  25.054  14.842
62279W        W34539  34.557   0.837   2.302
62280W        W34540  27.155  20.544   4.836
62281W        W34541   1.797  43.980   1.752
62282W        W34542  18.265  10.229  14.802
62283W        W34543  32.495  14.280   4.624
62284W        W34544  34.864  18.192  12.451
62285W        W34545  14.110  33.914   1.263
62286W        W34546   9.382   3.393   2.899
62287W        W34547   9.671  43.909  14.851
62288W        W34548   3.314  35.065  12.068
62289W        W34549  12.202  38.994  10.425
62290W        W34550  43.928  35.396   4.672
62291W        W34551  41.882  29.499  11.873
62292W        W34552  10.836  35.480   3.769
62293W        W34553  21.096  27.177   2.376
62294W        W34554  31.085  32.494   1.771
62295W        W34555  38.915  30.934   0.314
62296W        W34556  41.449  42.910  11.959
62297W        W34557  26.487  27.686   4.234
62298W        W34558  39.356  29.924  11.497
62299W        W34559  20.642  25.002   2.206
62300W        W34560  20.654  20.090   4.734
62301W        W34561  24.056  11.825   0.451
62302W        W34562  20.696  10.797   1.797
62303W        W34563  16.582  21.639   1.878
62304W        W34564  33.602   7.902   2.215
62305W        W34565  24.597  19.690  13.417
62306W        W34566  38.919  19.609  13.852
62307W        W34567   6.904  23.542  12.374
62308W        W34568   7.374  27.602   2.239
62309W        W34569  41.378  29.549  14.791
62310W        W34570  41.967  42.486   3.176
62311W        W34571  30.919  38.020  10.512
62312W        W34572  33.920  16.242   1.862
62313W        W34573   5.292  25.219   5.150
62314W        W34574   2.881  34.475  13.883
62315W        W34575  42.369   8.794   4.789
62316W        W34576  11.782   1.466  14.856
62317W        W34577  31.627  24.487   1.760
62318W        W34578  20.219  39.983   4.330
62319W        W34579  11.718   7.315   2.211
62320W        W34580  36.059  19.067  12.848
62321W        W34581   9.306  32.979   4.831
62322W        W34582  33.409  15.650  13.843
62323W        W34583  32.065  43.889   2.231
62324W        W34584   6.283   6.743   3.234
62325W        W34585  10.262  25.708   0.963
62326W        W34586   0.959  35.988   0.930
62327W        W34587   4.915  44.928  11.969
62328W        W34588   9.705  15.742   3.756
62329W        W34589  38.979  44.901  12.429
62330W        W34590  37.991  25.102  13.937
62331W        W34591  12.850   4.711  11.441
62332W        W34592  18.679  12.661   3.814
62333W        W34593  29.541  17.740   0.340
62334W        W34594   4.269  12.661  14.286
62335W        W34595  28.133  33.516   1.433
62336W        W34596  15.799  39.560   0.915
62337W        W34597   3.284  41.903   3.226
62338W        W34598  30.441  36.419   3.778
62339W        W34599  36.395  19.670   5.615
62340W        W34600  43.765   7.236   1.348
62341W        W34601  39.989  24.603  14.428
62342W        W34602  40.993  34.463  14.818
62343W        W34603  39.402   0.748  13.826
62344W        W34604   4.312  41.024  12.845
62345W        W34605  42.381  10.722   3.754
62346W        W34606  19.258   9.180  13.947
62347W        W34607   1.973  24.223  11.980
62348W        W34608   5.709   3.223  14.423
62349W        W34609  44.827   6.893   4.630
62350W        W34610  35.492   8.720  13.375
62351W        W34611  36.071  42.992   2.263
62352W        W34612  17.245  43.507   1.342
62353W        W34613  31.145  28.013  11.128
62354W        W34614  12.141  33.887   1.393
62355W        W34615   0.837  38.417  11.875
62356W        W34616  36.049  28.070  11.111
62357W        W34617   9.164   9.830   3.153
62358W        W34618  32.460  30.920   2.303
62359W        W34619   3.855  24.139   2.789
62360W        W34620  26.163   4.358   2.334
62361W        W34621  38.952   0.348  14.855
62362W        W34622  28.078  16.168   0.829
62363W        W34623  39.933  28.660   1.315
62364W        W34624  18.124  12.143   4.838
62365W        W34625  42.848  25.561   3.810
62366W        W34626  24.608  40.325  12.357
62367W        W34627  44.354  31.469  12.410
62368W        W34628  33.415  41.942   2.808
62369W        W34629   0.422  32.893   1.793
62370W        W34630  10.283  36.033  12.556
62371W        W34631  23.033  18.589   9.677
62372W        W34632  16.112  14.799  12.920
62373W        W34633   6.236  44.933  11.437
62374W        W34634  20.254  16.649  10.604
62375W        W34635  18.071  42.416  10.924
62376W        W34636  10.291  32.079  13.929
62377W        W34637  14.593  22.140  10.926
62378W        W34638  27.091  14.818   3.257
62379W        W34639  32.598  33.925  11.963
62380W        W34640  40.409   4.255  12.909
62381W        W34641   7.849  29.159  13.361
62382W        W34642  15.254   3.451   0.755
62383W        W34643  26.558  36.061  13.978
62384W        W34644  11.807  21.115  10.584
62385W        W34645   4.362  29.617  11.471
62386W        W34646  14.627  30.559  10.615
62387W        W34647  34.921  20.085   1.734
62388W        W34648  28.167  25.184   9.942
62389W        W34649  33.986  20.569  11.545
62390W        W34650   1.972  34.889  11.886
62391W        W34651  41.029   9.889   3.386
62392W        W34652  14.322  14.596  11.105
62393W        W34653   5.319  37.832   0.846
62394W        W34654  29.988  14.603  13.808
62395W        W34655  37.949  42.927   1.390
62396W        W34656  31.621  44.327  13.986
62397W        W34657  43.952  34.871  12.378
62398W        W34658   8.763  29.527  12.059
62399W        W34659   9.350  25.968  14.289
62400W        W34660  35.098   8.396  13.048
62401W        W34661  34.422  33.024  13.397
62402W        W34662  26.642  22.626  11.011
62403W        W34663  33.437  35.015   3.162
62404W        W34664  30.128  30.049   4.698
62405W        W34665  39.821  18.200   4.283
62406W        W34666  14.220  20.051  13.936
62407W        W34667  20.203  40.386  12.510
62408W        W34668  39.551  10.827  11.513
62409W        W34669  26.123  30.052   4.729
62410W        W34670  35.917   2.301   2.238
62411W        W34671  36.578  16.699   1.865
62412W        W34672   6.730  43.953   0.445
62413W        W34673   5.249  44.399   1.229
62414W        W34674  35.901   8.176   4.728
62415W        W34675  38.971   7.902   1.767
62416W        W34676   2.858  30.437  13.317
62417W        W34677  13.278   7.372   1.694
62418W        W34678   7.814   6.767   0.278
62419W        W34679  24.994  21.719  13.318
62420W        W34680  27.057  25.468  11.045
62421W        W34681  21.034   6.346   1.808
62422W        W34682  35.530   5.857  13.847
62423W        W34683   8.852  29.024  11.959
62424W        W34684   6.749  30.994   4.189
62425W        W34685  22.218  42.006  12.921
62426W        W34686  27.593   4.795  10.610
62427W        W34687  19.198  19.608   0.345
62428W        W34688  18.694   2.744  14.478
62429W        W34689  43.439  20.634  12.853
62430W        W34690  24.146  17.195   4.632
62431W        W34691  37.370   3.841   3.222
62432W        W34692  39.512  10.686  13.813
62433W        W34693   7.281  18.285  10.909
62434W        W34694  29.579  11.782   5.149
62435W        W34695  36.035  27.187  13.049
62436W        W34696  22.654   5.245  11.519
62437W        W34697  16.625  28.522   1.390
62438W        W34698  16.256   4.407   0.778
62439W        W34699  32.471  26.054  11.122
62440W        W34700  34.884  44.776   1.326
62441W        W34701   2.432   7.849  10.518
62442W        W34702  40.469  16.202  14.023
62443W        W34703  30.143  18.779   2.224
62444W        W34704  12.686  37.536   0.752
62445W        W34705  39.322  19.580   3.715
62446W        W34706  13.778  17.594   4.218
62447W        W34707   4.753   4.782   1.420
62448W        W34708  35.041  32.117   1.327
62449W        W34709  25.092  19.246   3.865
62450W        W34710  13.315  35.490   0.729
62451W        W34711  10.197   3.355  13.348
62452W        W34712  14.102  26.606  10.454
62453W        W34713  30.041  12.331   1.854
62454W        W34714  24.638  39.401  12.072
62455W        W34715  17.771  25.514   1.303
62456W        W34716  37.425  14.132   2.850
62457W        W34717  29.947   1.380  10.932
62458W        W34718  35.418  19.776   1.228
62459W        W34719   1.266  18.590  12.345
62460W        W34720   4.339  44.399  12.009
62461W        W34721   9.276  10.861   0.954
62462W        W34722  17.564  11.756   3.724
62463W        W34723   8.761  20.627  11.429
62464W        W34724   6.282  36.993   0.367
62465W        W34725  21.730  18.296   1.779
62466W        W34726  31.979  36.543  11.926
62467W        W34727  17.669   7.280  12.827
62468W        W34728  24.007  36.523   2.666
62469W        W34729   8.212  23.112   3.281
62470W        W34730   0.308  28.143   3.819
62471W        W34731  28.102   5.388  10.975
62472W        W34732  32.491  16.134   3.179
62473W        W34733   0.306   3.934  13.797
62474W        W34734   9.849  23.516  13.439
62475W        W34735  21.564  27.499   0.809
62476W        W34736  32.409  30.947  10.562
62477W        W34737   6.412  37.394   4.621
62478W        W34738  44.900  29.053   2.371
62479W        W34739  40.365  10.705  13.370
62480W        W34740  17.260   3.299  14.883
62481W        W34741   2.284  11.681   0.839
62482W        W34742  24.526   8.708  12.083
62483W        W34743  31.577  15.677  13.916
62484W        W34744   5.820   6.745   3.663
62485W        W34745   4.313  24.219   3.222
62486W        W34746  40.000   0.398   1.760
62487W        W34747  14.319  35.017   2.768
62488W        W34748  33.087  21.028  11.475
62489W        W34749  23.223  33.547   0.937
62490W        W34750  19.157  10.689  12.497
62491W        W34751  24.521  30.136   3.250
62492W        W34752  31.944  11.646   5.322
62493W        W34753   7.902  32.627  10.533
62494W        W34754  12.767   4.252   4.313
62495W        W34755  34.605  34.397   4.615
62496W        W34756  27.451  11.217   3.379
62497W        W34757  28.144   4.900   0.808
62498W        W34758  29.975  28.576   1.210
62499W        W34759  11.727  28.655   5.736
62500W        W34760   6.794  23.540  11.581
62501W        W34761   1.290  41.370   1.327
62502W        W34762  18.643  25.186  11.540
62503W        W34763  11.698   2.370  11.542
62504W        W34764  42.810  30.039  14.350
62505W        W34765  18.217  30.077   3.708
62506W        W34766  14.175  18.242  11.510
62507W        W34767  35.046  33.472   2.739
62508W        W34768  21.655  43.345  11.437
62509W        W34769   0.403  15.696  12.564
62510W        W34770  18.751  23.133   4.319
62511W        W34771  26.535  39.811   4.179
62512W        W34772  27.688   1.261  14.024
62513W        W34773  39.414  15.666  11.452
62514W        W34774   4.212  19.692   0.447
62515W        W34775  19.210   9.229   3.648
62516W        W34776  28.998  31.630  14.912
62517W        W34777   1.326  33.015   1.869
62518W        W34778  15.302  15.666  10.612
62519W        W34779  31.521  13.310  11.120
62520W        W34780  26.154  38.910   5.304
62521W        W34781  10.740  42.797  10.942
62522W        W34782  39.951  26.183   0.314
62523W        W34783   6.858  25.564  12.846
62524W        W34784  36.078   2.872  11.459
62525W        W34785  14.755  37.476  14.367
62526W        W34786  15.596  39.315  12.568
62527W        W34787  20.756  11.143   1.401
62528W        W34788  15.209  43.488  13.484
62529W        W34789  20.223  23.024  11.030
62530W        W34790  41.020  15.211   2.223
62531W        W34791  14.258  40.837   1.788
62532W        W34792   0.746  34.584   4.649
62533W        W34793  30.551   9.348   0.294
62534W        W34794  43.296  28.042  11.442
62535W        W34795  40.371  16.151  10.625
62536W        W34796   6.808   9.180  13.797
62537W        W34797  35.033   6.756  13.867
62538W        W34798  18.610  44.460  13.832
62539W        W34799  12.293  42.870  11.551
62540W        W34800  29.539   7.851  13.361
62541W        W34801   0.256   1.462  10.523
62542W        W34802   6.197  10.763   0.410
62543W        W34803   8.889  12.716   3.836
62544W        W34804  33.958  38.944   3.167
62545W        W34805  12.697  17.637  14.413
62546W        W34806   8.666  40.515   3.801
62547W        W34807  33.559   3.229   2.286
62548W        W34808  41.516  15.759   1.390
62549W        W34809  31.914   6.912   3.215
62550W        W34810   8.405  13.228   3.644
62551W        W34811   1.932  13.115  11.021
62552W        W34812  43.378   3.322  14.001
62553W        W34813  14.779  12.640   4.791
62554W        W34814   3.416   9.377  14.472
62555W        W34815  28.537  10.762  13.467
62556W        W34816  41.828  36.066  10.492
62557W        W34817  15.709   0.770   4.165
62558W        W34818  40.980   5.405   0.382
62559W        W34819  20.106  21.583   0.816
62560W        W34820  38.041  17.712  11.444
62561W        W34821  44.292  24.614   0.389
62562W        W34822  14.828   2.751  10.911
62563W        W34823  14.320  34.499   0.782
62564W        W34824   2.310  43.855   1.851
62565W        W34825   7.902  38.999  14.803
62566W        W34826  42.459   2.440   0.382
62567W        W34827  17.279  21.092   3.227
62568W        W34828  23.239  17.603   0.484
62569W        W34829   3.777   9.713   2.845
62570W        W34830   2.930  29.634   4.672
62571W        W34831  13.207  25.109  11.013
62572W        W34832  13.772  27.550   5.289
62573W        W34833  44.370  18.752   1.446
62574W        W34834  27.164  31.441   0.289
62575W        W34835  34.992  40.454   2.774
62576W        W34836  31.113   2.278   1.763
62577W        W34837  17.177  34.568   0.926
62578W        W34838  28.125  37.906  13.921
62579W        W34839  25.998   6.756  13.851
62580W        W34840  32.037   7.741   0.871
62581W        W34841  14.154  35.916   0.472
62582W        W34842  17.601   7.389   0.411
62583W        W34843   4.424  22.646   3.146
62584W        W34844  35.069  41.800   3.719
62585W        W34845  11.696  37.843   1.323
62586W        W34846  40.847  18.116   1.745
62587W        W34847  35.105  25.966  10.643
62588W        W34848   1.278  36.450  10.976
62589W        W34849   9.149   6.279   2.830
62590W        W34850   9.336  32.423  14.903
62591W        W34851   3.347  19.261   1.842
62592W        W34852  39.347  16.211  11.044
62593W        W34853  33.071  34.066  12.891
62594W        W34854  16.690  18.709  14.031
62595W        W34855   0.344  12.856  13.942
62596W        W34856  22.632  43.874   3.772
62597W        W34857   2.348   3.928   1.416
62598W        W34858   6.332  17.249  14.401
62599W        W34859  11.128  19.624  14.869
62600W        W34860  27.448  39.346   1.818
62601W        W34861  43.784  12.836  14.796
62602W        W34862  11.266   7.905   1.767
62603W        W34863  21.147  19.612   1.883
62604W        W34864  18.137  14.619   2.373
62605W        W34865  31.452  16.566   4.135
62606W        W34866  25.052  28.466  12.495
62607W        W34867  43.993  41.441   0.354
62608W        W34868  17.613   0.358   1.904
62609W        W34869   6.804  25.206  10.969
62610W        W34870  26.473   7.317  12.550
62611W        W34871  37.349  13.261  11.030
62612W        W34872   6.183  36.909   2.330
62613W        W34873  24.625  16.659  12.379
62614W        W34874  17.697  35.034  13.057
62615W        W34875   4.833  34.451  12.498
62616W        W34876   4.386  35.029  13.909
62617W        W34877  26.093   7.845  13.484
62618W        W34878  16.741  44.877  10.943
62619W        W34879  24.066  10.667  12.387
62620W        W34880  21.098  33.425  12.075
62621W        W34881  19.099  15.203   0.802
62622W        W34882  23.224  31.425  11.545
62623W        W34883   3.416  15.317   2.310
62624W        W34884  35.456  16.672   4.202
62625W        W34885  28.511  43.312  12.491
62626W        W34886  34.497  23.550  12.985
62627W        W34887  32.517  29.101  13.953
62628W        W34888  33.963  38.996  11.904
62629W        W34889  40.341  24.203  13.031
62630W        W34890  29.082  39.539  10.583
62631W        W34891  15.609   1.438  10.589
62632W        W34892  31.095   7.320  12.507
62633W        W34893  18.547  33.093  14.380
62634W        W34894  19.131   5.196  13.498
62635W        W34895   1.800  18.080   3.171
62636W        W34896  22.618  37.889   0.443
62637W        W34897   4.374   4.820   1.730
62638W        W34898   5.875  14.639   3.835
62639W        W34899   0.833   6.859   2.414
62640W        W34900  28.455  44.873   2.347
62641W        W34901  19.142  26.458   3.821
62642W        W34902   5.842  20.627   0.943
62643W        W34903  44.329  38.990   4.267
62644W        W34904   5.798  35.507   1.371
62645W        W34905  28.531   5.370   1.409
62646W        W34906  24.544  28.607   1.353
62647W        W34907  16.123  11.753   2.360
62648W        W34908  20.221  12.255  10.599
62649W        W34909  21.186  23.095   2.724
62650W        W34910   7.897   9.878  13.811
62651W        W34911  33.566  33.098  13.001
62652W        W34912  29.934   2.864  11.392
62653W        W34913  30.071  27.952   2.828
62654W        W34914  36.878  12.205   0.340
62655W        W34915   8.723   9.191  11.058
62656W        W34916   1.257   9.796  14.005
62657W        W34917  22.039  32.055  12.341
62658W        W34918  26.121  11.219  13.920
62659W        W34919  19.632  33.957   1.905
62660W        W34920  29.592  35.879  12.399
62661W        W34921   3.269  27.577  14.332
62662W        W34922   8.182  19.101   3.305
62663W        W34923  26.552   3.284   0.810
62664W        W34924  39.500   0.280  13.887
62665W        W34925  36.919  24.976  11.513
62666W        W34926  22.121   5.702   1.281
62667W        W34927   7.796  44.463   0.445
62668W        W34928   4.858  37.538  10.496
62669W        W34929  10.718   0.748  13.405
62670W        W34930  34.992  24.576  13.338
62671W        W34931  35.001  19.252   1.785
62672W        W34932  18.188   8.841   3.806
62673W        W34933  44.464  37.900   4.680
62674W        W34934   4.294   7.234   2.863
62675W        W34935  28.093   7.322   9.969
62676W        W34936   8.315  15.785  13.447
62677W        W34937  20.683  28.126  14.820
62678W        W34938  25.572  40.506   9.964
62679W        W34939  24.071  26.591   2.358
62680W        W34940  23.043   3.812  14.359
62681W        W34941  35.044   9.783   0.945
62682W        W34942   3.409  21.092   5.250
62683W        W34943  15.137   9.321  12.518
62684W        W34944  40.489  27.177   1.772
62685W        W34945  44.791  37.088  10.480
62686W        W34946  10.755  42.904   2.687
62687W        W34947  19.095  24.691   4.722
62688W        W34948  13.279  15.246   9.519
62689W        W34949  20.560  32.931   4.769
62690W        W34950   7.409  36.577   2.198
62691W        W34951  27.578  12.302   2.792
62692W        W34952  20.595  19.775  14.455
62693W        W34953  36.003   0.934   4.126
62694W        W34954   8.857   8.173   0.828
62695W        W34955  26.655  40.387   3.298
62696W        W34956  25.189  16.795  13.918
62697W        W34957  37.479   0.474   1.866
62698W        W34958   9.766  30.115  14.506
62699W        W34959   9.172   7.339  10.124
62700W        W34960  44.824  13.143  13.872
62701W        W34961  12.806  41.917  13.061
62702W        W34962   4.264  31.090   3.662
62703W        W34963   7.354   4.827   4.216
62704W        W34964  15.240   6.379  13.465
62705W        W34965  34.118  33.950  12.489
62706W        W34966  42.790  10.742   1.435
62707W        W34967  21.555  19.775   3.152
62708W        W34968  44.287  13.339   9.983
62709W        W34969  30.612   6.851   2.384
62710W        W34970   3.370  41.480  13.522
62711W        W34971   5.894  40.814  13.874
62712W        W34972  26.119   8.293   2.842
62713W        W34973  37.085  31.001  11.409
62714W        W34974  38.829  14.149   4.115
62715W        W34975  13.676  37.873   3.165
62716W        W34976  20.728   0.796  12.917
62717W        W34977  27.086  10.688   0.820
62718W        W34978  35.932  31.091   0.778
62719W        W34979  28.637  42.452  12.393
62720W        W34980  16.696   5.770   5.759
62721W        W34981  36.378  27.640  14.293
62722W        W34982  37.520  25.082  11.602
62723W        W34983  30.030   7.797  13.892
62724W        W34984  44.359  37.834   2.782
62725W        W34985  25.147  39.449   1.239
62726W        W34986  12.215  28.027   1.355
62727W        W34987   5.801  43.398   2.692
62728W        W34988   5.903  41.861  13.431
62729W        W34989   5.287   2.868  11.449
62730W        W34990  24.993   4.943  11.533
62731W        W34991  31.413  37.378  13.324
62732W        W34992  41.399  28.997   2.282
62733W        W34993  31.592  32.504  11.908
62734W        W34994  29.554  14.282  14.926
62735W        W34995  30.027  13.754   4.679
62736W        W34996  28.616   2.371   4.633
62737W        W34997  15.236  29.479   9.483
62738W        W34998  31.129  36.441   1.273
62739W        W34999   7.375  35.511   0.280
62740W        W35000   6.428  30.560  10.573
62741W        W35001  25.598  10.164   4.241
62742W        W35002  24.122  37.434  13.478
62743W        W35003   4.223  19.675   1.403
62744W        W35004   3.433  27.645  14.921
62745W        W35005  36.920  25.489   2.404
62746W        W35006   0.812  11.680   3.819
62747W        W35007  14.815  17.076  10.521
62748W        W35008  23.520  13.760   2.768
62749W        W35009  24.202  26.518   9.641
62750W        W35010  21.747  10.836  11.128
62751W        W35011  38.998  37.015   2.781
62752W        W35012   1.431  35.396   0.348
62753W        W35013  38.569  31.951   3.147
62754W        W35014   9.317  22.546   2.412
62755W        W35015  17.064  42.913  11.521
62756W        W35016  18.622  42.990   3.377
62757W        W35017   9.746  12.683  11.422
62758W        W35018   0.819  44.008   2.872
62759W        W35019  17.205  41.812  13.476
62760W        W35020  31.926  40.906  10.443
62761W        W35021   0.815   7.902   1.276
62762W        W35022   6.894  31.575   3.696
62763W        W35023  20.083  14.791  12.470
62764W        W35024  10.172   6.841   2.859
62765W        W35025  39.901   4.905   1.739
62766W        W35026  29.556  14.328   1.824
62767W        W35027  16.091  39.554   3.208
62768W        W35028  38.910  39.916  12.856
62769W        W35029  13.757   6.735   2.870
62770W        W35030  27.518   5.426  12.366
62771W        W35031  21.187   0.829   1.377
62772W        W35032   7.909   3.814   0.476
62773W        W35033  20.226  30.536  11.546
62774W        W35034  29.429   8.223  13.318
62775W        W35035  15.097  35.531   0.279
62776W        W35036   7.713   5.281  11.434
62777W        W35037  43.792  14.803  11.904
62778W        W35038  24.642  34.032   1.404
62779W        W35039   6.341  41.031   1.394
62780W        W35040  23.176  33.070   3.186
62781W        W35041  30.917  30.430   5.685
62782W        W35042  43.492  11.643   3.305
62783W        W35043  23.014  20.085   0.290
62784W        W35044  13.199  18.071  14.868
62785W        W35045  17.278   2.915   3.722
62786W        W35046  31.473  15.627   4.631
62787W        W35047  23.680  30.551  14.953
62788W        W35048  42.988   7.771  12.959
62789W        W35049  33.961  30.057   0.865
62790W        W35050  33.532   3.311   2.705
62791W        W35051   6.755  15.236   2.401
62792W        W35052  18.055   1.926  12.396
62793W        W35053  36.388  43.465   1.422
62794W        W35054  14.217  27.160   1.928
62795W        W35055  32.392  23.019  11.579
62796W        W35056  43.290  30.541   0.783
62797W        W35057  30.062  33.920  11.975
62798W        W35058  31.639   1.852   3.382
62799W        W35059  23.638  41.366   1.242
62800W        W35060   2.239  21.043  13.927
62801W        W35061  33.101  31.624   2.854
62802W        W35062  21.100  17.674   4.761
62803W        W35063  30.563  29.601  13.425
62804W        W35064  25.116  24.992   0.893
62805W        W35065  17.595  22.039   3.386
62806W        W35066   5.298  16.220  11.012
62807W        W35067  22.052  21.715  10.631
62808W        W35068   6.360  18.724   2.185
62809W        W35069   3.344   1.467  11.106
62810W        W35070  34.384  14.318   0.290
62811W        W35071  36.487  27.626   4.205
62812W        W35072  41.509  17.713   4.320
62813W        W35073  10.823  36.000  11.128
62814W        W35074  43.347   4.721   1.345
62815W        W35075  20.083   8.787  13.903
62816W        W35076  17.570  13.267  12.922
62817W        W35077   9.795  34.601  11.039
62818W        W35078   2.955  16.674  14.368
62819W        W35079  30.065  16.755   1.765
62820W        W35080  43.375  44.780   3.726
62821W        W35081  27.055   0.263   3.167
62822W        W35082  14.127  34.543   0.251
62823W        W35083  35.551   4.289   1.411
62824W        W35084  22.535  41.859   3.378
62825W        W35085   3.293   2.836   2.817
62826W        W35086  40.050  31.516   1.697
62827W        W35087   0.862  17.690   0.337
62828W        W35088   8.699   1.397   3.759
62829W        W35089  36.059  41.012   1.863
62830W        W35090  19.195  17.564  13.040
62831W        W35091  39.874   0.400  14.359
62832W        W35092   9.810  35.914   3.359
62833W        W35093   5.722  23.181   2.233
62834W        W35094  41.413  32.979  14.898
62835W        W35095   8.834  27.003   1.335
62836W        W35096  43.866  26.517  14.427
62837W        W35097  12.619   4.444   1.296
62838W        W35098   9.689  36.362   1.421
62839W        W35099  25.586  10.842  11.949
62840W        W35100  21.753  37.559   5.221
62841W        W35101   8.718  31.151   4.821
62842W        W35102  18.771  24.580  11.458
62843W        W35103  33.106   1.819  14.842
62844W        W35104  43.317  35.491  12.487
62845W        W35105   2.754  44.384   4.337
62846W        W35106  43.766  14.779   1.731
62847W        W35107  15.258  26.109   4.346
62848W        W35108   1.262   4.751  10.915
62849W        W35109  38.484  18.103  14.404
62850W        W35110  38.522  29.921   2.896
62851W        W35111  41.886   8.329  11.426
62852W        W35112  18.652  44.787   1.828
62853W        W35113  16.570  30.982  13.820
62854W        W35114   0.817   9.661   2.880
62855W        W35115  34.032  38.906   2.838
62856W        W35116  28.071  15.198  11.066
62857W        W35117   4.792  28.086   0.438
62858W        W35118  40.820  18.780  13.000
62859W        W35119  27.985  25.115  10.999
62860W        W35120  23.109   7.190  13.062
62861W        W35121  26.668  32.637  12.576
62862W        W35122  19.659   9.842   0.734
62863W        W35123  14.785  23.995  13.986
62864W        W35124  12.637  32.125   2.720
62865W        W35125  28.035  36.348  14.885
62866W        W35126  30.160  41.379   2.367
62867W        W35127  18.160  32.412  10.926
62868W        W35128  19.695  15.316  11.426
62869W        W35129  18.656  34.055  11.392
62870W        W35130  19.190  41.791  13.474
62871W        W35131  22.532  41.925  11.047
62872W        W35132  11.749  40.336  11.466
62873W        W35133  24.487  27.578   2.202
62874W        W35134  11.659   3.836  10.426
62875W        W35135  34.066  15.736   9.927
62876W        W35136  36.999  31.607   1.307
62877W        W35137   5.219  32.554   1.921
62878W        W35138  14.789   5.762   1.735
62879W        W35139  13.720   0.847  13.000
62880W        W35140  11.310  31.924   1.373
62881W        W35141  33.468  27.563   1.291
62882W        W35142  10.859  31.598  11.601
62883W        W35143  24.066  30.421   3.146
62884W        W35144   0.882  12.356  14.302
62885W        W35145   0.846  11.859  13.903
62886W        W35146   0.439   9.754  12.980
62887W        W35147   8.311  21.033   4.209
62888W        W35148   6.390  18.724  11.914
62889W        W35149  40.467  34.375   2.688
62890W        W35150   4.898  30.563   5.279
62891W        W35151  29.941  42.986   3.679
62892W        W35152  34.602   3.452   3.149
62893W        W35153  40.339  30.127  14.856
62894W        W35154  16.701  12.771   3.735
62895W        W35155  14.151  40.524   0.923
62896W        W35156  21.713  39.477  13.462
62897W        W35157  16.766  37.031   4.210
62898W        W35158  15.310  32.437   4.318
62899W        W35159  43.490  14.646  12.500
62900W        W35160  33.924  36.961   4.668
62901W        W35161  35.448  40.355   3.834
62902W        W35162   3.342  21.227  12.086
62903W        W35163   1.278  31.034  11.442
62904W        W35164  37.547  33.532  14.912
62905W        W35165  22.174  17.278  11.900
62906W        W35166  33.899  21.041   0.795
62907W        W35167  44.310  40.861  10.954
62908W        W35168  28.632  23.129  11.090
62909W        W35169  43.788  42.910   1.218
62910W        W35170  44.478  14.612  12.553
62911W        W35171  10.218  31.598   1.291
62912W        W35172  18.691  42.028  11.071
62913W        W35173  19.606  18.744   2.752
62914W        W35174  28.002  16.777   2.258
62915W        W35175  20.623   9.190   4.733
62916W        W35176  42.309  21.570   3.287
62917W        W35177  28.635  38.004   1.922
62918W        W35178  21.148  38.897  14.289
62919W        W35179  24.164  27.087   0.860
62920W        W35180  39.476  24.209   1.723
62921W        W35181  40.909  19.701   2.307
62922W        W35182  26.624   2.903  10.535
62923W        W35183  37.049   7.394  13.958
62924W        W35184  27.024  31.930  14.938
62925W        W35185  15.759   8.259   1.701
62926W        W35186  16.231  19.146  14.490
62927W        W35187   1.873  35.896   0.794
62928W        W35188  40.897  33.000  14.788
62929W        W35189  40.930   6.765  14.376
62930W        W35190  26.478  31.093   2.195
62931W        W35191  38.056  32.493  11.477
62932W        W35192  39.534  37.834   3.858
62933W        W35193  29.537  26.608   4.793
62934W        W35194  32.405   4.770  13.478
62935W        W35195  17.252   7.880   2.785
62936W        W35196  21.146  43.484  13.491
62937W        W35197   3.772  24.061   0.842
62938W        W35198  32.119  36.915  13.330
62939W        W35199   5.692  19.112   2.223
62940W        W35200  12.658  18.173  14.877
62941W        W35201  25.164  24.049   0.922
62942W        W35202   6.748  26.651   4.308
62943W        W35203  25.642  12.849   3.650
62944W        W35204   2.330  22.714   2.818
62945W        W35205  36.416  25.624   0.323
62946W        W35206  23.076  30.108  11.110
62947W        W35207  44.302  32.117   0.965
62948W        W35208  15.245   1.451  14.497
62949W        W35209  33.411   7.414  12.451
62950W        W35210  44.954  22.587  12.946
62951W        W35211   2.953   0.879   3.212
62952W        W35212  40.528  29.994  11.459
62953W        W35213  34.880  19.634  11.546
62954W        W35214  18.695  31.548  14.320
62955W        W35215  22.663  36.961   2.236
62956W        W35216   6.680   9.393  12.916
62957W        W35217  43.467  36.001  11.429
62958W        W35218  16.723  32.475   2.331
62959W        W35219   4.430   3.270   1.283
62960W        W35220  37.036  22.204  12.387
62961W        W35221  12.174  14.738   2.276
62962W        W35222  11.251  29.432  12.957
62963W        W35223  21.607   5.864  12.567
62964W        W35224  23.598   3.411  10.475
62965W        W35225   8.809  13.703  14.873
62966W        W35226  22.186  22.227  13.840
62967W        W35227  36.034   2.750   3.672
62968W        W35228  23.113  29.621  14.847
62969W        W35229  34.060   9.880  13.900
62970W        W35230  41.857  25.539  12.010
62971W        W35231   7.406  42.292   3.675
62972W        W35232   0.839  36.425  14.886
62973W        W35233  10.763  35.072  13.008
62974W        W35234  29.165  33.603  12.973
62975W        W35235  12.165  44.339  10.439
62976W        W35236  28.451  36.544   1.440
62977W        W35237  11.784  24.598  14.394
62978W        W35238  19.704   9.874  12.967
62979W        W35239  16.575  43.794  11.044
62980W        W35240  13.774  17.789  11.610
62981W        W35241  39.560  37.519   1.697
62982W        W35242  25.194  37.069   1.414
62983W        W35243  34.889  10.267  11.602
62984W        W35244  31.423  16.214  10.941
62985W        W35245  20.729  10.836  12.015
62986W        W35246  34.870  13.125  12.520
62987W        W35247  19.130  31.630  11.435
62988W        W35248  13.828  15.793  10.449
62989W        W35249  41.040  38.520   1.831
62990W        W35250  10.878  27.039  13.898
62991W        W35251   8.266  28.564  11.976
62992W        W35252  35.498   5.386   4.682
62993W        W35253  10.268  28.154   0.425
62994W        W35254  37.475   1.430  12.947
62995W        W35255  12.315  21.198   1.912
62996W        W35256  32.900  19.582  10.092
62997W        W35257  12.824  34.414   0.371
62998W        W35258   1.961  33.579  14.462
62999W        W35259  32.094   3.856  14.981
63000W        W35260  18.193  38.527   1.773
63001W        W35261  30.509   2.260   1.804
63002W        W35262  28.624  13.812   2.238
63003W        W35263  13.623  27.616  14.278
63004W        W35264  37.563  30.103   2.719
63005W        W35265   3.861  43.464  11.876
63006W        W35266  32.909   6.235  12.952
63007W        W35267  26.173   1.901   0.897
63008W        W35268  30.096  28.963  14.807
63009W        W35269   3.751  44.305  13.947
63010W        W35270   9.760  21.018  13.869
63011W        W35271  14.218   9.813  14.805
63012W        W35272  20.042  39.038  14.375
63013W        W35273  26.673  12.130   3.216
63014W        W35274  15.606  19.658   5.248
63015W        W35275  38.871  40.349   1.397
63016W        W35276   4.422  19.556   2.712
63017W        W35277  22.531  37.440  11.051
63018W        W35278  10.248  21.617  12.032
63019W        W35279  35.539  25.498   4.711
63020W        W35280  44.417  10.790  11.416
63021W        W35281  10.774  44.873  13.864
63022W        W35282  26.638  18.084  12.371
63023W        W35283  17.252  35.365   2.372
63024W        W35284   3.447  24.629  14.833
63025W        W35285   2.903  43.494  13.953
63026W        W35286  39.968  20.071   3.326
63027W        W35287   3.380   9.664  10.898
63028W        W35288  13.144   4.725  13.428
63029W        W35289  20.537  38.908  11.941
63030W        W35290  24.170  26.049   0.314
63031W        W35291  22.061  40.454  12.943
63032W        W35292  40.504  21.108   1.322
63033W        W35293  10.284  14.638   4.645
63034W        W35294  34.449  41.390   4.354
63035W        W35295   2.333   1.938   9.924
63036W        W35296  35.031  20.721  14.384
63037W        W35297   7.218  19.123   1.224
63038W        W35298  13.650   3.318  12.975
63039W        W35299   8.229  26.516  10.902
63040W        W35300  42.411  43.001  10.932
63041W        W35301  38.974   0.874  11.886
63042W        W35302  31.451  32.540  11.510
63043W        W35303  23.623   0.812  10.428
63044W        W35304  16.259  39.384   4.739
63045W        W35305  41.899  14.606  14.972
63046W        W35306  43.455   6.222   2.791
63047W        W35307  31.924   5.774  13.029
63048W        W35308  13.185  37.494   2.729
63049W        W35309  29.511   9.662   1.451
63050W        W35310  37.015  31.925   3.694
63051W        W35311  33.382  16.609   2.353
63052W        W35312  35.507  27.469   0.394
63053W        W35313   8.757   8.717  11.471
63054W        W35314  10.800   8.885   5.312
63055W        W35315  40.038  31.128   0.826
63056W        W35316  24.681  17.720   3.813
63057W        W35317  15.118  13.256  12.951
63058W        W35318  18.649  23.176   0.387
63059W        W35319   7.336   3.850   1.286
63060W        W35320  36.470  25.028  10.573
63061W        W35321  15.240  34.022  11.992
63062W        W35322   8.793   9.232  13.997
63063W        W35323   8.826   8.664   0.866
63064W        W35324  14.148  38.913   2.226
63065W        W35325  25.502  39.054   0.363
63066W        W35326  36.902  29.471   3.270
63067W        W35327  19.721  43.870  11.901
63068W        W35328  13.342  37.540   4.825
63069W        W35329  40.346   9.869  14.310
63070W        W35330  17.625  11.141  14.966
63071W        W35331   9.313  20.226   3.190
63072W        W35332  15.239  38.995  13.439
63073W        W35333  13.727  38.417   3.707
63074W        W35334  11.719  36.870  10.517
63075W        W35335  25.568   9.663   4.121
63076W        W35336  34.424  29.440   0.244
63077W        W35337   3.401  15.618  11.390
63078W        W35338   0.304  11.161   3.831
63079W        W35339  36.058  43.392  13.989
63080W        W35340  44.277  33.537  11.375
63081W        W35341  44.780  22.036  13.997
63082W        W35342  12.749  32.568  13.827
63083W        W35343  37.558  43.939  12.515
63084W        W35344  33.078  29.424   1.225
63085W        W35345  10.783  34.446   4.753
63086W        W35346  20.665  32.045  10.135
63087W        W35347  36.887   2.239  11.010
63088W        W35348  25.143   2.387  12.498
63089W        W35349   4.757  21.070   0.781
63090W        W35350  19.040  16.612  10.453
63091W        W35351  13.697  23.654   3.222
63092W        W35352  31.502  32.570  12.550
63093W        W35353  22.244   1.852  10.620
63094W        W35354  13.185   8.270   0.382
63095W        W35355  37.856   8.377   2.301
63096W        W35356   0.299  38.843   2.725
63097W        W35357  35.940  31.457  14.908
63098W        W35358   4.720   7.830   1.278
63099W        W35359  29.596   7.788  12.918
63100W        W35360  40.005  40.517   2.756
63101W        W35361  44.309  29.985   3.706
63102W        W35362   5.389  13.163  12.971
63103W        W35363  18.708  12.692   2.756
63104W        W35364   7.231  26.470   2.831
63105W        W35365  39.323   9.716   9.952
63106W        W35366  37.995   7.280  13.845
63107W        W35367  31.014  28.492   4.789
63108W        W35368   2.293  30.493  13.041
63109W        W35369  41.910  33.534  11.389
63110W        W35370  24.145  38.884   2.287
63111W        W35371  21.035  11.791  12.093
63112W        W35372   4.895   3.862  10.589
63113W        W35373  13.626  37.340   0.782
63114W        W35374  37.476  10.310  13.372
63115W        W35375  21.212   7.727  10.899
63116W        W35376  19.540  24.981   2.370
63117W        W35377  10.827  14.669  11.374
63118W        W35378  20.233  36.085  14.445
63119W        W35379  34.937  15.218   2.399
63120W        W35380  23.155  27.624   4.222
63121W        W35381  30.583  11.689  13.511
63122W        W35382   1.826  12.308   3.753
63123W        W35383   0.912   5.767  13.005
63124W        W35384  19.585  25.479  11.448
63125W        W35385  37.082  41.413  10.998
63126W        W35386  34.110   1.793  12.463
63127W        W35387  39.951  20.249  11.001
63128W        W35388  23.022  10.685   1.272
63129W        W35389   0.447  22.528   2.182
63130W        W35390  23.240  12.815   3.803
63131W        W35391  23.648  17.660  14.025
63132W        W35392  16.155  42.785  10.473
63133W        W35393  23.593  14.814   1.811
63134W        W35394   6.912  11.188   0.934
63135W        W35395  22.585   9.700   9.962
63136W        W35396   6.715  27.052   3.767
63137W        W35397  40.863  12.632  12.030
63138W        W35398  31.465   8.395   3.364
63139W        W35399  18.203  34.449   1.717
63140W        W35400  28.655   0.330  12.392
63141W        W35401  34.552  44.827   2.821
63142W        W35402  31.469  19.277  13.012
63143W        W35403  34.417  16.617  14.434
63144W        W35404  33.447  16.577  12.051
63145W        W35405  15.689  24.089  11.437
63146W        W35406  41.320  17.640   0.906
63147W        W35407   2.894   8.683   4.257
63148W        W35408  25.584  10.847  12.399
63149W        W35409   4.403  30.937  12.871
63150W        W35410  16.755  40.997   2.806
63151W        W35411  15.660  23.000   3.156
63152W        W35412  40.505  24.224   3.861
63153W        W35413  43.926   3.854   1.410
63154W        W35414  16.146  44.859  14.943
63155W        W35415  36.040  33.539  12.865
63156W        W35416  31.618  26.051  13.470
63157W        W35417  37.880  38.364   1.758
63158W        W35418  35.040  44.435   3.820
63159W        W35419  30.462   7.737  10.566
63160W        W35420  36.543  11.171   2.248
63161W        W35421  12.130  19.190   2.736
63162W        W35422  16.207   2.935   1.876
63163W        W35423  40.822   9.677  14.829
63164W        W35424  34.987  15.615   1.268
63165W        W35425  23.236  43.873   2.406
63166W        W35426  36.063  29.579  12.571
63167W        W35427  32.584   9.822  11.420
63168W        W35428  34.608   2.929   2.189
63169W        W35429  43.964  42.299   2.244
63170W        W35430  24.052   8.401   2.666
63171W        W35431   5.289  16.635  12.827
63172W        W35432  41.463  26.961  14.415
63173W        W35433  15.198  29.627  12.489
63174W        W35434   3.754  26.200  10.493
63175W        W35435  38.420   5.762  10.586
63176W        W35436  20.640   1.853   0.440
63177W        W35437  14.232  32.404  14.417
63178W        W35438  42.018  30.121   2.395
63179W        W35439  36.972  23.664  14.819
63180W        W35440   6.388  11.736   2.820
63181W        W35441  35.943  32.045   1.765
63182W        W35442  16.772  43.965  14.513
63183W        W35443  33.130  32.536  14.480
63184W        W35444  29.439   8.241   1.830
63185W        W35445   7.895   5.690  13.811
63186W        W35446  29.664  18.762   1.885
63187W        W35447  12.641  31.428  10.063
63188W        W35448  17.114  16.640  12.999
63189W        W35449  29.630  35.867   4.804
63190W        W35450   0.350  13.338   3.784
63191W        W35451  33.503  26.970  14.460
63192W        W35452   7.847  39.491   4.727
63193W        W35453   7.806   5.252   4.752
63194W        W35454  12.671   9.202  10.952
63195W        W35455  32.140  23.665  12.891
63196W        W35456  17.158  29.540  13.987
63197W        W35457  20.195  24.496   4.145
63198W        W35458  39.525  11.781   2.859
63199W        W35459  18.225  16.730  14.907
63200W        W35460  23.543   1.941  11.116
63201W        W35461  12.167  20.029  12.410
63202W        W35462  19.631  21.124   2.843
63203W        W35463  34.934  15.703  12.846
63204W        W35464  23.992  22.137   1.866
63205W        W35465  11.659  13.804   4.225
63206W        W35466  16.793  44.503  10.982
63207W        W35467  18.170   2.855  10.457
63208W        W35468  15.724  22.534  12.512
63209W        W35469  42.501  13.169  12.962
63210W        W35470   6.286  41.423   2.335
63211W        W35471   8.198  44.781   3.748
63212W        W35472  42.859  29.111   1.815
63213W        W35473  26.550   7.343   2.817
63214W        W35474  30.469  13.737   3.285
63215W        W35475  38.857  39.332   3.224
63216W        W35476  11.806  10.284   2.265
63217W        W35477   2.281  42.523  14.772
63218W        W35478  19.191  23.616  11.121
63219W        W35479  28.494  20.152  14.397
63220W        W35480  43.354  39.894  11.549
63221W        W35481  13.744  34.591   4.225
63222W        W35482  17.663   5.197   4.142
63223W        W35483   4.787  13.680  11.041
63224W        W35484   9.202  22.633   3.681
63225W        W35485  37.000  28.665  11.125
63226W        W35486   7.789   3.234   5.207
63227W        W35487  14.738   5.387  14.782
63228W        W35488  27.127  40.395   1.222
63229W        W35489  29.054   2.379  13.529
63230W        W35490  14.339   6.235   4.615
63231W        W35491  27.086  24.975  11.923
63232W        W35492  44.326   9.379  12.949
63233W        W35493  11.147  40.905   1.320
63234W        W35494  42.838   2.459  11.459
63235W        W35495  10.810   8.813   0.326
63236W        W35496  41.816  27.169   3.332
63237W        W35497  43.310  10.849   0.455
63238W        W35498  25.586  33.963   2.863
63239W        W35499   5.438   7.278   3.229
63240W        W35500  19.684  15.686  14.323
63241W        W35501   5.366  33.962  10.925
63242W        W35502   0.896  21.697   0.378
63243W        W35503  19.162  22.171   0.949
63244W        W35504  43.994  41.521   2.874
63245W        W35505   3.277  13.229  13.444
63246W        W35506   4.293  21.717   4.286
63247W        W35507  41.299  19.236  10.427
63248W        W35508  43.272   6.360  12.522
63249W        W35509   5.347  19.767   1.819
63250W        W35510  21.693   9.738   1.924
63251W        W35511  22.031  14.592  14.016
63252W        W35512  25.650  40.030  13.407
63253W        W35513  43.868  21.618  14.779
63254W        W35514   6.328  22.050   1.252
63255W        W35515  27.594  32.634   9.452
63256W        W35516  20.525  22.086  11.520
63257W        W35517  43.986   7.837   2.203
63258W        W35518  18.667  21.567   3.338
63259W        W35519  23.169  29.477  11.097
63260W        W35520   6.366  32.602  14.900
63261W        W35521   6.862  36.959  11.947
63262W        W35522  34.105  20.653  12.878
63263W        W35523  20.531  25.041  10.428
63264W        W35524  15.221   7.236   3.864
63265W        W35525  44.920  44.866  12.825
63266W        W35526  11.236  29.131   4.627
63267W        W35527  26.126  10.756   2.695
63268W        W35528   2.782  12.295  10.942
63269W        W35529  26.499  13.709   4.679
63270W        W35530  36.424   3.771  14.030
63271W        W35531   4.436  40.036  12.524
63272W        W35532   2.809  37.048   3.326
63273W        W35533  40.803  32.409   3.269
63274W        W35534  32.541  18.119  10.621
63275W        W35535  10.209  29.614   4.214
63276W        W35536  43.303   7.274   0.455
63277W        W35537  13.124  21.064  10.411
63278W        W35538  36.066   1.241  14.844
63279W        W35539   9.351  33.904   4.636
63280W        W35540  35.362  42.387   1.299
63281W        W35541  43.006  20.106   0.853
63282W        W35542   6.784   8.856  14.795
63283W        W35543  28.108  23.508  10.935
63284W        W35544   4.385  34.975   0.455
63285W        W35545   6.310  37.445   2.207
63286W        W35546  37.970  28.088  12.450
63287W        W35547  37.083  42.999   4.285
63288W        W35548  44.471  15.196  12.489
63289W        W35549  33.071   9.769  10.537
63290W        W35550  29.665  13.663  13.924
63291W        W35551  33.461  10.245  11.984
63292W        W35552  43.439  30.449  11.529
63293W        W35553  31.931  12.775   1.255
63294W        W35554  10.212  32.512   4.826
63295W        W35555  24.218  30.157   0.411
63296W        W35556  10.336  42.364   3.645
63297W        W35557  33.888  24.221   3.235
63298W        W35558  28.174   0.313   1.872
63299W        W35559  40.977  24.628  13.049
63300W        W35560   2.821  42.969   1.787
63301W        W35561  36.444  11.735   3.264
63302W        W35562   5.809  41.430  14.491
63303W        W35563  18.068  13.652   3.154
63304W        W35564  42.391  16.236   2.675
63305W        W35565   6.384  21.741  12.092
63306W        W35566  17.205  11.337   0.903
63307W        W35567  28.570  18.174  10.504
63308W        W35568  19.062  31.960  14.493
63309W        W35569  30.017  30.074   4.268
63310W        W35570  22.030   2.281   0.919
63311W        W35571  39.034  41.978  12.928
63312W        W35572  19.779   8.781   3.710
63313W        W35573  31.001  44.470  10.046
63314W        W35574  43.365  21.534  10.619
63315W        W35575  13.740   2.848  12.472
63316W        W35576   5.824  30.504  13.792
63317W        W35577  14.211  43.845   4.603
63318W        W35578   5.239  33.591  13.325
63319W        W35579  27.621   8.338  10.571
63320W        W35580  23.069   6.860   4.261
63321W        W35581  26.558  40.327   4.160
63322W        W35582  39.868  44.481   3.680
63323W        W35583   3.831  41.400  12.481
63324W        W35584  16.245  42.377   1.781
63325W        W35585  11.700  14.194  10.935
63326W        W35586  23.080  13.302   2.810
63327W        W35587  31.514   0.411  11.471
63328W        W35588  18.156  19.235  14.814
63329W        W35589   0.870  36.593  10.605
63330W        W35590   7.342  31.440   1.862
63331W        W35591   7.327  14.178  12.016
63332W        W35592   4.427  44.358  10.533
63333W        W35593  41.528  36.846  14.388
63334W        W35594  16.791  11.189   0.932
63335W        W35595  26.122  40.021  12.061
63336W        W35596  23.173  33.933  10.949
63337W        W35597  35.085   5.884  12.564
63338W        W35598  22.161   9.215   4.749
63339W        W35599  32.899  37.933  14.857
63340W        W35600  17.188  36.080   0.828
63341W        W35601   5.763  24.651   4.639
63342W        W35602  37.405   2.407  13.358
63343W        W35603  11.247  18.674   2.279
63344W        W35604   5.905  24.018   0.276
63345W        W35605  41.993  29.152   2.706
63346W        W35606   0.358  38.997   3.812
63347W        W35607  12.268  11.338   1.719
63348W        W35608  21.612  41.044   1.226
63349W        W35609   8.800   3.453  11.073
63350W        W35610   8.377  34.100   2.751
63351W        W35611  35.446  20.178   0.357
63352W        W35612  22.666  21.240   3.850
63353W        W35613  43.876   4.396   4.311
63354W        W35614  29.985  38.841   3.183
63355W        W35615  19.100  25.172   1.285
63356W        W35616  26.499  27.062  11.518
63357W        W35617  36.531   3.409   4.184
63358W        W35618   0.876  38.543  12.944
63359W        W35619  21.539  25.988   9.452
63360W        W35620  11.225  12.799  12.532
63361W        W35621  20.125  22.553  11.080
63362W        W35622  11.157  34.496  11.069
63363W        W35623  10.383  18.630  14.977
63364W        W35624  12.123  34.028  12.913
63365W        W35625  36.858  37.346   0.475
63366W        W35626  39.039   0.907   2.365
63367W        W35627  21.614  42.316  11.989
63368W        W35628   1.300   4.379  12.928
63369W        W35629   3.709  21.557  14.934
63370W        W35630   5.738   3.768   3.647
63371W        W35631  37.999  23.075   4.123
63372W        W35632  24.137  28.085  12.508
63373W        W35633  43.001   4.417  13.390
63374W        W35634  34.412  25.044  14.786
63375W        W35635  17.133  15.242   2.194
63376W        W35636  21.518  16.745  13.014
63377W        W35637   4.317   3.872   3.299
63378W        W35638  28.580  16.710   2.704
63379W        W35639  17.265  22.158  11.957
63380W        W35640  34.535  19.270   4.174
63381W        W35641  10.737  15.752  10.585
63382W        W35642   2.322  43.989  13.859
63383W        W35643  31.616   6.865   0.834
63384W        W35644  10.367   3.307   9.937
63385W        W35645  17.569  16.657  13.892
63386W        W35646  24.512  20.234  12.567
63387W        W35647  20.116  41.888   4.324
63388W        W35648  26.461  22.707   1.712
63389W        W35649  22.229  24.143  12.389
63390W        W35650   6.895  25.596  14.995
63391W        W35651  39.548  34.104   1.761
63392W        W35652  42.977  12.692  14.319
63393W        W35653   0.335  10.367   1.762
63394W        W35654  19.691  18.718  10.486
63395W        W35655  28.016  17.630   2.389
63396W        W35656  28.978   7.252  12.989
63397W        W35657  44.468  39.326  11.481
63398W        W35658  33.593  10.248   4.692
63399W        W35659  14.615   7.292   1.885
63400W        W35660  25.204  25.488   3.684
63401W        W35661   1.273  43.987  10.455
63402W        W35662   3.857  11.622  12.081
63403W        W35663  40.481  31.966   4.137
63404W        W35664   4.819  31.957   5.086
63405W        W35665  30.508   6.344   1.343
63406W        W35666  24.132  11.189  12.379
63407W        W35667  17.741  41.840   3.151
63408W        W35668   5.870   1.765  11.866
63409W        W35669  26.501   5.732  13.053
63410W        W35670   9.199   8.862   3.649
63411W        W35671  11.327  32.983  12.867
63412W        W35672  44.850  23.060   0.866
63413W        W35673   7.767  13.719  11.954
63414W        W35674  19.184  30.008   1.840
63415W        W35675  44.828  35.482   4.329
63416W        W35676   0.744  18.645  14.836
63417W        W35677  13.211  37.999   1.404
63418W        W35678  17.113  29.014  10.408
63419W        W35679  32.545  27.032   3.802
63420W        W35680  20.048  18.154  14.463
63421W        W35681  25.500   0.952   4.648
63422W        W35682  14.268  12.661  10.981
63423W        W35683  24.216  42.952  12.037
63424W        W35684  41.414  41.847  12.378
63425W        W35685  24.035  38.337   2.893
63426W        W35686  43.955  43.305   0.864
63427W        W35687  30.152  18.660  13.455
63428W        W35688  21.068  21.097  14.373
63429W        W35689  24.116  31.092   2.883
63430W        W35690   2.270  30.611  10.078
63431W        W35691  37.441  40.507   4.136
63432W        W35692  24.170  20.599   4.172
63433W        W35693  40.901  26.048  10.541
63434W        W35694  23.197  11.333   0.403
63435W        W35695  39.994  17.250   0.247
63436W        W35696  14.299  18.651   4.761
63437W        W35697  43.359  19.626  10.971
63438W        W35698  11.632   8.368  13.916
63439W        W35699  40.504  28.931  10.633
63440W        W35700  33.573  20.671  12.877
63441W        W35701  30.597  38.503  14.917
63442W        W35702  12.759  35.488   0.880
63443W        W35703   0.326   2.282  13.508
63444W        W35704  44.342   0.286   0.379
63445W        W35705  10.808  10.311  11.606
63446W        W35706  44.323  12.226   3.369
63447W        W35707   7.667  32.114   2.705
63448W        W35708   4.831   7.265  13.451
63449W        W35709   1.774  16.181   3.205
63450W        W35710  39.478   6.295  14.775
63451W        W35711   0.428  39.061  10.909
63452W        W35712   7.241  11.810  11.372
63453W        W35713   1.814  12.303  14.870
63454W        W35714  31.457  30.447   4.320
63455W        W35715  20.711   5.879   5.107
63456W        W35716  26.978  37.368   4.716
63457W        W35717  21.561  42.511   0.922
63458W        W35718  10.215  40.454  13.322
63459W        W35719  38.040  10.258   1.406
63460W        W35720  24.596   0.748  12.459
63461W        W35721  38.913  36.892  12.561
63462W        W35722  44.836  21.172   3.236
63463W        W35723   3.949  33.044  12.576
63464W        W35724  28.472  13.821  14.440
63465W        W35725   0.403  40.822  10.619
63466W        W35726  38.455   6.216   3.161
63467W        W35727  16.637  23.556   1.809
63468W        W35728  28.671   6.869  10.626
63469W        W35729  10.220  25.024   2.698
63470W        W35730  19.618   5.922   1.902
63471W        W35731  24.038  17.572   3.644
63472W        W35732  25.567  22.187   0.748
63473W        W35733   3.300  10.220  12.856
63474W        W35734  26.953  15.188   0.290
63475W        W35735  23.205  35.861  12.922
63476W        W35736  21.547  16.174  13.400
63477W        W35737  28.490  24.503   0.402
63478W        W35738  42.999  26.084  13.313
63479W        W35739  26.078   7.811   0.760
63480W        W35740   2.723  20.105  12.981
63481W        W35741  23.027  32.456   0.853
63482W        W35742   9.196  11.698   3.811
63483W        W35743  18.149  16.202   4.678
63484W        W35744   6.341  40.852  13.347
63485W        W35745  23.702  30.964  13.041
63486W        W35746   1.385  29.501   4.659
63487W        W35747  38.384  18.732   0.887
63488W        W35748  36.883  29.496  14.014
63489W        W35749   8.401  37.926  11.600
63490W        W35750  28.459  39.888   0.317
63491W        W35751  11.238  16.284  12.367
63492W        W35752  12.783  33.415  10.938
63493W        W35753   2.402  36.380   4.271
63494W        W35754  33.421  13.140  14.887
63495W        W35755   7.171  34.946   2.696
63496W        W35756  18.174  12.664  13.880
63497W        W35757  35.939   6.833  11.516
63498W        W35758  29.117   2.890   0.316
63499W        W35759  11.275  32.465  13.818
63500W        W35760  29.102  24.220   2.202
63501W        W35761  16.786   5.781   1.375
63502W        W35762  39.974  44.425   3.375
63503W        W35763  24.183  36.888   3.759
63504W        W35764  26.584  27.141   3.769
63505W        W35765  32.393   3.444   3.808
63506W        W35766  43.353  27.683  14.503
63507W        W35767  23.111  26.506   4.281
63508W        W35768  10.795   9.714   1.374
63509W        W35769  41.334  43.821  13.414
63510W        W35770  25.617  44.789   1.293
63511W        W35771   8.385   8.871  12.466
63512W        W35772  44.842   3.836  13.491
63513W        W35773   1.824  42.389   3.866
63514W        W35774  17.182  21.758   4.611
63515W        W35775  23.130  14.287   2.728
63516W        W35776  32.625  15.634  13.836
63517W        W35777  33.982  36.970   3.344
63518W        W35778  30.109  21.154  13.339
63519W        W35779  24.082  19.587  11.467
63520W        W35780  28.963  14.694   3.198
63521W        W35781  35.573   2.300   4.349
63522W        W35782  12.736  29.481   2.795
63523W        W35783  36.947  30.489   4.339
63524W        W35784   4.419  37.835  14.890
63525W        W35785   4.448  21.756   2.854
63526W        W35786  20.077  35.442   2.869
63527W        W35787   6.274  29.434   4.694
63528W        W35788  42.899   6.819  14.778
63529W        W35789  12.196   4.385  11.894
63530W        W35790   9.879  24.635   4.303
63531W        W35791  11.719  30.527   1.736
63532W        W35792  12.776  31.083   0.381
63533W        W35793  32.904   0.273  14.364
63534W        W35794   7.847  35.005  13.479
63535W        W35795  17.105  40.043   4.811
63536W        W35796  24.659   4.726  13.002
63537W        W35797  34.989  12.665   5.211
63538W        W35798  25.657   6.864  10.539
63539W        W35799   5.370  31.497  13.478
63540W        W35800  22.631  26.522  12.004
63541W        W35801  15.306  37.058   1.815
63542W        W35802   2.430   8.376  12.841
63543W        W35803  41.492   1.298   1.387
63544W        W35804   1.254   7.705   3.284
63545W        W35805  31.914  44.288   0.483
63546W        W35806   3.386  25.604  11.032
63547W        W35807  31.050  43.955  10.502
63548W        W35808  16.149  19.539  11.513
63549W        W35809  35.104   3.739  13.930
63550W        W35810  15.218  20.582   0.298
63551W        W35811  24.079  35.497  12.364
63552W        W35812   4.277  22.657   2.798
63553W        W35813   6.718   6.371   2.727
63554W        W35814   3.887  24.124   3.829
63555W        W35815  16.569  27.117  12.932
63556W        W35816  13.623  37.916  13.410
63557W        W35817  41.999  38.932  12.003
63558W        W35818  19.621  35.431  11.109
63559W        W35819  38.985   9.837   5.111
63560W        W35820  40.019   5.932   2.733
63561W        W35821  43.814   5.868  14.470
63562W        W35822  37.980  39.397   1.331
63563W        W35823   3.948  39.459   1.418
63564W        W35824  28.466   2.425  14.419
63565W        W35825  20.096   5.228  11.523
63566W        W35826   4.756  44.760  11.076
63567W        W35827   1.441   0.453   0.477
63568W        W35828   6.843  10.249  12.344
63569W        W35829  12.130  43.472   0.877
63570W        W35830   5.840  25.206  11.936
63571W        W35831  12.165  29.113  12.884
63572W        W35832  28.515  27.568  14.302
63573W        W35833  17.707  25.002  14.333
63574W        W35834  13.247  14.320   9.970
63575W        W35835   2.239   7.180   2.385
63576W        W35836  31.144  37.037   4.353
63577W        W35837  42.965  30.470  10.044
63578W        W35838  32.967  12.663  13.945
63579W        W35839  24.657  12.168   3.721
63580W        W35840  29.597  38.009   0.404
63581W        W35841  38.541   5.349  11.439
63582W        W35842  31.625  28.001   2.367
63583W        W35843  24.159  18.565  14.893
63584W        W35844   7.256  23.615  10.896
63585W        W35845  21.529  20.662  14.807
63586W        W35846   0.321  39.544  12.437
63587W        W35847   6.882  18.111   4.674
63588W        W35848  17.648  19.098  13.801
63589W        W35849   4.227  20.254  12.506
63590W        W35850  26.655   5.721   3.743
63591W        W35851  33.531  19.261   9.992
63592W        W35852   8.695  11.833  14.472
63593W        W35853  13.298   6.213  12.506
63594W        W35854   2.742  22.731   1.923
63595W        W35855  41.980  13.294  11.952
63596W        W35856  27.483  13.105   3.360
63597W        W35857  18.126   6.408  14.395
63598W        W35858   1.878   2.236   0.391
63599W        W35859  40.310  23.149   3.673
63600W        W35860  38.029  15.690   2.898
63601W        W35861  29.434  44.818   3.180
63602W        W35862  30.608   9.809  13.029
63603W        W35863  26.188  43.274   1.387
63604W        W35864  43.021  38.481   2.668
63605W        W35865  19.234  37.461   4.698
63606W        W35866   1.846  17.755  11.958
63607W        W35867  16.191  14.145   0.769
63608W        W35868  20.233  14.139   1.766
63609W        W35869  14.686  20.562   1.357
63610W        W35870  10.678  33.950   1.913
63611W        W35871  20.247  41.976   3.210
63612W        W35872   4.711  27.079   0.827
63613W        W35873  39.972  23.723  14.891
63614W        W35874   1.895  31.638  13.989
63615W        W35875  31.127  29.962  12.033
63616W        W35876   4.298  12.697   4.693
63617W        W35877   6.891  37.395   4.345
63618W        W35878  12.243   9.889  10.427
63619W        W35879  16.132  35.552   0.768
63620W        W35880   5.398  32.985  10.960
63621W        W35881   3.948  11.773   1.845
63622W        W35882  22.102  24.041  14.287
63623W        W35883   0.371  14.103   0.781
63624W        W35884  10.165  29.050  11.109
63625W        W35885  11.160   4.727   0.780
63626W        W35886  21.578   2.281   0.872
63627W        W35887  38.828  26.119  12.889
63628W        W35888  25.124  26.651  13.059
63629W        W35889  25.219  42.957  13.474
63630W        W35890  41.296   7.340  12.891
63631W        W35891   5.350   2.442   3.334
63632W        W35892  31.609  34.064   0.276
63633W        W35893  22.077   8.405  10.891
63634W        W35894  42.286   9.353   4.761
63635W        W35895  32.955  17.570   0.771
63636W        W35896  20.683   9.153  11.422
63637W        W35897  24.488  14.287  10.934
63638W        W35898  28.665  13.323  12.861
63639W        W35899  37.871  31.930  10.470
63640W        W35900  14.829  32.565  13.945
63641W        W35901  15.822  43.331  13.025
63642W        W35902  20.157  14.665   4.700
63643W        W35903  12.166  13.666  12.540
63644W        W35904  21.661  23.712   1.854
63645W        W35905  32.391  42.281   0.422
63646W        W35906  11.265  21.176   4.206
63647W        W35907  13.335  13.795  14.430
63648W        W35908  30.612  25.188  13.033
63649W        W35909   8.284  12.647  10.606
63650W        W35910  38.848  30.155  12.945
63651W        W35911   1.735  15.660   1.790
63652W        W35912  22.647  18.216  11.556
63653W        W35913  32.450   7.796   0.759
63654W        W35914  25.185  43.771  11.594
63655W        W35915  26.999  19.130  12.863
63656W        W35916   7.881  36.078   2.724
63657W        W35917   8.692  11.222   2.257
63658W        W35918  33.989  40.307  11.518
63659W        W35919  41.436  28.025  13.405
63660W        W35920   8.782  12.786   4.682
63661W        W35921  27.673   4.783   3.781
63662W        W35922   8.292  17.589  13.358
63663W        W35923  14.167  23.172   0.897
63664W        W35924  45.000  20.608   2.705
63665W        W35925  27.112  37.866  10.998
63666W        W35926  16.603  34.078  11.471
63667W        W35927  22.054  12.805   3.679
63668W        W35928  43.931   4.274  13.839
63669W        W35929   1.851   3.885   4.144
63670W        W35930  37.394  43.951  13.859
63671W        W35931  26.079  19.663   4.706
63672W        W35932  25.467  42.823  14.837
63673W        W35933   0.376  25.990  14.823
63674W        W35934  12.714  19.166   4.764
63675W        W35935   4.302   0.940   1.862
63676W        W35936   1.285  29.432  13.494
63677W        W35937  12.749  32.984   2.851
63678W        W35938  13.751  29.049  12.377
63679W        W35939  43.421  22.543  13.439
63680W        W35940  30.056  26.667  12.502
63681W        W35941  15.144   1.368  11.479
63682W        W35942   2.400  44.286  13.326
63683W        W35943  36.091   9.387   0.778
63684W        W35944   0.790   9.239  10.408
63685W        W35945  27.029   3.812  13.402
63686W        W35946  18.776  14.232  12.081
63687W        W35947   6.422  15.162   1.414
63688W        W35948  23.009  16.672  11.394
63689W        W35949  13.835   4.355   1.249
63690W        W35950  41.883   2.253  13.332
63691W        W35951  11.187  39.822   2.744
63692W        W35952  25.561  39.967  10.420
63693W        W35953  38.348   3.948   1.275
63694W        W35954  25.060  34.899   0.844
63695W        W35955  11.319  15.625   0.839
63696W        W35956  42.813  39.024  10.429
63697W        W35957  14.801  32.409   0.291
63698W        W35958  29.653  13.815   4.172
63699W        W35959  36.863  37.854   1.437
63700W        W35960  31.460   8.772  13.538
63701W        W35961  44.296  44.995   1.309
63702W        W35962   6.400   1.483   2.342
63703W        W35963  27.677  31.017  13.434
63704W        W35964  32.459   4.916   0.351
63705W        W35965  37.448   4.831   2.834
63706W        W35966  24.554   0.788  14.363
63707W        W35967  12.243   8.835   2.277
63708W        W35968  28.646  16.634   4.771
63709W        W35969  23.136  30.045   0.374
63710W        W35970  28.165  40.048   2.334
63711W        W35971  16.184  41.897  10.591
63712W        W35972   7.849  38.537  13.964
63713W        W35973   8.383  10.686  13.396
63714W        W35974  20.604  16.671  10.501
63715W        W35975  31.612  28.119  13.462
63716W        W35976  22.241   5.422   1.916
63717W        W35977   2.363  20.727  11.924
63718W        W35978  31.522  30.028  14.007
63719W        W35979   0.430  21.026  11.523
63720W        W35980   1.930  42.402  11.876
63721W        W35981  27.962  13.317  11.881
63722W        W35982  13.342  14.812   1.926
63723W        W35983   7.908   2.760   2.218
63724W        W35984  36.860  20.120  11.913
63725W        W35985  27.673   0.980   4.353
63726W        W35986   3.311   6.286   3.630
63727W        W35987  38.070  14.663   2.665
63728W        W35988   4.321   4.279  14.278
63729W        W35989  36.363  39.551  11.385
63730W        W35990  17.114  38.895   5.311
63731W        W35991  36.036  36.017  10.430
63732W        W35992  30.594  18.052  13.920
63733W        W35993  16.739   7.702   2.783
63734W        W35994  12.241  27.014   2.689
63735W        W35995  21.047  25.026   3.663
63736W        W35996  39.873  40.944  14.012
63737W        W35997  32.980   9.383   4.800
63738W        W35998  16.160  24.500   4.615
63739W        W35999   5.386   5.827   2.322
63740W        W36000  16.211   9.678  12.828
63741W        W36001   0.311  32.131   0.323
63742W        W36002  29.983  36.383   2.663
63743W        W36003  42.463  32.118  14.484
63744W        W36004  37.554  24.163  10.948
63745W        W36005  24.083   1.832   4.705
63746W        W36006  37.570  18.267  10.083
63747W        W36007  12.308  24.064  14.007
63748W        W36008  10.266  44.331  11.530
63749W        W36009  16.753  44.841   0.442
63750W        W36010  39.403   5.439   4.291
63751W        W36011  37.961   0.765   2.875
63752W        W36012  20.531   8.255   2.188
63753W        W36013  21.017  32.916   4.120
63754W        W36014  26.997   3.290  13.973
63755W        W36015  24.980  17.245  11.596
63756W        W36016  33.597  30.602  14.824
63757W        W36017  31.092  37.075   0.740
63758W        W36018  42.827  37.448   1.300
63759W        W36019  16.692   8.900  14.774
63760W        W36020  18.773   3.298   4.155
63761W        W36021  12.317  11.692  10.618
63762W        W36022   4.246   7.884   0.947
63763W        W36023  35.386  25.579  14.848
63764W        W36024  42.778  18.682  12.503
63765W        W36025  12.219  27.112  14.905
63766W        W36026   9.687   1.786   3.793
63767W        W36027  31.928  43.355   2.326
63768W        W36028  26.520  16.082  13.517
63769W        W36029  10.674  21.244   1.809
63770W        W36030  33.922  26.647   0.367
63771W        W36031   6.251  42.302  12.511
63772W        W36032   6.683  28.506   9.614
63773W        W36033   4.374  37.431   1.420
63774W        W36034  40.473   0.788  11.443
63775W        W36035  25.147  16.638   0.799
63776W        W36036  36.939  29.541   4.166
63777W        W36037  40.863  30.642  14.989
63778W        W36038  33.966  43.851  11.436
63779W        W36039  27.156  25.655   0.954
63780W        W36040  13.329   5.719  13.929
63781W        W36041  20.077  42.919  12.486
63782W        W36042  44.290  42.801  11.386
63783W        W36043  23.195   7.728  13.500
63784W        W36044  31.480  20.627   1.375
63785W        W36045  24.572  20.129  12.077
63786W        W36046   6.236  33.394   5.102
63787W        W36047   6.907  26.995   1.362
63788W        W36048  41.358  28.945   4.232
63789W        W36049  24.632  21.092   0.396
63790W        W36050  21.046  40.320  14.762
63791W        W36051   6.197   5.207   2.707
63792W        W36052  36.016  30.640   0.348
63793W        W36053  23.541  23.523   4.354
63794W        W36054  13.242  28.982  10.597
63795W        W36055  43.405  34.956  13.368
63796W        W36056   8.180  16.299  11.023
63797W        W36057  36.065  18.592   1.406
63798W        W36058  32.982  33.022  14.342
63799W        W36059   8.227  37.579  11.926
63800W        W36060   5.213  21.185  10.103
63801W        W36061  38.844  25.648   0.450
63802W        W36062  43.874  23.127  12.438
63803W        W36063  37.946  32.043   4.700
63804W        W36064  34.894  41.524   3.631
63805W        W36065  11.328  33.898   4.278
63806W        W36066  30.621   2.810  11.421
63807W        W36067  24.631   5.369   1.425
63808W        W36068  36.071  38.821   3.704
63809W        W36069   4.385  41.302  13.961
63810W        W36070  18.296  44.767  11.540
63811W        W36071  16.271  43.939   3.633
63812W        W36072  19.138  28.976   2.374
63813W        W36073  17.139  17.193  14.944
63814W        W36074  31.550  23.235   3.229
63815W        W36075  12.724  28.162  11.520
63816W        W36076  24.159  31.119  11.089
63817W        W36077  12.198  18.651   1.298
63818W        W36078  21.258  38.512   4.352
63819W        W36079  13.820  16.789   0.400
63820W        W36080  14.714  32.619   3.865
63821W        W36081  23.070  42.332   1.888
63822W        W36082  36.869  16.158   4.807
63823W        W36083  26.654  43.859   3.351
63824W        W36084  29.517  12.317   2.702
63825W        W36085  42.428  22.580  11.529
63826W        W36086  25.191   0.278  13.923
63827W        W36087  38.380  30.029   1.357
63828W        W36088  22.541  33.511  13.322
63829W        W36089   3.741  28.152   1.366
63830W        W36090   3.939  18.773  14.810
63831W        W36091  18.073   8.700  14.394
63832W        W36092  33.127  42.864   4.682
63833W        W36093  13.156  29.121  10.898
63834W        W36094  40.940   5.390   0.745
63835W        W36095  36.963  27.049  12.934
63836W        W36096  20.596  37.066   2.743
63837W        W36097  12.306   8.204   1.730
63838W        W36098  36.921   9.673   2.816
63839W        W36099  13.168  44.810  13.530
63840W        W36100  34.579   8.404   2.719
63841W        W36101  21.571  41.328  10.942
63842W        W36102  42.836   9.340   0.252
63843W        W36103  28.988  14.639  14.277
63844W        W36104  10.689  10.351   4.721
63845W        W36105  17.686  27.187  10.478
63846W        W36106   8.374  29.545  12.492
63847W        W36107   4.248  33.958   2.829
63848W        W36108   4.836  37.015  12.514
63849W        W36109  17.773  43.819  13.504
63850W        W36110  22.117  26.130  14.494
63851W        W36111  35.967  14.752   0.293
63852W        W36112  31.999  34.463  13.463
63853W        W36113   4.819  41.363   3.216
63854W        W36114   7.868  32.914  12.839
63855W        W36115  35.539  35.961   0.847
63856W        W36116  38.430  26.010   0.362
63857W        W36117  24.590  39.528   4.801
63858W        W36118  43.430  25.655   4.325
63859W        W36119  13.771  24.691   1.771
63860W        W36120  32.616  23.653   1.433
63861W        W36121  25.965  14.712   1.914
63862W        W36122   9.699  28.016   4.737
63863W        W36123  12.642  17.227   2.264
63864W        W36124  31.133  42.862  13.308
63865W        W36125  14.253  15.224  11.956
63866W        W36126   3.278   0.879   0.260
63867W        W36127  16.263  19.540  10.634
63868W        W36128  39.481  24.060   2.668
63869W        W36129  25.472  20.734   2.728
63870W        W36130  38.324   8.241   1.721
63871W        W36131   3.712   7.387  12.501
63872W        W36132  40.323   6.896  11.891
63873W        W36133  23.715  18.641   1.856
63874W        W36134   1.914   1.346  12.055
63875W        W36135  13.699  34.384  14.426
63876W        W36136  27.151  14.287  14.373
63877W        W36137  27.122  39.509  10.079
63878W        W36138  33.434  25.152   5.261
63879W        W36139  27.981  15.577   3.650
63880W        W36140  17.111   7.253  11.090
63881W        W36141  13.681   0.446  12.561
63882W        W36142  34.557  38.415  14.429
63883W        W36143  41.863  27.458   4.695
63884W        W36144  30.558  17.676  13.801
63885W        W36145  23.670   9.665  10.563
63886W        W36146   8.700   9.237   0.399
63887W        W36147  42.405  38.063  11.444
63888W        W36148   2.800  27.620  11.961
63889W        W36149  25.026   7.379  12.857
63890W        W36150  40.043  38.537  12.939
63891W        W36151  39.477  39.447  11.087
63892W        W36152  27.093  17.744  13.811
63893W        W36153  30.554  31.950   1.307
63894W        W36154  38.400  28.040   2.710
63895W        W36155  21.642  19.144   5.224
63896W        W36156  32.611  19.588  13.443
63897W        W36157  30.413  13.284  10.967
63898W        W36158  43.449  11.180  14.463
63899W        W36159  15.601   8.399   1.293
63900W        W36160  26.190  12.263  12.346
63901W        W36161   4.326  16.226  12.057
63902W        W36162  35.395  40.483   4.744
63903W        W36163  33.109  34.417  14.920
63904W        W36164  25.506  26.047   2.788
63905W        W36165  12.722  32.498  10.612
63906W        W36166  22.030  10.283  10.554
63907W        W36167  19.258  35.963  13.963
63908W        W36168  23.106  16.731   3.167
63909W        W36169   8.384   5.722  11.483
63910W        W36170   9.678  20.238  14.803
63911W        W36171  28.152  15.200   1.342
63912W        W36172  20.063  19.610  10.405
63913W        W36173  36.504  20.693  10.540
63914W        W36174   6.386  21.075   3.351
63915W        W36175  44.845  40.051  13.353
63916W        W36176  14.647  44.318   0.414
63917W        W36177  25.015  40.373   4.192
63918W        W36178  24.686   8.239   2.772
63919W        W36179  33.036  34.943   1.930
63920W        W36180  25.128   5.892   3.744
63921W        W36181  37.993  27.553  13.065
63922W        W36182  14.640  10.361  10.916
63923W        W36183  42.952  22.729  14.849
63924W        W36184  43.300  39.365  12.070
63925W        W36185   3.754  10.773   3.227
63926W        W36186  29.091   5.229   1.311
63927W        W36187  29.052   6.850   2.192
63928W        W36188  18.580   2.359   3.778
63929W        W36189  21.751   0.788  12.023
63930W        W36190  38.987  15.594  13.414
63931W        W36191  34.893  32.595  10.635
63932W        W36192  29.580  23.092   0.418
63933W        W36193  14.306   5.850  12.530
63934W        W36194  17.713  30.041   3.822
63935W        W36195   1.354  42.996   3.374
63936W        W36196  13.706  10.660  14.840
63937W        W36197   4.726  34.518   3.182
63938W        W36198  37.918  23.652   4.604
63939W        W36199   3.286  14.770   0.797
63940W        W36200  28.040  40.381  13.541
63941W        W36201   7.267   0.319  12.470
63942W        W36202  36.864  25.118   3.779
63943W        W36203   8.715  20.073   0.792
63944W        W36204  25.183  38.006  12.419
63945W        W36205  38.430   1.854   1.325
63946W        W36206   4.759   9.804   4.751
63947W        W36207  15.217   8.354   2.896
63948W        W36208   4.380   7.343   2.193
63949W        W36209   2.913  36.569  14.348
63950W        W36210  33.909  21.177   4.205
63951W        W36211  40.494  16.699  10.955
63952W        W36212  25.972  40.387  10.558
63953W        W36213  41.510   9.345  14.909
63954W        W36214  37.537   8.199   3.744
63955W        W36215  10.255  44.390   0.846
63956W        W36216   1.286  26.703  10.415
63957W        W36217  43.355   7.669   1.340
63958W        W36218  12.688  26.527   3.380
63959W        W36219  16.112   1.835   0.799
63960W        W36220   4.226  15.597   4.290
63961W        W36221  22.132  35.897  11.010
63962W        W36222  31.460   4.204  12.442
63963W        W36223   5.882   0.795  11.899
63964W        W36224  20.691  26.553  11.463
63965W        W36225  14.206  32.050   3.777
63966W        W36226  33.589  29.059   2.193
63967W        W36227  42.965  30.497  12.340
63968W        W36228  10.207  27.108  14.844
63969W        W36229  29.495  32.073  13.343
63970W        W36230   5.805  37.944   4.782
63971W        W36231  13.324   5.758   1.868
63972W        W36232  17.253  27.969  12.451
63973W        W36233  33.475  33.946  14.945
63974W        W36234  25.108  42.342  13.372
63975W        W36235  43.283  32.456   3.725
63976W        W36236   4.415  34.947   4.767
63977W        W36237   2.893  14.300  13.923
63978W        W36238  43.285  41.864   0.777
63979W        W36239  38.549  24.496  14.387
63980W        W36240   9.207  30.021   1.757
63981W        W36241  25.210  26.480   4.336
63982W        W36242  21.073  16.289  12.909
63983W        W36243  28.650  34.969  14.900
63984W        W36244  18.616   7.349  10.114
63985W        W36245  27.985   5.748   4.723
63986W        W36246  16.812  38.887  13.801
63987W        W36247  16.710  42.904   5.256
63988W        W36248  32.095  36.098  12.859
63989W        W36249  16.661  35.871  14.467
63990W        W36250  21.239  22.022  10.592
63991W        W36251   9.167  16.762   3.767
63992W        W36252  34.454  28.184   1.416
63993W        W36253  38.964  38.905   0.366
63994W        W36254   4.889  33.525  10.987
63995W        W36255  34.090  36.413   0.285
63996W        W36256  32.943  30.586   3.364
63997W        W36257  30.521  44.368   5.140
63998W        W36258  43.371  22.723  14.929
63999W        W36259   3.279   9.320   0.470
64000W        W36260  30.934  21.062  12.872
64001W        W36261  41.897  43.985  11.425
64002W        W36262   3.337  19.108  13.960
64003W        W36263   8.184  12.641  13.823
64004W        W36264  26.102  22.561   1.246
64005W        W36265  16.311  22.515   0.392
64006W        W36266  35.555  18.687  14.440
64007W        W36267   1.777  15.736   1.407
64008W        W36268   7.368  35.515   3.736
64009W        W36269   3.857  15.659   3.335
64010W        W36270  39.025  13.843   3.374
64011W        W36271  38.565  38.382  11.992
64012W        W36272  12.134  14.751   1.912
64013W        W36273  22.201  41.026   1.249
64014W        W36274  31.555   3.930   2.811
64015W        W36275  32.579  30.447   0.457
64016W        W36276  10.871   3.860   1.368
64017W        W36277   4.847  27.679  14.404
64018W        W36278   5.247  24.603  11.901
64019W        W36279  39.857  22.218   0.350
64020W        W36280   4.234  14.765  14.901
64021W        W36281   9.345  41.853  14.294
64022W        W36282  44.340  25.059   0.862
64023W        W36283  16.789  40.479  14.850
64024W        W36284  20.124  23.584  12.537
64025W        W36285   6.250  42.822  10.039
64026W        W36286  40.849  33.539   4.600
64027W        W36287   4.235  21.214   2.894
64028W        W36288  11.707  32.508  10.626
64029W        W36289  25.038  12.807  12.823
64030W        W36290  27.026  38.536   4.740
64031W        W36291  14.810   1.801   1.339
64032W        W36292  29.555  24.693   0.959
64033W        W36293  38.491   7.907  14.796
64034W        W36294  23.211  26.134   3.312
64035W        W36295  17.243   0.391  14.277
64036W        W36296   0.783  38.003  11.503
64037W        W36297  16.283   7.763  12.913
64038W        W36298   0.923  24.657   2.402
64039W        W36299  20.610  34.988   2.740
64040W        W36300  32.108  22.008   4.335
64041W        W36301  26.097  29.617  13.914
64042W        W36302  35.585  11.331   4.159
64043W        W36303  20.648  11.252  12.043
64044W        W36304  11.739  40.964   0.345
64045W        W36305  12.159  18.710   0.856
64046W        W36306  41.011   9.355  13.812
64047W        W36307  16.143  12.222  11.477
64048W        W36308   3.413  30.980   4.699
64049W        W36309  24.637  29.076   4.622
64050W        W36310  17.789   7.687  10.515
64051W        W36311  36.571   9.156  14.885
64052W        W36312   7.902  20.030  12.469
64053W        W36313  35.493  37.001   1.228
64054W        W36314  31.909  12.197   4.263
64055W        W36315   0.877  26.684   2.272
64056W        W36316  26.520   5.843   0.859
64057W        W36317  38.056   1.460  14.452
64058W        W36318  28.073   8.888  11.013
64059W        W36319  30.149   5.390   2.404
64060W        W36320  31.603   8.704  12.534
64061W        W36321   9.309  40.537  12.867
64062W        W36322  29.979  10.286   4.195
64063W        W36323  24.205   7.181   0.395
64064W        W36324  19.677   4.316  11.032
64065W        W36325  44.759  37.981   1.226
64066W        W36326  24.494  10.820  11.571
64067W        W36327  38.415  28.638   1.432
64068W        W36328  31.437  42.394   3.166
64069W        W36329   9.779  40.376  13.817
64070W        W36330  44.438  22.624  12.345
64071W        W36331  10.210  24.995  11.425
64072W        W36332  37.438  36.040  12.505
64073W        W36333  28.600  13.709  11.916
64074W        W36334  20.675  43.438   0.450
64075W        W36335  42.896   7.752  12.349
64076W        W36336   3.342  27.675   4.731
64077W        W36337  15.089  27.483  11.017
64078W        W36338  15.149  27.601  10.043
64079W        W36339   7.263  23.690   3.862
64080W        W36340  44.979  14.689   4.733
64081W        W36341  15.187  39.320   3.640
64082W        W36342  34.603  28.029  13.313
64083W        W36343  13.342  27.097   1.426
64084W        W36344   3.894   4.747  12.563
64085W        W36345  42.922  36.440  13.438
64086W        W36346  28.997  32.618  12.401
64087W        W36347  25.061  34.932   4.303
64088W        W36348   7.260  23.699  13.957
64089W        W36349  13.670  14.687  13.447
64090W        W36350  19.602  13.165   0.462
64091W        W36351  13.635  37.884   1.768
64092W        W36352  16.266   4.295  13.820
64093W        W36353  44.802   2.890   2.771
64094W        W36354  43.895   5.258  12.972
64095W        W36355  42.886  39.412  12.489
64096W        W36356   5.897  22.527  12.079
64097W        W36357  43.470  43.475   4.821
64098W        W36358  30.046  30.004   5.651
64099W        W36359  43.831  13.278   3.314
64100W        W36360  25.500  36.466  13.905
64101W        W36361  40.955   4.346  12.054
64102W        W36362   8.678  42.902   4.717
64103W        W36363  41.907  15.593  10.024
64104W        W36364  29.590  14.117   3.253
64105W        W36365  12.279  37.893   4.694
64106W        W36366  10.147   8.160  14.895
64107W        W36367  23.668   7.673   4.651
64108W        W36368   6.267   3.818   3.232
64109W        W36369  33.901  21.049   3.838
64110W        W36370   7.856  18.173  11.448
64111W        W36371  35.020  33.960  11.097
64112W        W36372  37.966  15.594  12.852
64113W        W36373  33.016  25.029  14.388
64114W        W36374  43.776  30.122  12.073
64115W        W36375   2.904   7.270  10.453
64116W        W36376  32.986  36.420  11.554
64117W        W36377  38.373  33.955   3.768
64118W        W36378   8.181   9.737   3.809
64119W        W36379  22.233  26.593  10.411
64120W        W36380  11.254  36.950   4.839
64121W        W36381  10.188  31.918  11.893
64122W        W36382  10.668  15.736   0.903
64123W        W36383   6.307   1.432  11.872
64124W        W36384  34.428  22.088   1.898
64125W        W36385  23.085  24.138  11.476
64126W        W36386   6.201  29.966  11.940
64127W        W36387   1.252   8.735  10.498
64128W        W36388  39.854  43.477  14.478
64129W        W36389  13.165  19.120  12.523
64130W        W36390  16.711  43.783  11.863
64131W        W36391  41.002  40.323   0.351
64132W        W36392  33.004  18.563   1.396
64133W        W36393   0.765  37.517   3.702
64134W        W36394  24.177   8.879  10.032
64135W        W36395  13.128  41.538   4.616
64136W        W36396  15.202   2.820  13.426
64137W        W36397   9.226   4.816   0.337
64138W        W36398  30.550  37.831   1.717
64139W        W36399  31.103   9.384  14.353
64140W        W36400  38.514   6.330  13.448
64141W        W36401   0.936  37.936   0.901
64142W        W36402  22.681  23.570  11.031
64143W        W36403  15.159  26.050   3.267
64144W        W36404  23.692  24.058   4.334
64145W        W36405  37.938  18.710   0.829
64146W        W36406  30.147   9.827  12.387
64147W        W36407  27.570  17.078  14.440
64148W        W36408  36.477   5.791   0.735
64149W        W36409   1.858  38.340   1.228
64150W        W36410  25.484   0.881   0.402
64151W        W36411  39.377  31.456   0.728
64152W        W36412  37.480   4.395   0.826
64153W        W36413  36.930  11.257  13.369
64154W        W36414  29.539  15.247   4.814
64155W        W36415  36.431  15.745   0.341
64156W        W36416   8.681   7.867   0.822
64157W        W36417   5.236  17.707  14.456
64158W        W36418  39.007  32.957  12.094
64159W        W36419  36.919  42.925  14.002
64160W        W36420  11.283  20.062  11.375
64161W        W36421  24.011  19.697   2.361
64162W        W36422  39.447   0.874  13.524
64163W        W36423   5.258  16.745  14.902
64164W        W36424   8.338  26.535  13.885
64165W        W36425   7.221  33.391   1.783
64166W        W36426  37.069  38.819   2.344
64167W        W36427  44.413  35.991   2.848
64168W        W36428  27.458   3.277  11.541
64169W        W36429  20.101  21.090  12.022
64170W        W36430   4.763  36.557  11.550
64171W        W36431  14.728   6.261  12.839
64172W        W36432  33.430  33.900  14.494
64173W        W36433   0.465  38.491  10.642
64174W        W36434  36.922  31.002   1.793
64175W        W36435  23.582   7.800   0.385
64176W        W36436  23.603   4.709  10.534
64177W        W36437  40.524  28.497   3.338
64178W        W36438   5.367  27.642   0.761
64179W        W36439  39.972   1.849  10.918
64180W        W36440  30.436  13.664  11.490
64181W        W36441  32.906  26.956  14.837
64182W        W36442  37.908  10.752  11.901
64183W        W36443   6.405   8.338   0.790
64184W        W36444  22.517   9.202  13.922
64185W        W36445   3.372  15.584   3.228
64186W        W36446  38.466  32.113   0.279
64187W        W36447   8.200  31.065   2.398
64188W        W36448   8.224  29.088  13.524
64189W        W36449  36.954   4.858   4.645
64190W        W36450  18.202  35.505  12.968
64191W        W36451  40.387  11.631   2.761
64192W        W36452  29.657  31.456   0.465
64193W        W36453  21.519  17.648  12.413
64194W        W36454  27.984  15.258   0.964
64195W        W36455  21.637  18.716  14.834
64196W        W36456  22.078  43.866  14.454
64197W        W36457  39.969  26.700   0.473
64198W        W36458  12.782  42.481  11.571
64199W        W36459  34.398  13.624  14.918
64200W        W36460  32.485  37.878   0.967
64201W        W36461  42.795  13.203  11.437
64202W        W36462  13.276   4.862   3.295
64203W        W36463   6.333   4.229  15.000
64204W        W36464  38.868  21.681   3.303
64205W        W36465   7.399  11.776  12.979
64206W        W36466  20.093  25.515   2.707
64207W        W36467  22.743  13.752  11.424
64208W        W36468   9.386  14.280  12.898
64209W        W36469   9.332  43.765  11.516
64210W        W36470  26.008  23.155   3.302
64211W        W36471  10.243  36.929  10.478
64212W        W36472  26.168  25.974  14.995
64213W        W36473  34.450  16.733   4.723
64214W        W36474  20.086   9.648  13.940
64215W        W36475  18.189  21.124  14.801
64216W        W36476  32.052  32.012  12.899
64217W        W36477  41.797  39.809   0.304
64218W        W36478  44.442  14.150  14.508
64219W        W36479  40.491  41.989  11.068
64220W        W36480  35.493  28.049   0.777
64221W        W36481  42.872  39.831  12.541
64222W        W36482   2.372  12.679  10.101
64223W        W36483  10.215   4.926   0.845
64224W        W36484  41.835  31.562  14.454
64225W        W36485  11.711   4.942  10.008
64226W        W36486  34.999  11.208  12.862
64227W        W36487  44.464   4.402  10.130
64228W        W36488  33.894  18.781  14.961
64229W        W36489  29.970   2.794   4.679
64230W        W36490  14.615  27.126  14.436
64231W        W36491  12.319   7.702   1.782
64232W        W36492  11.160  33.100  10.498
64233W        W36493  11.678  16.740  13.955
64234W        W36494  26.200  43.323   1.768
64235W        W36495  39.984  22.743   4.795
64236W        W36496  36.887  20.568   3.366
64237W        W36497  41.953  44.476  10.456
64238W        W36498  35.050   1.904   2.773
64239W        W36499  26.520   1.801   1.437
64240W        W36500  27.128  40.840   5.725
64241W        W36501  21.531  19.752   3.673
64242W        W36502  19.170  43.882   2.368
64243W        W36503  18.556  23.676   4.734
64244W        W36504   3.454  20.135  11.409
64245W        W36505  40.415  26.182  14.308
64246W        W36506  41.341  15.139   2.683
64247W        W36507  21.193  19.605   0.743
64248W        W36508  18.694   8.291   1.356
64249W        W36509   7.361  17.072   2.780
64250W        W36510  27.103  16.646  10.644
64251W        W36511   6.364   4.304   3.842
64252W        W36512  39.060  29.512  14.980
64253W        W36513  20.081   8.359   1.918
64254W        W36514  30.550   8.346   0.269
64255W        W36515  13.106   2.926  11.110
64256W        W36516  41.933   0.380   3.675
64257W        W36517  40.303   2.381   2.215
64258W        W36518   0.400  22.231   4.330
64259W        W36519  33.035   6.262   3.801
64260W        W36520  16.292  37.336  13.455
64261W        W36521  21.678   5.786   1.863
64262W        W36522  42.316  15.172  12.548
64263W        W36523  43.352  11.130   2.852
64264W        W36524   9.233  12.847  12.562
64265W        W36525  21.700  27.670  12.574
64266W        W36526  36.429  40.489  10.484
64267W        W36527  23.168  29.487   1.283
64268W        W36528  13.772  43.934   3.719
64269W        W36529  30.982  42.286  10.596
64270W        W36530  38.907  43.019   3.798
64271W        W36531  10.148   4.387   0.845
64272W        W36532   9.715  32.573  14.436
64273W        W36533  12.834  27.454  11.435
64274W        W36534  11.711   7.179   4.628
64275W        W36535  24.166   3.439   4.144
64276W        W36536   6.341  27.042   0.806
64277W        W36537  40.842  26.675  12.537
64278W        W36538  19.620   1.237   4.354
64279W        W36539   0.471  23.178  13.474
64280W        W36540  20.114  27.620  14.510
64281W        W36541   7.665  40.835   2.705
64282W        W36542  21.547   0.851  11.583
64283W        W36543  19.119  27.469  12.044
64284W        W36544  24.679  26.659   0.478
64285W        W36545  19.078  36.038  12.947
64286W        W36546  38.016   1.417  11.915
64287W        W36547   7.328  39.421   3.318
64288W        W36548   9.814  31.460   1.905
64289W        W36549   3.439  35.509  13.445
64290W        W36550  32.399  23.668   4.775
64291W        W36551  27.124   9.180  11.528
64292W        W36552   2.407  15.263   1.424
64293W        W36553  36.099  28.086  14.763
64294W        W36554  36.591   6.715   1.888
64295W        W36555  31.569  20.682  14.027
64296W        W36556   6.902  25.990   0.891
64297W        W36557  11.729  29.014  12.506
64298W        W36558  33.502  21.709  10.008
64299W        W36559  25.492  16.792  11.899
64300W        W36560  17.227  31.942  13.798
64301W        W36561  20.525  21.736  11.481
64302W        W36562  25.050  32.133   2.726
64303W        W36563   9.745  29.492   2.277
64304W        W36564  17.662  40.868   0.832
64305W        W36565   1.862  18.693   0.248
64306W        W36566   9.841  15.217  12.006
64307W        W36567  23.553  44.777   1.859
64308W        W36568   0.402  33.957   2.667
64309W        W36569  31.957  32.018  13.413
64310W        W36570  22.125  44.759   2.742
64311W        W36571  35.564  17.640   1.841
64312W        W36572  10.364   2.242   0.256
64313W        W36573  35.555  38.995  13.348
64314W        W36574  26.971  41.532   5.600
64315W        W36575  28.472  24.486   1.846
64316W        W36576   9.318  17.608  13.478
64317W        W36577  21.612  27.180   4.787
64318W        W36578  43.004  12.360  11.584
64319W        W36579  22.623  23.626  10.559
64320W        W36580   6.776  35.422  11.109
64321W        W36581  12.237  25.110   4.132
64322W        W36582  30.484  35.475   1.212
64323W        W36583  23.580   1.762   0.951
64324W        W36584  15.705  29.124   2.252
64325W        W36585   2.744  33.948  10.615
64326W        W36586  14.787  37.083  12.447
64327W        W36587   6.873  34.573   4.122
64328W        W36588  41.878   5.250   1.280
64329W        W36589   3.277  27.514  12.358
64330W        W36590  12.640  31.553  14.468
64331W        W36591   6.867   0.483  14.354
64332W        W36592  27.655  43.301   0.447
64333W        W36593   2.339  11.834  14.010
64334W        W36594  16.748  35.586  11.411
64335W        W36595   1.460  26.548  14.955
64336W        W36596   0.773  11.363   0.934
64337W        W36597  10.280  11.303  12.004
64338W        W36598  20.686  37.437   4.828
64339W        W36599   7.764   5.343  13.330
64340W        W36600  40.828  19.690  13.814
64341W        W36601  37.940   1.249   1.383
64342W        W36602  42.868   5.268  13.440
64343W        W36603  32.519  44.957  11.443
64344W        W36604  21.085   9.739  10.056
64345W        W36605   0.747   0.468  13.403
64346W        W36606  21.594  20.742   4.338
64347W        W36607  10.170  33.619   3.149
64348W        W36608  26.699   7.405   4.604
64349W        W36609   4.765  22.012   2.834
64350W        W36610   2.931  38.332   3.331
64351W        W36611   3.423  36.022   3.774
64352W        W36612  21.137   9.750  10.433
64353W        W36613  20.227  25.631  13.847
64354W        W36614  27.533  16.201   0.350
64355W        W36615   9.373  18.789   2.896
64356W        W36616  13.231  28.936   2.289
64357W        W36617  22.533  15.605   1.298
64358W        W36618  35.917   7.259  14.978
64359W        W36619  20.040  43.346   4.211
64360W        W36620  27.607  42.337  11.497
64361W        W36621  23.616  40.398   3.372
64362W        W36622  37.026  36.893  10.901
64363W        W36623  34.113  38.391   2.399
64364W        W36624  29.029  31.490   0.870
64365W        W36625  44.774  22.208   1.779
64366W        W36626  43.360  38.333   2.711
64367W        W36627  16.617  41.931  13.975
64368W        W36628  41.927  11.777  14.339
64369W        W36629  43.949   2.411   1.930
64370W        W36630  27.621  33.049  12.996
64371W        W36631  39.979  42.834   2.192
64372W        W36632  37.992  33.982   2.357
64373W        W36633  14.666  37.543   3.192
64374W        W36634  14.833  22.110  14.380
64375W        W36635  23.072  17.272  12.912
64376W        W36636   7.405  33.596   2.364
64377W        W36637   5.797  39.912   1.883
64378W        W36638  18.692  24.699  14.408
64379W        W36639  15.098  10.757  10.520
64380W        W36640  33.572   9.198  13.005
64381W        W36641  28.014  15.627  10.412
64382W        W36642  25.588   4.755   9.940
64383W        W36643  19.750  38.431  12.518
64384W        W36644  34.554  32.137   0.250
64385W        W36645  23.032   3.237   1.806
64386W        W36646  18.573  44.985  11.936
64387W        W36647  16.144  15.327   1.750
64388W        W36648  26.103  14.696  11.091
64389W        W36649  30.551  36.376   4.339
64390W        W36650  41.476  33.886   1.407
64391W        W36651  14.834  24.719   2.680
64392W        W36652  13.731  16.797  13.464
64393W        W36653   9.209  34.590   3.809
64394W        W36654  34.553  16.107  12.072
64395W        W36655  16.584  26.073   2.783
64396W        W36656  15.779  17.776  11.046
64397W        W36657  44.794  33.434   2.340
64398W        W36658  14.783  37.475  10.920
64399W        W36659  41.019  15.721   0.409
64400W        W36660  18.090   0.817   4.315
64401W        W36661  12.249  19.746  10.492
64402W        W36662   1.778  23.003   3.309
64403W        W36663  39.063  35.951  10.521
64404W        W36664  39.907  19.743  12.443
64405W        W36665  16.238  30.970  14.939
64406W        W36666  20.251  37.860   1.242
64407W        W36667  30.956  34.061  13.307
64408W        W36668  11.340  22.189   3.247
64409W        W36669   0.375  40.334   0.926
64410W        W36670  30.544  33.569   1.444
64411W        W36671  11.190  41.415  11.891
64412W        W36672  30.955  12.223  11.055
64413W        W36673  37.496  14.291  10.497
64414W        W36674   8.388   4.424   1.428
64415W        W36675  24.028  40.395  11.941
64416W        W36676  14.182  32.033   0.359
64417W        W36677   2.803  40.517   2.334
64418W        W36678  12.248  42.860   1.301
64419W        W36679   2.842  33.969   2.330
64420W        W36680  15.103   5.223   2.355
64421W        W36681  35.077  29.480   2.390
64422W        W36682   5.318  15.751   4.129
64423W        W36683  31.408  39.366  13.830
64424W        W36684  42.818  32.025  10.599
64425W        W36685  28.092  20.031  10.974
64426W        W36686  36.502  30.002  10.523
64427W        W36687  34.484  17.611  14.814
64428W        W36688  23.066  13.170  12.534
64429W        W36689  27.622  21.696   4.737
64430W        W36690  25.705   8.211   3.383
64431W        W36691  18.129  13.672  11.862
64432W        W36692  20.067  26.116   3.691
64433W        W36693  26.525  34.455   0.471
64434W        W36694  19.139  37.849   0.327
64435W        W36695  25.683  27.456  14.933
64436W        W36696  21.050   2.964   1.332
64437W        W36697   7.713  41.025  12.930
64438W        W36698   0.783   9.885   3.801
64439W        W36699  33.940   9.840  12.486
64440W        W36700  29.961  17.703  13.804
64441W        W36701  24.196  15.720  12.928
64442W        W36702  22.044  21.698  12.356
64443W        W36703  20.250  19.235  13.830
64444W        W36704  37.426  26.576   9.970
64445W        W36705  32.453  31.927  10.404
64446W        W36706   7.287  40.012  11.469
64447W        W36707  12.621   7.382   3.348
64448W        W36708  27.076  36.886  13.382
64449W        W36709  12.696  37.475  14.785
64450W        W36710  39.440  37.001  10.414
64451W        W36711  31.552  36.545   1.909
64452W        W36712  43.367   0.476   1.917
64453W        W36713  31.114  43.889  13.336
64454W        W36714  31.510  17.669  12.362
64455W        W36715  20.034  33.525  10.124
64456W        W36716  14.276  30.135   5.161
64457W        W36717  25.606   2.805  11.099
64458W        W36718  34.891  33.066   4.806
64459W        W36719  24.694  10.182   0.896
64460W        W36720   0.964   7.186  13.427
64461W        W36721   3.812  29.107  14.821
64462W        W36722  28.112  14.242   5.224
64463W        W36723  20.669  27.008   4.765
64464W        W36724  28.949  14.123   4.635
64465W        W36725   4.782  18.154  10.996
64466W        W36726  36.390  27.677   4.704
64467W        W36727  39.915  12.360  13.792
64468W        W36728   4.879  36.031  13.395
64469W        W36729  36.479  23.689  12.967
64470W        W36730  20.032   8.317   3.720
64471W        W36731  39.825  10.736  14.433
64472W        W36732   8.829  14.115   0.954
64473W        W36733  41.537  31.954  14.343
64474W        W36734  43.285  39.404  12.534
64475W        W36735  35.558  23.694   2.891
64476W        W36736  41.458  21.240   1.401
64477W        W36737  26.078  36.990  10.963
64478W        W36738   4.271  26.961   2.824
64479W        W36739  11.823  42.491   2.664
64480W        W36740  24.674  18.182   1.264
64481W        W36741   6.244  22.671  11.541
64482W        W36742   1.852  34.900  12.928
64483W        W36743  10.288  13.307   1.437
64484W        W36744  35.476  35.578   2.182
64485W        W36745  20.668  13.735  12.936
64486W        W36746  43.848  16.091  10.575
64487W        W36747   1.312  12.237   2.388
64488W        W36748  34.090  21.593   0.927
64489W        W36749  32.417  21.664   4.124
64490W        W36750   9.361  37.346   2.682
64491W        W36751  21.599   2.324  13.381
64492W        W36752  44.454   3.345  14.305
64493W        W36753  19.577  43.336  11.398
64494W        W36754  31.634   0.441   1.716
64495W        W36755  20.197  43.447   0.824
64496W        W36756   4.787  22.586  13.045
64497W        W36757  16.204  10.238   4.288
64498W        W36758  24.122  40.308  13.820
64499W        W36759  42.478  16.684   3.868
64500W        W36760  38.015  16.167   2.415
64501W        W36761  14.314  28.018  14.469
64502W        W36762   7.773  21.141  11.113
64503W        W36763  19.116  27.480   1.293
64504W        W36764  12.230  39.500   2.187
64505W        W36765   0.409  11.320   2.401
64506W        W36766  14.784  18.593  13.542
64507W        W36767  23.690  12.764   4.282
64508W        W36768   5.765  24.617   0.832
64509W        W36769  33.073   8.196  12.360
64510W        W36770  12.351  35.916  12.537
64511W        W36771  26.586  44.325   1.408
64512W        W36772  22.585  21.136   4.212
64513W        W36773  39.846  42.295   0.291
64514W        W36774  30.534  24.038  13.461
64515W        W36775  14.588  41.795  12.891
64516W        W36776  43.917  43.019   0.464
64517W        W36777  36.012  39.973  11.463
64518W        W36778  25.549  28.455   3.799
64519W        W36779   7.241  37.000   1.802
64520W        W36780  22.147   2.324   2.363
64521W        W36781   2.254   1.888   3.796
64522W        W36782  15.690   8.832   2.311
64523W        W36783  22.143  32.968  11.041
64524W        W36784  43.424   4.925  10.105
64525W        W36785  28.458  28.657  13.515
64526W        W36786  37.347  43.436   0.268
64527W        W36787  11.823  36.470  14.012
64528W        W36788  25.100  37.894  13.500
64529W        W36789  43.794  10.750  13.486
64530W        W36790   4.217  27.177  14.760
64531W        W36791  39.386  24.188   4.180
64532W        W36792  25.220  28.071   3.697
64533W        W36793  23.537   8.399   3.258
64534W        W36794  27.168  32.468   2.248
64535W        W36795   5.436  32.127  11.451
64536W        W36796   5.196  31.041  13.339
64537W        W36797  27.592   7.314  13.390
64538W        W36798  26.518  10.375  13.425
64539W        W36799  37.925  34.098   1.254
64540W        W36800  25.578  29.057  13.940
64541W        W36801  14.254   3.726  13.870
64542W        W36802  13.299  35.466  12.998
64543W        W36803  44.908  39.346   4.294
64544W        W36804  22.624  33.400  12.966
64545W        W36805  28.990  10.359   4.173
64546W        W36806  14.610  10.342  12.885
64547W        W36807  14.728  39.456  12.851
64548W        W36808  19.239  31.498  14.971
64549W        W36809  43.823  19.537  13.911
64550W        W36810   3.403   5.875  13.308
64551W        W36811  13.278  44.884   3.634
64552W        W36812  29.921   3.219  11.512
64553W        W36813  24.713  37.349  14.412
64554W        W36814  30.974  11.314   3.772
64555W        W36815  19.662  19.601   4.211
64556W        W36816   4.803  25.119  13.890
64557W        W36817  37.521  39.384   4.150
64558W        W36818  41.379  35.065   4.196
64559W        W36819  38.881   2.921   1.795
64560W        W36820   9.648  19.050  14.988
64561W        W36821  30.534  28.508  13.510
64562W        W36822  23.139  29.472  12.507
64563W        W36823  31.552  21.586   1.872
64564W        W36824   4.282   8.359   4.814
64565W        W36825  16.158  44.846  13.961
64566W        W36826  12.780  21.109  12.885
64567W        W36827  42.945  23.713  12.881
64568W        W36828  34.952  31.546  12.410
64569W        W36829  17.176  13.230   3.172
64570W        W36830  17.569  20.113  10.950
64571W        W36831  42.842  37.071   1.352
64572W        W36832  40.029   3.336   1.772
64573W        W36833  38.863  25.537   1.416
64574W        W36834  12.170  41.527   0.785
64575W        W36835   5.831  31.537   0.881
64576W        W36836  28.504  27.605  14.008
64577W        W36837   6.720  43.303  10.582
64578W        W36838  39.539  40.929   2.728
64579W        W36839  39.926  23.109  14.875
64580W        W36840   1.894  40.840   4.313
64581W        W36841  35.584  20.640  10.102
64582W        W36842  24.712  30.068  13.929
64583W        W36843  15.125  10.666  12.843
64584W        W36844  17.770   3.928   3.333
64585W        W36845  23.110  38.849  14.330
64586W        W36846  32.096   0.872   1.325
64587W        W36847  12.143  36.966   3.852
64588W        W36848  20.168  31.551   4.349
64589W        W36849  41.942  10.826   3.204
64590W        W36850  10.808   6.887  14.479
64591W        W36851   6.258  14.237   1.913
64592W        W36852  14.771   6.378   0.469
64593W        W36853  25.636   0.316   4.180
64594W        W36854   7.786  44.915   3.368
64595W        W36855  18.629  13.638   1.246
64596W        W36856  17.693  24.625  14.346
64597W        W36857  20.700  23.069   2.780
64598W        W36858   5.699  22.215  14.462
64599W        W36859   4.256   5.328   4.303
64600W        W36860  16.628  21.046   1.239
64601W        W36861  37.572  38.022   4.317
64602W        W36862  12.277  36.471   1.301
64603W        W36863  27.508   4.750   4.643
64604W        W36864  27.452  40.992  11.859
64605W        W36865  27.000  38.558   3.344
64606W        W36866  43.007  22.531  12.022
64607W        W36867  39.317  42.963  13.922
64608W        W36868  23.646  16.762  11.475
64609W        W36869  18.572  11.293   4.339
64610W        W36870  14.183   3.268   1.306
64611W        W36871  44.813  19.538   0.302
64612W        W36872  18.067  36.453   1.903
64613W        W36873  22.018   4.890  13.992
64614W        W36874  44.502  36.855   9.952
64615W        W36875   6.787  36.842   0.728
64616W        W36876  12.208  35.043  12.046
64617W        W36877  21.709  22.099   9.928
64618W        W36878  23.226   8.356  10.985
64619W        W36879   2.351   1.905   4.345
64620W        W36880  35.416  26.970   4.805
64621W        W36881   8.163  26.505  14.320
64622W        W36882  18.622  10.696  13.915
64623W        W36883  22.081  15.226   0.748
64624W        W36884  31.078  12.182  13.044
64625W        W36885   3.758  12.855  12.476
64626W        W36886  36.963   4.792   3.298
64627W        W36887  32.934  42.353  13.051
64628W        W36888  40.883  23.709   1.439
64629W        W36889  24.639  27.163  14.369
64630W        W36890  43.764   6.371  14.389
64631W        W36891  22.072  24.665   1.935
64632W        W36892  40.043  37.555   2.184
64633W        W36893   5.409  25.638   3.156
64634W        W36894  34.482  40.005   0.270
64635W        W36895  39.826  42.001  11.980
64636W        W36896  27.954  44.367  12.096
64637W        W36897  18.083  11.816  14.954
64638W        W36898  44.985  17.728   1.383
64639W        W36899  33.510  25.573   3.373
64640W        W36900  16.225  24.999  11.880
64641W        W36901  35.392  33.399   1.931
64642W        W36902  15.131   4.922   1.860
64643W        W36903  41.928   6.319   0.865
64644W        W36904  12.172   5.199   3.161
64645W        W36905  17.739  33.062   0.813
64646W        W36906  25.997  34.408   0.445
64647W        W36907  22.566  27.450   4.261
64648W        W36908  25.980  10.851  11.510
64649W        W36909  21.232  27.648   3.158
64650W        W36910  39.933   6.827  12.485
64651W        W36911  18.746  44.351   2.415
64652W        W36912  43.276  29.600   0.464
64653W        W36913  41.892  38.053  13.421
64654W        W36914  29.163  24.041   0.967
64655W        W36915  28.952   1.403  14.793
64656W        W36916  35.494   8.349  11.917
64657W        W36917  34.114  31.953   3.649
64658W        W36918  38.997   2.439   3.829
64659W        W36919  31.572  26.607  12.390
64660W        W36920  34.099   2.443  11.967
64661W        W36921  32.107  37.579  13.387
64662W        W36922  41.886  27.177   3.834
64663W        W36923  13.218  12.165   4.805
64664W        W36924   8.757  30.035  13.546
64665W        W36925  35.587  32.125  14.774
64666W        W36926  32.602  15.783   0.405
64667W        W36927  26.633  20.721  10.889
64668W        W36928  42.777  23.672  13.859
64669W        W36929  20.623  21.132   5.673
64670W        W36930  10.865  11.202   2.893
64671W        W36931  15.696   8.673  11.907
64672W        W36932  16.225   4.918  10.074
64673W        W36933  27.490  23.148   1.697
64674W        W36934   6.776  27.185  10.423
64675W        W36935   0.756   9.681   4.117
64676W        W36936   5.789  44.429  11.468
64677W        W36937   3.865  11.293  11.115
64678W        W36938  23.057  21.101   3.703
64679W        W36939  20.164  26.490   1.850
64680W        W36940  36.097  35.495   3.298
64681W        W36941  39.964  14.335  12.090
64682W        W36942  14.741  16.806   4.834
64683W        W36943   9.300   8.680   1.400
64684W        W36944  10.712  26.978  13.389
64685W        W36945   4.296  24.482  13.309
64686W        W36946  11.834   6.272  10.426
64687W        W36947   3.876   8.380  13.849
64688W        W36948   9.330  41.817   2.275
64689W        W36949   4.773  14.617   2.677
64690W        W36950   8.805   3.857   2.664
64691W        W36951  41.960  31.630   2.763
64692W        W36952  24.999   1.809  11.505
64693W        W36953  26.095   6.688  12.473
64694W        W36954  18.723  36.847  14.983
64695W        W36955  18.672   0.854   0.857
64696W        W36956  20.630   4.828  13.544
64697W        W36957  19.681   4.345  11.520
64698W        W36958  24.220   8.682   0.762
64699W        W36959  27.602  17.797  14.384
64700W        W36960   0.935   8.764   1.396
64701W        W36961  43.484  33.894  12.401
64702W        W36962  43.448  38.489   0.465
64703W        W36963  31.576   0.323  14.025
64704W        W36964   0.823  35.978  12.390
64705W        W36965  44.306  12.270  14.995
64706W        W36966  39.004  12.134  13.948
64707W        W36967  37.384   3.713   1.349
64708W        W36968   0.870  23.526   3.201
64709W        W36969  42.379  36.925  10.524
64710W        W36970  20.144   6.908  12.953
64711W        W36971  31.425  13.297  10.642
64712W        W36972   4.818  26.503   1.829
64713W        W36973  15.700  22.581  12.855
64714W        W36974  21.597  23.507   4.707
64715W        W36975   1.735  23.703   1.281
64716W        W36976  17.703   3.406   1.410
64717W        W36977  41.002  30.980   0.845
64718W        W36978  13.613  30.957   2.696
64719W        W36979   6.324  12.629   9.991
64720W        W36980  17.623  12.691   0.324
64721W        W36981  36.576  17.141   3.372
64722W        W36982  11.163  37.904  14.769
64723W        W36983  43.391  33.404  10.039
64724W        W36984  21.175   9.156   4.141
64725W        W36985  18.622  17.151  14.419
64726W        W36986  19.102  30.989  11.498
64727W        W36987  25.020  37.518  13.853
64728W        W36988  39.443  22.575  10.009
64729W        W36989  16.639  24.005   1.395
64730W        W36990  35.889  40.958  12.930
64731W        W36991  29.443   5.336   4.772
64732W        W36992  44.902  35.380  14.445
64733W        W36993  11.246  25.684  12.506
64734W        W36994  36.481  24.725   3.812
64735W        W36995  20.669  35.600   1.419
64736W        W36996  20.270  24.119   4.281
64737W        W36997   3.316   4.763  13.394
64738W        W36998  26.659  14.168  13.370
64739W        W36999  44.914   1.301   3.695
64740W        W37000  18.776  34.054   2.320
64741W        W37001  35.957  21.060  11.116
64742W        W37002   0.367  39.826  14.808
64743W        W37003  37.045  21.125   3.749
64744W        W37004  15.616   4.935  14.951
64745W        W37005  17.268   8.214  13.882
64746W        W37006  10.169  19.153   3.640
64747W        W37007  17.231   1.353  13.422
64748W        W37008  22.186  31.434   0.940
64749W        W37009  31.514   0.333   3.333
64750W        W37010  33.578   7.679  12.063
64751W        W37011  13.797   4.422   2.373
64752W        W37012  36.397  12.802   4.245
64753W        W37013   5.209  21.119   3.712
64754W        W37014  21.027  16.133   0.385
64755W        W37015  44.962   1.872  10.979
64756W        W37016  40.503  16.315   2.218
64757W        W37017  44.766  33.609  12.423
64758W        W37018  37.893  43.815  10.544
64759W        W37019   4.445  14.637   3.226
64760W        W37020   2.920   2.302  13.411
64761W        W37021  31.049  21.074  14.364
64762W        W37022  12.362  22.687  11.909
64763W        W37023  26.640  20.639  13.403
64764W        W37024  40.966  11.288   3.723
64765W        W37025  30.062  33.386  11.042
64766W        W37026  18.213   5.849   5.724
64767W        W37027  20.760  10.193   4.251
64768W        W37028  30.609  14.703   4.647
64769W        W37029  13.318  34.992   3.797
64770W        W37030  27.465   6.201  11.013
64771W        W37031  16.618   7.694   1.760
64772W        W37032  37.448  21.020  11.479
64773W        W37033  43.982  39.513   1.372
64774W        W37034   9.178  25.485   3.792
64775W        W37035  14.739  17.166   9.630
64776W        W37036   4.797   6.344   5.185
64777W        W37037  32.911   1.253  11.532
64778W        W37038   2.808  19.142  12.426
64779W        W37039  11.691  29.662  13.422
64780W        W37040   2.360  42.394   4.676
64781W        W37041  30.944  18.189  13.313
64782W        W37042  19.686  23.650  13.861
64783W        W37043  44.435  13.147  10.524
64784W        W37044   4.896  32.527   0.419
64785W        W37045  25.965  40.873  14.955
64786W        W37046   6.356  22.182   1.749
64787W        W37047  15.100   7.729   2.783
64788W        W37048  19.283   8.308   9.633
64789W        W37049  22.599   9.690  12.994
64790W        W37050   4.940   0.448  13.321
64791W        W37051  33.933   3.741   4.817
64792W        W37052   4.228  17.664   2.852
64793W        W37053  40.997  18.093   3.358
64794W        W37054  43.845  37.073   2.216
64795W        W37055  33.099  17.065  14.327
64796W        W37056   1.465  25.709  14.297
64797W        W37057  28.645  30.565   4.650
64798W        W37058   0.828  23.144   4.231
64799W        W37059  17.629  22.727  10.132
64800W        W37060   3.768  26.600   3.662
64801W        W37061   7.887  17.679  11.059
64802W        W37062  32.421   7.325   0.313
64803W        W37063  28.598  37.413   0.924
64804W        W37064  34.018   4.804   4.127
64805W        W37065  24.610  24.616  13.936
64806W        W37066  24.711  39.529   0.836
64807W        W37067  19.543  33.076   0.792
64808W        W37068  43.899  31.927   4.752
64809W        W37069  23.570  15.821  12.380
64810W        W37070   7.768  11.284  14.487
64811W        W37071  18.608  34.950  12.469
64812W        W37072  17.199  12.821   2.897
64813W        W37073  43.837  13.620  12.346
64814W        W37074   9.318  34.924  13.909
64815W        W37075  26.528  26.516   0.467
64816W        W37076  43.873  23.087   0.394
64817W        W37077   6.709  18.128  13.962
64818W        W37078  33.092  23.669  13.399
64819W        W37079  24.574  26.097   5.166
64820W        W37080  29.543  25.617  13.823
64821W        W37081   9.789  18.788  14.426
64822W        W37082  24.598   3.347  12.882
64823W        W37083  24.543  44.274  12.578
64824W        W37084  23.029  41.534  12.407
64825W        W37085  16.630  17.658   2.181
64826W        W37086  44.956  36.013  12.084
64827W        W37087  24.067  44.903   1.393
64828W        W37088  16.241  33.952  10.982
64829W        W37089  21.511   5.910  14.487
64830W        W37090  21.097  23.239  13.393
64831W        W37091  33.915  28.628   3.361
64832W        W37092  11.345  32.924   3.692
64833W        W37093  22.051  16.258  14.370
64834W        W37094  18.147  24.568   2.253
64835W        W37095   5.205  11.820  10.443
64836W        W37096  11.195  22.072  11.984
64837W        W37097  25.077  38.888  13.335
64838W        W37098  19.041   6.910  11.560
64839W        W37099  25.192   7.734   0.299
64840W        W37100  39.003   3.363  11.549
64841W        W37101  27.454  21.155  11.050
64842W        W37102  32.944   4.375  12.072
64843W        W37103  27.546  17.664   1.294
64844W        W37104  18.561   9.370  11.535
64845W        W37105  11.264  10.676   3.278
64846W        W37106  23.115  32.916   0.451
64847W        W37107  12.228   2.915   0.361
64848W        W37108  40.049  19.665   0.812
64849W        W37109  39.527  23.677  14.276
64850W        W37110  31.914  41.456   2.759
64851W        W37111  30.564  16.168   1.733
64852W        W37112   2.874   7.179  13.004
64853W        W37113  44.300   5.429   1.363
64854W        W37114  29.519  26.487   1.784
64855W        W37115  21.578  39.316  14.361
64856W        W37116  17.278  19.588  10.063
64857W        W37117  31.543  18.111   3.781
64858W        W37118  32.485   5.888   1.718
64859W        W37119  34.558  15.275   2.767
64860W        W37120  14.591   6.679   2.243
64861W        W37121  23.095   6.335   0.297
64862W        W37122  40.443  41.330  10.494
64863W        W37123  25.528  28.112   1.898
64864W        W37124  32.940   2.793   0.351
64865W        W37125  32.935  25.118   1.863
64866W        W37126  39.489   0.765   4.116
64867W        W37127   7.891   4.391   0.939
64868W        W37128   0.249  27.166   3.757
64869W        W37129   6.692   9.224  13.379
64870W        W37130  39.441  34.535  11.909
64871W        W37131  18.562  11.351  14.315
64872W        W37132   1.459  10.244   3.640
64873W        W37133  20.151  35.886   5.284
64874W        W37134  40.009  25.630  13.547
64875W        W37135  24.218  14.816  13.959
64876W        W37136   8.830  11.263  12.037
64877W        W37137  19.558  18.165  12.044
64878W        W37138  27.568  13.818  12.003
64879W        W37139  31.604   8.836   2.185
64880W        W37140  27.477   9.711  11.078
64881W        W37141  38.027  14.694  14.331
64882W        W37142  42.861  39.866   0.243
64883W        W37143  37.580  30.581  10.629
64884W        W37144  42.807   2.327  10.477
64885W        W37145  12.710   5.916  12.529
64886W        W37146  29.648  40.549  10.923
64887W        W37147  25.112  28.034   1.335
64888W        W37148   0.871   4.300  12.464
64889W        W37149  11.320  37.923   2.779
64890W        W37150  30.908   5.353  13.533
64891W        W37151  13.286  36.516  14.031
64892W        W37152  22.076  37.018  12.048
64893W        W37153  20.096  40.498   3.377
64894W        W37154   2.769  30.003  12.988
64895W        W37155  38.376  44.987   0.309
64896W        W37156  40.030  10.752   1.409
64897W        W37157  16.076   4.787  14.908
64898W        W37158   5.391  43.913  14.432
64899W        W37159   2.892  23.163  13.999
64900W        W37160   4.431   1.483   4.716
64901W        W37161   6.881  18.072   0.447
64902W        W37162   0.903   3.813   3.682
64903W        W37163  24.192  31.411   3.639
64904W        W37164   9.245  32.951  13.469
64905W        W37165   3.357  10.242  10.543
64906W        W37166  13.341  23.675  11.885
64907W        W37167  11.773   4.876   4.225
64908W        W37168  15.648  38.481  14.935
64909W        W37169  23.521  25.188   2.755
64910W        W37170  24.140   1.426  13.061
64911W        W37171  32.029   8.383   4.130
64912W        W37172   7.387  28.998  12.867
64913W        W37173  41.934  27.006  12.579
64914W        W37174  34.400  40.965  11.438
64915W        W37175  32.623   8.397   3.230
64916W        W37176  36.581   0.960   0.302
64917W        W37177   6.321  27.131  12.951
64918W        W37178   6.835   4.767   4.674
64919W        W37179  34.403  44.890   3.655
64920W        W37180  42.325  29.950   2.781
64921W        W37181   7.728  19.648   1.332
64922W        W37182  29.494  23.571   4.342
64923W        W37183  27.542  20.070  12.077
64924W        W37184  16.186  21.179   3.261
64925W        W37185  28.604  33.002  14.894
64926W        W37186  38.928  43.435   9.926
64927W        W37187  43.378  44.791   0.808
64928W        W37188  36.349   8.267   5.264
64929W        W37189  20.084  10.739   2.728
64930W        W37190  44.423  34.399  14.481
64931W        W37191  40.470  10.234   0.966
64932W        W37192  33.528  32.992   2.187
64933W        W37193  18.581  29.640   3.820
64934W        W37194  30.996   6.290   5.127
64935W        W37195   1.388  14.711  14.944
64936W        W37196   4.855   8.706   2.745
64937W        W37197  23.130  37.470   0.947
64938W        W37198  42.396  38.941  10.543
64939W        W37199  16.255   6.767   4.615
64940W        W37200   8.692  35.965   1.380
64941W        W37201  29.943  39.986  14.930
64942W        W37202  31.016  44.950   0.466
64943W        W37203  22.152  28.005   0.727
64944W        W37204  33.474  10.812  11.444
64945W        W37205   3.741  25.496  11.043
64946W        W37206  13.599  29.975   0.451
64947W        W37207  42.793  38.568  12.504
64948W        W37208   4.337  12.780   2.688
64949W        W37209  27.453  19.675   5.299
64950W        W37210   2.294  38.489  11.113
64951W        W37211  37.357   9.690  10.893
64952W        W37212  10.311  31.935   1.244
64953W        W37213  10.646  20.569  13.018
64954W        W37214  11.690  17.118   1.327
64955W        W37215  23.505   9.768  12.881
64956W        W37216  31.092  23.108  13.902
64957W        W37217  23.212  10.240   2.306
64958W        W37218  16.599   0.793  13.881
64959W        W37219   4.358  39.026   0.966
64960W        W37220  30.517  23.519  11.512
64961W        W37221   2.256  18.064  14.402
64962W        W37222   8.852  39.917   2.356
64963W        W37223  31.581   7.883  14.404
64964W        W37224   8.380   5.234  14.792
64965W        W37225   7.720  37.503   1.435
64966W        W37226  17.667  36.046   2.766
64967W        W37227  42.850  32.493   2.730
64968W        W37228   3.828  11.304  13.344
64969W        W37229  18.548  11.747   1.237
64970W        W37230   6.775   2.794   3.714
64971W        W37231  15.174  20.122   1.725
64972W        W37232  25.543  32.097  13.791
64973W        W37233  27.975   1.346  14.952
64974W        W37234  34.918  34.387  11.034
64975W        W37235  23.683  44.788  11.548
64976W        W37236  43.987  27.038   3.632
64977W        W37237   5.385  15.648  13.989
64978W        W37238   2.264  28.466   3.795
64979W        W37239   4.309   6.402   4.262
64980W        W37240  41.391   1.970   0.804
64981W        W37241  33.424  24.022  12.497
64982W        W37242   6.770  40.314   1.847
64983W        W37243   9.160  22.545   1.926
64984W        W37244  33.502  32.895   1.722
64985W        W37245  42.920  44.270   5.208
64986W        W37246  25.116   3.405  13.017
64987W        W37247   1.344  37.341  10.897
64988W        W37248  26.049  10.774  10.453
64989W        W37249  26.111  24.143  14.286
64990W        W37250   3.932  37.861  10.588
64991W        W37251  42.388  30.501  11.591
64992W        W37252  23.614  38.008   1.709
64993W        W37253  37.516   7.325  13.446
64994W        W37254  19.285   7.791   1.786
64995W        W37255  35.988  16.654   4.337
64996W        W37256  22.717  32.125  10.557
64997W        W37257  38.405   9.748   2.891
64998W        W37258  37.931  44.804  11.920
64999W        W37259  26.484  25.138   2.874
65000W        W37260  30.102  38.893   1.820
65001W        W37261  37.841  20.107  11.430
65002W        W37262  33.122  15.115  10.475
65003W        W37263  44.995   6.221  13.532
65004W        W37264   5.197  34.440   2.244
65005W        W37265  25.632  12.764  13.534
65006W        W37266  31.032  13.172  10.515
65007W        W37267   9.175  16.149  10.548
65008W        W37268  34.475   4.945  13.047
65009W        W37269  29.561  24.060   4.130
65010W        W37270   4.773  29.499   3.680
65011W        W37271  26.013  32.544  11.479
65012W        W37272  37.494   6.408   3.738
65013W        W37273  25.584  16.217   4.688
65014W        W37274   2.228  12.659   0.302
65015W        W37275  28.973  30.550   4.264
65016W        W37276  26.118  15.137  14.312
65017W        W37277  20.750  24.084  12.891
65018W        W37278  14.742  18.106  10.644
65019W        W37279  17.639  14.615  13.832
65020W        W37280  29.042  31.921  13.807
65021W        W37281  18.587   0.267   2.415
65022W        W37282  22.125  23.039   1.338
65023W        W37283  10.790  26.025   0.772
65024W        W37284  18.052  12.186  13.455
65025W        W37285  37.855  36.362  13.004
65026W        W37286  17.276   2.471  14.001
65027W        W37287  43.410  19.575  11.472
65028W        W37288  13.815  16.776  13.826
65029W        W37289   9.288  30.049  13.404
65030W        W37290  13.138   4.845  14.966
65031W        W37291  15.132  36.854  11.444
65032W        W37292   9.276  43.937   2.303
65033W        W37293   6.386   4.932  10.060
65034W        W37294  44.383  36.374  13.472
65035W        W37295  19.254  23.034   3.708
65036W        W37296  17.588  15.718   0.386
65037W        W37297  37.530   8.837  14.927
65038W        W37298  44.893   4.369  13.813
65039W        W37299  20.231  23.581   3.178
65040W        W37300  24.601  25.991  12.439
65041W        W37301  23.234  25.043   0.245
65042W        W37302  42.314  43.327  11.075
65043W        W37303  10.731  13.691  13.378
65044W        W37304  26.973   5.358  11.032
65045W        W37305   5.328  34.875  12.855
65046W        W37306  42.960  28.611   4.151
65047W        W37307  13.134   7.718   1.353
65048W        W37308  40.474  18.067   3.194
65049W        W37309   0.971  16.667  14.855
65050W        W37310   5.291  18.052  13.902
65051W        W37311   2.421   2.283  13.508
65052W        W37312  26.518   2.259   4.789
65053W        W37313   5.883  26.192   2.180
65054W        W37314  29.475  16.144  12.493
65055W        W37315  11.706  17.243   4.631
65056W        W37316  19.208  13.325   2.223
65057W        W37317   4.848   7.872  11.868
65058W        W37318   0.907  33.028   4.831
65059W        W37319  26.984   5.331   1.899
65060W        W37320  32.468  34.454  12.434
65061W        W37321  28.982  24.540  12.955
65062W        W37322  18.274  24.089   1.408
65063W        W37323  22.060  30.453  10.991
65064W        W37324   0.431  29.477  12.039
65065W        W37325  10.172  40.403   4.727
65066W        W37326   6.712  26.966  13.063
65067W        W37327  40.471  12.282   0.290
65068W        W37328  32.005   2.255   2.232
65069W        W37329  14.630  12.359  13.855
65070W        W37330  28.171  29.543  12.025
65071W        W37331  28.575  32.413   1.359
65072W        W37332  35.479  41.344   0.855
65073W        W37333   3.419   2.273   4.767
65074W        W37334  37.507   6.222   3.357
65075W        W37335   9.391  17.594  12.915
65076W        W37336  31.926  18.055   2.813
65077W        W37337  29.460  20.074  14.930
65078W        W37338  39.334  39.891   3.386
65079W        W37339   9.705  17.570  12.847
65080W        W37340  29.429  12.655  14.029
65081W        W37341  40.404  16.156  11.547
65082W        W37342  26.990  43.882   3.350
65083W        W37343  10.767  41.006  13.046
65084W        W37344  22.709  17.259   3.689
65085W        W37345  34.032   2.448   2.840
65086W        W37346  16.688  40.992   0.462
65087W        W37347  31.463  13.108  12.930
65088W        W37348  17.611  29.437   0.446
65089W        W37349  13.178  22.624  10.478
65090W        W37350  14.684  24.489  12.553
65091W        W37351  26.521  28.648  12.891
65092W        W37352  23.041  26.498   4.724
65093W        W37353  36.883  22.107   1.922
65094W        W37354  25.600  27.164  14.809
65095W        W37355  24.696  40.888  14.505
65096W        W37356  28.512   4.802   9.989
65097W        W37357   3.377   2.932  13.865
65098W        W37358  43.956  21.564  10.974
65099W        W37359  14.106  16.799   1.243
65100W        W37360  14.097   6.337   4.167
65101W        W37361  34.072  13.752   3.223
65102W        W37362   9.244   5.691   4.624
65103W        W37363  39.474  31.915   3.347
65104W        W37364  37.031  43.839   1.220
65105W        W37365  43.493  30.526   2.714
65106W        W37366  36.896  21.180   0.739
65107W        W37367  30.999  38.947   9.973
65108W        W37368  27.127  43.774  11.994
65109W        W37369  38.452  30.021  10.959
65110W        W37370   1.823  19.701  11.034
65111W        W37371   7.245  23.028  11.411
65112W        W37372  13.189  21.568  11.049
65113W        W37373  20.126  33.009  10.524
65114W        W37374   4.819  34.590   4.171
65115W        W37375  41.978  13.252   4.838
65116W        W37376  23.160   4.209   0.317
65117W        W37377   3.868  43.305  12.450
65118W        W37378   8.397  28.094  12.033
65119W        W37379  21.596  14.336   0.773
65120W        W37380  17.603  10.258  11.960
65121W        W37381  36.869  43.485   4.193
65122W        W37382  26.662  23.087  14.306
65123W        W37383  42.899  23.123  12.050
65124W        W37384  13.179  31.091   4.696
65125W        W37385  24.577  19.707  14.891
65126W        W37386  23.222  10.176   0.956
65127W        W37387   7.184  17.677  14.983
65128W        W37388  41.842  41.371   4.673
65129W        W37389  36.971  12.309  10.497
65130W        W37390  27.068  28.484  10.610
65131W        W37391  36.926  16.116   0.461
65132W        W37392  15.173  15.759  11.484
65133W        W37393   2.357  37.374   5.233
65134W        W37394  14.831  44.809   3.272
65135W        W37395   5.268  36.020  14.811
65136W        W37396  30.996   8.366  13.032
65137W        W37397  21.581  16.634  12.536
65138W        W37398  38.844  21.511  12.575
65139W        W37399  28.006   8.676  13.034
65140W        W37400  41.946  35.371  11.380
65141W        W37401   2.954  16.091  14.450
65142W        W37402  11.822  38.015   4.147
65143W        W37403  31.584  21.541   3.188
65144W        W37404   7.702   3.721  10.896
65145W        W37405   4.741  11.262   2.813
65146W        W37406  27.062  37.385   3.743
65147W        W37407  31.449  14.178  12.997
65148W        W37408   0.953  16.264  14.458
65149W        W37409   5.246   3.938  11.973
65150W        W37410   4.335  36.515   0.965
65151W        W37411  34.562  42.967  13.452
65152W        W37412  34.959  10.844  11.104
65153W        W37413  36.067  30.120   1.697
65154W        W37414  14.828   3.913   4.778
65155W        W37415  36.478  16.625  11.572
65156W        W37416   4.251  35.549   4.245
65157W        W37417  28.451   6.688   4.642
65158W        W37418   5.358  37.576  11.098
65159W        W37419  30.039   3.357   0.760
65160W        W37420  43.004  19.258  13.888
65161W        W37421  15.161  20.134  11.456
65162W        W37422  17.173   1.289  14.403
65163W        W37423  37.846  14.226   2.320
65164W        W37424  22.705  23.181  14.869
65165W        W37425  40.012   3.244   2.339
65166W        W37426  29.433  17.287   0.277
65167W        W37427   2.875  20.690  12.016
65168W        W37428   3.864  26.644  11.089
65169W        W37429  13.266  31.581  12.885
65170W        W37430  13.667  26.967  13.966
65171W        W37431  12.680  41.898  14.303
65172W        W37432  22.549  41.893   3.714
65173W        W37433  27.105  24.093  13.484
65174W        W37434  22.610  33.585  14.283
65175W        W37435  15.126  41.840  10.575
65176W        W37436   8.853  27.518   3.231
65177W        W37437  40.941  19.554  14.789
65178W        W37438  38.451  43.948  13.351
65179W        W37439   1.816  42.943  14.933
65180W        W37440  25.539  13.834   2.889
65181W        W37441  14.758  19.725   3.197
65182W        W37442   1.413  21.547  14.894
65183W        W37443  38.393   7.300   4.196
65184W        W37444  27.121  38.379   2.851
65185W        W37445  20.154  28.981  14.369
65186W        W37446  29.531  30.129  11.981
65187W        W37447  36.871  39.438   1.825
65188W        W37448  14.268   3.924  14.928
65189W        W37449   2.779   2.387   1.743
65190W        W37450  27.539  40.414   4.215
65191W        W37451  10.336   3.747  11.010
65192W        W37452  40.406   5.269  14.885
65193W        W37453  22.589  28.633   4.743
65194W        W37454   8.307  40.530  14.287
65195W        W37455  18.700  35.055  11.044
65196W        W37456  42.872   5.847  10.598
65197W        W37457   2.259  43.429  13.446
65198W        W37458  41.362  35.587  13.502
65199W        W37459   1.463  12.236   3.681
65200W        W37460  37.552  23.129  13.369
65201W        W37461  29.983   2.226   1.432
65202W        W37462   5.718  10.691   2.183
65203W        W37463  29.608  14.821  14.379
65204W        W37464  18.586  22.589   4.614
65205W        W37465  26.145  44.489   4.122
65206W        W37466  14.168  40.402   0.410
65207W        W37467  20.575   8.698  12.998
65208W        W37468  13.611   2.339  12.089
65209W        W37469   4.860  36.073  12.923
65210W        W37470  15.755   9.719   1.315
65211W        W37471  28.667  10.644   3.385
65212W        W37472  44.416   2.849  11.127
65213W        W37473  39.505  32.631  10.469
65214W        W37474  23.605  14.252  14.884
65215W        W37475  34.379  26.038  13.904
65216W        W37476   0.890  14.292   4.733
65217W        W37477   6.849  15.156   3.653
65218W        W37478   1.966  41.311   3.275
65219W        W37479   7.820  13.742   3.678
65220W        W37480  29.164  16.652  11.406
65221W        W37481  43.878  34.881   0.852
65222W        W37482  13.251  13.216   3.853
65223W        W37483   1.445  15.786   3.225
65224W        W37484  16.100   1.975   2.693
65225W        W37485  38.844  41.515   0.955
65226W        W37486  28.542  44.405  12.926
65227W        W37487   1.801  21.250   1.243
65228W        W37488  33.975   2.751  12.892
65229W        W37489  23.611  39.027  12.390
65230W        W37490   7.329   9.309   0.442
65231W        W37491   4.365   1.805   4.723
65232W        W37492   0.477  29.922   3.821
65233W        W37493  33.948   1.840  12.974
65234W        W37494  43.339  11.172  10.893
65235W        W37495  14.302  31.485  12.938
65236W        W37496  37.501   7.829  12.461
65237W        W37497  17.579  42.434   1.220
65238W        W37498   5.745  18.252   0.463
65239W        W37499  27.087  20.602   2.257
65240W        W37500  33.964  10.666  12.934
65241W        W37501  29.462  29.509   3.159
65242W        W37502  12.817  12.661  13.530
65243W        W37503   8.337  18.662   4.674
65244W        W37504   9.771  43.978   2.668
65245W        W37505  16.775  11.177  11.883
65246W        W37506  40.882  28.579  12.386
65247W        W37507  32.617   6.279  12.546
65248W        W37508  44.926  24.715  14.341
65249W        W37509  31.479  17.684  12.973
65250W        W37510  12.223  16.247   0.394
65251W        W37511  22.740  14.827  11.119
65252W        W37512   0.395  42.335  12.443
65253W        W37513   2.898  11.782  13.955
65254W        W37514  23.154  21.594   4.779
65255W        W37515  18.199  18.142   0.310
65256W        W37516  32.427  18.676  11.439
65257W        W37517   2.926  21.060  11.053
65258W        W37518  25.024  30.519  13.310
65259W        W37519  31.569   4.368  14.401
65260W        W37520  24.103   5.742   4.263
65261W        W37521   7.789  31.605   1.916
65262W        W37522  20.582  20.270  12.484
65263W        W37523   1.306  36.070   1.429
65264W        W37524  18.172  44.451  13.917
65265W        W37525  25.470  10.829  10.919
65266W        W37526  41.526  41.901  14.434
65267W        W37527  42.784   7.831   4.213
65268W        W37528   9.665  30.412   3.165
65269W        W37529   8.223  21.726  11.613
65270W        W37530   6.855   5.423  10.614
65271W        W37531   2.724  38.892   4.145
65272W        W37532  41.989  34.562   0.364
65273W        W37533  17.171   1.813  14.497
65274W        W37534  27.048  20.163   0.464
65275W        W37535  34.470  37.336   3.217
65276W        W37536  22.629  19.558   0.947
65277W        W37537  17.205   2.820  13.350
65278W        W37538   9.295  38.928  14.388
65279W        W37539   3.943  43.292   3.699
65280W        W37540   5.218   1.777  11.923
65281W        W37541  35.533   0.858  14.912
65282W        W37542  13.839  28.129  10.418
65283W        W37543  24.595  27.010   2.874
65284W        W37544  34.003  23.638   2.384
65285W        W37545   8.798  30.595   0.359
65286W        W37546  14.627  13.199   2.366
65287W        W37547  43.919   7.292   2.877
65288W        W37548  24.598  19.215  11.406
65289W        W37549  42.926  18.721   3.672
65290W        W37550  40.839  44.313   1.727
65291W        W37551   2.259  20.066   2.809
65292W        W37552  36.054   6.834  10.454
65293W        W37553  34.398  44.772  11.933
65294W        W37554  13.113  19.258   3.837
65295W        W37555  23.205   2.877  14.934
65296W        W37556  31.953  37.498   1.400
65297W        W37557  44.483  33.443  13.945
65298W        W37558   4.348  10.743   4.748
65299W        W37559   5.727  41.954   1.752
65300W        W37560  12.636  11.637  13.349
65301W        W37561  40.518  21.140   2.754
65302W        W37562  16.108  29.173   3.811
65303W        W37563  29.170  38.484  12.938
65304W        W37564  44.788  14.791   1.718
65305W        W37565  34.421  44.803  10.912
65306W        W37566  18.092  35.506   0.935
65307W        W37567  11.786   3.742   4.178
65308W        W37568   5.756  42.365   1.838
65309W        W37569  26.099  12.712  13.430
65310W        W37570   0.792  33.945  13.313
65311W        W37571  43.447  10.138  13.012
65312W        W37572   3.710  10.372   2.677
65313W        W37573  10.204  26.702   4.772
65314W        W37574  13.326  35.878  11.930
65315W        W37575   6.836  12.189   0.884
65316W        W37576   0.921  17.713  13.376
65317W        W37577  16.104  30.428  12.455
65318W        W37578  35.902  32.919   3.183
65319W        W37579  18.068  35.912  14.804
65320W        W37580  35.877  12.633   4.767
65321W        W37581  44.359  31.918   3.653
65322W        W37582  24.614  19.225  10.507
65323W        W37583  22.567  22.604  13.455
65324W        W37584  32.481  28.131  11.030
65325W        W37585   7.749  12.704  10.055
65326W        W37586  26.976   2.787  11.078
65327W        W37587  38.906  29.163   5.136
65328W        W37588  31.990  40.537  14.486
65329W        W37589   2.731  43.843   0.417
65330W        W37590  26.531  39.914  10.567
65331W        W37591  16.622  40.038   3.157
65332W        W37592  10.195  37.881   0.435
65333W        W37593   7.402   8.719  12.408
65334W        W37594  25.574  40.052  11.041
65335W        W37595   0.878  38.838  12.978
65336W        W37596  14.609  20.171  12.390
65337W        W37597  28.978  11.669   1.289
65338W        W37598  16.167  31.925   4.314
65339W        W37599  38.339  10.205  12.928
65340W        W37600  37.851  30.655  11.474
65341W        W37601  21.698  15.657  14.403
65342W        W37602  12.235  26.994   0.875
65343W        W37603  23.112  27.182  11.898
65344W        W37604   6.370  27.044   2.720
65345W        W37605  16.120  20.730   4.354
65346W        W37606  32.586  41.989  13.005
65347W        W37607  28.093  37.980  13.003
65348W        W37608  40.877   2.756  10.577
65349W        W37609  21.611  26.979  14.800
65350W        W37610  11.227  34.943  13.953
65351W        W37611  10.841  34.397  13.801
65352W        W37612  14.744  29.640   3.701
65353W        W37613  18.726  11.677  12.943
65354W        W37614  31.945  20.202  13.990
65355W        W37615  30.150  36.452   1.373
65356W        W37616  40.042  28.028  14.881
65357W        W37617  11.136  23.080  14.819
65358W        W37618  27.566   2.403  14.879
65359W        W37619  35.547  43.495  12.083
65360W        W37620  29.168   5.829  13.405
65361W        W37621  34.068  37.883   3.768
65362W        W37622  18.665  38.406   1.250
65363W        W37623  28.111  34.098   4.310
65364W        W37624  32.124  33.013   3.767
65365W        W37625   0.907  28.599  13.352
65366W        W37626  25.012   1.761   0.412
65367W        W37627  36.851  44.450   3.768
65368W        W37628  22.575  33.106   2.736
65369W        W37629   6.750  43.361   1.279
65370W        W37630  10.233  37.954  14.915
65371W        W37631  17.107  43.416  10.536
65372W        W37632  35.091   1.412  11.384
65373W        W37633  43.370  32.973  11.445
65374W        W37634  12.189  18.234   3.761
65375W        W37635  14.326  27.135   4.838
65376W        W37636  15.724  11.856   3.785
65377W        W37637   4.219  17.717  11.596
65378W        W37638  43.983  29.515   3.330
65379W        W37639   6.412   7.397  10.530
65380W        W37640  44.260  15.767  10.144
65381W        W37641   7.714  11.819  11.867
65382W        W37642  21.688   5.724   3.278
65383W        W37643  13.737  14.254  10.130
65384W        W37644  13.603  20.093  12.343
65385W        W37645  43.317  24.566   2.399
65386W        W37646  43.884  44.383   1.283
65387W        W37647  13.736  17.148   5.112
65388W        W37648   2.860  41.380   3.862
65389W        W37649  15.605  34.393   0.463
65390W        W37650  11.159  10.783   3.687
65391W        W37651  36.843   2.350   1.361
65392W        W37652  36.477  23.551   4.835
65393W        W37653  10.263  38.383  12.884
65394W        W37654  14.620   0.815  13.484
65395W        W37655  16.664  33.915   1.322
65396W        W37656  41.518  17.103   3.247
65397W        W37657  19.214  38.849   4.760
65398W        W37658  13.609   4.836  11.875
65399W        W37659  40.986   7.855  13.312
65400W        W37660  28.608  16.199  10.610
65401W        W37661  33.026  28.102   2.714
65402W        W37662   8.216   5.688  14.989
65403W        W37663  13.780  40.471   3.831
65404W        W37664  41.859  37.839   2.793
65405W        W37665   7.411  18.685  14.452
65406W        W37666  42.382  22.156   1.318
65407W        W37667  37.432  26.525   5.200
65408W        W37668   6.900  18.278  11.118
65409W        W37669  31.956  37.557  13.862
65410W        W37670  27.688  28.651  12.493
65411W        W37671  23.584  44.325  12.374
65412W        W37672  40.515  27.151   4.671
65413W        W37673  20.090  26.056  12.889
65414W        W37674   5.332  12.260  12.538
65415W        W37675  36.394  35.040  11.112
65416W        W37676  34.010  37.884  12.956
65417W        W37677  19.630  22.629  13.912
65418W        W37678  36.558  41.328   1.427
65419W        W37679   8.798  27.001   3.752
65420W        W37680  12.855  36.447   4.633
65421W        W37681   9.371   6.271   3.841
65422W        W37682  31.583  22.234  14.306
65423W        W37683  21.705  19.617  14.462
65424W        W37684  24.075  31.049   4.126
65425W        W37685  34.982  27.053   3.381
65426W        W37686  42.819  15.671  13.019
65427W        W37687  27.506   5.751  14.018
65428W        W37688  16.082  34.428  12.394
65429W        W37689  24.075   3.734   1.323
65430W        W37690  17.763  43.961  14.971
65431W        W37691  34.001  17.211   4.797
65432W        W37692  16.098   2.429  12.052
65433W        W37693   8.734  23.538  11.857
65434W        W37694  25.605   4.816  14.306
65435W        W37695   8.303  36.935  12.027
65436W        W37696  34.516  11.864  14.978
65437W        W37697  19.748  31.483   0.399
65438W        W37698  37.896   5.339   2.712
65439W        W37699   1.899  21.102   2.230
65440W        W37700   1.436  14.748   2.722
65441W        W37701  37.855  14.249  10.503
65442W        W37702  25.467  10.276   1.881
65443W        W37703  43.804  22.045  14.891
65444W        W37704  24.713  18.139  11.936
65445W        W37705  19.655  42.514   0.278
65446W        W37706  28.668  22.583   2.768
65447W        W37707  35.485  11.321   0.327
65448W        W37708  12.243  17.571   3.742
65449W        W37709   9.355  25.126  12.522
65450W        W37710  23.119  17.197  11.543
65451W        W37711  22.562  35.966   3.235
65452W        W37712  34.394  19.688   1.776
65453W        W37713  16.297   8.278  12.413
65454W        W37714  26.128  26.993  14.909
65455W        W37715  27.646   9.782  13.380
65456W        W37716  26.122  36.349  11.939
65457W        W37717  35.521   0.927  11.993
65458W        W37718  33.059  25.488  10.522
65459W        W37719  13.273  39.450  11.080
65460W        W37720  14.180   7.808  12.907
65461W        W37721  12.316  38.444   3.762
65462W        W37722  42.457  22.220   4.704
65463W        W37723  16.211  27.019   1.860
65464W        W37724  29.105  35.017   1.780
65465W        W37725  41.966   7.702   4.208
65466W        W37726   4.879  18.729  11.392
65467W        W37727  41.428  35.408  14.323
65468W        W37728  20.084   7.842   3.725
65469W        W37729   4.287  33.442   1.819
65470W        W37730  37.992  29.562   3.760
65471W        W37731   9.661  14.704  10.521
65472W        W37732  28.460  26.991   0.880
65473W        W37733  19.759  17.586   0.804
65474W        W37734  10.879  37.076  11.550
65475W        W37735  37.885  24.128  13.955
65476W        W37736  39.335   4.371   3.712
65477W        W37737  11.349  37.527   4.691
65478W        W37738  12.261  14.305   4.665
65479W        W37739  37.411  13.651  11.443
65480W        W37740   7.667  29.060  11.468
65481W        W37741  44.302  22.117   3.764
65482W        W37742   5.424  18.589   1.814
65483W        W37743   7.277  26.476  13.838
65484W        W37744  32.911  26.174  10.539
65485W        W37745  18.271  27.600  10.425
65486W        W37746  22.636  42.432   2.761
65487W        W37747  44.887  34.436  10.459
65488W        W37748  33.014  11.816  12.411
65489W        W37749  44.365   3.724   0.401
65490W        W37750  33.905  20.047   0.483
65491W        W37751  34.891  31.975  10.443
65492W        W37752  40.366  33.928   4.265
65493W        W37753   2.366  28.964  10.961
65494W        W37754  23.539  12.755  12.430
65495W        W37755  32.133   9.752  12.903
65496W        W37756  19.133  42.299  13.967
65497W        W37757  27.111  16.740  14.984
65498W        W37758  20.588  13.699  14.296
65499W        W37759  36.384  10.377   3.183
65500W        W37760  39.506  38.329   4.128
65501W        W37761  39.468  39.824   0.476
65502W        W37762  31.069  44.937   1.900
65503W        W37763  40.314  16.739  13.360
65504W        W37764  41.809  28.033   3.809
65505W        W37765   0.322  15.708   9.975
65506W        W37766   9.889  34.012  10.914
65507W        W37767  34.867  11.335  13.462
65508W        W37768  13.794  28.172  11.906
65509W        W37769  40.038  19.201   4.666
65510W        W37770  42.285  23.723  13.039
65511W        W37771  28.035  37.006  12.847
65512W        W37772  12.808  27.462   9.651
65513W        W37773  11.316  34.031   0.837
65514W        W37774  18.726  17.585   4.828
65515W        W37775   7.337   6.821   3.831
65516W        W37776  18.132   4.283  14.325
65517W        W37777  31.403  29.176  11.584
65518W        W37778  13.838  40.954   3.323
65519W        W37779  16.783  18.572  14.862
65520W        W37780  35.474  24.213   3.792
65521W        W37781  18.768  31.152   4.655
65522W        W37782  12.123  41.481  13.941
65523W        W37783  17.559  20.565   1.779
65524W        W37784   6.813   3.802   4.635
65525W        W37785  20.556  28.948  13.002
65526W        W37786  11.250   3.918   0.337
65527W        W37787  33.109  37.831   3.731
65528W        W37788  11.221  13.710   3.287
65529W        W37789  33.109  37.835   0.244
65530W        W37790  29.944  14.290   4.744
65531W        W37791  18.785  41.294   1.374
65532W        W37792  35.893  43.994  14.957
65533W        W37793  25.219  16.625   3.149
65534W        W37794   0.823   0.773  12.872
65535W        W37795   9.658  16.223  14.932
65536W        W37796   8.846  14.687  13.481
65537W        W37797  24.544  40.534  11.594
65538W        W37798  40.495  32.000  11.424
65539W        W37799  39.386  34.485   2.724
65540W        W37800   5.377  24.643   1.390
65541W        W37801   5.874  24.674  13.952
65542W        W37802   7.745  35.945   2.385
65543W        W37803  23.597  25.497  10.933
65544W        W37804  20.637  24.483   3.702
65545W        W37805  25.962  41.881   2.665
65546W        W37806  26.691  35.079   2.238
65547W        W37807   9.653  27.138  10.635
65548W        W37808  27.605   5.330  11.109
65549W        W37809  16.688  38.049   3.692
65550W        W37810  32.578  44.895   1.896
65551W        W37811   9.862  19.083  13.956
65552W        W37812  37.901   3.230  13.352
65553W        W37813  10.303  40.469   1.735
65554W        W37814   3.434  39.063  12.457
65555W        W37815  12.322  19.623   2.267
65556W        W37816  12.130  36.568   3.152
65557W        W37817   3.319  28.182   2.814
65558W        W37818  31.917  36.460  14.985
65559W        W37819   4.837   3.262  13.412
65560W        W37820  40.505  19.242  12.997
65561W        W37821   8.703  31.457   1.741
65562W        W37822  35.918   8.261   1.310
65563W        W37823  39.472  21.738  14.423
65564W        W37824  27.552  43.933   2.823
65565W        W37825  25.031  28.076  12.996
65566W        W37826  19.175   1.833  12.357
65567W        W37827  40.419  33.387  12.911
65568W        W37828  26.074  41.379  10.404
65569W        W37829  39.979  36.447   1.804
65570W        W37830  10.200  34.925  12.578
65571W        W37831  13.236  15.600   5.768
65572W        W37832  27.512   4.920  11.461
65573W        W37833   7.254  24.218  10.960
65574W        W37834  35.981  24.037   0.390
65575W        W37835   9.702   7.857   0.853
65576W        W37836  26.470  33.071   2.385
65577W        W37837  22.193   2.767   2.333
65578W        W37838  28.985  36.855   1.345
65579W        W37839  39.817  35.040   3.740
65580W        W37840  21.088  42.294  12.513
65581W        W37841  33.520   8.288  13.353
65582W        W37842  38.913  31.961  11.403
65583W        W37843  22.012   7.809   3.854
65584W        W37844  13.127   5.775  13.435
65585W        W37845  11.659   1.916  13.351
65586W        W37846  38.009  25.041  12.920
65587W        W37847  22.035  37.065  10.536
65588W        W37848  14.758  14.671   0.827
65589W        W37849  18.249  44.828   4.774
65590W        W37850   2.843  42.804  11.521
65591W        W37851   4.250  13.234   2.382
65592W        W37852  33.008  16.149   4.284
65593W        W37853  40.425  39.028   9.953
65594W        W37854   5.805  34.613  10.569
65595W        W37855   9.661  31.092  11.061
65596W        W37856  22.211  11.772  12.948
65597W        W37857  40.311   0.793   0.893
65598W        W37858  16.656  32.128   2.863
65599W        W37859   4.277   8.283   0.833
65600W        W37860  24.987  21.038  12.868
65601W        W37861  29.949  43.828   3.175
65602W        W37862   0.858  20.115   4.658
65603W        W37863   6.811  28.104  12.529
65604W        W37864   0.426   5.294  14.318
65605W        W37865  43.437  28.444   2.249
65606W        W37866  31.152  20.236   4.660
65607W        W37867   1.444   5.366   2.861
65608W        W37868  29.584  19.622  11.415
65609W        W37869  25.637  37.885  11.436
65610W        W37870  36.043   8.291   0.942
65611W        W37871  26.973  30.964  12.040
65612W        W37872  35.991  15.226   2.211
65613W        W37873   8.197  39.946   3.204
65614W        W37874  13.646   9.163  12.964
65615W        W37875  28.446   7.240  12.389
65616W        W37876  20.558   9.384  14.463
65617W        W37877   7.832  28.157   5.212
65618W        W37878  37.078   2.927  12.963
65619W        W37879   3.430  43.357   1.744
65620W        W37880  14.234  34.878  13.367
65621W        W37881  10.663  22.104  14.965
65622W        W37882   7.287  38.912   4.331
65623W        W37883  27.137  25.204  13.973
65624W        W37884  14.733  38.447   1.842
65625W        W37885   6.417  44.386   4.646
65626W        W37886  20.172  30.043   4.289
65627W        W37887  16.729   7.408  11.001
65628W        W37888   0.366  41.823   1.303
65629W        W37889  23.139  39.997   4.629
65630W        W37890  26.598  26.138  11.482
65631W        W37891  19.741   3.434  10.059
65632W        W37892  34.534  17.746  11.070
65633W        W37893  23.144   4.700   1.715
65634W        W37894  43.867  28.941   2.325
65635W        W37895  17.731   8.772  13.452
65636W        W37896  30.461  14.676  10.993
65637W        W37897  19.144  41.422   1.319
65638W        W37898  35.542   4.756  11.472
65639W        W37899  29.987  42.974  11.506
65640W        W37900  38.477   8.740  13.424
65641W        W37901  39.051  44.934   2.292
65642W        W37902  43.916  12.203  14.469
65643W        W37903  33.074  15.242  12.501
65644W        W37904  36.001  41.025  11.525
65645W        W37905  44.778  11.224  14.470
65646W        W37906  44.435  12.331   4.797
65647W        W37907  21.029   7.279  10.124
65648W        W37908   0.468  20.234   2.805
65649W        W37909  10.153  37.935  13.975
65650W        W37910  43.307   1.428   1.839
65651W        W37911  28.953  21.174   1.871
65652W        W37912  11.846  30.159   3.732
65653W        W37913  29.614   7.186  10.015
65654W        W37914   5.376   3.389  12.399
65655W        W37915  43.009  34.387   4.281
65656W        W37916  22.629  28.448   3.208
65657W        W37917  34.937   7.314  14.949
65658W        W37918  26.493  27.569   4.635
65659W        W37919  44.327  33.918  12.545
65660W        W37920   2.436  24.025   0.439
65661W        W37921  21.197   0.871  14.838
65662W        W37922  31.037  34.064   1.313
65663W        W37923   4.820   7.732   4.289
65664W        W37924  17.066  12.689  11.485
65665W        W37925  30.115   5.871  12.363
65666W        W37926  18.279  21.707  13.380
65667W        W37927  33.470   1.897  11.924
65668W        W37928  25.122  33.910  13.848
65669W        W37929  38.002   6.234   1.928
65670W        W37930  39.450  34.426  11.538
65671W        W37931  11.310  32.400  12.556
65672W        W37932  11.279   0.332  13.348
65673W        W37933  35.984  28.048  12.986
65674W        W37934   7.733  12.842  11.994
65675W        W37935  23.220  34.482  10.607
65676W        W37936  27.519  42.834   4.175
65677W        W37937  22.044  43.789  14.806
65678W        W37938  14.216  10.221   2.806
65679W        W37939  32.031  18.755  14.439
65680W        W37940  29.967  31.577   2.214
65681W        W37941  22.687  11.755  10.931
65682W        W37942  38.499  32.983   3.381
65683W        W37943  36.515   9.348   0.347
65684W        W37944  31.514   3.451  14.369
65685W        W37945  29.585  22.097  10.464
65686W        W37946   5.436   3.793  14.026
65687W        W37947  39.391  44.287   2.212
65688W        W37948   7.287  39.545   2.873
65689W        W37949  18.672  18.615  13.798
65690W        W37950  25.188  13.160  13.394
65691W        W37951  24.209  37.920   3.302
65692W        W37952  10.178  17.694  12.989
65693W        W37953  38.040  32.569  14.023
65694W        W37954  29.532  16.578   3.336
65695W        W37955  24.121  43.795  13.007
65696W        W37956   6.377   8.805  10.446
65697W        W37957  17.143  10.301  13.528
65698W        W37958  38.882   7.236  12.448
65699W        W37959   5.354  15.124   1.311
65700W        W37960  43.922  25.552  12.919
65701W        W37961  21.147  24.047   0.844
65702W        W37962   7.287   8.177  14.898
65703W        W37963  35.603  15.273   1.770
65704W        W37964  41.418  25.038  13.484
65705W        W37965   1.309  44.902  12.432
65706W        W37966  17.295  35.582  10.569
65707W        W37967  37.442  10.800  12.867
65708W        W37968  14.749  22.595  10.947
65709W        W37969  42.381   7.748  13.473
65710W        W37970  30.469  12.156  12.453
65711W        W37971  11.280   4.210  14.424
65712W        W37972   2.323  16.584   2.252
65713W        W37973  15.704   1.843  11.968
65714W        W37974  34.066   5.214   4.735
65715W        W37975   1.850  26.183   3.636
65716W        W37976  23.720  11.721   1.895
65717W        W37977   6.412  32.021   2.356
65718W        W37978  37.449  36.082  11.071
65719W        W37979  39.002  10.683  12.498
65720W        W37980  43.376  21.604  14.770
65721W        W37981  40.987   7.319  11.963
65722W        W37982   8.219  11.289  14.935
65723W        W37983   6.905   0.414  13.847
65724W        W37984  12.810  44.781  12.883
65725W        W37985   5.411  42.282   0.392
65726W        W37986  40.361  38.982  12.478
65727W        W37987  12.301  27.172  12.960
65728W        W37988  26.999  13.820  11.007
65729W        W37989  44.756  16.309  11.463
65730W        W37990   1.741  26.580   1.213
65731W        W37991  16.099   8.328  14.866
65732W        W37992   0.355  11.268   2.859
65733W        W37993  32.631  11.366  13.006
65734W        W37994  44.439  14.642   4.823
65735W        W37995  15.099  17.612   0.468
65736W        W37996  15.083  42.870   4.171
65737W        W37997   2.860   6.425  12.556
65738W        W37998   4.898   0.776  10.589
65739W        W37999  10.341  37.370  11.563
65740W        W38000  27.489   3.231   0.930
65741W        W38001  33.422   9.793  11.562
65742W        W38002   2.276  40.982   1.356
65743W        W38003   5.419  37.509  10.119
65744W        W38004  37.398  41.874   2.305
65745W        W38005  19.155  10.661   2.824
65746W        W38006   1.942  44.465  12.500
65747W        W38007  14.282  27.032   0.466
65748W        W38008  17.124  27.671   2.880
65749W        W38009  11.215  29.926   1.851
65750W        W38010   8.786  35.058   4.258
65751W        W38011   2.382  24.183  11.963
65752W        W38012  19.069   5.691   3.381
65753W        W38013  34.993   5.273  13.825
65754W        W38014   3.375   9.806  10.574
65755W        W38015  13.635  43.476  13.928
65756W        W38016  20.759   9.296  14.839
65757W        W38017  30.626  10.313   0.266
65758W        W38018  28.946  12.770   3.252
65759W        W38019  10.282   8.187   3.258
65760W        W38020  44.388  32.592  13.315
65761W        W38021  38.393   3.722  11.465
65762W        W38022  12.255   7.255  10.463
65763W        W38023  10.702   5.933   0.284
65764W        W38024  31.536   6.420  10.403
65765W        W38025  21.517  22.659   2.901
65766W        W38026  20.619   9.220   2.290
65767W        W38027  24.052  27.993   1.440
65768W        W38028  36.400  27.462  11.042
65769W        W38029  29.514  21.159   2.303
65770W        W38030  13.136  14.739  12.394
65771W        W38031  19.126  14.589  11.968
65772W        W38032  17.140  19.155  11.108
65773W        W38033  34.469  22.191  10.604
65774W        W38034  24.588  43.286   2.747
65775W        W38035  30.618  31.526   1.427
65776W        W38036   2.802  18.695   4.163
65777W        W38037  22.026  42.470   2.345
65778W        W38038  27.032  32.596  13.954
65779W        W38039  30.620  27.043   0.392
65780W        W38040  43.795  10.819  14.283
65781W        W38041  21.672  44.765   1.310
65782W        W38042  21.581  18.212  12.567
65783W        W38043  40.548   0.977   2.892
65784W        W38044  30.485  30.142  14.778
65785W        W38045   9.718  25.213  12.476
65786W        W38046  17.177  12.733  10.120
65787W        W38047  14.106  29.441  11.551
65788W        W38048  33.082  26.979   0.468
65789W        W38049  15.206  31.462   0.769
65790W        W38050  15.143  16.154  12.399
65791W        W38051  32.002  22.505   3.736
65792W        W38052  17.297  15.795   3.737
65793W        W38053   8.847  19.208   1.264
65794W        W38054  29.948  44.904   2.367
65795W        W38055  15.791  10.659  14.828
65796W        W38056  21.680  24.671  13.056
65797W        W38057  40.870   9.183   1.410
65798W        W38058  29.476  43.870   2.254
65799W        W38059  15.690  18.147   0.731
65800W        W38060  18.704  26.086  11.090
65801W        W38061  21.574  23.572   2.667
65802W        W38062  14.670  18.169  11.910
65803W        W38063  37.567  13.753   1.754
65804W        W38064   3.765   3.938   1.824
65805W        W38065  20.681  26.153   0.299
65806W        W38066  34.419   2.912  12.834
65807W        W38067  18.155  11.731   1.427
65808W        W38068   8.309  26.976  10.630
65809W        W38069  39.870  19.748   1.442
65810W        W38070   0.272  14.604  14.984
65811W        W38071   1.779  44.948  14.434
65812W        W38072  18.054  42.526  11.540
65813W        W38073  27.468  34.508  10.481
65814W        W38074  40.959  37.549  10.518
65815W        W38075  25.634  32.593  11.896
65816W        W38076  34.549  14.772  12.029
65817W        W38077   4.292  11.633  12.392
65818W        W38078   6.294  37.362   2.735
65819W        W38079  29.604   9.291   2.710
65820W        W38080   7.407  12.346   4.127
65821W        W38081  35.458  13.782  11.894
65822W        W38082  34.924  29.659   1.710
65823W        W38083  42.343   3.277   1.749
65824W        W38084  29.478  42.376  11.007
65825W        W38085  10.793  26.126  11.510
65826W        W38086   0.386  41.383  12.406
65827W        W38087  44.003   2.813   4.155
65828W        W38088  10.665   5.210   2.356
65829W        W38089  21.634  16.181   3.841
65830W        W38090   3.930   7.244  13.926
65831W        W38091  37.459   0.328  13.055
65832W        W38092  38.336  20.045   1.402
65833W        W38093  13.617  44.423  10.559
65834W        W38094  11.174  33.626  11.951
65835W        W38095  41.404  38.390   4.724
65836W        W38096   5.745  29.997  12.975
65837W        W38097  32.529  36.587  11.526
65838W        W38098  16.206  31.525  14.893
65839W        W38099  42.489   3.457   0.848
65840W        W38100   1.892  18.745  13.856
65841W        W38101   2.446  20.185   0.245
65842W        W38102  17.592  40.374   4.752
65843W        W38103  44.885  36.066   3.202
65844W        W38104  38.030   5.806   0.466
65845W        W38105  22.641  13.195  11.958
65846W        W38106  27.941  32.586   3.301
65847W        W38107  29.982  11.265  13.967
65848W        W38108  22.164  43.002  11.476
65849W        W38109  23.628  26.105   5.290
65850W        W38110  28.542  10.156  12.032
65851W        W38111  19.252  35.946  14.822
65852W        W38112  11.630  28.977  11.078
65853W        W38113   7.317  35.482  14.898
65854W        W38114  27.961  43.767  12.963
65855W        W38115  41.885   3.941  10.957
65856W        W38116  30.500   9.157   3.331
65857W        W38117  14.606  21.616   0.385
65858W        W38118  20.708  12.836   0.743
65859W        W38119  26.162  11.780  12.873
65860W        W38120  29.919   7.773   2.261
65861W        W38121  10.679  28.521   2.679
65862W        W38122   8.786  38.904  13.811
65863W        W38123  32.488  44.922  14.921
65864W        W38124  44.762  19.101   2.192
65865W        W38125  30.034  15.133   4.252
65866W        W38126  18.679  14.273  12.441
65867W        W38127  18.168  28.107  14.397
65868W        W38128   9.736  10.330  13.417
65869W        W38129   8.376  35.575   4.211
65870W        W38130  25.545  24.038   4.761
65871W        W38131  14.652   6.683  14.513
65872W        W38132  10.329  31.911  14.955
65873W        W38133  30.993  33.533  11.985
65874W        W38134   7.737   9.670   4.687
65875W        W38135  33.993   1.335   3.250
65876W        W38136  38.497  32.009   2.773
65877W        W38137   3.411   0.968   3.871
65878W        W38138  30.455  36.956   3.281
65879W        W38139  17.780  12.223  12.374
65880W        W38140  15.780  24.566  12.412
65881W        W38141  10.252  30.956   4.142
65882W        W38142   2.383  12.707  14.290
65883W        W38143  32.419  41.981  14.949
65884W        W38144  12.237  43.768   3.636
65885W        W38145  11.754  39.876  10.481
65886W        W38146  24.711  18.544  12.536
65887W        W38147  14.743  28.500   0.787
65888W        W38148  25.012  44.883   1.811
65889W        W38149   5.881  42.775   4.204
65890W        W38150  13.210  38.478  10.525
65891W        W38151  18.673  11.732  10.440
65892W        W38152  18.698  12.331   0.300
65893W        W38153  42.876  11.744   0.361
65894W        W38154  17.565  31.084  11.490
65895W        W38155  30.039  31.109   1.323
65896W        W38156   9.341   5.831  13.430
65897W        W38157  33.899  13.291  12.453
65898W        W38158  36.881   8.365   0.948
65899W        W38159  40.978   8.831  12.899
65900W        W38160  25.068  21.110   0.267
65901W        W38161  28.931  22.662  11.076
65902W        W38162  20.697  11.311  11.120
65903W        W38163  36.439  19.712   2.729
65904W        W38164  38.927   7.394  13.064
65905W        W38165  30.118  37.926  11.518
65906W        W38166  12.306  34.531   4.685
65907W        W38167  18.561  21.705   4.259
65908W        W38168  11.148  17.713  14.022
65909W        W38169  24.527   3.838  13.387
65910W        W38170  42.432   9.219  14.947
65911W        W38171  14.634   3.931  13.889
65912W        W38172  11.749  24.183   2.242
65913W        W38173   3.451  16.743  12.934
65914W        W38174  33.566  42.502   0.795
65915W        W38175  38.896  43.788   2.850
65916W        W38176  39.987   4.211   0.340
65917W        W38177  32.478  40.309  11.459
65918W        W38178   2.822  22.599   3.734
65919W        W38179  25.523  36.541   1.694
65920W        W38180  14.311   5.709  13.320
65921W        W38181   3.759  23.205  11.413
65922W        W38182  23.131  28.637   5.296
65923W        W38183  22.712  36.903   0.914
65924W        W38184  23.660   3.343   3.243
65925W        W38185  30.954  13.269   2.201
65926W        W38186  22.737  11.859  10.056
65927W        W38187  18.119  10.154   1.880
65928W        W38188  16.583  40.399  10.464
65929W        W38189  11.819  15.159   4.720
65930W        W38190  11.162  10.214   0.399
65931W        W38191   7.355   3.296  13.868
65932W        W38192  23.612  30.934   0.817
65933W        W38193  37.886  23.145   4.612
65934W        W38194  31.424  24.526  11.987
65935W        W38195   7.355  20.247   4.182
65936W        W38196  31.091  20.198   3.726
65937W        W38197  28.971  10.145  11.550
65938W        W38198  31.075  35.387  11.078
65939W        W38199  39.017  13.181   1.713
65940W        W38200  13.261  26.053   1.429
65941W        W38201  17.262   8.393   1.310
65942W        W38202  16.628  40.433  13.381
65943W        W38203  28.555  22.014  14.764
65944W        W38204  42.782  30.412  11.085
65945W        W38205   4.936  19.758  13.385
65946W        W38206  19.609   3.216  13.927
65947W        W38207  27.012  12.777  14.474
65948W        W38208   8.260  13.775   1.210
65949W        W38209  35.066   8.779  13.466
65950W        W38210  14.754  29.570   1.854
65951W        W38211   5.197   2.789  13.396
65952W        W38212  26.014  34.569  13.029
65953W        W38213   4.890   9.322  13.912
65954W        W38214  43.436  27.966   0.465
65955W        W38215  11.304  33.407   0.330
65956W        W38216   7.857  24.522  11.006
65957W        W38217  38.946  16.263   2.295
65958W        W38218  15.303   0.866   4.809
65959W        W38219  13.808  13.105  14.504
65960W        W38220  28.139   4.924  14.005
65961W        W38221   4.262  25.482   2.798
65962W        W38222   7.795  30.915   0.925
65963W        W38223  35.879  21.743   1.354
65964W        W38224   7.321  26.653   3.254
65965W        W38225  23.106  16.774   1.272
65966W        W38226   9.250  24.582  14.870
65967W        W38227  14.736  32.453  14.763
65968W        W38228  42.862  10.138  12.576
65969W        W38229   7.253  17.140   1.373
65970W        W38230   9.355  25.508   3.374
65971W        W38231  24.160  30.147  11.574
65972W        W38232  19.248  23.523  12.503
65973W        W38233  16.280  30.570   5.199
65974W        W38234  29.982   2.953  13.318
65975W        W38235   6.424  19.620  14.947
65976W        W38236  28.546  12.243  11.425
65977W        W38237  38.435  23.097  13.892
65978W        W38238   4.289  25.212  14.932
65979W        W38239  25.058   6.245  11.496
65980W        W38240  21.256  44.779   2.809
65981W        W38241  22.244  11.795  12.346
65982W        W38242  44.817  39.333   1.756
65983W        W38243   8.711  43.350   3.312
65984W        W38244  26.184  20.594   2.730
65985W        W38245  11.248  23.167  14.306
65986W        W38246   9.738  16.117   0.369
65987W        W38247  15.218  16.683  12.966
65988W        W38248  29.121   8.684  11.427
65989W        W38249   4.366  35.917   1.890
65990W        W38250   0.401  43.386   0.329
65991W        W38251  20.187  27.588   0.905
65992W        W38252  34.488   0.439   0.903
65993W        W38253  42.875  18.614  13.010
65994W        W38254   3.300  10.806  12.343
65995W        W38255  30.975  25.632   2.876
65996W        W38256  44.000  23.528   4.780
65997W        W38257   3.395   4.412  14.814
65998W        W38258   0.798  35.923   5.084
65999W        W38259  31.590  41.318  14.287
66000W        W38260  19.247  14.282   0.291
66001W        W38261  37.950  17.145  12.969
66002W        W38262  24.107  28.617  10.535
66003W        W38263   8.711  44.784   3.769
66004W        W38264  11.636  24.546  12.973
66005W        W38265   0.770  39.481  14.338
66006W        W38266   1.426  26.562  14.347
66007W        W38267  42.432   8.726   4.251
66008W        W38268  11.203  36.975  13.322
66009W        W38269  13.179  22.734   0.936
66010W        W38270  23.092  39.937  14.934
66011W        W38271  14.717  33.111  14.364
66012W        W38272  13.632   8.896  11.496
66013W        W38273  32.604  24.008  14.032
66014W        W38274  44.469  25.006  11.090
66015W        W38275  42.468  32.054   0.403
66016W        W38276   3.853  24.175  13.794
66017W        W38277  16.581   8.360  12.877
66018W        W38278  40.049  14.723  12.529
66019W        W38279  22.121  35.498   1.830
66020W        W38280  12.641  32.963  13.435
66021W        W38281  40.951  38.049  13.979
66022W        W38282  28.166  38.987  10.467
66023W        W38283  14.788  43.359  13.913
66024W        W38284  35.445  37.993   2.798
66025W        W38285  19.756  15.693   2.340
66026W        W38286  27.155  27.055   1.346
66027W        W38287  42.918   1.468  11.906
66028W        W38288  43.909   9.308   0.774
66029W        W38289  10.168  44.283  13.032
66030W        W38290  17.765  30.919  11.074
66031W        W38291  25.202  29.563   3.686
66032W        W38292  23.051  36.071   1.322
66033W        W38293   8.229  35.602  12.978
66034W        W38294   5.754  24.004  12.841
66035W        W38295  18.654   3.728   1.839
66036W        W38296  33.898   2.393   4.760
66037W        W38297  33.954  27.689  14.972
66038W        W38298  43.348  38.946   4.771
66039W        W38299  23.586  10.304   1.289
66040W        W38300  24.069  35.886   3.256
66041W        W38301  28.155  30.517  14.024
66042W        W38302  19.605  20.115  12.386
66043W        W38303  21.223  41.295  13.948
66044W        W38304  29.087  14.722  10.457
66045W        W38305  19.055  31.619  12.340
66046W        W38306  10.157  37.999   3.183
66047W        W38307  24.184   6.684   0.435
66048W        W38308  38.897  38.932   2.872
66049W        W38309   7.710  11.260  12.860
66050W        W38310   0.789  40.946   4.679
66051W        W38311  39.912  22.080  11.459
66052W        W38312  17.147  10.827  11.490
66053W        W38313  35.073   5.848  14.966
66054W        W38314  43.456  32.036  11.112
66055W        W38315  35.886  44.932  14.443
66056W        W38316  42.445   4.708   0.906
66057W        W38317  22.224   7.414   4.354
66058W        W38318  44.979  15.102  11.389
66059W        W38319   6.346   6.764   2.745
66060W        W38320  40.531  33.998   2.318
66061W        W38321  34.891  16.235  12.408
66062W        W38322  43.890   7.173   3.271
66063W        W38323  40.461  18.787  11.070
66064W        W38324  38.436  40.546   0.288
66065W        W38325  15.764   0.376  12.542
66066W        W38326   1.424   0.420   3.386
66067W        W38327   4.261  26.678   5.616
66068W        W38328   7.710   5.197  12.547
66069W        W38329   3.299  11.633  10.595
66070W        W38330  16.741  23.044  13.017
66071W        W38331  14.151  31.048   5.595
66072W        W38332  11.705   2.779  13.351
66073W        W38333  20.626   8.206   0.737
66074W        W38334  26.559  41.825  14.329
66075W        W38335  41.513  26.986  10.985
66076W        W38336  16.216  43.987  10.591
66077W        W38337  32.568  31.085  13.504
66078W        W38338  31.474  39.957   1.795
66079W        W38339  16.143   2.311   4.271
66080W        W38340  23.512   6.386  12.885
66081W        W38341  31.967  43.851   0.449
66082W        W38342  23.025  43.855   2.748
66083W        W38343   4.844  22.168   1.395
66084W        W38344  23.532  39.432   4.818
66085W        W38345  11.291  38.365   1.346
66086W        W38346  25.567  14.160   0.277
66087W        W38347  15.255  31.971  10.983
66088W        W38348  16.808  36.420  10.607
66089W        W38349  44.498  35.523   4.329
66090W        W38350  28.041   6.741  13.405
66091W        W38351  43.990   0.976  12.913
66092W        W38352  43.321   5.364  10.945
66093W        W38353  33.423  25.964   3.307
66094W        W38354   2.827  35.971  13.466
66095W        W38355  25.630  38.426   0.927
66096W        W38356   9.174  44.390  11.433
66097W        W38357  31.433   6.811  11.042
66098W        W38358  17.565   9.266   2.705
66099W        W38359  37.437  18.076   2.737
66100W        W38360  16.603   7.216  10.568
66101W        W38361  34.435  36.905  14.503
66102W        W38362   4.236  20.197  12.976
66103W        W38363  24.072  34.568  14.899
66104W        W38364  11.325   0.989   4.141
66105W        W38365  11.160  26.985   1.897
66106W        W38366  13.314  26.542  14.823
66107W        W38367   7.716  14.651  10.519
66108W        W38368  44.886  36.009   1.775
66109W        W38369   7.355  41.027   3.751
66110W        W38370  40.006  17.725   1.906
66111W        W38371  38.481  10.271  13.421
66112W        W38372  23.517  40.442  11.480
66113W        W38373  40.346   5.694  12.491
66114W        W38374  19.630  34.112  14.320
66115W        W38375  29.509   9.199   4.622
66116W        W38376   1.855  10.287   4.732
66117W        W38377  29.624  25.524   0.270
66118W        W38378  11.243  40.433   0.466
66119W        W38379  36.846  31.422  13.445
66120W        W38380  44.788   0.428   3.239
66121W        W38381  14.243  34.895   3.369
66122W        W38382   4.731  23.725   0.327
66123W        W38383  26.639  11.340   0.289
66124W        W38384   3.916  34.968  14.416
66125W        W38385   1.782   1.289   2.847
66126W        W38386   0.769  15.655   3.336
66127W        W38387  27.009  19.066   0.742
66128W        W38388  15.809  13.170  13.976
66129W        W38389  15.714  30.632  10.034
66130W        W38390  12.626  27.119  10.059
66131W        W38391  26.185  33.027   2.667
66132W        W38392   1.817  25.205   0.383
66133W        W38393   9.687  24.087   0.306
66134W        W38394  36.850  41.426  14.514
66135W        W38395  16.635  36.970  11.029
66136W        W38396  31.020  14.805  12.929
66137W        W38397  22.132  40.434  14.304
66138W        W38398  25.671  25.995   3.363
66139W        W38399  11.651  31.971   9.920
66140W        W38400  18.580  39.826  14.838
66141W        W38401  20.086  44.334  11.575
66142W        W38402  26.145   1.352  14.933
66143W        W38403  31.060  23.490   0.325
66144W        W38404   2.257  34.091   3.383
66145W        W38405  42.775  16.141   1.777
66146W        W38406  25.581  29.090  11.510
66147W        W38407   3.739  39.819  14.805
66148W        W38408  12.805   8.350  11.005
66149W        W38409  12.269  39.980   3.226
66150W        W38410  17.726  43.925  14.444
66151W        W38411  13.614  38.522   4.694
66152W        W38412  16.609   3.730   2.236
66153W        W38413  14.096  43.296   1.425
66154W        W38414  12.634  13.206  10.908
66155W        W38415  33.941  41.510   0.872
66156W        W38416   8.292  25.479  11.100
66157W        W38417  28.159  16.576   1.706
66158W        W38418   2.759  35.071   2.707
66159W        W38419  19.184  36.352  10.540
66160W        W38420  34.527  36.486  11.881
66161W        W38421  34.881   9.367   1.440
66162W        W38422  25.614  25.539   3.726
66163W        W38423  44.353  28.640   3.203
66164W        W38424   1.857   6.744   1.312
66165W        W38425   0.320   9.155   2.836
66166W        W38426  10.757  29.617  13.810
66167W        W38427   7.388  25.976   5.180
66168W        W38428  19.091   3.292   3.775
66169W        W38429  25.128  16.577  10.906
66170W        W38430  12.746  35.472  11.517
66171W        W38431  22.996  40.547  10.999
66172W        W38432   8.844  36.543  12.993
66173W        W38433  17.170  42.340   4.327
66174W        W38434  27.523  44.801  10.474
66175W        W38435   0.912  37.038  14.400
66176W        W38436  28.981  35.503  11.924
66177W        W38437   0.796  35.555   9.958
66178W        W38438   8.668  19.148  13.382
66179W        W38439  41.841   4.779   0.321
66180W        W38440   9.672  41.815  11.907
66181W        W38441   8.891  34.980  11.041
66182W        W38442  14.276  25.186  10.434
66183W        W38443  43.444  17.149  11.967
66184W        W38444  19.236   9.210  14.913
66185W        W38445  34.474  14.774  12.941
66186W        W38446   9.696  39.363  14.515
66187W        W38447   9.735   7.275   4.154
66188W        W38448  13.319  38.969  11.557
66189W        W38449  23.667  37.500   4.672
66190W        W38450  20.579  11.696   0.442
66191W        W38451  10.174  18.702   5.173
66192W        W38452  29.652  14.788   0.359
66193W        W38453  35.544  17.264   0.269
66194W        W38454  29.555   4.436  11.125
66195W        W38455  15.105  41.976   2.807
66196W        W38456  17.128  38.389  13.025
66197W        W38457  27.972  12.134  10.917
66198W        W38458  28.045  21.088  12.511
66199W        W38459  40.917   0.988   3.239
66200W        W38460  42.968  42.786   4.353
66201W        W38461  23.602  21.517  10.892
66202W        W38462  26.589  40.374  10.596
66203W        W38463   3.792  10.762   4.132
66204W        W38464  38.550   9.272  14.478
66205W        W38465  24.656  22.512   0.929
66206W        W38466  30.959  22.677  10.419
66207W        W38467  38.952  30.968   4.313
66208W        W38468  34.586   1.931  13.420
66209W        W38469  36.952   3.780   0.784
66210W        W38470  28.459   2.846  11.096
66211W        W38471  10.172   0.860   4.819
66212W        W38472  36.444   6.299  13.962
66213W        W38473  44.376  19.095   2.321
66214W        W38474  33.536   1.351  10.565
66215W        W38475  21.191  40.036   0.304
66216W        W38476   4.916  17.674   4.145
66217W        W38477  29.090  12.206  11.119
66218W        W38478  23.185  40.943  11.904
66219W        W38479  13.326   3.359  12.574
66220W        W38480  36.443  30.642   1.404
66221W        W38481   4.762  33.010  11.109
66222W        W38482   4.920  17.564  11.408
66223W        W38483  41.945  14.598   3.146
66224W        W38484  44.483  25.184   4.144
66225W        W38485  40.915  30.053  11.962
66226W        W38486   4.264   5.750  13.468
66227W        W38487  40.533  29.465   5.111
66228W        W38488  12.724  44.388  11.880
66229W        W38489  11.804  35.920  13.323
66230W        W38490  25.022  25.022   2.228
66231W        W38491  30.440  16.673   1.804
66232W        W38492  30.132  34.577   3.670
66233W        W38493  10.738   5.863   3.770
66234W        W38494  15.099  19.548   3.765
66235W        W38495   0.310  18.059   3.859
66236W        W38496  26.029  42.420  14.009
66237W        W38497  42.493  38.020   3.759
66238W        W38498   9.663  42.506   0.938
66239W        W38499  34.603  28.600  10.615
66240W        W38500  23.615  39.338   4.276
66241W        W38501  31.150   6.393  11.907
66242W        W38502  28.170  12.622  14.458
66243W        W38503  29.554  39.472   2.881
66244W        W38504  18.235  21.673   3.667
66245W        W38505  38.038   9.178   3.235
66246W        W38506  21.676  26.456  12.846
66247W        W38507  43.905   1.319   1.421
66248W        W38508  13.347   2.736  12.410
66249W        W38509  25.656  28.131  14.961
66250W        W38510  23.052  33.925   1.262
66251W        W38511  11.703  27.146  11.947
66252W        W38512  37.857   4.918  14.020
66253W        W38513   0.769  38.842   0.763
66254W        W38514  10.340  10.738   2.672
66255W        W38515   9.184   9.870  12.503
66256W        W38516  22.013  23.597  10.967
66257W        W38517  44.352  35.506   0.317
66258W        W38518  26.999  43.438  10.423
66259W        W38519  29.551  34.488  12.868
66260W        W38520  24.676  10.294  11.887
66261W        W38521  35.562  18.179  11.398
66262W        W38522  16.639  20.573  14.509
66263W        W38523   0.400   1.290  13.848
66264W        W38524  14.136   3.245   0.757
66265W        W38525  23.149   4.286  12.073
66266W        W38526  16.130   5.306  12.992
66267W        W38527  29.521  24.617  11.401
66268W        W38528   5.829  23.145   3.204
66269W        W38529  42.330  24.206  14.424
66270W        W38530  13.790  17.174  13.508
66271W        W38531  43.781  26.613   5.210
66272W        W38532   1.470   7.742  12.545
66273W        W38533   4.714  33.625  14.784
66274W        W38534  26.679   9.325  11.909
66275W        W38535  23.729   5.912   3.845
66276W        W38536  25.581  40.479  14.858
66277W        W38537  13.125  25.680   0.791
66278W        W38538   1.477  41.976   2.399
66279W        W38539   8.347  34.562   4.299
66280W        W38540   8.318   0.272   4.783
66281W        W38541  19.256  32.581  13.411
66282W        W38542  39.993   8.268   4.296
66283W        W38543  11.643  28.487   5.221
66284W        W38544  11.214  35.603   0.372
66285W        W38545  12.826  39.538  13.811
66286W        W38546   7.258  34.433  13.502
66287W        W38547  39.020  16.692  11.018
66288W        W38548  29.631   2.351  10.517
66289W        W38549  40.974  43.815  11.863
66290W        W38550  14.600  19.657  14.869
66291W        W38551  20.157  11.154   3.786
66292W        W38552   1.374  21.194  13.460
66293W        W38553  34.869  14.269  11.883
66294W        W38554  44.938  26.538   2.876
66295W        W38555   6.401  40.838  11.475
66296W        W38556  16.793  33.455  12.444
66297W        W38557  36.435  32.910   2.780
66298W        W38558  43.364  22.688  11.588
66299W        W38559  38.907  31.522  11.953
66300W        W38560   0.433  35.978  10.550
66301W        W38561   0.442  24.102  10.645
66302W        W38562  22.730  27.542   0.919
66303W        W38563  37.876  34.093  14.429
66304W        W38564  33.049  18.571   3.323
66305W        W38565  43.394  37.045  12.445
66306W        W38566  42.878  28.185  10.460
66307W        W38567   7.403  18.234   0.803
66308W        W38568   6.919  16.575   0.817
66309W        W38569  24.623   0.979   2.336
66310W        W38570  23.548  14.098  10.972
66311W        W38571  13.612  30.093   1.277
66312W        W38572   3.408   3.257   3.796
66313W        W38573   0.942  38.483   2.241
66314W        W38574  41.486  21.561   4.651
66315W        W38575   5.263  17.619  12.451
66316W        W38576  16.123   4.851  10.424
66317W        W38577  18.166   7.903  12.965
66318W        W38578   6.810  42.300  11.423
66319W        W38579  32.463  10.732   1.733
66320W        W38580  22.717   0.795   0.256
66321W        W38581  34.021  19.231  11.488
66322W        W38582  30.576  36.506  12.988
66323W        W38583  21.195  25.626   2.825
66324W        W38584  42.463  24.567  13.980
66325W        W38585  23.642  28.974   3.863
66326W        W38586   1.258  38.453  11.066
66327W        W38587  35.554  18.168   3.152
66328W        W38588  36.365  30.611  12.517
66329W        W38589  22.133   1.886   1.930
66330W        W38590  27.106  13.757  14.886
66331W        W38591   5.817  33.459   1.328
66332W        W38592  22.095  38.378  13.407
66333W        W38593  36.444  25.094  14.385
66334W        W38594  29.062  29.529  12.487
66335W        W38595  13.227  17.658  14.509
66336W        W38596   2.322   8.887  11.385
66337W        W38597   6.901  17.207  14.840
66338W        W38598  32.940  13.293   2.886
66339W        W38599   8.233  34.415   2.297
66340W        W38600  13.772   7.277  14.296
66341W        W38601  39.952  16.109   3.338
66342W        W38602  22.023  24.661  13.537
66343W        W38603  17.788  44.885  13.518
66344W        W38604  40.467   5.240   1.237
66345W        W38605  12.172  20.028  13.838
66346W        W38606  43.386  26.073   1.391
66347W        W38607  25.172   2.347  13.434
66348W        W38608   1.772  36.454   4.749
66349W        W38609  34.430  18.594  11.119
66350W        W38610   8.724   1.845   4.268
66351W        W38611   8.305   1.748  10.942
66352W        W38612  21.615  37.507   4.699
66353W        W38613  17.096   0.283   3.293
66354W        W38614   6.857  27.051  12.345
66355W        W38615   8.734  30.612  12.053
66356W        W38616  20.037  24.042   4.739
66357W        W38617   1.936  39.063   3.245
66358W        W38618  33.498   6.282  14.952
66359W        W38619  32.484  17.121   3.271
66360W        W38620  17.305   4.310   4.620
66361W        W38621   8.898  29.566   0.871
66362W        W38622  24.165  16.144  12.383
66363W        W38623  25.473   2.463   4.295
66364W        W38624   8.821  36.437   1.723
66365W        W38625  25.530  30.918  12.500
66366W        W38626  44.855  13.780   4.627
66367W        W38627   5.696   5.207  12.366
66368W        W38628  26.608   6.723   1.860
66369W        W38629  12.702  29.575   4.184
66370W        W38630  17.684  18.611   4.607
66371W        W38631  13.607  11.753   0.954
66372W        W38632  34.987  18.767  10.158
66373W        W38633  23.139   4.885  12.995
66374W        W38634  26.479   0.338   5.290
66375W        W38635  29.594  20.588  11.942
66376W        W38636  15.179  23.031  14.463
66377W        W38637  43.293  24.485   1.438
66378W        W38638  23.568  23.218  12.842
66379W        W38639  17.176  43.818  11.022
66380W        W38640  10.822   3.715  10.587
66381W        W38641  22.075  28.478   2.372
66382W        W38642   4.725  44.496  14.403
66383W        W38643   2.723   1.396   2.185
66384W        W38644  42.812   8.762  12.079
66385W        W38645  44.354  19.274   3.352
66386W        W38646  37.072  25.064  12.392
66387W        W38647  32.460  18.180   0.384
66388W        W38648  18.640   8.345   1.718
66389W        W38649  11.174  16.213  14.950
66390W        W38650  19.722  18.555  12.080
66391W        W38651   8.791  11.208   2.795
66392W        W38652  29.997  38.533  10.471
66393W        W38653   0.957  21.518  12.923
66394W        W38654  12.791  11.733  11.963
66395W        W38655  36.519  20.546  14.391
66396W        W38656  24.044   6.243  14.408
66397W        W38657  16.249  43.354   1.709
66398W        W38658  33.903  40.971   1.434
66399W        W38659  29.945  35.378   4.332
66400W        W38660  19.725  41.311  14.294
66401W        W38661  39.850   1.777  11.960
66402W        W38662  18.548   5.326   1.737
66403W        W38663   2.852  26.005  13.007
66404W        W38664  35.866  17.669   3.231
66405W        W38665  31.635  18.060   1.902
66406W        W38666  37.515   3.408   3.746
66407W        W38667   8.741  12.726  12.917
66408W        W38668  17.293  22.513  12.566
66409W        W38669  36.883   6.200  14.918
66410W        W38670  16.175  31.614   0.815
66411W        W38671  34.076  37.031  11.611
66412W        W38672  32.462   6.206  12.871
66413W        W38673  36.030  10.730   2.302
66414W        W38674  17.734  15.589   2.268
66415W        W38675  11.750  13.731   3.713
66416W        W38676  40.947  43.449   0.771
66417W        W38677  13.311  27.631  10.537
66418W        W38678   1.815  18.249   2.250
66419W        W38679  15.086  21.649  11.409
66420W        W38680  42.471  29.581  10.892
66421W        W38681   6.207  31.008  13.942
66422W        W38682  20.078  36.888  11.080
66423W        W38683   0.335  34.911  11.609
66424W        W38684  19.635  32.622  13.911
66425W        W38685  21.156  40.051   1.923
66426W        W38686  15.170  17.250  10.539
66427W        W38687  11.700  33.108  12.441
66428W        W38688  41.467  34.019   3.702
66429W        W38689  24.169  21.166  10.572
66430W        W38690  20.668  10.709   3.334
66431W        W38691  41.801  13.791  13.350
66432W        W38692   9.803  34.069  12.031
66433W        W38693  43.923   7.378  11.920
66434W        W38694   7.270  33.533  11.082
66435W        W38695  19.657  37.930   2.269
66436W        W38696  10.636  26.670  11.971
66437W        W38697  18.709  16.598  14.356
66438W        W38698  22.104  43.022  14.855
66439W        W38699   6.263  25.635   2.819
66440W        W38700  31.940  28.167  11.069
66441W        W38701   1.448  26.645   3.642
66442W        W38702  41.922   1.816   2.806
66443W        W38703  21.041  19.609   3.823
66444W        W38704  41.787  20.709  14.853
66445W        W38705  18.623  21.659  13.873
66446W        W38706   6.385  38.376   3.825
66447W        W38707   9.866   4.345  12.556
66448W        W38708  27.586  37.416   0.425
66449W        W38709  15.314   2.889   0.394
66450W        W38710   9.658  16.667   3.712
66451W        W38711  10.766   1.449   2.358
66452W        W38712  33.577  23.682  12.485
66453W        W38713   9.747   7.285   0.414
66454W        W38714  29.595  18.291   1.882
66455W        W38715  20.643  41.909  10.423
66456W        W38716  14.334  41.409  10.612
66457W        W38717  34.612  30.584   1.252
66458W        W38718  13.659  43.905  11.611
66459W        W38719  26.055  40.849  10.076
66460W        W38720   3.254  24.616  13.355
66461W        W38721  19.608   9.823   1.363
66462W        W38722  29.431   4.781   2.801
66463W        W38723  28.169  40.454  12.349
66464W        W38724  39.330  25.084  12.853
66465W        W38725   0.423  28.653  14.949
66466W        W38726  39.439   7.297   9.561
66467W        W38727  19.280  19.725   1.789
66468W        W38728  18.783  25.599  13.404
66469W        W38729   1.250  34.100   0.360
66470W        W38730  41.328  27.513   0.853
66471W        W38731  26.123   7.906  12.064
66472W        W38732   0.947  43.394  11.542
66473W        W38733   0.271  30.423   3.811
66474W        W38734   7.202  38.393  12.838
66475W        W38735  37.931  25.207  12.017
66476W        W38736  21.241   4.909   9.946
66477W        W38737   2.920   0.884   0.423
66478W        W38738  19.279  21.192   0.934
66479W        W38739   4.891  13.137   3.712
66480W        W38740   0.774  15.784  10.039
66481W        W38741  27.478  15.256   1.370
66482W        W38742   5.785  12.786   2.729
66483W        W38743  23.493  13.284  14.294
66484W        W38744  39.840  28.183   1.304
66485W        W38745  19.193  18.592   1.250
66486W        W38746  43.817  18.062   2.802
66487W        W38747  15.716  11.289   4.273
66488W        W38748  24.201  36.415   4.604
66489W        W38749  28.947  16.638   1.379
66490W        W38750  16.193  44.792  11.947
66491W        W38751  14.175   2.259   5.088
66492W        W38752  37.950  37.023   4.342
66493W        W38753  27.031  16.570   4.217
66494W        W38754  27.136  17.568   4.684
66495W        W38755  25.605  38.990   2.773
66496W        W38756   8.272  23.670   1.290
66497W        W38757  24.522  22.594  12.509
66498W        W38758  16.647  21.647  10.494
66499W        W38759  15.208  11.271   1.747
66500W        W38760  26.556  42.829   2.367
66501W        W38761  12.240  16.163  14.996
66502W        W38762  18.074  25.217  14.355
66503W        W38763  34.868  16.696   3.341
66504W        W38764  35.398  27.037  12.087
66505W        W38765  31.493  11.643  12.044
66506W        W38766  44.804  31.120   0.937
66507W        W38767  36.027  19.553   2.676
66508W        W38768  28.088  10.273   1.879
66509W        W38769  34.502  28.118  13.939
66510W        W38770  16.162  28.556   2.734
66511W        W38771  44.497   6.385  13.322
66512W        W38772  27.522  34.592  12.894
66513W        W38773  32.480  15.097   2.250
66514W        W38774  17.658  35.554   0.779
66515W        W38775  14.779  28.663   0.281
66516W        W38776  12.235   0.829  14.467
66517W        W38777  30.522  43.493  13.428
66518W        W38778  23.730  15.764   3.383
66519W        W38779  41.003  32.142  13.034
66520W        W38780  34.395  16.665   3.653
66521W        W38781  44.977  23.221  12.963
66522W        W38782   4.371  42.287  14.870
66523W        W38783  25.217  37.069   4.155
66524W        W38784  44.381  24.123   0.346
66525W        W38785  18.556   2.862  12.070
66526W        W38786  37.861   9.855   4.743
66527W        W38787  21.216  39.986  13.309
66528W        W38788  22.652  26.489  10.507
66529W        W38789  38.378  32.987   1.766
66530W        W38790  18.603  32.625  12.922
66531W        W38791  34.437   8.253  13.428
66532W        W38792  24.033  26.502   3.308
66533W        W38793  21.156  41.821   3.785
66534W        W38794  39.476  34.865  14.760
66535W        W38795  13.710  27.571  10.599
66536W        W38796  32.931   2.793   1.435
66537W        W38797  43.818   1.445   3.208
66538W        W38798   3.820  17.564  14.984
66539W        W38799  40.812   1.948   2.190
66540W        W38800  20.530  31.571   3.782
66541W        W38801  34.018  14.829  14.486
66542W        W38802  37.087   9.365   0.364
66543W        W38803  17.161  43.771  14.783
66544W        W38804  41.867  10.707  13.059
66545W        W38805  27.053  35.464  14.896
66546W        W38806  30.524  31.635   3.328
66547W        W38807   2.317  30.958  12.847
66548W        W38808  38.857  21.534  14.463
66549W        W38809  21.083  39.320   0.859
66550W        W38810  26.165  25.978   3.742
66551W        W38811   9.690  28.159  11.436
66552W        W38812  11.341  11.346   4.210
66553W        W38813   2.348  14.150  12.379
66554W        W38814  12.130  34.903  13.934
66555W        W38815  43.377  20.102   2.816
66556W        W38816  32.630   2.381  11.559
66557W        W38817   3.788  44.482   1.308
66558W        W38818  39.529  33.488   3.312
66559W        W38819  19.686   2.452  10.439
66560W        W38820  38.502  12.707  13.880
66561W        W38821  38.985  15.712  11.390
66562W        W38822  16.277  33.387  11.079
66563W        W38823  40.987  33.898  14.478
66564W        W38824  44.327  13.800  11.934
66565W        W38825  17.171   9.322   2.279
66566W        W38826  22.652  41.917   0.366
66567W        W38827  37.417   6.883  11.020
66568W        W38828  41.958  32.972   2.835
66569W        W38829  18.252  38.339   0.386
66570W        W38830  20.105  27.049  13.819
66571W        W38831  11.828  27.942  12.964
66572W        W38832  11.272  38.569   0.779
66573W        W38833   1.790  40.908  12.949
66574W        W38834  24.682   5.207   2.407
66575W        W38835  34.871  34.986  10.531
66576W        W38836  40.962  16.272  13.394
66577W        W38837  25.995  39.937  14.943
66578W        W38838  28.132  24.052  14.300
66579W        W38839  37.894  33.099   2.310
66580W        W38840  43.829   6.289   3.266
66581W        W38841  18.765  32.959  10.487
66582W        W38842  31.036  18.615   2.215
66583W        W38843  27.035  24.538   1.890
66584W        W38844  29.442  24.024   1.444
66585W        W38845  33.622   1.904   1.835
66586W        W38846  23.610  44.303   1.799
66587W        W38847  41.878  18.172   3.671
66588W        W38848   6.782  37.033   2.243
66589W        W38849  25.030   1.805  14.759
66590W        W38850  36.087  30.079   2.900
66591W        W38851  30.608  20.765   3.251
66592W        W38852  24.656  33.053   1.814
66593W        W38853  26.660  23.136   3.658
66594W        W38854   5.194   3.283   2.829
66595W        W38855  26.985  20.044   1.323
66596W        W38856   7.837  43.859   4.352
66597W        W38857   5.273  31.620  14.331
66598W        W38858  22.718  42.369   3.265
66599W        W38859  25.979  42.309  13.474
66600W        W38860   5.870  27.612  14.947
66601W        W38861  12.171  32.533   3.159
66602W        W38862  26.960   9.316   2.344
66603W        W38863  30.910   1.957   4.638
66604W        W38864  15.120  37.340  14.507
66605W        W38865  33.028   6.211   4.198
66606W        W38866  44.785  17.189   4.178
66607W        W38867  18.084  23.229   1.910
66608W        W38868  43.270  40.464   2.823
66609W        W38869  35.028  29.173   2.239
66610W        W38870   0.385  44.884   0.839
66611W        W38871   9.380  25.121   5.101
66612W        W38872  33.989  13.607   4.207
66613W        W38873   6.770  29.655  11.021
66614W        W38874   8.300  40.415   0.346
66615W        W38875   4.927   5.252  12.563
66616W        W38876  15.217  37.839  10.569
66617W        W38877  14.200  41.434  11.519
66618W        W38878   1.364  37.561   3.320
66619W        W38879  32.051   7.715   4.301
66620W        W38880   6.184  40.420  14.874
66621W        W38881   4.237  35.931  14.808
66622W        W38882  18.559  14.312  10.926
66623W        W38883  12.359  25.584   0.355
66624W        W38884  31.109  23.601   1.902
66625W        W38885  14.317  34.602   2.240
66626W        W38886  43.331  12.287   0.278
66627W        W38887  26.493   4.731   5.199
66628W        W38888   0.964  15.695   2.789
66629W        W38889  18.112   3.250   0.274
66630W        W38890  27.979   0.842  10.565
66631W        W38891  10.245  36.429  13.338
66632W        W38892  30.025   3.417   2.802
66633W        W38893   6.356  16.281  14.834
66634W        W38894   4.796  23.184  11.902
66635W        W38895  21.169  11.630   4.171
66636W        W38896  20.116  25.713  10.926
66637W        W38897  41.372   9.395   2.672
66638W        W38898  34.420   9.733   0.478
66639W        W38899  15.797  15.182  13.424
66640W        W38900   6.784   0.754   0.752
66641W        W38901  43.006   0.978   2.248
66642W        W38902  17.780   5.931   0.314
66643W        W38903   7.277   7.348   1.230
66644W        W38904  35.921   1.269   4.328
66645W        W38905   4.881  44.006  11.563
66646W        W38906  14.715  37.014  10.978
66647W        W38907   7.391  21.248   3.342
66648W        W38908   5.431  28.052   0.787
66649W        W38909  26.003   7.238   2.867
66650W        W38910  34.420  26.097   4.718
66651W        W38911  21.619  39.522   1.297
66652W        W38912  36.095  37.456   3.338
66653W        W38913  13.329   0.805  11.005
66654W        W38914  12.348  25.034  13.346
66655W        W38915   0.348  39.934   0.930
66656W        W38916  40.397  21.729   4.172
66657W        W38917  39.489   5.823  13.969
66658W        W38918  32.446   4.255  14.276
66659W        W38919  13.702  28.115  10.127
66660W        W38920  28.934  38.950  12.418
66661W        W38921  12.345  18.644  14.020
66662W        W38922  23.567  33.535   1.407
66663W        W38923  33.009  24.230   1.263
66664W        W38924  19.603  41.958   4.667
66665W        W38925  29.113   3.868   4.731
66666W        W38926  30.591   6.280  13.374
66667W        W38927  18.586  41.489   5.282
66668W        W38928  13.639  38.503  14.404
66669W        W38929  27.992  28.583   1.793
66670W        W38930   7.841  33.494  11.455
66671W        W38931   3.262  22.088  14.385
66672W        W38932  19.245   6.218  10.498
66673W        W38933  35.948   1.283   1.326
66674W        W38934  32.509   2.779   1.336
66675W        W38935  26.122  28.063   2.409
66676W        W38936  37.928  29.972   0.937
66677W        W38937  26.147  40.874   0.957
66678W        W38938  16.219  30.627  14.459
66679W        W38939  22.069   2.919   1.370
66680W        W38940  26.154  42.478  14.889
66681W        W38941  20.261  16.132   4.124
66682W        W38942  26.997  30.449  12.016
66683W        W38943  38.452  17.597  12.059
66684W        W38944   0.775  21.200   9.958
66685W        W38945  22.630  31.106   0.328
66686W        W38946  34.531  37.020   4.829
66687W        W38947  39.539  12.235  14.999
66688W        W38948  14.792  18.665  14.851
66689W        W38949  15.645  24.975   0.767
66690W        W38950  23.547   4.405  11.546
66691W        W38951  33.542   3.400  13.981
66692W        W38952   7.675   9.318  12.973
66693W        W38953  34.899  27.460   2.403
66694W        W38954  24.096  20.069  11.596
66695W        W38955  13.209  17.123   2.303
66696W        W38956  12.794  11.320  13.955
66697W        W38957  16.678  39.368  10.962
66698W        W38958  22.709  34.586   1.287
66699W        W38959  24.082  14.725  12.989
66700W        W38960  14.113  25.701   3.849
66701W        W38961  44.900   7.302  10.594
66702W        W38962  38.905  24.666  13.518
66703W        W38963  16.196  27.187   0.943
66704W        W38964  30.057  40.520   0.295
66705W        W38965  34.523   5.374   4.628
66706W        W38966  33.938   2.801   0.746
66707W        W38967   3.782  13.216  12.907
66708W        W38968  11.301   1.888  11.478
66709W        W38969  14.283  13.673  12.359
66710W        W38970  27.950  15.316   3.719
66711W        W38971  23.152  14.213   4.664
66712W        W38972  10.143  13.323   2.376
66713W        W38973  14.607  10.850   1.292
66714W        W38974   6.764  38.847   2.379
66715W        W38975  14.109  11.132  10.540
66716W        W38976  18.761  17.136  13.340
66717W        W38977   3.312  39.919  13.799
66718W        W38978  10.700  28.464  11.389
66719W        W38979  36.894   1.322   2.787
66720W        W38980   5.334  37.566   1.242
66721W        W38981   3.442  18.248  14.511
66722W        W38982  32.003  11.215   3.172
66723W        W38983  11.623  31.118   1.900
66724W        W38984  27.538  27.491   2.866
66725W        W38985  36.577  18.143  13.808
66726W        W38986   7.737   5.789   1.343
66727W        W38987  44.904  42.319   3.736
66728W        W38988  20.695   6.348  11.375
66729W        W38989  15.171  29.965  10.022
66730W        W38990  23.167  23.103   2.232
66731W        W38991  27.577  40.897  11.381
66732W        W38992  43.989  25.979   4.281
66733W        W38993  11.178   7.301   1.815
66734W        W38994  20.131  22.168  14.016
66735W        W38995  25.654  42.803   3.228
66736W        W38996   3.937  30.491   0.325
66737W        W38997  11.847  39.881  13.877
66738W        W38998  23.184   4.866  14.841
66739W        W38999  37.917  44.880  10.993
66740W        W39000  13.714   8.354  12.068
66741W        W39001   1.384  15.703   3.806
66742W        W39002   3.455  41.398   4.187
66743W        W39003  25.162  37.520  12.380
66744W        W39004  36.088  38.845   2.353
66745W        W39005  19.122  11.285  10.992
66746W        W39006  17.767  36.040   3.633
66747W        W39007  26.673  34.986  10.907
66748W        W39008   2.460  11.203  12.397
66749W        W39009   2.285  17.230  12.067
66750W        W39010  29.942  20.245  12.047
66751W        W39011  11.705   1.385   4.674
66752W        W39012  40.919  22.250  10.512
66753W        W39013  18.666  21.060  11.077
66754W        W39014  28.986  24.539   4.130
66755W        W39015   4.753  12.239   3.240
66756W        W39016  15.580   5.343  14.301
66757W        W39017  32.028   1.936  10.901
66758W        W39018   9.744  21.514   3.841
66759W        W39019  19.706  32.000   0.750
66760W        W39020  30.153  43.475  14.282
66761W        W39021  14.693  44.861  12.050
66762W        W39022  36.867  13.314   1.377
66763W        W39023  38.915  10.233  14.501
66764W        W39024  15.124  13.327   3.157
66765W        W39025  31.030  28.991   4.697
66766W        W39026  11.817   2.865  11.945
66767W        W39027  17.689   0.742  13.029
66768W        W39028   8.245  32.390   2.211
66769W        W39029  23.188  16.802  14.764
66770W        W39030  40.886  24.089   4.739
66771W        W39031  18.058  12.628  14.953
66772W        W39032  35.520  22.721   4.833
66773W        W39033  22.694  17.178  11.058
66774W        W39034   9.379  40.525  13.416
66775W        W39035  30.095  10.714   1.256
66776W        W39036  21.586  23.658  11.439
66777W        W39037   1.967  19.624   4.658
66778W        W39038  16.216   7.758  12.347
66779W        W39039  32.926  17.635   3.857
66780W        W39040   9.186  21.696  10.915
66781W        W39041   4.314  41.006   2.218
66782W        W39042  44.344   3.280   2.850
66783W        W39043   0.782  23.138   1.759
66784W        W39044   2.929   8.670   2.854
66785W        W39045  36.585  10.715   0.397
66786W        W39046   4.391  25.103  11.582
66787W        W39047  16.630  35.485  12.016
66788W        W39048  15.100  40.898   0.348
66789W        W39049  33.954   2.878   0.274
66790W        W39050  26.507  22.123   0.311
66791W        W39051  36.903  14.745   0.384
66792W        W39052  26.458  32.478  11.920
66793W        W39053  28.975   7.897  11.451
66794W        W39054  10.360  12.317   0.368
66795W        W39055   2.437   6.683  12.895
66796W        W39056   2.297  44.962  11.940
66797W        W39057  39.553   6.797  13.328
66798W        W39058  32.920  36.480  14.880
66799W        W39059  28.671  16.287  10.930
66800W        W39060  41.021  44.380  13.017
66801W        W39061  28.639   9.841   2.828
66802W        W39062  28.533  28.504   4.224
66803W        W39063  25.173  39.492   5.651
66804W        W39064  27.512  30.958   2.866
66805W        W39065  15.611  22.203  12.389
66806W        W39066  29.553  38.474  12.964
66807W        W39067   4.279  18.187  14.843
66808W        W39068  18.591   4.266   0.862
66809W        W39069  23.140  10.213   4.146
66810W        W39070  38.905  38.353   4.655
66811W        W39071  27.985  33.418  12.012
66812W        W39072  16.750  40.328  12.963
66813W        W39073  18.180   4.860   3.859
66814W        W39074  21.087  17.617   0.854
66815W        W39075  21.245  14.792   1.769
66816W        W39076  32.052  29.453   0.795
66817W        W39077  41.884   7.389   1.724
66818W        W39078  37.361   4.243  13.855
66819W        W39079  26.527  35.574  10.469
66820W        W39080  14.618   2.345  14.413
66821W        W39081  11.286  22.608  14.340
66822W        W39082  18.285  13.155  12.497
66823W        W39083  14.203  20.272  12.020
66824W        W39084  22.094  13.767   1.261
66825W        W39085  22.522   7.769   3.778
66826W        W39086  33.477  18.727   4.338
66827W        W39087  43.882  28.132   0.880
66828W        W39088  40.467   7.354  14.796
66829W        W39089  28.484  12.291  13.865
66830W        W39090  32.456  43.967   0.810
66831W        W39091  34.014  33.626  13.939
66832W        W39092  33.499  37.936  12.403
66833W        W39093  14.109   7.698   3.658
66834W        W39094   7.865  23.566  11.485
66835W        W39095  22.736   2.302  12.890
66836W        W39096  40.516  23.217  10.903
66837W        W39097   9.828   8.238  11.961
66838W        W39098  27.547   4.407  11.065
66839W        W39099  14.177  17.105  13.895
66840W        W39100  31.001  26.104   2.214
66841W        W39101  13.803  11.330  13.881
66842W        W39102  43.826  20.247  11.454
66843W        W39103  22.046  38.529   0.906
66844W        W39104  44.474  15.083  11.121
66845W        W39105  38.984  35.420  12.358
66846W        W39106  44.970   7.391   2.267
66847W        W39107  27.052  19.177   3.749
66848W        W39108  24.591  12.174  14.010
66849W        W39109  29.032   7.674   4.625
66850W        W39110  43.379  41.795  11.068
66851W        W39111   7.368   7.357  11.934
66852W        W39112  33.441  30.627  12.956
66853W        W39113  27.083   9.838  10.454
66854W        W39114  31.953   2.801  10.491
66855W        W39115   1.752  42.826  10.016
66856W        W39116  19.697  25.142  11.516
66857W        W39117  19.135   7.230   3.190
66858W        W39118  42.974  33.623   2.884
66859W        W39119  10.259   3.805   2.741
66860W        W39120  36.390   2.948   1.386
66861W        W39121  40.961  15.110   1.901
66862W        W39122  30.091  13.155  13.906
66863W        W39123  42.963  13.330  13.486
66864W        W39124   6.748  34.540   4.708
66865W        W39125  10.209  11.293  12.929
66866W        W39126  13.644  39.321  13.534
66867W        W39127  19.241  42.905  14.937
66868W        W39128  36.537  42.441   2.196
66869W        W39129  23.191  38.563   0.433
66870W        W39130  39.830  26.951   0.909
66871W        W39131  16.141  32.398  10.436
66872W        W39132  11.835  29.136   2.784
66873W        W39133  27.022   1.283  12.553
66874W        W39134  30.541  23.211   0.403
66875W        W39135  25.088  31.585   3.710
66876W        W39136  32.902   6.896   3.768
66877W        W39137  32.604  23.116  14.962
66878W        W39138  23.547  43.485   0.872
66879W        W39139  29.482  41.418  12.474
66880W        W39140  37.055  16.637  14.289
66881W        W39141   5.780  18.592  11.909
66882W        W39142   2.737   3.411  12.951
66883W        W39143  11.188   9.781   0.783
66884W        W39144  29.102  27.655  11.887
66885W        W39145  31.973  30.494   0.930
66886W        W39146  24.020  10.140   3.374
66887W        W39147  32.072  41.495  11.446
66888W        W39148  29.639  44.799   4.118
66889W        W39149  36.520  41.519   4.824
66890W        W39150  18.080   7.702  10.492
66891W        W39151  34.589  21.219  11.027
66892W        W39152  22.110  31.984  10.453
66893W        W39153  18.744  25.617   2.853
66894W        W39154  29.512  18.290  14.981
66895W        W39155   8.278  37.402   0.894
66896W        W39156   5.758  38.833   3.669
66897W        W39157  40.998  18.114  14.300
66898W        W39158  16.634  42.440   3.249
66899W        W39159  26.024  36.492  13.376
66900W        W39160  38.984  36.555   1.331
66901W        W39161  14.621   2.271   3.749
66902W        W39162  43.917  37.471  13.880
66903W        W39163  33.016  19.091  13.056
66904W        W39164  21.094   0.888   3.757
66905W        W39165  38.042  41.820  11.597
66906W        W39166  30.977  41.402   3.230
66907W        W39167  29.074  30.998  12.571
66908W        W39168  18.666  29.549  10.974
66909W        W39169  41.426  43.494  12.884
66910W        W39170  12.832  10.141  10.890
66911W        W39171  24.588   1.887  12.346
66912W        W39172  17.578  31.465  11.604
66913W        W39173   4.217  37.893  12.487
66914W        W39174  25.197  24.555   0.791
66915W        W39175  17.248  16.166   1.329
66916W        W39176  13.120  37.518   3.211
66917W        W39177   8.355  31.116   3.712
66918W        W39178  43.324  26.537   3.805
66919W        W39179  13.276  16.125   3.241
66920W        W39180  15.731   9.386  12.031
66921W        W39181  20.069  36.365   1.795
66922W        W39182  11.656   1.776   4.258
66923W        W39183  12.850  28.517   0.308
66924W        W39184  12.681   3.301  11.527
66925W        W39185  38.020   7.250   1.772
66926W        W39186  31.117  14.266   9.986
66927W        W39187  32.920   6.871   3.320
66928W        W39188  34.506  40.808  10.486
66929W        W39189  23.705   1.259  13.404
66930W        W39190  39.540  36.578  13.970
66931W        W39191  41.342  23.698   0.939
66932W        W39192  12.129  38.019  11.127
66933W        W39193  35.004   1.257  10.424
66934W        W39194  32.017   4.822   3.216
66935W        W39195  44.259  41.793  14.499
66936W        W39196   4.798  25.470  10.909
66937W        W39197  26.482  22.632  10.425
66938W        W39198  24.179  44.379  11.043
66939W        W39199  38.521  40.332   1.799
66940W        W39200  15.300  18.106  12.361
66941W        W39201   2.959  21.758   1.892
66942W        W39202  43.920  36.435  14.858
66943W        W39203  15.781  32.442  14.319
66944W        W39204  19.042  43.813  12.404
66945W        W39205   1.282  19.656  11.379
66946W        W39206  42.968  18.118  10.503
66947W        W39207   7.283   0.803   1.410
66948W        W39208  31.543  39.371   2.852
66949W        W39209  16.601  18.109  14.424
66950W        W39210   2.915   3.803  13.507
66951W        W39211   4.780  22.701   3.185
66952W        W39212   0.409  30.422  11.409
66953W        W39213  41.895  30.138  10.488
66954W        W39214  38.952   4.447   4.790
66955W        W39215  38.941  14.811  11.470
66956W        W39216  23.596  17.225   2.296
66957W        W39217  42.458   0.870   2.838
66958W        W39218  42.359   3.860   1.743
66959W        W39219  44.288  41.332   1.257
66960W        W39220  43.907   2.893   2.874
66961W        W39221  32.962  38.448   2.278
66962W        W39222  26.058   4.703   2.893
66963W        W39223  17.722   3.405   0.955
66964W        W39224   4.879   1.259  13.847
66965W        W39225  11.641  37.550  12.525
66966W        W39226  35.507  15.685   0.478
66967W        W39227  35.480  39.380   0.414
66968W        W39228  41.816  37.041  13.039
66969W        W39229   6.779  25.704   5.569
66970W        W39230  39.035   1.338  12.867
66971W        W39231  15.278  24.600   1.717
66972W        W39232  39.462  31.980  11.093
66973W        W39233  10.659  16.127  13.490
66974W        W39234  27.497  41.299  13.409
66975W        W39235  20.187   7.760   4.678
66976W        W39236  31.560   5.839  12.833
66977W        W39237   7.322  16.675  14.809
66978W        W39238   7.254   6.283  10.558
66979W        W39239  33.061  32.057   1.905
66980W        W39240  44.294  12.661  14.006
66981W        W39241  28.051  29.559  14.810
66982W        W39242  39.472  42.285   1.451
66983W        W39243  25.608   4.378  14.808
66984W        W39244  19.192  19.231   1.427
66985W        W39245   0.439  26.077   4.755
66986W        W39246  31.457   9.644   0.872
66987W        W39247  43.343  11.246   0.757
66988W        W39248  25.986  31.028  14.939
66989W        W39249  20.190  30.633  14.317
66990W        W39250   9.670   8.838   4.341
66991W        W39251   8.741  40.402  14.475
66992W        W39252  37.989  22.715  12.888
66993W        W39253  42.841  34.410   3.695
66994W        W39254  23.998   9.341   4.256
66995W        W39255  44.304  24.033  14.435
66996W        W39256  35.004  28.949   5.142
66997W        W39257  23.031  37.897  12.897
66998W        W39258  13.331  13.336  13.865
66999W        W39259  10.669  11.622   3.740
67000W        W39260   4.435  29.429   4.785
67001W        W39261  24.133  40.500   0.456
67002W        W39262  32.434   3.324   0.265
67003W        W39263  20.541  26.017   2.702
67004W        W39264  28.011   0.443  14.353
67005W        W39265   8.836  19.762  12.846
67006W        W39266  27.976  23.518  13.521
67007W        W39267   1.946  17.696   1.884
67008W        W39268  36.411  21.221  13.314
67009W        W39269  39.012   4.338   0.917
67010W        W39270  15.174   5.773  14.381
67011W        W39271  21.139  39.963  14.819
67012W        W39272  17.682   7.829   9.500
67013W        W39273  39.550   7.244   0.318
67014W        W39274  15.606  33.421  11.100
67015W        W39275  13.113  23.726   4.178
67016W        W39276  34.406  36.044   1.348
67017W        W39277  36.434  10.746   2.225
67018W        W39278   7.182  38.976  10.572
67019W        W39279  39.461  15.817  13.513
67020W        W39280   0.426  44.473  13.333
67021W        W39281   6.306  23.680  11.465
67022W        W39282  29.127  18.716  11.953
67023W        W39283  15.633  37.386   1.215
67024W        W39284   8.302  11.361   4.754
67025W        W39285  15.142  32.506  13.010
67026W        W39286  25.633  23.220   0.750
67027W        W39287  32.627  26.175  12.006
67028W        W39288   3.726   4.277  13.956
67029W        W39289  14.133  20.530  14.012
67030W        W39290   8.163  33.996   1.838
67031W        W39291   0.840  26.078   3.736
67032W        W39292   8.404  44.823  13.407
67033W        W39293  22.026   1.866  13.335
67034W        W39294  17.800  27.051   2.839
67035W        W39295  29.641  26.684   2.343
67036W        W39296  34.448   9.352   3.666
67037W        W39297   0.832  10.862  11.018
67038W        W39298  32.891  39.380   0.866
67039W        W39299  10.635  27.081   1.240
67040W        W39300  37.503  16.149  14.478
67041W        W39301  37.909  31.026  11.610
67042W        W39302  25.995  30.555  10.563
67043W        W39303  22.715  20.676  10.963
67044W        W39304  23.584  24.997  10.425
67045W        W39305  36.352  35.992  14.869
67046W        W39306   0.333   3.253  13.894
67047W        W39307  25.074  16.154   2.812
67048W        W39308  12.665  11.737  10.471
67049W        W39309  19.697  40.855  10.487
67050W        W39310  14.818  33.613   0.939
67051W        W39311  14.589  15.089   3.175
67052W        W39312  38.919   6.420   3.166
67053W        W39313   1.299  28.469   3.809
67054W        W39314  32.062  10.353  11.880
67055W        W39315  39.844  25.969  12.995
67056W        W39316  34.046  13.198   1.292
67057W        W39317  38.076  28.665  13.337
67058W        W39318  44.947  41.528  14.968
67059W        W39319  26.961  43.852  10.513
67060W        W39320   6.894  38.517  12.883
67061W        W39321  29.439  14.158   0.880
67062W        W39322  21.152  21.621   5.588
67063W        W39323  30.013  13.781  11.505
67064W        W39324   5.743   4.310  12.463
67065W        W39325  33.483  10.367   1.736
67066W        W39326  19.141  16.195   3.713
67067W        W39327  19.060  11.710  12.071
67068W        W39328   3.889  21.604  11.997
67069W        W39329  30.125   7.303   3.820
67070W        W39330  33.924  21.080   1.759
67071W        W39331   6.755  22.146  14.326
67072W        W39332  22.503  20.576   3.301
67073W        W39333  20.673   7.273   0.738
67074W        W39334  36.576   2.343  10.433
67075W        W39335  19.709   0.805  10.632
67076W        W39336  16.282  19.637   4.266
67077W        W39337  38.009  17.612   2.335
67078W        W39338  11.743  12.839   1.284
67079W        W39339   9.849  42.833  12.515
67080W        W39340  36.978   3.893  12.455
67081W        W39341   3.320  38.960  14.791
67082W        W39342  33.904  32.526   1.719
67083W        W39343  43.476   8.365   2.267
67084W        W39344  30.056  22.623   1.744
67085W        W39345  21.728  18.150   0.788
67086W        W39346  22.240   0.420  10.418
67087W        W39347  32.032  42.327   1.922
67088W        W39348  44.000  42.780  13.038
67089W        W39349   7.326  42.366  14.418
67090W        W39350  41.994  11.827  14.871
67091W        W39351  11.305   1.388   2.720
67092W        W39352   5.765  40.959   2.781
67093W        W39353   1.859  20.675  12.924
67094W        W39354   0.829  22.530  11.884
67095W        W39355  25.117  15.217  10.082
67096W        W39356   4.369  26.576  10.064
67097W        W39357  15.115  18.658   1.316
67098W        W39358  32.396   1.825  11.492
67099W        W39359  35.570  14.186  12.016
67100W        W39360  30.092  34.893   1.239
67101W        W39361  29.071  38.455   3.777
67102W        W39362   4.879   5.822  14.781
67103W        W39363  32.552  36.422  11.992
67104W        W39364  23.985   7.278  14.452
67105W        W39365  28.513   9.244   3.166
67106W        W39366  44.272  31.973  11.877
67107W        W39367  37.439  29.987  14.867
67108W        W39368  36.072  14.742  12.463
67109W        W39369   3.726  25.164  10.618
67110W        W39370  31.572  27.522  10.987
67111W        W39371  31.995   3.935  13.394
67112W        W39372  30.577  23.190  14.474
67113W        W39373  41.967  19.578   4.265
67114W        W39374  24.207  41.987  13.056
67115W        W39375  42.506  37.429   4.703
67116W        W39376  37.874  42.902   3.233
67117W        W39377  21.521  34.119   2.266
67118W        W39378   4.848  31.528  13.436
67119W        W39379  33.503  11.806  12.352
67120W        W39380  21.127  38.861  11.450
67121W        W39381   5.904  20.723   3.269
67122W        W39382   3.265  43.976  12.473
67123W        W39383  20.576  30.152   1.812
67124W        W39384  21.603  10.359  12.371
67125W        W39385  34.947  24.605  12.942
67126W        W39386  25.114  35.549  14.920
67127W        W39387  38.376  36.565  10.573
67128W        W39388  26.025  39.438  11.050
67129W        W39389  35.570  41.381  11.896
67130W        W39390  36.909  34.880  10.594
67131W        W39391  11.359  43.870   0.731
67132W        W39392   9.871  27.446   3.705
67133W        W39393  23.011   9.224   3.357
67134W        W39394   2.315  15.632  14.396
67135W        W39395  18.621  26.028  13.335
67136W        W39396  44.923   2.966  10.474
67137W        W39397  26.158   8.327  11.045
67138W        W39398   5.240   6.223  12.426
67139W        W39399  14.682   2.470  12.409
67140W        W39400  28.602  19.715   5.163
67141W        W39401  10.655  29.004  11.078
67142W        W39402  36.370  43.778   0.301
67143W        W39403  16.296  44.758  10.545
67144W        W39404   0.325   6.375  14.299
67145W        W39405  20.239  12.287  11.015
67146W        W39406  19.121  38.995  10.978
67147W        W39407  36.045  37.890  14.464
67148W        W39408  19.681   9.154   1.858
67149W        W39409  30.468  21.531   4.261
67150W        W39410  36.541   1.444   1.428
67151W        W39411  13.785   9.232   4.114
67152W        W39412  21.741   7.824   2.368
67153W        W39413   9.689  32.981   4.778
67154W        W39414  35.097  31.109   2.345
67155W        W39415  18.059  13.755   0.470
67156W        W39416  20.767  18.591  14.758
67157W        W39417   9.769  20.530   0.340
67158W        W39418  27.009  12.780  12.997
67159W        W39419  30.474   2.460  10.478
67160W        W39420  27.010  19.635   2.865
67161W        W39421  29.932  27.038  13.333
67162W        W39422  29.618   7.254   4.653
67163W        W39423  16.258  16.631   4.297
67164W        W39424  24.482   6.744  13.934
67165W        W39425  15.142  40.821  10.553
67166W        W39426  22.120  16.732   2.212
67167W        W39427  19.088  37.567  13.835
67168W        W39428   4.250  28.054   1.447
67169W        W39429  36.450  16.211  10.466
67170W        W39430   8.343  41.534  13.498
67171W        W39431  40.349  33.982  13.532
67172W        W39432  24.184  29.040   4.317
67173W        W39433  17.237  36.522   4.204
67174W        W39434  14.717  11.664  13.991
67175W        W39435  14.286  19.650   3.153
67176W        W39436  21.185   1.817  11.858
67177W        W39437   2.445  32.075   1.774
67178W        W39438  37.388  36.041   2.860
67179W        W39439  41.833  30.461  12.391
67180W        W39440  17.299   3.849  13.514
67181W        W39441  36.871  37.544  11.447
67182W        W39442  37.377  25.021   0.358
67183W        W39443   7.791  26.631  14.479
67184W        W39444  27.470  43.278   1.750
67185W        W39445  30.078  42.339  12.953
67186W        W39446  34.069  37.944   2.280
67187W        W39447   9.244  11.290   3.357
67188W        W39448   2.372  13.285   3.731
67189W        W39449  38.356   9.289  12.563
67190W        W39450  11.793  20.165  12.362
67191W        W39451   9.355  39.473  10.569
67192W        W39452   2.299  36.898   0.929
67193W        W39453   6.196  41.441  12.510
67194W        W39454  10.813   9.830  12.352
67195W        W39455  30.448  37.876  12.410
67196W        W39456  17.097   4.708   2.225
67197W        W39457  42.512  32.946  12.931
67198W        W39458   1.385  31.931   0.858
67199W        W39459  11.674  30.044  12.051
67200W        W39460  41.295   0.820   2.239
67201W        W39461  21.056  11.709  11.489
67202W        W39462  29.549  23.572   2.737
67203W        W39463   6.851  12.690  12.342
67204W        W39464  36.450  37.028   0.308
67205W        W39465  42.929  28.668  11.552
67206W        W39466  41.791  40.358   3.653
67207W        W39467  27.002  10.810   4.298
67208W        W39468  24.206  17.170  12.579
67209W        W39469  38.848  28.177  14.516
67210W        W39470  42.457  39.998  14.360
67211W        W39471  13.732  35.994   4.215
67212W        W39472   8.324   0.905  14.386
67213W        W39473  30.086  40.505  11.066
67214W        W39474  26.172  11.713  14.014
67215W        W39475  15.089  38.483   2.830
67216W        W39476  14.795  42.975  11.394
67217W        W39477   7.259  38.343  10.983
67218W        W39478  17.664  40.412  14.844
67219W        W39479   2.440  19.108   4.191
67220W        W39480  33.031  43.993  14.804
67221W        W39481  42.396  25.185   2.769
67222W        W39482  24.498  36.027   0.923
67223W        W39483  43.503   8.840   0.281
67224W        W39484  39.499  24.175  10.641
67225W        W39485  21.617  36.016  11.129
67226W        W39486  19.769  27.528   0.778
67227W        W39487   8.784  29.615  10.566
67228W        W39488  42.365  22.029  10.935
67229W        W39489  13.178  44.903   0.420
67230W        W39490  17.655  27.181   2.307
67231W        W39491  16.632   4.813  14.334
67232W        W39492   1.454  14.157   2.396
67233W        W39493  14.132   3.406   1.852
67234W        W39494  35.548  13.162  12.465
67235W        W39495  43.354  26.974  10.605
67236W        W39496  36.423  29.032   0.388
67237W        W39497  12.855  29.644  11.066
67238W        W39498  15.107  20.090  10.519
67239W        W39499  11.162  12.696   4.665
67240W        W39500  32.618   0.749  10.045
67241W        W39501  38.554  31.941  14.781
67242W        W39502  33.497  41.890   0.948
67243W        W39503  29.130  17.617   1.826
67244W        W39504  24.151   6.886  12.065
67245W        W39505  24.656  36.534   0.733
67246W        W39506  19.105   9.237   4.256
67247W        W39507  35.587  38.914   4.204
67248W        W39508  17.176  12.337   3.373
67249W        W39509   5.718  37.011  13.820
67250W        W39510   4.427  18.203  10.497
67251W        W39511  44.931   5.313  10.507
67252W        W39512   9.187  42.451   3.638
67253W        W39513   8.180  23.025  13.024
67254W        W39514   5.858   3.852   2.280
67255W        W39515   0.344  10.183   3.242
67256W        W39516  11.627  35.022   0.912
67257W        W39517  26.128  32.008  11.893
67258W        W39518  22.681  41.040  14.499
67259W        W39519  35.051  36.968   0.303
67260W        W39520  34.881   6.725  11.921
67261W        W39521  40.932  35.362   2.306
67262W        W39522  10.375   9.332  14.473
67263W        W39523  29.958  15.314   3.291
67264W        W39524  41.824  37.400  14.876
67265W        W39525  26.141  29.585  11.517
67266W        W39526  27.133  23.562  11.487
67267W        W39527  23.142  44.473  10.464
67268W        W39528  34.868  30.528   1.282
67269W        W39529   0.361  33.024  13.325
67270W        W39530   4.256  30.147  11.459
67271W        W39531  18.609  20.756  13.010
67272W        W39532  40.914  18.721  12.399
67273W        W39533  20.655  38.565  10.433
67274W        W39534  34.110   3.367   1.730
67275W        W39535  31.518  20.083   0.764
67276W        W39536  17.222   5.867   4.686
67277W        W39537  38.832   2.781  14.007
67278W        W39538  35.919  26.984   3.214
67279W        W39539  38.515   9.766  14.797
67280W        W39540  40.513  11.860   3.160
67281W        W39541   3.849  42.526   4.783
67282W        W39542  19.681  34.099   4.334
67283W        W39543  40.463  29.469   0.305
67284W        W39544  18.692   6.913  12.341
67285W        W39545   8.684  41.536   0.416
67286W        W39546   7.370  37.054  11.006
67287W        W39547  29.606  26.128  10.420
67288W        W39548  35.886   8.203  10.532
67289W        W39549  32.553   3.871   3.265
67290W        W39550  12.209   1.327   4.785
67291W        W39551  36.537  40.960   0.349
67292W        W39552  14.320   8.165  13.482
67293W        W39553  10.802  36.525   2.257
67294W        W39554  42.030  36.841  11.475
67295W        W39555  23.582  39.054  13.544
67296W        W39556   7.870  26.596   3.317
67297W        W39557   5.897   9.392   0.450
67298W        W39558  22.744  12.276  14.393
67299W        W39559  33.593   3.746  10.967
67300W        W39560   5.921   3.323  11.415
67301W        W39561  29.656  41.819  13.902
67302W        W39562  28.078  32.042  12.500
67303W        W39563  18.229  34.106   2.279
67304W        W39564  13.189  39.325   2.712
67305W        W39565  34.010  28.498   0.843
67306W        W39566   3.265  26.191  13.799
67307W        W39567  27.509  17.707   4.780
67308W        W39568  39.004  25.694   4.804
67309W        W39569  24.695   0.749   4.679
67310W        W39570  28.035  40.910   3.280
67311W        W39571   9.151   9.693  14.392
67312W        W39572  17.156  31.118  12.834
67313W        W39573  37.863  43.774   3.869
67314W        W39574  10.262  26.180   1.387
67315W        W39575   2.376  27.496   3.286
67316W        W39576  21.700   7.181   2.283
67317W        W39577  40.876  25.190   1.259
67318W        W39578  43.300  26.529  14.848
67319W        W39579  25.500  16.291   1.902
67320W        W39580   2.939   7.910   0.881
67321W        W39581  40.352  37.026   1.337
67322W        W39582  34.594  33.967   2.382
67323W        W39583   5.255  17.139  11.375
67324W        W39584  28.024  30.061  12.407
67325W        W39585   9.229  28.957   3.719
67326W        W39586  33.607  12.137  13.528
67327W        W39587  39.955  12.303   1.765
67328W        W39588  21.700  34.579  13.005
67329W        W39589  10.285  29.617  14.291
67330W        W39590  35.455  32.017   4.722
67331W        W39591  17.211  28.500   3.189
67332W        W39592  24.115  37.038   3.184
67333W        W39593  41.829  41.847  12.004
67334W        W39594   3.355  39.375  14.383
67335W        W39595  40.344  10.785   0.476
67336W        W39596  26.008  18.289  12.471
67337W        W39597  34.099  32.016  13.798
67338W        W39598  17.676  41.814  12.347
67339W        W39599   6.414   2.948   2.303
67340W        W39600  20.694  31.980   4.331
67341W        W39601  44.281   7.409  11.857
67342W        W39602  37.036  17.163  14.921
67343W        W39603  10.198   7.388  14.434
67344W        W39604   7.833  33.399  12.938
67345W        W39605  37.087   5.368   3.176
67346W        W39606  18.714  14.172  14.031
67347W        W39607  12.337  40.456   4.234
67348W        W39608  34.117  13.762  12.489
67349W        W39609   8.201   8.844  14.485
67350W        W39610  43.491  27.978   3.799
67351W        W39611  43.020  23.177   4.734
67352W        W39612  38.365   5.906  14.834
67353W        W39613  18.620  38.984   1.914
67354W        W39614  26.617  20.210   1.822
67355W        W39615  17.599  37.969   1.328
67356W        W39616   6.819  15.624  11.521
67357W        W39617  31.584   2.777   4.753
67358W        W39618   2.742  27.590   3.644
67359W        W39619  27.618  26.702   1.336
67360W        W39620   2.295   2.296  13.972
67361W        W39621  14.320  38.893   1.227
67362W        W39622  37.902  11.340  10.438
67363W        W39623   4.242  37.353  10.593
67364W        W39624   4.774  26.163  10.551
67365W        W39625   9.834  25.181   0.735
67366W        W39626  20.102  31.603  12.416
67367W        W39627  40.410  20.636  12.351
67368W        W39628   7.191   9.799  14.861
67369W        W39629  30.016  11.633  11.965
67370W        W39630  24.227   8.672  13.926
67371W        W39631  25.091  35.445   3.198
67372W        W39632  37.886   1.419  13.894
67373W        W39633  22.233  33.967  13.923
67374W        W39634   2.321  28.987  11.467
67375W        W39635  26.196   6.304  10.952
67376W        W39636  17.212  19.154  13.821
67377W        W39637  41.786  37.374  13.362
67378W        W39638   5.243   1.924   2.739
67379W        W39639  29.025  36.471  11.884
67380W        W39640  13.785  25.579  13.438
67381W        W39641   3.739  31.913   1.902
67382W        W39642  12.280   6.897   1.887
67383W        W39643  29.972  28.044  11.511
67384W        W39644  44.312  32.027   3.187
67385W        W39645  43.818  33.477  14.865
67386W        W39646  19.746  15.620  14.849
67387W        W39647   1.403   4.313   3.215
67388W        W39648   7.730  25.167   0.286
67389W        W39649   5.771  26.605  12.064
67390W        W39650  34.024   8.742   4.678
67391W        W39651  31.128   9.201  10.517
67392W        W39652  16.242  43.872   0.835
67393W        W39653  37.409  35.495   2.751
67394W        W39654   8.763   0.387  12.349
67395W        W39655  38.521   6.742   4.341
67396W        W39656  36.857   6.208  14.389
67397W        W39657  15.624  31.636   0.302
67398W        W39658  14.278  23.173   3.763
67399W        W39659  18.108  12.318  11.410
67400W        W39660  29.561  36.865   3.850
67401W        W39661  32.096  31.558   1.414
67402W        W39662  38.958   8.207   4.339
67403W        W39663  21.205   3.722   1.730
67404W        W39664  15.099   8.851   4.649
67405W        W39665  42.964  15.783   3.770
67406W        W39666  15.118   7.209   1.388
67407W        W39667  21.159  15.205   0.782
67408W        W39668  33.969  44.970  11.508
67409W        W39669  22.122  30.973  12.374
67410W        W39670  24.536   7.238  14.028
67411W        W39671  11.313  31.936   2.224
67412W        W39672  43.467  33.941  11.986
67413W        W39673  20.548  30.159   3.350
67414W        W39674  39.536  11.640   0.773
67415W        W39675  32.597  29.593   4.756
67416W        W39676  10.140  19.659  13.887
67417W        W39677  24.184  14.308  10.909
67418W        W39678  22.098  14.712   3.243
67419W        W39679  26.153  27.593   4.764
67420W        W39680   7.406   1.344   2.342
67421W        W39681  13.648   1.769   4.623
67422W        W39682  30.416  28.938   1.832
67423W        W39683   9.347  36.937   2.332
67424W        W39684  22.661   3.727  10.161
67425W        W39685   5.196   5.394  10.629
67426W        W39686  34.012   0.777  13.385
67427W        W39687   2.386   0.801   0.278
67428W        W39688  14.668   0.932   4.624
67429W        W39689  35.424   8.718   2.864
67430W        W39690  30.497  31.026  13.017
67431W        W39691  19.652  14.636   0.814
67432W        W39692  20.100  18.215   0.792
67433W        W39693  33.442  38.386   2.353
67434W        W39694  35.471  27.593  13.843
67435W        W39695  32.556   7.274  10.416
67436W        W39696   6.715  16.677   1.443
67437W        W39697   0.933  30.999   4.194
67438W        W39698  18.231   9.317   1.359
67439W        W39699  24.618   8.722  12.455
67440W        W39700  21.132   3.255  11.032
67441W        W39701  24.724   5.743  14.390
67442W        W39702  35.393  37.983   3.641
67443W        W39703  21.739  32.020   3.313
67444W        W39704  43.515   7.740  10.622
67445W        W39705   3.346  27.581  12.964
67446W        W39706  42.435  43.806   1.897
67447W        W39707   2.404   6.749   2.218
67448W        W39708  18.082  16.215  10.502
67449W        W39709  36.364  20.689   2.346
67450W        W39710  24.071  26.144  12.949
67451W        W39711  22.555  18.548  11.604
67452W        W39712  27.131  23.693   1.843
67453W        W39713  22.624  30.157  14.471
67454W        W39714  41.840  29.120   3.205
67455W        W39715  17.306   2.823   1.745
67456W        W39716  13.681  19.590  12.840
67457W        W39717  37.969  16.150  12.366
67458W        W39718  18.689  15.166  12.028
67459W        W39719  16.721  38.452  13.045
67460W        W39720  37.550  26.485  13.358
67461W        W39721  18.772  30.521  13.467
67462W        W39722  10.160  10.328  10.526
67463W        W39723  17.642  37.480  13.898
67464W        W39724  16.670  15.114   4.610
67465W        W39725  31.403   8.820   3.297
67466W        W39726  18.721  39.395   1.236
67467W        W39727  24.526  43.430  10.580
67468W        W39728  13.732  33.574   3.800
67469W        W39729  41.467  44.400   4.274
67470W        W39730  42.459  20.039  11.046
67471W        W39731  17.759  23.220   2.203
67472W        W39732  25.695  31.912  11.905
67473W        W39733  25.219  16.134   1.722
67474W        W39734  10.301  25.471  12.906
67475W        W39735  12.719  37.558   2.811
67476W        W39736  43.290  20.198  12.577
67477W        W39737  10.169  39.373   3.831
67478W        W39738  30.453   9.288  10.990
67479W        W39739  17.594  32.449   0.795
67480W        W39740   9.777  28.499  14.842
67481W        W39741  23.051   9.815   4.681
67482W        W39742  39.945  43.450  11.612
67483W        W39743  42.419  44.879   4.835
67484W        W39744  42.951  44.412  14.825
67485W        W39745  33.567   1.386   1.307
67486W        W39746  33.103  12.847  12.850
67487W        W39747  14.331  24.582   2.754
67488W        W39748   0.289  27.673  11.902
67489W        W39749  20.654  20.181   3.375
67490W        W39750  39.050   4.877   1.834
67491W        W39751  36.955  28.012  12.524
67492W        W39752  23.508   4.369  14.929
67493W        W39753  33.986  40.913   1.890
67494W        W39754  27.068   5.207  11.609
67495W        W39755  16.144  15.246   0.299
67496W        W39756  30.130   8.229   1.860
67497W        W39757  26.535  41.370  10.488
67498W        W39758  34.953  11.633   4.218
67499W        W39759  27.087  23.121  12.884
67500W        W39760   6.819  39.925  14.397
67501W        W39761  26.502  16.098  13.860
67502W        W39762  34.436  33.496   4.763
67503W        W39763  20.144  42.907   3.720
67504W        W39764  31.480  10.731   1.779
67505W        W39765  34.932  27.543   1.757
67506W        W39766  25.134  39.015  14.796
67507W        W39767  31.058  11.752  14.875
67508W        W39768  16.731  14.701   2.209
67509W        W39769   3.915  35.068  14.011
67510W        W39770  23.198  33.874   0.407
67511W        W39771  14.823   1.933  14.288
67512W        W39772   0.988  22.724  14.920
67513W        W39773  27.139  33.958   2.834
67514W        W39774  15.781  39.837   0.449
67515W        W39775  43.788  38.957   4.224
67516W        W39776   3.868  40.897  14.882
67517W        W39777  26.168  11.289  10.605
67518W        W39778  38.500   6.907   5.775
67519W        W39779  25.075  34.066  10.999
67520W        W39780  13.697  26.971   3.853
67521W        W39781  29.646  22.231   3.781
67522W        W39782  26.025  30.975   4.828
67523W        W39783  38.944  30.977  10.524
67524W        W39784  28.564  11.362   2.384
67525W        W39785  10.723  19.075  12.052
67526W        W39786  24.588   8.865  11.098
67527W        W39787  40.032   7.211   5.243
67528W        W39788  29.446  29.971   1.817
67529W        W39789  24.541  28.497   3.290
67530W        W39790  42.896  40.825  13.001
67531W        W39791  15.587  33.474   5.275
67532W        W39792  10.874   3.350   0.728
67533W        W39793  13.188   9.754  11.062
67534W        W39794   2.846  38.966   3.655
67535W        W39795  12.685  29.951   2.263
67536W        W39796  10.752   4.814  14.869
67537W        W39797  17.245  22.229  11.609
67538W        W39798  41.298  26.483  12.956
67539W        W39799   2.935  30.932  13.423
67540W        W39800   2.732  18.597  12.083
67541W        W39801  35.985  21.072  10.569
67542W        W39802  26.061  30.130  10.608
67543W        W39803  44.804  16.642   1.694
67544W        W39804   0.802  18.562  12.036
67545W        W39805  41.315  10.233   2.397
67546W        W39806  18.244  35.038   4.254
67547W        W39807  24.693   3.273   0.312
67548W        W39808  14.656  44.884   1.341
67549W        W39809  20.537   4.437   1.703
67550W        W39810  19.662   8.253   1.319
67551W        W39811  31.465  22.012  10.966
67552W        W39812  11.303  21.135   1.451
67553W        W39813  30.135  41.022   0.754
67554W        W39814  18.161  11.356   1.298
67555W        W39815  39.935  10.384   1.848
67556W        W39816   9.237  27.158   2.735
67557W        W39817  21.244  37.448  12.913
67558W        W39818  15.588   0.488   1.292
67559W        W39819  44.400   7.254   5.116
67560W        W39820  32.973  15.099  12.900
67561W        W39821  41.960  35.915   1.334
67562W        W39822  12.322   9.741   4.620
67563W        W39823  29.520  29.618   3.646
67564W        W39824  14.147  29.630  12.492
67565W        W39825  28.074  20.146   0.326
67566W        W39826   3.278   8.262  11.588
67567W        W39827  23.560  24.565  10.632
67568W        W39828  33.477  12.761  14.005
67569W        W39829  24.690  38.498  12.871
67570W        W39830   7.876  15.160  14.390
67571W        W39831  23.730  20.745   4.724
67572W        W39832  11.170  14.633   0.959
67573W        W39833   8.693   7.373  11.569
67574W        W39834  19.274   5.367  10.943
67575W        W39835   8.730  30.099  14.456
67576W        W39836   8.747  13.150  13.812
67577W        W39837  41.928   8.883   2.891
67578W        W39838  36.037  26.539  10.954
67579W        W39839  18.566  15.809   9.970
67580W        W39840  25.480  31.423  10.628
67581W        W39841  33.936  32.489   4.215
67582W        W39842  15.818   4.895   1.252
67583W        W39843  22.587  14.724   3.261
67584W        W39844  30.021  41.987   2.279
67585W        W39845   0.365  17.613   0.254
67586W        W39846  15.275   5.409  14.472
67587W        W39847   4.393  26.702   0.739
67588W        W39848  40.983  11.186   4.813
67589W        W39849  12.794  39.490  10.911
67590W        W39850   8.668   8.358   1.821
67591W        W39851  12.636  25.183  14.956
67592W        W39852   5.324   0.918  13.403
67593W        W39853   6.386  42.316  11.046
67594W        W39854  17.675  37.373  12.823
67595W        W39855  22.160  26.120   1.348
67596W        W39856  13.610   7.249   4.708
67597W        W39857  26.114  22.113  13.544
67598W        W39858  26.027   7.297  10.535
67599W        W39859  35.439  25.189  10.905
67600W        W39860   5.845   4.747  12.002
67601W        W39861  40.318  29.923   1.935
67602W        W39862  11.695  39.981  12.524
67603W        W39863   6.846  27.505   1.726
67604W        W39864  13.309  43.437   0.473
67605W        W39865   1.752  33.012  12.877
67606W        W39866   1.437  30.915   4.331
67607W        W39867  28.545  19.148   2.417
67608W        W39868  22.009  11.127   0.869
67609W        W39869  13.337  37.986  10.930
67610W        W39870   2.769  11.344   1.216
67611W        W39871  18.163  17.727   2.881
67612W        W39872  29.553  16.207  10.984
67613W        W39873  43.956  26.662  10.573
67614W        W39874   7.216   5.762  13.968
67615W        W39875  35.979   3.807   2.864
67616W        W39876  13.134  11.145   0.934
67617W        W39877  29.987  28.614   2.296
67618W        W39878   4.412  42.823   2.246
67619W        W39879  39.461  26.000  11.086
67620W        W39880  44.945  20.704  13.457
67621W        W39881  22.685  35.101  12.980
67622W        W39882  31.539   2.942   3.812
67623W        W39883  38.924  11.317  13.500
67624W        W39884  26.569  18.587   5.116
67625W        W39885  19.106  38.356   0.737
67626W        W39886  42.976  38.872  12.420
67627W        W39887  10.152  22.026  10.021
67628W        W39888  26.492  12.796   4.318
67629W        W39889   2.918  30.649   2.814
67630W        W39890  33.878  23.719  14.024
67631W        W39891  41.799   7.797   1.740
67632W        W39892  12.269  18.162  12.452
67633W        W39893  26.532  17.186   5.144
67634W        W39894   7.806   3.851  12.839
67635W        W39895  36.422  22.501   1.755
67636W        W39896  41.888  24.997  13.938
67637W        W39897  40.848  28.556   2.268
67638W        W39898   8.400  20.582   3.710
67639W        W39899  13.749  39.912   4.184
67640W        W39900  10.186  12.776   0.770
67641W        W39901  12.147  26.035   2.305
67642W        W39902  11.825  18.767   1.235
67643W        W39903  31.944  14.150  10.576
67644W        W39904   9.687  39.938  13.498
67645W        W39905  23.236  36.947   2.192
67646W        W39906  38.853   9.765  10.457
67647W        W39907  29.066  20.113   0.369
67648W        W39908   5.806  30.145  11.448
67649W        W39909  40.506  13.199  13.469
67650W        W39910  19.140   1.368   1.325
67651W        W39911  36.393  28.069   1.823
67652W        W39912  42.316  13.669  11.949
67653W        W39913  24.212   2.469   1.230
67654W        W39914  16.131  10.341  11.018
67655W        W39915  14.205  37.935   0.814
67656W        W39916  30.599  33.101   0.479
67657W        W39917  28.589   0.864   4.194
67658W        W39918  40.526  44.892   1.805
67659W        W39919   8.177  41.301   2.792
67660W        W39920   2.348  12.749  14.850
67661W        W39921  17.153  17.086   9.976
67662W        W39922   2.304  23.165  10.411
67663W        W39923  39.499  39.953   2.827
67664W        W39924  30.021   4.905   4.326
67665W        W39925   2.919   2.914   4.180
67666W        W39926  21.552  43.890   0.762
67667W        W39927  25.047  28.444   4.793
67668W        W39928  23.604  40.335  13.050
67669W        W39929   6.362  43.329   3.814
67670W        W39930  31.456  15.773   2.292
67671W        W39931   6.723  12.279  14.032
67672W        W39932  21.167  12.796  13.933
67673W        W39933  35.486  30.951  11.033
67674W        W39934  19.612  27.060   4.226
67675W        W39935  22.124  28.965   4.258
67676W        W39936  12.346  40.339  13.525
67677W        W39937  27.027  29.970   2.782
67678W        W39938  44.493   9.735  11.545
67679W        W39939  40.308   4.847  13.350
67680W        W39940  19.534  37.044   0.867
67681W        W39941  22.185  33.600   2.414
67682W        W39942  40.961   6.315   2.695
67683W        W39943  33.538  10.694  14.946
67684W        W39944  17.787  32.027  13.352
67685W        W39945  27.031  30.955  10.597
67686W        W39946  41.958  31.952  10.072
67687W        W39947  14.715  44.871   4.191
67688W        W39948  14.631  38.344   4.788
67689W        W39949  19.208   0.448   2.692
67690W        W39950  34.978   5.240   2.196
67691W        W39951  29.975  39.513   2.696
67692W        W39952  26.081  13.618   2.366
67693W        W39953  34.086  39.043  12.440
67694W        W39954  42.854  43.914  14.283
67695W        W39955  20.708  36.445  10.410
67696W        W39956   5.428  26.089   1.300
67697W        W39957  15.163  44.392   1.773
67698W        W39958  39.523  43.983   2.366
67699W        W39959  38.927  13.749  14.446
67700W        W39960  42.510  26.597   3.357
67701W        W39961  39.986   9.749  12.959
67702W        W39962  27.116  29.584  13.315
67703W        W39963  17.071   6.382  14.954
67704W        W39964  28.162  10.367  14.291
67705W        W39965  35.439  37.498   3.797
67706W        W39966  43.339  21.236  11.019
67707W        W39967  16.749  16.285  10.010
67708W        W39968  28.146   4.787   0.313
67709W        W39969  30.938  29.938  11.522
67710W        W39970  34.461  13.728  13.509
67711W        W39971  16.711  30.527  12.990
67712W        W39972  15.778  14.725  13.811
67713W        W39973  38.924  25.480   1.791
67714W        W39974  39.407  31.639   1.922
67715W        W39975  13.600   0.923   2.403
67716W        W39976  39.957   7.417   0.943
67717W        W39977  39.032  12.797   3.191
67718W        W39978  33.385  10.837   0.377
67719W        W39979  24.225  23.032  13.932
67720W        W39980  20.059  40.846  13.379
67721W        W39981  25.682  24.667  14.332
67722W        W39982   2.263  38.016   0.823
67723W        W39983  32.508  25.081  11.915
67724W        W39984  39.328  12.680  12.410
67725W        W39985  38.885  36.847   0.351
67726W        W39986   8.720   4.944   0.846
67727W        W39987  20.143   6.281   4.240
67728W        W39988  41.437  26.134  10.638
67729W        W39989  14.741  23.526  12.581
67730W        W39990  23.059  12.655  12.933
67731W        W39991  21.744  40.453  10.974
67732W        W39992   2.863  10.656  14.877
67733W        W39993  22.655  23.012  13.497
67734W        W39994   8.894  17.630   1.855
67735W        W39995  15.682  23.230   4.715
67736W        W39996   4.884   2.831  13.937
67737W        W39997  19.736  28.572   4.600
67738W        W39998  13.145  23.085   0.911
67739W        W39999   4.437   9.794  14.791
67740W        W40000  28.547  24.022   3.641
67741W        W40001  25.498  29.640   1.828
67742W        W40002  12.295   7.221  12.830
67743W        W40003  10.334  27.450   0.873
67744W        W40004  29.036  44.843   4.737
67745W        W40005  41.793  15.151   3.637
67746W        W40006  19.710  41.790  11.539
67747W        W40007   4.717  24.021   3.234
67748W        W40008  24.213   6.279   3.317
67749W        W40009   3.817   8.169  10.892
67750W        W40010  15.154  17.593   2.340
67751W        W40011  13.181  14.704   0.731
67752W        W40012  34.864  31.480  14.837
67753W        W40013  35.937  22.618   3.381
67754W        W40014  36.020  41.337  14.302
67755W        W40015  29.622  13.838  11.986
67756W        W40016  25.477  13.285  14.010
67757W        W40017  10.871  35.598  11.398
67758W        W40018   1.835  42.867  12.430
67759W        W40019  32.885  23.717   0.844
67760W        W40020   4.777  23.056   0.453
67761W        W40021  20.068  44.328   2.373
67762W        W40022  17.725   4.246  12.868
67763W        W40023  17.692  12.334   4.629
67764W        W40024   7.194  23.497   3.217
67765W        W40025  35.411  32.070   4.183
67766W        W40026  29.524   9.890  14.763
67767W        W40027  38.853  26.692  11.578
67768W        W40028   3.323  19.620  10.054
67769W        W40029  13.839  10.863   0.912
67770W        W40030   2.941   3.280  10.575
67771W        W40031  14.797   3.863   3.321
67772W        W40032   6.734   1.299  14.972
67773W        W40033  32.457   6.381   0.828
67774W        W40034  28.043   2.799   4.339
67775W        W40035  28.579  40.549   4.812
67776W        W40036  30.045  44.324  13.883
67777W        W40037   3.230  27.536  13.542
67778W        W40038   0.844   0.270  14.884
67779W        W40039  32.079   8.384   2.667
67780W        W40040   6.851   6.274   1.216
67781W        W40041  33.435  37.857   3.763
67782W        W40042  17.180   6.865   4.195
67783W        W40043  41.433  26.985   3.825
67784W        W40044   8.816  26.967  10.643
67785W        W40045  41.397  32.901   2.284
67786W        W40046  24.049  13.680  14.767
67787W        W40047  20.116  12.853  13.802
67788W        W40048  11.824  14.742   2.354
67789W        W40049  34.083  23.227   3.675
67790W        W40050  25.218  17.566   4.296
67791W        W40051  34.449  24.500  11.971
67792W        W40052  25.008   6.246   2.312
67793W        W40053  12.331   1.393  10.606
67794W        W40054  14.227  26.683   1.753
67795W        W40055  18.770  39.322  14.948
67796W        W40056  17.251   3.831  12.358
67797W        W40057  38.010  10.803  10.901
67798W        W40058  27.055   7.773  11.587
67799W        W40059  29.528  13.189  13.415
67800W        W40060  26.039   1.936  12.573
67801W        W40061  10.678   8.674   0.785
67802W        W40062   3.948   8.228   3.744
67803W        W40063  26.543  35.084   4.697
67804W        W40064  38.914  33.889  12.426
67805W        W40065  16.738  34.877  11.580
67806W        W40066  12.673  35.084  12.953
67807W        W40067  36.492  37.452   4.206
67808W        W40068  34.416  23.014  11.868
67809W        W40069  40.531  36.508  14.349
67810W        W40070  31.603  36.995   2.707
67811W        W40071  32.944  19.676  12.840
67812W        W40072   1.787  33.447   1.814
67813W        W40073  42.790  22.523   2.291
67814W        W40074  37.865  35.002   0.784
67815W        W40075  43.857  31.025  14.425
67816W        W40076  11.319  18.237   1.267
67817W        W40077   0.779  15.823   0.319
67818W        W40078  38.037  35.505   0.944
67819W        W40079  38.883   0.467   0.916
67820W        W40080  41.807  36.875   0.841
67821W        W40081  26.495  10.659   2.219
67822W        W40082  13.141  38.397   4.662
67823W        W40083  18.227  19.570  12.995
67824W        W40084  16.310  26.667  11.523
67825W        W40085  35.946  16.295   2.319
67826W        W40086  10.287  17.611  14.425
67827W        W40087  40.374  31.900  11.078
67828W        W40088   1.238  13.277   2.242
67829W        W40089  38.353  27.089  11.895
67830W        W40090  31.039  20.248   0.756
67831W        W40091  17.609  36.583  14.374
67832W        W40092  42.984  44.979   3.282
67833W        W40093  23.687  28.130   4.323
67834W        W40094  25.114  13.262  11.435
67835W        W40095  35.051  33.996  11.502
67836W        W40096  16.582   9.387  12.426
67837W        W40097  26.593  29.160   2.856
67838W        W40098  38.346  30.418  14.899
67839W        W40099   7.361  34.420   1.869
67840W        W40100  18.261  13.155  10.559
67841W        W40101  35.586   0.424  12.348
67842W        W40102   8.766  30.657   1.921
67843W        W40103  24.674  10.731   0.413
67844W        W40104  21.225  37.481   3.371
67845W        W40105  26.163  26.699  12.021
67846W        W40106  23.027  21.636  11.858
67847W        W40107   1.388   7.399  10.901
67848W        W40108   8.675  15.142   3.171
67849W        W40109  43.435   1.773   3.703
67850W        W40110  33.126  17.660   1.900
67851W        W40111  28.115  31.523  12.434
67852W        W40112   7.316  21.187  12.391
67853W        W40113  35.389  28.623  10.894
67854W        W40114  38.006  37.483   2.848
67855W        W40115  20.177   6.687   1.715
67856W        W40116   8.355  20.231  14.874
67857W        W40117  42.906  11.773  10.627
67858W        W40118  14.234  35.546  10.436
67859W        W40119  44.902   2.815   3.769
67860W        W40120  13.639  19.584  12.001
67861W        W40121   6.403  40.414   2.353
67862W        W40122   8.338   3.716   0.317
67863W        W40123  27.652   3.311  14.375
67864W        W40124   4.358   9.669   2.245
67865W        W40125   0.464  25.681  11.029
67866W        W40126  14.599  13.697  13.502
67867W        W40127  28.570  16.257  14.371
67868W        W40128  29.555  29.558  10.444
67869W        W40129  29.649  28.488  12.431
67870W        W40130  18.618   2.747   1.329
67871W        W40131   4.784  40.811   3.154
67872W        W40132  35.948  23.593  14.406
67873W        W40133  41.037   6.407   0.959
67874W        W40134  37.533   2.746   0.343
67875W        W40135  33.478   8.732   4.772
67876W        W40136  37.071   5.247   0.830
67877W        W40137  34.457  37.041  13.484
67878W        W40138  20.635  39.962   2.862
67879W        W40139   5.842  12.297  13.898
67880W        W40140   1.294   2.457   1.768
67881W        W40141  14.237   5.413   3.267
67882W        W40142  32.396  26.479   0.737
67883W        W40143  44.337  12.710   2.893
67884W        W40144  37.470  32.104   0.745
67885W        W40145  24.050  11.775  12.847
67886W        W40146  43.969  11.784  10.544
67887W        W40147  26.074   4.348  13.359
67888W        W40148  22.671   8.177   2.273
67889W        W40149  34.959   9.182   3.668
67890W        W40150   2.334  16.147   1.849
67891W        W40151  26.500  30.133  12.053
67892W        W40152  44.893  39.944  12.462
67893W        W40153  26.184  44.868   3.151
67894W        W40154   0.828  35.003  13.843
67895W        W40155  26.699   6.806  12.921
67896W        W40156  20.035  10.767   3.190
67897W        W40157   4.836   1.746  13.397
67898W        W40158   6.869   8.877  11.573
67899W        W40159  12.643   1.964  12.500
67900W        W40160  26.000  42.454   1.864
67901W        W40161  13.313  24.140   0.290
67902W        W40162  33.975   9.256   3.387
67903W        W40163  31.909  25.479   0.254
67904W        W40164  11.273  25.116   1.711
67905W        W40165  17.299  40.961  12.444
67906W        W40166   7.215   1.382   4.315
67907W        W40167   7.885  27.645   1.269
67908W        W40168  39.445  36.960  13.463
67909W        W40169  15.610  38.507   9.932
67910W        W40170   1.471  39.834   1.817
67911W        W40171  43.966   9.365   2.371
67912W        W40172  21.522   6.182  14.395
67913W        W40173  10.819  26.667  10.943
67914W        W40174   5.753  33.489   3.672
67915W        W40175  12.261  21.654   2.214
67916W        W40176  32.466  40.979   3.298
67917W        W40177  33.023  39.379   1.239
67918W        W40178  37.503  30.140  14.277
67919W        W40179  16.112  19.188   4.223
67920W        W40180   8.381  44.871  14.873
67921W        W40181   5.919  36.985   2.405
67922W        W40182  12.800   5.831   1.379
67923W        W40183  15.703   9.740   2.841
67924W        W40184  33.983  22.248   4.171
67925W        W40185  35.562  17.739   9.462
67926W        W40186  31.404  20.660  14.335
67927W        W40187  31.512  22.566  10.456
67928W        W40188  17.731  25.541  14.899
67929W        W40189  23.211  38.414  11.892
67930W        W40190  11.853   7.209   3.643
67931W        W40191  13.176  17.097  10.104
67932W        W40192  12.833  34.038   2.861
67933W        W40193  32.615  36.000  14.005
67934W        W40194  26.150  22.578  13.814
67935W        W40195  36.949  37.974  11.038
67936W        W40196  39.840  21.584   4.321
67937W        W40197  15.193   4.874  14.913
67938W        W40198  16.765  23.030  10.492
67939W        W40199  32.465   8.789   2.223
67940W        W40200   9.170  39.319   0.773
67941W        W40201  37.958  13.162   0.962
67942W        W40202  42.999  38.899  13.949
67943W        W40203  15.703  23.712   1.225
67944W        W40204  24.545  34.450  13.869
67945W        W40205  37.548  26.607  13.868
67946W        W40206   8.677  19.235  13.859
67947W        W40207   5.896   4.864   4.794
67948W        W40208  41.878  11.660   1.745
67949W        W40209   9.813  41.458  12.502
67950W        W40210  29.137  21.061  12.356
67951W        W40211  23.226   2.455  11.860
67952W        W40212   5.382  20.686  11.027
67953W        W40213  29.037  42.321  12.066
67954W        W40214  44.905  23.180   2.666
67955W        W40215  37.382  31.435  12.432
67956W        W40216  43.437  10.731  11.381
67957W        W40217  29.460   1.758   1.384
67958W        W40218  36.014  16.149  12.021
67959W        W40219   4.351  36.038  13.927
67960W        W40220   3.356  34.883   4.757
67961W        W40221  32.911  12.192  13.063
67962W        W40222  14.195  12.662   4.182
67963W        W40223  13.119  18.193   3.352
67964W        W40224  26.533  44.381  12.883
67965W        W40225   6.291  37.430   5.310
67966W        W40226  12.700   3.289   2.896
67967W        W40227   5.213  32.977   3.331
67968W        W40228  22.639  25.164   4.812
67969W        W40229  12.201   5.717   3.218
67970W        W40230  41.453  39.331  14.899
67971W        W40231  11.804  13.289   4.289
67972W        W40232  17.127  30.516   3.269
67973W        W40233  38.007  26.623   4.146
67974W        W40234  23.218  27.668  10.435
67975W        W40235  32.980  34.495   3.364
67976W        W40236  16.797   3.861   1.278
67977W        W40237  40.901   2.429  13.836
67978W        W40238   4.743  14.694  11.596
67979W        W40239  41.322  28.934   4.624
67980W        W40240  24.986  14.816  10.412
67981W        W40241  16.249  42.429  12.016
67982W        W40242  39.899  16.157  10.905
67983W        W40243  17.558  24.005   2.209
67984W        W40244   6.709  24.002   1.219
67985W        W40245  37.514  32.583   0.817
67986W        W40246  25.105  22.707  11.855
67987W        W40247  20.211  31.935   2.753
67988W        W40248   1.951  25.633   0.281
67989W        W40249  35.462   8.165  10.912
67990W        W40250   3.345   2.908  10.548
67991W        W40251  30.543   3.329   5.252
67992W        W40252  22.668  44.388  13.385
67993W        W40253   6.320  33.589   1.709
67994W        W40254  25.496  20.668   1.217
67995W        W40255   8.209  21.114   3.283
67996W        W40256  12.802  30.077   0.901
67997W        W40257  13.786   5.203  14.963
67998W        W40258   4.804  39.940  13.970
67999W        W40259  44.905  25.576   4.799
68000W        W40260  23.163  14.332   0.891
68001W        W40261  10.165  23.035   1.341
68002W        W40262  24.012   0.967   1.448
68003W        W40263  13.824   8.322  13.433
68004W        W40264  31.550  36.876   1.388
68005W        W40265   0.260  30.037   2.704
68006W        W40266  17.240  36.071  10.477
68007W        W40267  15.283  14.285   1.699
68008W        W40268  25.976  41.292  14.987
68009W        W40269  22.161   5.286  14.495
68010W        W40270   6.326  13.714  11.126
68011W        W40271  34.456  11.745   4.680
68012W        W40272  21.647  16.266  13.861
68013W        W40273  12.759  32.071   5.218
68014W        W40274  17.065  33.048   1.405
68015W        W40275   9.853  18.084  13.346
68016W        W40276  16.162  43.802  14.865
68017W        W40277  13.805  26.176   4.168
68018W        W40278   9.730  14.182  12.828
68019W        W40279  11.848  31.557   2.192
68020W        W40280  25.570  34.005  11.382
68021W        W40281  18.664  26.489  12.373
68022W        W40282   5.221   6.286   1.783
68023W        W40283  21.173  21.056  10.455
68024W        W40284  15.106  12.199  13.490
68025W        W40285  10.665  41.836  13.980
68026W        W40286  40.921  36.973  12.890
68027W        W40287  41.917  29.450  13.806
68028W        W40288  27.468   9.723  11.435
68029W        W40289  17.179  24.137   4.231
68030W        W40290  14.810  34.867   3.377
68031W        W40291   8.257  38.443  14.312
68032W        W40292  32.455  10.374  10.554
68033W        W40293   3.240   7.402   3.354
68034W        W40294  37.999  30.013  12.422
68035W        W40295  28.437  35.596  10.601
68036W        W40296   1.347  21.661   2.748
68037W        W40297  40.043  24.525   0.399
68038W        W40298  40.349  33.459   4.643
68039W        W40299  40.807  40.825   0.804
68040W        W40300  20.123  11.344   0.922
68041W        W40301   9.196   2.950  11.903
68042W        W40302   2.305  15.682   1.884
68043W        W40303  23.067  23.585  12.456
68044W        W40304  44.298  37.404  10.935
68045W        W40305  38.335  13.191   4.250
68046W        W40306  28.442  16.172   0.889
68047W        W40307  34.967  13.334   1.892
68048W        W40308  25.654   7.278   4.198
68049W        W40309  38.431  34.494  12.837
68050W        W40310  37.386  34.042   4.758
68051W        W40311   5.783  37.465  13.862
68052W        W40312  14.797  38.031   0.288
68053W        W40313   4.241  13.670   3.162
68054W        W40314   8.704  17.212  14.379
68055W        W40315  25.639  24.582  11.075
68056W        W40316  34.055  34.518  11.956
68057W        W40317   5.409  13.323  12.025
68058W        W40318  28.182  16.575  10.546
68059W        W40319   6.894  40.937  14.987
68060W        W40320  21.522  23.640   4.199
68061W        W40321   0.871   7.766  12.450
68062W        W40322  23.660  24.108  12.092
68063W        W40323   7.709   3.359   1.372
68064W        W40324   5.284   7.721   2.222
68065W        W40325  39.420   9.857  12.360
68066W        W40326  44.926  32.502  13.517
68067W        W40327  29.046  12.311   1.333
68068W        W40328   7.195  20.238   3.665
68069W        W40329   9.268  31.402  12.506
68070W        W40330   0.442  18.612   1.796
68071W        W40331  31.976  23.048   2.373
68072W        W40332  34.449  19.745  14.488
68073W        W40333  18.177   0.901   3.683
68074W        W40334   5.234  39.354  11.913
68075W        W40335  16.573  38.410   0.380
68076W        W40336  25.161  14.744  14.496
68077W        W40337   3.240  24.560   3.850
68078W        W40338  38.339   4.442   4.142
68079W        W40339   3.375   5.420   0.483
68080W        W40340  24.123   9.239  14.919
68081W        W40341  28.934  16.629  12.534
68082W        W40342  11.819  11.152   0.851
68083W        W40343  15.295  42.365   0.772
68084W        W40344  43.848   2.373  13.403
68085W        W40345  38.883  17.209  12.963
68086W        W40346  32.498   5.727  12.383
68087W        W40347   2.265  25.676   0.849
68088W        W40348   5.282  28.644  11.992
68089W        W40349  42.517  29.467  11.958
68090W        W40350  14.603   7.666   3.149
68091W        W40351   1.329   6.215   2.325
68092W        W40352  22.188  28.574  11.924
68093W        W40353  19.079   8.220  13.973
68094W        W40354   2.414  33.990  13.912
68095W        W40355   9.666  38.918   2.337
68096W        W40356  37.845  25.042   1.823
68097W        W40357  34.471  39.812  13.429
68098W        W40358  31.539   1.819   2.739
68099W        W40359  43.991  34.939  13.907
68100W        W40360   2.778  34.548  13.471
68101W        W40361  43.806  25.109  10.419
68102W        W40362  42.947  41.943   2.868
68103W        W40363  27.584  37.929  11.527
68104W        W40364  12.260  25.163   1.904
68105W        W40365   0.406  28.045   1.720
68106W        W40366  35.924  20.033  14.030
68107W        W40367  37.025  42.002  14.001
68108W        W40368  18.204   0.400  11.052
68109W        W40369  26.179   2.840   0.929
68110W        W40370  35.109  32.118  11.855
68111W        W40371   4.744  30.060  14.877
68112W        W40372  36.497  28.435   0.866
68113W        W40373   0.934  19.119   0.888
68114W        W40374  32.479  26.667   9.944
68115W        W40375  18.589  40.831  12.939
68116W        W40376  36.402  24.655  14.778
68117W        W40377  24.065  36.943   2.698
68118W        W40378  35.873  12.190  14.031
68119W        W40379  40.344   3.216   4.191
68120W        W40380  39.554   0.743   1.761
68121W        W40381  26.601  39.323   4.120
68122W        W40382  43.876  43.872   2.314
68123W        W40383  29.001  19.285   3.293
68124W        W40384   9.775  19.683  11.438
68125W        W40385  15.733  19.065   2.825
68126W        W40386  16.768  21.064  10.062
68127W        W40387  13.298  34.936   5.204
68128W        W40388  24.648  20.036  14.001
68129W        W40389   5.224  14.791  13.982
68130W        W40390   1.855   6.831  14.287
68131W        W40391   0.810   1.829  12.028
68132W        W40392  34.547  26.565   0.849
68133W        W40393  26.588   3.303   3.678
68134W        W40394  37.937   5.308  10.599
68135W        W40395  44.441  36.990   1.327
68136W        W40396  11.197  24.154  11.466
68137W        W40397  32.953  15.733   2.262
68138W        W40398   1.359   9.349   1.356
68139W        W40399  18.654   5.905   1.735
68140W        W40400   3.924  13.633   0.754
68141W        W40401   3.445  22.730   1.930
68142W        W40402  22.140  31.014   0.384
68143W        W40403  30.938  22.997   3.638
68144W        W40404  41.470  21.736   2.311
68145W        W40405  40.415  19.274   2.395
68146W        W40406  24.116  14.732   2.256
68147W        W40407  16.276   0.743   3.767
68148W        W40408  22.136  31.961  11.552
68149W        W40409  36.347  11.307   1.252
68150W        W40410   1.850  37.512   2.827
68151W        W40411  39.353  10.297  13.901
68152W        W40412  19.092  39.496   4.688
68153W        W40413  18.249  30.037   2.378
68154W        W40414   5.302   2.850   1.396
68155W        W40415  12.680  25.630  13.518
68156W        W40416  35.006  34.479   2.880
68157W        W40417  38.936  16.219  13.492
68158W        W40418   0.886  12.854  11.478
68159W        W40419   5.296  38.527  11.583
68160W        W40420  28.543   5.829   1.892
68161W        W40421   1.754  13.348   4.673
68162W        W40422  30.569  35.586   0.433
68163W        W40423  29.434  22.514   9.991
68164W        W40424  20.558   6.202  14.338
68165W        W40425  33.400  35.368   3.677
68166W        W40426   4.754  34.869  14.347
68167W        W40427   1.965   3.269  12.517
68168W        W40428  33.479  13.743  14.373
68169W        W40429  39.552  32.501  14.319
68170W        W40430  36.349  38.025  11.598
68171W        W40431  28.133  30.926   2.812
68172W        W40432  43.795  19.590  13.011
68173W        W40433   4.345  14.766  11.536
68174W        W40434  28.154   1.922  12.992
68175W        W40435  20.079  17.563  12.458
68176W        W40436  41.809  36.574   3.813
68177W        W40437   8.387  26.077   0.870
68178W        W40438  37.361  18.616   2.362
68179W        W40439  43.286  18.634  13.992
68180W        W40440  30.128  42.283   0.385
68181W        W40441  41.520  33.421  11.541
68182W        W40442  34.493  22.233   2.242
68183W        W40443  33.600  31.627   1.907
68184W        W40444   7.299  14.316  14.003
68185W        W40445  36.090  17.200   5.242
68186W        W40446  23.204  19.774  12.925
68187W        W40447  35.383   2.440  14.802
68188W        W40448  14.715  12.854   3.290
68189W        W40449  17.116  15.288  13.808
68190W        W40450  42.426  26.512  11.106
68191W        W40451  32.087  15.752  12.349
68192W        W40452  31.977  20.081  14.900
68193W        W40453  42.342   9.328  10.965
68194W        W40454  31.038  23.136  12.831
68195W        W40455   0.368  28.520   0.385
68196W        W40456  36.904   3.831  13.977
68197W        W40457   2.857  22.106  12.543
68198W        W40458   6.791   9.252  14.411
68199W        W40459  19.708  17.171  11.081
68200W        W40460  34.995  23.059   2.730
68201W        W40461   7.678  43.509   0.940
68202W        W40462  40.828  26.657   2.724
68203W        W40463  33.415  26.597   4.742
68204W        W40464   1.443  38.914   1.407
68205W        W40465   5.284   7.298   0.387
68206W        W40466  34.507  24.026   2.872
68207W        W40467  19.165   1.353  13.999
68208W        W40468  21.130  14.594   2.222
68209W        W40469  13.252  27.686   4.635
68210W        W40470  42.320  12.178   0.857
68211W        W40471  35.049  22.101  12.092
68212W        W40472  24.560  25.533  11.026
68213W        W40473  37.909  13.824   2.889
68214W        W40474  33.597  39.529   0.368
68215W        W40475   6.771   5.333  13.501
68216W        W40476   6.720  25.099   1.794
68217W        W40477  32.478  34.890  11.408
68218W        W40478  13.745   0.901  14.385
68219W        W40479  29.074  25.528   4.150
68220W        W40480  33.931  30.156  13.966
68221W        W40481   9.256  24.485   3.244
68222W        W40482  38.982  17.592  12.950
68223W        W40483  25.648  41.883  11.049
68224W        W40484  39.315   6.206   2.374
68225W        W40485  21.699  14.269  13.351
68226W        W40486  41.292  28.187  14.484
68227W        W40487  29.511  44.343   1.278
68228W        W40488  23.220   7.240  12.560
68229W        W40489  40.352  34.023  13.795
68230W        W40490   0.440   5.349   0.749
68231W        W40491   6.332  27.497   3.846
68232W        W40492   7.754  27.542   9.937
68233W        W40493  28.168  31.973   5.229
68234W        W40494  37.929  21.524  13.051
68235W        W40495  37.927  39.508   2.722
68236W        W40496   8.227   7.714  13.956
68237W        W40497   9.216  25.119   3.787
68238W        W40498  26.533  19.743  14.359
68239W        W40499   0.835  32.533   3.840
68240W        W40500  36.057   5.888  11.069
68241W        W40501   4.868   4.932  14.812
68242W        W40502   6.717  14.263   1.837
68243W        W40503  42.281  43.963   4.654
68244W        W40504  32.589   1.353  10.428
68245W        W40505  29.163  13.305  11.516
68246W        W40506  28.068   8.403   0.404
68247W        W40507  41.821  28.104   2.765
68248W        W40508  29.450  22.576   1.869
68249W        W40509  32.925   1.793  11.463
68250W        W40510   8.242  25.622  13.435
68251W        W40511  32.602  32.107   1.350
68252W        W40512   1.777  18.254  11.506
68253W        W40513  40.342  25.080  13.817
68254W        W40514  35.525  12.786  13.854
68255W        W40515   4.742  15.814   1.354
68256W        W40516  26.574   3.770   4.252
68257W        W40517  14.755  40.938  11.513
68258W        W40518  16.293  12.187   2.333
68259W        W40519  14.676  34.945  10.406
68260W        W40520  16.652  34.494   1.224
68261W        W40521   3.939  40.983  13.314
68262W        W40522  41.970  31.043   0.401
68263W        W40523   9.277   8.673   2.821
68264W        W40524  24.154  31.414  10.483
68265W        W40525  35.917  25.986  13.483
68266W        W40526  20.571   2.738   4.824
68267W        W40527  39.011  36.993  12.878
68268W        W40528  37.513   7.344   5.140
68269W        W40529   6.713  28.485   3.186
68270W        W40530  36.862   8.666  13.791
68271W        W40531  43.817  29.149   4.129
68272W        W40532   6.404  36.471   3.309
68273W        W40533  20.187  17.677   4.168
68274W        W40534   2.368  10.214  14.011
68275W        W40535  43.484  25.978  11.865
68276W        W40536  24.095  21.116  10.961
68277W        W40537   2.842  11.713   1.794
68278W        W40538  42.423  37.864   4.625
68279W        W40539  35.454   5.297   4.214
68280W        W40540  14.799  11.255   2.735
68281W        W40541  35.920  31.467  12.958
68282W        W40542  24.191   0.944   3.299
68283W        W40543  35.938  10.643  10.451
68284W        W40544   9.279  22.131  12.041
68285W        W40545  29.941  32.619  13.013
68286W        W40546  16.606   0.912  13.030
68287W        W40547  13.324  32.095  13.003
68288W        W40548  38.956  29.937   0.847
68289W        W40549   5.277  23.091  13.988
68290W        W40550  10.864  16.589   0.772
68291W        W40551  38.396  24.057   2.236
68292W        W40552  14.646  35.878   0.277
68293W        W40553  43.775   7.668   4.709
68294W        W40554  26.031  37.017  13.411
68295W        W40555  39.896  22.106   1.926
68296W        W40556   4.220  44.976   2.794
68297W        W40557  42.819  32.507   1.219
68298W        W40558  28.637   7.723  11.500
68299W        W40559  33.471   8.817   2.301
68300W        W40560  12.729   2.868  11.966
68301W        W40561   2.889  34.564   4.352
68302W        W40562   0.752   2.332  11.478
68303W        W40563   5.875  25.568   0.728
68304W        W40564  38.901  38.822  10.639
68305W        W40565  31.492   0.336   4.765
68306W        W40566   9.885   3.287  11.866
68307W        W40567  13.646  21.553  10.488
68308W        W40568   2.781  23.220  10.411
68309W        W40569   2.441  41.385  14.303
68310W        W40570   5.357  21.117  11.079
68311W        W40571  21.714   8.367   0.792
68312W        W40572   9.385   1.967  13.972
68313W        W40573  28.563  37.529   5.305
68314W        W40574   9.679  12.641  13.974
68315W        W40575  28.961  28.449  13.991
68316W        W40576  34.393  14.799   1.436
68317W        W40577  20.109  21.053   9.959
68318W        W40578  22.597   4.432  14.850
68319W        W40579  15.589   2.758  11.999
68320W        W40580  24.595   8.766   0.768
68321W        W40581  29.986   6.724  14.996
68322W        W40582   9.381  34.983   2.894
68323W        W40583  24.533  33.941  11.897
68324W        W40584  23.646  18.757  11.482
68325W        W40585   9.863  43.991   1.798
68326W        W40586  19.138  25.210  13.326
68327W        W40587  25.604   8.656   0.244
68328W        W40588  31.483  11.279  11.101
68329W        W40589  23.124  12.144   2.284
68330W        W40590  26.203   9.761   1.878
68331W        W40591  44.405  36.088   5.275
68332W        W40592   2.377  36.954  13.024
68333W        W40593   8.360   7.725   0.255
68334W        W40594   1.751  22.734   2.269
68335W        W40595  11.287  15.320  10.583
68336W        W40596  36.373  25.106  11.480
68337W        W40597  20.170   5.718  11.058
68338W        W40598   4.892  20.154  11.465
68339W        W40599  25.700  38.939   3.367
68340W        W40600  44.956  20.105  14.285
68341W        W40601  38.999  43.915  14.837
68342W        W40602  28.471  13.351   0.904
68343W        W40603  21.575  40.049  14.983
68344W        W40604   5.381  30.516  14.493
68345W        W40605   4.204   2.782  10.476
68346W        W40606  21.650  20.071   1.431
68347W        W40607  13.768  12.786   2.843
68348W        W40608  14.123  30.081   2.745
68349W        W40609  37.472  14.831   2.729
68350W        W40610  25.642  41.439  11.388
68351W        W40611  21.228   7.798   1.851
68352W        W40612  35.471  35.417  13.361
68353W        W40613  35.471  42.403  12.856
68354W        W40614  32.594  41.950  10.466
68355W        W40615  33.888  33.522  14.498
68356W        W40616   3.793  20.526   2.769
68357W        W40617   8.282  23.039  11.947
68358W        W40618  38.533   8.805  12.571
68359W        W40619  19.540  38.916   9.921
68360W        W40620  40.940  22.562   2.208
68361W        W40621  36.856  14.778   3.206
68362W        W40622  18.204  29.519  14.368
68363W        W40623  40.472   0.466  14.332
68364W        W40624   3.834  11.141  11.487
68365W        W40625  29.569  39.878   1.315
68366W        W40626  31.478   1.759  12.438
68367W        W40627  22.192  30.122  12.944
68368W        W40628  37.535  23.055   2.345
68369W        W40629  17.619  22.547  11.592
68370W        W40630  33.880  29.088  13.375
68371W        W40631  42.837   3.882  12.476
68372W        W40632  17.703  21.146  14.941
68373W        W40633  38.996  12.658   2.825
68374W        W40634  34.402  36.587   0.416
68375W        W40635   1.317  43.360  14.408
68376W        W40636  29.027   1.858  14.860
68377W        W40637  36.025   2.369  13.496
68378W        W40638  32.504  17.252  11.455
68379W        W40639  35.447  13.769  14.355
68380W        W40640  38.823   1.383   4.694
68381W        W40641  43.012  31.048   3.343
68382W        W40642  31.043  33.400  11.450
68383W        W40643  26.167  44.954   4.674
68384W        W40644  16.262  29.051   0.445
68385W        W40645   5.365  24.013   2.262
68386W        W40646  42.414  37.517   4.185
68387W        W40647  18.264   3.307  11.410
68388W        W40648  31.457  40.480  11.475
68389W        W40649  41.829  39.825  14.418
68390W        W40650  24.210  32.986  14.941
68391W        W40651  19.267  21.263  11.037
68392W        W40652  19.640   0.813   2.864
68393W        W40653   3.828  15.700   2.874
68394W        W40654  38.902   6.863  14.978
68395W        W40655   1.925  25.184  10.548
68396W        W40656  23.214  14.209   1.696
68397W        W40657  34.481  30.163   3.196
68398W        W40658   1.884  23.633   0.911
68399W        W40659  28.656  36.035  12.899
68400W        W40660   4.736  13.199  11.077
68401W        W40661  42.508  42.371   0.808
68402W        W40662  39.511  17.796   4.281
68403W        W40663  36.005  28.565  11.571
68404W        W40664  42.918  12.637   3.842
68405W        W40665  33.485  29.501  10.565
68406W        W40666  30.603   5.330   0.810
68407W        W40667  24.198  27.137   2.327
68408W        W40668  18.570  33.116   0.963
68409W        W40669  21.256   5.718  14.386
68410W        W40670  24.560  15.287   4.143
68411W        W40671  27.455  41.824  10.454
68412W        W40672  35.075   1.273  12.500
68413W        W40673  30.045   8.270   4.702
68414W        W40674  23.064  39.500  14.467
68415W        W40675  28.442  37.894   3.824
68416W        W40676  29.589  13.322  11.923
68417W        W40677  38.460  28.637   2.187
68418W        W40678  38.456  39.393  14.008
68419W        W40679  27.032  14.331   3.702
68420W        W40680  24.611  28.078  12.531
68421W        W40681  16.580  34.983  13.025
68422W        W40682  22.680  34.528  13.022
68423W        W40683  14.314  34.563   1.889
68424W        W40684  23.567  20.191  10.507
68425W        W40685  36.523   7.215   2.862
68426W        W40686  13.811  26.647  11.402
68427W        W40687  17.158  37.478  14.275
68428W        W40688   9.217  28.170  10.958
68429W        W40689  29.553  32.488   0.249
68430W        W40690   3.453  39.887  13.359
68431W        W40691  26.647  42.465   4.615
68432W        W40692  33.588  37.349  14.816
68433W        W40693   6.809  17.073   4.686
68434W        W40694  21.567  43.327  10.636
68435W        W40695  41.428   5.349   4.615
68436W        W40696  30.989  44.899   1.432
68437W        W40697  38.568  41.817  11.026
68438W        W40698  38.856  16.250   3.167
68439W        W40699   4.409   0.952   3.796
68440W        W40700   6.217  25.046   4.207
68441W        W40701  42.785  13.767  14.865
68442W        W40702   2.450   7.775  14.820
68443W        W40703  29.989  12.736  11.865
68444W        W40704  12.629  17.681  12.089
68445W        W40705  29.106  40.543   0.851
68446W        W40706  39.948  37.521   1.870
68447W        W40707  38.067  15.103  13.861
68448W        W40708  18.121   9.180  13.436
68449W        W40709  24.513  15.823   2.227
68450W        W40710  15.678  40.811   5.205
68451W        W40711   0.292  11.657  13.952
68452W        W40712  31.502   2.768   4.343
68453W        W40713  31.105  38.026  13.865
68454W        W40714   9.226  28.485   4.195
68455W        W40715  20.225  30.466   5.083
68456W        W40716   9.850  34.524  13.324
68457W        W40717  28.467   0.952  10.576
68458W        W40718  11.744   8.231   4.244
68459W        W40719  31.645  28.573  14.765
68460W        W40720   6.920  25.151   3.811
68461W        W40721   5.808  44.474  12.452
68462W        W40722  20.238  34.457   3.301
68463W        W40723   7.745  17.221  13.911
68464W        W40724  19.689  37.948  12.910
68465W        W40725  44.470  16.575  13.483
68466W        W40726   0.789  36.897  14.790
68467W        W40727  15.246  11.703  10.633
68468W        W40728  42.004  33.586  10.969
68469W        W40729  40.514  23.684  12.860
68470W        W40730  36.851  30.043  13.809
68471W        W40731  25.698   4.874  11.466
68472W        W40732  32.967  27.473   1.322
68473W        W40733  28.611   2.376  12.092
68474W        W40734  11.141  10.277  11.603
68475W        W40735  19.199  21.075  13.346
68476W        W40736  21.717  38.948   3.862
68477W        W40737  33.007   7.274   1.252
68478W        W40738   9.721  39.835   1.225
68479W        W40739   8.668   4.308   1.804
68480W        W40740  29.161   2.914   4.244
68481W        W40741   0.836   1.805  10.050
68482W        W40742  28.135  26.181  12.044
68483W        W40743   0.338  23.524   4.741
68484W        W40744  26.052   9.316   2.838
68485W        W40745  24.039  41.412   1.877
68486W        W40746  28.551  14.628  11.538
68487W        W40747  42.440  10.857   3.332
68488W        W40748   9.195  21.138   0.938
68489W        W40749  42.844  43.380  14.408
68490W        W40750  40.484   1.819   4.641
68491W        W40751  34.489  17.603  13.865
68492W        W40752  14.691  17.171   2.279
68493W        W40753  25.497   8.399  14.436
68494W        W40754  44.404  31.430   1.905
68495W        W40755  32.099  13.105   2.799
68496W        W40756   9.857  36.471  12.955
68497W        W40757   9.349  20.252   4.297
68498W        W40758  34.952  36.973   2.878
68499W        W40759  21.667  33.951  14.384
68500W        W40760  31.030  23.621   0.923
68501W        W40761   8.242  33.558  13.423
68502W        W40762   8.787  19.079  11.556
68503W        W40763   0.888  40.840   1.270
68504W        W40764  41.459  15.635  13.515
68505W        W40765  20.114  38.337  11.064
68506W        W40766  29.077  14.798   1.902
68507W        W40767  20.157  17.092   4.752
68508W        W40768  16.578  21.534   0.851
68509W        W40769  40.051  39.951   1.363
68510W        W40770   4.839  36.532   3.159
68511W        W40771  15.638  39.551  14.881
68512W        W40772  21.214  16.809  12.342
68513W        W40773   7.196  34.093  12.823
68514W        W40774  16.764  23.207   4.118
68515W        W40775   0.255  19.212   2.339
68516W        W40776  32.040  41.980  11.054
68517W        W40777   2.398   0.770  12.091
68518W        W40778  10.291  17.207  12.485
68519W        W40779  35.527  17.173   0.895
68520W        W40780   7.223  12.681   1.732
68521W        W40781   9.727  27.023   4.724
68522W        W40782  21.577  44.779  13.943
68523W        W40783  41.903  30.935   4.286
68524W        W40784  41.848  37.545   4.305
68525W        W40785  11.779  33.477  10.644
68526W        W40786   5.918  43.463  12.854
68527W        W40787  12.188   4.401  14.994
68528W        W40788   3.407  34.941   5.102
68529W        W40789  29.573  31.053   3.704
68530W        W40790  10.340  33.571  13.425
68531W        W40791  40.963  21.064  13.434
68532W        W40792   1.343  35.952   3.282
68533W        W40793  40.921  34.092   1.377
68534W        W40794  24.035  12.712  13.349
68535W        W40795  19.114  18.546  12.954
68536W        W40796  25.044  21.187   0.879
68537W        W40797   6.878  36.916  13.537
68538W        W40798  13.279  40.862   4.290
68539W        W40799  34.974  41.894   1.261
68540W        W40800  31.598  10.832   0.929
68541W        W40801  30.108  19.183   4.747
68542W        W40802  28.991  11.238   4.798
68543W        W40803   7.743  19.168  12.977
68544W        W40804   8.656  24.070   0.898
68545W        W40805  29.923  33.944  11.573
68546W        W40806  28.087   2.257   2.333
68547W        W40807  37.582  39.944  14.958
68548W        W40808  37.009  10.669   1.771
68549W        W40809  11.824  15.592  10.536
68550W        W40810  25.575  37.490  10.920
68551W        W40811  30.561  43.366  10.444
68552W        W40812  34.956  38.822   0.284
68553W        W40813  15.260  27.523   1.837
68554W        W40814   0.856  42.443  13.894
68555W        W40815   0.982  12.317   2.341
68556W        W40816  27.555  29.615  12.048
68557W        W40817  22.568  33.911   3.682
68558W        W40818  22.114  25.139   3.806
68559W        W40819  24.648  12.647  14.447
68560W        W40820  10.819  22.089   2.305
68561W        W40821  29.962   6.751  12.493
68562W        W40822  13.338   5.277   3.820
68563W        W40823   9.813  37.912  10.943
68564W        W40824  26.013  44.834  14.912
68565W        W40825  22.554   3.727  13.048
68566W        W40826  23.717  16.587   1.251
68567W        W40827   1.308  22.086  13.506
68568W        W40828  43.309  19.746   0.929
68569W        W40829  40.948   7.776   0.885
68570W        W40830  39.417   9.689  13.473
68571W        W40831  31.487  41.313   3.641
68572W        W40832  39.016   5.877   4.309
68573W        W40833  39.392  11.682   1.877
68574W        W40834  32.135  39.353   1.343
68575W        W40835  20.694  30.915  14.773
68576W        W40836  35.445  32.604   2.730
68577W        W40837  14.285  42.955  10.056
68578W        W40838   5.891   5.739   3.792
68579W        W40839   7.249  35.096   4.778
68580W        W40840  20.618   1.457   3.768
68581W        W40841  42.493   4.360  10.925
68582W        W40842  33.905  21.111  12.409
68583W        W40843  36.896  36.082   1.701
68584W        W40844  27.555  42.907  13.350
68585W        W40845  17.667  12.660   0.944
68586W        W40846  27.567   4.312  13.440
68587W        W40847  17.616   1.324   1.404
68588W        W40848  42.288  25.208  14.299
68589W        W40849  32.477   5.841   4.142
68590W        W40850  16.096  16.146   2.370
68591W        W40851   6.811  33.473  14.292
68592W        W40852  24.610  36.959   3.316
68593W        W40853  44.285   8.796   3.787
68594W        W40854  23.105  36.870  11.548
68595W        W40855  12.826  29.056   0.759
68596W        W40856  14.264  35.523  14.499
68597W        W40857  26.643  16.263  14.780
68598W        W40858  25.012  16.177   0.416
68599W        W40859  29.648   0.322   1.798
68600W        W40860  38.521  18.783   3.729
68601W        W40861   8.382  11.264   1.298
68602W        W40862  17.120  24.722  12.465
68603W        W40863   7.820  12.326   2.681
68604W        W40864   9.880  29.096   1.900
68605W        W40865  10.671  35.456   2.871
68606W        W40866   2.318  40.822   2.270
68607W        W40867   7.266  13.185  14.345
68608W        W40868  36.938  21.688  12.907
68609W        W40869   8.175  37.058  12.898
68610W        W40870  37.504   7.752   1.396
68611W        W40871  31.466  17.735   3.299
68612W        W40872  38.996  18.165   4.750
68613W        W40873  36.987  44.783   3.700
68614W        W40874  26.542  28.937  11.050
68615W        W40875  41.474  26.471   4.715
68616W        W40876  10.345  12.253   1.781
68617W        W40877  25.139  37.048  12.567
68618W        W40878  23.614  33.533  11.920
68619W        W40879  11.342   9.340   2.268
68620W        W40880  10.750  26.536   1.254
68621W        W40881  36.467  44.313  13.923
68622W        W40882  25.650  35.488   3.861
68623W        W40883   1.764  15.740  11.371
68624W        W40884  38.425  18.719   0.308
68625W        W40885  29.472  18.548  12.830
68626W        W40886  32.954  17.627  13.892
68627W        W40887  33.925  15.687   2.663
68628W        W40888  11.722  19.170   3.204
68629W        W40889  27.994  36.891   4.308
68630W        W40890   3.426  30.137   4.343
68631W        W40891   2.309   3.930   2.773
68632W        W40892  30.020  22.634   1.379
68633W        W40893  43.384  11.709   0.459
68634W        W40894  32.908  10.274   4.752
68635W        W40895  11.625  17.287  14.803
68636W        W40896  33.101   0.462  12.085
68637W        W40897  26.109  18.732  11.603
68638W        W40898  35.032  44.003   1.402
68639W        W40899  30.144  31.969  11.902
68640W        W40900  12.336   7.850   3.815
68641W        W40901   1.315  25.071   1.228
68642W        W40902  42.954  16.133   2.208
68643W        W40903  29.032  36.897  12.913
68644W        W40904  42.898   2.386  12.956
68645W        W40905   1.859  40.937  13.353
68646W        W40906  36.980  34.011  11.124
68647W        W40907  23.588   9.713  12.512
68648W        W40908   2.268  36.581  14.379
68649W        W40909  36.999  37.343  11.934
68650W        W40910   5.840   5.418   0.950
68651W        W40911  23.573  34.590  11.123
68652W        W40912   2.371  25.004  12.917
68653W        W40913  38.038  38.010  13.973
68654W        W40914   5.351   2.840  10.612
68655W        W40915  33.022  28.940   2.716
68656W        W40916  42.984  25.095   2.340
68657W        W40917   4.314  13.731  14.514
68658W        W40918  24.593  34.922  11.113
68659W        W40919  37.572  11.161   2.337
68660W        W40920  16.652   7.896   9.449
68661W        W40921  33.958  15.133   1.269
68662W        W40922  41.883  25.002   0.481
68663W        W40923  20.537  40.407   3.162
68664W        W40924  38.421  18.764  13.989
68665W        W40925  42.343   5.901   2.241
68666W        W40926  33.409  14.238   1.921
68667W        W40927   2.902  43.862   4.216
68668W        W40928  26.978  12.203   3.149
68669W        W40929  38.493  10.833  10.151
68670W        W40930  34.546  27.104   3.736
68671W        W40931  18.596  32.618   4.180
68672W        W40932  34.902  20.629   1.272
68673W        W40933  28.930  28.533   4.718
68674W        W40934  40.847  40.547  12.452
68675W        W40935  10.740  27.687   4.212
68676W        W40936  22.203  19.106   0.252
68677W        W40937  15.653  37.568   9.987
68678W        W40938  36.872  38.362   3.756
68679W        W40939  34.013  37.865   0.903
68680W        W40940  42.516   0.977  14.504
68681W        W40941   3.304   0.319  13.345
68682W        W40942  25.472  42.999   1.318
68683W        W40943  35.378  23.170  11.422
68684W        W40944  34.381  24.711   4.217
68685W        W40945  40.387  37.366   2.813
68686W        W40946  18.223  13.266  13.330
68687W        W40947  34.527  16.080  14.790
68688W        W40948  30.087  29.425  12.397
68689W        W40949  19.577   7.286  10.930
68690W        W40950  40.540  20.203   4.705
68691W        W40951  27.631  38.373  11.055
68692W        W40952   0.764  34.523  10.495
68693W        W40953  25.177  11.741  10.556
68694W        W40954  16.253  17.557   5.585
68695W        W40955   6.842  11.242  12.515
68696W        W40956  20.165  18.241   1.877
68697W        W40957  41.332  38.517   0.884
68698W        W40958  34.424  39.812   3.327
68699W        W40959   6.337  29.527  11.398
68700W        W40960   7.769   3.938   4.236
68701W        W40961   6.198  29.476   2.802
68702W        W40962  21.152  43.392  13.048
68703W        W40963  43.969  19.090  13.901
68704W        W40964  40.537  36.521  11.099
68705W        W40965  33.113   6.759  12.386
68706W        W40966  36.511  14.240  13.320
68707W        W40967  43.340  15.682  12.479
68708W        W40968  27.666  18.154  14.851
68709W        W40969  41.852  15.641  14.452
68710W        W40970  18.282  12.358  12.498
68711W        W40971  36.389  39.557  14.277
68712W        W40972  38.532  30.522  10.892
68713W        W40973   5.807  42.941  10.538
68714W        W40974  31.945  26.606   4.351
68715W        W40975  17.642  17.178  10.973
68716W        W40976  20.523  13.117  13.341
68717W        W40977  30.017  42.032  12.858
68718W        W40978  26.173   0.750  11.580
68719W        W40979  29.975  44.358   2.334
68720W        W40980   5.303  22.047   3.768
68721W        W40981  28.070  36.539   4.692
68722W        W40982   9.152   3.250   4.735
68723W        W40983  30.985  23.694  10.525
68724W        W40984  19.141   8.232   1.714
68725W        W40985  40.370  43.440  10.406
68726W        W40986  21.704   8.773  12.574
68727W        W40987  36.490  28.654   1.779
68728W        W40988  42.307  23.546   2.852
68729W        W40989  18.073   0.430  10.447
68730W        W40990  14.254   3.268  11.907
68731W        W40991  32.979  37.397  10.492
68732W        W40992  11.144  29.998  11.877
68733W        W40993  14.262  25.181   0.299
68734W        W40994  25.141   3.275  10.909
68735W        W40995  16.109  16.109   3.801
68736W        W40996   8.341  15.119   4.295
68737W        W40997  39.937  26.490   3.290
68738W        W40998  38.567  33.517   3.744
68739W        W40999   8.690  43.977  10.415
68740W        W41000  40.501  43.350  12.097
68741W        W41001  14.327  34.397  14.510
68742W        W41002  17.075   5.904   2.289
68743W        W41003  34.401  32.988  11.487
68744W        W41004   9.366   6.776   2.224
68745W        W41005  44.406  20.192  13.434
68746W        W41006  14.815  40.899  12.990
68747W        W41007  36.909  17.571  14.368
68748W        W41008  42.312  18.703   0.429
68749W        W41009   2.318  17.556  12.854
68750W        W41010  32.563   0.948   2.854
68751W        W41011   0.350  21.083  12.886
68752W        W41012  21.513   1.920  12.491
68753W        W41013  24.690  44.304   1.785
68754W        W41014  16.714  13.180  13.998
68755W        W41015  34.554  42.324  14.404
68756W        W41016  26.990  22.657   4.222
68757W        W41017   4.238  12.687  11.933
68758W        W41018  32.615  44.767   0.349
68759W        W41019  20.575   2.738  12.570
68760W        W41020   0.394  26.080  12.498
68761W        W41021  40.385   2.261   1.223
68762W        W41022  35.570  25.631  12.362
68763W        W41023  28.108   6.923   1.269
68764W        W41024  29.171  41.380   3.747
68765W        W41025  33.950  39.527   4.230
68766W        W41026  12.809  20.126  10.549
68767W        W41027  35.053  35.063  12.825
68768W        W41028  38.540  10.303  13.964
68769W        W41029  38.074  12.155   3.322
68770W        W41030   4.943  36.051  11.108
68771W        W41031  38.371  12.714  10.460
68772W        W41032  16.279  11.740  11.958
68773W        W41033  35.976  25.176  12.979
68774W        W41034  40.818  43.474  13.793
68775W        W41035  44.771   6.334   4.739
68776W        W41036  10.791  10.752   1.887
68777W        W41037  37.876  35.909   2.672
68778W        W41038  39.861  15.319   4.347
68779W        W41039  24.673  27.678  12.009
68780W        W41040  38.890  11.684   0.432
68781W        W41041   0.405   8.310   2.314
68782W        W41042   1.894   2.765  14.975
68783W        W41043  44.842  44.405   4.131
68784W        W41044  12.230   6.919   2.735
68785W        W41045   1.307  25.508  10.956
68786W        W41046  25.540  44.987  13.315
68787W        W41047  30.549  36.971  13.885
68788W        W41048  27.196  44.909  10.514
68789W        W41049  25.086  29.151  11.989
68790W        W41050  16.648   8.690   0.813
68791W        W41051  34.556  40.809   0.765
68792W        W41052   2.320  21.238   4.735
68793W        W41053  39.395  22.032  11.590
68794W        W41054  35.447   3.347  14.439
68795W        W41055   3.368  26.082  11.041
68796W        W41056  32.058  39.949   1.896
68797W        W41057  20.616  22.150   4.298
68798W        W41058   8.829  40.517   2.836
68799W        W41059  28.182  43.826   4.762
68800W        W41060   6.381  30.146   2.717
68801W        W41061  33.965  34.587  13.356
68802W        W41062  25.656   3.724   3.684
68803W        W41063  36.377   4.855   3.272
68804W        W41064  19.054  40.423  12.457
68805W        W41065  22.509  17.717   4.675
68806W        W41066  36.529  25.488   2.403
68807W        W41067  36.075  21.069   0.869
68808W        W41068  17.200   0.260  12.011
68809W        W41069  43.959  21.099   0.331
68810W        W41070  10.180   9.705   0.894
68811W        W41071   6.313   0.839   3.725
68812W        W41072  18.704   4.313   4.615
68813W        W41073   5.924  43.950  12.471
68814W        W41074  43.794  35.511   1.414
68815W        W41075  42.970  12.204  12.497
68816W        W41076  39.451  40.990   1.414
68817W        W41077  29.026  34.420  11.122
68818W        W41078   7.275  10.828   1.364
68819W        W41079  25.675   0.270  14.352
68820W        W41080   2.455  20.063  12.431
68821W        W41081  44.504   3.372   4.215
68822W        W41082   1.795   5.762  13.378
68823W        W41083  11.665  38.531   2.218
68824W        W41084  14.642  36.974  13.993
68825W        W41085  20.049  37.473   2.691
68826W        W41086  20.064   7.697   9.452
68827W        W41087  19.691  14.319  10.119
68828W        W41088  25.120   7.737   0.799
68829W        W41089  35.405  18.698   0.805
68830W        W41090  39.947  19.284  12.517
68831W        W41091  28.141  12.275  12.877
68832W        W41092  20.119  44.267   4.828
68833W        W41093   3.451  38.413  11.432
68834W        W41094  37.066  40.499  11.468
68835W        W41095  38.324  18.154  12.394
68836W        W41096   4.816   0.904  13.032
68837W        W41097  32.577  29.928   3.649
68838W        W41098  40.524  23.576  11.103
68839W        W41099  19.063  36.521   0.266
68840W        W41100  37.363  26.179   1.774
68841W        W41101  13.739   1.847  11.128
68842W        W41102  22.138  17.266   3.366
68843W        W41103  44.403  43.796   2.261
68844W        W41104  18.171  29.173  11.455
68845W        W41105  30.536  21.627  13.937
68846W        W41106  44.875  43.986  12.482
68847W        W41107  14.630  13.767   9.671
68848W        W41108  43.387  28.056  13.036
68849W        W41109  41.991  29.130   1.391
68850W        W41110  22.576  35.584  14.784
68851W        W41111   2.902   1.879   3.707
68852W        W41112  29.132  10.740   4.678
68853W        W41113   6.363  31.075  11.441
68854W        W41114  43.442  39.508  12.843
68855W        W41115  17.606  35.395  12.890
68856W        W41116  36.846   3.842   4.206
68857W        W41117  42.020  38.421  12.083
68858W        W41118  10.808  34.108   3.239
68859W        W41119  32.955  44.849   4.295
68860W        W41120  34.597  13.756  11.092
68861W        W41121   2.879   0.314   4.617
68862W        W41122  23.023  23.165   0.285
68863W        W41123  30.421  10.813   3.769
68864W        W41124   9.207  44.333   2.330
68865W        W41125  41.951  20.695   2.279
68866W        W41126  10.669  25.550   0.416
68867W        W41127   7.726  36.042  14.441
68868W        W41128  20.261  22.506   2.750
68869W        W41129   2.298  40.439  14.285
68870W        W41130  25.485  27.012   3.678
68871W        W41131  35.471  29.489   4.708
68872W        W41132  44.846  28.098  13.813
68873W        W41133  24.218  18.235   5.233
68874W        W41134   1.408  22.157  12.074
68875W        W41135   0.838  24.479  12.509
68876W        W41136  39.013  29.510   1.381
68877W        W41137   0.763  39.812   2.213
68878W        W41138  20.059  31.417   0.904
68879W        W41139   7.892  34.045   2.740
68880W        W41140   2.303  38.915   3.293
68881W        W41141  37.065  35.894  13.897
68882W        W41142   5.802  32.897   4.247
68883W        W41143  33.540  22.522  11.423
68884W        W41144  39.540   8.394  13.451
68885W        W41145  43.479  44.487   0.827
68886W        W41146   4.806  35.509  12.827
68887W        W41147   8.778   6.754   3.176
68888W        W41148  33.536  22.732  13.829
68889W        W41149  24.104  34.031  14.372
68890W        W41150   3.787   5.782   4.683
68891W        W41151  18.126  19.580  14.815
68892W        W41152  32.105  12.248  14.786
68893W        W41153  28.066  22.663   1.322
68894W        W41154  22.625  30.999   1.399
68895W        W41155   6.908  33.892  11.549
68896W        W41156  41.842  37.558   3.866
68897W        W41157  27.666  14.711   4.647
68898W        W41158  19.171  17.707  11.004
68899W        W41159  38.903   2.350  10.496
68900W        W41160  41.879  24.627  10.620
68901W        W41161  33.040  10.154  12.911
68902W        W41162   3.887   2.269  14.300
68903W        W41163  30.651  38.332  12.960
68904W        W41164  32.394  31.461   2.710
68905W        W41165   2.276   8.858  13.974
68906W        W41166  24.085  22.671  12.879
68907W        W41167  19.232   4.735  11.125
68908W        W41168  36.464  30.961   0.250
68909W        W41169  23.697  42.871  10.493
68910W        W41170   6.794  16.297   4.235
68911W        W41171  10.724   0.256  12.923
68912W        W41172  13.752  33.929  14.347
68913W        W41173  18.569  17.140   0.837
68914W        W41174  25.971   8.727  11.955
68915W        W41175  32.064   7.390   0.473
68916W        W41176  33.933  36.478   1.839
68917W        W41177  12.611  22.089   4.311
68918W        W41178   8.178  14.795  14.999
68919W        W41179   3.298  20.606  13.403
68920W        W41180  13.278   8.844   3.698
68921W        W41181  44.380  26.678   4.813
68922W        W41182  34.075  10.233  14.782
68923W        W41183  35.883  29.637   3.844
68924W        W41184  29.016  24.094   1.326
68925W        W41185  15.816   2.418   2.306
68926W        W41186  42.345  39.872   2.749
68927W        W41187   6.807  32.510   3.864
68928W        W41188  40.398  24.164  14.964
68929W        W41189  21.646  18.688   9.567
68930W        W41190  15.215   7.176  10.634
68931W        W41191  33.961  44.770  11.026
68932W        W41192   7.704  22.731   4.347
68933W        W41193  40.941  41.852   0.445
68934W        W41194  13.194  20.703  14.339
68935W        W41195   2.324  14.689  11.493
68936W        W41196  19.732   0.886  14.814
68937W        W41197  36.347  27.140  14.802
68938W        W41198  38.375  44.291  11.899
68939W        W41199  23.056  11.309  10.473
68940W        W41200   4.416  13.158  13.536
68941W        W41201  26.517  29.067  12.352
68942W        W41202  37.065  39.439   3.697
68943W        W41203  32.097  30.509  14.478
68944W        W41204  28.074  13.236   4.173
68945W        W41205  35.434  33.111   1.374
68946W        W41206  13.220  10.147   4.703
68947W        W41207  18.758  41.373  10.525
68948W        W41208  16.626  25.693   4.331
68949W        W41209  34.003   5.294   0.480
68950W        W41210  10.642   0.370   4.331
68951W        W41211  12.632   0.349  13.893
68952W        W41212  26.584  14.636   4.327
68953W        W41213  10.185  22.046   2.369
68954W        W41214   7.344  25.001  13.905
68955W        W41215  35.401  28.987   1.382
68956W        W41216  22.184  40.513  14.785
68957W        W41217  18.108  31.574   2.903
68958W        W41218  26.637  23.987  14.814
68959W        W41219  37.968   9.199  11.985
68960W        W41220  18.184  30.519  13.404
68961W        W41221  12.156  32.932   4.159
68962W        W41222  23.208  19.601   3.671
68963W        W41223  21.106   2.316  14.773
68964W        W41224  31.955   7.372  14.843
68965W        W41225  41.433  26.021  11.965
68966W        W41226  36.558  10.346  11.417
68967W        W41227  43.930   3.887  12.505
68968W        W41228  41.363   0.336  11.880
68969W        W41229  44.402  36.577   3.369
68970W        W41230  10.793   6.370  11.031
68971W        W41231  25.507  40.434  14.491
68972W        W41232   6.763  25.500  14.394
68973W        W41233  26.125  21.229   4.606
68974W        W41234  17.629  14.641   3.719
68975W        W41235  11.754  13.147  10.936
68976W        W41236  21.112  33.454  11.012
68977W        W41237   4.214  29.102  13.435
68978W        W41238  10.196   0.822   1.219
68979W        W41239   9.756  26.702   3.746
68980W        W41240   6.885  26.192  12.486
68981W        W41241  19.601  34.586   4.784
68982W        W41242  30.923  26.464   3.796
68983W        W41243   6.349  24.225  11.127
68984W        W41244  15.136   8.788   2.853
68985W        W41245  29.999  15.259  12.554
68986W        W41246  21.150   8.377   0.942
68987W        W41247  16.193  38.886  10.511
68988W        W41248   3.324  31.642   3.733
68989W        W41249   6.861  34.508  14.338
68990W        W41250   0.307  10.668   2.386
68991W        W41251  20.621  26.997  12.350
68992W        W41252  35.869  10.739  11.871
68993W        W41253  33.547  26.033   2.859
68994W        W41254  14.170  22.228   4.734
68995W        W41255  16.209  26.134   0.342
68996W        W41256  37.035  38.980   0.881
68997W        W41257  35.588  36.370  10.458
68998W        W41258  40.517  24.118   3.155
68999W        W41259  43.316  18.697   3.229
69000W        W41260   7.878  36.900   3.190
69001W        W41261  42.999  13.758  14.403
69002W        W41262  26.696   6.678  12.061
69003W        W41263  15.094  29.110   4.689
69004W        W41264   8.351  17.138   1.425
69005W        W41265  22.689  13.799  13.352
69006W        W41266  33.535  13.147  13.910
69007W        W41267  28.095  13.219   3.170
69008W        W41268  25.159  39.903   4.813
69009W        W41269  35.853  30.152  13.944
69010W        W41270  25.151  15.136  10.632
69011W        W41271  31.524  11.239   4.640
69012W        W41272   4.314  18.654  13.013
69013W        W41273  40.913  15.128  10.899
69014W        W41274   6.793  35.988  14.974
69015W        W41275  43.766  42.441   2.800
69016W        W41276  23.495   1.810  13.352
69017W        W41277  40.339  28.455  13.527
69018W        W41278   3.714  34.563   3.663
69019W        W41279  13.796  33.388   3.265
69020W        W41280  16.617  42.316   4.726
69021W        W41281  32.625  26.992   1.328
69022W        W41282   8.803  27.549  11.470
69023W        W41283  38.509  21.206  14.002
69024W        W41284  27.551  20.572   3.719
69025W        W41285  14.106  13.262   4.119
69026W        W41286  33.988  13.203  14.809
69027W        W41287   6.703  19.254  12.995
69028W        W41288  43.407   3.947  14.339
69029W        W41289  28.976  15.730  14.334
69030W        W41290  15.760  24.211  14.372
69031W        W41291   3.346  31.405   4.752
69032W        W41292  32.457   1.783  13.885
69033W        W41293  43.764  32.002   0.929
69034W        W41294  34.584  38.341   3.289
69035W        W41295  44.799  18.155  13.380
69036W        W41296   0.788  25.503   0.308
69037W        W41297  41.307  31.024  12.513
69038W        W41298  12.190  30.142   0.865
69039W        W41299  36.942  36.455  14.847
69040W        W41300  41.447  29.997   1.224
69041W        W41301   4.254  13.784  11.878
69042W        W41302  21.679   4.753  10.991
69043W        W41303  21.068  34.071   0.383
69044W        W41304   4.828  40.008  13.445
69045W        W41305  44.354  43.769  10.463
69046W        W41306  30.080  15.725   0.906
69047W        W41307  35.874   9.341  10.530
69048W        W41308  25.568  29.623   0.890
69049W        W41309  41.996  36.391   4.764
69050W        W41310  34.119  40.940   0.391
69051W        W41311  15.231  20.725   3.744
69052W        W41312  37.918  20.209   0.469
69053W        W41313  42.881  29.140   3.319
69054W        W41314  18.078   7.892   1.804
69055W        W41315  31.528  43.499   1.335
69056W        W41316  21.125  32.973   3.849
69057W        W41317  11.851  14.732  11.903
69058W        W41318  23.735   4.303   3.222
69059W        W41319  22.210  27.536  10.941
69060W        W41320  37.043  44.868   2.184
69061W        W41321  21.530  26.457  12.430
69062W        W41322   2.749   2.280  12.357
69063W        W41323  43.509  23.094   0.346
69064W        W41324  11.797  13.794   0.394
69065W        W41325  36.061   0.289  14.815
69066W        W41326  29.144  16.598   4.760
69067W        W41327  42.002  19.084  12.415
69068W        W41328   5.311  41.880  14.379
69069W        W41329   1.789  39.387  11.891
69070W        W41330  14.696  29.451  10.520
69071W        W41331  17.238   3.787  14.800
69072W        W41332   5.788   2.439   4.652
69073W        W41333   7.286  36.431  13.507
69074W        W41334  19.699  16.713  11.943
69075W        W41335  12.678  30.100   3.766
69076W        W41336  40.511  36.950   4.138
69077W        W41337  19.161  40.964  14.786
69078W        W41338   8.732  22.242  11.591
69079W        W41339  37.971  10.368  13.464
69080W        W41340   3.795  39.530   2.315
69081W        W41341  33.089  15.724   3.781
69082W        W41342  18.244   8.748  11.528
69083W        W41343  22.077  26.078   2.767
69084W        W41344   5.774  39.977  11.544
69085W        W41345   6.320  26.524  10.451
69086W        W41346  16.640  26.471  10.596
69087W        W41347  38.538  13.817  14.513
69088W        W41348   8.259  32.588  14.290
69089W        W41349  42.368  33.974   3.658
69090W        W41350  42.331   1.327   1.245
69091W        W41351  24.520  37.063   0.752
69092W        W41352  10.651  23.506   3.648
69093W        W41353   2.763  23.074   2.409
69094W        W41354  33.045  27.515   4.667
69095W        W41355   5.883  26.992  11.941
69096W        W41356  35.033  39.455   0.278
69097W        W41357  10.315  25.197   0.393
69098W        W41358  17.617  14.599  12.975
69099W        W41359  38.936  13.251   2.254
69100W        W41360  30.569  15.209   3.380
69101W        W41361  10.798   0.758   4.287
69102W        W41362  37.955   6.427  10.084
69103W        W41363   0.451  39.381   1.379
69104W        W41364  42.797   8.287  13.322
69105W        W41365   9.270  23.134  12.398
69106W        W41366   3.308  36.908  13.394
69107W        W41367  35.512  10.275  11.092
69108W        W41368  13.301   1.948  11.000
69109W        W41369  37.498  19.161   2.255
69110W        W41370  26.956  40.402  12.084
69111W        W41371  37.431  35.474   1.386
69112W        W41372  36.042   0.749  12.433
69113W        W41373  41.855   1.882   0.337
69114W        W41374  36.376  39.484   3.295
69115W        W41375  36.387   7.260   0.374
69116W        W41376  20.645  42.423   0.243
69117W        W41377  35.469  22.522  14.968
69118W        W41378   2.252  16.203  11.383
69119W        W41379  23.709  19.760  14.475
69120W        W41380  44.779  26.492   0.773
69121W        W41381  23.080   9.310   0.480
69122W        W41382  15.746  25.512   1.855
69123W        W41383  12.841  43.469  10.975
69124W        W41384  37.570  25.148  11.000
69125W        W41385  24.653  30.609  12.557
69126W        W41386   8.235  34.950   1.351
69127W        W41387  40.477  18.609   1.440
69128W        W41388  26.062   1.356  13.000
69129W        W41389  28.511  41.435  12.949
69130W        W41390  23.021  20.094  14.906
69131W        W41391  31.458  33.383   2.776
69132W        W41392   2.370   0.983   1.875
69133W        W41393  30.537  19.744   2.687
69134W        W41394  37.059   7.269   1.418
69135W        W41395  27.094  37.008  13.939
69136W        W41396  40.528  32.098  12.082
69137W        W41397  37.447  24.480  11.862
69138W        W41398   0.401  41.837   0.480
69139W        W41399  29.448  39.878  14.310
69140W        W41400   0.959  11.700  10.642
69141W        W41401   7.408   9.707   3.871
69142W        W41402  31.556  31.522   5.138
69143W        W41403  39.454  34.035  13.881
69144W        W41404  39.992   8.853   0.416
69145W        W41405  31.568  28.138   1.227
69146W        W41406  42.847  43.766  11.414
69147W        W41407  37.416  43.362  12.867
69148W        W41408   3.403  36.585   5.157
69149W        W41409  44.265  43.867   5.277
69150W        W41410  34.954  41.332   5.248
69151W        W41411  42.324  18.553  12.893
69152W        W41412  31.535  32.073  12.013
69153W        W41413   0.849   9.698  14.777
69154W        W41414  24.029  16.245   3.322
69155W        W41415  28.519   8.319   4.115
69156W        W41416   4.270   4.708   3.801
69157W        W41417   2.463  13.800   4.747
69158W        W41418   6.354   0.929   0.865
69159W        W41419  42.004  43.895  11.079
69160W        W41420  23.238  40.537  13.467
69161W        W41421  17.126   6.797  11.486
69162W        W41422  34.925   7.307   4.814
69163W        W41423   9.388  17.078   1.853
69164W        W41424   4.743  26.497  13.024
69165W        W41425  33.576  27.948  13.510
69166W        W41426   6.340  27.507  12.998
69167W        W41427  31.478  26.694  11.943
69168W        W41428   8.889   9.797   1.865
69169W        W41429  23.102  31.647  14.404
69170W        W41430  27.067  38.045  14.005
69171W        W41431   8.393  18.575  12.863
69172W        W41432  37.929  18.635  13.460
69173W        W41433   4.746   4.911  11.515
69174W        W41434  40.513  36.539  12.396
69175W        W41435  24.608  42.912   4.780
69176W        W41436  12.284  12.794  11.954
69177W        W41437  13.173  33.934  10.541
69178W        W41438  41.376  38.560  12.918
69179W        W41439  16.587  26.634  13.060
69180W        W41440  39.379  18.219   4.145
69181W        W41441   1.786  36.403  11.476
69182W        W41442   6.900  24.152  12.881
69183W        W41443   8.385  19.257   4.291
69184W        W41444   2.793  31.967  11.039
69185W        W41445  14.237  19.723   0.315
69186W        W41446  17.686   6.388  12.025
69187W        W41447  21.727  19.135  14.865
69188W        W41448  36.477   7.668  10.530
69189W        W41449  30.159  32.601   0.367
69190W        W41450  36.403  27.609   0.408
69191W        W41451  38.495  15.647   4.116
69192W        W41452  18.204  36.056  11.407
69193W        W41453   2.393  29.436  14.325
69194W        W41454  22.099  27.663   2.769
69195W        W41455  16.129  34.572  14.838
69196W        W41456  22.625  24.651  11.998
69197W        W41457  14.243  18.770   3.356
69198W        W41458  30.552  13.144  12.035
69199W        W41459  34.034  43.852  13.371
69200W        W41460  36.874  39.533   1.252
69201W        W41461  36.509  23.675   2.405
69202W        W41462  13.656  41.332  10.489
69203W        W41463  13.715  29.507  14.028
69204W        W41464   1.362  22.184   2.733
69205W        W41465  41.355  35.427  12.841
69206W        W41466  41.509  14.656   0.869
69207W        W41467  16.765  39.814  11.128
69208W        W41468  18.231  11.255  14.421
69209W        W41469   7.908  33.004   4.177
69210W        W41470   6.900  27.572  14.820
69211W        W41471  25.168  22.621   4.269
69212W        W41472  33.924  39.366  12.884
69213W        W41473  36.403  42.979  13.877
69214W        W41474  33.915  18.661  12.848
69215W        W41475  28.498  26.516   2.780
69216W        W41476  31.068   1.417   0.907
69217W        W41477  14.780  28.018   1.735
69218W        W41478  15.752  36.490   0.905
69219W        W41479  26.537  17.678  12.523
69220W        W41480  11.736  22.094  14.820
69221W        W41481  22.094  44.907  14.379
69222W        W41482  27.650  13.627   0.872
69223W        W41483  39.515  17.628  12.484
69224W        W41484  29.134  38.046  13.942
69225W        W41485  30.025   6.773  11.431
69226W        W41486  43.964   9.269   1.764
69227W        W41487  40.337  12.803  12.372
69228W        W41488   8.748  12.671   1.409
69229W        W41489  39.808  44.804   2.776
69230W        W41490   7.806  12.265  14.025
69231W        W41491  10.739  28.557   3.337
69232W        W41492  43.831  39.808  11.447
69233W        W41493   6.376  41.402   9.975
69234W        W41494  19.676  31.422  13.815
69235W        W41495  14.636  37.062   2.894
69236W        W41496  43.512  31.512  11.539
69237W        W41497  29.932   4.204  12.957
69238W        W41498   7.392  37.037  10.596
69239W        W41499  26.038  42.300  10.404
69240W        W41500  36.022  20.730   3.649
69241W        W41501  41.304  38.070   0.278
69242W        W41502  14.258  21.618  13.941
69243W        W41503  43.892  17.690  10.895
69244W        W41504   5.354  16.197  13.498
69245W        W41505  38.002  20.561  14.473
69246W        W41506  11.643  22.140  12.365
69247W        W41507  22.006  39.377   1.893
69248W        W41508  19.200  10.830   3.374
69249W        W41509   6.763   1.798   4.714
69250W        W41510  40.383  44.010   2.272
69251W        W41511  39.514  33.099  12.519
69252W        W41512  30.133   8.832  10.950
69253W        W41513  19.130  18.194   1.289
69254W        W41514  18.160  28.125  12.356
69255W        W41515  26.625  11.246   2.874
69256W        W41516  20.688  40.815   2.854
69257W        W41517  38.912  29.458   2.864
69258W        W41518  43.851  35.915  14.816
69259W        W41519  27.998  14.238  12.055
69260W        W41520  31.906  18.758  14.807
69261W        W41521  18.676  16.096  10.997
69262W        W41522   0.294   5.291  14.915
69263W        W41523  21.750   4.449  14.843
69264W        W41524  39.930  24.490  12.063
69265W        W41525  16.784   7.800   4.196
69266W        W41526  40.815   9.208   0.282
69267W        W41527  38.515  13.238  10.433
69268W        W41528  11.256  40.403   3.787
69269W        W41529  25.996  19.766   3.298
69270W        W41530  16.293  33.007   4.202
69271W        W41531  18.662  23.728   0.340
69272W        W41532   0.400  12.340  13.874
69273W        W41533  34.560  13.655   0.959
69274W        W41534  32.903  26.651   3.302
69275W        W41535   7.386  17.076  13.881
69276W        W41536   6.372  37.046   4.648
69277W        W41537   0.879   0.801   3.754
69278W        W41538  33.459  21.112  10.016
69279W        W41539  42.021   9.261  11.605
69280W        W41540  31.939   1.813   1.439
69281W        W41541   1.854  11.206  12.083
69282W        W41542   2.387  15.768   4.778
69283W        W41543  26.602  40.877   1.750
69284W        W41544  22.077  13.678  10.921
69285W        W41545  40.318  43.998  13.971
69286W        W41546  15.660  41.494  10.934
69287W        W41547  36.936  13.614   1.934
69288W        W41548   1.865  17.712  14.967
69289W        W41549  36.852   0.271  12.526
69290W        W41550  29.484  41.925  13.429
69291W        W41551  42.008   2.939   3.308
69292W        W41552  15.711  11.701  13.802
69293W        W41553   3.851   4.412  10.418
69294W        W41554  31.545  31.642  12.976
69295W        W41555  40.420  17.594  11.531
69296W        W41556  27.940  39.060   4.226
69297W        W41557  43.964  42.300   4.234
69298W        W41558   9.754  27.543  12.568
69299W        W41559   0.848  12.290   3.783
69300W        W41560   6.856  15.720  12.935
69301W        W41561   8.715  18.596  14.487
69302W        W41562  12.643  29.580  14.278
69303W        W41563  16.721  36.089   0.430
69304W        W41564  10.359  33.910  12.907
69305W        W41565   0.928  14.674   4.137
69306W        W41566  33.980   0.782   4.794
69307W        W41567  44.865   6.819  11.591
69308W        W41568   0.300  44.908  13.937
69309W        W41569  17.584  43.291   1.390
69310W        W41570  34.424  41.930   3.803
69311W        W41571  10.661  16.782   3.173
69312W        W41572   0.833  31.002  12.410
69313W        W41573  27.614  18.285  12.388
69314W        W41574  33.892   2.729  11.996
69315W        W41575  28.975   3.345   1.358
69316W        W41576  14.703  36.455   4.619
69317W        W41577  17.244   2.948  12.881
69318W        W41578  18.678   9.218  12.565
69319W        W41579  16.637  32.039   1.792
69320W        W41580  27.657   5.788   4.133
69321W        W41581  31.025  19.611  11.424
69322W        W41582  11.687   6.416   4.146
69323W        W41583  19.674   4.781  11.464
69324W        W41584  36.984  16.195  12.960
69325W        W41585  10.363  40.303  11.053
69326W        W41586  35.077   2.813   4.696
69327W        W41587  39.914  28.518  10.899
69328W        W41588  10.325  19.609   2.855
69329W        W41589  40.543  16.766  10.577
69330W        W41590  28.519  18.607  13.479
69331W        W41591   2.464  40.002   1.747
69332W        W41592  25.206  11.802   0.402
69333W        W41593  40.320   4.254  13.384
69334W        W41594   2.841   4.239   4.755
69335W        W41595  31.098  10.735  10.543
69336W        W41596  18.783  33.034   4.351
69337W        W41597  22.533  27.000   2.196
69338W        W41598  35.996  40.975   0.902
69339W        W41599  29.140  35.477  11.384
69340W        W41600  35.545  20.699  14.349
69341W        W41601  18.577  20.249   3.774
69342W        W41602  11.674  25.055   0.826
69343W        W41603   4.700  43.779   5.249
69344W        W41604  11.135   0.426   2.355
69345W        W41605  37.944  19.707   3.688
69346W        W41606  12.231  36.080   0.312
69347W        W41607  22.090  19.769   2.183
69348W        W41608   8.842  39.811  12.481
69349W        W41609  43.419   3.323   1.309
69350W        W41610   3.807  22.020  13.949
69351W        W41611  19.059   5.296  10.406
69352W        W41612   1.334  36.978   1.349
69353W        W41613  43.419  29.924   4.757
69354W        W41614  21.040   0.980  13.515
69355W        W41615  25.101  16.108  11.377
69356W        W41616   6.828   0.344   0.468
69357W        W41617  33.611  39.963  10.496
69358W        W41618  10.243  28.112   5.130
69359W        W41619  12.610  29.548   2.265
69360W        W41620   2.259  13.153   0.359
69361W        W41621  37.056  27.450  12.982
69362W        W41622   5.225  22.078   4.749
69363W        W41623   6.904  15.713   1.728
69364W        W41624  44.787  32.053   4.763
69365W        W41625   3.741   1.374   0.903
69366W        W41626  13.336  19.210  11.967
69367W        W41627  31.107  41.487   3.693
69368W        W41628  13.679  27.472  12.888
69369W        W41629  44.994  19.724   1.893
69370W        W41630  23.667  19.710  12.083
69371W        W41631   0.454  40.521  11.571
69372W        W41632   4.217  42.807  13.811
69373W        W41633  15.143  20.751  12.835
69374W        W41634  12.153  14.677   0.878
69375W        W41635  26.563   4.867  12.079
69376W        W41636  22.548   3.343  12.558
69377W        W41637  40.901  13.342  10.893
69378W        W41638  32.543  42.369  11.976
69379W        W41639  31.070  32.086  11.928
69380W        W41640   2.746   8.731  10.637
69381W        W41641  21.662  14.262   2.877
69382W        W41642  39.837  25.106  13.916
69383W        W41643  20.662   8.312  11.386
69384W        W41644  31.151  27.139   3.819
69385W        W41645  13.762  30.521   1.843
69386W        W41646  18.097  18.633  14.856
69387W        W41647  12.621  10.657   2.365
69388W        W41648  40.355  17.081   0.846
69389W        W41649  12.221  30.542  11.931
69390W        W41650   3.712  25.169  11.066
69391W        W41651  12.141  24.621   0.310
69392W        W41652  32.948  14.257  10.431
69393W        W41653  31.930  39.520  12.859
69394W        W41654  24.702   5.823   3.863
69395W        W41655  27.513  14.228  12.070
69396W        W41656  24.511  41.019  12.029
69397W        W41657   4.724   9.832  12.947
69398W        W41658  27.467  26.132  14.423
69399W        W41659  16.775  14.717   0.328
69400W        W41660  32.435  23.694  12.380
69401W        W41661  39.899  42.450   2.889
69402W        W41662   5.705  10.859  12.838
69403W        W41663  16.072  16.681   4.760
69404W        W41664  29.158  11.699   2.415
69405W        W41665  20.121  14.187   2.711
69406W        W41666   7.710   8.220   2.699
69407W        W41667  13.325   7.230   1.246
69408W        W41668  20.704  27.143  14.821
69409W        W41669  24.607  44.481  11.487
69410W        W41670   3.398  32.957   4.730
69411W        W41671   6.733   0.767  14.962
69412W        W41672  15.086  40.991   2.244
69413W        W41673  33.443  43.966   0.382
69414W        W41674  27.151  14.310  11.458
69415W        W41675  26.070  36.985   1.772
69416W        W41676  29.155  33.401   3.730
69417W        W41677   7.754  44.283  10.513
69418W        W41678  33.410  33.623  14.374
69419W        W41679  25.707  39.319   1.838
69420W        W41680  25.196  39.319  12.519
69421W        W41681  16.600  28.932  12.563
69422W        W41682  19.727  19.066   2.299
69423W        W41683  42.350  16.702  13.038
69424W        W41684  31.124  32.565  11.024
69425W        W41685   4.909  39.811   2.244
69426W        W41686  12.843  24.635   4.197
69427W        W41687  28.592  20.127  13.852
69428W        W41688   5.725   5.820  12.537
69429W        W41689  13.846  41.970  14.328
69430W        W41690   8.283  18.139  11.465
69431W        W41691  43.349  22.209   3.252
69432W        W41692  16.072  30.543   0.369
69433W        W41693  42.873   2.249   1.350
69434W        W41694  11.280  19.101  10.412
69435W        W41695  10.847  14.604  12.097
69436W        W41696  36.407  26.695   3.817
69437W        W41697  23.171  40.897   4.351
69438W        W41698  12.703  44.797   1.918
69439W        W41699  24.523  10.181   2.719
69440W        W41700  16.191  23.081   1.282
69441W        W41701  16.763  14.636  13.967
69442W        W41702   8.692   6.706  14.983
69443W        W41703  14.699  38.039  11.105
69444W        W41704  34.899  18.651  13.913
69445W        W41705   3.816  23.240   0.275
69446W        W41706  11.315  20.542   2.324
69447W        W41707  19.126  16.164  14.430
69448W        W41708  37.922  42.975  11.387
69449W        W41709  13.829  18.757   3.336
69450W        W41710  36.068  43.373   4.263
69451W        W41711   2.339  44.935  13.441
69452W        W41712   9.703  38.870   4.287
69453W        W41713  22.129   9.226   1.298
69454W        W41714   5.909  22.664   2.297
69455W        W41715  39.934  19.714   4.736
69456W        W41716  20.571  39.381  10.604
69457W        W41717  13.158   8.839   3.166
69458W        W41718  27.510  28.126   1.451
69459W        W41719  10.175  33.081  13.969
69460W        W41720  28.460  15.813   1.821
69461W        W41721  16.244  16.636   3.819
69462W        W41722  41.016  13.672  11.403
69463W        W41723  42.824  17.778   2.319
69464W        W41724   6.890  22.198  12.366
69465W        W41725  41.327  39.842   3.782
69466W        W41726  18.722  16.166  14.994
69467W        W41727  20.070  35.081   0.744
69468W        W41728  29.166  44.790   3.319
69469W        W41729  37.459   9.258   9.572
69470W        W41730  24.218  32.404   4.142
69471W        W41731  30.994   9.694  14.322
69472W        W41732  10.646  20.605  11.052
69473W        W41733   1.778  30.142  13.448
69474W        W41734  32.631  20.697   3.154
69475W        W41735  44.378  10.651   2.873
69476W        W41736   7.726  20.052   3.648
69477W        W41737  16.312   8.811   3.675
69478W        W41738  22.054  38.865  14.831
69479W        W41739  20.523  37.440  14.415
69480W        W41740  21.662  12.229  11.919
69481W        W41741   6.284  15.604   0.317
69482W        W41742   6.208  37.920   3.791
69483W        W41743  41.947  28.139   1.870
69484W        W41744  15.312  32.094  13.395
69485W        W41745  22.014  40.943  12.443
69486W        W41746   4.755  13.143  12.888
69487W        W41747  31.595  20.052  11.415
69488W        W41748  10.263  11.302   3.773
69489W        W41749  10.291  35.931  11.889
69490W        W41750  43.875  32.484   2.755
69491W        W41751  34.070  43.441   4.718
69492W        W41752  13.755  29.157  11.578
69493W        W41753  10.688  29.527  12.561
69494W        W41754  31.098  29.982   5.295
69495W        W41755  33.431   2.934   0.394
69496W        W41756   9.671  19.276  11.097
69497W        W41757  40.983  35.562  14.331
69498W        W41758  39.459  14.243   4.209
69499W        W41759  25.516  39.024  12.035
69500W        W41760  34.874   7.688  13.349
69501W        W41761   6.713   0.456  10.404
69502W        W41762  32.515  12.759   2.328
69503W        W41763   5.764  37.050  12.053
69504W        W41764  33.451  10.252  11.530
69505W        W41765  17.256  35.377   1.233
69506W        W41766  11.789   5.701   3.850
69507W        W41767  32.477   5.796   3.311
69508W        W41768   6.694  25.517   4.235
69509W        W41769  16.208   0.287   4.243
69510W        W41770  22.044  27.945   2.262
69511W        W41771  12.725  15.699  11.078
69512W        W41772  26.502  32.928   1.832
69513W        W41773   7.393  13.741  14.310
69514W        W41774  29.939  34.525  10.980
69515W        W41775  40.827   4.257  14.466
69516W        W41776  31.052  14.812   2.286
69517W        W41777  14.820  12.187   3.863
69518W        W41778  42.290  30.937  11.091
69519W        W41779  23.683  10.202  10.030
69520W        W41780  31.046   9.281   2.665
69521W        W41781  18.161  42.396   3.728
69522W        W41782   6.201  20.125   1.895
69523W        W41783  40.491  15.099   3.832
69524W        W41784  37.422  26.206   4.139
69525W        W41785   2.419  32.426  13.385
69526W        W41786  12.232  38.424  13.324
69527W        W41787  11.233  31.607  12.899
69528W        W41788  38.453  15.132   4.219
69529W        W41789  29.609   7.705   1.849
69530W        W41790  30.584  20.190   4.601
69531W        W41791  35.994  32.096   2.767
69532W        W41792   8.368  44.466  11.877
69533W        W41793   3.720  33.074  14.831
69534W        W41794   7.886  36.528  13.394
69535W        W41795  32.032  16.179  10.420
69536W        W41796  11.841  22.660   2.373
69537W        W41797  28.007   0.884   0.959
69538W        W41798  18.595   3.442  11.460
69539W        W41799  27.578  14.155  14.814
69540W        W41800  10.818  43.462   2.822
69541W        W41801  35.398   9.722  14.499
69542W        W41802  33.036  19.606   0.428
69543W        W41803  37.915  29.168   2.791
69544W        W41804  22.574  10.335  10.479
69545W        W41805  35.005   2.400  12.009
69546W        W41806   1.420  18.127   2.898
69547W        W41807  22.700  37.418   0.746
69548W        W41808   1.892   3.784   3.633
69549W        W41809  14.635  44.848  11.127
69550W        W41810  28.990  28.031   3.858
69551W        W41811  23.168  17.658  14.450
69552W        W41812  19.179  30.923  12.426
69553W        W41813  42.511  11.838  13.997
69554W        W41814  37.556  38.562   0.343
69555W        W41815  26.530  39.530  12.571
69556W        W41816   8.755  39.973   1.927
69557W        W41817  26.622  20.178   4.599
69558W        W41818   6.423  29.495   0.813
69559W        W41819  23.616   9.878   2.872
69560W        W41820  10.651  21.532   1.231
69561W        W41821   8.169   6.679  13.846
69562W        W41822  13.143   3.822  13.548
69563W        W41823   4.806  36.360   0.771
69564W        W41824  33.087  31.413  11.120
69565W        W41825  23.999  41.482  11.012
69566W        W41826   6.900   3.309   0.368
69567W        W41827  16.698  17.182   3.161
69568W        W41828   7.809  13.308  11.942
69569W        W41829  14.727  23.143  12.962
69570W        W41830  25.572   4.712   2.813
69571W        W41831  17.306  42.294  13.315
69572W        W41832  41.826  15.267  13.839
69573W        W41833  15.631  11.194  12.873
69574W        W41834  15.251  44.981   2.350
69575W        W41835   3.921   5.418  10.472
69576W        W41836  12.779  23.134  11.575
69577W        W41837  38.922   7.701  14.823
69578W        W41838  32.636  13.798  14.786
69579W        W41839  12.683  42.839   0.458
69580W        W41840  26.651  24.172   3.792
69581W        W41841  44.836  27.941   0.929
69582W        W41842  18.244  14.677  13.963
69583W        W41843  34.560  21.214  11.523
69584W        W41844   4.900  27.544  13.456
69585W        W41845  18.173  29.442   2.255
69586W        W41846  22.140   4.820  12.945
69587W        W41847  22.747  25.000   3.714
69588W        W41848  28.548  36.555   4.679
69589W        W41849  40.986  30.956  12.009
69590W        W41850  11.699  18.550   4.771
69591W        W41851  11.314  39.560  11.953
69592W        W41852   3.918   4.840  13.934
69593W        W41853  25.196   0.847  11.046
69594W        W41854  32.904  10.323   2.274
69595W        W41855  24.973   3.777  11.598
69596W        W41856  11.672  15.183  13.830
69597W        W41857  38.496  31.483  13.916
69598W        W41858  25.477  44.408  12.452
69599W        W41859   8.694  23.147   3.364
69600W        W41860  13.772   1.418  11.994
69601W        W41861   7.235  18.672   2.242
69602W        W41862  33.614  38.866   1.410
69603W        W41863   8.754  17.754  14.893
69604W        W41864  44.837  44.916  13.344
69605W        W41865  14.650   0.461   1.216
69606W        W41866  39.490  29.077  12.886
69607W        W41867  25.120  13.705   0.443
69608W        W41868  43.346   4.348  11.489
69609W        W41869  39.881   4.294   1.735
69610W        W41870  40.518  28.653   1.717
69611W        W41871  42.900   5.275  11.494
69612W        W41872  26.145  18.125  11.894
69613W        W41873  27.498  33.473   3.357
69614W        W41874  15.815   6.900   2.785
69615W        W41875  22.553  30.508   2.712
69616W        W41876   0.302  17.576   3.219
69617W        W41877   1.253   7.893   1.223
69618W        W41878  31.066  12.315   1.425
69619W        W41879  28.562  22.578  14.285
69620W        W41880   7.793  11.274  13.335
69621W        W41881  14.339  37.918   1.446
69622W        W41882  23.024  40.462   1.839
69623W        W41883   1.744  39.895   4.221
69624W        W41884  34.592  24.192  14.392
69625W        W41885  14.321  35.885  13.794
69626W        W41886  26.974   8.681   0.888
69627W        W41887  30.100  26.630  13.401
69628W        W41888   5.890  35.517  13.045
69629W        W41889  43.809  34.013  11.454
69630W        W41890  36.959   9.767   1.874
69631W        W41891  22.222  23.657   0.753
69632W        W41892  12.285  27.191  12.006
69633W        W41893  40.949  27.034   3.286
69634W        W41894  25.686  33.604   3.318
69635W        W41895   6.892  38.361  12.536
69636W        W41896  39.844  35.081  11.948
69637W        W41897  12.351  32.407  13.505
69638W        W41898  14.634   4.935  13.953
69639W        W41899  16.800  24.510  12.422
69640W        W41900  19.286  43.350   4.826
69641W        W41901  19.180   7.233   4.606
69642W        W41902   9.254  26.482   4.144
69643W        W41903   1.818   3.749   4.721
69644W        W41904  12.330  38.475   4.665
69645W        W41905  40.797  37.924   4.343
69646W        W41906  35.059   8.324   2.827
69647W        W41907   5.354  28.512   5.130
69648W        W41908   5.829  21.168  11.043
69649W        W41909  33.929   1.382   0.313
69650W        W41910   4.719  10.253   5.082
69651W        W41911  37.536  27.557  13.535
69652W        W41912  35.074   3.934  13.053
69653W        W41913   7.255   2.761   3.198
69654W        W41914  21.166   8.781   4.694
69655W        W41915  25.995  12.156  13.334
69656W        W41916  26.011  12.121  13.052
69657W        W41917  25.551  36.050  14.032
69658W        W41918  40.526  17.596   0.765
69659W        W41919  25.124  36.866   2.199
69660W        W41920  21.123  13.779  11.119
69661W        W41921   3.824  43.401   3.210
69662W        W41922  37.580  10.165  11.062
69663W        W41923  38.418  35.544  10.887
69664W        W41924   0.776  10.344  11.048
69665W        W41925  30.132  20.178   2.294
69666W        W41926  10.209  15.274   3.199
69667W        W41927  36.965  37.471   4.633
69668W        W41928  20.587  24.211  10.638
69669W        W41929   7.339   8.296  11.026
69670W        W41930  35.027  17.235  10.477
69671W        W41931  31.125   5.243  11.127
69672W        W41932  42.882   2.845  11.586
69673W        W41933  24.591  10.332   4.697
69674W        W41934  42.367  33.402  13.322
69675W        W41935  31.411  21.185  14.978
69676W        W41936   2.945  20.654  11.584
69677W        W41937  17.201  28.514  13.474
69678W        W41938   2.761  22.731   4.246
69679W        W41939  31.085   8.384   2.279
69680W        W41940  25.173  25.651   1.911
69681W        W41941  42.320  11.704   4.723
69682W        W41942  35.362  36.490   1.737
69683W        W41943  31.505  39.334  11.129
69684W        W41944   1.975  41.398  10.528
69685W        W41945  11.675  24.639  10.468
69686W        W41946  30.081  12.268   2.789
69687W        W41947  31.405   8.177   4.702
69688W        W41948  41.314   5.794  10.895
69689W        W41949  14.683   6.749   0.922
69690W        W41950  42.873  14.719  11.109
69691W        W41951  14.259   9.226  13.466
69692W        W41952  24.608  10.291   3.731
69693W        W41953  36.849  36.039  11.558
69694W        W41954  31.066  32.542   3.669
69695W        W41955  13.281  15.633  12.944
69696W        W41956   6.813  33.390   0.751
69697W        W41957  41.028  40.534  14.432
69698W        W41958  38.547  17.070  10.418
69699W        W41959  34.909  14.612  11.955
69700W        W41960  12.649  40.960  13.450
69701W        W41961   2.470  23.501   2.779
69702W        W41962  18.211   7.744   4.639
69703W        W41963  12.236   5.371   4.714
69704W        W41964  10.879  33.929   4.707
69705W        W41965   9.792   2.743   4.193
69706W        W41966  16.227  25.025  13.886
69707W        W41967  26.570  12.636  13.929
69708W        W41968  38.331   3.827  12.901
69709W        W41969  21.698  36.959   3.277
69710W        W41970  28.438   6.910  12.365
69711W        W41971  35.069  28.944  12.907
69712W        W41972  42.878   3.291   2.720
69713W        W41973  20.221  35.051   4.597
69714W        W41974  17.719  42.413  10.575
69715W        W41975  29.126  19.137   1.395
69716W        W41976  24.975   1.398   1.353
69717W        W41977   1.909   0.476  11.014
69718W        W41978  34.572  30.927   4.352
69719W        W41979  21.518  35.996   3.339
69720W        W41980  23.215   1.317  11.101
69721W        W41981  37.359  40.899  13.933
69722W        W41982  16.235  41.964  11.958
69723W        W41983  42.393  35.856  10.454
69724W        W41984  26.674  16.304  11.569
69725W        W41985  13.171  27.471   2.196
69726W        W41986  21.680  33.430   1.318
69727W        W41987  23.550   1.329  12.096
69728W        W41988  23.104  13.824   3.734
69729W        W41989  17.169  23.998   1.295
69730W        W41990  43.410  21.030   3.367
69731W        W41991  28.535  22.608   0.468
69732W        W41992   5.208  41.870   1.757
69733W        W41993  33.961  30.425   3.176
69734W        W41994   3.837  22.583   0.478
69735W        W41995  35.437   6.209  11.399
69736W        W41996  35.003  30.586  13.921
69737W        W41997   5.707  10.703  14.898
69738W        W41998  12.169  38.975   1.355
69739W        W41999  36.079  39.474  12.005
69740W        W42000  23.531   4.377  11.915
69741W        W42001  33.618   9.172  14.500
69742W        W42002  35.932   8.288  13.345
69743W        W42003  10.682  19.158  14.805
69744W        W42004  29.600  42.429  14.328
69745W        W42005  37.885  31.448  12.044
69746W        W42006  10.197  33.931  10.551
69747W        W42007  16.082   0.430  14.943
69748W        W42008  22.546  36.946  13.401
69749W        W42009  33.439  20.581  12.392
69750W        W42010  30.069  19.077   2.351
69751W        W42011  34.555   7.716  14.278
69752W        W42012  10.247  16.727   3.273
69753W        W42013  23.121  39.926  13.829
69754W        W42014  25.981  43.368  11.574
69755W        W42015  12.731   1.302   4.246
69756W        W42016  13.313  20.275  11.059
69757W        W42017  19.212   7.316   0.854
69758W        W42018  32.560  27.681  10.428
69759W        W42019  14.094  41.476   3.312
69760W        W42020  11.810  20.128   2.794
69761W        W42021  20.219  44.287  13.478
69762W        W42022  33.100   0.278   2.893
69763W        W42023   2.882   8.274   4.692
69764W        W42024  28.617  21.525  13.867
69765W        W42025  35.567  35.082  11.896
69766W        W42026   5.194  22.581   0.353
69767W        W42027  41.432  44.891  13.792
69768W        W42028  25.219  44.394  11.502
69769W        W42029  29.530   3.835   3.825
69770W        W42030  10.803  34.900   2.717
69771W        W42031  44.823  28.042   2.760
69772W        W42032  14.693  19.184   3.773
69773W        W42033   4.411   3.423   1.762
69774W        W42034  29.549   3.931   3.201
69775W        W42035  44.341  32.478  12.075
69776W        W42036  37.082  30.912  14.856
69777W        W42037  14.280  23.631  11.061
69778W        W42038  27.980  35.982  12.937
69779W        W42039  28.442  29.972   0.297
69780W        W42040  24.018  25.030  11.385
69781W        W42041  38.504  43.844   4.305
69782W        W42042  38.847  17.097  10.408
69783W        W42043  38.372  17.190  13.491
69784W        W42044  39.437   9.706  13.798
69785W        W42045   7.764  24.157   3.764
69786W        W42046  35.888  25.600   1.711
69787W        W42047  41.324  35.505   1.901
69788W        W42048   3.782  19.643   4.598
69789W        W42049  31.428  22.080  12.468
69790W        W42050   9.202  41.845   5.224
69791W        W42051  40.034  40.818  14.876
69792W        W42052  20.084  31.579  13.912
69793W        W42053   4.869  38.002  11.387
69794W        W42054  29.024  32.556   5.258
69795W        W42055  34.948  38.949  11.074
69796W        W42056  38.375  22.139  11.886
69797W        W42057  37.019  32.958   3.258
69798W        W42058   8.394  12.244  14.312
69799W        W42059  28.166  35.365   2.402
69800W        W42060  21.242   0.799   4.197
69801W        W42061   2.266  28.519  10.553
69802W        W42062  32.004  20.711   1.227
69803W        W42063  16.791   2.407  13.873
69804W        W42064  26.675   5.387   1.246
69805W        W42065  22.084   1.779  11.889
69806W        W42066   2.301  29.588   5.087
69807W        W42067  29.592   2.849  14.812
69808W        W42068   5.405  18.715  13.513
69809W        W42069  16.698  21.519   2.389
69810W        W42070  12.679  27.062  10.928
69811W        W42071  27.027   8.756   3.178
69812W        W42072  39.896  30.451  10.913
69813W        W42073  23.701  14.769   0.752
69814W        W42074  38.932  14.821   0.793
69815W        W42075  25.595  34.964   3.273
69816W        W42076  34.536  33.046  10.525
69817W        W42077  33.449  11.792   0.327
69818W        W42078  20.062  31.555  14.907
69819W        W42079   5.768  15.245  14.287
69820W        W42080   1.389  16.126   0.850
69821W        W42081  20.186  37.376   0.772
69822W        W42082   6.228  32.408  10.537
69823W        W42083  30.083  28.114  12.411
69824W        W42084  20.763  28.160  11.558
69825W        W42085  20.146   7.286   5.169
69826W        W42086  36.030  28.050   2.243
69827W        W42087  28.013  27.661  12.887
69828W        W42088  35.477  41.889  12.904
69829W        W42089  19.628  32.568   3.303
69830W        W42090  23.533  12.242   3.362
69831W        W42091   6.762  23.672  13.388
69832W        W42092  36.850  26.464   2.346
69833W        W42093  23.662   0.298   4.170
69834W        W42094  36.063  32.571  12.432
69835W        W42095  20.737  21.194   2.846
69836W        W42096   1.400   6.426  11.959
69837W        W42097   9.184  38.958   0.774
69838W        W42098  43.315  26.207   1.902
69839W        W42099  24.208  19.681   2.880
69840W        W42100  36.993  16.781  12.050
69841W        W42101   6.402   6.687  10.506
69842W        W42102  26.109  29.649  12.504
69843W        W42103  42.816  23.987   4.687
69844W        W42104   8.334  44.800   0.371
69845W        W42105  15.115  10.161  10.406
69846W        W42106   9.328  33.484  10.563
69847W        W42107  34.022  12.725   3.779
69848W        W42108  15.736  38.529  13.986
69849W        W42109   1.974  27.467  13.522
69850W        W42110  27.170  21.238   1.929
69851W        W42111  32.940  25.084  10.965
69852W        W42112   6.828  29.152   2.377
69853W        W42113  38.851  20.622   3.172
69854W        W42114  28.672  29.943  11.448
69855W        W42115   0.462   5.340  11.031
69856W        W42116   1.433  29.530   1.357
69857W        W42117  20.553  35.001   3.720
69858W        W42118   0.293   3.447   3.782
69859W        W42119  18.611   7.690  12.350
69860W        W42120  14.759  13.302  12.982
69861W        W42121  15.747  27.685  13.336
69862W        W42122  21.631  34.945   3.247
69863W        W42123   1.749  24.680  13.452
69864W        W42124  20.031  35.369   2.246
69865W        W42125  32.557  28.660  13.795
69866W        W42126  26.520  23.710  11.520
69867W        W42127  29.451   3.879   4.682
69868W        W42128  23.719  26.610  12.393
69869W        W42129  26.568  30.958   5.115
69870W        W42130   6.918  21.128   3.735
69871W        W42131   1.769  33.959  11.996
69872W        W42132  12.847   2.952  11.452
69873W        W42133  16.221   7.369  11.874
69874W        W42134  15.747  44.385  11.015
69875W        W42135  44.778  19.662  10.449
69876W        W42136   1.874  23.640  13.008
69877W        W42137   3.409  35.854  14.332
69878W        W42138  43.767  12.658   1.251
69879W        W42139  43.316  13.289  12.086
69880W        W42140  37.068  39.885   2.299
69881W        W42141   4.889   7.382   2.403
69882W        W42142  38.991   4.934   0.327
69883W        W42143  13.641  32.905  12.920
69884W        W42144  16.094  35.036   3.700
69885W        W42145  23.549  41.337  11.047
69886W        W42146   8.260  20.690  14.486
69887W        W42147  25.051  15.244  11.111
69888W        W42148  13.181  16.744   2.416
69889W        W42149  14.156  37.040  14.278
69890W        W42150  36.042  39.814   2.700
69891W        W42151  15.817  11.266  12.026
69892W        W42152  11.158  35.432  14.369
69893W        W42153  12.127   2.923   3.319
69894W        W42154   3.383  26.120  12.950
69895W        W42155  33.430   9.214   1.349
69896W        W42156  12.739  36.393  11.454
69897W        W42157   3.847  12.670   2.259
69898W        W42158  24.017   0.264   4.268
69899W        W42159   4.765   9.382   1.420
69900W        W42160  18.293  24.637  11.101
69901W        W42161  19.538   1.330  12.028
69902W        W42162  33.573  44.350  10.517
69903W        W42163  22.590  42.431   1.878
69904W        W42164  15.750  28.185   0.378
69905W        W42165   6.851  40.509  11.022
69906W        W42166  12.726  41.845   3.688
69907W        W42167   3.812   1.868  10.897
69908W        W42168  36.855   4.744  10.988
69909W        W42169  27.476  16.792  13.363
69910W        W42170  36.418   9.763  10.583
69911W        W42171  29.022  13.219  13.878
69912W        W42172  29.115   9.711  12.953
69913W        W42173   0.345  20.750  13.447
69914W        W42174  17.607  29.000   2.351
69915W        W42175  18.075   8.678  10.465
69916W        W42176  21.660  24.520  11.420
69917W        W42177  16.783   3.839   2.848
69918W        W42178  20.256  13.233   2.798
69919W        W42179  22.537   7.903   2.873
69920W        W42180  38.411   6.226  10.413
69921W        W42181  16.197  15.279   9.613
69922W        W42182   5.197  17.254  14.002
69923W        W42183  26.513   7.202   3.831
69924W        W42184  18.050  18.723  12.846
69925W        W42185  16.714  21.756   3.658
69926W        W42186   2.386  35.504   3.152
69927W        W42187  33.392  23.566  13.040
69928W        W42188  36.534  41.498   3.774
69929W        W42189  44.000  35.053  11.476
69930W        W42190   3.766  41.396   2.739
69931W        W42191  42.339  41.036   4.735
69932W        W42192  12.769  15.645  13.924
69933W        W42193   2.374   8.185   1.319
69934W        W42194  17.236   8.873   5.271
69935W        W42195  38.940  41.010   3.360
69936W        W42196  44.431  15.319  10.005
69937W        W42197  11.690  23.505   4.795
69938W        W42198  22.583   5.368  14.870
69939W        W42199  23.669  17.622  10.480
69940W        W42200  23.153  34.420   2.732
69941W        W42201  39.403  42.342   2.687
69942W        W42202  23.013  32.593  14.786
69943W        W42203  38.943  34.994   0.888
69944W        W42204   6.921  29.452   0.789
69945W        W42205   5.835  43.427   1.700
69946W        W42206  25.510   5.886  11.594
69947W        W42207   5.866  13.205  14.903
69948W        W42208   9.165  30.468   3.380
69949W        W42209  38.399  21.686   4.620
69950W        W42210  40.475  30.003  12.515
69951W        W42211  10.312  42.850   0.852
69952W        W42212  11.147  27.963  10.493
69953W        W42213  44.873  22.030   4.224
69954W        W42214  38.363  37.855  13.349
69955W        W42215  31.637   7.728   3.645
69956W        W42216  13.645   1.447   0.817
69957W        W42217   2.255   4.414   1.707
69958W        W42218   2.747   6.759  13.473
69959W        W42219  14.336  16.761  13.819
69960W        W42220   4.317  33.912   2.337
69961W        W42221  25.196   7.859  12.826
69962W        W42222  25.566  31.543  12.497
69963W        W42223  44.762  28.644  10.546
69964W        W42224   9.745  42.481  13.383
69965W        W42225   8.275  11.764   1.304
69966W        W42226  41.435  33.492   0.824
69967W        W42227  19.099  28.052  13.853
69968W        W42228  23.551  34.958  11.085
69969W        W42229   4.240  42.435   3.155
69970W        W42230  22.141  22.111   4.351
69971W        W42231  18.612  19.608   1.356
69972W        W42232  35.998  26.660  11.584
69973W        W42233   4.828  36.443   1.902
69974W        W42234  32.121  39.405  10.984
69975W        W42235  19.760  15.263  12.402
69976W        W42236  38.536  24.618   0.965
69977W        W42237  37.947  41.005  13.911
69978W        W42238  44.903  38.354   1.390
69979W        W42239   0.885   0.944   2.819
69980W        W42240  30.432  19.048  14.400
69981W        W42241   1.736  14.243   0.365
69982W        W42242  34.610  33.910   1.416
69983W        W42243  38.381  33.503   2.777
69984W        W42244  13.813  17.623  14.475
69985W        W42245  21.031  24.590  12.574
69986W        W42246   8.372   4.879   2.849
69987W        W42247  39.542   7.687   1.268
69988W        W42248  31.627  16.195   1.278
69989W        W42249  43.793  19.231  10.936
69990W        W42250   3.770  42.315  11.891
69991W        W42251  29.460  43.014   1.411
69992W        W42252  23.554   1.345  12.502
69993W        W42253  25.174  31.426  11.961
69994W        W42254  10.302  30.630  11.024
69995W        W42255  32.956  18.281   1.716
69996W        W42256  35.402  39.520   2.697
69997W        W42257  24.089  29.159   3.808
69998W        W42258  24.615  22.187   4.178
69999W        W42259   6.683  30.117   0.405
70000W        W42260  25.072  31.970  14.948
70001W        W42261  19.732   4.352   4.257
70002W        W42262  39.916  18.770   3.227
70003W        W42263  12.784  39.900   2.178
70004W        W42264  43.365  35.417  13.031
70005W        W42265  16.576  26.179   0.371
70006W        W42266  39.816  41.915  13.051
70007W        W42267  13.280  14.126   3.318
70008W        W42268  18.622   1.895  10.527
70009W        W42269  32.948   9.233   1.912
70010W        W42270  30.516  26.459  10.567
70011W        W42271  15.724  44.413   0.872
70012W        W42272   1.965  36.862   4.728
70013W        W42273  21.747  19.059  12.068
70014W        W42274   5.876  28.632  11.597
70015W        W42275   1.438  37.487  11.378
70016W        W42276  31.084  40.391  12.872
70017W        W42277  20.191  24.201  12.944
70018W        W42278  12.848  37.053  14.883
70019W        W42279  10.775  43.866   4.335
70020W        W42280  41.524  12.353   4.798
70021W        W42281  42.433  31.047  11.540
70022W        W42282  23.686  27.501   5.665
70023W        W42283  37.886  17.757  12.941
70024W        W42284  41.820  43.875   0.799
70025W        W42285  36.015  30.426  11.518
70026W        W42286   7.768  13.155   4.637
70027W        W42287  28.629  15.262   1.277
70028W        W42288  28.667  22.186  10.574
70029W        W42289  24.548   7.191  11.894
70030W        W42290  26.019   4.762  14.352
70031W        W42291  42.982  24.134  10.506
70032W        W42292  38.432  32.527  13.369
70033W        W42293  21.174  17.111   2.829
70034W        W42294  19.741  44.410  14.881
70035W        W42295  32.977  43.470  14.962
70036W        W42296   0.745  42.343   0.806
70037W        W42297  34.962  19.099  10.524
70038W        W42298  11.698  16.681  14.944
70039W        W42299  11.263  19.150   4.816
70040W        W42300  39.412  22.653   4.319
70041W        W42301  16.666   7.294  11.503
70042W        W42302  13.710  26.200   0.309
70043W        W42303   5.375  22.640  13.420
70044W        W42304  42.437  42.953  13.461
70045W        W42305  17.563  27.618   1.397
70046W        W42306  11.722  41.359   4.199
70047W        W42307   8.878  36.031   4.210
70048W        W42308  12.727  13.662  12.886
70049W        W42309   6.872   2.461   4.312
70050W        W42310   2.960  20.179  13.900
70051W        W42311  41.851  14.206   4.132
70052W        W42312  26.187   0.249   4.825
70053W        W42313  27.184  41.492   0.962
70054W        W42314   4.806  31.585   4.124
70055W        W42315  11.328  21.562  14.486
70056W        W42316  34.477  20.201  10.031
70057W        W42317  10.323  11.717   0.432
70058W        W42318  13.264   6.184  11.546
70059W        W42319  30.560  24.143   0.254
70060W        W42320  14.641  27.021   3.230
70061W        W42321   4.237  26.462  11.550
70062W        W42322  41.325   4.339   1.277
70063W        W42323  15.696   0.431  14.404
70064W        W42324  28.174  17.169  14.416
70065W        W42325  20.689  30.653   0.762
70066W        W42326  36.559   2.887  14.428
70067W        W42327  19.078  24.571   0.385
70068W        W42328   6.912  13.781  14.879
70069W        W42329  12.196   0.855   2.211
70070W        W42330  13.300  42.893   3.652
70071W        W42331   5.413   7.308  13.915
70072W        W42332  37.343  24.608  13.357
70073W        W42333  33.552  44.479  12.359
70074W        W42334   3.318  29.643  14.773
70075W        W42335  44.815  22.009   2.227
70076W        W42336  12.659  40.808   0.343
70077W        W42337   3.284   0.789  14.511
70078W        W42338  22.121  39.350  11.118
70079W        W42339  41.337  11.663   3.249
70080W        W42340  39.817  42.469   3.297
70081W        W42341  14.651  12.139  12.351
70082W        W42342   1.811  37.432  13.924
70083W        W42343  26.490  25.016  12.993
70084W        W42344  17.265  21.246  13.998
70085W        W42345  38.395   5.366  14.859
70086W        W42346  30.605   9.364  14.365
70087W        W42347  17.798  12.254   1.301
70088W        W42348  32.096  12.308   2.878
70089W        W42349  32.114  38.544   4.165
70090W        W42350   6.283   9.231  12.456
70091W        W42351  15.675  30.071   1.304
70092W        W42352   9.816  18.736  10.430
70093W        W42353  17.706  28.488  13.819
70094W        W42354  32.033  35.055   0.881
70095W        W42355  33.105   0.294   3.287
70096W        W42356  43.879  19.106   1.319
70097W        W42357  18.652  15.615   1.220
70098W        W42358  42.814  19.571  13.945
70099W        W42359  35.487   6.732  12.872
70100W        W42360  21.664   9.737  13.803
70101W        W42361  21.695  40.905  11.591
70102W        W42362  19.607  40.031   1.694
70103W        W42363  34.951  25.570   0.293
70104W        W42364  15.683  30.117  11.411
70105W        W42365  36.890   7.403  14.865
70106W        W42366   2.437  19.223  11.496
70107W        W42367  20.656  32.108  14.335
70108W        W42368  30.583  32.400  13.406
70109W        W42369   4.416   4.915   0.958
70110W        W42370  40.854  21.094  11.528
70111W        W42371  38.382  30.439  14.331
70112W        W42372   4.252  27.610   4.127
70113W        W42373   7.874  32.899  14.916
70114W        W42374  31.097  33.008  10.571
70115W        W42375  40.511  16.179   1.821
70116W        W42376  35.904  13.295  14.916
70117W        W42377   9.691  12.149   0.297
70118W        W42378  26.130  16.306   0.336
70119W        W42379  21.627  30.509   3.805
70120W        W42380  41.927  17.224   3.183
70121W        W42381  14.220   5.404   2.214
70122W        W42382  15.238  30.416  12.843
70123W        W42383   7.718  30.631   3.199
70124W        W42384   7.178  23.115  14.489
70125W        W42385  38.348  27.634   1.359
70126W        W42386  15.817  29.604  13.055
70127W        W42387  41.356  29.557   1.928
70128W        W42388  41.843  41.043  11.891
70129W        W42389  28.566  13.682  10.957
70130W        W42390  18.211  12.831   1.930
70131W        W42391  40.456  18.760   0.769
70132W        W42392  41.893  39.507  10.899
70133W        W42393  42.008   0.949   3.211
70134W        W42394  20.576  29.437  11.444
70135W        W42395  36.903  19.051   5.569
70136W        W42396  16.699  39.402  13.513
70137W        W42397  22.686  33.609   3.180
70138W        W42398  24.189   9.356  10.643
70139W        W42399  19.600  28.175  12.825
70140W        W42400   1.314   1.868  14.008
70141W        W42401   3.897  22.029   2.729
70142W        W42402  38.541  12.613  11.908
70143W        W42403  41.509  20.084   4.779
70144W        W42404  19.641   6.208  13.474
70145W        W42405   8.303  14.610   0.844
70146W        W42406  16.272  21.531   0.339
70147W        W42407  25.079  16.198  12.482
70148W        W42408   6.851  36.389  11.070
70149W        W42409  15.712  34.890  14.840
70150W        W42410  27.615  30.470   2.370
70151W        W42411  35.101  30.623   2.333
70152W        W42412  12.266  19.723   1.291
70153W        W42413   7.200  29.594  10.580
70154W        W42414   9.383  24.110  14.326
70155W        W42415  38.473   8.201   0.287
70156W        W42416  30.100  31.069  11.442
70157W        W42417  36.444  11.636  12.941
70158W        W42418  42.999  39.434  12.048
70159W        W42419   3.276  21.110  13.485
70160W        W42420  30.649  21.741   1.446
70161W        W42421  10.336  43.454   1.247
70162W        W42422  10.724   3.830  12.974
70163W        W42423   0.986  40.323  14.474
70164W        W42424  38.911  33.934  10.436
70165W        W42425  32.079  34.462  10.045
70166W        W42426   1.335  42.419   1.410
70167W        W42427  13.792  28.511  12.079
70168W        W42428  37.504   4.208  11.404
70169W        W42429  18.099  25.152   1.273
70170W        W42430   5.331   6.195   4.195
70171W        W42431  38.959  14.784  11.961
70172W        W42432  24.502   5.764  10.619
70173W        W42433  11.781  31.429  13.896
70174W        W42434  19.242  39.491   3.248
70175W        W42435  44.464  11.834  13.833
70176W        W42436   2.438  30.424   4.820
70177W        W42437  33.514   9.323   5.094
70178W        W42438  44.491  18.201   4.753
70179W        W42439   6.259  43.822   1.703
70180W        W42440  25.689  22.574  14.848
70181W        W42441   2.862   9.325  14.397
70182W        W42442  27.609  20.754  11.889
70183W        W42443  19.678   6.824   3.146
70184W        W42444  37.337  18.662  12.382
70185W        W42445  42.439   6.726  13.031
70186W        W42446  40.330  24.118  11.409
70187W        W42447  19.103  11.337   3.818
70188W        W42448  39.412  12.176  14.313
70189W        W42449   2.437   8.844   1.777
70190W        W42450  17.714   0.347  11.992
70191W        W42451   2.388  37.985  13.491
70192W        W42452  25.509   7.878   3.827
70193W        W42453  16.266  14.207  14.453
70194W        W42454  39.505  26.092  13.013
70195W        W42455   1.787  27.660  12.020
70196W        W42456  37.922  10.148   2.346
70197W        W42457  25.702  16.125   2.844
70198W        W42458   9.326  31.980   2.841
70199W        W42459  30.151  34.979  11.392
70200W        W42460  20.111  31.593   1.931
70201W        W42461  41.411   0.934  14.891
70202W        W42462  24.609  43.301  12.438
70203W        W42463  33.927  14.824  13.533
70204W        W42464  38.835  19.535   0.867
70205W        W42465  32.020  14.650  13.057
70206W        W42466  30.615  20.599  14.839
70207W        W42467  14.127   5.228  12.489
70208W        W42468  26.110  18.779   2.875
70209W        W42469  29.446  30.969   0.449
70210W        W42470   6.728   2.782  11.601
70211W        W42471   6.843  17.720  11.453
70212W        W42472  25.019  19.201  12.575
70213W        W42473   5.773  34.549  13.858
70214W        W42474  43.304  35.918  10.570
70215W        W42475   0.776  35.010   0.399
70216W        W42476  28.126  16.206   1.242
70217W        W42477  37.915   2.960   1.278
70218W        W42478  32.628  40.804  14.797
70219W        W42479  24.648  29.483  10.550
70220W        W42480  28.477   8.740   2.737
70221W        W42481  42.348  37.453  12.866
70222W        W42482  22.738  29.447   0.251
70223W        W42483  18.202  24.161   1.770
70224W        W42484  15.652  10.704  12.353
70225W        W42485  28.120  13.719  13.020
70226W        W42486  44.812  19.241  10.443
70227W        W42487  26.193  31.042   4.180
70228W        W42488  14.118  25.689   1.294
70229W        W42489  42.836   2.398   4.329
70230W        W42490  26.075  39.431  13.544
70231W        W42491  31.555  30.498  10.610
70232W        W42492   8.808   0.796   4.334
70233W        W42493  10.670  26.601   4.187
70234W        W42494  14.805  25.601  14.871
70235W        W42495  30.487  20.157   0.248
70236W        W42496  12.299  25.585   2.375
70237W        W42497  13.108   7.303  14.766
70238W        W42498  25.529  12.165  12.916
70239W        W42499  12.756  37.387  12.016
70240W        W42500   8.756  37.068   0.363
70241W        W42501  40.376  37.433   9.932
70242W        W42502  24.574   3.379  14.857
70243W        W42503  25.137  21.573  12.853
70244W        W42504  16.710  27.114   4.749
70245W        W42505  18.550  14.126  11.488
70246W        W42506  42.311  27.097   1.771
70247W        W42507  22.742   3.415  14.843
70248W        W42508  38.534  40.427   3.219
70249W        W42509  38.501  19.267   1.762
70250W        W42510   4.829  19.718   5.295
70251W        W42511  24.655  41.316   9.651
70252W        W42512  25.162   9.221  11.947
70253W        W42513  36.511  24.975   4.217
70254W        W42514  12.834  22.680   1.734
70255W        W42515  13.347  11.258   0.363
70256W        W42516  12.207   3.712   0.967
70257W        W42517  24.582  44.806  12.465
70258W        W42518  26.128  34.491   3.168
70259W        W42519  37.458  16.586  13.988
70260W        W42520   9.820   2.812   1.326
70261W        W42521  23.533  33.090  11.952
70262W        W42522   2.428  24.066   4.701
70263W        W42523  25.032  24.680   1.360
70264W        W42524  42.956  41.863   0.822
70265W        W42525  32.087   0.807  13.427
70266W        W42526  41.922  20.081  12.906
70267W        W42527  31.965  41.797   2.873
70268W        W42528  26.527   4.746  14.928
70269W        W42529  32.436  12.629  14.467
70270W        W42530  42.467  44.835   3.640
70271W        W42531   8.672  34.002   2.181
70272W        W42532   9.375   4.288   1.266
70273W        W42533  30.110  29.107  10.640
70274W        W42534  37.475  29.003  10.966
70275W        W42535  43.448   5.299   4.658
70276W        W42536  32.018  11.840  11.873
70277W        W42537  12.769  34.546  14.339
70278W        W42538  33.614  33.398  10.596
70279W        W42539  44.286  33.019  10.644
70280W        W42540  31.972   1.951   4.787
70281W        W42541  42.007  18.083   9.925
70282W        W42542  22.082   5.851   2.763
70283W        W42543  38.038  15.329  11.021
70284W        W42544   3.408  14.109  14.934
70285W        W42545  40.500   2.391   1.780
70286W        W42546  35.575   6.357  12.497
70287W        W42547  22.167  10.206   0.893
70288W        W42548  44.417  18.168   1.802
70289W        W42549  35.905  34.397   4.640
70290W        W42550  14.774  34.503   3.173
70291W        W42551  34.545   6.290   3.314
70292W        W42552  41.809   0.827  13.322
70293W        W42553   6.402  26.639  11.029
70294W        W42554  44.888  25.174  13.411
70295W        W42555   0.870   3.384   1.299
70296W        W42556  26.953  40.964   4.749
70297W        W42557   2.425  25.966  10.463
70298W        W42558  12.620  24.500   2.822
70299W        W42559  32.023  43.313  14.403
70300W        W42560  31.561  32.940  13.823
70301W        W42561   7.728   8.793   1.770
70302W        W42562  20.188  19.050  11.948
70303W        W42563  35.436  41.862   1.694
70304W        W42564  35.476  37.880  11.102
70305W        W42565   5.198  23.665   3.637
70306W        W42566  23.524  17.238  13.451
70307W        W42567  25.600  20.530   4.603
70308W        W42568  41.856  29.465   4.772
70309W        W42569  31.140  31.921  11.113
70310W        W42570  43.808   9.194  12.556
70311W        W42571   2.411  24.140   3.289
70312W        W42572  43.000  24.610   1.819
70313W        W42573  17.079   5.794   1.904
70314W        W42574  11.203  17.690   1.833
70315W        W42575  38.825   0.754   1.376
70316W        W42576  33.042  29.961  14.511
70317W        W42577  10.734   6.384  10.075
70318W        W42578  13.711  35.864  14.970
70319W        W42579  27.664   7.223   4.729
70320W        W42580   4.915  29.019  10.102
70321W        W42581   0.836   2.453  14.478
70322W        W42582  39.046  20.536   0.437
70323W        W42583  12.313  41.983   4.750
70324W        W42584  32.893  24.016   2.359
70325W        W42585  31.405  33.967  14.925
70326W        W42586  38.838  38.442   2.698
70327W        W42587   7.789  24.537   4.167
70328W        W42588  22.235  18.293   0.955
70329W        W42589   5.313  44.437   0.747
70330W        W42590  28.024   9.209   3.781
70331W        W42591   1.790  32.043   3.313
70332W        W42592  37.014   9.779  13.429
70333W        W42593  13.111  17.300   1.405
70334W        W42594  32.405   0.386   3.845
70335W        W42595  25.029   7.293   4.135
70336W        W42596   8.879  25.476  11.512
70337W        W42597  17.145  11.283  10.127
70338W        W42598  43.383  26.154   0.758
70339W        W42599  40.823  42.983  10.561
70340W        W42600  10.309  35.527   3.291
70341W        W42601  34.081   1.954   1.318
70342W        W42602  44.436  17.671   9.972
70343W        W42603  44.922  16.283   0.458
70344W        W42604  29.538  29.990  11.060
70345W        W42605  44.432  26.606  10.889
70346W        W42606   3.798  26.698  14.285
70347W        W42607   3.932  40.529  10.955
70348W        W42608  38.335  11.276  11.419
70349W        W42609  38.820  22.690   0.352
70350W        W42610   7.846   8.852   9.992
70351W        W42611   2.821  26.016   1.905
70352W        W42612  43.957  36.868   3.186
70353W        W42613   0.491   7.171   4.187
70354W        W42614  30.557  38.841  11.123
70355W        W42615  31.959  34.591  11.550
70356W        W42616  14.699  26.985   1.821
70357W        W42617  38.879  10.255   0.334
70358W        W42618  38.960  39.989  10.519
70359W        W42619   3.840   8.180   0.333
70360W        W42620   3.370  40.313   1.243
70361W        W42621  16.175   8.340   0.478
70362W        W42622  25.076  10.729   0.279
70363W        W42623  25.133  35.071   5.175
70364W        W42624  16.202  10.150  10.124
70365W        W42625  36.386  21.706  11.909
70366W        W42626  41.526  35.869  13.308
70367W        W42627  30.526  11.127  10.497
70368W        W42628  23.094   5.732  14.761
70369W        W42629  29.521  23.632  14.479
70370W        W42630  22.149  24.571   3.358
70371W        W42631  10.319  30.926  12.081
70372W        W42632   2.841  39.466   1.854
70373W        W42633  20.074  35.567   4.618
70374W        W42634   5.386   9.781  14.772
70375W        W42635  21.557  23.028  10.623
70376W        W42636   7.274  27.627  13.530
70377W        W42637   4.430  35.036   0.784
70378W        W42638  35.595  34.867  12.461
70379W        W42639  41.421  26.170  13.907
70380W        W42640   3.755  42.892   4.722
70381W        W42641  41.377  11.830  10.416
70382W        W42642  36.069  11.628  12.390
70383W        W42643  23.561  36.386  13.537
70384W        W42644  38.050   5.377  10.996
70385W        W42645  30.127   8.700  13.972
70386W        W42646  10.726   1.862  13.026
70387W        W42647  11.142  12.696   2.197
70388W        W42648  26.016   7.906  11.449
70389W        W42649  25.479  21.127  11.017
70390W        W42650  35.861  18.281  11.374
70391W        W42651  42.474  25.708  14.891
70392W        W42652  16.165  41.456  13.011
70393W        W42653  29.105  15.802   2.307
70394W        W42654  19.545  37.399   9.961
70395W        W42655   3.818   2.941  14.826
70396W        W42656  15.176  26.479   3.646
70397W        W42657  40.373  33.039   0.829
70398W        W42658  40.019  25.469   1.308
70399W        W42659   0.422  33.999   4.118
70400W        W42660   2.883  13.294   3.852
70401W        W42661  22.110  28.034   5.235
70402W        W42662  25.513  19.221   4.341
70403W        W42663   7.787  23.044  10.564
70404W        W42664  11.324   6.374  11.889
70405W        W42665   0.286  10.223   0.918
70406W        W42666  26.636   4.796  12.570
70407W        W42667  42.365  19.745   1.877
70408W        W42668  29.041  18.551  14.790
70409W        W42669  12.189  26.005   3.638
70410W        W42670  35.075  15.644   2.801
70411W        W42671  21.172  23.583   2.198
70412W        W42672  26.667  43.797  11.106
70413W        W42673  15.216   0.274  10.516
70414W        W42674   1.332  39.534   2.846
70415W        W42675   8.823  15.703   5.094
70416W        W42676  13.115  41.527   1.410
70417W        W42677  12.768  16.194   3.194
70418W        W42678   2.791  31.643   2.856
70419W        W42679  33.565  23.594  14.469
70420W        W42680   5.208  10.760   1.840
70421W        W42681  16.772  25.551  12.513
70422W        W42682   1.771  38.823  10.521
70423W        W42683  12.264  43.995  11.037
70424W        W42684  15.731   3.916  13.466
70425W        W42685   5.734  19.208   2.786
70426W        W42686  44.433   0.366  12.439
70427W        W42687  37.376  36.424   1.716
70428W        W42688  26.531  39.462  10.020
70429W        W42689  20.158  27.993  13.425
70430W        W42690  26.029  16.216  12.090
70431W        W42691  18.207  25.632  12.978
70432W        W42692   3.890  38.912   2.832
70433W        W42693  13.109  15.601   1.722
70434W        W42694  16.671  43.283  12.455
70435W        W42695  20.132  17.735   0.338
70436W        W42696  18.686   5.798  14.996
70437W        W42697   2.409   4.206  12.851
70438W        W42698  11.220  33.476   4.691
70439W        W42699  29.176  14.338  12.835
70440W        W42700  30.466  19.247  12.350
70441W        W42701   1.936  13.696   0.919
70442W        W42702  27.982  35.444  12.444
70443W        W42703  44.763  32.935  12.339
70444W        W42704  31.437  38.403  12.395
70445W        W42705   3.262  33.497  12.951
70446W        W42706  34.577  10.223   0.916
70447W        W42707   4.400  23.166  12.894
70448W        W42708  14.634  21.622  12.985
70449W        W42709  14.307  43.005  13.466
70450W        W42710  11.641  28.516   3.824
70451W        W42711  35.013   5.439  11.105
70452W        W42712   9.856   6.698   2.203
70453W        W42713  25.537   0.261   2.776
70454W        W42714  37.417   2.234  12.506
70455W        W42715  40.391  22.149  14.356
70456W        W42716   9.315  22.077   3.380
70457W        W42717  17.072  39.997  11.073
70458W        W42718   9.659  21.048   2.195
70459W        W42719   5.214  39.986  11.975
70460W        W42720  40.882  30.494   1.877
70461W        W42721   4.303   2.839   4.129
70462W        W42722  40.038  37.538  12.401
70463W        W42723   0.829  31.406   0.946
70464W        W42724  22.997  22.052  12.961
70465W        W42725   3.808   7.879   1.784
70466W        W42726  41.834  35.971   0.941
70467W        W42727  41.336  32.582   3.224
70468W        W42728  20.587  16.212  13.974
70469W        W42729  28.128  35.895  12.535
70470W        W42730  17.117  20.081   1.298
70471W        W42731  41.415  25.594  11.052
70472W        W42732  18.277  20.586   1.724
70473W        W42733  11.138  27.585  14.450
70474W        W42734  19.767  30.978  11.896
70475W        W42735  35.951  11.237  14.852
70476W        W42736   8.349   7.182   4.601
70477W        W42737  14.331  30.943   2.890
70478W        W42738  37.569  13.685  13.435
70479W        W42739  30.594  19.040  13.480
70480W        W42740   9.178  40.497  11.456
70481W        W42741  29.125  16.692  14.861
70482W        W42742  24.144  26.042   5.680
70483W        W42743  32.602   2.233  12.893
70484W        W42744   1.735  25.601   0.797
70485W        W42745   8.686  39.986  14.874
70486W        W42746  26.463  23.105  10.625
70487W        W42747  32.566  31.920   2.775
70488W        W42748  14.737   2.440  12.053
70489W        W42749  35.532  31.407   2.345
70490W        W42750  26.514  12.291   4.308
70491W        W42751  30.501  16.088  14.849
70492W        W42752  22.696  38.470  10.052
70493W        W42753  44.407  13.324   5.312
70494W        W42754  30.036  28.984  12.480
70495W        W42755  13.662   1.789  14.976
70496W        W42756   3.821  24.603   3.351
70497W        W42757  36.034  28.045   0.852
70498W        W42758   0.315  13.836   0.329
70499W        W42759  38.877  12.729   3.815
70500W        W42760  25.979  28.161  11.122
70501W        W42761  36.984  12.837  13.799
70502W        W42762  13.190  10.873  12.476
70503W        W42763  23.674  11.189   0.383
70504W        W42764  37.859   1.362   0.906
70505W        W42765  26.668  29.028  11.469
70506W        W42766  12.725  25.219   2.205
70507W        W42767   9.184  41.833   2.813
70508W        W42768  43.815  25.638  14.497
70509W        W42769  15.135   6.730   1.847
70510W        W42770  15.203  32.032   0.750
70511W        W42771  29.491  40.453  14.480
70512W        W42772  17.063  43.373  13.915
70513W        W42773   5.913  39.057  13.926
70514W        W42774  40.039  15.205  13.954
70515W        W42775  29.039   0.889  13.366
70516W        W42776  19.088  39.505   3.850
70517W        W42777  36.470  15.299   2.784
70518W        W42778  44.879  40.906   2.788
70519W        W42779  11.188  39.348   4.302
70520W        W42780  35.871  19.556   0.950
70521W        W42781  18.209  25.031   4.153
70522W        W42782  11.318  29.019  13.466
70523W        W42783  36.528  28.509  11.990
70524W        W42784  41.012   0.280  13.793
70525W        W42785  28.060  34.933   4.766
70526W        W42786  41.040   3.922  11.108
70527W        W42787  15.689  21.024   0.873
70528W        W42788  23.028  15.222  12.377
70529W        W42789   5.700  11.144  10.920
70530W        W42790   0.948  29.668   3.855
70531W        W42791   2.308  27.508  14.413
70532W        W42792  11.239   6.790   3.683
70533W        W42793  24.161   4.712   4.137
70534W        W42794  28.436   9.373   0.326
70535W        W42795  12.661   8.657  12.030
70536W        W42796  26.633   0.772  14.814
70537W        W42797  33.411   4.297   3.272
70538W        W42798   2.365  22.645  13.844
70539W        W42799  37.472   1.474  14.322
70540W        W42800   3.332  29.658   3.785
70541W        W42801  41.839  36.509  12.875
70542W        W42802  22.710  18.257  11.928
70543W        W42803  32.952   0.925  10.469
70544W        W42804  29.136  40.888  11.604
70545W        W42805  33.101  43.474  10.613
70546W        W42806  12.359  37.058  14.319
70547W        W42807  16.661  25.619  13.848
70548W        W42808  24.101   7.775  14.821
70549W        W42809  16.200  42.023   3.769
70550W        W42810  25.029  17.168   4.821
70551W        W42811  39.336  31.487  14.888
70552W        W42812   0.883  27.007  10.558
70553W        W42813  11.344  26.519   5.247
70554W        W42814  24.587  19.763   2.826
70555W        W42815  35.486  21.571   2.418
70556W        W42816  11.319  19.658   1.747
70557W        W42817   2.911  10.311   3.226
70558W        W42818   0.441  16.239  14.400
70559W        W42819  44.881  41.943  12.839
70560W        W42820  26.624  44.500  11.612
70561W        W42821  34.525   8.283   3.858
70562W        W42822  20.763   8.797  14.860
70563W        W42823  20.161  30.935   4.785
70564W        W42824  35.931  11.340   1.899
70565W        W42825   9.277  38.564  10.926
70566W        W42826  16.631  35.430   0.775
70567W        W42827   6.773  39.859   0.774
70568W        W42828  16.696   7.177  12.981
70569W        W42829  21.570  31.089  12.017
70570W        W42830  11.857  24.620   0.871
70571W        W42831  13.669  22.245  10.520
70572W        W42832  18.105   7.865   0.797
70573W        W42833  17.096   4.340   0.345
70574W        W42834  21.621  35.936   5.161
70575W        W42835  35.990  12.683   1.929
70576W        W42836  36.874  38.381  13.512
70577W        W42837  42.466  39.317   1.842
70578W        W42838   9.338  12.246  13.420
70579W        W42839  28.064   7.395   1.316
70580W        W42840  37.558  28.169  12.984
70581W        W42841  13.110  41.315  14.291
70582W        W42842  26.490  14.699   4.681
70583W        W42843   8.287  18.158  10.963
70584W        W42844  31.620  15.684   1.210
70585W        W42845  44.359  24.219   3.302
70586W        W42846  12.809   9.868   0.314
70587W        W42847  20.257  16.688  10.891
70588W        W42848  18.215  44.489  11.533
70589W        W42849   6.265   5.841  10.564
70590W        W42850  34.425  39.870  12.048
70591W        W42851  29.649  43.415  10.941
70592W        W42852  18.142  16.244   3.268
70593W        W42853   8.201  17.622  12.433
70594W        W42854  38.051  39.431  14.334
70595W        W42855  12.221  24.524  12.423
70596W        W42856   5.423  20.227  10.515
70597W        W42857  32.424  11.754   1.706
70598W        W42858  34.427  22.579   0.965
70599W        W42859  14.654  36.538  10.919
70600W        W42860  37.054  25.014  14.365
70601W        W42861   1.259  42.859   2.895
70602W        W42862  32.464  41.950  11.017
70603W        W42863   8.229  30.445  13.355
70604W        W42864  39.911  31.961  11.880
70605W        W42865  42.971   1.783  10.028
70606W        W42866  38.410  13.188  13.314
70607W        W42867  27.476  34.104  14.444
70608W        W42868  24.036  32.116  13.430
70609W        W42869   8.664  18.738   1.911
70610W        W42870  34.406  24.723   0.963
70611W        W42871  15.315  22.537  13.545
70612W        W42872  40.044  12.680  13.056
70613W        W42873   1.940  31.501  12.547
70614W        W42874  31.412  15.249   0.769
70615W        W42875  25.490  39.449   3.271
70616W        W42876   3.892  23.626  11.946
70617W        W42877   3.253  21.060  12.570
70618W        W42878  21.061  32.617  10.607
70619W        W42879  20.741  10.235   1.755
70620W        W42880  22.078   9.317  13.894
70621W        W42881  11.816  23.541   3.179
70622W        W42882  39.516  44.994   4.169
70623W        W42883  15.228   9.178  13.907
70624W        W42884  15.746  29.924  10.519
70625W        W42885  23.570   7.880  10.546
70626W        W42886  34.007  22.215   2.266
70627W        W42887  19.755   2.401   3.203
70628W        W42888  35.397   9.320  11.974
70629W        W42889  44.770   3.298  12.380
70630W        W42890  27.568  34.577  12.421
70631W        W42891  42.911  26.053  12.024
70632W        W42892  33.411  18.697  13.043
70633W        W42893  15.286   6.420  11.873
70634W        W42894  36.352  17.153  13.904
70635W        W42895   1.390  35.910  11.488
70636W        W42896  28.070  33.387  14.021
70637W        W42897  25.212  42.519  13.903
70638W        W42898  22.055  26.204  12.082
70639W        W42899  11.241  15.772   3.218
70640W        W42900  37.030   5.828   4.605
70641W        W42901  38.562  40.938  10.439
70642W        W42902   3.354  22.122   0.353
70643W        W42903  26.652   6.287   4.299
70644W        W42904  32.607  20.624   3.852
70645W        W42905  19.127  15.812   1.327
70646W        W42906  34.504  10.790   4.789
70647W        W42907   6.818   8.659  11.117
70648W        W42908  15.824   8.175   4.604
70649W        W42909  21.028  39.498  13.961
70650W        W42910  40.525  11.308  13.989
70651W        W42911  43.488  14.606  14.984
70652W        W42912  43.774  17.260  11.908
70653W        W42913  25.024   6.187   3.641
70654W        W42914  28.516  11.755  14.467
70655W        W42915  11.268  19.195  11.933
70656W        W42916  12.275   0.251   2.339
70657W        W42917  39.545  20.574  10.447
70658W        W42918  12.240  23.133   3.751
70659W        W42919  36.845  35.096  13.909
70660W        W42920   3.877  16.183   4.321
70661W        W42921   5.316   2.753  14.933
70662W        W42922  12.172  33.103   2.239
70663W        W42923  15.288  35.534   4.781
70664W        W42924  34.563   3.849  11.480
70665W        W42925  39.382  35.561   2.362
70666W        W42926  20.221  42.410   4.312
70667W        W42927   0.278  39.063   1.742
70668W        W42928  33.501  20.060  11.404
70669W        W42929   3.356   0.405   2.712
70670W        W42930  16.198  16.314  12.050
70671W        W42931  39.911   7.695   4.118
70672W        W42932   8.819  24.675   4.175
70673W        W42933  23.236  36.869  12.378
70674W        W42934  20.083   0.970  14.965
70675W        W42935  40.914  39.381  10.518
70676W        W42936  36.047   2.345   1.358
70677W        W42937   0.910  26.628   4.330
70678W        W42938  23.068   6.341  11.936
70679W        W42939   2.399  37.577  13.968
70680W        W42940  39.405  22.672   4.766
70681W        W42941   8.390   2.360  14.307
70682W        W42942  20.200  27.535  12.455
70683W        W42943  38.492   0.987  14.360
70684W        W42944  14.735   9.693   1.311
70685W        W42945  26.154  26.579  14.289
70686W        W42946  18.167   3.773  12.850
70687W        W42947  12.196  20.555  14.790
70688W        W42948  44.340  37.950  14.476
70689W        W42949  26.591  40.542   5.211
70690W        W42950  29.067  24.105  14.778
70691W        W42951  37.526  34.063   3.637
70692W        W42952   8.729  23.009  13.467
70693W        W42953   8.274  24.489  13.475
70694W        W42954  33.551  28.453  12.082
70695W        W42955  19.741  12.167  11.509
70696W        W42956  19.204  29.533  12.030
70697W        W42957   2.855   4.869  12.977
70698W        W42958  34.440  23.588   4.729
70699W        W42959  26.664   4.313   2.792
70700W        W42960  12.354  30.499  12.968
70701W        W42961   8.662  43.364   0.321
70702W        W42962   1.301  19.568   2.185
70703W        W42963  44.839  34.055   0.853
70704W        W42964  28.627  22.737  10.618
70705W        W42965  14.608  14.310  11.588
70706W        W42966  44.862   3.758   2.673
70707W        W42967  16.629  44.454   4.734
70708W        W42968   4.944   5.376  13.875
70709W        W42969  27.507  27.453   0.245
70710W        W42970  34.048  32.050  12.926
70711W        W42971  10.189  17.299   3.761
70712W        W42972   6.314  33.459   4.743
70713W        W42973   1.802  14.199  13.916
70714W        W42974  42.353  20.593   2.213
70715W        W42975  34.949  20.763   3.306
70716W        W42976  16.751  12.665   1.916
70717W        W42977   1.779  33.590   2.235
70718W        W42978   5.334   9.841   1.710
70719W        W42979  31.635  44.457  11.978
70720W        W42980  25.040  36.059  14.970
70721W        W42981  43.427  40.921   1.428
70722W        W42982  38.961  30.572   4.209
70723W        W42983  23.697  40.843  14.857
70724W        W42984  21.239  10.308  12.387
70725W        W42985  29.442  20.063  11.923
70726W        W42986  41.890   2.386  10.476
70727W        W42987   6.390  30.159   0.758
70728W        W42988  32.630  20.143  13.047
70729W        W42989  10.332  39.959  11.911
70730W        W42990  26.499  35.947   2.768
70731W        W42991  23.654  23.096   0.269
70732W        W42992   9.241  26.031   0.767
70733W        W42993  43.796  39.057  12.933
70734W        W42994   6.907  38.377   1.822
70735W        W42995  41.987  16.697  10.569
70736W        W42996  16.743  44.444   4.189
70737W        W42997  19.620  18.738  14.924
70738W        W42998  12.194  19.758   2.780
70739W        W42999  33.494   4.739  14.411
70740W        W43000  21.159  31.140   3.794
70741W        W43001   0.947  34.893   0.945
70742W        W43002   1.788  12.711   3.190
70743W        W43003  28.073   7.238   3.727
70744W        W43004   3.954  35.604  12.392
70745W        W43005  13.250  16.641  10.114
70746W        W43006  43.792  13.182  14.501
70747W        W43007  17.235   0.771  10.630
70748W        W43008  11.757  21.242  13.800
70749W        W43009  30.087  20.153  14.368
70750W        W43010   3.298  28.039   1.896
70751W        W43011  11.331   2.309   1.711
70752W        W43012  11.834  42.430  11.372
70753W        W43013   5.896  27.617   2.214
70754W        W43014   8.832  33.498   1.363
70755W        W43015  25.467  21.022   0.276
70756W        W43016  29.099   8.354  14.423
70757W        W43017  31.589   6.214  14.936
70758W        W43018  16.304  41.986   4.307
70759W        W43019   3.250  35.935  10.958
70760W        W43020   9.226  37.049   3.803
70761W        W43021  23.129  36.073  11.975
70762W        W43022  31.005  22.111  10.537
70763W        W43023   0.279  18.754   1.282
70764W        W43024  21.020   5.740  14.805
70765W        W43025  29.059   2.326   0.478
70766W        W43026   9.787  33.610  13.954
70767W        W43027  13.287   5.281   2.757
70768W        W43028  23.047  18.740   3.852
70769W        W43029  28.658  23.000   4.139
70770W        W43030  39.043  14.205   0.331
70771W        W43031  20.736  23.024  12.465
70772W        W43032  35.071  42.970   2.882
70773W        W43033   3.943  18.257  10.995
70774W        W43034  11.155  42.375   1.918
70775W        W43035  15.180  39.830  11.484
70776W        W43036  17.651  10.302  14.772
70777W        W43037   7.681  33.458  11.984
70778W        W43038  31.917  23.561  12.574
70779W        W43039  33.540  27.520  12.343
70780W        W43040  44.341   9.761   2.217
70781W        W43041  31.137   0.264  10.920
70782W        W43042  19.241   1.889   3.308
70783W        W43043  22.125  20.081   3.176
70784W        W43044  24.167  34.067   4.329
70785W        W43045  37.029  22.682  11.442
70786W        W43046  30.084  16.124  10.980
70787W        W43047  33.049   6.413  14.022
70788W        W43048  12.266  44.828   0.454
70789W        W43049  21.200  15.739   1.330
70790W        W43050  31.008  21.750   4.238
70791W        W43051  25.143  17.153  12.986
70792W        W43052  16.598  24.549   4.326
70793W        W43053  19.208  43.967   2.813
70794W        W43054  20.553   2.361  13.408
70795W        W43055  41.032  37.075  11.521
70796W        W43056  18.277  38.819   0.886
70797W        W43057  17.649  32.951  13.033
70798W        W43058  17.596  32.563   3.631
70799W        W43059   1.423  26.150   1.243
70800W        W43060  28.515  23.606   0.784
70801W        W43061   9.313  33.047  12.895
70802W        W43062  34.468  39.824  13.826
70803W        W43063  15.229  43.948   3.373
70804W        W43064  10.866  13.618   1.815
70805W        W43065  28.576  32.940   1.789
70806W        W43066  40.889  10.751  10.531
70807W        W43067  12.658  18.213  11.404
70808W        W43068  25.997   7.675  14.784
70809W        W43069  40.316  14.305   4.218
70810W        W43070   3.362  40.388   0.748
70811W        W43071  29.084   2.341  11.063
70812W        W43072  22.162  15.667  10.947
70813W        W43073  43.018  40.000   2.190
70814W        W43074  42.450  13.187   0.419
70815W        W43075  24.104  28.475  13.406
70816W        W43076  19.120  18.232  11.588
70817W        W43077  44.915  15.582   2.728
70818W        W43078  15.313  13.839   3.785
70819W        W43079  29.577   5.205  12.512
70820W        W43080   0.359  16.683   4.667
70821W        W43081  18.184  27.944   1.378
70822W        W43082  22.647  42.453  14.351
70823W        W43083   3.934   6.212  14.850
70824W        W43084  29.992   9.793   2.847
70825W        W43085  10.375  40.987  14.425
70826W        W43086   4.702  13.717   4.122
70827W        W43087   2.788  28.490   4.811
70828W        W43088  17.147  30.596  14.917
70829W        W43089   9.800  32.142   2.840
70830W        W43090   1.472  23.575  13.389
70831W        W43091  30.944  38.915  14.765
70832W        W43092  14.106  16.723   3.792
70833W        W43093  22.120  15.665  13.845
70834W        W43094  29.005  23.517   0.266
70835W        W43095  38.904  13.823  13.932
70836W        W43096  24.128   7.358  10.978
70837W        W43097  32.434  44.882   3.662
70838W        W43098  16.135  11.699  10.407
70839W        W43099  11.206  27.983  12.388
70840W        W43100  22.573  18.231  12.452
70841W        W43101   6.369  24.631   4.205
70842W        W43102  39.948  42.464  10.910
70843W        W43103  38.362  34.969  12.498
70844W        W43104  14.753  15.105   2.318
70845W        W43105   0.273  22.022   2.731
70846W        W43106  33.032   4.242   2.282
70847W        W43107  26.204  10.377  13.541
70848W        W43108  20.040  34.509   4.332
70849W        W43109  26.620  32.955  14.919
70850W        W43110   8.721  27.081  14.404
70851W        W43111  34.075  28.468   0.337
70852W        W43112  31.945  40.850   4.821
70853W        W43113  16.665  38.386   1.366
70854W        W43114  38.012  19.746  13.327
70855W        W43115  28.143  24.149  14.965
70856W        W43116  17.730  33.524   2.662
70857W        W43117  40.519  13.302  11.029
70858W        W43118  28.649  40.982  11.429
70859W        W43119  15.741  32.906  13.459
70860W        W43120  15.702  37.493  12.439
70861W        W43121  16.567   7.833   2.227
70862W        W43122  18.570   6.321  11.994
70863W        W43123  14.784  13.124  11.404
70864W        W43124   2.247  20.528  10.414
70865W        W43125  15.113  21.078   2.312
70866W        W43126  26.086  35.912  11.534
70867W        W43127  39.828  19.636  11.094
70868W        W43128   9.876  18.779  11.418
70869W        W43129   3.366   1.337  14.996
70870W        W43130  41.455   3.461  12.970
70871W        W43131  12.248  31.990  10.489
70872W        W43132  34.021  17.291  13.471
70873W        W43133  23.540  30.520  14.001
70874W        W43134  28.988  14.713  13.853
70875W        W43135  44.478  19.219  10.956
70876W        W43136  33.532  35.021  12.544
70877W        W43137  34.958  40.947  11.910
70878W        W43138   1.908  22.673   2.696
70879W        W43139   9.353   3.803  13.995
70880W        W43140  30.042  12.146  14.835
70881W        W43141  32.132  22.175  14.000
70882W        W43142   9.227  22.054   0.891
70883W        W43143  13.682  15.762  13.422
70884W        W43144  43.477  36.993  14.491
70885W        W43145   5.235   7.344  10.581
70886W        W43146  29.475  38.055  12.867
70887W        W43147  36.591  16.669   3.216
70888W        W43148   7.197  22.592   2.332
70889W        W43149   6.282  34.932   3.225
70890W        W43150  35.081  18.148   3.854
70891W        W43151   5.429  23.590  12.393
70892W        W43152  41.415  19.687   3.353
70893W        W43153  23.097  31.983  11.055
70894W        W43154  16.770   6.203   4.633
70895W        W43155  37.449  24.506   3.645
70896W        W43156   1.254  13.683  12.051
70897W        W43157  36.875   2.744  14.341
70898W        W43158  18.678  24.705  11.127
70899W        W43159  12.676   4.364  14.338
70900W        W43160   6.421   0.280   2.826
70901W        W43161  30.465  11.678   3.727
70902W        W43162   9.394  28.964  14.309
70903W        W43163  35.898  15.637   2.406
70904W        W43164  17.151  36.996  10.892
70905W        W43165  10.725   5.750   0.821
70906W        W43166  28.652  42.925   4.680
70907W        W43167  35.044  10.825  14.766
70908W        W43168  10.311   8.375  11.431
70909W        W43169  11.337  28.500  10.065
70910W        W43170  40.418  14.703  13.025
70911W        W43171  16.744   2.825  10.621
70912W        W43172  19.706  26.010  12.356
70913W        W43173  40.928  10.794   2.224
70914W        W43174  38.947  16.211   4.686
70915W        W43175  37.072  39.422   4.328
70916W        W43176  40.983  35.475   2.758
70917W        W43177  14.734  31.017   1.339
70918W        W43178  17.788  30.159   4.684
70919W        W43179   9.194  32.037   4.201
70920W        W43180  32.491  33.385   1.327
70921W        W43181  15.103  37.077  12.962
70922W        W43182  35.582  44.457  12.521
70923W        W43183  31.094  28.611  10.436
70924W        W43184  43.437   9.766   2.784
70925W        W43185  36.842  39.912   0.429
70926W        W43186  25.011  39.058  11.049
70927W        W43187  32.407   6.340  10.976
70928W        W43188  43.826  24.096  11.094
70929W        W43189  28.126  25.140  10.609
70930W        W43190  40.988   8.166  11.554
70931W        W43191  28.956   9.309  13.416
70932W        W43192  15.300  30.015   5.282
70933W        W43193  26.680   2.896  12.919
70934W        W43194  42.457   5.836   4.831
70935W        W43195  24.561  16.604   3.297
70936W        W43196  17.800  16.696   1.717
70937W        W43197   2.830   1.463  14.321
70938W        W43198  36.589  12.218   1.377
70939W        W43199  22.119  26.527  10.997
70940W        W43200  25.564   6.759   3.852
70941W        W43201  42.830  34.007   2.664
70942W        W43202  14.800  34.975   1.328
70943W        W43203  24.022  30.658  12.871
70944W        W43204  20.259  39.995   1.212
70945W        W43205  43.941  30.443  12.447
70946W        W43206  22.019  14.691   2.674
70947W        W43207  21.028  38.450  13.348
70948W        W43208  11.347   6.291  11.390
70949W        W43209  43.912   9.762  12.006
70950W        W43210   0.812  21.626  14.786
70951W        W43211   3.292   5.771   2.393
70952W        W43212  10.750  10.375  10.949
70953W        W43213  16.569  15.316  14.323
70954W        W43214  42.382  33.384   4.619
70955W        W43215  34.962  12.732   3.641
70956W        W43216  28.006   6.399  13.974
70957W        W43217   4.247  15.155   2.835
70958W        W43218  15.674   9.782   0.957
70959W        W43219  38.864  16.725  10.093
70960W        W43220  39.859  21.043   4.238
70961W        W43221  23.698  11.672  11.959
70962W        W43222  32.068   1.298   2.418
70963W        W43223  30.931  34.502   2.782
70964W        W43224   1.822  40.841   2.879
70965W        W43225  28.181  37.834  12.478
70966W        W43226  16.628   7.759   1.386
70967W        W43227  24.561  37.342   5.177
70968W        W43228   6.385  30.998  14.287
70969W        W43229  17.570   2.315   4.662
70970W        W43230  22.664  41.329  11.472
70971W        W43231   8.372  42.394  10.404
70972W        W43232   1.418  23.118  12.345
70973W        W43233  13.124  44.938  14.840
70974W        W43234  15.232  30.910  14.853
70975W        W43235   2.276   8.857  12.929
70976W        W43236  31.084  13.719  14.910
70977W        W43237  43.347  28.162   2.853
70978W        W43238  31.897  21.140   0.434
70979W        W43239  30.478  34.379  12.934
70980W        W43240   8.322  35.384  10.638
70981W        W43241  31.123  33.439   1.361
70982W        W43242  19.112   7.908  14.315
70983W        W43243  23.031  31.486   2.228
70984W        W43244  25.986   1.263   4.230
70985W        W43245  24.105  39.891   2.364
70986W        W43246   8.716   5.776  11.934
70987W        W43247  37.385  25.704   0.277
70988W        W43248  42.394   9.272  11.546
70989W        W43249  20.600  44.306  12.968
70990W        W43250   0.421  13.286  13.373
70991W        W43251   3.427  26.543   2.285
70992W        W43252  14.235  11.177   3.839
70993W        W43253  26.642  20.077  11.380
70994W        W43254  29.656  33.972  10.572
70995W        W43255   4.416  25.061   4.133
70996W        W43256   4.849  43.410   4.331
70997W        W43257  30.034   6.372   1.837
70998W        W43258   0.812  28.674  12.567
70999W        W43259  30.144  16.136  10.612
71000W        W43260  39.496  19.718   4.139
71001W        W43261  21.581   8.812   4.313
71002W        W43262  19.703  11.822   3.247
71003W        W43263  16.574   9.153   4.668
71004W        W43264  12.684  20.029   0.482
71005W        W43265  24.153  38.353  14.864
71006W        W43266  20.128  42.886   3.193
71007W        W43267  15.103  13.748   0.350
71008W        W43268  15.748  19.090   0.959
71009W        W43269  42.865   0.795   0.410
71010W        W43270  24.534  35.980  11.995
71011W        W43271  21.054  44.334  12.961
71012W        W43272  15.315   8.315   3.739
71013W        W43273   5.216   3.277   4.832
71014W        W43274   1.319  35.428   0.770
71015W        W43275   4.931  41.974   0.828
71016W        W43276  40.326  28.064   9.931
71017W        W43277  23.520  33.463   0.285
71018W        W43278  24.207  28.445   1.832
71019W        W43279  21.718  24.479  11.098
71020W        W43280  24.004   7.795   3.385
71021W        W43281  13.145   7.414  13.057
71022W        W43282   3.271  39.451   1.867
71023W        W43283  26.203  43.770   1.306
71024W        W43284  11.148   4.909   4.267
71025W        W43285  41.936   6.810   4.636
71026W        W43286  39.832  11.740  12.054
71027W        W43287  30.522  10.843  11.943
71028W        W43288  21.515  29.516   1.270
71029W        W43289  15.690   4.799   0.473
71030W        W43290  40.009  43.997  12.865
71031W        W43291  16.167  26.101   2.179
71032W        W43292  21.121  23.696  12.360
71033W        W43293  33.957  25.142   0.371
71034W        W43294  41.405  28.477  14.840
71035W        W43295  14.303  11.822  12.412
71036W        W43296  16.175   5.871  13.517
71037W        W43297  14.670  41.362   4.152
71038W        W43298  15.097  36.080  10.902
71039W        W43299  37.416  27.481  14.031
71040W        W43300  40.994  20.229   4.638
71041W        W43301  11.739  17.782  11.423
71042W        W43302  28.970  17.236  14.870
71043W        W43303  20.083  28.090  10.041
71044W        W43304  40.430  20.063  11.111
71045W        W43305  42.496  28.044  14.914
71046W        W43306  25.551  20.271   1.320
71047W        W43307  28.678  33.106  13.387
71048W        W43308  41.502  39.928  12.416
71049W        W43309  43.885  34.000  14.335
71050W        W43310  17.744  26.468   1.255
71051W        W43311  37.968  12.220   3.769
71052W        W43312  13.128   8.243  11.059
71053W        W43313  29.566   1.922   3.194
71054W        W43314  14.148  43.499  13.859
71055W        W43315   6.243  19.187   4.683
71056W        W43316  40.374  25.010   3.156
71057W        W43317  36.484  37.868   0.932
71058W        W43318  13.654  25.637   2.740
71059W        W43319  43.011   2.241   3.665
71060W        W43320  29.015   7.286  14.508
71061W        W43321  37.014   9.727   0.811
71062W        W43322  39.390  42.026  12.490
71063W        W43323  42.350  44.269  12.906
71064W        W43324  24.541  31.518  13.857
71065W        W43325  33.043  29.502  11.896
71066W        W43326   9.837  31.628  13.548
71067W        W43327  27.639  33.492  11.943
71068W        W43328  34.534  36.457   0.783
71069W        W43329   7.204  25.574   1.694
71070W        W43330  19.645  38.477   2.342
71071W        W43331  42.367  26.045   4.694
71072W        W43332  25.697  15.241   3.256
71073W        W43333  16.784   8.284   4.638
71074W        W43334  25.668  20.593   4.215
71075W        W43335  29.093   1.326  12.523
71076W        W43336   0.453  16.624   0.904
71077W        W43337  21.201   6.232  13.796
71078W        W43338  32.102   3.383   3.752
71079W        W43339  43.484  39.376  14.892
71080W        W43340  27.045  18.783   0.921
71081W        W43341   2.262  11.753  11.124
71082W        W43342   8.825  31.475   0.277
71083W        W43343  36.514  36.912  11.424
71084W        W43344   6.354  44.830   2.192
71085W        W43345  34.088  12.735  14.964
71086W        W43346  20.558   4.740   1.901
71087W        W43347  24.074  36.476  12.987
71088W        W43348   4.305  22.226   4.196
71089W        W43349   1.404  12.226  13.988
71090W        W43350  25.993  16.073   3.311
71091W        W43351   2.344  27.691  10.905
71092W        W43352  10.379   1.240   1.716
71093W        W43353   9.697  13.133   1.896
71094W        W43354  37.953  25.567  11.377
71095W        W43355  20.589  10.139   0.861
71096W        W43356  26.534  36.569  13.994
71097W        W43357  28.072   2.306  12.077
71098W        W43358   9.172  12.695  14.805
71099W        W43359  44.315  43.314  13.953
71100W        W43360  21.748  20.217  13.372
71101W        W43361  41.306  29.644  13.970
71102W        W43362  29.651  14.338  10.573
71103W        W43363  43.323  31.116   0.465
71104W        W43364  17.578  23.702  14.963
71105W        W43365   7.880  38.055   3.711
71106W        W43366  13.782  38.958  12.057
71107W        W43367  13.745   3.354  12.397
71108W        W43368  11.742  17.714   3.678
71109W        W43369   2.862  41.361  14.361
71110W        W43370  38.489  35.068  14.881
71111W        W43371   0.950  22.727   4.174
71112W        W43372  19.114   6.811  14.015
71113W        W43373  27.039   3.220  11.387
71114W        W43374  44.295  16.096   4.792
71115W        W43375  32.523   2.936  14.353
71116W        W43376  10.382   7.808   2.267
71117W        W43377  30.009   4.369   1.364
71118W        W43378  43.965  30.612   2.730
71119W        W43379   0.844  21.648  13.826
71120W        W43380  20.273   0.891  10.623
71121W        W43381  12.334   6.848  11.554
71122W        W43382   4.889   1.424   3.279
71123W        W43383   6.200   0.416   3.305
71124W        W43384  32.510  22.600   3.659
71125W        W43385  44.379  37.061   2.747
71126W        W43386   2.772  41.030  12.926
71127W        W43387  30.164  42.786   5.191
71128W        W43388   1.387  37.518  14.855
71129W        W43389  13.327  44.407  13.368
71130W        W43390  18.079  18.269   3.333
71131W        W43391  39.827   6.729  13.346
71132W        W43392   8.231  33.469   3.145
71133W        W43393  19.772  28.981   3.865
71134W        W43394  12.705  24.075  11.479
71135W        W43395  28.114  36.029  10.127
71136W        W43396   6.235  38.883   2.744
71137W        W43397  21.140  40.406   2.711
71138W        W43398  14.702   8.807  14.012
71139W        W43399  40.026  18.081   2.411
71140W        W43400  22.010  30.072  14.494
71141W        W43401  42.830  29.526   3.837
71142W        W43402  37.884  14.769  11.940
71143W        W43403  12.309  21.756  11.580
71144W        W43404  15.276  39.496  14.367
71145W        W43405  23.174  22.673  14.277
71146W        W43406  29.504  28.552   0.252
71147W        W43407  11.725   5.200   0.904
71148W        W43408   2.883   4.822  12.460
71149W        W43409  30.926   6.695   0.927
71150W        W43410  39.502  22.168  11.037
71151W        W43411  27.671  15.753   3.355
71152W        W43412  36.882  33.560  13.855
71153W        W43413  16.774  43.377  11.983
71154W        W43414  29.093  15.722   2.713
71155W        W43415  33.030  40.987  12.938
71156W        W43416  41.405  22.674   1.279
71157W        W43417   4.277  34.388  13.441
71158W        W43418   5.755  18.764   3.764
71159W        W43419   2.247  29.480  11.457
71160W        W43420  21.094   3.799  14.514
71161W        W43421  32.553  43.461  14.799
71162W        W43422  38.380  39.058  13.541
71163W        W43423  38.513  12.738  12.373
71164W        W43424  15.107  17.564  14.452
71165W        W43425  22.665  40.000  14.425
71166W        W43426   4.851  32.100   0.381
71167W        W43427  13.168  14.278  14.850
71168W        W43428   3.317   2.816   0.459
71169W        W43429  16.803  14.590  10.456
71170W        W43430  17.767  44.942   0.415
71171W        W43431  19.147  20.212   4.633
71172W        W43432  19.735  22.106  12.386
71173W        W43433  35.528  30.580   4.813
71174W        W43434  28.086   3.829   1.744
71175W        W43435  23.214  31.035  14.841
71176W        W43436   5.875  31.970   1.737
71177W        W43437  18.566  10.299   0.789
71178W        W43438  36.572   6.278  11.382
71179W        W43439   1.959  23.084  12.020
71180W        W43440  28.628  20.107   1.710
71181W        W43441  41.323  36.990  12.848
71182W        W43442  18.600  31.587   0.375
71183W        W43443  12.338   5.348  13.852
71184W        W43444  10.319  29.619   3.368
71185W        W43445  38.500  21.115   1.268
71186W        W43446  15.704   7.689   1.822
71187W        W43447  17.712  39.946   4.176
71188W        W43448  35.087  25.062  10.083
71189W        W43449  16.240  40.019  11.003
71190W        W43450  32.519  21.703  12.914
71191W        W43451  28.547   8.310  10.914
71192W        W43452  21.682   3.833  10.504
71193W        W43453  20.128  21.135   4.643
71194W        W43454  42.346  44.981  13.848
71195W        W43455   6.774  37.002   4.658
71196W        W43456  33.424  32.967  11.511
71197W        W43457  41.397  30.641   2.243
71198W        W43458  42.309  20.249   1.365
71199W        W43459  33.915  38.485   2.824
71200W        W43460   2.902   7.407   1.799
71201W        W43461   1.945  40.875  11.988
71202W        W43462  15.812  13.255  14.974
71203W        W43463  16.696  32.448   1.264
71204W        W43464   8.898  37.580   4.347
71205W        W43465  34.591   8.810   3.722
71206W        W43466   0.891  17.149   2.368
71207W        W43467  35.399  16.602  10.563
71208W        W43468  25.526   2.851  14.877
71209W        W43469  29.023  10.844   2.871
71210W        W43470  33.032  34.385  12.002
71211W        W43471   1.746  31.038   1.240
71212W        W43472   9.854   6.267  13.834
71213W        W43473   3.900  43.962   1.877
71214W        W43474   8.218   9.737  12.962
71215W        W43475  41.536   6.385  11.129
71216W        W43476   3.749  42.814  13.445
71217W        W43477  25.097  26.488  11.472
71218W        W43478  27.452  35.052   0.797
71219W        W43479  41.811  44.268   3.676
71220W        W43480   7.234  12.264  10.533
71221W        W43481  20.569  44.992  13.893
71222W        W43482   5.284  38.556  13.056
71223W        W43483  33.039  24.586  14.361
71224W        W43484  17.242  20.542   0.329
71225W        W43485  25.595  18.185   3.338
71226W        W43486  32.994  12.261   1.785
71227W        W43487  36.495  15.821   5.180
71228W        W43488  28.982   4.808  14.508
71229W        W43489  42.874  16.115   2.732
71230W        W43490   7.824  35.443   2.876
71231W        W43491  31.954  27.185  13.339
71232W        W43492  41.839  42.494   0.421
71233W        W43493   9.724  28.503  13.001
71234W        W43494  20.143  36.908  11.487
71235W        W43495  21.742  13.638   1.274
71236W        W43496  20.551  36.002   1.931
71237W        W43497  12.687  44.949  11.407
71238W        W43498   9.171  43.391  14.324
71239W        W43499  29.575  21.723  11.936
71240W        W43500  33.487  18.250  13.054
71241W        W43501  34.531  29.996  10.902
71242W        W43502   3.758  25.211  13.052
71243W        W43503  31.640   2.870   3.281
71244W        W43504  17.175   0.348   4.303
71245W        W43505  35.537  44.770  14.414
71246W        W43506  41.812  11.837   1.327
71247W        W43507   0.387  15.236   3.301
71248W        W43508  41.885  26.953  13.355
71249W        W43509  18.209  18.088  12.925
71250W        W43510   4.356  32.064  13.483
71251W        W43511  38.433   9.252   5.667
71252W        W43512   2.275  24.679   0.857
71253W        W43513  23.132   5.353  12.369
71254W        W43514  42.915  23.090   3.657
71255W        W43515  11.781  41.303  11.095
71256W        W43516  21.124   8.714  13.041
71257W        W43517   5.873  35.409  11.944
71258W        W43518  19.686  22.186   3.856
71259W        W43519  16.759  39.344  14.925
71260W        W43520   0.426   5.898  12.826
71261W        W43521   2.324  23.675  13.921
71262W        W43522  42.504  20.763  10.494
71263W        W43523  19.063  37.413   0.795
71264W        W43524  44.820  36.939   4.678
71265W        W43525   1.895  27.648  11.060
71266W        W43526   3.710  18.233   4.714
71267W        W43527   4.430  10.773  13.515
71268W        W43528  29.573  21.633   2.412
71269W        W43529  33.485   8.857  10.072
71270W        W43530  36.540  22.046   4.835
71271W        W43531   0.362  12.300   4.241
71272W        W43532  44.386   8.726   2.847
71273W        W43533  25.474  11.694  11.442
71274W        W43534   4.737  21.562  13.856
71275W        W43535   1.964  35.062  14.956
71276W        W43536  26.177  34.921   3.653
71277W        W43537  35.931  23.690   3.741
71278W        W43538  33.457  17.702   4.685
71279W        W43539  21.524   6.369  11.116
71280W        W43540   1.773  42.997  14.514
71281W        W43541  12.820  24.619  12.873
71282W        W43542  37.946  36.850  10.912
71283W        W43543   7.354   6.785  13.347
71284W        W43544  13.701   4.744  13.052
71285W        W43545  43.829   0.871  14.915
71286W        W43546  22.635   9.285  11.610
71287W        W43547   5.292  25.469   2.401
71288W        W43548   8.891  33.414  13.826
71289W        W43549  44.757   4.874   1.762
71290W        W43550   3.877  30.598  11.987
71291W        W43551  40.356   3.714   2.226
71292W        W43552  33.489  23.172   4.646
71293W        W43553  15.272  34.052   0.886
71294W        W43554  35.409  30.098   0.874
71295W        W43555  16.726  37.904  11.995
71296W        W43556  41.852   9.881   3.224
71297W        W43557  34.588  16.575  13.313
71298W        W43558  10.140  22.568   4.263
71299W        W43559  31.897   2.730   1.898
71300W        W43560  43.438  22.049   1.252
71301W        W43561  30.025  21.059   1.362
71302W        W43562  40.467   7.797  13.885
71303W        W43563   9.247  38.908   2.365
71304W        W43564  29.957  44.766  12.423
71305W        W43565  24.032  26.060   4.665
71306W        W43566   5.383  23.584   3.318
71307W        W43567  43.424  14.333  14.291
71308W        W43568  43.800   0.250  12.020
71309W        W43569   2.853   0.272   0.403
71310W        W43570  11.631  29.094  11.558
71311W        W43571  15.276  23.496  12.852
71312W        W43572  10.244  26.005   3.803
71313W        W43573   4.847  18.694  10.416
71314W        W43574  35.064  18.599   4.265
71315W        W43575  18.293  21.685  10.624
71316W        W43576  21.597   3.786  12.457
71317W        W43577  19.582  12.622   4.258
71318W        W43578  32.091  38.995   0.367
71319W        W43579  22.636  36.483  14.829
71320W        W43580  19.148   3.380   2.809
71321W        W43581  22.508  38.848  11.922
71322W        W43582  17.563  11.147   3.359
71323W        W43583  15.676  18.232  11.405
71324W        W43584  32.931   2.951  14.965
71325W        W43585  10.817  11.653   1.886
71326W        W43586  24.648   5.836  14.783
71327W        W43587  13.278  13.191  14.844
71328W        W43588  33.902  11.143   3.834
71329W        W43589  11.708  33.595   3.677
71330W        W43590  21.549  29.150   2.677
71331W        W43591  28.546  33.470  11.091
71332W        W43592  30.027  11.773  14.496
71333W        W43593   3.444  21.542  13.830
71334W        W43594  28.452  10.183   1.294
71335W        W43595  38.995   0.925   4.604
71336W        W43596   6.323   0.354  12.834
71337W        W43597  36.465  37.444   3.637
71338W        W43598  20.630   3.757   1.755
71339W        W43599  37.378  13.792  11.080
71340W        W43600  36.504   1.826  12.396
71341W        W43601   4.886  20.183   0.284
71342W        W43602  15.213  22.616  12.433
71343W        W43603  28.129  10.840  13.519
71344W        W43604   3.785  27.944   4.671
71345W        W43605  29.998  25.027  10.454
71346W        W43606  31.134  19.635   1.915
71347W        W43607  25.552  41.453   1.872
71348W        W43608  18.589  15.686   0.962
71349W        W43609   6.711   5.786   2.353
71350W        W43610  29.649  23.013  14.371
71351W        W43611   0.295   4.906  13.510
71352W        W43612  13.172  15.118   1.250
71353W        W43613  23.223  36.943  14.791
71354W        W43614  15.322  21.082  11.120
71355W        W43615   8.235  23.614  12.539
71356W        W43616  30.543  15.592  14.775
71357W        W43617   7.679  33.593  10.977
71358W        W43618  35.025  15.698   0.924
71359W        W43619  38.036  24.643  12.856
71360W        W43620  25.625  35.517  12.093
71361W        W43621  16.584  12.355   2.361
71362W        W43622   6.291  30.650  11.563
71363W        W43623  25.634  39.469   0.952
71364W        W43624  16.104   4.750   3.809
71365W        W43625  36.551  42.919   0.925
71366W        W43626  28.467  38.500   2.679
71367W        W43627  37.503   4.910   0.762
71368W        W43628  14.107  22.670   4.226
71369W        W43629  17.133  41.929   0.903
71370W        W43630  39.815   1.786   1.231
71371W        W43631   5.690  33.591   0.900
71372W        W43632   7.411   7.304   2.834
71373W        W43633   9.749  19.174  13.402
71374W        W43634   3.715  28.469   4.355
71375W        W43635  10.381  37.048  11.539
71376W        W43636  20.696  23.210  14.891
71377W        W43637  36.859  39.972  10.947
71378W        W43638   2.951   4.833  14.275
71379W        W43639  30.534  39.010   0.813
71380W        W43640  42.310  14.133   4.264
71381W        W43641  32.988  36.889   0.960
71382W        W43642  29.498  28.465  10.994
71383W        W43643  14.215  30.929   9.998
71384W        W43644  37.928  24.509   3.725
71385W        W43645   2.303  40.853  10.431
71386W        W43646  41.908  26.095   4.695
71387W        W43647  16.678   3.777   3.215
71388W        W43648  20.635  28.632   3.865
71389W        W43649  15.084  33.092  10.566
71390W        W43650  39.323   8.179   4.129
71391W        W43651  16.253  18.725  12.987
71392W        W43652  25.698  40.534  10.527
71393W        W43653   3.431   2.886   3.225
71394W        W43654   8.785  42.413  11.579
71395W        W43655  33.397   6.849  10.999
71396W        W43656   0.407  27.510   4.794
71397W        W43657  30.601  32.460   3.643
71398W        W43658  21.077  23.126   2.352
71399W        W43659  41.864  12.799  13.884
71400W        W43660  28.149  37.965  14.847
71401W        W43661  36.504   2.754   0.321
71402W        W43662  29.470  24.713  12.881
71403W        W43663  11.358  16.709  13.015
71404W        W43664  33.908  14.793  13.023
71405W        W43665  28.138  15.319  11.921
71406W        W43666  12.299  16.638   3.173
71407W        W43667  12.778  39.415  12.878
71408W        W43668  40.536  14.752   4.190
71409W        W43669  10.201  11.129   2.374
71410W        W43670  32.591  26.959  13.353
71411W        W43671  15.098  13.122   2.349
71412W        W43672  20.571   0.277   0.885
71413W        W43673  10.746  44.799   0.386
71414W        W43674  14.660   4.213   0.436
71415W        W43675  26.678  13.328   0.863
71416W        W43676   0.271  29.473   4.632
71417W        W43677  23.230  34.104  10.406
71418W        W43678  15.220  21.142  10.476
71419W        W43679   3.735  34.608   3.303
71420W        W43680  40.307  43.490   2.280
71421W        W43681  35.520   6.189  12.930
71422W        W43682   1.250  35.594   4.179
71423W        W43683  25.073  24.621  14.933
71424W        W43684  16.148  28.993  13.499
71425W        W43685   3.441  44.848  12.434
71426W        W43686  26.004  24.604  14.824
71427W        W43687  43.457  36.011  12.340
71428W        W43688  42.873  10.789   3.167
71429W        W43689  41.397  16.296   3.649
71430W        W43690   3.443   7.239   4.174
71431W        W43691  38.956  24.585   4.673
71432W        W43692  12.782  26.494   1.354
71433W        W43693   6.792  44.482  11.577
71434W        W43694  19.217  35.405  12.954
71435W        W43695  39.919   3.859   4.659
71436W        W43696  30.533  20.264  13.968
71437W        W43697  32.029  10.720   0.905
71438W        W43698  29.658   1.860  11.475
71439W        W43699   0.789  28.478  10.979
71440W        W43700  11.363  30.587   3.861
71441W        W43701   7.208  30.156   2.676
71442W        W43702  35.001   2.437  14.849
71443W        W43703   8.864   1.273   4.273
71444W        W43704  10.381  20.224  10.607
71445W        W43705  34.043   3.359   0.283
71446W        W43706  44.937  32.102  11.892
71447W        W43707  18.755  20.263   4.345
71448W        W43708  11.149   7.195  11.441
71449W        W43709  13.734  35.380   2.204
71450W        W43710  38.883  42.919   3.297
71451W        W43711  30.915  23.517  11.429
71452W        W43712  18.200   1.835   1.718
71453W        W43713  29.076  37.087  11.524
71454W        W43714  33.503  10.677  12.437
71455W        W43715  44.852  37.560  11.925
71456W        W43716  43.778  27.008  12.556
71457W        W43717  28.039  18.148   3.340
71458W        W43718  42.794  38.388  12.087
71459W        W43719   8.740  11.329  13.878
71460W        W43720  29.947  20.635   2.678
71461W        W43721   7.264  20.659  13.482
71462W        W43722  32.955  17.260   3.260
71463W        W43723  30.476  27.983   4.220
71464W        W43724  22.688  20.721   2.771
71465W        W43725  44.903  31.491  11.515
71466W        W43726  42.920  11.720  11.074
71467W        W43727  37.836  38.833  14.968
71468W        W43728  13.751  29.959   3.314
71469W        W43729  15.230   1.825  12.576
71470W        W43730  38.059  19.139  13.509
71471W        W43731  39.054  39.819   3.195
71472W        W43732  31.447   2.876  14.773
71473W        W43733   2.912  29.439  10.966
71474W        W43734  26.590  13.666  11.532
71475W        W43735  26.073  44.942   3.825
71476W        W43736  13.793  13.783   1.880
71477W        W43737  42.468   7.216  10.459
71478W        W43738  38.067   4.288  11.909
71479W        W43739  25.973   2.414   3.280
71480W        W43740  20.602  26.479  11.888
71481W        W43741  21.053  37.066   2.768
71482W        W43742  30.648  29.001  11.896
71483W        W43743  24.104  31.598  14.873
71484W        W43744  32.892  18.753  14.871
71485W        W43745  16.101  29.669   0.259
71486W        W43746  43.488  41.403  13.522
71487W        W43747  37.015  23.160  14.894
71488W        W43748   2.821  14.282  13.400
71489W        W43749  36.996  29.427   1.288
71490W        W43750  35.939  33.567  14.483
71491W        W43751  29.002   7.342  14.980
71492W        W43752  28.657  27.559   4.163
71493W        W43753   4.392  35.105   3.286
71494W        W43754  41.360   1.972  14.886
71495W        W43755  19.761   8.356   2.347
71496W        W43756  42.450   1.273  12.574
71497W        W43757   0.261  29.563   3.868
71498W        W43758  12.139   2.293   4.633
71499W        W43759  39.032  11.208  13.915
71500W        W43760  38.410  27.546  11.875
71501W        W43761  40.425  14.196   2.210
71502W        W43762  35.362   3.269  13.798
71503W        W43763  33.023  10.757  14.802
71504W        W43764  25.580   9.175  11.495
71505W        W43765   8.337  37.506   0.313
71506W        W43766  27.135  11.281  13.512
71507W        W43767   0.939  41.019   2.235
71508W        W43768  11.758   4.406  14.326
71509W        W43769  28.179  43.301   0.247
71510W        W43770  31.123   3.906  14.503
71511W        W43771  21.706  30.967  12.362
71512W        W43772  25.192  21.206  10.145
71513W        W43773  41.423  21.628   3.770
71514W        W43774  16.146  18.114  14.987
71515W        W43775  27.085  43.996  13.804
71516W        W43776   0.471  25.061   0.853
71517W        W43777   6.896  18.152   2.756
71518W        W43778   4.792  26.963  13.816
71519W        W43779  33.914  11.789   4.656
71520W        W43780   4.423  28.947   3.150
71521W        W43781   6.731  34.971   3.147
71522W        W43782   2.467  29.527   2.347
71523W        W43783  24.981   4.355  14.336
71524W        W43784  36.013   5.698   3.159
71525W        W43785  37.035   8.234  10.624
71526W        W43786  30.427  16.613  11.044
71527W        W43787  23.680  26.168   4.727
71528W        W43788  23.509  31.899  13.961
71529W        W43789   4.333  17.145  12.046
71530W        W43790  18.608   9.206   0.400
71531W        W43791   6.315   4.709   3.289
71532W        W43792  10.203  13.171  13.452
71533W        W43793  12.654  31.609  12.495
71534W        W43794   0.342   1.253   1.368
71535W        W43795  30.046  29.609   3.733
71536W        W43796  34.542   5.428  12.353
71537W        W43797   4.211  15.233  12.406
71538W        W43798  32.484  32.952  11.411
71539W        W43799  11.303  12.686  11.072
71540W        W43800  21.703  25.697   3.158
71541W        W43801   1.352  17.307   1.272
71542W        W43802  31.411  39.021  14.484
71543W        W43803   0.931  41.408  14.404
71544W        W43804  24.523   7.301   2.843
71545W        W43805  27.585  13.215   4.148
71546W        W43806  25.121  23.640  13.457
71547W        W43807  13.262  10.196   5.213
71548W        W43808  17.257  26.488  11.042
71549W        W43809  37.516  35.394   4.637
71550W        W43810  19.211  10.221  14.874
71551W        W43811   1.405   4.332   1.843
71552W        W43812   8.832  18.107   2.400
71553W        W43813   4.278  44.479  13.466
71554W        W43814  19.124  38.981   1.694
71555W        W43815  10.188   9.726  12.974
71556W        W43816  41.416  18.144  11.032
71557W        W43817  17.575  16.241   2.256
71558W        W43818  34.043  30.122   3.175
71559W        W43819   4.710  33.970   1.420
71560W        W43820  26.566   3.342  10.037
71561W        W43821   2.324  19.255  12.953
71562W        W43822  15.204   8.764  13.003
71563W        W43823   7.304   9.324  13.317
71564W        W43824  36.937   6.210  13.386
71565W        W43825  23.546  21.075  12.576
71566W        W43826  26.152  13.128   3.649
71567W        W43827   8.671  32.066   2.247
71568W        W43828  44.878  27.620  13.309
71569W        W43829  35.373   7.739   0.355
71570W        W43830  17.242  16.746   0.255
71571W        W43831  14.241   1.356   4.720
71572W        W43832  19.568  23.120  10.525
71573W        W43833  20.156   3.351   2.402
71574W        W43834  39.477  44.000  11.067
71575W        W43835  28.964   8.827   0.779
71576W        W43836  11.228   4.822   2.792
71577W        W43837   6.384  11.327  13.980
71578W        W43838  26.976   9.839  12.050
71579W        W43839  38.953   8.764   2.830
71580W        W43840  18.198   6.707  10.444
71581W        W43841  25.200   8.197  12.575
71582W        W43842  30.999  34.895  12.571
71583W        W43843  35.047  15.084   4.337
71584W        W43844  12.682  42.345   0.314
71585W        W43845  33.072  23.074  10.467
71586W        W43846  40.391  18.135   1.760
71587W        W43847  17.262  29.431  13.054
71588W        W43848  26.648  13.345  13.335
71589W        W43849  30.045  14.119   2.262
71590W        W43850  15.710  17.146  14.433
71591W        W43851  14.213  24.195  14.952
71592W        W43852  10.147   1.355  10.433
71593W        W43853  13.331  20.534  10.594
71594W        W43854   3.850  23.122  10.952
71595W        W43855  35.448  14.693   4.206
71596W        W43856  17.767  44.270   4.329
71597W        W43857  42.880  29.051   2.201
71598W        W43858  14.642  31.554   1.272
71599W        W43859  21.034  11.851   1.777
71600W        W43860   5.400  20.609   2.312
71601W        W43861   0.399  15.271   0.936
71602W        W43862  15.195   8.394  13.463
71603W        W43863  22.664  37.494   4.800
71604W        W43864  16.742  30.011   3.780
71605W        W43865  23.079  23.226   3.261
71606W        W43866  28.995  34.937  11.045
71607W        W43867  43.886  38.396   1.761
71608W        W43868  20.730  20.067  11.451
71609W        W43869  31.464  34.904   1.748
71610W        W43870  29.961  38.054  12.405
71611W        W43871  16.739  38.463  14.980
71612W        W43872  32.400   3.286   4.296
71613W        W43873  20.221  44.832   1.793
71614W        W43874  38.501  12.333   4.184
71615W        W43875  32.538  25.988   1.305
71616W        W43876   7.873  15.199  11.067
71617W        W43877   7.175  23.060  13.839
71618W        W43878   7.218  42.854   1.844
71619W        W43879  26.180   2.330   0.891
71620W        W43880  23.575  21.650   2.371
71621W        W43881   0.918  33.072  13.484
71622W        W43882  14.802  10.380   0.772
71623W        W43883  40.412  31.471   2.671
71624W        W43884  11.132  27.627   2.309
71625W        W43885   7.330  16.628  12.990
71626W        W43886  43.270   9.738  10.537
71627W        W43887   3.798   4.423   3.368
71628W        W43888  24.532  39.313   9.595
71629W        W43889   7.727  28.021   0.281
71630W        W43890  11.312   7.335   2.383
71631W        W43891  38.495  23.677  13.800
71632W        W43892   2.431  39.389   1.437
71633W        W43893  32.562  14.828   0.904
71634W        W43894  31.401  30.653  12.560
71635W        W43895  11.868  41.021   4.241
71636W        W43896  27.650  18.772   2.350
71637W        W43897  25.653  28.502   1.222
71638W        W43898  42.865  13.781   4.238
71639W        W43899  41.002  27.129  14.865
71640W        W43900  16.749  16.079   3.148
71641W        W43901  30.138  19.119  12.889
71642W        W43902  14.611   5.802  12.003
71643W        W43903  32.554  31.995   3.852
71644W        W43904  22.682  33.876   0.862
71645W        W43905  17.746  38.042   2.348
71646W        W43906  24.672  20.525  12.893
71647W        W43907  19.050  24.143  14.321
71648W        W43908  40.942  21.063  12.002
71649W        W43909  13.310  12.197  11.064
71650W        W43910  27.666  25.183  13.834
71651W        W43911   3.264   7.690   1.823
71652W        W43912  28.101  26.137  12.888
71653W        W43913  10.261  40.986   4.692
71654W        W43914  26.989  28.969   2.273
71655W        W43915  17.149   3.796   2.821
71656W        W43916  17.692  10.275   2.269
71657W        W43917  44.774  12.795   3.823
71658W        W43918   0.332  35.471   3.697
71659W        W43919  26.959  14.702   1.291
71660W        W43920   1.737  30.429   0.751
71661W        W43921  28.586  35.479   2.874
71662W        W43922  18.785   4.820   3.806
71663W        W43923  14.597   5.372  11.597
71664W        W43924  15.127   1.360  10.474
71665W        W43925  44.786   9.835  12.476
71666W        W43926  15.321  35.417   2.282
71667W        W43927  29.454  41.796  14.447
71668W        W43928   7.377  42.350   2.254
71669W        W43929  29.649  36.348   0.746
71670W        W43930  36.438  16.667  11.084
71671W        W43931  28.458  21.743   4.212
71672W        W43932  15.737  34.524   2.843
71673W        W43933  39.845  31.594   3.151
71674W        W43934   3.374  42.439  12.020
71675W        W43935  16.637  14.708  12.069
71676W        W43936  23.734   5.743   2.791
71677W        W43937  16.802  18.292  13.972
71678W        W43938   1.265  42.526  12.078
71679W        W43939  23.046  20.588  10.931
71680W        W43940   2.755  32.581  11.407
71681W        W43941   2.746  30.513  11.109
71682W        W43942  27.475  32.937  14.345
71683W        W43943   3.828  43.836  12.971
71684W        W43944  22.740  43.293   4.800
71685W        W43945  30.915   5.729   0.857
71686W        W43946  14.722  19.071  11.045
71687W        W43947  32.533  29.079   3.234
71688W        W43948   1.858  26.571  11.499
71689W        W43949  30.495  27.585   3.366
71690W        W43950   9.213  40.348   0.912
71691W        W43951  37.349  23.019  10.486
71692W        W43952  16.147  37.920   1.925
71693W        W43953  36.885  32.949   4.284
71694W        W43954  18.550  22.674  13.322
71695W        W43955  40.418   9.384   9.921
71696W        W43956   0.264  26.957   1.828
71697W        W43957  26.161  15.203  14.937
71698W        W43958  14.685  10.798  11.013
71699W        W43959  28.491   2.405   2.766
71700W        W43960   1.748  38.026   3.812
71701W        W43961  23.033  20.681   4.704
71702W        W43962  38.347  10.831  12.401
71703W        W43963  28.104  32.887  13.014
71704W        W43964  21.105  17.757  13.517
71705W        W43965  42.313  11.694   3.177
71706W        W43966   6.793  16.776  14.991
71707W        W43967   5.699  25.683   2.792
71708W        W43968  41.410  40.318  13.393
71709W        W43969  33.581  23.117   4.284
71710W        W43970  20.679  23.194  14.314
71711W        W43971  36.985  17.062  12.975
71712W        W43972  11.298  39.553   3.812
71713W        W43973  22.510  12.129  10.595
71714W        W43974   1.740  33.386  10.487
71715W        W43975  23.570   3.744   3.221
71716W        W43976   1.375   9.670  10.569
71717W        W43977   6.229  20.615   4.279
71718W        W43978  15.821  30.978  10.421
71719W        W43979  37.917  43.408  12.496
71720W        W43980  37.860  33.019   3.646
71721W        W43981  27.948  35.427  14.998
71722W        W43982  36.072   5.230  10.486
71723W        W43983  34.470  13.140   0.408
71724W        W43984  24.014   9.651  12.067
71725W        W43985  26.598  31.962   4.723
71726W        W43986  15.278  31.479  13.034
71727W        W43987  35.949  14.810   3.726
71728W        W43988  39.961  42.870  10.439
71729W        W43989  10.155  27.650  10.888
71730W        W43990  34.430  27.961  11.375
71731W        W43991  30.982  14.595  11.109
71732W        W43992  42.827  38.960   4.337
71733W        W43993  35.867  13.231   1.921
71734W        W43994  22.248  39.360   4.648
71735W        W43995  14.649   6.805   2.763
71736W        W43996  33.455  21.575   4.649
71737W        W43997  40.393   1.269   0.386
71738W        W43998  36.385  31.100  13.499
71739W        W43999  25.206  38.389   2.892
71740W        W44000  17.767  42.432  13.817
71741W        W44001  38.394  18.083   3.734
71742W        W44002   4.435  27.621  10.437
71743W        W44003   4.331  41.307  10.962
71744W        W44004  15.130  14.798   3.211
71745W        W44005  34.099   3.848   0.925
71746W        W44006   4.379  18.612   4.758
71747W        W44007   8.215  23.081   2.336
71748W        W44008  26.635   1.338   4.727
71749W        W44009  42.871  31.115  14.799
71750W        W44010  38.012  21.182   0.857
71751W        W44011   1.389  22.544  13.377
71752W        W44012  29.542  16.648  13.333
71753W        W44013  35.896   9.347   1.753
71754W        W44014  16.286  16.262   4.697
71755W        W44015  26.653   5.253   0.889
71756W        W44016  30.517  39.855  13.324
71757W        W44017   3.237  30.981   1.383
71758W        W44018   9.347   0.359   4.697
71759W        W44019  21.085  41.022   4.226
71760W        W44020  15.208  30.100   2.260
71761W        W44021   2.402   4.776  10.063
71762W        W44022  23.670  20.614  10.039
71763W        W44023  34.528  11.781   3.770
71764W        W44024   7.891  36.404   3.271
71765W        W44025  34.439   3.951   0.414
71766W        W44026  17.650   1.371  12.964
71767W        W44027  33.569  19.671  10.934
71768W        W44028  30.937  42.374  13.931
71769W        W44029  21.229  39.443  10.972
71770W        W44030  11.666  23.693   5.218
71771W        W44031   2.934  21.225   4.305
71772W        W44032  35.405  38.053  14.409
71773W        W44033  22.591  11.742   3.275
71774W        W44034   6.862  42.967   1.269
71775W        W44035  12.833  30.600   0.310
71776W        W44036  32.024  30.957  14.805
71777W        W44037  16.106  31.130   0.464
71778W        W44038  21.710  43.993  12.476
71779W        W44039  11.318  28.018   0.965
71780W        W44040  30.007  10.697  11.551
71781W        W44041  20.769  34.003   0.242
71782W        W44042  11.852  41.385   3.332
71783W        W44043  11.139   2.766   4.818
71784W        W44044  39.059  33.624   4.193
71785W        W44045   8.741  23.533  13.348
71786W        W44046  17.064  14.770   4.284
71787W        W44047   0.893  30.106  13.994
71788W        W44048  40.350   7.884  11.517
71789W        W44049  38.866  20.627  14.795
71790W        W44050  19.676  36.440  10.955
71791W        W44051  10.870   9.327   4.725
71792W        W44052  37.501  36.034   0.463
71793W        W44053   6.295  14.323  11.104
71794W        W44054  34.080  35.033  12.384
71795W        W44055  16.782  43.797  12.389
71796W        W44056  34.535  14.191   1.252
71797W        W44057   4.421  16.287  11.482
71798W        W44058  14.329  23.496  10.007
71799W        W44059  24.075  38.456   4.663
71800W        W44060   2.861  37.560   0.806
71801W        W44061   8.891  20.630  12.562
71802W        W44062   6.774  19.555  13.922
71803W        W44063  24.065  15.201   2.765
71804W        W44064  40.316   3.800   0.484
71805W        W44065  28.175  25.548   3.297
71806W        W44066   7.803  35.971   4.770
71807W        W44067   5.381  30.013  13.981
71808W        W44068  10.681  15.297   4.839
71809W        W44069  44.976  12.613   1.218
71810W        W44070  41.793  28.653   0.895
71811W        W44071  30.120  18.141   3.183
71812W        W44072  36.070   4.827   2.354
71813W        W44073  41.364  27.000  13.315
71814W        W44074  42.399  31.449  14.456
71815W        W44075  39.884   0.858   0.893
71816W        W44076  27.050  30.158  11.456
71817W        W44077  15.590  21.165  10.158
71818W        W44078  41.804   3.758  12.911
71819W        W44079  25.486   3.315  13.449
71820W        W44080  30.537  19.580  10.456
71821W        W44081  12.812  25.182  10.405
71822W        W44082  25.212  12.291   1.718
71823W        W44083  35.362  26.993  13.057
71824W        W44084  24.991  22.560  14.285
71825W        W44085  23.147   0.401   3.853
71826W        W44086  27.539  39.332   4.732
71827W        W44087  22.196  40.888   2.357
71828W        W44088  15.592  16.677   2.835
71829W        W44089  42.371  14.590   4.122
71830W        W44090  30.075   4.389   0.275
71831W        W44091   0.942  27.176  11.897
71832W        W44092  33.433  30.533   0.741
71833W        W44093  25.512  33.509  12.918
71834W        W44094  25.615  12.263  13.455
71835W        W44095  18.085   2.337  14.310
71836W        W44096  34.392  16.248  13.037
71837W        W44097   2.723   2.459  10.486
71838W        W44098   0.835   8.801  13.805
71839W        W44099  20.235   3.237   0.350
71840W        W44100  24.017  38.326  11.991
71841W        W44101  24.656   6.679   2.356
71842W        W44102  23.067  28.645  12.566
71843W        W44103  10.660  12.698  14.959
71844W        W44104  16.711  26.952   4.296
71845W        W44105  36.918   5.894   0.367
71846W        W44106   7.853   2.249   3.145
71847W        W44107  38.055   1.758  10.617
71848W        W44108   5.291  23.598   1.247
71849W        W44109  20.152  41.870   2.246
71850W        W44110   8.842  24.974   2.219
71851W        W44111  23.025  10.879  14.358
71852W        W44112  32.039  13.331  10.512
71853W        W44113   0.822  31.455  14.970
71854W        W44114  12.845   9.365  12.453
71855W        W44115  16.286   6.868  13.873
71856W        W44116  33.553  25.985   3.746
71857W        W44117  24.602  34.439   2.261
71858W        W44118  24.227   6.218  11.956
71859W        W44119  41.491  31.108  14.854
71860W        W44120  15.779  23.591   4.260
71861W        W44121  17.597  13.334  13.923
71862W        W44122  23.558  26.661  11.091
71863W        W44123  29.093  36.387  10.922
71864W        W44124   9.650   1.857   2.415
71865W        W44125  12.797   7.859   0.412
71866W        W44126  41.499   7.297   2.772
71867W        W44127  33.979  26.465   3.659
71868W        W44128   5.245  11.810  12.872
71869W        W44129  28.941  42.989  12.886
71870W        W44130  18.675  41.815  13.871
71871W        W44131  16.280  37.865   2.182
71872W        W44132   7.298  28.677  13.307
71873W        W44133  11.157   9.366  11.926
71874W        W44134  12.130  18.708   3.384
71875W        W44135  19.582  24.553  12.907
71876W        W44136  19.192  30.137   4.193
71877W        W44137  41.834   9.836  14.906
71878W        W44138   2.315  19.714   3.368
71879W        W44139  39.956  17.259  13.955
71880W        W44140  21.595  31.527  12.987
71881W        W44141   7.255  14.267   0.800
71882W        W44142  19.564  24.998   0.281
71883W        W44143  13.823   4.208   1.917
71884W        W44144  39.855   5.337   3.673
71885W        W44145   9.391  16.623   2.723
71886W        W44146  32.064   5.843  11.453
71887W        W44147  40.379   5.840   0.783
71888W        W44148  22.655   5.874  13.953
71889W        W44149   4.909  26.699   4.786
71890W        W44150  15.762  40.494   4.321
71891W        W44151  18.586  27.550   2.858
71892W        W44152  14.656  39.990   0.279
71893W        W44153  28.112  38.469   2.842
71894W        W44154  32.000  37.852  10.961
71895W        W44155   7.714  18.597  13.794
71896W        W44156  24.165  29.063   3.254
71897W        W44157   5.846  43.896   2.186
71898W        W44158  27.158  22.249   0.751
71899W        W44159  31.029  14.595  11.563
71900W        W44160  14.595   3.238   2.358
71901W        W44161  42.847  40.517   2.766
71902W        W44162  43.503   9.769   3.679
71903W        W44163  13.641  31.507   0.836
71904W        W44164  32.912  25.521   0.894
71905W        W44165  25.055  32.935   2.817
71906W        W44166  29.089  43.321  14.451
71907W        W44167  21.703  11.817   0.351
71908W        W44168  16.130  19.187  12.539
71909W        W44169   0.283  26.957  12.985
71910W        W44170  22.614  34.865   3.825
71911W        W44171  20.104   7.749  13.911
71912W        W44172   7.855  28.969  11.864
71913W        W44173  29.446  34.380  14.412
71914W        W44174  42.432   9.863  12.396
71915W        W44175  19.104  11.256   0.315
71916W        W44176  17.246  23.219   4.166
71917W        W44177   9.194  18.763  11.882
71918W        W44178  16.809  27.484  10.965
71919W        W44179   9.182  30.995   0.452
71920W        W44180   7.412  38.939  12.379
71921W        W44181  24.026  20.148  12.994
71922W        W44182  25.667  34.436  11.542
71923W        W44183  41.529  41.851   2.350
71924W        W44184  35.981   1.973  11.410
71925W        W44185   4.734  24.038   4.692
71926W        W44186  20.560  26.637   5.622
71927W        W44187  33.599  14.673   3.369
71928W        W44188  19.164  29.430   4.656
71929W        W44189  31.964  21.659  12.078
71930W        W44190   2.427  29.497   3.742
71931W        W44191  27.467  15.824  10.485
71932W        W44192   0.935  12.684  14.794
71933W        W44193   7.883  35.546  13.991
71934W        W44194  40.006  42.776   2.835
71935W        W44195  17.702  43.278  10.437
71936W        W44196  11.287  17.651   0.256
71937W        W44197  32.894   4.297   3.184
71938W        W44198  27.985  44.326  11.423
71939W        W44199  42.338  43.298  14.515
71940W        W44200  15.249  27.576  12.093
71941W        W44201   8.165  22.577   1.419
71942W        W44202  38.986   9.309   2.410
71943W        W44203  18.219  10.859   0.938
71944W        W44204  34.976  14.220   3.362
71945W        W44205   1.330  43.388  13.377
71946W        W44206  14.684  28.600   2.763
71947W        W44207   7.685  13.635  14.359
71948W        W44208  31.481  21.087  14.358
71949W        W44209   6.213  39.521  10.453
71950W        W44210  20.755  37.933  12.048
71951W        W44211  32.526  41.989  14.380
71952W        W44212  13.671  18.598   2.798
71953W        W44213  19.103  35.891   3.757
71954W        W44214   9.262  13.229  12.862
71955W        W44215  19.635  26.955   1.323
71956W        W44216  29.146  23.617  10.558
71957W        W44217  16.200  16.772   1.247
71958W        W44218  24.563   0.797   3.222
71959W        W44219  28.667  21.084  14.005
71960W        W44220  14.099   9.328  12.392
71961W        W44221  41.475   7.763  12.990
71962W        W44222   4.395  44.369   1.707
71963W        W44223  38.921  25.167  12.447
71964W        W44224  29.494  17.212   5.276
71965W        W44225   3.285  41.909   1.211
71966W        W44226  39.903   6.896  11.101
71967W        W44227  44.329  33.108  11.080
71968W        W44228  16.592  39.020   0.395
71969W        W44229  14.243   4.704   1.438
71970W        W44230  43.367  34.531   1.251
71971W        W44231  15.755  26.623  14.515
71972W        W44232   8.370  38.015  13.954
71973W        W44233  40.355  23.653   4.763
71974W        W44234  41.963  26.467   2.415
71975W        W44235  19.077  44.431   2.724
71976W        W44236  37.965  19.049  14.863
71977W        W44237  37.576  43.502  11.566
71978W        W44238  25.020  29.167  11.047
71979W        W44239  31.557  26.570   1.849
71980W        W44240  36.405  40.953  12.003
71981W        W44241  21.586  22.052   1.829
71982W        W44242  17.106  27.547   9.941
71983W        W44243   0.481  37.912   3.274
71984W        W44244   7.794  34.971  13.948
71985W        W44245  26.462  36.897  14.008
71986W        W44246  12.302  43.455   2.352
71987W        W44247  12.723  25.116   1.858
71988W        W44248  33.877   7.677  11.572
71989W        W44249  27.612  28.945  13.985
71990W        W44250  29.063   7.806  11.863
71991W        W44251   2.328   8.862  10.070
71992W        W44252  29.595  22.248   0.857
71993W        W44253  12.145  23.631  13.319
71994W        W44254  18.613  25.999  14.871
71995W        W44255  18.226  41.930   1.913
71996W        W44256  10.291  13.241   4.758
71997W        W44257  38.909  21.052   0.368
71998W        W44258  26.069   5.234   4.149
71999W        W44259  23.189  39.434   1.836
72000W        W44260   8.792  17.613   2.726
72001W        W44261  13.669  38.438   1.728
72002W        W44262  16.198  22.159   0.812
72003W        W44263  41.009  20.249  13.445
72004W        W44264  20.087   1.887   0.768
72005W        W44265  22.700  44.984   1.818
72006W        W44266  17.254  25.523  13.478
72007W        W44267  44.267  38.547  12.575
72008W        W44268  16.285   0.272   0.272
72009W        W44269  27.466  16.639   4.192
72010W        W44270  28.607   5.798   0.279
72011W        W44271  18.691  41.353   0.408
72012W        W44272  41.944  33.103  12.534
72013W        W44273  36.407  13.187  12.955
72014W        W44274  32.462  34.421   1.425
72015W        W44275  39.930  18.236  12.032
72016W        W44276  22.633  25.523  14.009
72017W        W44277  36.857  27.956  11.031
72018W        W44278  22.689   5.905  14.845
72019W        W44279  14.732  43.935   3.704
72020W        W44280  34.531  42.898   4.239
72021W        W44281   3.401  34.056  10.603
72022W        W44282  26.543  41.971   4.772
72023W        W44283  36.901  38.414   4.614
72024W        W44284  27.446  36.930   4.137
72025W        W44285   5.245   6.286  13.518
72026W        W44286  13.115  11.812  12.538
72027W        W44287  20.741  16.170   2.794
72028W        W44288   7.690  41.346   2.364
72029W        W44289  43.934  30.101   0.784
72030W        W44290  23.031   3.248   2.328
72031W        W44291  19.570  25.524  13.490
72032W        W44292  33.381   9.353  10.494
72033W        W44293   6.832  22.061  11.077
72034W        W44294  36.394  12.840   3.167
72035W        W44295   0.947  22.097  13.545
72036W        W44296  37.396  26.566   0.862
72037W        W44297  28.939  40.383  12.879
72038W        W44298  24.034  30.926  12.083
72039W        W44299  18.100  34.076   4.613
72040W        W44300   9.245  37.860   2.285
72041W        W44301  15.264   4.776  12.548
72042W        W44302  16.688  36.429  14.823
72043W        W44303   0.784  34.476  11.038
72044W        W44304  35.063  25.003   4.182
72045W        W44305  39.811  23.993   2.857
72046W        W44306  43.431   0.942   4.728
72047W        W44307  29.499   6.710  12.056
72048W        W44308  42.883  12.833  11.424
72049W        W44309  22.614  22.655   3.180
72050W        W44310  17.087   3.854   3.326
72051W        W44311  39.340   4.215  13.804
72052W        W44312  14.256  31.575   1.307
72053W        W44313  26.155   2.258   1.233
72054W        W44314   5.821  35.852  13.822
72055W        W44315  36.483  32.519   1.882
72056W        W44316  39.959  14.207   3.235
72057W        W44317  19.555  42.024  14.345
72058W        W44318  34.091  27.015   1.415
72059W        W44319  15.754   4.756  10.508
72060W        W44320  11.290   4.242   3.714
72061W        W44321  12.738  39.873  11.930
72062W        W44322  41.362  17.304  13.004
72063W        W44323  36.499  16.683  12.543
72064W        W44324   6.757  41.375   2.895
72065W        W44325  35.964  14.684  10.560
72066W        W44326  39.530  24.160  14.028
72067W        W44327  33.970  22.664  13.459
72068W        W44328  23.112   4.322   2.412
72069W        W44329  15.089   2.411  10.599
72070W        W44330  38.452  20.736   0.861
72071W        W44331  11.373  31.469  14.831
72072W        W44332  41.492  28.626   1.438
72073W        W44333  36.077  31.124  10.634
72074W        W44334  14.334  34.056  14.316
72075W        W44335   2.902   3.913  12.411
72076W        W44336  21.716  35.100   4.245
72077W        W44337  15.767  11.220  13.990
72078W        W44338   3.409  17.666  12.452
72079W        W44339   2.273  22.595  12.416
72080W        W44340   7.318  43.370   2.403
72081W        W44341  44.292  18.764  12.530
72082W        W44342  40.037  32.414   2.877
72083W        W44343  23.032  21.042   4.779
72084W        W44344  40.989  17.306   0.727
72085W        W44345   1.917  44.890  11.092
72086W        W44346  27.514  33.395   2.740
72087W        W44347  14.241  24.702  13.515
72088W        W44348  18.603  39.330   3.185
72089W        W44349   4.710  42.386  10.984
72090W        W44350  13.156  42.447   4.760
72091W        W44351  14.728  15.275   4.793
72092W        W44352  23.005  44.488  14.376
72093W        W44353   0.285  28.967  13.464
72094W        W44354  42.523  11.318   4.698
72095W        W44355  14.243  29.003   1.367
72096W        W44356  13.319  21.087   3.641
72097W        W44357  41.985   7.224  14.499
72098W        W44358  36.927  38.941  14.333
72099W        W44359  27.054   5.198   3.237
72100W        W44360   4.424  15.687  13.911
72101W        W44361  21.130  29.939  11.405
72102W        W44362  14.302   9.158   2.750
72103W        W44363   6.407  27.508   2.758
72104W        W44364  29.626  14.111   5.245
72105W        W44365   4.385  15.724  11.500
72106W        W44366  18.640   9.717  11.855
72107W        W44367  10.792  31.527  11.883
72108W        W44368  13.234  28.167   2.872
72109W        W44369  44.390  11.224   1.424
72110W        W44370  21.228  12.167  14.912
72111W        W44371  13.613  25.209  14.031
72112W        W44372  31.529  22.211   2.788
72113W        W44373  38.344  32.558   3.365
72114W        W44374  15.631  18.225   0.394
72115W        W44375  23.734  28.675  14.872
72116W        W44376   2.352  10.777  11.591
72117W        W44377  11.678  28.060   2.316
72118W        W44378  26.043  11.332   3.206
72119W        W44379  32.500  25.201   0.269
72120W        W44380  33.881  35.504   2.808
72121W        W44381  41.957  10.869   3.786
72122W        W44382  23.492   8.655   0.891
72123W        W44383  15.673  31.075  11.904
72124W        W44384  20.194  20.632  11.483
72125W        W44385   9.326  27.676  12.907
72126W        W44386  29.992  37.351  14.311
72127W        W44387  20.645  44.265  11.912
72128W        W44388  39.890  17.584   0.891
72129W        W44389   5.370   1.302  12.478
72130W        W44390   5.279  40.966  12.930
72131W        W44391   0.968  28.023  10.615
72132W        W44392  26.141  35.377  13.873
72133W        W44393  17.564  44.962   3.296
72134W        W44394  27.612   1.756  14.802
72135W        W44395  37.532  40.800   0.275
72136W        W44396  42.794   8.268  13.880
72137W        W44397   8.781  35.978   4.762
72138W        W44398  44.935  14.277  10.536
72139W        W44399  24.018  27.605   5.649
72140W        W44400  38.998  21.693   1.445
72141W        W44401  35.933  25.010  12.490
72142W        W44402  32.559  35.883   2.712
72143W        W44403  33.019  29.509  10.519
72144W        W44404  16.222   1.358   2.874
72145W        W44405  32.051  37.917  14.800
72146W        W44406  16.584  30.032   0.334
72147W        W44407   2.812  21.083   2.806
72148W        W44408  41.027  25.100  11.403
72149W        W44409  23.690  38.957   1.402
72150W        W44410  26.178  16.762   2.217
72151W        W44411   1.417   6.889   0.383
72152W        W44412  34.545  21.033  14.959
72153W        W44413  24.032  22.622   3.864
72154W        W44414  25.680  23.156  13.875
72155W        W44415  34.869  37.975  10.565
72156W        W44416  40.463   7.736   2.399
72157W        W44417  34.487  23.190   4.662
72158W        W44418   8.773  37.960  12.375
72159W        W44419  25.970  32.037   0.946
72160W        W44420   1.932  38.868  12.486
72161W        W44421  29.032  18.714  12.509
72162W        W44422  27.085  29.973  10.568
72163W        W44423  13.793   7.331   2.208
72164W        W44424  30.077  13.769  14.410
72165W        W44425  33.967  41.862   4.691
72166W        W44426  36.916   5.784   4.317
72167W        W44427  28.053   2.290   3.726
72168W        W44428  25.664  21.208  13.015
72169W        W44429  15.156  39.327  12.995
72170W        W44430  32.625   8.207   4.147
72171W        W44431   9.763  35.454   0.362
72172W        W44432   6.243   9.231   4.665
72173W        W44433   2.767  24.230  12.987
72174W        W44434  32.918   5.385  14.989
72175W        W44435   2.456   5.332   3.169
72176W        W44436  32.424  18.130   1.296
72177W        W44437   9.232  14.629   3.192
72178W        W44438   9.188  23.564  13.883
72179W        W44439   4.337  39.994  13.936
72180W        W44440  26.655  33.019  12.992
72181W        W44441  28.494  30.094   9.573
72182W        W44442  17.197  15.165  12.377
72183W        W44443  26.617   6.224   1.220
72184W        W44444   0.327  36.032  14.384
72185W        W44445  10.253  41.978  13.431
72186W        W44446  19.590   0.367   2.340
72187W        W44447  35.073   7.229   1.893
72188W        W44448  39.860   1.936  10.481
72189W        W44449  40.934  44.895  12.979
72190W        W44450  43.469  37.987   2.882
72191W        W44451  30.637  35.457   4.136
72192W        W44452  22.106  20.744  11.376
72193W        W44453  17.621  40.943   1.395
72194W        W44454  29.555   4.823  11.601
72195W        W44455  31.587  19.607  13.954
72196W        W44456  15.678  42.446   1.348
72197W        W44457  16.241  37.845  12.373
72198W        W44458  17.244   6.291   3.830
72199W        W44459  17.259  42.918  12.455
72200W        W44460  27.186   2.456  13.939
72201W        W44461  39.418  27.665  14.765
72202W        W44462  43.443  12.291   1.907
72203W        W44463  34.470  22.082  14.810
72204W        W44464  11.802   7.306  13.804
72205W        W44465   8.362  41.916  11.069
72206W        W44466  36.881  25.127  12.963
72207W        W44467  32.581   9.880   0.424
72208W        W44468  16.589  31.459   4.318
72209W        W44469  38.340  28.681  11.098
72210W        W44470  32.009  42.858   2.332
72211W        W44471  24.540  36.510  14.396
72212W        W44472   5.326   4.769  10.028
72213W        W44473  31.472  28.125   2.898
72214W        W44474  29.034  15.183  11.963
72215W        W44475   7.791  32.941  10.927
72216W        W44476  44.280  24.627  10.501
72217W        W44477  26.988   7.203  12.996
72218W        W44478  19.248  16.264  10.536
72219W        W44479  32.982  22.501  10.480
72220W        W44480  19.132  24.062  11.085
72221W        W44481  18.688  43.338   0.404
72222W        W44482  22.660  20.610   2.312
72223W        W44483  10.306   6.340   2.710
72224W        W44484  22.567  38.480   0.311
72225W        W44485  17.771  38.512  14.412
72226W        W44486  36.905  43.411  14.458
72227W        W44487  37.571  17.607   0.766
72228W        W44488  42.007  40.417   2.876
72229W        W44489  21.701   3.434  13.064
72230W        W44490  43.467   2.321  13.911
72231W        W44491  31.937   0.803  13.984
72232W        W44492  19.150  13.651   0.835
72233W        W44493   0.249  30.507   1.841
72234W        W44494  32.406  23.692   2.820
72235W        W44495  41.311  17.155   1.283
72236W        W44496  10.215  28.059   3.632
72237W        W44497   7.380  21.545  13.983
72238W        W44498  42.493  26.507  10.551
72239W        W44499  28.020  37.060  13.460
72240W        W44500  25.110   7.210  12.392
72241W        W44501   1.263   9.166  12.361
72242W        W44502  37.484   4.836  10.418
72243W        W44503   9.867  34.376   2.215
72244W        W44504  14.139  17.114  12.408
72245W        W44505  43.482  24.105  10.938
72246W        W44506  10.378   0.396   3.727
72247W        W44507  40.915  30.624  12.457
72248W        W44508   1.867  37.364   1.716
72249W        W44509  17.239  21.743   1.704
72250W        W44510   9.662  38.470  13.436
72251W        W44511  38.008   5.194  14.280
72252W        W44512  35.885  30.117   2.352
72253W        W44513  43.399  23.088  13.479
72254W        W44514  24.151  29.140   5.198
72255W        W44515   1.891  20.637   2.390
72256W        W44516  13.707  44.792   0.366
72257W        W44517  32.138  10.693  12.882
72258W        W44518   8.875   7.843   1.696
72259W        W44519  12.124  39.997  11.934
72260W        W44520  13.734  41.438  14.002
72261W        W44521   3.357  38.840  12.953
72262W        W44522  40.355   4.727  14.311
72263W        W44523  20.738  42.313  11.419
72264W        W44524  29.658  12.324  13.315
72265W        W44525  24.008  35.004  10.428
72266W        W44526  32.031  26.679   1.342
72267W        W44527  34.424  43.988   3.180
72268W        W44528  21.094  10.164   4.128
72269W        W44529  31.048  23.219  10.529
72270W        W44530  38.465  43.932   3.324
72271W        W44531   8.786  38.378   4.114
72272W        W44532  27.526  33.475   1.377
72273W        W44533  42.429  29.923   0.412
72274W        W44534  35.017  33.532  13.457
72275W        W44535   1.950  22.529   4.273
72276W        W44536   1.741  27.487  11.531
72277W        W44537  33.902  35.480   4.252
72278W        W44538  34.576  17.135   2.271
72279W        W44539   4.815  33.943   4.732
72280W        W44540  25.102  29.169  12.546
72281W        W44541  34.556  13.231   1.446
72282W        W44542   1.370  16.657  12.410
72283W        W44543  35.031  16.624  10.013
72284W        W44544  19.136  12.270   3.636
72285W        W44545  38.063  17.661   4.722
72286W        W44546  32.481  39.535  13.877
72287W        W44547   6.228  21.190  10.441
72288W        W44548  35.529  11.642  14.871
72289W        W44549  16.291  31.025   0.777
72290W        W44550  35.985  26.011  11.428
72291W        W44551   4.212   3.866   0.306
72292W        W44552  41.464  42.282  12.360
72293W        W44553  26.056  44.486  12.013
72294W        W44554   0.260  44.816  10.416
72295W        W44555  34.512  26.691   2.299
72296W        W44556  30.164   4.261   1.724
72297W        W44557  12.812  16.265  12.352
72298W        W44558  27.181  25.108   3.735
72299W        W44559  18.650  12.188   3.286
72300W        W44560  27.473  40.320   2.307
72301W        W44561  33.559  31.641  14.029
72302W        W44562  37.900  11.773  12.352
72303W        W44563  15.109  14.135   3.664
72304W        W44564  28.093  14.308   1.928
72305W        W44565   1.288  19.045   2.393
72306W        W44566  11.175  26.077   3.151
72307W        W44567   2.854  18.203   0.911
72308W        W44568   4.727  40.514  10.949
72309W        W44569  18.263  42.495  13.409
72310W        W44570   1.900   5.863   0.456
72311W        W44571  27.690  18.755   3.334
72312W        W44572  27.475   1.358   4.238
72313W        W44573  20.043  21.124  14.495
72314W        W44574   8.693  43.314   1.826
72315W        W44575  28.098  15.685  11.396
72316W        W44576  32.456   5.308   2.793
72317W        W44577   2.807  23.724  11.403
72318W        W44578  44.905  31.460  12.393
72319W        W44579   6.206   9.784  10.991
72320W        W44580  29.588  34.897  12.005
72321W        W44581  29.086   5.712   3.358
72322W        W44582  43.803  30.549  14.300
72323W        W44583  28.553  26.554   4.748
72324W        W44584   4.751  25.028   1.216
72325W        W44585  38.896  19.174   3.671
72326W        W44586   9.222  28.501  12.944
72327W        W44587  21.249  34.508  14.308
72328W        W44588   7.229   3.788   3.377
72329W        W44589  31.409  41.349  11.462
72330W        W44590   5.911  36.367   2.880
72331W        W44591   5.762  13.612   0.454
72332W        W44592  36.878  15.212   3.314
72333W        W44593  13.698  25.523   3.348
72334W        W44594  31.497  40.842  13.330
72335W        W44595  38.949  20.239   0.352
72336W        W44596  39.844   7.180   2.244
72337W        W44597  14.323  40.316  14.499
72338W        W44598  23.238  26.076   2.316
72339W        W44599  15.703   0.404  11.441
72340W        W44600  39.061  16.655   2.261
72341W        W44601  14.787  22.684  11.538
72342W        W44602  25.611  33.069  14.473
72343W        W44603  17.760  14.340  13.946
72344W        W44604  33.071  36.507   0.811
72345W        W44605   1.470   1.837   0.481
72346W        W44606  23.217  20.575  11.395
72347W        W44607  20.197   8.768  13.484
72348W        W44608  25.609   8.165   1.931
72349W        W44609  26.467  35.537  11.549
72350W        W44610  43.299  12.354   2.197
72351W        W44611  12.674  25.047   4.271
72352W        W44612   4.303  34.553  12.941
72353W        W44613  26.586   7.217  11.962
72354W        W44614  34.437  34.385   0.902
72355W        W44615  42.292  44.795   0.803
72356W        W44616  34.560  13.309   3.238
72357W        W44617  43.999   6.789  11.066
72358W        W44618  24.037  11.131  12.930
72359W        W44619  36.374  43.297  13.921
72360W        W44620  40.390  11.278   3.251
72361W        W44621  18.748  36.568  12.558
72362W        W44622  19.602   7.869  10.512
72363W        W44623  10.323  14.745   1.326
72364W        W44624  37.055  21.061  11.117
72365W        W44625   8.274  19.623  11.378
72366W        W44626  25.159  29.936   3.784
72367W        W44627  19.198  39.905   2.801
72368W        W44628  18.296  38.481   2.756
72369W        W44629  16.746   2.732  14.770
72370W        W44630   0.379  24.575   1.413
72371W        W44631  31.042  19.769  13.419
72372W        W44632  31.531  27.532   4.239
72373W        W44633  12.840  39.994  13.795
72374W        W44634  19.077  44.765   4.343
72375W        W44635  41.971  44.427  14.284
72376W        W44636  42.328  25.088   4.160
72377W        W44637  36.429  41.005  11.388
72378W        W44638  23.172   0.856   1.703
72379W        W44639  13.111  37.938   3.250
72380W        W44640   9.325  23.491  11.929
72381W        W44641  40.848  11.179   0.760
72382W        W44642   4.730  31.097  14.971
72383W        W44643  31.938  11.245  12.580
72384W        W44644  14.666   5.260   4.306
72385W        W44645   5.306  25.056   2.729
72386W        W44646   1.762  41.856   4.137
72387W        W44647  40.965   8.683  10.577
72388W        W44648  36.397  14.328   3.764
72389W        W44649  37.490  18.229   0.386
72390W        W44650  26.614  38.884   2.714
72391W        W44651  27.570   4.443  12.447
72392W        W44652   8.696  10.290   2.822
72393W        W44653  44.979  33.010  10.559
72394W        W44654   9.781  14.278   4.352
72395W        W44655   5.716  44.755   3.273
72396W        W44656   0.300   7.176   3.242
72397W        W44657  24.004  21.600  12.849
72398W        W44658  18.104  23.670  13.952
72399W        W44659  12.279  42.783  13.938
72400W        W44660   8.176   4.314   3.204
72401W        W44661  12.668  28.667  11.919
72402W        W44662  34.562  29.508   4.738
72403W        W44663  29.625   0.837   3.378
72404W        W44664  33.505  36.939   3.352
72405W        W44665  44.915  14.657  14.892
72406W        W44666  12.308  11.163  14.398
72407W        W44667  15.214   6.414  11.057
72408W        W44668  26.190  10.857  13.004
72409W        W44669  39.965   2.958  14.435
72410W        W44670  23.044  37.358  14.770
72411W        W44671  43.951  39.916  10.568
72412W        W44672  31.107  10.266  12.886
72413W        W44673  20.062   8.200   2.864
72414W        W44674  13.745   4.360  13.466
72415W        W44675  21.700   5.335   3.805
72416W        W44676   5.789  44.852  13.446
72417W        W44677   2.944  19.681   4.253
72418W        W44678  18.166  27.189   3.750
72419W        W44679  32.511   8.854  11.046
72420W        W44680  18.147  25.702  10.425
72421W        W44681   0.344  36.438   1.433
72422W        W44682   9.294  19.710   3.154
72423W        W44683   4.722  26.146  14.348
72424W        W44684   1.269  15.120   0.479
72425W        W44685  19.635  15.217   2.178
72426W        W44686  42.841  32.043   1.764
72427W        W44687  20.173  37.971  14.833
72428W        W44688  33.433  41.525   3.363
72429W        W44689  31.975   0.306  10.009
72430W        W44690  18.718   0.348  14.487
72431W        W44691  33.933  39.393   1.760
72432W        W44692  26.059  23.662   1.265
72433W        W44693  30.481  41.001  13.882
72434W        W44694   0.965  13.294  10.909
72435W        W44695  10.862  18.685   3.261
72436W        W44696  31.065  23.205   0.461
72437W        W44697  31.094  31.606  11.483
72438W        W44698  43.927  23.114  13.449
72439W        W44699  17.796  24.051  12.472
72440W        W44700  32.067   6.193   5.128
72441W        W44701  24.653  36.458  14.923
72442W        W44702  30.564   4.885   2.735
72443W        W44703   1.765  24.591   2.763
72444W        W44704  30.091  39.864  12.428
72445W        W44705  14.111   1.405  11.431
72446W        W44706   3.293   9.652   3.322
72447W        W44707  31.081  17.684   0.404
72448W        W44708  38.345  36.535   4.706
72449W        W44709  34.979   8.808   2.843
72450W        W44710  33.489  18.759  10.483
72451W        W44711   2.467  29.122  14.425
72452W        W44712  40.935  14.664   3.154
72453W        W44713   6.769   6.895   4.185
72454W        W44714  38.051  22.672  11.032
72455W        W44715  26.096  42.855   0.916
72456W        W44716  33.569  41.844  11.543
72457W        W44717  23.205  42.874  11.027
72458W        W44718  29.632  18.668  10.923
72459W        W44719  26.599  16.097  10.609
72460W        W44720   2.451  12.796   4.746
72461W        W44721   1.462  22.574  14.505
72462W        W44722  13.144  32.604  12.473
72463W        W44723  16.153  31.011  10.489
72464W        W44724  38.938  44.364   3.258
72465W        W44725  12.180  13.743   0.278
72466W        W44726  29.054   1.928   1.342
72467W        W44727   8.823  35.854  13.547
72468W        W44728   2.381  17.769  14.298
72469W        W44729  34.492  26.467  12.858
72470W        W44730  39.836   2.956   2.411
72471W        W44731  21.516  13.253   3.812
72472W        W44732  13.196  12.284   3.835
72473W        W44733  17.795  24.142  13.845
72474W        W44734  30.653  23.633   4.684
72475W        W44735  32.131  40.838  12.413
72476W        W44736   2.472   3.251   1.911
72477W        W44737   6.782   7.185   0.440
72478W        W44738   7.849   0.301   4.323
72479W        W44739  44.447  16.171   2.824
72480W        W44740  22.655  42.315  11.547
72481W        W44741  20.131  24.998  12.521
72482W        W44742   0.878  31.031  10.501
72483W        W44743   0.783   2.468   0.348
72484W        W44744  24.196   6.866  10.895
72485W        W44745  28.075  36.968   1.402
72486W        W44746  31.462   7.279  13.456
72487W        W44747  15.719  30.925  11.543
72488W        W44748   5.922  12.621  14.768
72489W        W44749  23.514  35.420  10.585
72490W        W44750   9.652  44.309  14.881
72491W        W44751   8.709  32.095   0.921
72492W        W44752   8.733  28.106   0.460
72493W        W44753   8.666   0.794   1.330
72494W        W44754   0.832  19.728  14.938
72495W        W44755  29.584  20.646  11.541
72496W        W44756  29.131  33.391  14.021
72497W        W44757  35.517  44.405   4.710
72498W        W44758  21.086  41.861   5.269
72499W        W44759  10.723  25.187   4.795
72500W        W44760   7.252  33.406   3.766
72501W        W44761   9.358  33.410  11.538
72502W        W44762  28.530   9.318  13.020
72503W        W44763  37.972  36.467  13.382
72504W        W44764   9.750  23.681   3.382
72505W        W44765  37.048   7.895  12.512
72506W        W44766   5.255  23.094   4.789
72507W        W44767  28.640  35.025  13.502
72508W        W44768  31.432  15.181   2.778
72509W        W44769  42.892   5.389  11.937
72510W        W44770  17.680  38.326   4.145
72511W        W44771  37.409  33.945   1.404
72512W        W44772  42.806  15.151   1.225
72513W        W44773  12.773  18.666  12.474
72514W        W44774  44.005  23.105  14.364
72515W        W44775  10.338  13.299  14.875
72516W        W44776  24.650   8.176  11.433
72517W        W44777  42.451  24.564   4.154
72518W        W44778  39.001   5.353  14.826
72519W        W44779  10.317  22.675   2.885
72520W        W44780  27.111  40.870   5.119
72521W        W44781  30.518  11.836  11.993
72522W        W44782   8.835  29.558   1.907
72523W        W44783   6.206  24.229   5.283
72524W        W44784  44.836   8.770  10.946
72525W        W44785  37.471  34.411  12.925
72526W        W44786  28.000  23.517   3.170
72527W        W44787  11.746  19.776   2.351
72528W        W44788  22.117  39.435   2.306
72529W        W44789  35.482  34.594   1.321
72530W        W44790  42.995  11.221   2.876
72531W        W44791   7.724   5.855  10.411
72532W        W44792  22.542  35.471  11.432
72533W        W44793  23.103  41.812  14.018
72534W        W44794   1.285  42.916   0.286
72535W        W44795  27.676  25.981   3.184
72536W        W44796   5.385  12.678  14.471
72537W        W44797  30.530   9.723   0.355
72538W        W44798  21.069   1.326   0.300
72539W        W44799  28.606  14.605   4.212
72540W        W44800   0.324  10.683  12.048
72541W        W44801  10.760  26.172   3.683
72542W        W44802   2.966   8.786  14.328
72543W        W44803  20.070  16.181  13.940
72544W        W44804  34.076   6.718  12.828
72545W        W44805  14.828  32.905  12.342
72546W        W44806  18.270  15.156   3.225
72547W        W44807  26.074  39.870   2.268
72548W        W44808  27.105  24.656   4.334
72549W        W44809  37.385  35.570  10.593
72550W        W44810   4.699  42.807  14.500
72551W        W44811  39.404   7.818   5.123
72552W        W44812  29.945  18.268  11.413
72553W        W44813   2.465  44.974   3.354
72554W        W44814  39.538  28.931  12.390
72555W        W44815  31.497   6.857   0.327
72556W        W44816  44.456   7.358  10.056
72557W        W44817  43.468  36.577  10.593
72558W        W44818  37.416  42.932   1.744
72559W        W44819   8.357  41.988  14.392
72560W        W44820  13.680   4.792  10.532
72561W        W44821   2.732   7.320  13.842
72562W        W44822  32.058   4.829  14.372
72563W        W44823  24.502  12.643   4.766
72564W        W44824  43.872   8.898  13.350
72565W        W44825  26.588   6.865  12.525
72566W        W44826  38.474  22.077  10.621
72567W        W44827  31.140  14.126  11.055
72568W        W44828  39.321  15.289  12.055
72569W        W44829  24.504  44.418  13.061
72570W        W44830   9.778  21.688   3.345
72571W        W44831  23.514  18.072   0.381
72572W        W44832   7.895  21.160  13.048
72573W        W44833  31.412   4.209   0.731
72574W        W44834   7.781  20.122  12.933
72575W        W44835   4.923  37.856  13.501
72576W        W44836  18.239  35.384  10.616
72577W        W44837  41.889  38.977  12.442
72578W        W44838  20.228  28.146  11.099
72579W        W44839  14.646  25.585   3.715
72580W        W44840  15.157   2.411  11.922
72581W        W44841  35.094  35.017   2.320
72582W        W44842   8.683  35.477   0.881
72583W        W44843  23.505   6.804   1.429
72584W        W44844   7.182   3.744   4.183
72585W        W44845   0.435  41.393   2.396
72586W        W44846  24.676  43.984   0.912
72587W        W44847  35.465  43.416  13.388
72588W        W44848  19.169  37.479   2.819
72589W        W44849  43.891  26.142   0.801
72590W        W44850  44.442  16.261  13.964
72591W        W44851  24.586  16.304  14.972
72592W        W44852   4.858  12.222   2.752
72593W        W44853   8.297  23.175  12.465
72594W        W44854   3.926   3.458   2.712
72595W        W44855  32.559  40.958   4.793
72596W        W44856  39.058  23.599  12.835
72597W        W44857  10.266  30.965  14.988
72598W        W44858  35.374   7.895   2.895
72599W        W44859  11.867  20.545  10.986
72600W        W44860  40.523  23.078  10.612
72601W        W44861  14.751  13.836  13.987
72602W        W44862  13.660   4.927  14.979
72603W        W44863  34.944  36.386  10.588
72604W        W44864  43.893   6.297   3.771
72605W        W44865  27.590  33.466   1.919
72606W        W44866   0.983  17.067  11.413
72607W        W44867   1.732  11.235   3.706
72608W        W44868  30.114  32.916  13.337
72609W        W44869   1.260  27.016   0.855
72610W        W44870   5.738  16.266  12.989
72611W        W44871  16.658  35.001  10.586
72612W        W44872  25.203  31.615  10.642
72613W        W44873  44.267  28.047  14.305
72614W        W44874  44.931  28.512   4.776
72615W        W44875   8.392  44.284  14.418
72616W        W44876  43.011  44.451  14.410
72617W        W44877   6.266  16.290  11.895
72618W        W44878   5.425  29.144  12.070
72619W        W44879  42.864  22.523   5.226
72620W        W44880  39.819  11.776   2.669
72621W        W44881  27.188  21.039   0.739
72622W        W44882  41.956  20.558  10.447
72623W        W44883   8.760  21.537   2.384
72624W        W44884  41.932   5.237  13.335
72625W        W44885   1.923  30.429   3.659
72626W        W44886  10.761  39.985   1.935
72627W        W44887  10.744  44.837   3.857
72628W        W44888  39.532  34.052  12.983
72629W        W44889  26.575  26.688   2.755
72630W        W44890   8.353  43.490   1.816
72631W        W44891  40.880   7.186   2.415
72632W        W44892  21.535  41.995   1.756
72633W        W44893  13.808   3.260   1.740
72634W        W44894   2.857  16.590   1.815
72635W        W44895   6.817  43.296  12.552
72636W        W44896  18.584  38.824   4.725
72637W        W44897  31.524  15.744  14.814
72638W        W44898  42.968  17.146   0.770
72639W        W44899  18.602  17.579  11.557
72640W        W44900  27.047  42.831   3.352
72641W        W44901   6.739  37.921   3.721
72642W        W44902  15.806  17.597  10.056
72643W        W44903  16.308   4.305   2.841
72644W        W44904   8.841  28.479  10.565
72645W        W44905   5.199  18.773   2.667
72646W        W44906   6.227  14.730  11.068
72647W        W44907  31.503  21.636  13.885
72648W        W44908   3.381  20.544  14.277
72649W        W44909   9.328  29.029   0.877
72650W        W44910  16.115  31.551   0.376
72651W        W44911  41.831   2.452   3.865
72652W        W44912  15.761  17.608  14.874
72653W        W44913  41.909  34.033  11.897
72654W        W44914   1.270  28.462  12.400
72655W        W44915  29.073  36.590  13.041
72656W        W44916  11.199  37.081   4.124
72657W        W44917   6.233  20.648   0.330
72658W        W44918   7.242  36.535  11.064
72659W        W44919  10.304  11.741   0.960
72660W        W44920  35.852  37.047   0.401
72661W        W44921   1.323   0.398  13.387
72662W        W44922  20.079   5.349   4.320
72663W        W44923  16.250  24.608  11.388
72664W        W44924  34.576  27.122  12.477
72665W        W44925  30.618  15.146  12.876
72666W        W44926   9.184   4.764   3.368
72667W        W44927  10.297  20.592   3.216
72668W        W44928  22.246  32.605   4.285
72669W        W44929  26.511  28.500  12.056
72670W        W44930  38.997  20.138  11.917
72671W        W44931  27.674  28.069   1.898
72672W        W44932  28.444  10.166   1.734
72673W        W44933  23.566  15.760   5.194
72674W        W44934  26.189  22.060  10.546
72675W        W44935  14.307   5.342  10.968
72676W        W44936  38.072  40.433   4.820
72677W        W44937  23.624  23.639  13.037
72678W        W44938  24.658  22.524  13.873
72679W        W44939  33.589   6.827   2.223
72680W        W44940  27.952  22.244  12.062
72681W        W44941  14.693  29.169  10.985
72682W        W44942   7.350  18.698   4.137
72683W        W44943  12.718  20.231   2.684
72684W        W44944  35.984   0.282   0.789
72685W        W44945  40.817  35.420   4.340
72686W        W44946  25.205   1.910   2.189
72687W        W44947   6.801  31.140   3.302
72688W        W44948  28.680   3.311  14.499
72689W        W44949  31.560  32.407   1.381
72690W        W44950  21.258  36.943  14.826
72691W        W44951  42.470   3.447  14.794
72692W        W44952  19.172  41.916  13.921
72693W        W44953  36.366  14.741   0.750
72694W        W44954  14.676  42.470   2.751
72695W        W44955  43.931  33.021  14.403
72696W        W44956  39.352  41.961  14.342
72697W        W44957  11.719  30.027   2.337
72698W        W44958  28.005   2.826  12.056
72699W        W44959  13.750   0.463  10.627
72700W        W44960  43.281  24.707   2.734
72701W        W44961   5.266  15.260  14.802
72702W        W44962  30.500   7.261  11.588
72703W        W44963  31.644   6.208   2.816
72704W        W44964  29.969  28.048  13.002
72705W        W44965  41.866  33.007  13.915
72706W        W44966  33.071  26.504   1.926
72707W        W44967  44.385  23.682  10.421
72708W        W44968  39.506  19.655   4.830
72709W        W44969  23.126  27.534  14.513
72710W        W44970   8.676  36.531   4.216
72711W        W44971  18.085  39.344  13.523
72712W        W44972  28.088  32.013  10.077
72713W        W44973   9.753  34.542   0.261
72714W        W44974  25.103  40.942   5.252
72715W        W44975   4.414  39.474  14.366
72716W        W44976  18.744   4.345  10.424
72717W        W44977  11.699  33.919  14.937
72718W        W44978  14.682  42.391  12.489
72719W        W44979   2.286  40.306   3.750
72720W        W44980   2.256   4.699  11.465
72721W        W44981  12.177  10.839  14.866
72722W        W44982  33.556  12.353   0.882
72723W        W44983  16.163  36.506   4.245
72724W        W44984  34.965  22.554  10.522
72725W        W44985  16.177   1.803  11.909
72726W        W44986  38.352  35.579  12.468
72727W        W44987  12.262  26.516   4.237
72728W        W44988  31.994  20.537   1.927
72729W        W44989  12.754   9.687  13.025
72730W        W44990  35.926  22.073   4.296
72731W        W44991   3.793  28.165  14.971
72732W        W44992  16.749  40.354   3.302
72733W        W44993  20.256  29.929  13.014
72734W        W44994  44.986   1.456  13.809
72735W        W44995  37.952  23.528  12.422
72736W        W44996  44.283   2.930  11.553
72737W        W44997  17.684  29.149  13.539
72738W        W44998  23.177  27.546   1.359
72739W        W44999  39.420  39.953  11.093
72740W        W45000  10.767  30.087  11.505
72741W        W45001  39.828  10.663   0.765
72742W        W45002  36.539  31.403   3.758
72743W        W45003  41.309  42.500   2.209
72744W        W45004  36.559  28.631  13.824
72745W        W45005  44.309  29.932  13.804
72746W        W45006  20.609  16.621  13.460
72747W        W45007  13.716  30.010   4.689
72748W        W45008   4.747  20.686  10.140
72749W        W45009  42.435   9.362  12.496
72750W        W45010  28.991   1.251   0.247
72751W        W45011  41.880   7.182  12.927
72752W        W45012  12.619   0.338  13.007
72753W        W45013  16.745  43.901   1.276
72754W        W45014   2.261  39.066   1.443
72755W        W45015   0.867  42.864  13.952
72756W        W45016   7.300  19.048  14.497
72757W        W45017   6.742  24.059  11.914
72758W        W45018  39.972  33.491  13.890
72759W        W45019  18.091  27.177   0.253
72760W        W45020  30.014  30.552   3.703
72761W        W45021  29.082  32.133   2.273
72762W        W45022  14.796   8.714  14.788
72763W        W45023  41.527  39.443  11.509
72764W        W45024   1.763   3.777  14.391
72765W        W45025  29.028  43.793   1.702
72766W        W45026   2.434  38.981   5.082
72767W        W45027  42.891  35.913  12.979
72768W        W45028   1.762   5.760  13.942
72769W        W45029   5.307  10.364  11.085
72770W        W45030   5.811  18.215  12.383
72771W        W45031  14.796  24.587   3.681
72772W        W45032  19.135  42.419   1.711
72773W        W45033  31.957  21.214  11.067
72774W        W45034  26.201  32.407  13.545
72775W        W45035  22.725  20.241  13.994
72776W        W45036  12.222  16.614  11.983
72777W        W45037  41.452  26.577  12.399
72778W        W45038   1.733  37.047   2.665
72779W        W45039  44.335  20.115  10.575
72780W        W45040   6.711  24.628   1.425
72781W        W45041  10.186  29.106   3.249
72782W        W45042  29.451  24.692  12.382
72783W        W45043  36.376  23.626  14.412
72784W        W45044   0.375  28.953  12.554
72785W        W45045  15.116  32.893   4.179
72786W        W45046  38.883  15.126   3.662
72787W        W45047  14.803  30.921  10.008
72788W        W45048  39.842  11.856   4.827
72789W        W45049  13.179  15.287  12.882
72790W        W45050  30.965  18.584  12.063
72791W        W45051  22.615   4.902  11.889
72792W        W45052   9.387  37.893   4.659
72793W        W45053  38.330   9.174   0.279
72794W        W45054  43.356  44.435   4.622
72795W        W45055  35.586  32.437   4.270
72796W        W45056  26.521  14.142  10.905
72797W        W45057  43.353   8.803  13.404
72798W        W45058  15.804   0.347  14.826
72799W        W45059  11.768  36.066   1.746
72800W        W45060  18.202  29.014  12.850
72801W        W45061   0.417  41.505   2.731
72802W        W45062  14.133  16.193  11.117
72803W        W45063  12.320  26.082  13.533
72804W        W45064   0.354  27.157  12.436
72805W        W45065  34.489   3.868   0.837
72806W        W45066  26.567  31.910  11.556
72807W        W45067   9.208  21.568  11.517
72808W        W45068  26.108  33.928  12.832
72809W        W45069   4.303  11.270   2.187
72810W        W45070  14.220  25.559  14.817
72811W        W45071  18.202   7.193  12.409
72812W        W45072  24.108  22.506   0.469
72813W        W45073  24.722  31.053  12.562
72814W        W45074  43.357  15.788   3.287
72815W        W45075  37.023  43.328  10.514
72816W        W45076  13.346  32.014  12.024
72817W        W45077  41.814  39.835   1.709
72818W        W45078  35.996  44.280   3.224
72819W        W45079  25.216  29.930  11.088
72820W        W45080  19.086  22.064  11.544
72821W        W45081   2.308  15.720   3.324
72822W        W45082  40.927  38.337  13.476
72823W        W45083   7.401  28.030  11.067
72824W        W45084  26.096  35.937  14.305
72825W        W45085  34.941   6.371   2.878
72826W        W45086  44.779   7.820   3.650
72827W        W45087  38.975  29.462   3.670
72828W        W45088  34.922  40.420  12.419
72829W        W45089  10.678  36.579   4.185
72830W        W45090  39.350   7.362   2.795
72831W        W45091  23.136   2.862   0.281
72832W        W45092  18.175  24.541   0.479
72833W        W45093  43.339   4.842  11.948
72834W        W45094  34.072  23.032  14.769
72835W        W45095  20.554  18.254   1.319
72836W        W45096  28.171  42.296  13.791
72837W        W45097  35.445  40.799  13.547
72838W        W45098   0.335  20.226  11.031
72839W        W45099  39.829  31.943  13.321
72840W        W45100   8.200  29.605  10.608
72841W        W45101  36.511  33.103  10.487
72842W        W45102  23.097  34.442   1.211
72843W        W45103  44.822  12.780   4.156
72844W        W45104  37.532  22.734   1.816
72845W        W45105  39.356  20.692   4.207
72846W        W45106  32.051  11.778  13.856
72847W        W45107  10.242  12.200  10.536
72848W        W45108  21.046  26.489   3.159
72849W        W45109  23.643   3.253   4.599
72850W        W45110  38.442  42.907   3.867
72851W        W45111  20.166   7.323   4.293
72852W        W45112  12.728  21.733   0.817
72853W        W45113  13.296   3.453   1.428
72854W        W45114  32.888  30.566   0.344
72855W        W45115   5.914  29.451   4.793
72856W        W45116  22.727  14.231   4.656
72857W        W45117  15.678   2.872  14.851
72858W        W45118  23.212   4.260  14.770
72859W        W45119  20.159  37.932   3.210
72860W        W45120   6.245  36.513  14.954
72861W        W45121  14.199  15.658   4.229
72862W        W45122  14.301  43.405  12.923
72863W        W45123  21.580  35.395   2.790
72864W        W45124  25.022  21.639  14.358
72865W        W45125  37.473  43.435  10.580
72866W        W45126  43.790   6.205  10.910
72867W        W45127  33.024  23.614  14.030
72868W        W45128  43.484  11.180  13.384
72869W        W45129  43.354  11.835   4.271
72870W        W45130   3.878  40.006  14.335
72871W        W45131  15.635  44.468  12.396
72872W        W45132  24.123  33.468   3.257
72873W        W45133  16.074  38.383   3.360
72874W        W45134   0.317  40.982  11.048
72875W        W45135   4.402   9.747  12.415
72876W        W45136  21.519  29.555   1.872
72877W        W45137  30.639  31.503  10.968
72878W        W45138  18.591  11.266  13.543
72879W        W45139  41.979  21.595  13.920
72880W        W45140  34.430  15.092   0.408
72881W        W45141  14.202   4.777   1.916
72882W        W45142  19.145  28.124  12.366
72883W        W45143   3.341   0.932  11.886
72884W        W45144  22.678  23.543  13.409
72885W        W45145  36.976  17.149  13.966
72886W        W45146   1.963  30.506   2.351
72887W        W45147  21.733  26.697   2.737
72888W        W45148  34.052  43.809   1.779
72889W        W45149  31.587  27.590  12.046
72890W        W45150  43.019  20.702  13.433
72891W        W45151  32.961  18.580  12.006
72892W        W45152   4.699  41.520  13.909
72893W        W45153  19.167  23.613   4.837
72894W        W45154  13.694  23.180  12.034
72895W        W45155  21.563  21.526   5.634
72896W        W45156  35.406  20.715  13.052
72897W        W45157  22.244  12.355  14.765
72898W        W45158   3.395  26.204  14.396
72899W        W45159  37.528   6.839   1.437
72900W        W45160   7.335  14.284   2.850
72901W        W45161  28.034  34.949  12.830
72902W        W45162  21.182  22.018   0.360
72903W        W45163  40.974  35.021   2.773
72904W        W45164  15.758  25.038   1.221
72905W        W45165  27.115  11.291   1.774
72906W        W45166  32.962  43.454  14.374
72907W        W45167  23.536  37.433  13.845
72908W        W45168   2.355   4.855  14.923
72909W        W45169  43.387  39.391  11.610
72910W        W45170  36.492  42.298  11.533
72911W        W45171  10.647  30.967   3.346
72912W        W45172  26.019  25.119   3.730
72913W        W45173   1.260   3.916  11.988
72914W        W45174  21.226  43.841   4.136
72915W        W45175  24.998  27.475   2.741
72916W        W45176  17.669  24.990  11.108
72917W        W45177  18.700  19.195  13.546
72918W        W45178  42.966   1.834   2.179
72919W        W45179   0.785  18.618   1.422
72920W        W45180  32.023  30.912   2.393
72921W        W45181   3.292   7.839   1.431
72922W        W45182  17.222  16.676  11.545
72923W        W45183  30.485  28.148   2.829
72924W        W45184   7.206  25.524   4.171
72925W        W45185  40.499  15.273   0.460
72926W        W45186  39.388   7.279   1.397
72927W        W45187  44.779  11.227  14.937
72928W        W45188  36.921   5.911   3.672
72929W        W45189  32.951  44.488   4.701
72930W        W45190  38.912  17.125  11.003
72931W        W45191  37.049   2.449   4.606
72932W        W45192   3.935   5.415   1.289
72933W        W45193   3.452   6.808  14.901
72934W        W45194  24.521  37.885   1.822
72935W        W45195  17.698  41.415   3.780
72936W        W45196  30.127  38.898  12.493
72937W        W45197   5.280  38.908   1.828
72938W        W45198  39.854   1.358   4.122
72939W        W45199   5.885  41.464   1.896
72940W        W45200  28.554  26.101   3.665
72941W        W45201  41.534  20.543   0.287
72942W        W45202   2.818  36.382  11.905
72943W        W45203  37.558  34.091  11.085
72944W        W45204  21.251  14.340  12.826
72945W        W45205  17.670   6.328   1.410
72946W        W45206  13.686  43.290   0.741
72947W        W45207  24.654  41.995   5.798
72948W        W45208  44.958  42.012  13.421
72949W        W45209  43.494  24.669   3.314
72950W        W45210  34.542  15.751   3.758
72951W        W45211  10.754  20.223  11.973
72952W        W45212  17.662  42.033   1.227
72953W        W45213  30.958  19.590  12.984
72954W        W45214  36.459  18.267   4.306
72955W        W45215  41.907  24.478   1.280
72956W        W45216  28.157   7.667   0.245
72957W        W45217  42.780  34.401   3.194
72958W        W45218  18.191  19.267   0.757
72959W        W45219  16.075  16.080  11.122
72960W        W45220  21.217  33.110  12.507
72961W        W45221   6.398  41.807  13.029
72962W        W45222  39.866  17.612   1.371
72963W        W45223  28.520  25.616  10.482
72964W        W45224  22.192   9.341   0.744
72965W        W45225  26.500  37.987   1.729
72966W        W45226  20.528  36.913   4.338
72967W        W45227  28.506   7.294   1.270
72968W        W45228  33.534  12.645   0.918
72969W        W45229  12.229   6.409   2.408
72970W        W45230  11.711  22.236  14.309
72971W        W45231  34.481  15.092  13.030
72972W        W45232  22.682  31.973   0.804
72973W        W45233  30.159   5.279  10.504
72974W        W45234  31.101   5.886   4.220
72975W        W45235   4.321   8.828  14.482
72976W        W45236  17.268  13.813  14.474
72977W        W45237  31.077  35.392   0.267
72978W        W45238  36.085   2.294   3.636
72979W        W45239  19.085  20.172   2.397
72980W        W45240  16.634  11.707  10.458
72981W        W45241  35.927  19.078  13.345
72982W        W45242  31.992  17.169   2.370
72983W        W45243  23.051  43.988   1.375
72984W        W45244   8.665  26.462  12.012
72985W        W45245   7.307   4.408   3.774
72986W        W45246   5.872  44.968  12.963
72987W        W45247  21.670  33.413  14.876
72988W        W45248   1.442  13.278  12.479
72989W        W45249  30.510  35.376   3.788
72990W        W45250   9.693  12.684  11.105
72991W        W45251  19.200  11.636   4.818
72992W        W45252  38.923  42.988  13.463
72993W        W45253  42.422   1.326   3.867
72994W        W45254  29.566  26.128   1.867
72995W        W45255  10.799  39.537   0.253
72996W        W45256  20.564   7.275   4.266
72997W        W45257  31.118  37.400   0.782
72998W        W45258  38.006  24.574   0.395
72999W        W45259   4.760  16.622  14.018
73000W        W45260   6.896   0.964   2.384
73001W        W45261   0.293  38.054  12.375
73002W        W45262  34.919  44.807   4.262
73003W        W45263  38.994  44.414  11.008
73004W        W45264   3.829   8.870  10.485
73005W        W45265  10.344   9.222   4.265
73006W        W45266   6.695  26.134   1.904
73007W        W45267  32.033  26.972   4.681
73008W        W45268  19.224  20.165   3.630
73009W        W45269  41.978  28.474  14.936
73010W        W45270  20.541   4.258   4.699
73011W        W45271  15.221  17.205   3.320
73012W        W45272   5.294  30.471  10.935
73013W        W45273  31.648  16.569  13.331
73014W        W45274   4.923  41.407  14.840
73015W        W45275  15.792  42.981   0.934
73016W        W45276  10.647  28.443  10.935
73017W        W45277  37.472  44.444  13.841
73018W        W45278   3.746   9.644   1.818
73019W        W45279  17.075  17.166  12.895
73020W        W45280   9.713  43.319   3.840
73021W        W45281   2.894  30.150   0.806
73022W        W45282   8.259   8.683   4.298
73023W        W45283  16.230  41.804   0.479
73024W        W45284  30.014   2.750   3.826
73025W        W45285   1.838   3.277  10.435
73026W        W45286  20.203  20.603   5.630
73027W        W45287   8.382  17.593  12.860
73028W        W45288  28.159  43.830   0.421
73029W        W45289   8.370  41.522   3.869
73030W        W45290  41.416  10.296  12.999
73031W        W45291  21.095  19.714   2.225
73032W        W45292  14.188  33.595   5.267
73033W        W45293  35.577  42.369   1.844
73034W        W45294   4.900  28.016   1.295
73035W        W45295  10.169  13.626  11.431
73036W        W45296  11.132   0.410   0.261
73037W        W45297  37.893  11.638  11.060
73038W        W45298  41.498  41.836  10.553
73039W        W45299  33.411  15.118  14.790
73040W        W45300  43.893  34.397   0.823
73041W        W45301  25.537  30.442   1.772
73042W        W45302  16.157  36.479  11.390
73043W        W45303  41.958  14.174   3.786
73044W        W45304   8.217  10.322  14.361
73045W        W45305  41.991  28.621  14.494
73046W        W45306  31.537  29.158   1.309
73047W        W45307  44.271  24.042  11.407
73048W        W45308   9.655  23.062  10.912
73049W        W45309   3.344  41.830  13.413
73050W        W45310  38.040  38.429   2.314
73051W        W45311   2.467   8.731   4.152
73052W        W45312  14.338  30.653   0.302
73053W        W45313   1.401  14.223   0.841
73054W        W45314  42.851  29.035   2.706
73055W        W45315  13.109  17.131   3.328
73056W        W45316   0.808  26.487  13.913
73057W        W45317  27.674   8.801   2.318
73058W        W45318  43.346   9.652   4.827
73059W        W45319  28.589  18.662   3.665
73060W        W45320  15.295  20.159   4.197
73061W        W45321  34.482   6.365  14.433
73062W        W45322  20.557  15.606  11.943
73063W        W45323  17.630  14.673   0.800
73064W        W45324  23.096  12.279   1.770
73065W        W45325  38.398  23.557   1.850
73066W        W45326  38.027  44.798   3.786
73067W        W45327  13.717  17.134  13.020
73068W        W45328   3.318  41.900   0.464
73069W        W45329  43.808  31.113  11.609
73070W        W45330   5.707  40.821  13.412
73071W        W45331  30.073  16.187   3.229
73072W        W45332  17.592  17.693  13.541
73073W        W45333  39.470  30.602  11.526
73074W        W45334  42.409  15.657   4.787
73075W        W45335   2.798  42.796   4.698
73076W        W45336  36.473  26.207   1.717
73077W        W45337  31.414  20.623   0.316
73078W        W45338  29.513   2.231  11.940
73079W        W45339  40.922  32.500  11.408
73080W        W45340   9.168   4.891  10.961
73081W        W45341  37.360   3.246  10.123
73082W        W45342  24.479  21.643  13.408
73083W        W45343  27.481  29.525   3.352
73084W        W45344  17.128  36.563  11.382
73085W        W45345  37.403  10.815   1.415
73086W        W45346  16.235  18.106  10.618
73087W        W45347  34.588  20.709   5.608
73088W        W45348  20.167  17.689  13.473
73089W        W45349  17.219  30.477   4.833
73090W        W45350  27.161  33.539  12.826
73091W        W45351  42.884  38.866  13.532
73092W        W45352   2.950  29.424  11.419
73093W        W45353   9.643  23.701  14.402
73094W        W45354  39.929  25.492   2.373
73095W        W45355  20.125  28.060   2.398
73096W        W45356  33.005  19.224   1.826
73097W        W45357  33.504   8.725  14.498
73098W        W45358  14.142  42.485  12.365
73099W        W45359  33.090  24.566  14.868
73100W        W45360  39.488  26.543   4.757
73101W        W45361  37.995   7.789  12.908
73102W        W45362  44.810   2.854  12.917
73103W        W45363  35.558  13.649   0.802
73104W        W45364  15.695   0.847   0.758
73105W        W45365  39.486  13.324  13.793
73106W        W45366  33.598  26.594  11.464
73107W        W45367  34.492  30.018  13.799
73108W        W45368   4.444  34.048   3.270
73109W        W45369  18.086  43.852  12.386
73110W        W45370  39.417   0.350   2.264
73111W        W45371  44.313  17.218   3.365
73112W        W45372  20.062  32.004  13.940
73113W        W45373  35.469  40.039  14.280
73114W        W45374  13.600   8.804  10.515
73115W        W45375  17.193   6.380  11.584
73116W        W45376  36.879  35.539   2.355
73117W        W45377  28.571  37.018  11.519
73118W        W45378  13.756  33.587   2.812
73119W        W45379  42.483  39.530  14.846
73120W        W45380  37.578  32.594   2.319
73121W        W45381  16.662  11.202  10.476
73122W        W45382  14.707  19.761   0.868
73123W        W45383  29.958  27.480  14.006
73124W        W45384  26.997  38.822   0.374
73125W        W45385  12.628  28.671  10.607
73126W        W45386   2.885   9.874   1.724
73127W        W45387   7.308  39.914  13.804
73128W        W45388   0.768  19.738   2.719
73129W        W45389  22.024  19.779  12.902
73130W        W45390  17.678  26.456   3.645
73131W        W45391  15.779   6.684  12.498
73132W        W45392  32.491  35.889  11.522
73133W        W45393   6.763  40.046   1.367
73134W        W45394  10.352  40.496  10.563
73135W        W45395  26.067  16.078  11.476
73136W        W45396  33.040  32.074   2.700
73137W        W45397  34.914  14.277  13.470
73138W        W45398  22.177   3.887  11.960
73139W        W45399  17.581  19.053   1.785
73140W        W45400  25.005  39.937   0.413
73141W        W45401  34.035   1.246  12.965
73142W        W45402  36.017  14.700  13.954
73143W        W45403  31.560  32.395   1.810
73144W        W45404  22.587  14.657   1.250
73145W        W45405  37.903   2.760  13.926
73146W        W45406  12.149  12.143   3.778
73147W        W45407  15.629   8.206   0.305
73148W        W45408  16.097  22.698   4.160
73149W        W45409  30.130  38.380   4.806
73150W        W45410  31.030  40.450  11.583
73151W        W45411  31.454   5.194   1.399
73152W        W45412  15.140  28.564   2.733
73153W        W45413   5.217  35.597   0.966
73154W        W45414  30.999  43.510   1.424
73155W        W45415  33.089  38.464  11.046
73156W        W45416   4.220   9.294   0.849
73157W        W45417  38.556  28.448   0.914
73158W        W45418  12.823  10.359   4.780
73159W        W45419  26.661   3.859  11.036
73160W        W45420  14.787  41.465  10.460
73161W        W45421  25.997  30.419   0.360
73162W        W45422  39.556  25.188  11.536
73163W        W45423  31.133  41.346   1.734
73164W        W45424  24.144  34.007   0.803
73165W        W45425  28.178  44.303  10.464
73166W        W45426   5.738  14.293   1.305
73167W        W45427  40.932  30.504   1.290
73168W        W45428  32.072  36.560   0.761
73169W        W45429  23.205  17.716   3.173
73170W        W45430  43.313  43.275   4.229
73171W        W45431  29.424   7.786  13.905
73172W        W45432   0.300  11.685  13.373
73173W        W45433   2.370  11.140   0.938
73174W        W45434  12.656  24.091  12.028
73175W        W45435  30.631   3.452   4.651
73176W        W45436   5.201  44.891  13.819
73177W        W45437   4.747  38.374   2.207
73178W        W45438   6.187  21.219  14.902
73179W        W45439  36.521  21.215   3.682
73180W        W45440  27.006  39.362  12.524
73181W        W45441  15.768   9.228   0.883
73182W        W45442  27.067  31.079   0.875
73183W        W45443  25.132  29.552   1.856
73184W        W45444  38.398  27.086  12.374
73185W        W45445   9.196  26.498   3.174
73186W        W45446   8.707  30.578   1.409
73187W        W45447   8.682  44.904  12.401
73188W        W45448   2.826   2.458   0.415
73189W        W45449  15.201  12.775   4.678
73190W        W45450  10.346  23.610   4.788
73191W        W45451  44.360  10.818   0.333
73192W        W45452  39.393  23.181   1.262
73193W        W45453  41.860  37.487  10.151
73194W        W45454  40.315  11.136  14.856
73195W        W45455  44.856  38.965   0.291
73196W        W45456  10.756  28.559  13.990
73197W        W45457  27.093  16.613   4.740
73198W        W45458   2.773  25.021  12.497
73199W        W45459  22.606  44.305  14.436
73200W        W45460  31.037  30.152   4.252
73201W        W45461  29.035  30.587  11.529
73202W        W45462   2.230   2.277  11.426
73203W        W45463  10.748  35.574   4.144
73204W        W45464  26.027   1.939   2.881
73205W        W45465   2.388  23.201  11.429
73206W        W45466   0.342  15.653   1.911
73207W        W45467   1.341  20.192  12.085
73208W        W45468  14.740  33.977   2.322
73209W        W45469   3.254   4.804   3.643
73210W        W45470   3.715  12.735  11.379
73211W        W45471   0.258  39.015   3.171
73212W        W45472   6.391  35.876  11.550
73213W        W45473  33.001  31.016  10.919
73214W        W45474   4.839  32.613  14.845
73215W        W45475   9.168  24.723   2.367
73216W        W45476  12.813  14.834  11.501
73217W        W45477  32.495   0.415  12.378
73218W        W45478  35.005  37.963  12.866
73219W        W45479  43.956  18.575   1.797
73220W        W45480  28.001  44.764   2.240
73221W        W45481  34.875  18.748  12.527
73222W        W45482   7.862  43.817  12.997
73223W        W45483  23.145   3.350   1.424
73224W        W45484   5.319   4.879  13.839
73225W        W45485  16.233  27.017  11.521
73226W        W45486   4.765   2.958  12.827
73227W        W45487  27.109   4.411   0.826
73228W        W45488  24.541  15.108   2.792
73229W        W45489  26.700  44.277  11.857
73230W        W45490  11.278  29.017  14.029
73231W        W45491  41.815  42.292  12.437
73232W        W45492  33.970  34.934   3.638
73233W        W45493  21.027  25.664  10.600
73234W        W45494  16.154  27.506  13.457
73235W        W45495  17.623  24.615   0.474
73236W        W45496  20.628  43.979  12.830
73237W        W45497  38.952  30.627   0.354
73238W        W45498  32.027  29.060  13.895
73239W        W45499  35.984  31.977   2.185
73240W        W45500  17.603   1.377  14.498
73241W        W45501  41.480  15.778   1.870
73242W        W45502  42.366  21.562  14.358
73243W        W45503  37.478  44.488  13.357
73244W        W45504  10.734   8.793  10.519
73245W        W45505  27.643   7.907  11.909
73246W        W45506  16.303  17.627   5.147
73247W        W45507  43.288  39.018  14.876
73248W        W45508  27.946  16.721   0.394
73249W        W45509  12.335  15.252  14.477
73250W        W45510  14.597  29.629  14.351
73251W        W45511  25.204  43.386   2.695
73252W        W45512   7.311  21.063   0.278
73253W        W45513   3.876  34.463  12.534
73254W        W45514   7.743  31.140  13.519
73255W        W45515   8.865   7.389   2.261
73256W        W45516   1.928  43.406  12.541
73257W        W45517  21.563  37.926  13.859
73258W        W45518  23.659   0.303  14.938
73259W        W45519  19.777  40.974   4.839
73260W        W45520  27.498  30.000  12.825
73261W        W45521   8.196   6.327   1.248
73262W        W45522  28.489  17.694  13.846
73263W        W45523  13.650  29.019  13.917
73264W        W45524  37.432  38.486  12.557
73265W        W45525  34.606  25.533  14.382
73266W        W45526  22.717  14.340   2.668
73267W        W45527  10.354  29.050   2.814
73268W        W45528   6.223  37.572   0.803
73269W        W45529  43.336  35.970   4.311
73270W        W45530  33.921   8.815  10.941
73271W        W45531  20.193  18.584   1.386
73272W        W45532  26.159  10.150   2.839
73273W        W45533  12.767  10.170  11.880
73274W        W45534  36.486  37.014   1.414
73275W        W45535  43.271  10.790  11.942
73276W        W45536  16.311  23.630  14.452
73277W        W45537  33.961  31.422   1.785
73278W        W45538  42.494  44.393  11.951
73279W        W45539  44.851   0.959  10.432
73280W        W45540   3.931  24.689  13.796
73281W        W45541  42.527  15.614   1.712
73282W        W45542  14.711  36.485   3.704
73283W        W45543  22.092  14.705  12.518
73284W        W45544  12.722  21.632  12.046
73285W        W45545   2.425  22.164  14.955
73286W        W45546  32.082  11.372   2.733
73287W        W45547   6.849  21.128  12.988
73288W        W45548  14.160  44.465   3.868
73289W        W45549  23.528  42.458   4.136
73290W        W45550  37.403  24.107  10.526
73291W        W45551  37.360  27.568   4.346
73292W        W45552  39.314  42.452   0.272
73293W        W45553   6.794  13.252  13.976
73294W        W45554  32.975  33.048  11.045
73295W        W45555  33.012   7.353   3.842
73296W        W45556  16.629   9.163   0.474
73297W        W45557  22.078  23.536  14.384
73298W        W45558  19.716   0.474  10.565
73299W        W45559  24.705  27.005   3.338
73300W        W45560  26.050  27.501  14.979
73301W        W45561  35.931  10.827  12.534
73302W        W45562  26.052  12.145  11.442
73303W        W45563  42.406  24.647  14.930
73304W        W45564  34.007  29.527   3.184
73305W        W45565   0.450  43.389   1.754
73306W        W45566  15.634  14.690  11.541
73307W        W45567   0.420  20.121   4.161
73308W        W45568  19.753  22.580   2.381
73309W        W45569  20.247  25.114  10.580
73310W        W45570   6.410   0.422  12.534
73311W        W45571  10.349  24.169   3.227
73312W        W45572   0.963  13.203   1.708
73313W        W45573   7.736  44.349   2.686
73314W        W45574   9.327  39.422   1.868
73315W        W45575  15.197  31.971   3.746
73316W        W45576  34.948  36.457  14.498
73317W        W45577  17.248  14.735  12.558
73318W        W45578  21.256  17.561  10.604
73319W        W45579  27.965  43.442  12.052
73320W        W45580   1.415  21.023   2.709
73321W        W45581   4.329   5.803   1.311
73322W        W45582  13.647  32.956   4.675
73323W        W45583  32.551  44.792   2.390
73324W        W45584   5.205  17.626   3.164
73325W        W45585  42.806  42.789   2.348
73326W        W45586  10.366  23.685   3.210
73327W        W45587  32.015  11.239  11.612
73328W        W45588  13.746  38.441  14.955
73329W        W45589  28.057  37.483  11.554
73330W        W45590  32.542  17.254  12.084
73331W        W45591  17.708  44.001  13.011
73332W        W45592  17.645  15.181  13.376
73333W        W45593  11.760  38.046  11.504
73334W        W45594  40.540   6.780  13.482
73335W        W45595   1.420   2.279   3.373
73336W        W45596  16.116  32.637   2.391
73337W        W45597  44.305  32.488   0.388
73338W        W45598  22.097   1.958  13.865
73339W        W45599   6.213  32.500   1.779
73340W        W45600   9.857  33.612  11.604
73341W        W45601  22.040  13.828  13.351
73342W        W45602  24.583   7.735   3.170
73343W        W45603  19.659  28.014  14.454
73344W        W45604  44.463  10.860   4.805
73345W        W45605  14.101  27.029  12.427
73346W        W45606  23.000  12.835   2.325
73347W        W45607  23.043   0.852  13.038
73348W        W45608  11.130   1.255  12.921
73349W        W45609  24.034  33.083  12.944
73350W        W45610   8.319  25.655   2.696
73351W        W45611  19.209   8.816  10.565
73352W        W45612  17.605  31.111  13.375
73353W        W45613  23.527   8.285   4.602
73354W        W45614  20.684  32.547  13.064
73355W        W45615  15.131  32.607   1.236
73356W        W45616  31.478  25.217  11.103
73357W        W45617   8.377   7.384   0.270
73358W        W45618  40.392  12.777   2.367
73359W        W45619  13.660  40.890   0.459
73360W        W45620  12.342  42.342   3.372
73361W        W45621  38.510  22.219   3.653
73362W        W45622  25.540  17.565   0.918
73363W        W45623   6.887  44.893   0.355
73364W        W45624   9.218  19.208  10.466
73365W        W45625  26.542  44.353  12.561
73366W        W45626  44.995   1.908  12.042
73367W        W45627  40.878   1.465   3.269
73368W        W45628  43.487  19.657   2.330
73369W        W45629   2.966  32.104   2.353
73370W        W45630  38.021   6.828   2.262
73371W        W45631  10.782  18.759   0.297
73372W        W45632  10.726  37.487  11.101
73373W        W45633  18.165  11.720   3.772
73374W        W45634   7.910  12.721  14.806
73375W        W45635  21.054  25.493   2.227
73376W        W45636   7.356  41.524  13.484
73377W        W45637  34.049  29.118  11.944
73378W        W45638   2.377  12.761   5.199
73379W        W45639  11.853  42.295   3.677
73380W        W45640  25.591  24.518  13.023
73381W        W45641  17.602  34.876  11.869
73382W        W45642  42.783   2.416  13.522
73383W        W45643  16.185  38.969  14.885
73384W        W45644  22.513   9.759  11.021
73385W        W45645   0.407  37.980  10.473
73386W        W45646  20.688  18.255   3.866
73387W        W45647  16.107   6.723   2.275
73388W        W45648  18.674  28.474   0.408
73389W        W45649  39.833  20.655   3.319
73390W        W45650   9.236  19.642   0.733
73391W        W45651  33.610  29.454   4.193
73392W        W45652  30.025  23.177  12.490
73393W        W45653  15.579  25.997  14.831
73394W        W45654  26.597  19.581   3.662
73395W        W45655  41.832   1.386  13.334
73396W        W45656  44.971  22.220  13.007
73397W        W45657  38.908  17.585   0.419
73398W        W45658  44.487   1.786  14.946
73399W        W45659  28.523  16.724  13.393
73400W        W45660   7.268  29.948   1.446
73401W        W45661  36.968  17.773   0.355
73402W        W45662  29.090  43.945  11.448
73403W        W45663  20.566  25.669   0.914
73404W        W45664  35.379  15.613  14.363
73405W        W45665  43.967   5.692   2.264
73406W        W45666   2.859  40.828   4.709
73407W        W45667  16.271  38.999   2.892
73408W        W45668  43.329   6.424  13.382
73409W        W45669  14.719   1.888   0.887
73410W        W45670  16.245  33.042   0.481
73411W        W45671  25.063   7.220  11.447
73412W        W45672   5.754  18.290  13.446
73413W        W45673  15.814  27.643  12.921
73414W        W45674  31.568  28.518   2.870
73415W        W45675  15.297   8.773  12.381
73416W        W45676  20.039  14.227  14.413
73417W        W45677  20.260  18.123   1.338
73418W        W45678  43.478   1.914  10.430
73419W        W45679   6.763  34.114  14.285
73420W        W45680  30.509  27.479   0.745
73421W        W45681  19.071  28.112  13.489
73422W        W45682  22.104  20.606  12.057
73423W        W45683   4.881   0.383  13.875
73424W        W45684  35.961   5.251  13.818
73425W        W45685  22.558  12.346   1.912
73426W        W45686  12.855  29.033   1.250
73427W        W45687  20.191   8.273  10.555
73428W        W45688  33.898  33.617  10.910
73429W        W45689  39.396  42.309  10.425
73430W        W45690   2.923  36.956  12.539
73431W        W45691   4.255   3.722  10.427
73432W        W45692  33.522  20.273   5.275
73433W        W45693   3.833  41.840  14.873
73434W        W45694  34.434  33.131  12.560
73435W        W45695  24.198  40.027  14.870
73436W        W45696  24.146   3.301   1.823
73437W        W45697   0.941  18.555  12.940
73438W        W45698  23.021  42.932   0.932
73439W        W45699   2.935  15.121  13.823
73440W        W45700  44.996   9.352  10.594
73441W        W45701  23.116   7.735  14.451
73442W        W45702  41.533  18.102  14.910
73443W        W45703  15.214  42.907  10.590
73444W        W45704  38.445   4.862   1.379
73445W        W45705  23.495  38.051  12.414
73446W        W45706  18.578  31.067   4.287
73447W        W45707  42.996  39.842  14.477
73448W        W45708  26.037  30.131   3.766
73449W        W45709  25.024  13.186  11.959
73450W        W45710   9.736  44.802  11.610
73451W        W45711  44.778  11.329  11.899
73452W        W45712   5.757  36.410  14.382
73453W        W45713   3.318  29.131  13.342
73454W        W45714  15.818   6.345   4.736
73455W        W45715  32.920   8.208  12.073
73456W        W45716  37.028  27.666   4.741
73457W        W45717  34.414   4.258   1.210
73458W        W45718  33.988   8.329   1.805
73459W        W45719  23.028  42.032  10.520
73460W        W45720   8.837  36.998  13.317
73461W        W45721   0.391   2.891  11.962
73462W        W45722   5.733  26.648  12.930
73463W        W45723  21.527  25.076   0.769
73464W        W45724  21.755  34.471   0.457
73465W        W45725  44.298   5.906  14.013
73466W        W45726  44.346   5.250   0.736
73467W        W45727  37.021  40.329  14.806
73468W        W45728   6.710  38.459   0.277
73469W        W45729  42.969  23.106  12.417
73470W        W45730   7.269  25.570  12.390
73471W        W45731  28.944   1.266   1.749
73472W        W45732  12.741  31.503   4.280
73473W        W45733  23.087  18.605  11.467
73474W        W45734  42.380  27.010   2.221
73475W        W45735  19.593   7.363  13.880
73476W        W45736   2.810  27.033  14.516
73477W        W45737  42.838   7.372   0.873
73478W        W45738  24.032  44.845   2.810
73479W        W45739  19.595   4.704  11.095
73480W        W45740  20.688  27.104   9.966
73481W        W45741  23.734  37.992  13.511
73482W        W45742  31.563  23.560   3.832
73483W        W45743   0.779  25.490  11.991
73484W        W45744  33.473   2.428   4.242
73485W        W45745  28.160  44.454   4.823
73486W        W45746  27.049   2.965  14.925
73487W        W45747  16.748  16.173   1.771
73488W        W45748  25.617  14.748   0.848
73489W        W45749  21.582   4.354   0.911
73490W        W45750   5.437  26.154   0.851
73491W        W45751  32.919  30.977   3.807
73492W        W45752   6.364   8.206  12.481
73493W        W45753  41.311  23.693  11.429
73494W        W45754  17.261   0.801  11.085
73495W        W45755  18.731   2.437  12.980
73496W        W45756   8.384  28.473   3.173
73497W        W45757  25.146   2.870   4.661
73498W        W45758   7.892   7.789   2.299
73499W        W45759  31.082  22.550  11.921
73500W        W45760  43.280  37.581  14.291
73501W        W45761   3.948   5.919  11.947
73502W        W45762  37.847  17.787  14.422
73503W        W45763  23.147  24.176   4.257
73504W        W45764  37.575   5.926  12.352
73505W        W45765  24.053  12.290  13.494
73506W        W45766  12.187  11.174  11.505
73507W        W45767  16.316  10.182   2.419
73508W        W45768  17.073  32.567  12.999
73509W        W45769   2.901   3.886   2.309
73510W        W45770  24.479  30.413  11.464
73511W        W45771  27.112  17.631   0.442
73512W        W45772  38.559  18.709  11.071
73513W        W45773  42.325  15.710  12.472
73514W        W45774  20.655   5.380   2.729
73515W        W45775  16.649  31.037   3.699
73516W        W45776  32.996  14.737  14.963
73517W        W45777  41.801   8.274   2.692
73518W        W45778  31.094  44.275  11.968
73519W        W45779  11.344  14.759   4.675
73520W        W45780  38.876   7.861   3.641
73521W        W45781  17.669   3.845   2.703
73522W        W45782  33.067   0.273  11.426
73523W        W45783  20.560  39.044  13.391
73524W        W45784  20.614  36.926   1.817
73525W        W45785   8.753   7.388   1.889
73526W        W45786  26.139  35.966  12.953
73527W        W45787  20.263   4.836   1.747
73528W        W45788  23.619  12.798  14.337
73529W        W45789  36.535  22.613   0.956
73530W        W45790   8.814  36.461  12.435
73531W        W45791  10.679  19.226  11.594
73532W        W45792   5.825   8.289  14.018
73533W        W45793   4.339  14.306  12.059
73534W        W45794  27.112  21.577   3.171
73535W        W45795  23.535   3.856   2.884
73536W        W45796  18.147  23.654  12.350
73537W        W45797  13.267   7.669  10.606
73538W        W45798  14.334  32.041   2.796
73539W        W45799  14.609   3.253  14.455
73540W        W45800  21.135  42.999  10.955
73541W        W45801  24.644  22.667  13.466
73542W        W45802  39.976   4.872  14.868
73543W        W45803  41.006  34.390  14.514
73544W        W45804  11.648  18.557   0.431
73545W        W45805   0.874  22.139  11.077
73546W        W45806   6.691  33.615  13.894
73547W        W45807   5.318  17.626  11.889
73548W        W45808  34.509  30.654   0.463
73549W        W45809  20.125  29.644  13.960
73550W        W45810  34.376  42.359  13.049
73551W        W45811   8.795  13.323  11.607
73552W        W45812  25.516   6.861   3.207
73553W        W45813  29.919  34.557  12.896
73554W        W45814  23.718  11.133  14.026
73555W        W45815  40.021  42.462   1.296
73556W        W45816  37.427  11.645  11.417
73557W        W45817  29.126  43.305   4.300
73558W        W45818  21.588  38.014  12.340
73559W        W45819  16.245  29.106   2.405
73560W        W45820  20.190  28.602  12.405
73561W        W45821  10.246  31.525  13.910
73562W        W45822  23.604  30.028   1.909
73563W        W45823  39.895  13.127   0.941
73564W        W45824  34.559  41.893  11.414
73565W        W45825   2.765  17.184   4.153
73566W        W45826  19.650  19.234   0.816
73567W        W45827  26.047  20.161  11.894
73568W        W45828   9.330  35.558  12.894
73569W        W45829  23.165  24.680   1.841
73570W        W45830  31.593  21.577   0.386
73571W        W45831   3.918  21.070  10.599
73572W        W45832  21.584  39.060   1.284
73573W        W45833  29.583  14.676  12.524
73574W        W45834  39.820  35.590  13.337
73575W        W45835  41.375  15.631   0.804
73576W        W45836  22.213  28.943  11.464
73577W        W45837  43.843  26.503   3.635
73578W        W45838  30.961   6.875   4.114
73579W        W45839  11.752  21.222   1.222
73580W        W45840  14.145   7.292   1.835
73581W        W45841  39.345  16.188  14.337
73582W        W45842   3.770  29.598   4.181
73583W        W45843  31.590  38.830   4.189
73584W        W45844   1.970  28.030   1.899
73585W        W45845  33.417  41.396  11.896
73586W        W45846  24.596  40.339   4.227
73587W        W45847  29.484  12.139  10.609
73588W        W45848  42.391   4.352  13.815
73589W        W45849   1.399  26.181  13.962
73590W        W45850  20.650   7.378   5.114
73591W        W45851  16.081   7.326  11.484
73592W        W45852   8.221  16.735   3.648
73593W        W45853  40.369   2.376  13.862
73594W        W45854  28.629  30.981  13.914
73595W        W45855  26.625  31.977  13.308
73596W        W45856  30.510  21.580   3.865
73597W        W45857  10.242  10.704   4.656
73598W        W45858  14.299   6.286   3.146
73599W        W45859   9.792  27.112   3.309
73600W        W45860  27.954  23.083   2.760
73601W        W45861  15.658   5.223   3.796
73602W        W45862  31.118  20.638   2.690
73603W        W45863  21.235   4.447  11.054
73604W        W45864  22.094  12.231   2.757
73605W        W45865  36.433  24.705  13.965
73606W        W45866  12.342  12.291   2.337
73607W        W45867  32.901  27.583   4.309
73608W        W45868   9.175  19.535   1.705
73609W        W45869   8.369  35.882  14.826
73610W        W45870   2.893  23.217  12.939
73611W        W45871  43.432   5.785   3.850
73612W        W45872  39.425  18.117   3.200
73613W        W45873  41.431  40.336   3.746
73614W        W45874  16.178  37.502  12.889
73615W        W45875  42.905  29.959   3.669
73616W        W45876  16.590   3.717   1.823
73617W        W45877   2.454  20.593  13.797
73618W        W45878  44.351  32.407  13.050
73619W        W45879  34.383  15.724  14.342
73620W        W45880  41.836   1.461   3.324
73621W        W45881  24.197   9.368  11.434
73622W        W45882  36.351   6.210  14.838
73623W        W45883  11.714  15.603  13.028
73624W        W45884   9.203   8.834   4.652
73625W        W45885  39.984  23.528   1.342
73626W        W45886  37.936   2.354   4.263
73627W        W45887  34.008  23.089  12.518
73628W        W45888  36.346  34.563  12.495
73629W        W45889  31.441   1.866   2.417
73630W        W45890  25.207  24.000  14.290
73631W        W45891  34.868  11.701   2.713
73632W        W45892  37.987  26.996   2.320
73633W        W45893   0.831  23.584   2.215
73634W        W45894  43.835  19.056   0.465
73635W        W45895  27.480  44.497   0.242
73636W        W45896  15.756   5.883   3.226
73637W        W45897  15.133  11.329  12.504
73638W        W45898  25.185  14.763  11.373
73639W        W45899  33.404  32.135   1.697
73640W        W45900   1.958  26.542  11.029
73641W        W45901  20.625   1.939   3.327
73642W        W45902  36.998   4.918   1.403
73643W        W45903  22.520  37.416  10.119
73644W        W45904  20.199  38.038  11.892
73645W        W45905  17.203   9.778   1.803
73646W        W45906   7.783  25.683  14.330
73647W        W45907   5.847  11.780  11.468
73648W        W45908  12.731  40.826  14.281
73649W        W45909  10.756   7.388  12.865
73650W        W45910  21.605  20.073  12.857
73651W        W45911  12.179  15.590   3.232
73652W        W45912  19.562   5.762  10.942
73653W        W45913  22.081  26.200   1.723
73654W        W45914  36.929  28.997  10.627
73655W        W45915   4.755   2.822   0.885
73656W        W45916  37.404  39.538  13.435
73657W        W45917  11.237  10.286   0.755
73658W        W45918  32.023  43.794  10.021
73659W        W45919  14.623   3.326  10.516
73660W        W45920   5.851  36.430  10.497
73661W        W45921  21.736  38.971  12.052
73662W        W45922   1.355  28.028  11.524
73663W        W45923   1.747  31.410   4.280
73664W        W45924  12.317  29.070  10.099
73665W        W45925  40.801  38.895   1.278
73666W        W45926  31.587  39.909  11.111
73667W        W45927   0.334   9.391   0.826
73668W        W45928  42.006  36.382   2.310
73669W        W45929  16.190   5.800   4.258
73670W        W45930  39.420  16.605  11.001
73671W        W45931  18.266  39.351   2.260
73672W        W45932   3.900  37.551  14.841
73673W        W45933   3.311  28.152  14.938
73674W        W45934  16.256  20.068  11.050
73675W        W45935  15.578  40.351   1.313
73676W        W45936  35.527  18.235   5.632
73677W        W45937  42.428  41.458  10.559
73678W        W45938  23.182   6.327  13.353
73679W        W45939  12.135  36.473  14.461
73680W        W45940  31.072  31.409  12.363
73681W        W45941   9.168  24.511  11.961
73682W        W45942  26.095  40.478   1.824
73683W        W45943  34.049   9.211  14.394
73684W        W45944  40.948   7.231  13.879
73685W        W45945  11.362  12.141   0.441
73686W        W45946  30.491  19.105  12.949
73687W        W45947  17.570   1.367   0.316
73688W        W45948  32.948  22.520  13.462
73689W        W45949  19.574  37.969   4.736
73690W        W45950  17.693  29.165   4.279
73691W        W45951   3.414   7.741   2.860
73692W        W45952   3.882  28.506   1.910
73693W        W45953  42.334  32.446  14.403
73694W        W45954  36.576  25.588   3.798
73695W        W45955  34.113   7.793  10.419
73696W        W45956  12.672  22.648  13.945
73697W        W45957  37.039   2.454   0.851
73698W        W45958  28.155  38.846   0.274
73699W        W45959  34.387  19.056   3.753
73700W        W45960  30.558  31.636   9.986
73701W        W45961  39.452  18.168   4.740
73702W        W45962  27.683  33.921   4.329
73703W        W45963  17.078  22.136  12.499
73704W        W45964   4.866  12.281  12.966
73705W        W45965  16.071  21.172   0.300
73706W        W45966  20.735  15.227   3.812
73707W        W45967   6.299  22.197  10.594
73708W        W45968  41.968  44.501  13.867
73709W        W45969  29.126  42.956   1.866
73710W        W45970   0.472   4.746  13.010
73711W        W45971  17.640  15.621   1.373
73712W        W45972  11.232  30.045   3.847
73713W        W45973  43.447  30.443   2.201
73714W        W45974  41.880  33.026  14.300
73715W        W45975  20.616  17.625   2.344
73716W        W45976   2.272  15.231  14.340
73717W        W45977   2.784   6.334   2.419
73718W        W45978   6.857  10.323   3.807
73719W        W45979   7.340   8.791  13.896
73720W        W45980  26.663   7.406   1.814
73721W        W45981   5.348  42.510  11.107
73722W        W45982  13.242  35.419  12.509
73723W        W45983  31.498  38.028  14.833
73724W        W45984   1.419  32.937   2.668
73725W        W45985  34.012   5.236   2.202
73726W        W45986  25.586  24.722  14.765
73727W        W45987  30.466  26.174   3.266
73728W        W45988  11.265  30.494   3.217
73729W        W45989  29.922  44.796   1.288
73730W        W45990  31.929  10.809   1.904
73731W        W45991  36.461  18.789   1.271
73732W        W45992  33.477  17.288   5.318
73733W        W45993  28.536   3.240   2.244
73734W        W45994  19.568   0.316   4.323
73735W        W45995  13.830  21.073  14.303
73736W        W45996  42.488  33.602   0.845
73737W        W45997  11.712  34.613   0.769
73738W        W45998   3.735   8.392   4.821
73739W        W45999  44.961  11.746   3.800
73740W        W46000  22.581  42.782   5.086
73741W        W46001  38.996   0.418   3.259
73742W        W46002  28.565   6.264  12.021
73743W        W46003  21.253   1.431  13.055
73744W        W46004  35.095  10.678  10.561
73745W        W46005  11.319  34.529   4.602
73746W        W46006  23.636  37.035   4.812
73747W        W46007  18.733  17.798  14.451
73748W        W46008   8.795  26.028   0.347
73749W        W46009  24.608  17.749  13.483
73750W        W46010  43.770   0.304  14.456
73751W        W46011  23.188  27.965   5.623
73752W        W46012  18.666   4.865   1.828
73753W        W46013  36.947  33.624  14.861
73754W        W46014  31.637  30.030   3.335
73755W        W46015   4.252  21.204  10.436
73756W        W46016  24.184  36.477  14.284
73757W        W46017   8.262  30.005  14.443
73758W        W46018   0.872   6.197   3.859
73759W        W46019  34.581  35.938   0.311
73760W        W46020   2.740  29.579  13.989
73761W        W46021  39.935  38.413   0.415
73762W        W46022  24.486   9.811  13.966
73763W        W46023  39.418  20.582  12.086
73764W        W46024  34.897  42.288   4.662
73765W        W46025  17.228  43.347  14.513
73766W        W46026  29.010  43.780  14.890
73767W        W46027  37.028  38.965   4.283
73768W        W46028  30.082   9.391   0.446
73769W        W46029  10.239  32.397  14.773
73770W        W46030   9.818  39.453  10.927
73771W        W46031   7.224  33.020  10.545
73772W        W46032  42.484  44.474  14.943
73773W        W46033  27.958  32.058   1.716
73774W        W46034  22.194  36.421  12.528
73775W        W46035   2.820   1.744  14.288
73776W        W46036   0.888  17.072  12.571
73777W        W46037  16.238  40.440   2.218
73778W        W46038   2.337  27.602   3.804
73779W        W46039  21.099  38.821  14.943
73780W        W46040  37.386  44.774   0.947
73781W        W46041  18.269  12.331  11.894
73782W        W46042  42.393   6.896   3.755
73783W        W46043  37.956  38.908  13.318
73784W        W46044  30.596  22.560   2.885
73785W        W46045  36.525   3.230  12.542
73786W        W46046  21.029  38.553  14.788
73787W        W46047  42.833   0.430   4.670
73788W        W46048  36.857  36.883   2.262
73789W        W46049  31.592   9.232  11.562
73790W        W46050  18.659  17.607  13.364
73791W        W46051  15.777  42.861   1.796
73792W        W46052  21.026   8.403  12.916
73793W        W46053  16.122   0.808  13.498
73794W        W46054  24.018  34.001  11.520
73795W        W46055  21.033  28.627   1.796
73796W        W46056  26.027  41.306   5.246
73797W        W46057   5.422   0.430  11.540
73798W        W46058  22.581  14.170   2.255
73799W        W46059  37.889   9.190   9.637
73800W        W46060   2.723  11.624  12.946
73801W        W46061  43.997   6.902   1.440
73802W        W46062   1.388  43.829   2.667
73803W        W46063   8.766  26.177  11.913
73804W        W46064  10.776   1.480   1.256
73805W        W46065  37.919  21.546   1.295
73806W        W46066  32.420  38.052   3.329
73807W        W46067  29.549  29.943   9.492
73808W        W46068   9.312  25.097  14.404
73809W        W46069   4.242   5.251   4.633
73810W        W46070  33.481  21.253  12.885
73811W        W46071   1.385  27.979   1.755
73812W        W46072  34.993  41.822   2.238
73813W        W46073  40.046  10.265  12.463
73814W        W46074   0.860  31.648   2.206
73815W        W46075  39.979  28.182  12.513
73816W        W46076  30.533  30.930  12.501
73817W        W46077  37.062  41.301  11.602
73818W        W46078  12.709  44.773  10.574
73819W        W46079  23.061  37.449  10.416
73820W        W46080  42.928  21.169  10.019
73821W        W46081  16.762  44.364   3.235
73822W        W46082  35.945  12.218   0.277
73823W        W46083  38.963   8.714   3.732
73824W        W46084  29.425  24.228   2.363
73825W        W46085  29.599  37.442  14.467
73826W        W46086  11.777  37.430   3.732
73827W        W46087  27.640  26.054  12.413
73828W        W46088   6.814  37.568  13.803
73829W        W46089  12.719  26.550   4.656
73830W        W46090   9.254   6.386  14.384
73831W        W46091  33.006   6.859   0.455
73832W        W46092  32.092  39.400  11.894
73833W        W46093  42.901  34.441  10.953
73834W        W46094   6.379  19.699   1.798
73835W        W46095  17.691  37.501   1.869
73836W        W46096   7.899  35.592  14.823
73837W        W46097   6.404  16.755  12.021
73838W        W46098  25.094  41.793   9.647
73839W        W46099  31.052   7.414   5.105
73840W        W46100  22.554  38.529   1.694
73841W        W46101  18.258   7.676  11.895
73842W        W46102  11.208   4.377   4.704
73843W        W46103  17.653  15.162  11.472
73844W        W46104   9.890   4.745  14.030
73845W        W46105  33.974  11.331  12.044
73846W        W46106  28.459   3.713  14.281
73847W        W46107  28.972  24.029   3.311
73848W        W46108  26.006  16.193  13.018
73849W        W46109  21.683   7.778  14.485
73850W        W46110  29.505  19.776  13.377
73851W        W46111  26.583  19.576   2.232
73852W        W46112  39.512  35.892  11.416
73853W        W46113  28.138  13.831  10.998
73854W        W46114  28.068  16.224  14.409
73855W        W46115  13.153  14.695  12.087
73856W        W46116  33.911  21.143   0.267
73857W        W46117  11.210   2.953   0.924
73858W        W46118   5.802  22.667  12.405
73859W        W46119  22.998  43.842  14.862
73860W        W46120   8.664   5.219  12.577
73861W        W46121  33.880  36.856  14.286
73862W        W46122  34.415  41.016  13.885
73863W        W46123  28.162  38.394   3.153
73864W        W46124   5.379  26.062   4.349
73865W        W46125  24.164  31.140  14.021
73866W        W46126  33.935  22.136  11.900
73867W        W46127  33.118  27.472  11.883
73868W        W46128   2.406  25.110  14.399
73869W        W46129   8.703  31.060  13.389
73870W        W46130  30.959   0.770  12.489
73871W        W46131  29.035  30.981   2.378
73872W        W46132  30.045  23.514  12.888
73873W        W46133  21.512  32.582   2.766
73874W        W46134  31.120  39.488   0.950
73875W        W46135   2.918  39.861   1.845
73876W        W46136  19.725  20.187  11.381
73877W        W46137  12.744   6.250   1.249
73878W        W46138  23.724  30.589  10.438
73879W        W46139   2.861  19.667  13.402
73880W        W46140   4.281  41.536  11.582
73881W        W46141  28.673  33.108  14.389
73882W        W46142  16.149  41.926   0.762
73883W        W46143  24.995  42.356  12.937
73884W        W46144  22.729  11.833   2.841
73885W        W46145  15.243  19.703   1.299
73886W        W46146  34.537  19.703  14.013
73887W        W46147  22.705   2.370  12.466
73888W        W46148   2.959   0.274  13.350
73889W        W46149  23.556  37.960   3.679
73890W        W46150  16.130  41.338  13.415
73891W        W46151   4.223   1.950   2.253
73892W        W46152  38.860  26.553  12.562
73893W        W46153  32.504  40.990  11.530
73894W        W46154  42.811  36.502   4.190
73895W        W46155   6.259  43.778   0.818
73896W        W46156  11.801  18.684  14.307
73897W        W46157   0.339  23.642  14.886
73898W        W46158  40.993  18.623   0.834
73899W        W46159  10.725  16.084  13.016
73900W        W46160  12.658   1.475   2.748
73901W        W46161  41.445  28.528   4.191
73902W        W46162  24.514   7.891  11.857
73903W        W46163  34.373   2.825   4.736
73904W        W46164   1.930  19.040   4.141
73905W        W46165   6.783  40.512  14.972
73906W        W46166   3.406   6.800   4.659
73907W        W46167  44.294  21.248  10.434
73908W        W46168   0.442  16.598   4.146
73909W        W46169  32.923  42.027   4.701
73910W        W46170  20.657  42.977  10.965
73911W        W46171  15.697  15.187  10.433
73912W        W46172  42.992   6.252   0.395
73913W        W46173  36.501  21.680  14.948
73914W        W46174  28.463  18.086   2.796
73915W        W46175  17.157   3.301   1.855
73916W        W46176  13.345  29.541  14.501
73917W        W46177  42.304  17.241   1.394
73918W        W46178   9.783  10.361   4.283
73919W        W46179   6.875  39.951  13.373
73920W        W46180   0.923  43.778   1.294
73921W        W46181   3.438   7.690  11.032
73922W        W46182  18.062  20.082   2.778
73923W        W46183  20.270   7.826  11.555
73924W        W46184  43.413  11.683  14.772
73925W        W46185  21.255  26.032  14.816
73926W        W46186  33.403  31.103   1.263
73927W        W46187  43.442  41.962  13.521
73928W        W46188  37.903  30.608  13.982
73929W        W46189   5.374  44.914   4.195
73930W        W46190   6.914   7.211   2.708
73931W        W46191  40.036   6.839   4.226
73932W        W46192  23.057  33.439  13.062
73933W        W46193  23.576   5.896  12.491
73934W        W46194  17.094  41.445  10.018
73935W        W46195  16.806  17.175  14.867
73936W        W46196  23.691  18.157  14.385
73937W        W46197   8.670  15.686  13.363
73938W        W46198  17.675   7.185   0.935
73939W        W46199  39.896  10.198  13.931
73940W        W46200   0.769  43.817  12.426
73941W        W46201  30.467  14.792  12.056
73942W        W46202  41.016  41.502   1.917
73943W        W46203  26.170   0.371  13.368
73944W        W46204  32.112  30.009   4.175
73945W        W46205  39.905  22.561  11.078
73946W        W46206  14.819  14.809   1.224
73947W        W46207  35.581  42.844   3.303
73948W        W46208  35.468   9.291  13.421
73949W        W46209  30.516  33.494  10.528
73950W        W46210  12.812  10.686  14.893
73951W        W46211  18.551  25.210   3.315
73952W        W46212   5.711   5.209   0.339
73953W        W46213  28.498   7.808  13.932
73954W        W46214   5.331   0.259  13.823
73955W        W46215  27.515  12.307  12.458
73956W        W46216  36.369   1.790   3.305
73957W        W46217  20.088  36.082   1.310
73958W        W46218  10.833  42.979   4.819
73959W        W46219  22.194  37.843  10.441
73960W        W46220  28.096  14.756  10.431
73961W        W46221   2.367  20.572  13.404
73962W        W46222   1.358   9.355  10.942
73963W        W46223  31.047   8.858   3.272
73964W        W46224  26.976  39.879   2.830
73965W        W46225   2.838  16.701   3.250
73966W        W46226  37.458  40.951  14.884
73967W        W46227  43.465  26.675  10.485
73968W        W46228  43.989  33.616  11.068
73969W        W46229  27.487  29.997   1.278
73970W        W46230  43.987  27.134  10.596
73971W        W46231  17.249   5.364   2.185
73972W        W46232  39.910  17.599  14.014
73973W        W46233  16.134  14.653   5.215
73974W        W46234  14.589   2.263   1.293
73975W        W46235  30.459  13.285   4.709
73976W        W46236   5.918  23.142  12.031
73977W        W46237   6.895  12.647  12.876
73978W        W46238  23.672  31.589  11.998
73979W        W46239  22.183  28.445   0.897
73980W        W46240   0.468  23.515  13.471
73981W        W46241  23.023   0.825   2.293
73982W        W46242  27.955  22.670   0.319
73983W        W46243  20.543  27.680  12.847
73984W        W46244  32.423  34.915   1.371
73985W        W46245  24.141  17.761   2.242
73986W        W46246  32.109  33.543   1.223
73987W        W46247  20.702  20.216   0.357
73988W        W46248  12.149  20.190   0.957
73989W        W46249  25.663   0.761   2.353
73990W        W46250   7.869  11.195  11.909
73991W        W46251   1.407   0.808  12.872
73992W        W46252  30.495  37.409  11.453
73993W        W46253  21.021  18.095  10.034
73994W        W46254  40.917  26.549  10.943
73995W        W46255  37.564  21.175   0.891
73996W        W46256  32.141  31.909  12.559
73997W        W46257  32.139  43.879   1.363
73998W        W46258  26.194  19.163  12.416
73999W        W46259  16.608  33.433  13.505
74000W        W46260  40.887   4.219   3.844
74001W        W46261  44.891  21.200   1.738
74002W        W46262   8.202  32.992   4.219
74003W        W46263  24.543  22.239  14.781
74004W        W46264  30.425   5.845   3.831
74005W        W46265   3.856  16.700  13.931
74006W        W46266  12.352  22.580   0.338
74007W        W46267  22.192   2.938   0.331
74008W        W46268  13.706  20.613  13.821
74009W        W46269   0.487  42.364  11.918
74010W        W46270   4.349   2.435  14.970
74011W        W46271   3.370  38.929   1.262
74012W        W46272  30.026  26.544   1.800
74013W        W46273  34.878   7.791   1.829
74014W        W46274  13.199  28.560   3.386
74015W        W46275  36.506  42.029  14.300
74016W        W46276  13.716   1.966   1.804
74017W        W46277  42.962   4.945   5.102
74018W        W46278  21.176  22.023  12.070
74019W        W46279  23.648   7.410   0.460
74020W        W46280   6.723  21.627   1.808
74021W        W46281  31.957  25.134  12.349
74022W        W46282   8.356  15.110   1.213
74023W        W46283   5.697  35.554   1.731
74024W        W46284   8.291  12.137   4.139
74025W        W46285   2.766  14.717  14.409
74026W        W46286  30.594   2.267   2.717
74027W        W46287  42.908  43.796   1.741
74028W        W46288   4.928   0.988  11.450
74029W        W46289  30.507   6.744   1.928
74030W        W46290  13.188  36.089   5.215
74031W        W46291  26.956  44.272  14.784
74032W        W46292  14.667  26.503  13.885
74033W        W46293  41.310   4.367   1.818
74034W        W46294  38.457  32.624   0.730
74035W        W46295  33.621  43.008   3.233
74036W        W46296   6.214   1.868  10.953
74037W        W46297   3.935  27.198  14.341
74038W        W46298  25.999  27.180  11.924
74039W        W46299  23.037  15.316  10.639
74040W        W46300  29.117  43.884   2.723
74041W        W46301  35.021  18.632   5.764
74042W        W46302  19.534  33.624   1.780
74043W        W46303  11.281  38.498  10.628
74044W        W46304  39.004  26.957  11.125
74045W        W46305  34.431  26.085   2.881
74046W        W46306  14.229  41.986  13.399
74047W        W46307  39.388  36.860   3.364
74048W        W46308   1.952   7.329   0.311
74049W        W46309   4.265   1.413   2.697
74050W        W46310  42.023  28.932  13.436
74051W        W46311  22.199   2.242  14.960
74052W        W46312  28.010   5.865   0.331
74053W        W46313  31.922  40.028  12.846
74054W        W46314  23.532  44.271  11.477
74055W        W46315  42.924  35.950   2.897
74056W        W46316  10.636  18.073  12.096
74057W        W46317  16.693  24.651  11.875
74058W        W46318  23.144  20.529   4.119
74059W        W46319  34.921  27.545   4.345
74060W        W46320   3.870  22.533  13.358
74061W        W46321   2.738  30.057   4.322
74062W        W46322  28.592  19.577   3.146
74063W        W46323  32.449  44.442   1.406
74064W        W46324  42.867  31.044   5.121
74065W        W46325  31.996   9.272  14.414
74066W        W46326   7.901  28.600   2.185
74067W        W46327   6.362  30.024   4.625
74068W        W46328   8.241  25.058   2.902
74069W        W46329   4.806  23.670   4.677
74070W        W46330   5.269  35.487   2.414
74071W        W46331  21.138  18.678  14.306
74072W        W46332  42.464  21.685  13.915
74073W        W46333  30.103  25.125  14.026
74074W        W46334  22.573   1.744  12.001
74075W        W46335   5.393  12.223   0.853
74076W        W46336  30.045  43.996   0.263
74077W        W46337  22.228  29.573  14.017
74078W        W46338  34.575   5.410  12.043
74079W        W46339  40.986   7.777  12.929
74080W        W46340  10.198  39.925  11.485
74081W        W46341   4.925  36.578   4.629
74082W        W46342  41.005  26.649  13.024
74083W        W46343  12.650  19.278   3.851
74084W        W46344   2.867   9.262  13.396
74085W        W46345  31.535  44.339   3.687
74086W        W46346  10.379  18.052   3.154
74087W        W46347  15.625  25.145  11.038
74088W        W46348  23.638  26.030   1.258
74089W        W46349  38.353  38.402  14.001
74090W        W46350  21.671  33.606  10.097
74091W        W46351  30.575  19.092   1.372
74092W        W46352  28.999  44.931  13.317
74093W        W46353  13.235  19.622   5.304
74094W        W46354  27.175   4.373  11.063
74095W        W46355  16.734  39.505   2.729
74096W        W46356  24.035  29.471   3.382
74097W        W46357  40.834   4.902  10.419
74098W        W46358  11.196  17.574   4.813
74099W        W46359  26.607  36.854   0.275
74100W        W46360  35.094  16.698  14.406
74101W        W46361  38.487   7.320  14.318
74102W        W46362  40.380   7.774   1.428
74103W        W46363   0.410  22.087  14.898
74104W        W46364  11.281   5.907   0.862
74105W        W46365  15.308  37.008   3.270
74106W        W46366  18.563  27.060   2.814
74107W        W46367  10.690  19.665   3.781
74108W        W46368   4.366  24.676  12.061
74109W        W46369  26.995   7.313   9.989
74110W        W46370  38.956  29.983   1.231
74111W        W46371   2.781  18.735  12.907
74112W        W46372  27.545  15.305  14.447
74113W        W46373  17.157  28.148   2.382
74114W        W46374   2.919  16.104   1.810
74115W        W46375  36.966  12.749   1.251
74116W        W46376  25.651  41.879   4.262
74117W        W46377  28.565  44.806  12.943
74118W        W46378  16.112  21.154   1.265
74119W        W46379   5.291  20.644   3.308
74120W        W46380   4.807  20.138   3.299
74121W        W46381  40.333  30.439   5.170
74122W        W46382  39.532  19.184  13.531
74123W        W46383   6.810  44.286   0.798
74124W        W46384  32.024   0.419  10.541
74125W        W46385  22.073  32.078  13.822
74126W        W46386   5.196  42.984   2.243
74127W        W46387  26.622  17.609  13.380
74128W        W46388  19.761  12.213  14.486
74129W        W46389  36.569  17.119   9.927
74130W        W46390  24.133  12.245   3.724
74131W        W46391  30.149   6.692   1.387
74132W        W46392  21.563  17.131  10.570
74133W        W46393   1.850  34.560  13.889
74134W        W46394  32.580   5.412  14.994
74135W        W46395  28.999  34.119  11.433
74136W        W46396  33.112  28.539   2.820
74137W        W46397   6.197  27.953  10.550
74138W        W46398  34.012  12.194  12.985
74139W        W46399  16.572   4.395  12.459
74140W        W46400  42.463  31.583  13.998
74141W        W46401  15.287  30.562  10.558
74142W        W46402  18.155  22.190  12.561
74143W        W46403  13.815   0.917  14.889
74144W        W46404   0.788  11.371  14.882
74145W        W46405  18.771  18.596  13.468
74146W        W46406  11.141  20.620  10.902
74147W        W46407  31.411  26.144  12.384
74148W        W46408   1.916  18.190   0.877
74149W        W46409  10.184  16.102   2.310
74150W        W46410   1.384  27.692  13.313
74151W        W46411  21.047  28.032  13.536
74152W        W46412  22.539  10.644   1.740
74153W        W46413  14.747  30.922   0.474
74154W        W46414  41.324  37.986  12.474
74155W        W46415  42.463  27.506   4.691
74156W        W46416  41.870  39.479  14.856
74157W        W46417  34.552   9.165   0.356
74158W        W46418  15.299   5.803   2.709
74159W        W46419   0.975  40.908  12.496
74160W        W46420  11.731  27.584  13.887
74161W        W46421  21.708  16.214  11.872
74162W        W46422  38.927  22.146   4.669
74163W        W46423  40.302  15.700   5.185
74164W        W46424   9.698  17.199   1.321
74165W        W46425  18.635   7.761   2.795
74166W        W46426  32.945   5.932   0.480
74167W        W46427  13.724   2.855  14.986
74168W        W46428  41.799   9.865   3.675
74169W        W46429  24.541   0.293   3.230
74170W        W46430  26.974   3.820   2.839
74171W        W46431  38.474  28.020  13.975
74172W        W46432  35.999  42.309   1.370
74173W        W46433  13.329   8.336   4.761
74174W        W46434  33.464   6.802  13.315
74175W        W46435  38.004   5.795   2.826
74176W        W46436   7.886  36.845  12.900
74177W        W46437  32.916   4.302   0.957
74178W        W46438  21.047   9.869   3.743
74179W        W46439  21.227  40.921  14.395
74180W        W46440  20.083  20.196   2.767
74181W        W46441  15.300  23.187   3.780
74182W        W46442   1.291  13.788   2.223
74183W        W46443  36.920  11.246   2.853
74184W        W46444  38.479   7.703  12.537
74185W        W46445  42.467   9.285   2.757
74186W        W46446  27.470  35.038   4.833
74187W        W46447  31.481  35.064   1.286
74188W        W46448  30.499  16.218   1.307
74189W        W46449   8.203  35.984   2.688
74190W        W46450  11.160  33.967  14.762
74191W        W46451  33.082  23.652  12.515
74192W        W46452   2.757   7.759  12.385
74193W        W46453  35.518  15.606   3.839
74194W        W46454  30.432   6.283   2.809
74195W        W46455  12.652   0.481  14.813
74196W        W46456  37.011  19.701  10.913
74197W        W46457   9.225  13.226   0.865
74198W        W46458  44.303   3.274   0.895
74199W        W46459  36.908   8.238  11.983
74200W        W46460  36.964  24.030   1.439
74201W        W46461  14.105   9.680  11.973
74202W        W46462  10.360  22.012  11.029
74203W        W46463   8.871  13.734   1.270
74204W        W46464  39.978  39.001   4.816
74205W        W46465  40.491  15.724   1.845
74206W        W46466  25.624   1.448   2.723
74207W        W46467  11.642  32.892  11.591
74208W        W46468   5.803  11.687  14.931
74209W        W46469  27.987  28.632   1.294
74210W        W46470  20.527  25.628   4.293
74211W        W46471  21.649  10.648   4.166
74212W        W46472  18.757  27.141  11.418
74213W        W46473  13.812  29.961   0.851
74214W        W46474  28.655   4.844   1.311
74215W        W46475  41.842  32.097   3.717
74216W        W46476  24.502   5.395   1.777
74217W        W46477  33.972  43.805  14.984
74218W        W46478  24.148   7.727  14.316
74219W        W46479   3.884  36.018   2.323
74220W        W46480   3.346  24.137   3.321
74221W        W46481  42.360  33.024  14.372
74222W        W46482  26.495  21.147  13.390
74223W        W46483  14.188  21.699   3.329
74224W        W46484  34.540  35.472   1.848
74225W        W46485  37.909   7.792  10.937
74226W        W46486   6.216   4.874   4.267
74227W        W46487  29.552  26.505  10.893
74228W        W46488  39.837  40.046  13.870
74229W        W46489  35.946   9.692  14.765
74230W        W46490  34.009  31.475  10.574
74231W        W46491   7.406  37.395   5.119
74232W        W46492  25.130  25.591   0.440
74233W        W46493  15.616  13.258  14.468
74234W        W46494  39.041  21.628   4.291
74235W        W46495  41.974  15.216   1.304
74236W        W46496  44.499  20.609  13.359
74237W        W46497   6.423  28.045  12.927
74238W        W46498  25.542  42.864   4.647
74239W        W46499  31.501  21.024   1.295
74240W        W46500  30.545  44.937  12.513
74241W        W46501  39.883  28.477   3.655
74242W        W46502   6.897   7.835  13.509
74243W        W46503  40.423   0.793  14.284
74244W        W46504  12.714  38.903   0.729
74245W        W46505  29.516  10.144   4.828
74246W        W46506  39.489  27.076   2.839
74247W        W46507  26.091  22.076   0.750
74248W        W46508  25.681  15.776   1.233
74249W        W46509  16.681  36.535   0.844
74250W        W46510   4.794  15.083   2.215
74251W        W46511  37.339  43.967   1.703
74252W        W46512  12.689  11.324   4.152
74253W        W46513  15.579   5.871   4.311
74254W        W46514  30.925   4.910  11.983
74255W        W46515  44.937  26.026  11.457
74256W        W46516  17.202  20.150   1.813
74257W        W46517  10.850   9.319   2.881
74258W        W46518  32.580   7.754   1.752
74259W        W46519  25.485   7.400   3.739
74260W        W46520  11.685  29.953  11.392
74261W        W46521  31.465   2.370   4.766
74262W        W46522  18.086  39.955  11.881
74263W        W46523  26.035  13.290  12.502
74264W        W46524   0.762   9.366  11.903
74265W        W46525  22.218  13.310   2.830
74266W        W46526  41.973  44.958   2.756
74267W        W46527  43.021  19.735  13.523
74268W        W46528  24.589  22.062  14.396
74269W        W46529   3.228  26.564  14.344
74270W        W46530  21.707  17.633  12.922
74271W        W46531   8.179  13.130   2.739
74272W        W46532  40.844  39.991  12.063
74273W        W46533  23.606  26.192  11.094
74274W        W46534  13.837  31.084   1.748
74275W        W46535  12.350  25.569  10.502
74276W        W46536  35.885  18.577  10.550
74277W        W46537  35.061  11.654  11.958
74278W        W46538  28.956  43.424   1.744
74279W        W46539  28.562  40.982  14.816
74280W        W46540  34.019  39.351  14.323
74281W        W46541  24.495  16.236   3.858
74282W        W46542  13.269  30.469   5.795
74283W        W46543  32.561  38.350   4.353
74284W        W46544  41.868  20.574   0.409
74285W        W46545  38.902  30.126  10.039
74286W        W46546  13.275  35.549   2.714
74287W        W46547  32.610  44.963  12.452
74288W        W46548  18.643  42.847   4.618
74289W        W46549  24.638   2.896   4.637
74290W        W46550  23.547  36.443   0.941
74291W        W46551  16.159  20.080  11.599
74292W        W46552   7.376  32.588  14.926
74293W        W46553  43.491  22.090   0.956
74294W        W46554   6.915  41.792  13.326
74295W        W46555  36.416  30.551   0.422
74296W        W46556  17.604  42.450  11.405
74297W        W46557  12.736  40.482  11.485
74298W        W46558  36.975   0.765   1.279
74299W        W46559  34.436  28.008   3.822
74300W        W46560   2.465  44.891  10.629
74301W        W46561  43.993  29.145  13.529
74302W        W46562  12.247   3.352  14.860
74303W        W46563  43.011  14.189   1.441
74304W        W46564  24.995  14.670   2.669
74305W        W46565  12.142  33.881  12.037
74306W        W46566   8.362  42.380  14.931
74307W        W46567  19.652   1.431   1.818
74308W        W46568  25.517  39.823   2.419
74309W        W46569  21.553   0.855  14.429
74310W        W46570  28.569  18.187   4.259
74311W        W46571  33.994  10.257   3.236
74312W        W46572   3.735  22.507  10.093
74313W        W46573   1.821  28.052   4.337
74314W        W46574  31.912   9.809   3.785
74315W        W46575  34.401  23.033   1.390
74316W        W46576  22.061   2.963  13.322
74317W        W46577  39.867   3.807   4.208
74318W        W46578  21.512  44.815  14.494
74319W        W46579  28.621  11.260  11.887
74320W        W46580  33.381  14.714   0.395
74321W        W46581  20.138  40.344   0.945
74322W        W46582  27.616  42.799   3.811
74323W        W46583  17.725  10.351   0.856
74324W        W46584  41.357  29.601   0.841
74325W        W46585  17.723  16.809  11.977
74326W        W46586  11.804   9.185   2.888
74327W        W46587  14.603  40.861  12.037
74328W        W46588  23.052  41.934   2.317
74329W        W46589  16.114   7.400   3.652
74330W        W46590  38.460  43.423  14.276
74331W        W46591  20.138  24.059   1.288
74332W        W46592  29.025  14.137  11.505
74333W        W46593   2.340  32.959   4.234
74334W        W46594  44.902  35.922  11.384
74335W        W46595   0.483  38.839   1.230
74336W        W46596  34.864  19.059   4.141
74337W        W46597  29.099  12.831   4.613
74338W        W46598  40.488  40.516  13.831
74339W        W46599  20.229   3.836  11.589
74340W        W46600  35.008  27.028  13.440
74341W        W46601  39.351  39.948  10.409
74342W        W46602  27.128  37.429  12.835
74343W        W46603  39.003  28.498  12.089
74344W        W46604  38.040   5.235  12.868
74345W        W46605  43.401   2.443  14.413
74346W        W46606  41.004  40.422  14.805
74347W        W46607  18.186  10.301   4.623
74348W        W46608  10.652  39.895  10.991
74349W        W46609  17.678  25.018  11.458
74350W        W46610  10.710  38.487  10.981
74351W        W46611   2.753   4.858  11.508
74352W        W46612  30.090  21.182  11.591
74353W        W46613  21.142  13.234  10.959
74354W        W46614  31.579  32.508  14.433
74355W        W46615  24.988  14.106  14.868
74356W        W46616   6.886  25.013   2.269
74357W        W46617  28.033  19.130   4.791
74358W        W46618  35.443  36.403  14.332
74359W        W46619  22.545  17.233   1.211
74360W        W46620  25.516  30.125  13.024
74361W        W46621  17.633   5.213  14.300
74362W        W46622  10.140  28.084  13.839
74363W        W46623  36.867  15.223  11.934
74364W        W46624  33.106  35.424   4.233
74365W        W46625  28.174   4.401  12.079
74366W        W46626  25.167  39.848  10.518
74367W        W46627  10.795  29.115   4.195
74368W        W46628  14.278  36.572   3.320
74369W        W46629   9.170  12.361  14.392
74370W        W46630  22.713   1.873   1.295
74371W        W46631  24.132  43.475  13.912
74372W        W46632  39.455  22.637   0.275
74373W        W46633  42.424  21.143  12.553
74374W        W46634  11.686  41.357   4.709
74375W        W46635  39.879  26.625  11.897
74376W        W46636  12.148  38.340  12.378
74377W        W46637  17.294  30.105   0.865
74378W        W46638  38.981  36.527   3.785
74379W        W46639  21.586   6.296   2.722
74380W        W46640  19.220  39.990   0.829
74381W        W46641  40.949  27.502  14.926
74382W        W46642  19.216  20.062  13.834
74383W        W46643  29.456  35.857   4.265
74384W        W46644   3.739  33.110  14.366
74385W        W46645  10.711  37.560   3.786
74386W        W46646  10.232  35.562  13.838
74387W        W46647  39.059  37.397  13.960
74388W        W46648  11.342   8.161   0.362
74389W        W46649  21.747  15.268   3.287
74390W        W46650  13.648  31.043  10.539
74391W        W46651  28.082   4.212  13.018
74392W        W46652  43.008  41.998  13.336
74393W        W46653  41.992  44.483   1.220
74394W        W46654  24.200  42.989   2.759
74395W        W46655  12.288  13.220  10.905
74396W        W46656  12.215  36.495  12.874
74397W        W46657  34.965  29.077  11.017
74398W        W46658  14.767  44.446  13.518
74399W        W46659  22.585  39.529   1.758
74400W        W46660  27.482  32.898   1.222
74401W        W46661   2.962  43.808   3.637
74402W        W46662  17.276  16.713   5.309
74403W        W46663  32.400  36.593   1.433
74404W        W46664  26.548  26.465   1.757
74405W        W46665  35.484   0.972   1.426
74406W        W46666  33.578  37.343  14.008
74407W        W46667  34.414  18.147   2.183
74408W        W46668  20.095  38.554   3.325
74409W        W46669  34.536   6.263  11.959
74410W        W46670   6.230  37.992  11.092
74411W        W46671  30.557  40.917   2.876
74412W        W46672   9.757   5.219  13.946
74413W        W46673  17.148  34.535   3.202
74414W        W46674  21.560  41.301   4.329
74415W        W46675  35.053  42.846  12.938
74416W        W46676  37.074  37.990  10.439
74417W        W46677   7.811  17.079   1.427
74418W        W46678  27.098   9.232   1.862
74419W        W46679  31.411  43.457   0.846
74420W        W46680  15.786   8.197   3.279
74421W        W46681  18.782  34.517   0.806
74422W        W46682   3.751   7.225  11.118
74423W        W46683   4.213  22.514   4.349
74424W        W46684  19.156   2.406   4.799
74425W        W46685  38.015  38.411   4.831
74426W        W46686  36.560  44.267  11.955
74427W        W46687   5.928  14.320   4.615
74428W        W46688  37.357  19.070   1.322
74429W        W46689  18.775  29.604   4.827
74430W        W46690  20.099   7.194   9.943
74431W        W46691   2.365  33.381   2.398
74432W        W46692   1.238  39.962   3.321
74433W        W46693   9.329  18.700  10.607
74434W        W46694   9.698  21.259  14.908
74435W        W46695  40.864  29.468  12.996
74436W        W46696  20.696  28.621   4.281
74437W        W46697  31.496  22.553  13.878
74438W        W46698  38.877  12.712  10.585
74439W        W46699   7.326   3.862  11.474
74440W        W46700   6.850  44.340   4.211
74441W        W46701  14.720  37.064  11.536
74442W        W46702   8.755  36.971  11.904
74443W        W46703  33.409  29.572   1.437
74444W        W46704  35.473  30.979   0.286
74445W        W46705  28.990  17.636  11.040
74446W        W46706  13.811  10.709  12.045
74447W        W46707   6.407  14.671  10.558
74448W        W46708  27.471   1.891   1.838
74449W        W46709  38.030  36.578  14.414
74450W        W46710  32.472  17.225  13.863
74451W        W46711   3.937  12.802  13.971
74452W        W46712  21.051  22.570   1.811
74453W        W46713  11.789   1.973   9.983
74454W        W46714  12.214  34.529  12.942
74455W        W46715  38.877   0.973  12.893
74456W        W46716  13.843  27.556   3.255
74457W        W46717   7.281  44.307  13.841
74458W        W46718  15.194  15.131  13.974
74459W        W46719  26.467  12.357   4.655
74460W        W46720  36.844   3.358   0.874
74461W        W46721  35.518  14.717   3.375
74462W        W46722  32.030   5.916   3.690
74463W        W46723  38.507  44.990   4.293
74464W        W46724  18.292  33.026  13.447
74465W        W46725   9.761  12.727  13.344
74466W        W46726  32.042  31.516   4.600
74467W        W46727   4.831  41.395  10.577
74468W        W46728  27.070   3.323  14.287
74469W        W46729  21.121  35.055  12.936
74470W        W46730   6.310  21.517   1.221
74471W        W46731  19.283   4.780   2.800
74472W        W46732  12.331  44.896  14.277
74473W        W46733  16.678  25.015  10.550
74474W        W46734   8.757   2.860   1.233
74475W        W46735  44.477  35.912  10.917
74476W        W46736  43.932  26.638   3.331
74477W        W46737   7.749  23.198  12.421
74478W        W46738  27.992  34.458  10.558
74479W        W46739  44.816  29.449   3.358
74480W        W46740  19.656  17.564  11.447
74481W        W46741  33.977  10.833   2.730
74482W        W46742  26.148  40.874  13.822
74483W        W46743   8.192  26.658   3.718
74484W        W46744  23.503  34.913  14.011
74485W        W46745  44.446  15.606  11.931
74486W        W46746  34.501  40.425   2.691
74487W        W46747   9.795   6.415   3.341
74488W        W46748   4.799  15.097   3.193
74489W        W46749  39.354  35.077   3.372
74490W        W46750  15.718  14.175  13.880
74491W        W46751  21.597  14.128   4.744
74492W        W46752  25.551  29.640  13.023
74493W        W46753   9.224   2.829   0.243
74494W        W46754   2.326  20.163   3.766
74495W        W46755  11.797  31.978   2.765
74496W        W46756  19.702  23.631   3.744
74497W        W46757  21.565   2.457   1.221
74498W        W46758  42.858   6.678   1.337
74499W        W46759  27.979   8.865   0.462
74500W        W46760   6.895   3.387   2.693
74501W        W46761   5.829  15.256  12.573
74502W        W46762  21.588  29.543  10.579
74503W        W46763  27.176  14.653  14.421
74504W        W46764   8.722  16.741   2.800
74505W        W46765  36.490   8.814  13.935
74506W        W46766  12.171  18.144  12.887
74507W        W46767  29.578  27.585  10.569
74508W        W46768   9.732  15.780  14.762
74509W        W46769   5.264  32.458  13.371
74510W        W46770   1.394  29.163   0.433
74511W        W46771  29.524  21.668   4.337
74512W        W46772  11.138  13.296   0.371
74513W        W46773  28.156  44.288   3.361
74514W        W46774  39.495   6.221   0.244
74515W        W46775   6.203  44.493   4.339
74516W        W46776  32.541  42.499  13.328
74517W        W46777  22.537   4.899   3.168
74518W        W46778  17.139  21.234   0.333
74519W        W46779  44.990  43.972   4.288
74520W        W46780  28.629  11.792   3.352
74521W        W46781   5.255  41.005   4.133
74522W        W46782  41.855  27.536   2.353
74523W        W46783  29.585  23.617  10.006
74524W        W46784  13.617  37.408  10.556
74525W        W46785  37.465  39.843   3.293
74526W        W46786  42.373   5.382   4.631
74527W        W46787  13.153  43.939  12.530
74528W        W46788  12.217  26.472   1.386
74529W        W46789   8.226   6.848  11.555
74530W        W46790   9.811  30.024  14.008
74531W        W46791  14.700   2.728  12.070
74532W        W46792  31.091  25.705   3.855
74533W        W46793   6.701  36.425  14.773
74534W        W46794   0.784  31.465   3.861
74535W        W46795  35.531  39.971  10.958
74536W        W46796  39.891  22.147  11.874
74537W        W46797  30.462  41.009   3.386
74538W        W46798  11.694  40.435   4.153
74539W        W46799  38.511   7.191  10.959
74540W        W46800  24.618  10.845  13.804
74541W        W46801  32.050  21.612  13.476
74542W        W46802   8.378  30.520  14.461
74543W        W46803   2.455  15.593   2.389
74544W        W46804  29.625  22.996  11.384
74545W        W46805  18.124  22.134   0.374
74546W        W46806  43.897  25.636  11.943
74547W        W46807  12.219  34.526  14.486
74548W        W46808  24.538  41.966  10.554
74549W        W46809   4.856  27.454   4.632
74550W        W46810  14.806  42.986   2.318
74551W        W46811  22.639  26.150   1.788
74552W        W46812   4.756  33.957  13.450
74553W        W46813   9.705  24.071  11.870
74554W        W46814  12.153   7.194  14.936
74555W        W46815  26.107   1.426   4.664
74556W        W46816  16.722  34.422  11.475
74557W        W46817  18.583  32.075  11.602
74558W        W46818  16.790  19.619   1.851
74559W        W46819  40.341  27.082  12.494
74560W        W46820  33.503  19.724   2.669
74561W        W46821  34.424  31.501   3.680
74562W        W46822  26.563  14.689  13.942
74563W        W46823  17.623  21.556  12.870
74564W        W46824   0.259  14.613   4.294
74565W        W46825  33.006  20.255  13.397
74566W        W46826  18.602   5.872  10.903
74567W        W46827  35.888  19.177  14.345
74568W        W46828  12.828  21.261  12.004
74569W        W46829  10.824  39.478   3.835
74570W        W46830   8.384  39.474   1.353
74571W        W46831  20.170  15.259   2.409
74572W        W46832  17.119  19.069   1.879
74573W        W46833  34.972  21.257   5.259
74574W        W46834  37.392  25.089   0.863
74575W        W46835  37.068  32.617   2.270
74576W        W46836   7.768   0.378  13.461
74577W        W46837  29.028  35.055   0.791
74578W        W46838  26.088  44.273   1.338
74579W        W46839  35.913   7.808   3.771
74580W        W46840  43.428  23.572   4.772
74581W        W46841  18.724   7.750  10.522
74582W        W46842  29.015  15.818  12.855
74583W        W46843  18.678  43.810  13.892
74584W        W46844  39.408  16.798   4.295
74585W        W46845  31.524  20.210   4.646
74586W        W46846  28.086  28.442  14.287
74587W        W46847  24.499  39.843   5.772
74588W        W46848  38.028   8.386  11.982
74589W        W46849  21.050  37.483  14.764
74590W        W46850  29.529   3.381   3.712
74591W        W46851  22.605  16.123  13.932
74592W        W46852   3.750  19.109   2.797
74593W        W46853  34.429  43.981   0.929
74594W        W46854  42.890  16.652  14.005
74595W        W46855  27.949  40.321   2.249
74596W        W46856  24.697  43.362   4.183
74597W        W46857   7.414  39.371  10.443
74598W        W46858   3.366  16.092   0.314
74599W        W46859  26.497  37.406   0.860
74600W        W46860   6.693  19.576   1.292
74601W        W46861  42.280  33.955   1.930
74602W        W46862   9.373  44.825   1.882
74603W        W46863  14.289  33.533   0.781
74604W        W46864  12.216  27.613   2.228
74605W        W46865  17.061  35.887   3.833
74606W        W46866   1.741  42.919  11.394
74607W        W46867  20.157  14.761  12.918
74608W        W46868  40.838  13.341   2.376
74609W        W46869  22.514  20.088   3.763
74610W        W46870  13.738   9.858  14.354
74611W        W46871  25.498  32.133  12.428
74612W        W46872  41.892   7.370  12.574
74613W        W46873  40.876  20.274  12.939
74614W        W46874   9.653   7.330   1.368
74615W        W46875  17.083  12.722   1.897
74616W        W46876  11.185   5.428   0.249
74617W        W46877   9.868  25.551   3.764
74618W        W46878  27.500   8.376  11.083
74619W        W46879  33.460   6.304  14.436
74620W        W46880  39.546  15.742   5.142
74621W        W46881  13.708  29.645  10.999
74622W        W46882  36.999  38.489   4.280
74623W        W46883  33.619   0.386   1.357
74624W        W46884  43.903  27.621  14.390
74625W        W46885  39.043  21.183   4.162
74626W        W46886  17.651  25.501   4.317
74627W        W46887  32.021   3.277   2.268
74628W        W46888   8.349   3.396   4.324
74629W        W46889  27.689   4.296   3.644
74630W        W46890  22.657  38.025   4.134
74631W        W46891  14.271  36.071   3.802
74632W        W46892  28.637  26.966  14.854
74633W        W46893  18.590   4.736  13.358
74634W        W46894  25.518   3.743   4.664
74635W        W46895  11.195  43.344  12.927
74636W        W46896   2.856  25.186   0.433
74637W        W46897  23.636  42.335  12.351
74638W        W46898   8.186  22.077  12.942
74639W        W46899  18.780  28.161  10.161
74640W        W46900  25.162  21.174   2.757
74641W        W46901  15.624  14.589   1.928
74642W        W46902   0.971   0.327   0.471
74643W        W46903  43.929   1.944  14.355
74644W        W46904  23.023  24.527   2.367
74645W        W46905  42.377  24.553   1.817
74646W        W46906  27.465   2.438   2.784
74647W        W46907   9.768  40.537   1.390
74648W        W46908  15.772  38.036  10.405
74649W        W46909  15.721   9.666   3.858
74650W        W46910  42.946   7.910   4.743
74651W        W46911   6.279   9.171  10.463
74652W        W46912   7.397   3.417  11.090
74653W        W46913  22.062  28.970   0.483
74654W        W46914  14.152  33.129  13.811
74655W        W46915   4.379  28.488  14.393
74656W        W46916  28.180  42.982   2.259
74657W        W46917  28.549  24.224   2.347
74658W        W46918  13.635   1.346  12.487
74659W        W46919  39.418  43.314   2.894
74660W        W46920   8.345  20.673   0.333
74661W        W46921  22.012  37.363  14.954
74662W        W46922  26.992  31.410  14.902
74663W        W46923  37.502   2.238   2.331
74664W        W46924  13.651   0.780   0.798
74665W        W46925  26.096  40.002   4.196
74666W        W46926  11.820  40.418  14.947
74667W        W46927  33.995  19.051  13.414
74668W        W46928  31.455   2.918   0.831
74669W        W46929  25.676  15.126  12.350
74670W        W46930  43.974   1.927   4.608
74671W        W46931  43.501  18.601   3.661
74672W        W46932   5.203  36.912  11.565
74673W        W46933  32.561  44.933  13.817
74674W        W46934  41.499  33.564   4.117
74675W        W46935  29.596  43.411   3.366
74676W        W46936   5.914   3.322  14.956
74677W        W46937  21.672  33.031   1.696
74678W        W46938  33.406   9.284  11.520
74679W        W46939   0.273  20.231   1.704
74680W        W46940  24.480   6.862   0.348
74681W        W46941   5.918  22.653   1.899
74682W        W46942  33.437   8.303   4.741
74683W        W46943  33.991  39.384  11.477
74684W        W46944  42.396   7.668  13.795
74685W        W46945  34.877  43.316  12.897
74686W        W46946  40.330  29.637  12.579
74687W        W46947  30.048   7.907   0.479
74688W        W46948  42.428  28.520   0.762
74689W        W46949  22.532  33.538   0.446
74690W        W46950  11.764   1.383   0.263
74691W        W46951   8.876   3.224   2.190
74692W        W46952  21.599  19.060  11.078
74693W        W46953  32.904  26.664  10.929
74694W        W46954  35.890   9.246  13.041
74695W        W46955   7.899  39.345  14.891
74696W        W46956   2.859  26.646  13.925
74697W        W46957  43.425  14.103   4.698
74698W        W46958  41.868  18.577   3.283
74699W        W46959   5.421  10.238  12.843
74700W        W46960  43.481  21.671  13.923
74701W        W46961   7.212  38.438  10.470
74702W        W46962   0.398   5.326  11.961
74703W        W46963  44.945  31.507   0.743
74704W        W46964  29.479  37.039  12.393
74705W        W46965  24.062  16.129  13.939
74706W        W46966  20.723  37.869  14.957
74707W        W46967  11.176   5.288   4.261
74708W        W46968  18.733   3.804   2.182
74709W        W46969   6.745  20.627  11.441
74710W        W46970  41.786  15.786  10.558
74711W        W46971   1.872  17.287  14.441
74712W        W46972   0.799  36.842   0.385
74713W        W46973  12.755  32.978   4.768
74714W        W46974   6.923   6.862  14.017
74715W        W46975  17.782  41.403  12.542
74716W        W46976  37.582  14.682   4.179
74717W        W46977  15.674  10.770   1.776
74718W        W46978  44.412   1.750   1.301
74719W        W46979  20.601   4.900  12.537
74720W        W46980  41.982  43.888  14.294
74721W        W46981  31.093  39.985   3.802
74722W        W46982   6.813  39.534  11.391
74723W        W46983  27.041  40.827   1.878
74724W        W46984  34.067  11.191   0.396
74725W        W46985   8.794  17.307   3.806
74726W        W46986  37.514  20.262   0.295
74727W        W46987  33.953  28.045  10.927
74728W        W46988  35.935   0.344   0.316
74729W        W46989  29.978  35.409  12.867
74730W        W46990   3.922  17.236   4.685
74731W        W46991  29.100  30.568  14.414
74732W        W46992  40.404  43.298   0.845
74733W        W46993  41.797  36.050  11.536
74734W        W46994   7.415  25.095   0.840
74735W        W46995  20.581  30.501   0.304
74736W        W46996   8.785  39.366   3.284
74737W        W46997  40.851  15.734  13.368
74738W        W46998  35.541  35.559   4.711
74739W        W46999   0.896  29.505  10.589
74740W        W47000  29.657  23.529  10.468
74741W        W47001  13.616   9.161  12.553
74742W        W47002  22.214  26.632  11.596
74743W        W47003  32.497  14.594   2.338
74744W        W47004  11.242  15.668   4.641
74745W        W47005  19.614  11.813  14.781
74746W        W47006  12.361  20.041   2.390
74747W        W47007  17.066  40.973  13.511
74748W        W47008  31.019  32.010   5.744
74749W        W47009   7.746  27.958  10.549
74750W        W47010   3.224  29.568   0.420
74751W        W47011  41.009  12.182   2.777
74752W        W47012  12.789  34.539   4.741
74753W        W47013  24.006  36.021  10.073
74754W        W47014  38.379  31.112   4.790
74755W        W47015  32.462  29.145  13.043
74756W        W47016  31.114  10.211  10.104
74757W        W47017  30.157  43.861   1.333
74758W        W47018  19.155  15.222  14.503
74759W        W47019  42.373  25.144   4.640
74760W        W47020  38.897  21.729   4.759
74761W        W47021  26.191  17.151  14.926
74762W        W47022  31.978  12.760  12.487
74763W        W47023  26.206   0.258  10.588
74764W        W47024  11.764  35.054   4.621
74765W        W47025  10.338   3.457   4.687
74766W        W47026  13.116   2.776  11.606
74767W        W47027   8.878  13.280   0.755
74768W        W47028  12.201   9.173  13.848
74769W        W47029   0.332  44.871  14.777
74770W        W47030   4.728   8.665  13.055
74771W        W47031   4.821  13.810  13.400
74772W        W47032  44.867  36.522   0.883
74773W        W47033   1.805  27.072  10.959
74774W        W47034  12.120  16.599   4.821
74775W        W47035  28.128  32.397   2.896
74776W        W47036  30.007  41.921  11.416
74777W        W47037  13.323  36.915  14.952
74778W        W47038  43.992  23.657  13.832
74779W        W47039   1.480  35.904  14.764
74780W        W47040  17.702  24.097  12.001
74781W        W47041  11.712  44.892  10.992
74782W        W47042  44.828   9.392  12.878
74783W        W47043  38.923  24.062  12.880
74784W        W47044  38.917  39.941  14.793
74785W        W47045   8.885  27.021  11.401
74786W        W47046  11.694  23.138  13.050
74787W        W47047  12.155  30.641  13.494
74788W        W47048   0.384   4.767  12.571
74789W        W47049   1.337  41.345   1.702
74790W        W47050   7.894   2.735  11.572
74791W        W47051  26.070   2.803  11.992
74792W        W47052   8.794  33.490  11.579
74793W        W47053  39.895  25.587   2.834
74794W        W47054  36.448  11.198   1.730
74795W        W47055   3.358  34.416  11.864
74796W        W47056  15.704   2.873  14.502
74797W        W47057  18.733   1.866   1.314
74798W        W47058  38.370  23.695  11.875
74799W        W47059  39.517  32.478   0.951
74800W        W47060  39.857  23.595   0.896
74801W        W47061  13.769   9.804   2.772
74802W        W47062  20.106  27.168  12.526
74803W        W47063  44.308   6.211  12.505
74804W        W47064  26.008  43.453   3.348
74805W        W47065  24.190  31.534  12.475
74806W        W47066  27.191  16.231  14.888
74807W        W47067  30.415  28.033  14.992
74808W        W47068  39.314  23.650   2.314
74809W        W47069   2.781   5.745  14.028
74810W        W47070  31.639  20.152  14.312
74811W        W47071  14.284  37.580   2.877
74812W        W47072  12.674  16.737   0.924
74813W        W47073  19.062  23.520  13.513
74814W        W47074  21.155   1.806   3.804
74815W        W47075  40.363  23.000   2.193
74816W        W47076  35.447  16.072   3.780
74817W        W47077  27.048  41.959  14.921
74818W        W47078  23.989  24.196  12.840
74819W        W47079  41.788  12.227  14.421
74820W        W47080   6.815  21.058   4.725
74821W        W47081  19.178  31.004  14.300
74822W        W47082  34.062   1.433   4.631
74823W        W47083  36.945   1.438   0.819
74824W        W47084  11.740  33.931  13.907
74825W        W47085   1.353  31.511   1.810
74826W        W47086  10.867  18.717  13.881
74827W        W47087  35.920  29.925   3.659
74828W        W47088  15.707  36.493   2.697
74829W        W47089  15.324  40.455   2.372
74830W        W47090  11.750  30.619   0.754
74831W        W47091   6.871  44.842  14.778
74832W        W47092  39.949  23.162  12.020
74833W        W47093  42.910  29.656  13.308
74834W        W47094  14.107   8.793   1.368
74835W        W47095   7.354  34.397   1.363
74836W        W47096  13.837   7.778   3.645
74837W        W47097  32.098  24.100   2.767
74838W        W47098  13.255  42.011   2.753
74839W        W47099  18.587   9.333  11.974
74840W        W47100  16.771  24.074   0.960
74841W        W47101  13.277  16.694   2.746
74842W        W47102  33.393  23.989   2.774
74843W        W47103  25.641   7.393   1.826
74844W        W47104  35.072  44.359  13.951
74845W        W47105  38.504  15.208   1.280
74846W        W47106  19.594  40.384  14.512
74847W        W47107  21.603  21.685  13.481
74848W        W47108  31.087   6.426   1.397
74849W        W47109  15.260  28.042  11.432
74850W        W47110  30.010  12.843  11.426
74851W        W47111  43.851  34.106   2.902
74852W        W47112  21.712  21.602  12.513
74853W        W47113  18.769   1.925   2.346
74854W        W47114  18.092  37.387   2.307
74855W        W47115  28.524  39.468  12.938
74856W        W47116  27.029  17.154  10.072
74857W        W47117  44.912  18.637  14.927
74858W        W47118  38.404  44.382   0.483
74859W        W47119  35.569   0.265  11.080
74860W        W47120  43.766  16.315  13.849
74861W        W47121   5.752   6.843  10.435
74862W        W47122  18.625  26.129   4.763
74863W        W47123   1.473  20.114  12.431
74864W        W47124  34.370  27.612   2.885
74865W        W47125  41.364  23.554   1.874
74866W        W47126  15.703  14.146   1.237
74867W        W47127  36.006   5.435   3.746
74868W        W47128  32.972  13.179  12.977
74869W        W47129   2.769   1.834   2.219
74870W        W47130  33.564  33.445   3.703
74871W        W47131  15.795  21.662   0.862
74872W        W47132  25.480  30.023   3.632
74873W        W47133   7.199  21.175  13.810
74874W        W47134  22.688   0.309   2.772
74875W        W47135  38.907  21.698   2.204
74876W        W47136   0.768  14.259   2.758
74877W        W47137   3.386  14.635  12.459
74878W        W47138   0.398  42.286  10.446
74879W        W47139  27.054   9.234  14.935
74880W        W47140  10.771   9.198   1.768
74881W        W47141  37.432   8.183   1.805
74882W        W47142  23.570   2.786   0.322
74883W        W47143  33.053  15.811   2.715
74884W        W47144  28.106  22.097  12.885
74885W        W47145  36.926  27.030  12.465
74886W        W47146  23.104  13.746  14.313
74887W        W47147   2.946  33.614   2.755
74888W        W47148  30.552  41.504   4.764
74889W        W47149  33.978   4.255  12.954
74890W        W47150  37.566   8.253   4.823
74891W        W47151   5.719  44.876   0.830
74892W        W47152  13.182  32.057   2.242
74893W        W47153  25.034  12.263  11.078
74894W        W47154   7.250  30.046  13.037
74895W        W47155  33.928  19.676  11.947
74896W        W47156  22.209  26.528  13.828
74897W        W47157  15.670  25.541   2.254
74898W        W47158  32.056   2.921  14.001
74899W        W47159  17.071  41.410  12.412
74900W        W47160  24.088  44.952  11.913
74901W        W47161  29.052  25.978   1.788
74902W        W47162  36.544  28.186  14.971
74903W        W47163  40.337  29.032   2.866
74904W        W47164   7.701  14.337  14.849
74905W        W47165  32.503  30.498   3.234
74906W        W47166  26.497   2.762   0.466
74907W        W47167  33.589  35.396  13.522
74908W        W47168  14.759  18.624  10.631
74909W        W47169  19.192  23.056   3.302
74910W        W47170   0.269  16.238   1.925
74911W        W47171  20.159  33.604  13.355
74912W        W47172   5.698  39.416   0.870
74913W        W47173  28.594  10.724   4.163
74914W        W47174  37.889  33.420  10.987
74915W        W47175  34.513   6.724   3.668
74916W        W47176  14.821  36.000  12.078
74917W        W47177  41.534   2.795   3.739
74918W        W47178  37.386  24.720  11.105
74919W        W47179  15.090  12.775   0.289
74920W        W47180  25.570   9.154   1.720
74921W        W47181  23.731  32.610   3.347
74922W        W47182   5.816  12.188  14.395
74923W        W47183  14.300  13.684   4.674
74924W        W47184  42.353  25.654   3.365
74925W        W47185  21.585  40.019  11.484
74926W        W47186   8.251  20.763  12.415
74927W        W47187   3.794  13.343   0.829
74928W        W47188   3.260  26.994   3.744
74929W        W47189   6.867  26.112  10.473
74930W        W47190  21.649  11.832   1.695
74931W        W47191  14.252  43.901  10.458
74932W        W47192   4.714  29.092   4.732
74933W        W47193   4.221  29.524  14.356
74934W        W47194   6.795  37.865  13.860
74935W        W47195  43.782   1.315  12.076
74936W        W47196  39.484  14.232   4.639
74937W        W47197  37.576  12.844   0.784
74938W        W47198  29.924  14.123  12.873
74939W        W47199  41.921   5.242  12.054
74940W        W47200  31.973   1.384   3.693
74941W        W47201   4.872   3.232   4.733
74942W        W47202  28.968   5.770  12.442
74943W        W47203   9.358  35.995   9.989
74944W        W47204  30.122  40.941  11.512
74945W        W47205  17.097  17.576   3.683
74946W        W47206  41.832  24.993   4.260
74947W        W47207  11.252  38.889  13.873
74948W        W47208  12.672  39.902   3.672
74949W        W47209  18.151  43.290   4.727
74950W        W47210  32.095  31.082  10.635
74951W        W47211   6.310  24.705   3.327
74952W        W47212  35.597  10.271   4.763
74953W        W47213  27.485  20.641  11.500
74954W        W47214  24.547  36.575  11.494
74955W        W47215  37.408  24.583   4.138
74956W        W47216  38.002  27.447   4.143
74957W        W47217   8.205  30.147   3.702
74958W        W47218  31.608  34.035   4.795
74959W        W47219  37.385  11.204  12.458
74960W        W47220  25.194  39.065   0.801
74961W        W47221  32.023  17.083   3.782
74962W        W47222  36.504   6.358   3.205
74963W        W47223  24.076  43.397  12.887
74964W        W47224  16.675  22.638  10.953
74965W        W47225   3.230  33.578   3.243
74966W        W47226  33.455  39.558   3.644
74967W        W47227  23.509   0.941   1.264
74968W        W47228  42.019   4.421   0.738
74969W        W47229  29.659  10.271   3.861
74970W        W47230   1.470  30.514   0.372
74971W        W47231  26.103   3.333  12.878
74972W        W47232  42.843  13.631   0.798
74973W        W47233  31.981  11.146   2.319
74974W        W47234  22.732  14.607  13.347
74975W        W47235  22.546  24.168   1.266
74976W        W47236  32.521  42.315  11.036
74977W        W47237  11.169  40.009   2.282
74978W        W47238  38.421  32.074   1.732
74979W        W47239  16.705  31.950  11.547
74980W        W47240   9.303  29.463   3.802
74981W        W47241  13.712  26.657   3.693
74982W        W47242  11.657  27.980   4.625
74983W        W47243  14.832  30.931  10.640
74984W        W47244   3.913  34.893  11.963
74985W        W47245  33.057  41.468   0.412
74986W        W47246  33.535  19.586  14.818
74987W        W47247   9.357   8.252   1.793
74988W        W47248  25.493  22.137  13.921
74989W        W47249  24.175  14.809   2.862
74990W        W47250  15.667  33.973  11.898
74991W        W47251  42.311  31.972  10.561
74992W        W47252  32.056  15.787  10.950
74993W        W47253   6.723  29.172   1.864
74994W        W47254  23.080   9.761  11.559
74995W        W47255  25.086  24.173  12.376
74996W        W47256   6.418   2.952  13.831
74997W        W47257  20.608   0.343  11.127
74998W        W47258  31.607  36.920   1.839
74999W        W47259  15.121   7.695  13.990
75000W        W47260   0.406  43.275   2.784
75001W        W47261   3.926  10.709   0.757
75002W        W47262  44.385  42.858   2.306
75003W        W47263   2.858  40.317   3.327
75004W        W47264  27.637  14.667   1.722
75005W        W47265  42.780  14.232   0.446
75006W        W47266   4.384  10.178   1.865
75007W        W47267   6.411  18.740  12.953
75008W        W47268  30.483  29.145  12.998
75009W        W47269  21.681  23.617  13.374
75010W        W47270   5.705  15.108  10.420
75011W        W47271  40.309  24.550   1.752
75012W        W47272  27.061  30.644   1.389
75013W        W47273   6.722  22.554   1.423
75014W        W47274  38.414  29.634  14.384
75015W        W47275  21.682   7.198  11.527
75016W        W47276  15.185  16.110   1.421
75017W        W47277  17.069  13.209  13.954
75018W        W47278  29.027  30.556   5.163
75019W        W47279   5.689  23.998   0.823
75020W        W47280  31.602  32.502  13.513
75021W        W47281  19.251  15.811   4.731
75022W        W47282  16.626  22.726   1.246
75023W        W47283  11.847  19.208  14.336
75024W        W47284  22.115   8.356  12.502
75025W        W47285  43.373  18.759   1.290
75026W        W47286  35.587  43.490  10.424
75027W        W47287  28.468  21.261   0.431
75028W        W47288   1.448  42.942  10.480
75029W        W47289   9.244  20.705  13.392
75030W        W47290  20.189  17.713  10.548
75031W        W47291   5.755  44.383  12.087
75032W        W47292  23.498  44.434   2.800
75033W        W47293  21.174  18.155  14.950
75034W        W47294   9.879  15.267  11.118
75035W        W47295  29.566   9.844   2.339
75036W        W47296  10.252  22.572   3.722
75037W        W47297  15.096  10.663  11.021
75038W        W47298  23.600  11.237  13.008
75039W        W47299   9.671  41.853   4.628
75040W        W47300   8.406  14.114  11.915
75041W        W47301   0.881  42.010   1.443
75042W        W47302  19.567  21.093   4.717
75043W        W47303  34.005  12.252   2.204
75044W        W47304  20.192  16.653   0.479
75045W        W47305  30.066  37.541  10.585
75046W        W47306  42.430   4.917  11.564
75047W        W47307  26.108   5.356  14.871
75048W        W47308  29.665   3.383   1.713
75049W        W47309   9.673  32.913  11.076
75050W        W47310  24.978  10.765  12.484
75051W        W47311  15.713  27.094  14.966
75052W        W47312  18.289  42.506  13.821
75053W        W47313  26.614   8.803  11.070
75054W        W47314  12.636  15.816  14.876
75055W        W47315   3.840  32.523   3.182
75056W        W47316   9.711  28.001   0.894
75057W        W47317  28.018  42.786  10.034
75058W        W47318  37.419  28.937  12.874
75059W        W47319   2.779   5.422   4.799
75060W        W47320  24.984  39.843  13.406
75061W        W47321  38.975  28.081   2.746
75062W        W47322  37.942  23.227  14.029
75063W        W47323  35.563  13.324  10.919
75064W        W47324  42.513   2.926  12.488
75065W        W47325  20.238  40.303  10.013
75066W        W47326  15.606  44.505   1.896
75067W        W47327  16.283  10.730   3.194
75068W        W47328  22.212  26.565   0.371
75069W        W47329  26.126  34.915  12.072
75070W        W47330  17.652  34.548   0.823
75071W        W47331   7.252  14.759   1.771
75072W        W47332  17.790  22.506   2.242
75073W        W47333  36.408   2.354   1.228
75074W        W47334  15.217  29.139   2.395
75075W        W47335  39.060  44.806   4.626
75076W        W47336  12.716  21.715   4.230
75077W        W47337  15.761  29.640  11.531
75078W        W47338  28.148   2.876  13.493
75079W        W47339  22.644   0.349  10.982
75080W        W47340  25.045  23.143  13.027
75081W        W47341   4.903  28.982   3.175
75082W        W47342  34.550  16.586   3.196
75083W        W47343  38.031  27.059  14.005
75084W        W47344   8.377   4.816  14.801
75085W        W47345  32.111   9.244  13.444
75086W        W47346  19.283   6.260   4.293
75087W        W47347   1.471  25.704   3.226
75088W        W47348  39.378  39.439  13.472
75089W        W47349  31.555  28.509  10.413
75090W        W47350   1.952  39.314  13.327
75091W        W47351  36.965  36.846  14.472
75092W        W47352  35.505  38.497  14.830
75093W        W47353  23.049  26.099  14.927
75094W        W47354   8.332  16.715  14.925
75095W        W47355  17.781   1.374   4.775
75096W        W47356  35.585  44.993  12.507
75097W        W47357  21.734  22.553  13.859
75098W        W47358  35.003  11.281  14.882
75099W        W47359   8.822   5.284   1.319
75100W        W47360   4.861   4.373   3.289
75101W        W47361   4.809  15.747   4.623
75102W        W47362  22.609  30.541   3.340
75103W        W47363   9.373  23.672  10.953
75104W        W47364   1.861  30.976   1.794
75105W        W47365  15.824  40.921   0.885
75106W        W47366  16.660   7.856  11.375
75107W        W47367  30.557  39.934   3.804
75108W        W47368  33.390   8.835   0.336
75109W        W47369  44.946  43.767  11.580
75110W        W47370  19.230  19.683   2.722
75111W        W47371  31.558  24.592  13.492
75112W        W47372  16.302   2.742   4.184
75113W        W47373  40.864  35.977   2.209
75114W        W47374  19.740   5.821  13.325
75115W        W47375  32.470  34.076   3.286
75116W        W47376  31.424  40.309   1.243
75117W        W47377  27.957  30.972   4.225
75118W        W47378   7.187  29.549   3.305
75119W        W47379  33.438  29.657   0.338
75120W        W47380   8.674  32.140  12.880
75121W        W47381  30.564  40.885  10.900
75122W        W47382  38.903  44.434  10.424
75123W        W47383  29.633  12.847  11.904
75124W        W47384   0.880  10.379  10.533
75125W        W47385   7.257  23.497   2.265
75126W        W47386  20.068  29.163   4.287
75127W        W47387  22.084  40.517   0.730
75128W        W47388  42.863  21.646   4.297
75129W        W47389   7.231  32.021   1.742
75130W        W47390   3.316  19.754  14.828
75131W        W47391  21.703  20.157  11.410
75132W        W47392  41.325  30.595   3.200
75133W        W47393  34.432  13.292   3.859
75134W        W47394   7.826  13.264  10.896
75135W        W47395  15.613  14.720  13.404
75136W        W47396  10.239  21.756   0.781
75137W        W47397  44.824  18.552   0.824
75138W        W47398  41.916  33.548  11.951
75139W        W47399  40.452  38.077   1.881
75140W        W47400   6.897  30.915  12.422
75141W        W47401  25.146  33.405   2.740
75142W        W47402  10.210  14.775  13.056
75143W        W47403   2.844  39.819  14.818
75144W        W47404  35.018  13.777  13.904
75145W        W47405  23.104  16.292  11.873
75146W        W47406  11.344  26.589   4.150
75147W        W47407  27.606  21.630   0.782
75148W        W47408  20.583  32.890   2.701
75149W        W47409  29.038   1.301  12.008
75150W        W47410   2.443  30.485   4.318
75151W        W47411  37.534   3.770   2.407
75152W        W47412  22.176  19.645   1.300
75153W        W47413  11.702  37.516   4.723
75154W        W47414  31.033   1.256   4.330
75155W        W47415   2.362  37.536  14.949
75156W        W47416   8.880  18.610  13.433
75157W        W47417  37.872  17.288   1.385
75158W        W47418  34.043  17.572   3.185
75159W        W47419   2.762  20.164  10.910
75160W        W47420  39.918   7.410   0.257
75161W        W47421  34.912  19.615   0.453
75162W        W47422  19.065  39.973  10.984
75163W        W47423  33.015  41.893  13.012
75164W        W47424  24.538  11.165  12.418
75165W        W47425  37.403  18.637  11.984
75166W        W47426   4.269  27.072   1.396
75167W        W47427   0.920   9.386  13.816
75168W        W47428   2.418  41.331  12.965
75169W        W47429  25.015   8.849  12.075
75170W        W47430  29.656  27.625  13.312
75171W        W47431   6.817  27.618  10.078
75172W        W47432  25.468   5.369   4.747
75173W        W47433  28.495  34.901  12.443
75174W        W47434  23.601  30.153   4.257
75175W        W47435  44.791  30.985   4.239
75176W        W47436  20.136  38.920  10.023
75177W        W47437  17.586   8.362   3.650
75178W        W47438  17.691  36.921   2.814
75179W        W47439  28.041  35.890  13.978
75180W        W47440  20.222  10.860   1.306
75181W        W47441   7.817  33.547   2.181
75182W        W47442  18.104   0.799   0.404
75183W        W47443  21.067  31.593  11.528
75184W        W47444  18.601  28.560  11.012
75185W        W47445  38.042   7.911  13.460
75186W        W47446  20.690  30.540   3.762
75187W        W47447  30.603  10.848   0.784
75188W        W47448  36.917  38.006   0.828
75189W        W47449  37.442  42.468   0.778
75190W        W47450  44.761   6.182  10.467
75191W        W47451  26.029  11.792   3.191
75192W        W47452  27.497  27.467  12.865
75193W        W47453  27.653   9.867  12.891
75194W        W47454  30.941  20.075   1.284
75195W        W47455  35.072  12.852   2.740
75196W        W47456  12.706   9.247   3.226
75197W        W47457  29.120  29.464  13.046
75198W        W47458   3.237  42.469   1.928
75199W        W47459  22.103  14.228  10.504
75200W        W47460   6.702  10.679   4.256
75201W        W47461   9.237  42.301  14.870
75202W        W47462  43.882  31.964   1.276
75203W        W47463  29.589  31.917   1.892
75204W        W47464   7.286  13.267   0.476
75205W        W47465  41.967  16.193   1.215
75206W        W47466  21.223  12.222  10.917
75207W        W47467  19.192  28.180  10.583
75208W        W47468  41.503  19.109  11.904
75209W        W47469  28.976  13.263  12.498
75210W        W47470  38.526  26.042   1.928
75211W        W47471  10.866   7.402   3.152
75212W        W47472   6.324  32.943   0.772
75213W        W47473  15.107  31.445   1.806
75214W        W47474  31.643  21.227  12.859
75215W        W47475  38.962  14.241  12.937
75216W        W47476  42.990  36.918   3.821
75217W        W47477  12.782  26.645   2.229
75218W        W47478   3.851   0.469  12.461
75219W        W47479  38.937  32.993   1.261
75220W        W47480  25.202  18.636  11.385
75221W        W47481  38.859  11.171   3.774
75222W        W47482   9.167   2.849   2.678
75223W        W47483  38.328  12.353  12.049
75224W        W47484  18.183  30.995   1.845
75225W        W47485   5.310  25.665  11.385
75226W        W47486  11.135  41.334  13.839
75227W        W47487  38.065  23.517   0.288
75228W        W47488  40.425  44.260   4.654
75229W        W47489  14.258  20.536  11.527
75230W        W47490  18.672  24.521   0.948
75231W        W47491  41.994  27.601   1.826
75232W        W47492  42.896   1.860  14.990
75233W        W47493  17.626   5.760   4.685
75234W        W47494   6.308   7.284   2.772
75235W        W47495   1.279  21.527  11.043
75236W        W47496  13.254  27.099  11.464
75237W        W47497   9.803  36.531  13.900
75238W        W47498  14.738  33.470   0.427
75239W        W47499  29.018  36.906   4.661
75240W        W47500  37.523  41.484   1.288
75241W        W47501  35.853  17.715   1.760
75242W        W47502  44.890  21.251   0.328
75243W        W47503  30.976  14.149   4.722
75244W        W47504  36.458  26.033   3.249
75245W        W47505   8.332   2.830  13.024
75246W        W47506   2.329  33.512  14.490
75247W        W47507  26.035  37.064  13.853
75248W        W47508  34.441  44.489   1.749
75249W        W47509  41.333  25.544   2.214
75250W        W47510   9.890  15.202  12.889
75251W        W47511  24.079  25.617   1.771
75252W        W47512  17.654  14.169  14.313
75253W        W47513  44.890  37.530   4.307
75254W        W47514   5.730  37.374  13.459
75255W        W47515  11.805  42.407  12.022
75256W        W47516  31.903   4.751  10.002
75257W        W47517  20.669  14.185   2.727
75258W        W47518  35.552  42.498   2.788
75259W        W47519   6.869  35.857   0.465
75260W        W47520  17.755  39.330  14.799
75261W        W47521   8.891  14.138   4.182
75262W        W47522  26.520  18.572   1.763
75263W        W47523  16.226  28.577  13.540
75264W        W47524  16.222  26.986   3.282
75265W        W47525  26.563  44.991  13.340
75266W        W47526  36.069  41.946   2.329
75267W        W47527  35.573  29.554  14.477
75268W        W47528   4.220  16.581  12.084
75269W        W47529  15.100   5.853  10.472
75270W        W47530  31.414  10.321   0.254
75271W        W47531   8.357  22.205   1.825
75272W        W47532  19.768  20.032   3.695
75273W        W47533  37.523  37.474  12.031
75274W        W47534  29.469  32.109  13.950
75275W        W47535  38.504   8.815   4.263
75276W        W47536  44.764  21.686  11.462
75277W        W47537   5.798  11.704  11.961
75278W        W47538  25.090  29.950  14.403
75279W        W47539   9.856   8.405  14.511
75280W        W47540  38.456   2.856   3.157
75281W        W47541  29.619  10.819   4.219
75282W        W47542  33.562  35.366   1.346
75283W        W47543  25.578  40.839   5.179
75284W        W47544  34.930  38.963   5.145
75285W        W47545  37.499  14.144  14.908
75286W        W47546  43.477  39.913   0.384
75287W        W47547  24.088  42.006   1.273
75288W        W47548  37.520  18.183  11.877
75289W        W47549   5.405  43.995  12.083
75290W        W47550  11.735  24.105   4.236
75291W        W47551  39.409  29.958  13.829
75292W        W47552  11.840   8.402   1.871
75293W        W47553  13.163   6.236   1.251
75294W        W47554  14.606   9.785   2.193
75295W        W47555  12.716  24.210   4.247
75296W        W47556  41.369  31.597   1.327
75297W        W47557  33.439  18.261   3.759
75298W        W47558  19.235  40.398  14.767
75299W        W47559  12.694   1.859  11.947
75300W        W47560  22.166   1.384  12.383
75301W        W47561   3.832   5.383  13.001
75302W        W47562  27.997   9.652   3.814
75303W        W47563   9.880   1.315   4.262
75304W        W47564  29.426  13.674  14.377
75305W        W47565  21.674  11.178   4.211
75306W        W47566  17.605  38.864   3.822
75307W        W47567   3.232  14.153   5.168
75308W        W47568   8.280  36.434   2.815
75309W        W47569  23.000   3.281   0.327
75310W        W47570  29.651  44.328   0.743
75311W        W47571  34.992  25.646  13.042
75312W        W47572  12.710  36.079  14.981
75313W        W47573  39.012   2.449   0.890
75314W        W47574  29.118   7.400   3.688
75315W        W47575   5.374  39.382   2.295
75316W        W47576   9.168  11.824   3.249
75317W        W47577  23.696  15.088   2.723
75318W        W47578  34.946  30.127  12.892
75319W        W47579  16.207   6.693   0.482
75320W        W47580  39.011  35.497  13.834
75321W        W47581  40.453  41.990   0.470
75322W        W47582  14.621  38.447  13.447
75323W        W47583   0.975  39.360   3.747
75324W        W47584  38.037   0.943  10.058
75325W        W47585  15.198  14.595   4.659
75326W        W47586  35.487  39.375   4.736
75327W        W47587  28.440  11.682  11.569
75328W        W47588   6.737  42.415  12.045
75329W        W47589  36.927  25.688   4.307
75330W        W47590  35.048  43.845  11.123
75331W        W47591  41.340  15.747   3.736
75332W        W47592  39.864  42.840   4.132
75333W        W47593  25.999   0.856  13.910
75334W        W47594  40.399  18.187   2.892
75335W        W47595  39.872   6.848   3.777
75336W        W47596   7.407  33.454  13.358
75337W        W47597  35.008  12.789  10.082
75338W        W47598   5.309  35.081   0.300
75339W        W47599  34.890  13.823  14.903
75340W        W47600   6.412  37.338  13.895
75341W        W47601  37.471  20.169   2.189
75342W        W47602   6.351  40.046  11.026
75343W        W47603   2.796   5.885   4.169
75344W        W47604  12.303  11.814  12.384
75345W        W47605  18.070  13.193   0.353
75346W        W47606   2.238   7.851   3.276
75347W        W47607   9.285  36.095   4.625
75348W        W47608  19.195   1.805  14.279
75349W        W47609  36.842  43.975   4.804
75350W        W47610  36.025  27.631  14.381
75351W        W47611  19.754  37.912  11.529
75352W        W47612  44.332  42.897   0.260
75353W        W47613  16.682  42.505  14.284
75354W        W47614  42.318  36.907  11.052
75355W        W47615  18.763  33.461   3.198
75356W        W47616  13.801  10.357  11.058
75357W        W47617  22.017  11.222  10.512
75358W        W47618  11.236   5.371   2.848
75359W        W47619  22.559   3.943  11.542
75360W        W47620  17.287  36.497   3.199
75361W        W47621  11.285   0.928   1.821
75362W        W47622  34.981  28.129   2.210
75363W        W47623   0.930  15.192  11.949
75364W        W47624  31.475  25.044   1.335
75365W        W47625  10.317  36.935  10.969
75366W        W47626   6.200  28.945   3.166
75367W        W47627  44.009  39.502  10.638
75368W        W47628  22.655   8.370   3.670
75369W        W47629  18.143   0.934   2.801
75370W        W47630  40.842  23.227  11.607
75371W        W47631  13.806  11.340   0.767
75372W        W47632  20.623  38.927  14.505
75373W        W47633   4.380   1.971   3.250
75374W        W47634  15.661  37.460  11.461
75375W        W47635  11.149   1.873  14.982
75376W        W47636  13.687  23.043   0.743
75377W        W47637  22.036  10.264   4.140
75378W        W47638   7.282   3.818   0.879
75379W        W47639  36.486  38.028  13.960
75380W        W47640   1.804  21.027  11.989
75381W        W47641  22.188  25.609  12.577
75382W        W47642  21.220  25.467  12.939
75383W        W47643  29.102  27.106   0.862
75384W        W47644   5.898   1.397  13.462
75385W        W47645  10.866  41.991  12.402
75386W        W47646  12.786  10.641   3.722
75387W        W47647   9.762  40.866  11.072
75388W        W47648  11.173  13.179  11.413
75389W        W47649   3.724  14.763  14.981
75390W        W47650  10.635  33.484  10.930
75391W        W47651   0.774  22.059  13.935
75392W        W47652  44.461   9.793  12.496
75393W        W47653  20.662  22.152  13.845
75394W        W47654   3.813  39.990   1.844
75395W        W47655  43.858  22.103  12.981
75396W        W47656   9.841   9.706   4.835
75397W        W47657  36.404  28.056   4.613
75398W        W47658  12.636  32.016  14.301
75399W        W47659   9.206  40.935   1.871
75400W        W47660   3.941  35.015  13.467
75401W        W47661  13.612   3.775   0.482
75402W        W47662  19.643  10.306   0.259
75403W        W47663  18.617  14.680   2.702
75404W        W47664   7.769  25.643   4.241
75405W        W47665  17.216  28.676   4.165
75406W        W47666  20.660  16.718  12.438
75407W        W47667  32.544  24.569   2.411
75408W        W47668  39.883  37.962   0.953
75409W        W47669  26.169  13.761  10.411
75410W        W47670  26.105  35.585   1.906
75411W        W47671  12.831  44.920  10.937
75412W        W47672  16.095  23.069   4.129
75413W        W47673  12.342  32.026   1.881
75414W        W47674   8.324  35.002  11.034
75415W        W47675  11.849   8.188   2.746
75416W        W47676  13.841   3.920   3.179
75417W        W47677  33.574   5.693   4.715
75418W        W47678  12.826  30.988  10.089
75419W        W47679  28.957  24.014   0.370
75420W        W47680  44.382   6.213   0.248
75421W        W47681  23.504  38.412  13.995
75422W        W47682  19.270  13.273   4.223
75423W        W47683  18.735  28.498  12.936
75424W        W47684  33.122  18.092   4.279
75425W        W47685   1.892  44.424   0.312
75426W        W47686   4.796  16.648  14.362
75427W        W47687  23.647   9.662  14.431
75428W        W47688  29.623  29.080   1.318
75429W        W47689   8.849  42.357  14.299
75430W        W47690  43.485  42.300   3.161
75431W        W47691  41.896  10.159   5.287
75432W        W47692  33.486  11.269  13.494
75433W        W47693  32.534  20.760  12.983
75434W        W47694  35.571  30.993  11.381
75435W        W47695  18.740  19.074  14.279
75436W        W47696  27.061  34.007   4.814
75437W        W47697  28.946   9.174   0.343
75438W        W47698  30.015  34.371  13.897
75439W        W47699  25.210   5.319  11.029
75440W        W47700  33.445  26.034  14.917
75441W        W47701  32.977  34.911   1.407
75442W        W47702  26.142  40.952  14.490
75443W        W47703  34.370  27.950  13.041
75444W        W47704  21.221  31.405  14.781
75445W        W47705  13.209  35.581  13.823
75446W        W47706  43.444   6.246   4.182
75447W        W47707  13.719  24.015  14.513
75448W        W47708  22.240  22.143   0.942
75449W        W47709  34.556  24.205   1.829
75450W        W47710  32.051  20.762   0.820
75451W        W47711  34.562  19.553  13.004
75452W        W47712   4.877  10.840   4.602
75453W        W47713  42.345  28.929   4.221
75454W        W47714  23.533  19.700   4.627
75455W        W47715  11.767  23.666  13.026
75456W        W47716  38.008  26.051  12.357
75457W        W47717  40.945   7.249  14.927
75458W        W47718  37.849  19.284   3.664
75459W        W47719  41.430  22.015   0.811
75460W        W47720   6.810  13.133  10.960
75461W        W47721  18.097  12.303  11.035
75462W        W47722  28.161  23.077  11.424
75463W        W47723  27.154   5.748  10.571
75464W        W47724  42.382  17.086   1.848
75465W        W47725   1.744  10.148  10.460
75466W        W47726  27.945  44.397  14.980
75467W        W47727  29.003  28.461   0.374
75468W        W47728  18.740  15.255   3.809
75469W        W47729   7.734  26.469  12.888
75470W        W47730  17.745   1.947  11.436
75471W        W47731  15.753  40.334  10.964
75472W        W47732  16.676  44.402   0.345
75473W        W47733   5.355  42.503   4.625
75474W        W47734   1.926  25.565  12.531
75475W        W47735  21.590  18.728   0.886
75476W        W47736  43.850  30.941   1.814
75477W        W47737  42.462   3.314  12.999
75478W        W47738  26.572  33.062  11.030
75479W        W47739   2.852   5.395  10.924
75480W        W47740  22.574  26.531  13.903
75481W        W47741  35.443  37.425   4.657
75482W        W47742  11.639  25.180   3.315
75483W        W47743  33.381  39.388  13.432
75484W        W47744  38.470  12.810   0.275
75485W        W47745  28.590  40.332  10.574
75486W        W47746  15.195  19.753  12.568
75487W        W47747   7.771   2.379   2.673
75488W        W47748  22.572  30.495  10.993
75489W        W47749  26.536  31.492   3.226
75490W        W47750   6.310  21.571   3.797
75491W        W47751  18.637  20.229  12.457
75492W        W47752  28.044  12.770   0.338
75493W        W47753  15.586   6.423  10.144
75494W        W47754  32.914  27.146  10.623
75495W        W47755   9.333  23.102   1.230
75496W        W47756  38.380   3.441  12.965
75497W        W47757  13.711  16.121  13.387
75498W        W47758  37.497  37.441   1.330
75499W        W47759  25.183  22.047  14.388
75500W        W47760  18.743  11.727  12.577
75501W        W47761  35.041  44.004   4.815
75502W        W47762  24.173  37.513   2.794
75503W        W47763  37.971  10.825   3.316
75504W        W47764  36.909   8.356  14.382
75505W        W47765   0.981  13.754  14.893
75506W        W47766  33.557  16.158  10.935
75507W        W47767  43.765   6.764  12.514
75508W        W47768  39.851  27.065   3.771
75509W        W47769  40.875  19.637  11.880
75510W        W47770  17.727   9.234   0.437
75511W        W47771  19.143   0.843   3.723
75512W        W47772  12.209   6.413   1.733
75513W        W47773   4.813  30.595  13.840
75514W        W47774  37.855   8.269  13.928
75515W        W47775  20.623   4.828   0.303
75516W        W47776  27.039  37.358   5.113
75517W        W47777  13.206  37.959  14.431
75518W        W47778  38.824  28.025  10.566
75519W        W47779  43.790  26.967  12.838
75520W        W47780  42.868  19.533  11.565
75521W        W47781  32.930  19.736  10.417
75522W        W47782   4.395  14.660  10.967
75523W        W47783  26.588  20.765  10.635
75524W        W47784  37.498  23.133   4.838
75525W        W47785  24.225  21.630   3.252
75526W        W47786  11.626  38.437  10.617
75527W        W47787  20.209   4.886   3.854
75528W        W47788  34.496  29.482   4.263
75529W        W47789  36.548  19.114  13.427
75530W        W47790  31.517  27.570  13.392
75531W        W47791   9.188  17.798  11.072
75532W        W47792  18.146  34.547   0.812
75533W        W47793  10.710  22.655  12.978
75534W        W47794  13.260  18.596  14.912
75535W        W47795   1.349  12.349  14.761
75536W        W47796  37.868  41.352  11.038
75537W        W47797  28.619  31.592   1.220
75538W        W47798  37.494  37.966  10.552
75539W        W47799  37.431   4.280   4.818
75540W        W47800  19.608  14.700  11.579
75541W        W47801  11.209  31.110  12.979
75542W        W47802  24.043   7.324   2.862
75543W        W47803  37.393  19.235  11.384
75544W        W47804  19.757   6.267  14.348
75545W        W47805  44.832   1.763  13.056
75546W        W47806  42.370  28.679   3.865
75547W        W47807  14.722  30.549   9.504
75548W        W47808  40.903  36.025  12.030
75549W        W47809   7.766  21.559   3.306
75550W        W47810  41.879  23.619   2.363
75551W        W47811  31.539  25.708   1.264
75552W        W47812  42.359  38.064  12.938
75553W        W47813  38.393  37.837  12.088
75554W        W47814  14.278   8.169  14.306
75555W        W47815   0.920  36.592   0.310
75556W        W47816  44.366  17.632   0.362
75557W        W47817  30.537  41.867   3.811
75558W        W47818  22.198  27.672   1.773
75559W        W47819  17.220  13.658  14.859
75560W        W47820  25.532  37.047  14.765
75561W        W47821  41.851   7.193  10.970
75562W        W47822  27.500   7.795   2.410
75563W        W47823  30.442  13.259   1.707
75564W        W47824  36.445  17.570  13.464
75565W        W47825  27.598  20.154  14.908
75566W        W47826   5.393  43.425   4.763
75567W        W47827   4.848  28.550   1.758
75568W        W47828  37.417  39.464  14.882
75569W        W47829  41.024  12.244   3.156
75570W        W47830  27.519   3.335  12.368
75571W        W47831  12.721  42.410   2.757
75572W        W47832  27.100  44.773  13.328
75573W        W47833  40.883   8.359  11.902
75574W        W47834  26.656  33.469  11.517
75575W        W47835  33.416  42.920   0.822
75576W        W47836  30.152  36.941  12.576
75577W        W47837  43.464  18.559  11.407
75578W        W47838  31.470  16.613   2.213
75579W        W47839  43.945  15.589   2.316
75580W        W47840   1.848  44.948  12.462
75581W        W47841  10.142   4.400   2.690
75582W        W47842   1.780   1.779   0.336
75583W        W47843  36.940  37.542  13.429
75584W        W47844  19.128   1.799   2.884
75585W        W47845  29.648  44.296  14.815
75586W        W47846   7.820   7.798   1.449
75587W        W47847  33.027   6.726  13.872
75588W        W47848  34.995  42.329  11.905
75589W        W47849   3.813  16.638  11.010
75590W        W47850  27.494  34.433  13.502
75591W        W47851   4.929  43.322  12.968
75592W        W47852   7.694  33.999  11.470
75593W        W47853   7.317  33.110   2.350
75594W        W47854  44.266  18.739   1.809
75595W        W47855  17.673   2.272  14.948
75596W        W47856  29.982  28.173  14.322
75597W        W47857  38.370  32.124   0.928
75598W        W47858   7.845   1.293  11.510
75599W        W47859   9.338  39.817  13.547
75600W        W47860   7.411  14.631  11.042
75601W        W47861  28.028  15.612   1.897
75602W        W47862   9.798  11.234  14.821
75603W        W47863  20.550   1.410   2.832
75604W        W47864   3.899  37.972   2.873
75605W        W47865   7.316  43.812   2.322
75606W        W47866   1.893  35.504  11.965
75607W        W47867   4.341  27.124   2.268
75608W        W47868  34.432  13.796   3.162
75609W        W47869  38.503  21.618   0.412
75610W        W47870  30.146  39.927  13.844
75611W        W47871  23.660  28.944   0.826
75612W        W47872  16.093  21.165  12.887
75613W        W47873  37.843  42.314  14.868
75614W        W47874   4.723  22.531  10.919
75615W        W47875  25.497  28.961   1.334
75616W        W47876  28.521  33.540  14.444
75617W        W47877  12.290  16.222  11.501
75618W        W47878  41.898   6.255  12.455
75619W        W47879  11.170  10.817  10.928
75620W        W47880   8.307  30.453   3.251
75621W        W47881  20.126  29.568   3.324
75622W        W47882  32.480  41.935  12.027
75623W        W47883   8.400  19.259  13.864
75624W        W47884  20.758  24.605   3.322
75625W        W47885  33.553  11.866  13.924
75626W        W47886  19.265   6.695   4.707
75627W        W47887  36.857  44.357   2.181
75628W        W47888  21.637  27.583   2.189
75629W        W47889  21.017  22.236  12.566
75630W        W47890  20.620   5.923  10.075
75631W        W47891  40.953   3.338  14.406
75632W        W47892   5.782  28.094  11.461
75633W        W47893  10.838  34.411   1.355
75634W        W47894   1.806   4.897   1.730
75635W        W47895  26.201   7.815  10.628
75636W        W47896   5.820   6.759  11.021
75637W        W47897  24.121  28.032  13.452
75638W        W47898   3.772   5.323   4.808
75639W        W47899   6.895  42.013  12.491
75640W        W47900  43.507  12.657  13.828
75641W        W47901  39.985   7.909  12.343
75642W        W47902  19.697   5.887   4.175
75643W        W47903  20.589   6.743   3.256
75644W        W47904  37.418  41.986  13.899
75645W        W47905   3.235  13.731  14.823
75646W        W47906  35.061  35.855  10.911
75647W        W47907  23.146   7.271   3.182
75648W        W47908  25.660  25.505   4.139
75649W        W47909   4.732   1.864   5.265
75650W        W47910  35.419  38.896  14.325
75651W        W47911  30.105  34.483  12.452
75652W        W47912  39.846  40.940  10.477
75653W        W47913  40.335  27.657  13.371
75654W        W47914  31.120  30.954   3.665
75655W        W47915  19.763   3.822  14.005
75656W        W47916  16.289   0.406  14.401
75657W        W47917  33.963  15.599   3.867
75658W        W47918  28.623  19.232   4.264
75659W        W47919   9.354  32.059   3.228
75660W        W47920  39.914  25.053  12.411
75661W        W47921  23.712  43.901   4.678
75662W        W47922  20.162  41.981   4.805
75663W        W47923  21.199  27.461  13.855
75664W        W47924  15.271   7.902   3.717
75665W        W47925  19.057   7.896   3.848
75666W        W47926  11.649  13.308  14.761
75667W        W47927  18.101   2.277  11.914
75668W        W47928  42.366  35.548   0.438
75669W        W47929  34.430  41.931   0.305
75670W        W47930  32.125  17.092  13.954
75671W        W47931  41.418  20.655  12.498
75672W        W47932   5.836  37.972   2.221
75673W        W47933  17.593   9.788   3.186
75674W        W47934   4.407  30.984  14.409
75675W        W47935  34.968  28.143   5.160
75676W        W47936  32.420   6.312   2.284
75677W        W47937  21.112   0.782  13.932
75678W        W47938   9.184   1.408   4.612
75679W        W47939  10.737  39.415  12.089
75680W        W47940  22.636  25.145  13.485
75681W        W47941  33.501  42.417   0.341
75682W        W47942  33.579  25.659   4.190
75683W        W47943  43.411  39.500   0.280
75684W        W47944  18.102  16.687   0.803
75685W        W47945  19.086  25.532   3.869
75686W        W47946  27.138  19.663  10.906
75687W        W47947  24.711  27.133   1.279
75688W        W47948  12.823   6.904  14.980
75689W        W47949   6.343   7.336   2.261
75690W        W47950  25.665  19.546  10.029
75691W        W47951  30.636  28.661   3.159
75692W        W47952  26.101  15.588  14.760
75693W        W47953  40.798  30.118   2.704
75694W        W47954  40.929  17.691  10.925
75695W        W47955  39.522  36.001   3.666
75696W        W47956  11.254  19.667  13.463
75697W        W47957  39.418  38.024  14.780
75698W        W47958  42.428   9.882   1.852
75699W        W47959  11.838  44.437   3.284
75700W        W47960  40.862  35.468  12.558
75701W        W47961  22.219  30.618   4.824
75702W        W47962   9.733  12.149   1.310
75703W        W47963  20.223  20.177   3.717
75704W        W47964  30.628  44.778  13.034
75705W        W47965  14.808  10.709   2.266
75706W        W47966   6.850  20.270   0.371
75707W        W47967   6.197  25.970   2.809
75708W        W47968   3.421  13.604  11.962
75709W        W47969  42.985  41.918   4.763
75710W        W47970  30.122  20.172  10.626
75711W        W47971   0.770  20.185  12.549
75712W        W47972  24.626  11.263  14.873
75713W        W47973   7.198  43.334  11.495
75714W        W47974  39.833  37.430  11.567
75715W        W47975  38.032   4.442   4.312
75716W        W47976  38.909  44.972  12.987
75717W        W47977  44.360  15.200   1.371
75718W        W47978  31.429  14.258   1.256
75719W        W47979   5.247  30.435  13.836
75720W        W47980  13.197  16.200  11.546
75721W        W47981   6.222  39.908  14.496
75722W        W47982   5.822  33.567   4.172
75723W        W47983  10.196   6.301   0.321
75724W        W47984  31.542  34.887   4.242
75725W        W47985   6.426  42.000  12.554
75726W        W47986   2.320  23.126   3.342
75727W        W47987  27.583  41.922  12.538
75728W        W47988  30.127  30.031  14.911
75729W        W47989  44.799  17.223   0.935
75730W        W47990  13.652  24.570  14.911
75731W        W47991  22.500  15.092  12.572
75732W        W47992   0.353   0.326   1.424
75733W        W47993  40.937  23.523  14.947
75734W        W47994   5.264  20.749  10.478
75735W        W47995  44.884  27.452   3.171
75736W        W47996  14.721   7.702  11.972
75737W        W47997  21.515  10.208  13.805
75738W        W47998  27.518   4.727   0.906
75739W        W47999   0.917   4.318   3.146
75740W        W48000  10.312  17.108   2.281
75741W        W48001  12.334   9.847   2.880
75742W        W48002   5.259  22.615   3.631
75743W        W48003  10.163  44.991  13.531
75744W        W48004  32.516   7.688   0.409
75745W        W48005   6.248  10.864   4.696
75746W        W48006  39.865  24.550  10.472
75747W        W48007  36.389  37.958   2.306
75748W        W48008  44.951  28.937   3.250
75749W        W48009  21.083  21.031  11.089
75750W        W48010  20.069  33.903  13.825
75751W        W48011  29.589  21.173  13.389
75752W        W48012  37.409  20.657   3.211
75753W        W48013  12.291  40.348   2.222
75754W        W48014  30.421  37.968   3.659
75755W        W48015  44.833  38.393  12.949
75756W        W48016  35.907   9.836  12.851
75757W        W48017  24.217  11.641   5.286
75758W        W48018  39.521  32.053   4.781
75759W        W48019  31.415  39.840   2.695
75760W        W48020  26.017  38.432   2.707
75761W        W48021  15.247  17.766   9.531
75762W        W48022  24.642  32.133  14.395
75763W        W48023  23.199   6.711  11.948
75764W        W48024  12.146  39.552  13.982
75765W        W48025  13.831  36.352  14.364
75766W        W48026  21.129  11.203  11.074
75767W        W48027   7.893   4.426  12.859
75768W        W48028  41.504  18.713   3.193
75769W        W48029  11.867   3.938   1.242
75770W        W48030  18.077  15.106   1.800
75771W        W48031  24.994  28.989   1.801
75772W        W48032  28.464   3.362   0.358
75773W        W48033  29.120  37.516   3.311
75774W        W48034   9.770  36.376   2.375
75775W        W48035  16.710  36.416  12.878
75776W        W48036  23.522  40.330   2.274
75777W        W48037  33.997  18.124   2.358
75778W        W48038  26.202  28.451  13.821
75779W        W48039  37.018  31.431  12.532
75780W        W48040   5.806  36.007   1.350
75781W        W48041  32.439  42.388  13.043
75782W        W48042  37.987   8.874   1.852
75783W        W48043  23.201  27.054   0.339
75784W        W48044  26.951  37.058  10.511
75785W        W48045  23.986  10.359   5.297
75786W        W48046  43.278  35.587   1.783
75787W        W48047  27.675   7.772   2.825
75788W        W48048   7.696   8.669  13.061
75789W        W48049  40.528  23.542  11.977
75790W        W48050  28.950   6.725   2.877
75791W        W48051   9.318  24.066  14.863
75792W        W48052  41.318   5.886  11.437
75793W        W48053   7.695   5.347  11.123
75794W        W48054  41.024  44.880   3.809
75795W        W48055  38.072   8.246  12.851
75796W        W48056  22.602  18.241   1.824
75797W        W48057  17.799  39.903   2.702
75798W        W48058  33.083   6.381  14.974
75799W        W48059  35.917   0.334   4.242
75800W        W48060  13.295  24.645   3.721
75801W        W48061  22.716  22.731  14.816
75802W        W48062  30.983  44.769   4.301
75803W        W48063  42.527  41.813  10.939
75804W        W48064  22.198   9.700   1.763
75805W        W48065  15.707  16.168   2.771
75806W        W48066  39.329   9.258   0.429
75807W        W48067  12.289  43.814  14.789
75808W        W48068   1.824  27.000  12.375
75809W        W48069   0.369  13.668   4.155
75810W        W48070   9.665  21.547  13.845
75811W        W48071   4.775   9.812  10.450
75812W        W48072  17.080  21.205   1.802
75813W        W48073  13.644  22.069  14.774
75814W        W48074  13.704  37.952   3.834
75815W        W48075   7.317  43.427   4.134
75816W        W48076  11.279  21.539  12.575
75817W        W48077  10.181  36.878  14.790
75818W        W48078  17.728  36.422   2.871
75819W        W48079  38.348  44.857  12.080
75820W        W48080  35.528  23.070  14.890
75821W        W48081   7.198  27.537   2.889
75822W        W48082   0.941   4.942   5.293
75823W        W48083  25.215  17.299   5.129
75824W        W48084  11.359  40.540   2.314
75825W        W48085  19.743   5.707   3.374
75826W        W48086   6.782  10.164   0.871
75827W        W48087   3.943  18.169   0.382
75828W        W48088  34.514  24.659  10.426
75829W        W48089   5.896   2.816  14.957
75830W        W48090   7.744   9.157  11.962
75831W        W48091   6.802  14.634   2.389
75832W        W48092  10.842   2.358   1.290
75833W        W48093  22.570  17.252  11.948
75834W        W48094  29.601  30.625   4.193
75835W        W48095  43.962   9.832   0.455
75836W        W48096   6.285   7.728   2.386
75837W        W48097  13.198  32.938   1.715
75838W        W48098   6.381  26.191   4.726
75839W        W48099   7.786   3.764   1.917
75840W        W48100  32.436  21.691   3.322
75841W        W48101  32.962  15.125   1.838
75842W        W48102  21.122  31.641  13.365
75843W        W48103  26.621  15.620  10.928
75844W        W48104  44.430  15.730  12.850
75845W        W48105  16.159   2.237  14.429
75846W        W48106  28.129  39.845   4.628
75847W        W48107  25.676  21.678  11.574
75848W        W48108  26.994  43.792   4.312
75849W        W48109  43.018  36.369   5.278
75850W        W48110  25.199  32.923   1.832
75851W        W48111   3.793  20.609  13.950
75852W        W48112  26.133  34.605  11.602
75853W        W48113   1.465   2.245   2.681
75854W        W48114  28.517  11.332   4.119
75855W        W48115  26.597  17.762   1.401
75856W        W48116  32.477  18.075   5.173
75857W        W48117  29.534  29.581   2.829
75858W        W48118  35.854  27.646   1.321
75859W        W48119  35.360   1.355  12.382
75860W        W48120  35.087  16.238  10.933
75861W        W48121  30.437  24.517   3.194
75862W        W48122  41.885   6.349   5.185
75863W        W48123  39.003   1.323  13.381
75864W        W48124   8.254   7.171   4.198
75865W        W48125  27.666  36.883  13.522
75866W        W48126   7.849  20.155   1.733
75867W        W48127  32.524  20.169  10.907
75868W        W48128  40.032  28.089   4.342
75869W        W48129  41.531  25.632   3.729
75870W        W48130  38.500  38.857   0.847
75871W        W48131   7.837  39.974   1.783
75872W        W48132  33.535  31.493  14.964
75873W        W48133  33.925   5.880   2.674
75874W        W48134  14.613  43.959  11.067
75875W        W48135  38.505  39.836  10.637
75876W        W48136   0.872  16.576  11.044
75877W        W48137   8.864  28.107   3.178
75878W        W48138   2.352  31.932  14.457
75879W        W48139   3.434  44.753  13.899
75880W        W48140  24.656   2.757   3.835
75881W        W48141  38.027   3.279   0.729
75882W        W48142  10.216  24.717   3.354
75883W        W48143   4.739  35.449  12.062
75884W        W48144  43.388  43.843   1.890
75885W        W48145  27.940  41.884  11.058
75886W        W48146  40.834  32.443   3.841
75887W        W48147  40.054  39.374   2.419
75888W        W48148  28.049  20.202  10.532
75889W        W48149  31.066  18.570   3.865
75890W        W48150  43.805  21.665   0.431
75891W        W48151  40.045   3.366   4.160
75892W        W48152   6.381  18.085   2.333
75893W        W48153  30.653  18.204   4.268
75894W        W48154  27.476  35.535   0.852
75895W        W48155  11.340  24.078   4.268
75896W        W48156  26.488  36.924   0.744
75897W        W48157  30.952  11.720  12.097
75898W        W48158   6.245   4.792   2.895
75899W        W48159  38.885  14.707  11.081
75900W        W48160  21.170  16.641   5.309
75901W        W48161  37.041  15.086  12.451
75902W        W48162  28.085  29.051   0.888
75903W        W48163  40.023  16.178   1.233
75904W        W48164  37.482  10.849  11.979
75905W        W48165   1.362  36.023   2.322
75906W        W48166  41.445  14.184   1.930
75907W        W48167  29.454  38.918  12.461
75908W        W48168  24.616  35.963   4.302
75909W        W48169   6.829  31.407  10.612
75910W        W48170  12.124   9.276  11.490
75911W        W48171  19.556  26.584   4.130
75912W        W48172  34.555  28.508   1.429
75913W        W48173  39.921  10.148  14.310
75914W        W48174  40.975  26.615  13.404
75915W        W48175   6.354   1.869  10.568
75916W        W48176  19.619  25.627  11.024
75917W        W48177  41.824   3.286   2.795
75918W        W48178  30.413  17.193   4.144
75919W        W48179  23.116  41.944  14.335
75920W        W48180  43.774   0.841   1.914
75921W        W48181  35.882  13.199  11.079
75922W        W48182  22.673   1.367  14.511
75923W        W48183  29.108   6.820   1.786
75924W        W48184  39.853  44.430  11.515
75925W        W48185  14.215  42.888   1.843
75926W        W48186   6.691  33.457  10.506
75927W        W48187   9.249  36.078   2.202
75928W        W48188  28.546  12.147   4.140
75929W        W48189  43.516   4.293  13.526
75930W        W48190  28.966  40.344  14.888
75931W        W48191   5.887  13.755   3.841
75932W        W48192  31.098  41.027  11.875
75933W        W48193  12.695  27.140  12.915
75934W        W48194  38.456  44.339  14.500
75935W        W48195  13.605   1.778  12.001
75936W        W48196   5.341  12.219   1.301
75937W        W48197  13.330  37.056  13.480
75938W        W48198   9.321   8.172  10.606
75939W        W48199  30.946  42.030   4.220
75940W        W48200   6.683   4.266   1.305
75941W        W48201   5.317  43.374   0.441
75942W        W48202  17.590   2.362  12.561
75943W        W48203  33.583  39.862  14.883
75944W        W48204   1.782   1.291  10.609
75945W        W48205  41.372   6.715  12.428
75946W        W48206  40.320   1.878   1.871
75947W        W48207  10.373  19.730   1.432
75948W        W48208  28.101  37.477  12.573
75949W        W48209  38.499  41.461  12.039
75950W        W48210  43.766  22.241  11.387
75951W        W48211  26.011  20.153   0.814
75952W        W48212  33.519  31.474   2.700
75953W        W48213  24.030   3.728   3.704
75954W        W48214   7.905  16.796  13.871
75955W        W48215  19.760   9.833  14.906
75956W        W48216   6.348  40.425   4.794
75957W        W48217  43.516  12.835  13.349
75958W        W48218  18.759  43.913  12.055
75959W        W48219  26.583  21.073   4.341
75960W        W48220   3.370  16.697  11.093
75961W        W48221  21.566   1.428  14.462
75962W        W48222  19.039  44.359   0.364
75963W        W48223  35.535  29.521  12.463
75964W        W48224  43.768   9.712   3.192
75965W        W48225  16.750  36.519  11.560
75966W        W48226   7.759   3.264  14.428
75967W        W48227  30.067   8.830   1.395
75968W        W48228  29.149  23.169   4.117
75969W        W48229   2.408   1.879  10.550
75970W        W48230   1.975  28.106   2.273
75971W        W48231   4.410  32.456  13.953
75972W        W48232   5.711  40.444  14.777
75973W        W48233   4.314  19.646   3.265
75974W        W48234  27.946  10.864  11.403
75975W        W48235  33.403  17.121  12.403
75976W        W48236  34.457  17.781  13.031
75977W        W48237   4.350  15.277   1.887
75978W        W48238   1.935  15.192   3.794
75979W        W48239  24.011  35.589  14.344
75980W        W48240  19.168   0.428   4.125
75981W        W48241  24.103  27.686  13.883
75982W        W48242  13.329  12.221  13.322
75983W        W48243  17.647  27.692  14.859
75984W        W48244  44.324  44.352   2.346
75985W        W48245   6.723   6.884   0.430
75986W        W48246  24.149  11.242  12.077
75987W        W48247  34.437  24.595  13.424
75988W        W48248  36.371  28.987   0.935
75989W        W48249  37.948  22.670   2.383
75990W        W48250  25.176  21.149   1.733
75991W        W48251  43.370  13.838  12.888
75992W        W48252   7.680  13.749   1.256
75993W        W48253  19.651  34.380  12.009
75994W        W48254  29.014  19.612   0.368
75995W        W48255  31.511  32.543  10.580
75996W        W48256  17.759  39.401  12.486
75997W        W48257  19.059  28.434  10.618
75998W        W48258  34.024  43.322  14.830
75999W        W48259  43.294  10.298   3.363
76000W        W48260  16.794  33.961  14.368
76001W        W48261  38.473  36.937  11.569
76002W        W48262   5.875  42.523   2.290
76003W        W48263  25.015  36.551  11.025
76004W        W48264  36.561  34.046  13.402
76005W        W48265  28.169  11.232   3.187
76006W        W48266  38.969   5.389  10.592
76007W        W48267   0.797  20.713   0.826
76008W        W48268  13.741  18.288  14.443
76009W        W48269  39.817  26.119   2.413
76010W        W48270  15.805  25.701  12.977
76011W        W48271  27.542   6.682  12.926
76012W        W48272  23.147  43.456  13.413
76013W        W48273  19.625  18.238   1.786
76014W        W48274  29.078  18.228  13.814
76015W        W48275  40.037  28.137  11.406
76016W        W48276  43.437   1.883   1.733
76017W        W48277  32.522   1.416   4.653
76018W        W48278  13.696   5.792  10.894
76019W        W48279  39.477  37.539  14.952
76020W        W48280   4.727  12.788  10.586
76021W        W48281  43.937  18.061  13.537
76022W        W48282   6.810  43.293  11.505
76023W        W48283  42.291  35.979  12.366
76024W        W48284  38.490  41.449   2.220
76025W        W48285  26.137  42.412   4.232
76026W        W48286  35.588  11.257  10.459
76027W        W48287   7.250  28.038   4.135
76028W        W48288  42.298  39.948  12.005
76029W        W48289  17.150  42.802   1.892
76030W        W48290  41.799  15.242   4.714
76031W        W48291  28.136   2.265   1.804
76032W        W48292  10.851   3.259  12.827
76033W        W48293  21.744  40.891  14.303
76034W        W48294  27.051  28.055  10.597
76035W        W48295  16.689  38.055   2.360
76036W        W48296   8.677  30.913  14.388
76037W        W48297  10.142  31.557  11.075
76038W        W48298  35.099  27.610  11.930
76039W        W48299  16.317  20.712   0.940
76040W        W48300  22.738  14.661   0.858
76041W        W48301  43.471  17.675   2.311
76042W        W48302   8.755  13.669   1.906
76043W        W48303  44.484  42.515   4.764
76044W        W48304   3.862  11.266   1.801
76045W        W48305  19.114   6.715  13.310
76046W        W48306   1.367   3.899  11.474
76047W        W48307  18.180  12.348  12.837
76048W        W48308  11.185  29.960  12.419
76049W        W48309   9.884  24.102   1.783
76050W        W48310   3.812  30.025   1.876
76051W        W48311  17.604  24.151   3.281
76052W        W48312  37.534  33.089  10.922
76053W        W48313  11.796  37.981   4.752
76054W        W48314  24.024   8.397   4.335
76055W        W48315   6.331   5.878  12.563
76056W        W48316   8.738  27.581   0.324
76057W        W48317  20.559  19.750   3.172
76058W        W48318  41.411  30.525   0.914
76059W        W48319  36.035  29.055  13.940
76060W        W48320  30.417  44.834  11.572
76061W        W48321  14.133  43.321  11.978
76062W        W48322  24.021   9.714  13.407
76063W        W48323  24.667  12.180   4.247
76064W        W48324   1.390  21.614  11.537
76065W        W48325   2.834  33.978   0.941
76066W        W48326  33.934  35.006  10.039
76067W        W48327  21.067   1.255  11.870
76068W        W48328   6.298  35.591  10.152
76069W        W48329  27.528  16.092   4.724
76070W        W48330  43.818  27.534  12.499
76071W        W48331  11.632  31.480  12.825
76072W        W48332   0.890  38.510   3.655
76073W        W48333  20.735   5.200   0.324
76074W        W48334   0.962  24.211   2.180
76075W        W48335  10.689  13.287   3.382
76076W        W48336  18.192   7.397  13.856
76077W        W48337  39.037  19.634  12.831
76078W        W48338  42.520  11.225   0.449
76079W        W48339  18.167  20.114  11.913
76080W        W48340  22.601  29.524  12.496
76081W        W48341  22.589   6.336   9.969
76082W        W48342  33.935   1.788  11.458
76083W        W48343   9.300  35.000  13.346
76084W        W48344  32.620  35.569   1.787
76085W        W48345   9.729  12.198   0.799
76086W        W48346  22.711  21.536  11.458
76087W        W48347  22.055  18.655   5.130
76088W        W48348  33.435  14.684  12.502
76089W        W48349   4.386  10.319  12.351
76090W        W48350  19.199   8.394   0.825
76091W        W48351   8.830   4.934  12.373
76092W        W48352   5.875  34.065  12.409
76093W        W48353  38.471  16.571  14.032
76094W        W48354  10.699  42.517  13.953
76095W        W48355  41.856  16.723  14.821
76096W        W48356   5.817  16.602  11.501
76097W        W48357  44.847  20.215  11.488
76098W        W48358  25.203  28.504  12.850
76099W        W48359   0.425  23.208   4.335
76100W        W48360   8.828  23.996  14.830
76101W        W48361  18.207  19.266  11.418
76102W        W48362  19.041  10.296  11.982
76103W        W48363   8.278  11.828  10.905
76104W        W48364  44.855  40.415   2.376
76105W        W48365  35.462  40.830  14.388
76106W        W48366   9.857  23.012  12.922
76107W        W48367   7.370  23.494  11.482
76108W        W48368  35.972   1.881   1.731
76109W        W48369  19.601  43.978  10.975
76110W        W48370   6.386  12.197  12.410
76111W        W48371  31.452  12.311   4.337
76112W        W48372  37.052  12.274  13.446
76113W        W48373  35.526  42.381  14.819
76114W        W48374  26.529  28.948   4.183
76115W        W48375   2.789  10.829   4.777
76116W        W48376   3.850  21.145   0.898
76117W        W48377   5.762  13.823   3.253
76118W        W48378  42.381  34.863  12.465
76119W        W48379  30.128  26.457  14.798
76120W        W48380  19.234  30.597   1.445
76121W        W48381   5.342   0.385   1.754
76122W        W48382  24.003  40.312  13.047
76123W        W48383  44.977  27.049  12.342
76124W        W48384  23.104  42.863   3.218
76125W        W48385  32.006  30.486   1.275
76126W        W48386  27.551   2.448  12.887
76127W        W48387  15.730   9.355   2.206
76128W        W48388   7.272  42.459  10.526
76129W        W48389  16.159  38.045   2.824
76130W        W48390  32.973  16.810   0.876
76131W        W48391  27.101  27.500   4.665
76132W        W48392  21.212  35.480   0.965
76133W        W48393  30.651   4.884   0.747
76134W        W48394  24.580  27.017  10.086
76135W        W48395   2.396  30.413   3.345
76136W        W48396  30.922  15.260   3.368
76137W        W48397  31.483  33.120  10.991
76138W        W48398  20.218  21.749  11.116
76139W        W48399  27.554  24.996  10.974
76140W        W48400  38.840  21.040   2.235
76141W        W48401  21.534  16.080   1.934
76142W        W48402   9.302  44.863   0.950
76143W        W48403  43.479  14.232  12.489
76144W        W48404  30.082  15.251   0.423
76145W        W48405  35.503   9.187   2.719
76146W        W48406  44.816  25.481  13.921
76147W        W48407  27.544   8.300  11.475
76148W        W48408  25.691  26.639  11.876
76149W        W48409   6.327  23.563  13.360
76150W        W48410  41.010  23.035   4.679
76151W        W48411  31.521  35.056  13.500
76152W        W48412  32.951   9.231   2.744
76153W        W48413  40.869  19.206   3.822
76154W        W48414  28.440   7.799  13.390
76155W        W48415   9.761  28.175   1.901
76156W        W48416   8.807   8.316  12.462
76157W        W48417  13.156  39.476  11.400
76158W        W48418  36.547  36.481  14.992
76159W        W48419  29.150  29.088  13.906
76160W        W48420  12.218   8.826  13.003
76161W        W48421   8.856  24.702  11.949
76162W        W48422  39.489  23.991   1.342
76163W        W48423  41.449   5.886   2.838
76164W        W48424  30.044  25.155   1.370
76165W        W48425   0.816  20.692  11.550
76166W        W48426  23.141   1.443  14.436
76167W        W48427  15.139   4.371   1.845
76168W        W48428  38.922   9.371  10.501
76169W        W48429  15.157   3.276  14.355
76170W        W48430   9.737  34.979   4.190
76171W        W48431  25.031  26.096   2.318
76172W        W48432  27.657  22.550   1.908
76173W        W48433  40.339  37.003  14.438
76174W        W48434  37.911  32.002  11.404
76175W        W48435  33.103   8.668   1.775
76176W        W48436  22.234  37.567  11.508
76177W        W48437  43.365   6.352  10.511
76178W        W48438  18.100  24.217   3.268
76179W        W48439  18.704  10.792   2.257
76180W        W48440  35.502  30.479   2.414
76181W        W48441   2.294  23.696   4.297
76182W        W48442  38.033  41.426   0.872
76183W        W48443  25.059  28.100  14.852
76184W        W48444  14.689  43.443   2.340
76185W        W48445  20.246   0.866  13.505
76186W        W48446   2.733  13.291  13.545
76187W        W48447   5.694   2.347  13.027
76188W        W48448  21.054   0.853  11.011
76189W        W48449  20.109   5.284   2.683
76190W        W48450   6.295   2.746   4.239
76191W        W48451  14.188   3.868   0.811
76192W        W48452  36.484   3.299   4.736
76193W        W48453  20.110  40.531  12.073
76194W        W48454  32.410  42.804  10.464
76195W        W48455  43.277  40.914  10.911
76196W        W48456  33.451   6.694  14.846
76197W        W48457   9.725  29.582  12.559
76198W        W48458  41.396   4.865   0.922
76199W        W48459  19.112  11.295  11.490
76200W        W48460  14.331  36.913   0.242
76201W        W48461  36.546  40.358   4.780
76202W        W48462   7.353  10.651  10.572
76203W        W48463   3.913  35.089   1.903
76204W        W48464  40.396  43.407  12.399
76205W        W48465  37.856  20.562   4.163
76206W        W48466  18.560  17.767  11.925
76207W        W48467  34.377  16.713  11.073
76208W        W48468  39.052  44.867  14.869
76209W        W48469  18.703   7.410   4.136
76210W        W48470  35.383   2.337   1.363
76211W        W48471  40.423  42.517   1.927
76212W        W48472   9.675   3.917  14.790
76213W        W48473  12.815  44.987   0.741
76214W        W48474  42.997   8.249   4.143
76215W        W48475  31.487  10.848  14.313
76216W        W48476  29.063   0.405  10.615
76217W        W48477  28.106   4.333  10.506
76218W        W48478  22.585  22.144  10.064
76219W        W48479  13.655  44.822   4.115
76220W        W48480  40.864  38.543   1.271
76221W        W48481  24.653  41.837   3.308
76222W        W48482   3.811  43.018  10.557
76223W        W48483  13.203  17.241  13.954
76224W        W48484  16.724  11.868  12.470
76225W        W48485  36.085  44.412   4.239
76226W        W48486  26.196   7.185   1.767
76227W        W48487  32.590  25.169   2.367
76228W        W48488   4.406  32.997   2.368
76229W        W48489  42.457   0.384   1.781
76230W        W48490  14.325  27.557   9.492
76231W        W48491   6.277  43.380   0.354
76232W        W48492  26.659  26.629  10.918
76233W        W48493  17.250  12.693   0.254
76234W        W48494  34.582  26.563   3.710
76235W        W48495  38.850  24.502  12.437
76236W        W48496  33.478  33.120   4.266
76237W        W48497  25.101  39.837  14.361
76238W        W48498   1.481  37.882   2.250
76239W        W48499  25.962  27.989  10.500
76240W        W48500  12.704  37.354   1.308
76241W        W48501  19.647   0.431  14.861
76242W        W48502  41.796  19.215   2.837
76243W        W48503  28.616  31.426  10.485
76244W        W48504   3.952   2.459  12.893
76245W        W48505  35.582  30.535   4.250
76246W        W48506  29.136   5.266   2.707
76247W        W48507  42.947  20.167   4.138
76248W        W48508  26.606  29.007   4.655
76249W        W48509   4.352  33.438   0.822
76250W        W48510  16.218  38.415  13.385
76251W        W48511   9.367   7.845   4.275
76252W        W48512  37.420  17.650  11.537
76253W        W48513  26.542   6.287  11.033
76254W        W48514  11.784  34.949  12.057
76255W        W48515  15.159  41.299  13.319
76256W        W48516  21.231  13.207   2.230
76257W        W48517  39.479  10.311  12.017
76258W        W48518  22.647  28.182  14.389
76259W        W48519  20.212   6.899  14.839
76260W        W48520  25.579  38.552   0.442
76261W        W48521  13.745  20.746   3.705
76262W        W48522   1.808   0.338  13.539
76263W        W48523  44.321   8.257  13.514
76264W        W48524   4.282   6.808  10.568
76265W        W48525  41.292  42.470  11.444
76266W        W48526   8.163  25.071  10.417
76267W        W48527  30.112  32.973   1.703
76268W        W48528  16.090  20.058   3.320
76269W        W48529  22.245  21.140   1.338
76270W        W48530   3.800   3.894  10.456
76271W        W48531  10.778  19.643  14.000
76272W        W48532  19.227  38.454  14.394
76273W        W48533  20.160  43.935   4.635
76274W        W48534  38.040   9.818   5.137
76275W        W48535  33.020  42.387  10.507
76276W        W48536  44.299   5.777  10.124
76277W        W48537  28.971  17.108  10.535
76278W        W48538   1.813  18.215   4.793
76279W        W48539  13.843  19.097  11.104
76280W        W48540  13.256  31.018  14.855
76281W        W48541  26.169  10.763   2.260
76282W        W48542   7.366   6.382  12.544
76283W        W48543  20.610  31.898   4.740
76284W        W48544  40.394  44.904   3.233
76285W        W48545  34.907  31.629  13.404
76286W        W48546  21.577  36.417   3.209
76287W        W48547   1.734  40.438   5.214
76288W        W48548  20.139  28.125   1.750
76289W        W48549   7.257  38.845  11.581
76290W        W48550  39.854  26.613   3.714
76291W        W48551  40.857  26.954   2.736
76292W        W48552   9.211  31.577  12.929
76293W        W48553  25.152  22.996  10.420
76294W        W48554  43.364  34.396  12.371
76295W        W48555  18.075  15.249  11.383
76296W        W48556  28.552  32.516   2.396
76297W        W48557  22.220  25.557   9.650
76298W        W48558  10.334   4.849  11.874
76299W        W48559  13.741   9.835  12.831
76300W        W48560   2.878  29.945  11.119
76301W        W48561   8.361  36.562  10.966
76302W        W48562  25.505  12.255   3.751
76303W        W48563  20.576  42.876  10.513
76304W        W48564  29.996  24.086  13.824
76305W        W48565   5.747  11.756  12.950
76306W        W48566  26.122  36.455   2.240
76307W        W48567  28.492  24.988   2.408
76308W        W48568  21.058   1.329  12.509
76309W        W48569  17.218  38.985  13.858
76310W        W48570  22.057  19.545  13.312
76311W        W48571  35.036  25.163  10.570
76312W        W48572  44.503  35.361   2.397
76313W        W48573  15.240  11.830   3.165
76314W        W48574   6.847  36.011  13.522
76315W        W48575  41.882  26.656  14.837
76316W        W48576  37.369  40.992  10.486
76317W        W48577   1.348   2.233  14.982
76318W        W48578  37.843  22.200  13.531
76319W        W48579  31.402  28.478  14.434
76320W        W48580  22.659  40.389  13.027
76321W        W48581  24.188   3.832  10.955
76322W        W48582  16.648   8.894  12.864
76323W        W48583   2.460   8.280   2.701
76324W        W48584  38.852   6.220   0.417
76325W        W48585   2.441  22.066   2.872
76326W        W48586  29.607   5.807  11.918
76327W        W48587   6.865  12.764   0.862
76328W        W48588  36.052  15.792  11.479
76329W        W48589  13.699  19.117   2.229
76330W        W48590   1.266   3.383   4.617
76331W        W48591   6.872  27.676  14.481
76332W        W48592  20.531  39.821  10.635
76333W        W48593  28.165   8.842  10.034
76334W        W48594  44.358  24.527   0.966
76335W        W48595  10.779   0.742  14.816
76336W        W48596  10.877  38.871   3.339
76337W        W48597   8.193   5.237  11.922
76338W        W48598  32.061  31.409  12.866
76339W        W48599  11.666  22.556  12.428
76340W        W48600  36.977  41.523   2.694
76341W        W48601  13.283  16.760   3.189
76342W        W48602  14.762  44.957   0.921
76343W        W48603  33.552  18.148   0.267
76344W        W48604  25.204  20.165   5.303
76345W        W48605  29.607  14.667   3.180
76346W        W48606  42.340  30.911  10.521
76347W        W48607  28.451  34.928   1.333
76348W        W48608  41.945  29.921  13.943
76349W        W48609  25.003  35.413  14.305
76350W        W48610  21.590  33.490  13.057
76351W        W48611   9.836  25.527  11.501
76352W        W48612  29.669  23.232   3.821
76353W        W48613  32.889  20.578  12.933
76354W        W48614  39.898   1.425  11.931
76355W        W48615  18.559  15.107  11.432
76356W        W48616  16.703  26.636   3.191
76357W        W48617  21.629  23.501  13.849
76358W        W48618   5.784  27.580   5.265
76359W        W48619   7.748   4.757  11.394
76360W        W48620  41.502   4.743  13.523
76361W        W48621  21.253  34.580   0.296
76362W        W48622  33.085   9.697  12.918
76363W        W48623  28.120  42.956   4.762
76364W        W48624   5.253   7.734   0.729
76365W        W48625  16.246   0.886   0.922
76366W        W48626  10.672   0.493   3.848
76367W        W48627  42.503   2.403  11.583
76368W        W48628   0.379  27.638   2.296
76369W        W48629  27.980  37.994  11.485
76370W        W48630  16.243  16.287   0.335
76371W        W48631  10.253   8.400  12.474
76372W        W48632  43.855  40.461  11.470
76373W        W48633  37.416  38.905   5.180
76374W        W48634  35.039  32.971  14.412
76375W        W48635  33.535  11.280   3.700
76376W        W48636  37.481  19.576   0.254
76377W        W48637  39.913   4.442   3.340
76378W        W48638  10.350  28.650  12.829
76379W        W48639  17.615  42.817  10.965
76380W        W48640  37.977  10.194  14.357
76381W        W48641   6.789  33.978   4.645
76382W        W48642   2.772  35.425   4.165
76383W        W48643  27.476  19.181   0.731
76384W        W48644  44.999   3.260  11.376
76385W        W48645   0.387  19.255   3.159
76386W        W48646  12.328  12.221   0.801
76387W        W48647   2.444  16.199  12.447
76388W        W48648  35.071  12.721   1.305
76389W        W48649  29.062  35.036  12.482
76390W        W48650  37.521  28.096   0.742
76391W        W48651  27.554  36.024  13.030
76392W        W48652  44.497   5.255   2.370
76393W        W48653   5.691  34.605   1.724
76394W        W48654  40.447  39.895   4.199
76395W        W48655   8.367  12.649  14.283
76396W        W48656  10.705  33.053  11.427
76397W        W48657  16.589  30.942  14.337
76398W        W48658   8.214   5.849  13.940
76399W        W48659  23.195  25.190   3.236
76400W        W48660  43.992   0.969   1.235
76401W        W48661  35.903   0.903  13.490
76402W        W48662  43.940  26.457   2.773
76403W        W48663   1.475  36.997  13.868
76404W        W48664   0.332  23.603   2.319
76405W        W48665  29.098  28.090  14.934
76406W        W48666  43.473  19.132  13.324
76407W        W48667  33.075  43.016  14.962
76408W        W48668  34.908  36.394   4.761
76409W        W48669  29.053  37.944  12.485
76410W        W48670   5.292   1.419  14.353
76411W        W48671  38.547   0.960   3.280
76412W        W48672  12.207  37.396   0.827
76413W        W48673  37.424  22.009  13.423
76414W        W48674  35.105  13.236   0.895
76415W        W48675  18.275   9.798   1.901
76416W        W48676   7.850  27.692   5.582
76417W        W48677  38.533  31.097   3.332
76418W        W48678  30.143   6.847   0.281
76419W        W48679  28.525  31.504  12.361
76420W        W48680  11.280   4.395   1.269
76421W        W48681  41.011   0.365   0.811
76422W        W48682  42.518  34.976  15.000
76423W        W48683  44.991  26.110  11.012
76424W        W48684  20.175  40.383   4.126
76425W        W48685  41.529  40.024  13.840
76426W        W48686   2.781   2.260   1.314
76427W        W48687  18.789  36.063  14.901
76428W        W48688  32.890  41.830  11.049
76429W        W48689  21.067  43.347  13.934
76430W        W48690  40.798   8.390   3.326
76431W        W48691  11.633  39.906   1.817
76432W        W48692  19.678  38.931  13.533
76433W        W48693  37.430  16.574  14.855
76434W        W48694  34.609  43.872  14.934
76435W        W48695  25.122  20.689  13.440
76436W        W48696  29.979  10.665  14.030
76437W        W48697  34.369  11.300   1.847
76438W        W48698  22.211  40.907  12.930
76439W        W48699  11.152  29.026  12.079
76440W        W48700   1.886   6.845  13.308
76441W        W48701  36.519  42.785   4.119
76442W        W48702  10.642  44.767   3.305
76443W        W48703  36.845  19.160  13.876
76444W        W48704  39.906  40.956   0.412
76445W        W48705  35.067   1.263   1.318
76446W        W48706  36.938  28.620  12.049
76447W        W48707  14.615  30.604   5.277
76448W        W48708  10.744   7.892   2.717
76449W        W48709  43.392  15.315   0.355
76450W        W48710  24.623  37.431   4.730
76451W        W48711  41.356  21.038  11.021
76452W        W48712   2.727  44.775  13.867
76453W        W48713  18.296  40.884  11.554
76454W        W48714  29.138  44.833  10.951
76455W        W48715  36.514  17.629   2.690
76456W        W48716   7.788  44.458   0.756
76457W        W48717  21.540  28.622  10.122
76458W        W48718   6.768  39.557   2.333
76459W        W48719   8.186  38.486   2.347
76460W        W48720  39.544  23.612  13.984
76461W        W48721  21.726   8.214  10.999
76462W        W48722  34.432   3.332   2.236
76463W        W48723  28.060  29.485   1.293
76464W        W48724  30.052   3.411  13.324
76465W        W48725  33.609  21.249   4.767
76466W        W48726  24.653  38.513   3.702
76467W        W48727  25.595  21.176   0.875
76468W        W48728  18.660  35.436   4.809
76469W        W48729   0.402   6.313   3.351
76470W        W48730  15.695   0.358   2.899
76471W        W48731  39.521  32.622  13.832
76472W        W48732  16.294   2.900  11.979
76473W        W48733  13.190  44.843   4.329
76474W        W48734  42.973  16.613   1.336
76475W        W48735   8.237  35.020   2.807
76476W        W48736  28.456  41.900   3.289
76477W        W48737  21.685   9.337  11.394
76478W        W48738  10.833   9.785   4.713
76479W        W48739   9.678   1.441  12.033
76480W        W48740  25.050  27.497   2.332
76481W        W48741   4.227  30.630  10.419
76482W        W48742  23.138  10.659  13.895
76483W        W48743  31.409  43.959  13.379
76484W        W48744  38.417  39.331  10.924
76485W        W48745   7.392  40.486   1.880
76486W        W48746  41.919   3.341  13.379
76487W        W48747   5.825  10.818   4.128
76488W        W48748  23.604  24.153  14.829
76489W        W48749  10.857   9.672  14.767
76490W        W48750   0.464  30.004  11.019
76491W        W48751  25.168  13.332  11.039
76492W        W48752  28.975   1.847  13.336
76493W        W48753  21.714  25.078   4.253
76494W        W48754  29.645  41.801   4.221
76495W        W48755   2.271   9.372   3.385
76496W        W48756   9.865  31.138  13.334
76497W        W48757  28.545  30.966  10.614
76498W        W48758  18.107  24.144  13.895
76499W        W48759   5.833  37.079  10.971
76500W        W48760  35.554  10.736   2.670
76501W        W48761  34.997  10.661   1.330
76502W        W48762  21.221  19.625   0.420
76503W        W48763  30.149   8.706   3.225
76504W        W48764  32.482  24.216  13.537
76505W        W48765  11.710   1.977   3.308
76506W        W48766  27.094  36.573   2.186
76507W        W48767  18.638   7.691  13.901
76508W        W48768  24.656  22.013   3.645
76509W        W48769  14.785  14.687  14.888
76510W        W48770  28.553  25.088  14.759
76511W        W48771  19.674  24.066   4.825
76512W        W48772  14.672  14.794   3.695
76513W        W48773   8.700  16.662  14.022
76514W        W48774   1.278   0.291   3.776
76515W        W48775   2.937  20.109   1.426
76516W        W48776   3.829   2.227   0.907
76517W        W48777  24.172  17.693   1.884
76518W        W48778  37.515  37.085  12.908
76519W        W48779  17.635   6.846   0.375
76520W        W48780  18.685  42.490  14.887
76521W        W48781  20.682  24.565  14.902
76522W        W48782  28.459  13.114   3.755
76523W        W48783  10.328  34.870  14.337
76524W        W48784  24.669  16.251  13.807
76525W        W48785  15.704   8.828  14.429
76526W        W48786   2.767  29.114  12.416
76527W        W48787  19.623  23.641  10.427
76528W        W48788   6.240   1.408  14.362
76529W        W48789  24.111  32.897   3.331
76530W        W48790   3.336  44.783  11.932
76531W        W48791  33.115   1.305   2.695
76532W        W48792  44.831  16.784   2.188
76533W        W48793  31.508  41.442   1.778
76534W        W48794  34.528  34.522  14.452
76535W        W48795  32.511  43.014  11.084
76536W        W48796  43.770  17.558   3.710
76537W        W48797   6.920  15.808  10.523
76538W        W48798  19.707  14.761  13.312
76539W        W48799  23.053   8.870   4.224
76540W        W48800  16.105  27.641   2.696
76541W        W48801  36.416  33.414  12.826
76542W        W48802  34.472  41.435   1.730
76543W        W48803  22.685   9.661   2.178
76544W        W48804   1.382  29.991  14.926
76545W        W48805  33.008   9.165  13.841
76546W        W48806  20.184  13.171   1.889
76547W        W48807  34.433  31.067   0.913
76548W        W48808  38.469   1.338   1.821
76549W        W48809  22.742  20.650  12.050
76550W        W48810  27.082  43.926   2.764
76551W        W48811  44.988  21.736   3.305
76552W        W48812  27.529  21.074  12.845
76553W        W48813  21.607  20.708   1.219
76554W        W48814  23.049  42.492   4.787
76555W        W48815   3.925  43.813  12.421
76556W        W48816  27.470  21.094   4.631
76557W        W48817  22.113  11.714   1.394
76558W        W48818  37.900   6.312   2.304
76559W        W48819  12.739  16.755  11.998
76560W        W48820  42.467  28.167   0.325
76561W        W48821  41.922  39.945  11.548
76562W        W48822  36.892  29.159   4.151
76563W        W48823   5.232  41.822   4.623
76564W        W48824  41.922  12.841   5.172
76565W        W48825  24.634   2.893  14.359
76566W        W48826  23.233  40.350   0.326
76567W        W48827   0.317   1.355   2.665
76568W        W48828  26.037  21.031   3.309
76569W        W48829   2.909  38.036  13.820
76570W        W48830  41.523  32.006  13.524
76571W        W48831  43.901  16.203   0.459
76572W        W48832  21.645  29.536  11.060
76573W        W48833  29.447  25.625   2.746
76574W        W48834  34.483  15.109   4.304
76575W        W48835  32.942  31.552  14.501
76576W        W48836  28.119  30.538   5.236
76577W        W48837  31.131   3.931  12.020
76578W        W48838  27.046  41.409  14.929
76579W        W48839  43.798  39.872  10.889
76580W        W48840  39.484  10.673  14.278
76581W        W48841  33.426  19.778  10.434
76582W        W48842  26.623  31.033   4.196
76583W        W48843   3.835   1.774  12.067
76584W        W48844  23.494   9.787  11.090
76585W        W48845   9.237  22.737   2.754
76586W        W48846  41.826   5.846   0.851
76587W        W48847  43.469  15.771  11.016
76588W        W48848  23.077  16.127   2.290
76589W        W48849  28.145  13.165  13.485
76590W        W48850   1.752  28.090   0.901
76591W        W48851   9.318  23.095  11.921
76592W        W48852  34.038   8.772   0.876
76593W        W48853  43.991  18.746   0.261
76594W        W48854  32.609  27.941  10.612
76595W        W48855  10.343  18.280  11.895
76596W        W48856   8.209   0.832  13.402
76597W        W48857  24.531  30.427  14.328
76598W        W48858  10.776  41.806  11.385
76599W        W48859   9.817  13.658   0.339
76600W        W48860  17.573  13.290   3.226
76601W        W48861  30.956  30.095   4.835
76602W        W48862  28.966  42.305  14.451
76603W        W48863  24.180  32.576  10.906
76604W        W48864  37.832  34.608  13.815
76605W        W48865  18.702  13.689  12.347
76606W        W48866  28.610  43.478   1.747
76607W        W48867   8.253  25.162  11.570
76608W        W48868  21.537  29.076   0.922
76609W        W48869   3.366  41.802  12.864
76610W        W48870  19.125  32.070  10.082
76611W        W48871  24.667  35.511   2.690
76612W        W48872  33.606  10.723  13.345
76613W        W48873  13.128  34.059   3.688
76614W        W48874  42.898   8.761   3.165
76615W        W48875  44.902  25.637  14.432
76616W        W48876  39.370   6.900  10.058
76617W        W48877  22.011  38.959  13.523
76618W        W48878  33.489  16.805   3.780
76619W        W48879  34.027  17.655   4.351
76620W        W48880   6.330  38.942   5.114
76621W        W48881  10.344  32.455   1.443
76622W        W48882  15.581  41.992  13.988
76623W        W48883  14.167  10.262   3.235
76624W        W48884  20.568  36.931  12.493
76625W        W48885  36.851  44.971   0.367
76626W        W48886   0.925  15.764  11.110
76627W        W48887  39.062   4.312   3.357
76628W        W48888  43.341  27.134  14.948
76629W        W48889  44.860  24.616   3.374
76630W        W48890  11.146  20.607   0.738
76631W        W48891  33.118  10.224  14.296
76632W        W48892  44.463  19.555   1.902
76633W        W48893   9.214  13.321   2.230
76634W        W48894  44.761   7.311   4.664
76635W        W48895  14.237  30.970   2.194
76636W        W48896  11.195  35.076   4.315
76637W        W48897  17.649  39.054   4.135
76638W        W48898  32.070   8.766  10.001
76639W        W48899  17.143  35.942  10.083
76640W        W48900  30.532  31.472  10.503
76641W        W48901  17.776  10.742  14.304
76642W        W48902  18.674  19.536   4.707
76643W        W48903  24.077   0.324   0.350
76644W        W48904  43.406  33.480  13.962
76645W        W48905  11.818  24.539  12.550
76646W        W48906  31.974  24.661   2.769
76647W        W48907  26.640  29.437   0.739
76648W        W48908  16.606  17.135  12.875
76649W        W48909   5.734  31.902  12.088
76650W        W48910  23.647  15.726  10.997
76651W        W48911  18.280  34.987   2.749
76652W        W48912   9.839  12.641   2.378
76653W        W48913   7.765  38.501   2.298
76654W        W48914  29.624  34.592   1.769
76655W        W48915  15.822  30.044  14.848
76656W        W48916  17.149  42.517  10.149
76657W        W48917  27.657   8.712  14.470
76658W        W48918  36.401  41.037   1.733
76659W        W48919  38.042   5.736  11.917
76660W        W48920   0.837  21.541   2.749
76661W        W48921  22.596  29.960  11.029
76662W        W48922  41.963   2.838   1.881
76663W        W48923  33.529  12.280   2.851
76664W        W48924  33.968   4.900   1.388
76665W        W48925  25.562  37.868   2.231
76666W        W48926   7.381  11.337   0.773
76667W        W48927  34.057  39.059  13.326
76668W        W48928   7.839  29.478   4.648
76669W        W48929   5.242   2.944   0.791
76670W        W48930  14.666   9.218  10.514
76671W        W48931   7.810   0.815   1.737
76672W        W48932  36.045  42.942   3.633
76673W        W48933   5.300  10.374  11.394
76674W        W48934   5.201  27.544  13.369
76675W        W48935  14.591  39.965   1.219
76676W        W48936  24.185  38.516   0.873
76677W        W48937   7.191  33.897   1.777
76678W        W48938   2.927  32.443   2.287
76679W        W48939  41.315   3.713   1.726
76680W        W48940   5.256  30.602   4.713
76681W        W48941  30.591  12.724  12.961
76682W        W48942   1.319  14.224   2.861
76683W        W48943  29.975  28.933   2.837
76684W        W48944  19.095  27.506  10.514
76685W        W48945  16.600  12.329   0.733
76686W        W48946  37.385   1.473   2.680
76687W        W48947  25.712  37.997  12.917
76688W        W48948  37.909   7.669  10.569
76689W        W48949  38.386  14.696   1.740
76690W        W48950  33.494  34.443  13.793
76691W        W48951  25.187  24.198  13.918
76692W        W48952  12.768   3.886  14.026
76693W        W48953  32.011  34.409   3.385
76694W        W48954  18.109  10.191  13.061
76695W        W48955  14.283  40.506   1.717
76696W        W48956  29.558  16.638  11.960
76697W        W48957   9.389  24.065   3.668
76698W        W48958   4.903  20.121  13.396
76699W        W48959  29.976  37.514  14.028
76700W        W48960   7.694  32.498   4.230
76701W        W48961   5.242   5.857   4.292
76702W        W48962   0.398  19.659   0.406
76703W        W48963  26.146  38.454  13.800
76704W        W48964  17.302   5.748  10.968
76705W        W48965  10.794   8.293   0.369
76706W        W48966  14.316  23.699  14.854
76707W        W48967  38.048   5.317   3.678
76708W        W48968   2.248  15.175   3.213
76709W        W48969   2.896  33.013  11.880
76710W        W48970  41.827  30.087   4.333
76711W        W48971  39.990  16.761   2.787
76712W        W48972  14.206   5.398  14.802
76713W        W48973  28.994  21.541   0.363
76714W        W48974   0.378  23.016  10.484
76715W        W48975   4.913  27.511   1.390
76716W        W48976   0.379  24.214  14.337
76717W        W48977  11.745  15.195   3.342
76718W        W48978  41.439  17.269  13.855
76719W        W48979  13.657  15.806  12.432
76720W        W48980  12.310   4.881  13.451
76721W        W48981  11.757   8.761   1.241
76722W        W48982  22.532  18.170  14.276
76723W        W48983  22.529  44.459   0.799
76724W        W48984   5.243   9.211  12.064
76725W        W48985  39.857  25.635   3.779
76726W        W48986  19.262  10.290   0.889
76727W        W48987  37.533  42.956   1.359
76728W        W48988  31.098  19.241  14.506
76729W        W48989  22.089  18.218  12.560
76730W        W48990  35.985  36.041   0.364
76731W        W48991  39.510  10.755   4.209
76732W        W48992  40.548  32.587   3.671
76733W        W48993  10.290  11.367  10.560
76734W        W48994  17.123  39.968  13.358
76735W        W48995  32.123  36.883  13.887
76736W        W48996  38.325   1.761  12.026
76737W        W48997   0.904  36.956   3.694
76738W        W48998  43.922   9.330  14.895
76739W        W48999  14.666   7.263   0.941
76740W        W49000   1.937   7.786  12.576
76741W        W49001  16.616   1.242  11.494
76742W        W49002   8.798  19.249  10.583
76743W        W49003  38.957   5.346  11.110
76744W        W49004  13.670  17.771  10.623
76745W        W49005  40.434  31.581   3.666
76746W        W49006   4.917  32.594   0.888
76747W        W49007  20.538   6.718  12.981
76748W        W49008  40.015  24.673   1.853
76749W        W49009  24.506  19.051  12.047
76750W        W49010  30.120  40.902  14.355
76751W        W49011   3.277  16.266   4.268
76752W        W49012  23.704  38.498   3.262
76753W        W49013   6.411  42.002   2.276
76754W        W49014  17.070  22.046  13.963
76755W        W49015   7.220  16.106  10.599
76756W        W49016  17.270  36.550  13.796
76757W        W49017  20.695   1.861   4.824
76758W        W49018  18.253  21.025   0.375
76759W        W49019  42.410  15.274  12.091
76760W        W49020  14.268  19.760   1.756
76761W        W49021  36.893  35.909  14.419
76762W        W49022  14.287  12.223   3.287
76763W        W49023  26.999  21.114  10.135
76764W        W49024  23.716   6.861  12.861
76765W        W49025  30.162  10.827  12.865
76766W        W49026  16.748  40.419   2.371
76767W        W49027  12.350   4.211   1.912
76768W        W49028   8.328  38.006  14.418
76769W        W49029  17.791  17.147  14.907
76770W        W49030   0.985   7.291   2.772
76771W        W49031   8.882  27.963  11.587
76772W        W49032   7.769  19.205  12.348
76773W        W49033   6.915  17.763  12.086
76774W        W49034  29.969  40.356  11.497
76775W        W49035   6.333  20.657   3.677
76776W        W49036  10.168  34.579   2.273
76777W        W49037  22.133   4.231   0.450
76778W        W49038  14.680  25.993   0.905
76779W        W49039  20.041   3.419  11.485
76780W        W49040  14.814  16.271  11.046
76781W        W49041  41.437  10.790  14.791
76782W        W49042  18.697  14.247   2.776
76783W        W49043  18.593   1.760   3.386
76784W        W49044  40.865   3.390  10.506
76785W        W49045  15.728  30.462   1.445
76786W        W49046  31.126  25.105   3.199
76787W        W49047  16.802  38.000  14.937
76788W        W49048  23.142  38.908   2.314
76789W        W49049  13.806  40.921  13.513
76790W        W49050  15.123  30.099   1.380
76791W        W49051   7.268  10.321   2.315
76792W        W49052   1.946  43.426  14.858
76793W        W49053  14.739  31.646   3.838
76794W        W49054  15.666  17.151   2.363
76795W        W49055   9.664   1.436   1.859
76796W        W49056   1.976   4.721  11.006
76797W        W49057  32.606  15.604  12.966
76798W        W49058   6.922  28.942  12.345
76799W        W49059  11.764   3.904  13.943
76800W        W49060  23.583   6.274   2.903
76801W        W49061   1.477   5.284   3.763
76802W        W49062  43.353  21.575  11.425
76803W        W49063  14.236  18.171  13.957
76804W        W49064   9.293  32.053  14.954
76805W        W49065  12.126  13.157   0.802
76806W        W49066  28.979   7.911  13.995
76807W        W49067  25.023   5.385  14.940
76808W        W49068  23.237  39.005   3.311
76809W        W49069  26.125   1.265  11.894
76810W        W49070  20.108  27.480   1.395
76811W        W49071  36.429  24.195  14.354
76812W        W49072  26.152  31.037  11.495
76813W        W49073  16.281  29.993   0.339
76814W        W49074  41.406  26.661   2.885
76815W        W49075  17.730  17.284   1.227
76816W        W49076  30.063   8.677  11.609
76817W        W49077   5.250  21.231  12.435
76818W        W49078   0.332  31.618   4.300
76819W        W49079  20.226  35.945  12.917
76820W        W49080  42.474  36.065   3.720
76821W        W49081  16.284  17.118  10.120
76822W        W49082  22.016   4.855  12.443
76823W        W49083   2.740  19.539  11.460
76824W        W49084  12.145  29.059   4.624
76825W        W49085  13.350  36.883  12.831
76826W        W49086  18.556  15.752   0.298
76827W        W49087   3.884  35.886  10.994
76828W        W49088   5.931  14.335  13.957
76829W        W49089   6.200   6.820   1.214
76830W        W49090  31.007  13.314  13.995
76831W        W49091   4.736  30.053   2.252
76832W        W49092  30.510  19.663  11.855
76833W        W49093  41.879  18.075  12.860
76834W        W49094  30.931  31.548   9.952
76835W        W49095  27.156   7.407  12.511
76836W        W49096  21.227  25.578   3.147
76837W        W49097  33.618  30.152   1.902
76838W        W49098  13.619  22.055  12.441
76839W        W49099  27.001  42.978  12.083
76840W        W49100   9.200  12.708   0.482
76841W        W49101  38.541  35.592  11.400
76842W        W49102   4.767   7.415   5.178
76843W        W49103  38.330  33.027   3.856
76844W        W49104  44.970  42.827   4.823
76845W        W49105  19.157  22.553  13.344
76846W        W49106   6.681  32.097  11.558
76847W        W49107  17.298  34.433   2.375
76848W        W49108  16.272  35.102   1.319
76849W        W49109  26.652  25.671   4.313
76850W        W49110  22.143  26.149   2.189
76851W        W49111   8.839  16.153   4.637
76852W        W49112   7.691  10.167  12.525
76853W        W49113  28.615  18.144   0.319
76854W        W49114  44.492   6.822  12.026
76855W        W49115  10.180   9.855  13.884
76856W        W49116   3.458   1.734   1.309
76857W        W49117   3.930  27.530  13.006
76858W        W49118  39.554  21.146   3.180
76859W        W49119  39.822  19.068  12.836
76860W        W49120  42.324  23.613  11.552
76861W        W49121  31.939  26.016  14.370
76862W        W49122   6.243  21.701   4.313
76863W        W49123  17.221  21.512  12.046
76864W        W49124  22.557  11.702  13.505
76865W        W49125  11.785  18.242   4.209
76866W        W49126  11.768  16.279  12.063
76867W        W49127  12.235  32.460  12.424
76868W        W49128  42.417  39.861   0.916
76869W        W49129  31.575  33.115   2.799
76870W        W49130  15.602  43.481   4.698
76871W        W49131  10.319   9.223  14.832
76872W        W49132  37.431  30.543  11.594
76873W        W49133  20.603  13.712   2.311
76874W        W49134  44.938  33.617   4.720
76875W        W49135  38.821  37.501  13.052
76876W        W49136  32.582   8.178   1.445
76877W        W49137   0.357  38.396  13.338
76878W        W49138  14.333  39.466  13.944
76879W        W49139  15.764  30.093   3.720
76880W        W49140  25.001  41.521  14.774
76881W        W49141  41.361  27.139   2.312
76882W        W49142  15.292  23.125   4.817
76883W        W49143   0.381  12.307  14.514
76884W        W49144  29.505   5.362  10.506
76885W        W49145   7.402  36.367  11.971
76886W        W49146  25.195  10.746  13.889
76887W        W49147  32.554  23.540   0.460
76888W        W49148  44.855   5.860  13.475
76889W        W49149   5.337   9.876   0.414
76890W        W49150  17.212   4.437  12.893
76891W        W49151  26.201  14.591  12.073
76892W        W49152  44.891  23.011  13.904
76893W        W49153  21.523  42.975  11.103
76894W        W49154  20.769  26.126  12.871
76895W        W49155  32.620  32.897   3.689
76896W        W49156  38.936  25.015   0.808
76897W        W49157   7.199  10.696   1.812
76898W        W49158  31.459  12.775   1.855
76899W        W49159  38.043   5.871   1.817
76900W        W49160  16.160  25.130   2.260
76901W        W49161  14.141   4.309  14.798
76902W        W49162  22.013   7.299   3.327
76903W        W49163  28.609  21.111  14.433
76904W        W49164  12.747  42.996  12.497
76905W        W49165  25.553  36.862  13.405
76906W        W49166   5.737   1.941   2.702
76907W        W49167  34.022  19.261   1.924
76908W        W49168  36.415  13.132  13.461
76909W        W49169  30.979  13.734  11.474
76910W        W49170  21.586  14.680  14.824
76911W        W49171  34.610  22.106  12.854
76912W        W49172  30.163  34.103   1.389
76913W        W49173  39.427  42.376   4.792
76914W        W49174  16.701   2.431   0.263
76915W        W49175  26.193   2.843  12.936
76916W        W49176  33.899   4.740  14.372
76917W        W49177   8.869  38.993   0.845
76918W        W49178  29.108   3.914  12.064
76919W        W49179   7.216  34.102   0.348
76920W        W49180  37.839  31.984  12.346
76921W        W49181  10.655  22.673   0.834
76922W        W49182   5.734  25.626   5.135
76923W        W49183  14.795  22.704   4.716
76924W        W49184  30.978  39.894   1.710
76925W        W49185  42.481  26.104   1.800
76926W        W49186  21.593  39.438  12.499
76927W        W49187   5.830  26.985   3.163
76928W        W49188  35.906   0.382  12.427
76929W        W49189  18.243   4.711  11.994
76930W        W49190  26.024  35.950   4.604
76931W        W49191  20.695  22.208   1.264
76932W        W49192  31.058  35.948  10.644
76933W        W49193   4.318   3.459  12.528
76934W        W49194  44.324   5.927   2.292
76935W        W49195  18.214  15.756  13.848
76936W        W49196   3.406  16.727   4.690
76937W        W49197   9.222  39.430   3.277
76938W        W49198  26.675   9.690   4.694
76939W        W49199  14.647  42.912  12.041
76940W        W49200  24.616  35.490  11.475
76941W        W49201  11.774  22.584   1.789
76942W        W49202  40.924  12.187   0.893
76943W        W49203   3.290  12.841  12.371
76944W        W49204  18.652  34.016  11.020
76945W        W49205  11.790  18.692   4.242
76946W        W49206  39.035  22.103   4.219
76947W        W49207  42.959  32.957  14.880
76948W        W49208  41.849  29.552  12.434
76949W        W49209   0.291  14.152   1.227
76950W        W49210  38.828  27.532   1.926
76951W        W49211  23.709  29.143  14.341
76952W        W49212   9.363  22.997   2.820
76953W        W49213  10.807   6.837   4.796
76954W        W49214   1.270  39.374  13.935
76955W        W49215  20.072  19.199  13.365
76956W        W49216   2.856  39.546   3.324
76957W        W49217   8.687  15.211   1.867
76958W        W49218  23.567  27.962  14.398
76959W        W49219  25.089   2.894  10.413
76960W        W49220  14.214  33.529   1.913
76961W        W49221  38.071  37.434   2.222
76962W        W49222   7.825  18.749  14.454
76963W        W49223  20.768   4.781   3.373
76964W        W49224   8.866  33.543  14.802
76965W        W49225  38.008  29.428   0.919
76966W        W49226   9.651  38.457  12.477
76967W        W49227  41.491  32.934   3.340
76968W        W49228  36.576   8.243   4.220
76969W        W49229  24.178  20.662   0.365
76970W        W49230  17.787   0.861   2.212
76971W        W49231  12.704  24.147   2.771
76972W        W49232  22.687   8.871  11.414
76973W        W49233   5.254  31.029  10.549
76974W        W49234   5.381  35.875  11.102
76975W        W49235  42.959   9.809  13.374
76976W        W49236  19.716  13.759   4.209
76977W        W49237  44.304  14.144  10.486
76978W        W49238   7.804  35.950   0.871
76979W        W49239  20.568   0.336   3.761
76980W        W49240  43.013  13.150  13.989
76981W        W49241  25.126  14.638  13.869
76982W        W49242  23.617  17.590  12.350
76983W        W49243  36.927   9.370   9.485
76984W        W49244  18.765  16.074   4.614
76985W        W49245  34.487  26.962   2.372
76986W        W49246   3.414  38.053   2.183
76987W        W49247  20.085   9.193   1.391
76988W        W49248  30.568  29.453  12.886
76989W        W49249  20.102  41.455  11.382
76990W        W49250  12.636  43.340   1.795
76991W        W49251  41.931   2.963   2.322
76992W        W49252  43.865  24.676  14.971
76993W        W49253  20.174  13.674   0.824
76994W        W49254  44.990   0.272  14.981
76995W        W49255   5.397  20.201   0.882
76996W        W49256   3.341  28.624  14.504
76997W        W49257  16.613  12.717   4.706
76998W        W49258  41.830  13.135   1.336
76999W        W49259  18.675  20.595   3.323
77000W        W49260   9.723   9.243  14.817
77001W        W49261  32.085  13.287  14.316
77002W        W49262  35.940  11.845   3.680
77003W        W49263  38.451  28.602  14.812
77004W        W49264  16.714  40.969  13.364
77005W        W49265  19.768  29.578  11.924
77006W        W49266   7.354  21.224   2.284
77007W        W49267  23.131  37.481   1.357
77008W        W49268   8.221  19.097   0.941
77009W        W49269  38.067  18.633  10.013
77010W        W49270  40.326   4.366  14.408
77011W        W49271  17.271  36.973  10.607
77012W        W49272   5.897  19.216   3.734
77013W        W49273   5.202  18.700  11.113
77014W        W49274  35.103  29.594   3.345
77015W        W49275   9.849  44.821  14.394
77016W        W49276  15.613  12.175  13.827
77017W        W49277  39.015  27.450   4.280
77018W        W49278  39.429  16.724   4.741
77019W        W49279  21.609   9.690  12.877
77020W        W49280  31.517  30.479   4.767
77021W        W49281  41.934  19.713  13.909
77022W        W49282  30.429  17.628  11.606
77023W        W49283  33.100   1.772   4.741
77024W        W49284  26.458  31.977  10.601
77025W        W49285  30.947  38.408   2.261
77026W        W49286   9.658  26.110   2.667
77027W        W49287   3.429  43.507   3.734
77028W        W49288  18.120  26.195   4.612
77029W        W49289   3.929  22.221   4.134
77030W        W49290  42.475  40.951   2.259
77031W        W49291  11.803  14.328   2.233
77032W        W49292  11.702  16.134  13.823
77033W        W49293   8.684   8.856   4.839
77034W        W49294   2.318  20.097   1.228
77035W        W49295  38.546  27.519   4.733
77036W        W49296  25.480  21.593  13.962
77037W        W49297  24.705  31.569   3.669
77038W        W49298  32.989   3.951   4.344
77039W        W49299  34.380  16.245   4.748
77040W        W49300  25.166  24.230   2.872
77041W        W49301  33.002  27.589  12.513
77042W        W49302  15.800  31.506  13.329
77043W        W49303  11.800  13.730  12.050
77044W        W49304  35.956   7.288  13.483
77045W        W49305  41.492  37.897   2.870
77046W        W49306   6.205   1.391   1.726
77047W        W49307   5.193  31.148  11.929
77048W        W49308  19.585  43.386  14.927
77049W        W49309  11.180  44.873  14.468
77050W        W49310  35.867  22.612  14.480
77051W        W49311   3.377  32.616  13.008
77052W        W49312   9.177  25.616  13.044
77053W        W49313  31.611   3.240  14.801
77054W        W49314  43.466  22.126  13.422
77055W        W49315  39.518  23.991  11.548
77056W        W49316  33.619   2.410  10.933
77057W        W49317   1.481  24.702  14.350
77058W        W49318  28.563  37.386   1.216
77059W        W49319  23.608  22.152   2.256
77060W        W49320  41.913  15.819  13.867
77061W        W49321  12.671  14.128  12.005
77062W        W49322  24.179  14.616  10.546
77063W        W49323  29.514   1.467   2.741
77064W        W49324  14.747  19.071   1.253
77065W        W49325  42.336  41.041  12.493
77066W        W49326  35.558  29.109  14.814
77067W        W49327  29.046  28.533   3.382
77068W        W49328  19.757  30.500   4.804
77069W        W49329  27.102  33.432   2.698
77070W        W49330  32.527   8.319   2.223
77071W        W49331  24.016  41.881  14.856
77072W        W49332   0.987   8.265   2.853
77073W        W49333  23.584  42.003   1.437
77074W        W49334  20.694  40.892   0.274
77075W        W49335  18.295  11.734  14.388
77076W        W49336  26.047   5.840   1.728
77077W        W49337  28.461   5.337  12.423
77078W        W49338  41.513  12.645   3.848
77079W        W49339  17.778  25.615   0.297
77080W        W49340  43.805  36.920   2.898
77081W        W49341  19.059  33.480  11.613
77082W        W49342  16.805   2.269   4.727
77083W        W49343   2.900  20.188   4.619
77084W        W49344  36.852  11.824  13.977
77085W        W49345  38.970  27.554  14.860
77086W        W49346  32.007  24.148  13.883
77087W        W49347   0.294  23.688   3.634
77088W        W49348  23.183   3.897   1.439
77089W        W49349  15.695  33.593   4.723
77090W        W49350  20.238  25.686   3.322
77091W        W49351  16.802   8.871   2.235
77092W        W49352  27.127  17.730   0.873
77093W        W49353  38.950  34.901   4.742
77094W        W49354  42.384   2.899  11.957
77095W        W49355  41.401  37.996   1.275
77096W        W49356  41.305  40.494  12.921
77097W        W49357  33.026  11.825   0.827
77098W        W49358  37.024   5.799  10.411
77099W        W49359  19.047  19.704   3.860
77100W        W49360  14.332  25.471   2.711
77101W        W49361  39.823   8.759  13.030
77102W        W49362  40.955  20.171  10.426
77103W        W49363  28.055  39.907   3.323
77104W        W49364  34.938  38.328   0.345
77105W        W49365  42.986  26.659   4.728
77106W        W49366  38.017  27.652   3.359
77107W        W49367  12.203  29.504  13.446
77108W        W49368  17.282  23.671   2.306
77109W        W49369  31.968  19.126  11.499
77110W        W49370  16.809  16.137   5.745
77111W        W49371  19.621  37.964  13.465
77112W        W49372  24.173  30.154   1.927
77113W        W49373   6.677  30.500   0.297
77114W        W49374   8.826   9.669  14.500
77115W        W49375  17.296  17.172  11.070
77116W        W49376   6.826  40.337  10.511
77117W        W49377   5.224  10.791  11.966
77118W        W49378  33.100  33.918   3.288
77119W        W49379  33.881  13.238   3.833
77120W        W49380  19.560  22.592  14.832
77121W        W49381  21.545  38.554  14.449
77122W        W49382  24.526   5.804   3.301
77123W        W49383   8.365  12.186  11.577
77124W        W49384  33.427  23.017  11.074
77125W        W49385  14.201  16.695  14.864
77126W        W49386  35.543  17.673   3.335
77127W        W49387  44.331  20.174   4.681
77128W        W49388  32.939   5.887   0.917
77129W        W49389   2.370  38.962  13.848
77130W        W49390   5.821  10.677  11.991
77131W        W49391  39.544  31.014  14.304
77132W        W49392  24.196  23.523   3.365
77133W        W49393  33.881  18.169  14.980
77134W        W49394  11.818   5.841   3.291
77135W        W49395  29.152  39.957  14.763
77136W        W49396  43.271  33.400   2.418
77137W        W49397   4.447   1.310   3.777
77138W        W49398  32.564  24.566   3.149
77139W        W49399  12.780   2.439  14.962
77140W        W49400  16.693  15.761  11.964
77141W        W49401   8.325  40.841   1.277
77142W        W49402  26.141   8.794  13.000
77143W        W49403  18.648  11.279  13.064
77144W        W49404  20.754  25.581  11.094
77145W        W49405   5.841   8.824  14.361
77146W        W49406   2.916  18.670   4.724
77147W        W49407  25.999  44.332   3.314
77148W        W49408  21.733  26.072  10.054
77149W        W49409  10.773   4.379   1.266
77150W        W49410  38.856  16.777  13.956
77151W        W49411  36.502  35.601   2.309
77152W        W49412  22.246   0.795  13.396
77153W        W49413  20.626  15.641   1.316
77154W        W49414   7.900  16.703   2.703
77155W        W49415   4.812   6.203   3.680
77156W        W49416  20.028  41.500  14.381
77157W        W49417  32.507  42.897   9.952
77158W        W49418   2.323  22.021   1.374
77159W        W49419  44.384  31.927  12.548
77160W        W49420   7.816  31.459  11.385
77161W        W49421   8.867  43.913   1.363
77162W        W49422  20.141   4.915  14.786
77163W        W49423  42.877  13.815  13.340
77164W        W49424  35.566  44.837   2.692
77165W        W49425  31.547  25.570   2.277
77166W        W49426   7.271  40.985   1.435
77167W        W49427  34.912   7.186  10.962
77168W        W49428  21.147  24.168  14.994
77169W        W49429   5.793  35.475  12.396
77170W        W49430  40.501  15.671   3.258
77171W        W49431  14.651   9.682  12.447
77172W        W49432  25.634   2.264   4.609
77173W        W49433  12.690  13.265   4.750
77174W        W49434  27.132  19.127  13.835
77175W        W49435  44.954  17.756   4.277
77176W        W49436  10.202   0.267   0.278
77177W        W49437  42.022  18.159   3.307
77178W        W49438  19.056  28.982   3.295
77179W        W49439  33.967   4.442   3.295
77180W        W49440  28.544   7.819  10.417
77181W        W49441   7.173  25.594  13.053
77182W        W49442  26.627  34.612  13.869
77183W        W49443   7.340  36.987   0.738
77184W        W49444  30.613  29.144  13.508
77185W        W49445  24.996  41.964  13.364
77186W        W49446   8.274  42.783  11.562
77187W        W49447   9.205  15.693  14.284
77188W        W49448  22.702  31.930  12.419
77189W        W49449  15.633  22.740   0.828
77190W        W49450  23.087   8.317  11.951
77191W        W49451  33.098  19.079  10.928
77192W        W49452   5.412  12.240   1.772
77193W        W49453  22.594  20.107  13.441
77194W        W49454  43.357   7.320   0.913
77195W        W49455  18.163  19.764  11.957
77196W        W49456  15.128  26.644  10.458
77197W        W49457  29.017  18.195   0.888
77198W        W49458  29.480  34.059   3.854
77199W        W49459  37.481   5.873  10.931
77200W        W49460  31.108  21.174   4.180
77201W        W49461   8.205  33.443   0.883
77202W        W49462  40.339   3.743  12.958
77203W        W49463  43.330  25.066   2.886
77204W        W49464  34.423  36.862  14.023
77205W        W49465  18.645  31.935  10.888
77206W        W49466  27.005   8.213  12.975
77207W        W49467   4.223  39.548   4.789
77208W        W49468   2.330  42.313   3.857
77209W        W49469  28.069   1.247   1.221
77210W        W49470  36.087  29.426  13.499
77211W        W49471   6.299   3.945   2.883
77212W        W49472  37.853  40.516   1.259
77213W        W49473   6.724   4.401  10.509
77214W        W49474  18.261  39.851   1.265
77215W        W49475  42.010   0.791  10.592
77216W        W49476   7.858   1.965  11.469
77217W        W49477  14.733  21.120  13.901
77218W        W49478  18.760   3.821  10.966
77219W        W49479  37.403  43.784   4.186
77220W        W49480  23.696  43.892   2.698
77221W        W49481  38.371  11.326  12.057
77222W        W49482   5.252  14.257   4.751
77223W        W49483  11.831   6.224   5.271
77224W        W49484  25.168  30.554  13.989
77225W        W49485  23.626  18.618  12.966
77226W        W49486  24.565  38.516   2.874
77227W        W49487  21.722  24.980  13.337
77228W        W49488  26.999   8.309  14.804
77229W        W49489  13.666  16.773  11.458
77230W        W49490  29.072  41.837  12.096
77231W        W49491  29.502  24.097   1.933
77232W        W49492  30.588  36.868  12.398
77233W        W49493  41.793   9.339  14.030
77234W        W49494  28.582  27.145  13.482
77235W        W49495  38.461   1.347   3.656
77236W        W49496   8.309  30.959  14.429
77237W        W49497  35.415   5.269   1.753
77238W        W49498  20.661  38.348   4.282
77239W        W49499  26.057  38.443   4.167
77240W        W49500  13.737   9.674  11.403
77241W        W49501   7.905  12.618  10.455
77242W        W49502  41.792  32.394   1.226
77243W        W49503  26.051  34.100  13.951
77244W        W49504  14.129  27.632   0.322
77245W        W49505  18.636  24.493  12.095
77246W        W49506   4.707   2.349   0.905
77247W        W49507  19.740   5.244   3.742
77248W        W49508  27.625  19.239  12.422
77249W        W49509  37.525  31.027  14.378
77250W        W49510  36.871   6.210  10.434
77251W        W49511  14.288  25.005  11.384
77252W        W49512  29.976  42.021   1.734
77253W        W49513  11.689  31.078  11.065
77254W        W49514  13.787  18.140  10.586
77255W        W49515  42.360  35.408  10.423
77256W        W49516  13.633  40.417   1.343
77257W        W49517  16.241   5.930   2.263
77258W        W49518   6.357  33.957   1.212
77259W        W49519  39.846  42.990   1.369
77260W        W49520   5.401  17.719  10.421
77261W        W49521  10.374  44.481  13.424
77262W        W49522   7.874  24.075  11.020
77263W        W49523   1.255   9.212   2.699
77264W        W49524  33.464  27.528  14.986
77265W        W49525  28.587  10.245  10.542
77266W        W49526  22.567   6.239  14.308
77267W        W49527  21.692   4.285  12.350
77268W        W49528   6.695  28.652   4.298
77269W        W49529  14.690  36.401  14.780
77270W        W49530   6.269  22.682  11.100
77271W        W49531  41.318  32.980  10.523
77272W        W49532  23.066  19.675   2.338
77273W        W49533  13.610  11.263   3.672
77274W        W49534  21.716  37.905   0.774
77275W        W49535  44.852   9.189  14.449
77276W        W49536  22.695   2.905  11.565
77277W        W49537   4.928  21.149  10.149
77278W        W49538  13.296  10.689   2.339
77279W        W49539  32.501  28.464  13.332
77280W        W49540  28.073  42.792  10.436
77281W        W49541   9.811  29.968   1.405
77282W        W49542  23.637  25.495  12.345
77283W        W49543  34.048  10.835   0.943
77284W        W49544   8.171  26.535   1.438
77285W        W49545  36.544  32.933   0.934
77286W        W49546   1.955  11.816   4.798
77287W        W49547  24.499  27.165   9.617
77288W        W49548   9.767   7.899   4.124
77289W        W49549  43.003  36.415  12.369
77290W        W49550  22.086  33.592   3.785
77291W        W49551  15.308  25.196   4.221
77292W        W49552  21.655  11.779   3.308
77293W        W49553  14.301   6.262   0.804
77294W        W49554   3.714  18.148   0.857
77295W        W49555  43.337  27.571  13.514
77296W        W49556   2.238  22.016  14.412
77297W        W49557   8.714  32.064  11.475
77298W        W49558   7.246  25.672  11.610
77299W        W49559  40.408   5.775  10.925
77300W        W49560  39.403  13.695   0.396
77301W        W49561  34.997  14.621  13.969
77302W        W49562  14.723  15.121   1.428
77303W        W49563  38.362  25.597  12.435
77304W        W49564  16.611  35.967   0.952
77305W        W49565  10.275   6.773   0.336
77306W        W49566  27.454  29.158  14.306
77307W        W49567  12.253  14.635  11.984
77308W        W49568   3.881  31.630  14.465
77309W        W49569  10.346  10.305   2.845
77310W        W49570  18.686   2.885  12.851
77311W        W49571   4.351  18.725   0.311
77312W        W49572  42.302  22.118   3.661
77313W        W49573  21.548   9.689   4.609
77314W        W49574  24.502  31.938   3.661
77315W        W49575  13.811  36.070  13.032
77316W        W49576  28.448  43.008  11.401
77317W        W49577  14.243   8.239   2.211
77318W        W49578  24.572  32.988   0.841
77319W        W49579  33.130  37.431  13.439
77320W        W49580  22.079  12.233   3.806
77321W        W49581  12.129  39.004   4.187
77322W        W49582  40.999   7.851   4.251
77323W        W49583   5.844  32.070   3.691
77324W        W49584   8.209  13.141  12.018
77325W        W49585  16.256   3.404  13.859
77326W        W49586  14.748  20.070   1.886
77327W        W49587  32.520  28.484   4.633
77328W        W49588  17.159  23.163   2.278
77329W        W49589   6.880  43.476   4.180
77330W        W49590  41.531  22.009  13.397
77331W        W49591  39.535  13.107  14.459
77332W        W49592  34.447  33.451   0.438
77333W        W49593  14.224   7.778   0.403
77334W        W49594   5.836  13.752  13.312
77335W        W49595  26.082   2.953   1.859
77336W        W49596   9.300  43.496   4.285
77337W        W49597   5.762  22.740   3.714
77338W        W49598  30.914   2.803  14.345
77339W        W49599  36.424  39.327   0.481
77340W        W49600  36.437   9.361   2.327
77341W        W49601  31.968   2.927  10.911
77342W        W49602  30.099  35.381   0.443
77343W        W49603  11.711  33.001   2.187
77344W        W49604  38.519  21.543  13.029
77345W        W49605  30.970  13.192  12.343
77346W        W49606  30.640  26.592  11.859
77347W        W49607  14.600  21.605   4.827
77348W        W49608  37.548   0.770   1.850
77349W        W49609  21.747  34.896   2.671
77350W        W49610  25.987  32.142   1.292
77351W        W49611  30.128  43.779   2.405
77352W        W49612  36.505   3.245   2.367
77353W        W49613  13.238  44.990   1.429
77354W        W49614  43.798  13.265   2.749
77355W        W49615   4.367  14.244   2.376
77356W        W49616  13.690  33.566  10.518
77357W        W49617  19.622  26.002  11.009
77358W        W49618   1.900  25.172   4.275
77359W        W49619  26.185  22.014   3.364
77360W        W49620  35.465   4.233   4.220
77361W        W49621  25.649  42.435   3.229
77362W        W49622  40.509  30.567  12.066
77363W        W49623  36.398   2.831   4.831
77364W        W49624  13.187   1.812   0.470
77365W        W49625  32.570  23.220   4.604
77366W        W49626  32.010  33.601  11.036
77367W        W49627   0.387  35.924   1.404
77368W        W49628   5.318  31.590   3.339
77369W        W49629  23.609  43.980  12.934
77370W        W49630  29.467  21.190  11.579
77371W        W49631  36.419  34.899   2.826
77372W        W49632  32.593  20.708  11.543
77373W        W49633  10.203  16.667  13.828
77374W        W49634  27.961  38.834  13.433
77375W        W49635  17.691  22.586   4.166
77376W        W49636  36.440  34.425  14.773
77377W        W49637   1.974  25.481   2.418
77378W        W49638   5.799  43.960  14.785
77379W        W49639  34.498  15.117   3.363
77380W        W49640  23.128  10.785   0.365
77381W        W49641  14.664   4.837  11.408
77382W        W49642  29.079  14.226   2.741
77383W        W49643  40.408  44.480  12.433
77384W        W49644  23.645  24.207  11.090
77385W        W49645   1.767  40.464   0.303
77386W        W49646  10.697  27.641  14.846
77387W        W49647  30.030  10.248   5.212
77388W        W49648  25.529  42.322   9.992
77389W        W49649  41.814  32.975   0.817
77390W        W49650  12.251  11.367   2.369
77391W        W49651  25.057  13.749  14.764
77392W        W49652   0.984  37.982   3.811
77393W        W49653   1.341  31.428  12.540
77394W        W49654  42.404  24.659  11.556
77395W        W49655   2.335  25.714   1.716
77396W        W49656  13.672  19.113   1.701
77397W        W49657   9.196  18.145  10.962
77398W        W49658  25.676   6.798  10.978
77399W        W49659   4.843  20.265  12.976
77400W        W49660  11.182  35.920  13.372
77401W        W49661  15.186  38.037   2.251
77402W        W49662  34.070  37.445  14.454
77403W        W49663   3.722  33.974  11.454
77404W        W49664  40.927  29.034  12.580
77405W        W49665  21.210  35.002   3.193
77406W        W49666   0.960  44.496  11.425
77407W        W49667  25.181  29.169   2.833
77408W        W49668  22.163  28.643  12.380
77409W        W49669  25.097  19.676   4.217
77410W        W49670  28.988  26.957  10.948
77411W        W49671  37.008  26.497   0.464
77412W        W49672  13.303  19.760   2.189
77413W        W49673  30.453   8.661  11.604
77414W        W49674  36.968  40.414   1.766
77415W        W49675  24.070  10.252   2.841
77416W        W49676  11.775  38.862  12.903
77417W        W49677  15.662  18.220  10.987
77418W        W49678  15.797  20.111  11.057
77419W        W49679  19.719  40.465  12.572
77420W        W49680  21.685   7.679   0.252
77421W        W49681  13.259  32.094   3.777
77422W        W49682  22.195  31.551   4.759
77423W        W49683  35.081  42.389  10.444
77424W        W49684  11.307  17.164   2.894
77425W        W49685   2.859  26.092   1.350
77426W        W49686   3.214  23.071  14.443
77427W        W49687  15.780  18.561  12.080
77428W        W49688  29.039  34.910   4.691
77429W        W49689  23.133  32.518  11.908
77430W        W49690  33.910   8.175  13.323
77431W        W49691  40.001   6.351   3.870
77432W        W49692  30.643  13.348  12.508
77433W        W49693  24.101   2.360  14.845
77434W        W49694  32.893   1.813   0.958
77435W        W49695  32.126  44.867   4.778
77436W        W49696  24.555  12.220  14.810
77437W        W49697   6.344  19.563   1.333
77438W        W49698  35.033  43.479   0.326
77439W        W49699  35.574   5.417  10.634
77440W        W49700   7.764  32.492   1.415
77441W        W49701  10.857  11.680  11.435
77442W        W49702  29.025  23.530  13.814
77443W        W49703   6.225  11.205  10.512
77444W        W49704   1.774  20.538   1.330
77445W        W49705  21.199  26.577   4.809
77446W        W49706  14.335  44.888   4.207
77447W        W49707  19.075  12.664  13.007
77448W        W49708  39.913   3.408  14.437
77449W        W49709  34.561   3.775  12.092
77450W        W49710  22.164   7.378  13.889
77451W        W49711  17.245  22.115  13.517
77452W        W49712  32.474  18.118  13.369
77453W        W49713   2.449  28.081  13.476
77454W        W49714  36.084  28.540   1.442
77455W        W49715  41.959  34.045   3.295
77456W        W49716  11.671  20.108   4.289
77457W        W49717  41.347  11.805   0.279
77458W        W49718  16.574  28.559  10.549
77459W        W49719  19.601   9.781   0.439
77460W        W49720  30.020  11.658   3.701
77461W        W49721   9.687  20.238  11.478
77462W        W49722   2.933  29.064   1.758
77463W        W49723  35.383  24.723  14.474
77464W        W49724  34.377   1.418   4.666
77465W        W49725  43.951  11.670   2.282
77466W        W49726  33.958  16.763   0.797
77467W        W49727  42.441  36.559  14.991
77468W        W49728  16.125  22.214   2.847
77469W        W49729   1.391  37.467   0.879
77470W        W49730  28.674   5.244   0.483
77471W        W49731   7.864  10.214   0.729
77472W        W49732  32.427  27.950   0.887
77473W        W49733  24.480   6.397  10.416
77474W        W49734   5.194  43.300  11.447
77475W        W49735  43.880  30.043   0.343
77476W        W49736   3.420   6.756  12.570
77477W        W49737  14.124   1.305  10.468
77478W        W49738  25.982   8.205   3.221
77479W        W49739  34.379  12.127   0.742
77480W        W49740  15.633  29.669  14.304
77481W        W49741  17.663  17.580  13.032
77482W        W49742  25.976  18.199   1.410
77483W        W49743  17.233  10.322  10.001
77484W        W49744   0.464   2.441   2.251
77485W        W49745  16.273   7.705  13.825
77486W        W49746   3.246  13.117  10.991
77487W        W49747  26.049  22.031   4.805
77488W        W49748   0.267  35.510   4.137
77489W        W49749  17.132  24.601  10.984
77490W        W49750   3.261  44.798   0.385
77491W        W49751  18.204  32.978  10.572
77492W        W49752  16.080  43.273   0.360
77493W        W49753  15.305  43.022   0.276
77494W        W49754  25.143   4.837  14.371
77495W        W49755  15.145   4.917  10.498
77496W        W49756  40.347  29.486   4.115
77497W        W49757  10.731  39.349  12.866
77498W        W49758  35.873   4.444  11.382
77499W        W49759  38.457  23.003   2.296
77500W        W49760   8.317  30.913  10.542
77501W        W49761  32.613  43.776  13.389
77502W        W49762  22.700   5.407   3.680
77503W        W49763  28.603  16.797  12.445
77504W        W49764  41.375   3.767   4.798
77505W        W49765  28.058  30.638  14.420
77506W        W49766  18.094  27.654   3.222
77507W        W49767  24.068  40.491   3.278
77508W        W49768  36.360  13.114  10.973
77509W        W49769  34.474  10.268  11.889
77510W        W49770  37.401   3.772  12.390
77511W        W49771  12.339   9.181   4.692
77512W        W49772  36.983  29.548  14.961
77513W        W49773  40.399  34.888  11.869
77514W        W49774   1.417  17.758  14.919
77515W        W49775  13.746  36.992  10.606
77516W        W49776   2.440   2.940   4.835
77517W        W49777  29.104  27.509   1.377
77518W        W49778   5.280  36.581  13.491
77519W        W49779  30.943   9.668   0.349
77520W        W49780  37.431  11.710  13.836
77521W        W49781   5.376  21.204   4.229
77522W        W49782  10.301  15.803   0.932
77523W        W49783  43.427   0.356  13.911
77524W        W49784  33.113  26.670  11.923
77525W        W49785  41.536  42.997   0.749
77526W        W49786  11.809  40.483  13.474
77527W        W49787  13.754  31.423   4.199
77528W        W49788   5.864   2.791   0.327
77529W        W49789   2.932   7.176  14.395
77530W        W49790  40.406  25.161  11.434
77531W        W49791  21.083  34.584  13.002
77532W        W49792  34.457  37.933  13.522
77533W        W49793  36.880   0.471  14.301
77534W        W49794   0.269  27.555  14.512
77535W        W49795  27.003  22.510   4.794
77536W        W49796  28.091  43.380  11.592
77537W        W49797  13.212  37.999   3.829
77538W        W49798  33.568  36.897   0.423
77539W        W49799  24.711   3.258   3.806
77540W        W49800  23.051  20.612   5.091
77541W        W49801  24.672  12.245   4.725
77542W        W49802  42.416  15.593  11.074
77543W        W49803  43.798  24.095   0.779
77544W        W49804  36.950  28.521   1.357
77545W        W49805  40.052   9.233  12.087
77546W        W49806  36.439   6.808  11.052
77547W        W49807  38.992   4.892  12.861
77548W        W49808  40.458  14.325   4.644
77549W        W49809  32.582  32.966   0.847
77550W        W49810  41.315  29.134  10.998
77551W        W49811  28.037  37.475  14.480
77552W        W49812  34.089  43.011   4.802
77553W        W49813  14.754  35.495   0.435
77554W        W49814  41.435  26.178   4.270
77555W        W49815  35.431  21.166   4.687
77556W        W49816  21.512  24.533  14.910
77557W        W49817   3.914  43.436  14.851
77558W        W49818  19.279  24.515  13.887
77559W        W49819   8.698   7.281  10.596
77560W        W49820   2.757  36.939  14.981
77561W        W49821  34.037  41.336  11.126
77562W        W49822  13.218  12.802   5.261
77563W        W49823  12.763  10.301  11.448
77564W        W49824   4.828   5.321   2.202
77565W        W49825  24.526   0.797  12.824
77566W        W49826  24.646  41.920   4.713
77567W        W49827  18.766   9.348   3.657
77568W        W49828   8.386  27.448   0.922
77569W        W49829   0.398  15.109  14.304
77570W        W49830   0.797  43.793   3.704
77571W        W49831  43.897   6.240  12.524
77572W        W49832  44.768  38.507  14.780
77573W        W49833  42.484  21.743  12.897
77574W        W49834  29.486  14.633   3.817
77575W        W49835  19.202  14.241   0.911
77576W        W49836   4.934   6.306   0.776
77577W        W49837  15.127   2.412   2.871
77578W        W49838  26.594  14.159  14.458
77579W        W49839  17.083  25.167  13.374
77580W        W49840  19.584  42.484  11.938
77581W        W49841  43.947  35.579  13.870
77582W        W49842  34.577  18.609   9.649
77583W        W49843  11.721  32.037  12.444
77584W        W49844   4.765  24.650  12.575
77585W        W49845  34.968  44.842  13.314
77586W        W49846  34.865  30.465  10.570
77587W        W49847  42.495  43.472   3.350
77588W        W49848  18.573  34.066   4.285
77589W        W49849  21.038  43.003   3.353
77590W        W49850  10.165  13.766  10.586
77591W        W49851  40.480  15.796   2.822
77592W        W49852  11.720   3.809   3.209
77593W        W49853   1.361   2.724   4.600
77594W        W49854   7.316  11.274  14.292
77595W        W49855  21.030  36.398   1.762
77596W        W49856  24.162  29.080  10.020
77597W        W49857   3.883  29.943   4.281
77598W        W49858  18.189  16.656   4.113
77599W        W49859   4.296   7.375   4.253
77600W        W49860  23.503  38.570   2.278
77601W        W49861  35.865  13.838  11.410
77602W        W49862  40.421  19.605   3.359
77603W        W49863  37.929  35.858   1.347
77604W        W49864  27.558  21.610  14.361
77605W        W49865  19.220   6.782  14.856
77606W        W49866  34.965  23.541  11.423
77607W        W49867  19.614  18.651   3.380
77608W        W49868  24.632   4.333  14.005
77609W        W49869  44.295  30.444   4.153
77610W        W49870  16.805  40.030   1.748
77611W        W49871  14.589  26.065  12.535
77612W        W49872   6.334  37.915   1.824
77613W        W49873  10.734   5.838  11.510
77614W        W49874  42.004  40.023   5.189
77615W        W49875  14.594  27.028   0.847
77616W        W49876  40.445  17.184   1.911
77617W        W49877  18.209  18.167  14.964
77618W        W49878  19.184  25.650   0.335
77619W        W49879   7.888  28.506  14.397
77620W        W49880  39.484  22.220   0.362
77621W        W49881  34.410  15.810  14.967
77622W        W49882  37.016  26.513   2.809
77623W        W49883  29.988   5.870   1.242
77624W        W49884  18.291  20.260   2.258
77625W        W49885  40.505  43.492  13.815
77626W        W49886  12.129  36.987  12.501
77627W        W49887  38.366  37.907  11.440
77628W        W49888  40.531  11.647   0.745
77629W        W49889  39.033  20.693  13.973
77630W        W49890  25.513  17.754  11.531
77631W        W49891  36.397  35.948   1.836
77632W        W49892  34.988   6.345   5.249
77633W        W49893  12.155  12.300   0.459
77634W        W49894  40.465  32.127   4.657
77635W        W49895  15.694  28.935  14.451
77636W        W49896  22.109  44.332   3.365
77637W        W49897  39.541  21.133  11.515
77638W        W49898  23.719  18.155  11.579
77639W        W49899  22.732   6.329  12.081
77640W        W49900  17.102  35.981   3.162
77641W        W49901  25.079  20.230  10.495
77642W        W49902   0.296  29.474  13.972
77643W        W49903  39.492  39.387   3.707
77644W        W49904  38.820  29.602  13.340
77645W        W49905   8.227  12.721  13.490
77646W        W49906  40.494  21.162  13.366
77647W        W49907  40.900  17.591   3.758
77648W        W49908  14.298  42.810   2.860
77649W        W49909   2.403  17.657   3.654
77650W        W49910  34.524  44.363   0.780
77651W        W49911  20.733  44.500   4.262
77652W        W49912  26.186  20.195  12.955
77653W        W49913  38.361  15.757   3.341
77654W        W49914  12.785  15.324   0.310
77655W        W49915  30.098   8.339  10.611
77656W        W49916  25.677  32.560   0.826
77657W        W49917  29.135  42.862   0.253
77658W        W49918  10.855  39.439   0.921
77659W        W49919  15.238   1.342   1.761
77660W        W49920   4.761  28.540   1.396
77661W        W49921   5.262  24.692  11.034
77662W        W49922   1.736   1.907  13.372
77663W        W49923   7.386   4.708   1.725
77664W        W49924   0.867  44.900  13.311
77665W        W49925   6.390  13.672   4.687
77666W        W49926  29.972   5.727   2.674
77667W        W49927  19.194   0.442   1.698
77668W        W49928  30.421  30.589   1.718
77669W        W49929   7.303  23.553   0.456
77670W        W49930  24.534   4.352  14.955
77671W        W49931  24.606  16.627  12.081
77672W        W49932   3.844   4.420   0.855
77673W        W49933  21.690   1.468  12.413
77674W        W49934   3.333  34.453  10.066
77675W        W49935   7.170  43.309  12.829
77676W        W49936  19.240  41.309  13.912
77677W        W49937   8.400  42.370   4.791
77678W        W49938  40.534  36.584  12.894
77679W        W49939  40.430  39.041   1.870
77680W        W49940  35.086   4.755   1.230
77681W        W49941  42.997  39.411   3.750
77682W        W49942   9.169   2.411   2.860
77683W        W49943   9.227  15.246   4.651
77684W        W49944  36.059  26.190   2.224
77685W        W49945   7.269  35.095  14.449
77686W        W49946  31.079  43.352  12.425
77687W        W49947  22.731  28.009  14.966
77688W        W49948   1.421  12.679  14.887
77689W        W49949   1.241  34.092   2.693
77690W        W49950  43.362  29.994   2.181
77691W        W49951  37.863  32.607   1.408
77692W        W49952  23.710  20.630   9.522
77693W        W49953   6.905  40.321  11.942
77694W        W49954  17.167  35.102   4.816
77695W        W49955  31.123  18.609   1.389
77696W        W49956  33.482  12.317  10.134
77697W        W49957   2.318  43.276  10.472
77698W        W49958  17.755  22.571  12.367
77699W        W49959  10.828  32.452  10.621
77700W        W49960   2.281  37.906   3.780
77701W        W49961   6.843   7.379  12.951
77702W        W49962  27.004   3.944  12.971
77703W        W49963  22.171  32.982   4.800
77704W        W49964  13.272  40.520   5.257
77705W        W49965  33.128  10.165   0.844
77706W        W49966  11.274  14.804   2.202
77707W        W49967  40.484  13.835   3.677
77708W        W49968  28.648  17.563   4.712
77709W        W49969  16.655   5.248   2.322
77710W        W49970   1.377  41.520   3.346
77711W        W49971  28.064  40.529  12.032
77712W        W49972   4.859  41.878  14.360
77713W        W49973  18.700  14.758  14.328
77714W        W49974  34.383  17.145  10.636
77715W        W49975  39.364  27.973   3.668
77716W        W49976  14.267   0.940  10.569
77717W        W49977  13.683  20.192   0.400
77718W        W49978  36.352  16.083   4.291
77719W        W49979  22.090  33.461  14.028
77720W        W49980  42.463  33.093  11.541
77721W        W49981  36.529  32.480  12.951
77722W        W49982  31.955   1.439  12.561
77723W        W49983  13.132  14.206  13.854
77724W        W49984  29.527  42.912  11.886
77725W        W49985  30.105  19.570   0.428
77726W        W49986  17.760  41.912   2.196
77727W        W49987  10.225  38.932  10.461
77728W        W49988  43.950  27.673  11.046
77729W        W49989  23.056  11.307   4.310
77730W        W49990  24.112  24.976   2.272
77731W        W49991   1.762  27.479   2.250
77732W        W49992  29.538  37.385  12.505
77733W        W49993   3.408  20.746  14.859
77734W        W49994  10.842  19.699   5.091
77735W        W49995  38.424  13.735  10.481
77736W        W49996  20.152  19.052   2.200
77737W        W49997  30.008   5.395  14.786
77738W        W49998  33.109  37.935   1.278
77739W        W49999  24.514  27.663  13.034
77740W        W50000  39.341  22.099  14.879
77741W        W50001  40.943  29.067  11.476
77742W        W50002   7.218  26.658   3.779
77743W        W50003   2.453  34.936   2.279
77744W        W50004   9.206  17.172  14.796
77745W        W50005  30.423   7.826  11.432
77746W        W50006  29.621   3.719  12.079
77747W        W50007  44.993  15.151   1.889
77748W        W50008  25.099  40.462  11.889
77749W        W50009  34.963  17.628   4.798
77750W        W50010  20.029  34.583  12.461
77751W        W50011  10.800  17.728   2.246
77752W        W50012   7.899  38.397  14.348
77753W        W50013   5.751  24.591   1.392
77754W        W50014   3.799   3.395  13.864
77755W        W50015  22.506  15.744  12.073
77756W        W50016  12.761  24.612  13.839
77757W        W50017   2.356   4.262   4.280
77758W        W50018  40.843   0.265   3.355
77759W        W50019  31.091  35.001  14.406
77760W        W50020  44.333  12.845  12.459
77761W        W50021  33.972   6.405  13.524
77762W        W50022  37.360  42.997   2.763
77763W        W50023  27.033  43.822   1.836
77764W        W50024  22.664   4.247  13.481
77765W        W50025   8.839  13.735  12.534
77766W        W50026  18.579   5.283  11.403
77767W        W50027   3.950  28.949  10.965
77768W        W50028   5.196  30.013   4.740
77769W        W50029   6.807  20.201  12.486
77770W        W50030   8.274   3.244  13.878
77771W        W50031   0.812  10.314   5.135
77772W        W50032  28.134  17.068  11.088
77773W        W50033  26.019  12.845   2.250
77774W        W50034  16.694  15.819  10.639
77775W        W50035   3.415   2.374   1.780
77776W        W50036   1.917   3.795   2.237
77777W        W50037  36.061   4.803   3.736
77778W        W50038  29.936   8.865   4.744
77779W        W50039  40.435  43.396   0.401
77780W        W50040   4.878  27.589   0.357
77781W        W50041   8.224  41.523   4.813
77782W        W50042  27.468  44.939  11.876
77783W        W50043  40.508  31.000  13.541
77784W        W50044  24.120  32.069  14.508
77785W        W50045  15.648  17.628  12.050
77786W        W50046  35.385  12.737  11.048
77787W        W50047   8.329  32.488   1.836
77788W        W50048  22.576  29.620  13.799
77789W        W50049  24.614  20.594  10.954
77790W        W50050  23.225   5.309  10.914
77791W        W50051  41.859  12.353  13.795
77792W        W50052  41.463  11.671   0.957
77793W        W50053  15.771  16.280   0.908
77794W        W50054  41.856  30.458   0.473
77795W        W50055  11.694  19.119  12.473
77796W        W50056  12.797  40.408   4.672
77797W        W50057  15.720   3.357  12.075
77798W        W50058   4.872  32.555  11.414
77799W        W50059  16.625   0.969  14.414
77800W        W50060   3.818  39.944  13.483
77801W        W50061   8.813  14.713   3.215
77802W        W50062  41.799   1.320  13.818
77803W        W50063  30.976   9.696  13.539
77804W        W50064  29.590  13.153   1.852
77805W        W50065  22.710   2.431  14.398
77806W        W50066   8.164  22.042  14.445
77807W        W50067  35.406  16.304  11.510
77808W        W50068  27.502   2.871  11.396
77809W        W50069   6.286  34.572  14.798
77810W        W50070  27.467  21.161  13.503
77811W        W50071   8.796  36.373  10.452
77812W        W50072  23.724  39.415   3.724
77813W        W50073   6.261  11.283  14.376
77814W        W50074  34.899  41.915  10.964
77815W        W50075  26.057  41.796   0.321
77816W        W50076  37.019  10.316   3.828
77817W        W50077  31.094  43.804  12.522
77818W        W50078  12.120   3.861  11.966
77819W        W50079  25.984  17.622   4.705
77820W        W50080  11.677  29.644  12.014
77821W        W50081  31.557  36.584  12.561
77822W        W50082  20.042  33.462  12.340
77823W        W50083  22.046  34.412  14.014
77824W        W50084  22.021  14.677  14.810
77825W        W50085  33.951  31.136  10.407
77826W        W50086  27.962  32.437  11.908
77827W        W50087  16.205   5.813  10.906
77828W        W50088  15.085   5.323   0.944
77829W        W50089  41.975  37.524   0.815
77830W        W50090   8.806  43.921  13.445
77831W        W50091  32.544  15.293   0.851
77832W        W50092   7.793  16.223   1.406
77833W        W50093  37.532  43.851  10.144
77834W        W50094  42.940  10.835  14.766
77835W        W50095  25.155  27.470   0.350
77836W        W50096  24.018  30.572  14.791
77837W        W50097   3.344  12.252  11.585
77838W        W50098   7.728  33.072   1.717
77839W        W50099   3.349  16.317  11.027
77840W        W50100  44.383   1.377  10.135
77841W        W50101   2.373   7.390   4.669
77842W        W50102   4.905  23.722   5.319
77843W        W50103  30.479   7.252   0.325
77844W        W50104   4.835   1.357  11.860
77845W        W50105   4.407   5.924  11.420
77846W        W50106  44.911  44.258  12.508
77847W        W50107   8.845  10.835  13.542
77848W        W50108  43.429  23.071  12.567
77849W        W50109  29.114  19.194  12.901
77850W        W50110  18.248  13.303   0.948
77851W        W50111  29.649  30.088   4.296
77852W        W50112  35.390   0.480  10.464
77853W        W50113  10.739   9.813  14.297
77854W        W50114  43.969  24.041  10.476
77855W        W50115  40.959  26.055  14.008
77856W        W50116  20.064  16.182  12.350
77857W        W50117  42.956  21.596   1.928
77858W        W50118   7.393  28.053   5.120
77859W        W50119  32.901   1.409   3.371
77860W        W50120   6.349   1.879  12.420
77861W        W50121  12.153  36.040   4.607
77862W        W50122   9.357  18.131   4.157
77863W        W50123  34.472  35.382  11.403
77864W        W50124  27.588  44.917  13.532
77865W        W50125  24.107  38.040   0.441
77866W        W50126   6.901  24.979  10.453
77867W        W50127  10.278  40.888   1.286
77868W        W50128  19.732  27.179  14.835
77869W        W50129  44.832   3.216  13.386
77870W        W50130  40.345  39.558   3.725
77871W        W50131   7.279   8.776  10.548
77872W        W50132   6.731  26.478  10.992
77873W        W50133  43.968  31.989   2.211
77874W        W50134  34.055  37.012  13.526
77875W        W50135   5.220  13.221   2.210
77876W        W50136  23.515  41.301   3.204
77877W        W50137   8.680  44.502   1.309
77878W        W50138  21.664   0.289   3.839
77879W        W50139  39.883  33.130  10.977
77880W        W50140   3.891  12.155   2.743
77881W        W50141  23.212   7.724  14.836
77882W        W50142   0.352  36.986  13.995
77883W        W50143  16.102  23.229  13.967
77884W        W50144  36.043  32.898   2.415
77885W        W50145  18.233   5.789   0.383
77886W        W50146  33.022  39.977   2.831
77887W        W50147  27.186  20.576   2.755
77888W        W50148  44.460  39.358  14.951
77889W        W50149  38.832  40.817   5.186
77890W        W50150  12.305  43.400  12.844
77891W        W50151  30.072  14.649  12.974
77892W        W50152   0.294  42.365  14.814
77893W        W50153  32.465  24.068   4.752
77894W        W50154  28.620  14.824  13.024
77895W        W50155   6.839  15.229  14.928
77896W        W50156  27.051  25.571  13.519
77897W        W50157  13.657  24.493   4.697
77898W        W50158  12.809  44.353   1.331
77899W        W50159  28.557   6.805   1.921
77900W        W50160  15.146  30.103  13.480
77901W        W50161  37.350  17.709  14.019
77902W        W50162  10.792  28.186   2.197
77903W        W50163  42.439  22.211   0.327
77904W        W50164  18.719  30.450  13.990
77905W        W50165  43.496  40.517  12.421
77906W        W50166  25.198  32.030   4.647
77907W        W50167  31.923  41.982   2.347
77908W        W50168  29.107  37.905  13.410
77909W        W50169  26.044  14.253  14.918
77910W        W50170  43.296  31.465   3.711
77911W        W50171  16.207  39.444  12.079
77912W        W50172   1.445  17.257   3.807
77913W        W50173   3.240  44.299  12.492
77914W        W50174   6.420  38.844   3.216
77915W        W50175  42.345  41.921   2.399
77916W        W50176  34.554  39.374  14.421
77917W        W50177  31.561  36.369   1.302
77918W        W50178  12.711   5.215  10.417
77919W        W50179  26.133   6.338  12.040
77920W        W50180  14.766  33.578  11.377
77921W        W50181  26.609  10.354   4.138
77922W        W50182   0.787  14.109  12.028
77923W        W50183  27.018  22.714  12.478
77924W        W50184  40.906  24.013  14.501
77925W        W50185  42.007  14.252  14.457
77926W        W50186  38.436   4.945  14.791
77927W        W50187  26.491  10.687   5.189
77928W        W50188  39.375  15.252   3.222
77929W        W50189  30.442  13.671   3.794
77930W        W50190  15.647  29.055  10.521
77931W        W50191  33.064  16.184  12.495
77932W        W50192  41.951  13.712   0.750
77933W        W50193   7.381  40.905  12.549
77934W        W50194   3.343   3.418   1.833
77935W        W50195  41.522  32.551   1.227
77936W        W50196  40.470  44.266   1.901
77937W        W50197   7.792  19.632   4.260
77938W        W50198  10.855  44.302   0.291
77939W        W50199  10.279  24.550  14.987
77940W        W50200  40.382  30.462   4.706
77941W        W50201  36.982  32.970   2.688
77942W        W50202  37.053  29.520   1.805
77943W        W50203  38.020  37.505  10.598
77944W        W50204   8.854  10.149  12.525
77945W        W50205   5.711  32.524   0.765
77946W        W50206  19.060  37.400   4.343
77947W        W50207   4.424  35.593   0.405
77948W        W50208   8.758   7.256  12.021
77949W        W50209  16.241  18.666   2.392
77950W        W50210  21.117   6.755  14.431
77951W        W50211  37.359  37.454   4.209
77952W        W50212   7.852  27.613   0.841
77953W        W50213  27.164  35.390  11.609
77954W        W50214   4.356  29.434  12.926
77955W        W50215  20.149  30.469  14.952
77956W        W50216  17.746  15.276   1.365
77957W        W50217  26.011   0.829   2.854
77958W        W50218  10.850   0.325  10.499
77959W        W50219   8.282  37.884  12.958
77960W        W50220  28.443  40.439  13.476
77961W        W50221  43.339  37.545  11.428
77962W        W50222  37.341  22.730   4.733
77963W        W50223  19.641  21.636  12.978
77964W        W50224   1.340  22.105   1.761
77965W        W50225  20.737  18.546  11.963
77966W        W50226   7.188  37.079  14.914
77967W        W50227  33.530  12.352   2.391
77968W        W50228  12.796  40.477   2.410
77969W        W50229   2.286   4.712   1.326
77970W        W50230  26.498  20.611  12.067
77971W        W50231  29.962  18.217   1.438
77972W        W50232  40.420  39.371  12.501
77973W        W50233  10.768  17.125   0.859
77974W        W50234  42.297  43.950  11.592
77975W        W50235  41.014  10.167   0.852
77976W        W50236  26.004  33.455   0.306
77977W        W50237  29.502  35.981  13.840
77978W        W50238  13.729  35.542   0.752
77979W        W50239  18.105  16.739   1.895
77980W        W50240   9.856  35.406   2.763
77981W        W50241  13.187  13.758   2.350
77982W        W50242  19.738  44.985   0.419
77983W        W50243  35.594  31.115  12.901
77984W        W50244   7.300  21.248   4.229
77985W        W50245   4.223  13.305   0.913
77986W        W50246  25.553   4.224   1.446
77987W        W50247   5.728  31.981  14.458
77988W        W50248   4.259  26.113   9.606
77989W        W50249  14.661   4.393  13.378
77990W        W50250  33.127  11.303  11.907
77991W        W50251  29.467  19.200  13.350
77992W        W50252  10.204  43.894   0.439
77993W        W50253  13.175  23.585   0.294
77994W        W50254  18.165  36.560  13.936
77995W        W50255  17.151  17.571  11.371
77996W        W50256  22.652  33.900   1.842
77997W        W50257   8.215  42.514  12.367
77998W        W50258  14.793  37.877  11.595
77999W        W50259  31.615   7.202   2.880
78000W        W50260  14.590   7.315  12.029
78001W        W50261  13.806  41.397   0.762
78002W        W50262  37.365  35.599  13.509
78003W        W50263  43.765  34.395   4.624
78004W        W50264  12.724  23.717   2.370
78005W        W50265  23.606  34.371   0.450
78006W        W50266  28.134   3.416   0.364
78007W        W50267  14.696  19.555   0.300
78008W        W50268  11.311   7.199  10.571
78009W        W50269  17.266  33.892   0.296
78010W        W50270  12.746  28.153  12.403
78011W        W50271  23.164  37.354   3.226
78012W        W50272  32.050  11.369  14.456
78013W        W50273  19.080  34.461   4.187
78014W        W50274   5.840  35.978   3.734
78015W        W50275  16.672  30.924  13.327
78016W        W50276  42.854  36.028   0.338
78017W        W50277  30.419  21.655  11.496
78018W        W50278  16.307  37.550   3.832
78019W        W50279  31.034  20.685  12.879
78020W        W50280  38.425  31.601   2.836
78021W        W50281   2.456  32.486  14.883
78022W        W50282   0.419   1.364   4.634
78023W        W50283  25.121  38.000  12.017
78024W        W50284  23.602  14.739  14.955
78025W        W50285  34.082  39.502  10.516
78026W        W50286  35.415  13.734  10.406
78027W        W50287  24.101  33.972  13.906
78028W        W50288  28.062  25.507  11.989
78029W        W50289  14.201   0.279  10.492
78030W        W50290   3.220  22.039  11.864
78031W        W50291   2.921  43.347  14.769
78032W        W50292  33.482   0.948  11.497
78033W        W50293   8.226  39.476  13.838
78034W        W50294  39.007   6.183   2.683
78035W        W50295  44.318  36.430   4.189
78036W        W50296  43.846  14.677   3.312
78037W        W50297   8.730  22.745   3.303
78038W        W50298  22.033  42.498   1.842
78039W        W50299  21.705  25.110   3.798
78040W        W50300   7.681  36.973   2.784
78041W        W50301   6.422  42.009  13.962
78042W        W50302   4.796   2.946   1.315
78043W        W50303  11.658  10.237   3.835
78044W        W50304  26.564  17.274   2.750
78045W        W50305  17.197  38.070   2.255
78046W        W50306   3.944  14.121  13.447
78047W        W50307  34.543  33.074   3.730
78048W        W50308   9.383  25.640   2.262
78049W        W50309   0.806  13.350  14.825
78050W        W50310   7.729  25.068  11.566
78051W        W50311   0.472  41.019   2.836
78052W        W50312   8.762  17.590  10.969
78053W        W50313  23.004   0.284   2.267
78054W        W50314  22.544   7.780  11.970
78055W        W50315   1.747  35.996  14.875
78056W        W50316  36.459  23.669  13.409
78057W        W50317  41.503   2.765   0.365
78058W        W50318  39.463   6.344   1.267
78059W        W50319   1.365  39.526  12.023
78060W        W50320  14.741   5.791  13.952
78061W        W50321  32.525  20.728   0.899
78062W        W50322  35.064  20.032   3.673
78063W        W50323  27.976   9.227  11.933
78064W        W50324  32.418  38.537   4.740
78065W        W50325  33.077  37.836   1.926
78066W        W50326  21.101  16.267   2.831
78067W        W50327   1.452  41.967   1.421
78068W        W50328   3.299   3.364   2.323
78069W        W50329  13.828  15.789   4.782
78070W        W50330   5.335   4.389   1.298
78071W        W50331  22.069  34.121  10.633
78072W        W50332  23.178  32.007   2.861
78073W        W50333  10.853  15.138   1.435
78074W        W50334  17.112  10.659   0.345
78075W        W50335   8.815   7.309  14.361
78076W        W50336  30.022  32.987   3.307
78077W        W50337  35.500  41.806   4.299
78078W        W50338  35.504  13.650  10.956
78079W        W50339   6.708  38.344  10.998
78080W        W50340  10.385  16.093  12.529
78081W        W50341  25.658  26.957  14.003
78082W        W50342  44.421  26.498  11.905
78083W        W50343  39.024  24.595   0.930
78084W        W50344  19.085  29.069  12.413
78085W        W50345  43.797  26.082  13.323
78086W        W50346  21.613  25.006   3.374
78087W        W50347  29.073  31.591  11.127
78088W        W50348  21.713  33.043  11.503
78089W        W50349  13.800  37.412   1.828
78090W        W50350   8.302  34.061  14.422
78091W        W50351   8.715  43.287   1.356
78092W        W50352  33.024  27.622   0.928
78093W        W50353  18.572   5.760   4.319
78094W        W50354  43.963  37.002   3.699
78095W        W50355  42.325   4.434  14.807
78096W        W50356  37.845  34.420  12.572
78097W        W50357  33.096  41.506  12.427
78098W        W50358  31.526  30.016  14.893
78099W        W50359  22.707   9.825   0.321
78100W        W50360   9.370  16.082   3.359
78101W        W50361  17.190  30.945  14.416
78102W        W50362  17.643  36.365   1.285
78103W        W50363   7.230  40.881   3.351
78104W        W50364  28.008   9.798  10.900
78105W        W50365  40.874  11.203   3.386
78106W        W50366   0.952  24.669   4.326
78107W        W50367  24.207   1.795  12.917
78108W        W50368  42.977  22.019  11.126
78109W        W50369  37.451  35.914   4.600
78110W        W50370  18.108  29.502   4.820
78111W        W50371  39.334   0.445   1.762
78112W        W50372   4.301  39.551  12.883
78113W        W50373   0.822  16.273  14.821
78114W        W50374  29.098  40.029  14.282
78115W        W50375  24.714   2.456  11.055
78116W        W50376   7.809  27.108  10.528
78117W        W50377  13.603  20.216   2.756
78118W        W50378  22.070  33.423   0.813
78119W        W50379  16.688   0.359   0.481
78120W        W50380   5.258  16.228   2.276
78121W        W50381   3.326   8.858  14.415
78122W        W50382  40.965  28.597  11.093
78123W        W50383  33.906  16.148  11.457
78124W        W50384  20.626   8.310  14.766
78125W        W50385  40.928  38.043  11.952
78126W        W50386   5.292  44.822  13.338
78127W        W50387  16.567  16.680   2.393
78128W        W50388  40.326   2.765  12.911
78129W        W50389  23.216  24.610   4.126
78130W        W50390  19.178  24.501   3.633
78131W        W50391  27.597  42.898   1.435
78132W        W50392  35.506   9.262  11.609
78133W        W50393  44.381   9.177  12.535
78134W        W50394  11.299  37.892   3.292
78135W        W50395  39.328   4.709   4.159
78136W        W50396  20.544  14.297   0.736
78137W        W50397  38.495  33.884   0.247
78138W        W50398  16.204  25.672   0.467
78139W        W50399   4.857  16.647   0.318
78140W        W50400  13.109  22.192   4.248
78141W        W50401  42.989  34.953  10.434
78142W        W50402  43.913  39.896   0.842
78143W        W50403  43.437  36.351   1.854
78144W        W50404  19.192   7.413  14.805
78145W        W50405  31.429  23.517  11.892
78146W        W50406  44.331  28.012   2.710
78147W        W50407   7.362  39.424   2.341
78148W        W50408   4.731  23.235   2.729
78149W        W50409  10.805   8.753  13.471
78150W        W50410  16.634  17.681  13.794
78151W        W50411  34.101  14.251  11.081
78152W        W50412   9.356  16.127   3.828
78153W        W50413  40.858  40.916  13.807
78154W        W50414  27.570   3.444  14.941
78155W        W50415  16.804   9.831   2.396
78156W        W50416  18.187  23.149   3.295
78157W        W50417  21.112   1.758  11.376
78158W        W50418   6.345  42.953  13.884
78159W        W50419   4.440  42.886   3.683
78160W        W50420  41.519  20.107  10.636
78161W        W50421  40.454  32.074  13.958
78162W        W50422  10.665  35.538   0.874
78163W        W50423   3.292  31.516   4.206
78164W        W50424  41.490  10.271  10.977
78165W        W50425  26.617  15.230   4.318
78166W        W50426  34.101  34.394  13.911
78167W        W50427  31.638  34.479  12.877
78168W        W50428  16.196  18.608  12.489
78169W        W50429  39.835  24.621   1.318
78170W        W50430  25.016   5.895   0.896
78171W        W50431  40.849  23.989   1.428
78172W        W50432  37.849  44.466   1.390
78173W        W50433  19.143  39.334   2.244
78174W        W50434   5.392  15.712   4.730
78175W        W50435  26.490  18.638  12.096
78176W        W50436  23.579  13.186   3.172
78177W        W50437   7.665  21.531   2.337
78178W        W50438  20.641   5.409  13.004
78179W        W50439  32.031   7.842  14.494
78180W        W50440  22.668  32.500  11.103
78181W        W50441   4.293   7.712  13.832
78182W        W50442  23.597  14.673  10.912
78183W        W50443  33.444  30.133   4.744
78184W        W50444  39.400   3.712   1.290
78185W        W50445  17.104  16.801  11.987
78186W        W50446   7.797  15.263  12.474
78187W        W50447  44.786   5.200   4.690
78188W        W50448  30.047  30.606  12.070
78189W        W50449  21.133  23.534  11.458
78190W        W50450  38.538  22.595   3.654
78191W        W50451  28.516  25.628   4.754
78192W        W50452  30.024  10.294  12.856
78193W        W50453  23.035   7.896   2.852
78194W        W50454   4.935   0.305  11.993
78195W        W50455  36.481  36.361  10.956
78196W        W50456   6.839   6.246   0.324
78197W        W50457  21.513  38.022   2.870
78198W        W50458  36.041  36.501  14.885
78199W        W50459  34.886  33.386   0.967
78200W        W50460  21.732   9.307  10.416
78201W        W50461   4.317  31.404  11.495
78202W        W50462  41.899  43.016  14.816
78203W        W50463  24.088   1.874  14.317
78204W        W50464  28.149  33.450  12.896
78205W        W50465  29.075  31.022  13.976
78206W        W50466  17.252  11.821  11.083
78207W        W50467   1.236   8.899   3.213
78208W        W50468   0.829  28.047   3.733
78209W        W50469  33.459   0.467   3.270
78210W        W50470  27.448   6.415  13.920
78211W        W50471  23.161  40.455   4.812
78212W        W50472  36.462  38.426  11.053
78213W        W50473  14.326  37.005  11.443
78214W        W50474   4.852  42.957   1.753
78215W        W50475  10.180   9.278   0.406
78216W        W50476  44.457  12.355  14.480
78217W        W50477  40.471  41.886   1.705
78218W        W50478  42.496  33.883  10.543
78219W        W50479   6.350  20.600  13.939
78220W        W50480  30.096  20.653   4.296
78221W        W50481   9.354  11.208   4.597
78222W        W50482  20.708  43.476   1.340
78223W        W50483  24.072  19.072   3.352
78224W        W50484   3.243  22.677  11.562
78225W        W50485  12.657  36.040   0.726
78226W        W50486  40.460  10.250  12.385
78227W        W50487  40.512  22.521  12.368
78228W        W50488  29.172   3.799  13.485
78229W        W50489   3.907  23.718   1.809
78230W        W50490  16.787  41.388  12.575
78231W        W50491  20.075  11.622   4.147
78232W        W50492  11.748  17.694   0.351
78233W        W50493   9.858  14.800  14.919
78234W        W50494  15.767   4.857   2.192
78235W        W50495   6.680  34.586   0.372
78236W        W50496  26.078   7.312   1.321
78237W        W50497   1.914   8.160  13.022
78238W        W50498  41.493  38.043  10.460
78239W        W50499  44.290  31.550   0.913
78240W        W50500   0.345  17.113  11.858
78241W        W50501  29.651  19.166  11.551
78242W        W50502   3.712  16.621   1.327
78243W        W50503  43.307  22.579  12.059
78244W        W50504  38.520   0.254   0.348
78245W        W50505  35.525   3.920  11.373
78246W        W50506  16.576   0.295   1.337
78247W        W50507  42.293  44.322  11.424
78248W        W50508   4.376  38.461   3.819
78249W        W50509   8.838  42.883  10.417
78250W        W50510  31.902   3.293  11.589
78251W        W50511  44.339  10.737   3.252
78252W        W50512  23.190  32.967  12.877
78253W        W50513  33.955   0.458  14.867
78254W        W50514  20.267  14.775   2.240
78255W        W50515  44.960   1.258   0.362
78256W        W50516  25.214  26.000   4.633
78257W        W50517  12.744  38.844  12.909
78258W        W50518  17.719  40.941  14.497
78259W        W50519  25.138  36.403  11.528
78260W        W50520  15.688  25.527  11.517
78261W        W50521  12.800  37.025   1.888
78262W        W50522  16.274  10.780  14.496
78263W        W50523  36.984  43.288  14.925
78264W        W50524  32.438   5.389   1.438
78265W        W50525  12.330  26.207   1.909
78266W        W50526   9.822  27.474  13.842
78267W        W50527  17.062  31.051   2.392
78268W        W50528  20.170   6.792  11.433
78269W        W50529  14.215  14.103   3.657
78270W        W50530  16.199   6.264  14.893
78271W        W50531  11.765  15.659  11.444
78272W        W50532  36.429  12.124  11.886
78273W        W50533  32.955  40.801  14.860
78274W        W50534  28.064  14.652  14.787
78275W        W50535   5.704  23.685   0.906
78276W        W50536   5.308  16.127  12.364
78277W        W50537  28.636  29.121  11.071
78278W        W50538   4.810   0.438  14.975
78279W        W50539  17.669  33.891  13.804
78280W        W50540  41.387  22.734  11.560
78281W        W50541  22.117  36.076   1.808
78282W        W50542  29.155  29.111   0.325
78283W        W50543  33.038  43.378  13.858
78284W        W50544  17.258  13.760   1.803
78285W        W50545  41.484  25.987   2.222
78286W        W50546  43.002  16.695   1.763
78287W        W50547  29.981  14.252  11.510
78288W        W50548  27.998  31.421   5.124
78289W        W50549   6.754  22.073   4.157
78290W        W50550   8.685  36.353  14.356
78291W        W50551   5.283  15.174  13.001
78292W        W50552   9.340  10.144  12.471
78293W        W50553  10.303  19.052   2.665
78294W        W50554   5.918  14.821   1.225
78295W        W50555  18.687  13.717   0.853
78296W        W50556   7.366  38.835  13.890
78297W        W50557  34.422  18.246  13.946
78298W        W50558   7.335  11.813  12.453
78299W        W50559  17.245  22.090   1.797
78300W        W50560  17.085  29.946  10.613
78301W        W50561   4.286  25.650   3.182
78302W        W50562  27.088   5.298   1.276
78303W        W50563  16.183   7.748  11.112
78304W        W50564  35.561  40.424  11.948
78305W        W50565   8.670  25.104   4.232
78306W        W50566  29.456   3.419  11.902
78307W        W50567   3.335  37.938   0.408
78308W        W50568  20.560  39.320   0.909
78309W        W50569  32.951   6.879  14.776
78310W        W50570  13.792  36.033   0.383
78311W        W50571  15.109  26.481   1.896
78312W        W50572  14.645  32.058   1.720
78313W        W50573  15.651   9.719  13.886
78314W        W50574  31.596  32.958  11.988
78315W        W50575  26.033  10.198  10.570
78316W        W50576   5.745  44.437   1.271
78317W        W50577  27.573  33.458  12.935
78318W        W50578  22.547  30.913   0.773
78319W        W50579  11.208   3.715   4.355
78320W        W50580  38.410  37.041   2.804
78321W        W50581  37.342  10.699  11.595
78322W        W50582   1.420  12.270  11.470
78323W        W50583   3.834  17.790  11.953
78324W        W50584   5.229   5.733   0.369
78325W        W50585  10.787  32.107   1.417
78326W        W50586  20.184  31.483  10.630
78327W        W50587  40.537   3.408  14.327
78328W        W50588   6.284  27.492  12.031
78329W        W50589  23.106  36.844   3.255
78330W        W50590  14.109   9.857   3.184
78331W        W50591  13.628  42.494  12.549
78332W        W50592  37.971  21.173   2.361
78333W        W50593  32.028  43.783  13.899
78334W        W50594   5.751   3.219   3.832
78335W        W50595  37.937  24.519  10.498
78336W        W50596  27.946  36.455  13.335
78337W        W50597  29.652  32.114  11.566
78338W        W50598  14.602  26.029   2.194
78339W        W50599   5.432  16.223   1.825
78340W        W50600  27.504  43.957  13.926
78341W        W50601  27.192  42.975   1.336
78342W        W50602  11.285  17.300   0.378
78343W        W50603  37.911  33.918  13.410
78344W        W50604  44.266  27.691  12.537
78345W        W50605  33.980  42.840   3.175
78346W        W50606  20.210   9.872  11.584
78347W        W50607  24.178  25.091  12.515
78348W        W50608   9.686  23.116  13.825
78349W        W50609  35.463  29.543   0.752
78350W        W50610  22.037  39.526   3.817
78351W        W50611  34.969  39.500   1.436
78352W        W50612  32.548  30.563  12.022
78353W        W50613  26.124  11.167  14.832
78354W        W50614   8.828   5.791   4.737
78355W        W50615  19.079   6.325  11.396
78356W        W50616  27.468  29.608   4.305
78357W        W50617  12.190  32.453  14.304
78358W        W50618  18.690   4.712   2.264
78359W        W50619  26.005  22.185   2.811
78360W        W50620  44.930  28.666  14.975
78361W        W50621  20.250  12.287  13.945
78362W        W50622  30.026  30.913   3.246
78363W        W50623   9.670   3.346   2.838
78364W        W50624  16.576   8.239   0.875
78365W        W50625   9.301   1.468  12.870
78366W        W50626   8.799  15.741   2.684
78367W        W50627  41.014  23.526  11.470
78368W        W50628  28.182  19.751   3.264
78369W        W50629  39.433  11.189  11.962
78370W        W50630   7.906  20.232  14.947
78371W        W50631  35.455  33.482  14.824
78372W        W50632  24.078  25.170  12.955
78373W        W50633  29.476  26.979  13.921
78374W        W50634  19.180  25.672   4.624
78375W        W50635  23.038   7.737  11.905
78376W        W50636   7.260  42.793  13.318
78377W        W50637  33.929   8.843   2.892
78378W        W50638  18.550   0.470   4.195
78379W        W50639  31.072   5.735   3.779
78380W        W50640  31.404   5.196  12.893
78381W        W50641   5.806  24.646   1.782
78382W        W50642   3.423  44.265  11.890
78383W        W50643   7.862   2.751  13.803
78384W        W50644   4.399  25.018  12.095
78385W        W50645  25.684  24.211  12.429
78386W        W50646  31.608   8.889  10.586
78387W        W50647  12.732  40.961   0.844
78388W        W50648  27.003   6.323   1.752
78389W        W50649  23.080  37.899  14.358
78390W        W50650  30.158   4.930  13.871
78391W        W50651  12.804  15.319  14.823
78392W        W50652   0.768  13.721   1.427
78393W        W50653  41.365  38.524  11.917
78394W        W50654  17.067  22.245   2.807
78395W        W50655  23.529  19.678   5.140
78396W        W50656   9.758   8.727   0.752
78397W        W50657  26.133  29.424  14.842
78398W        W50658  44.464  37.465  13.541
78399W        W50659   5.800  33.424  13.419
78400W        W50660   2.385   8.291  14.395
78401W        W50661  17.301  41.358   4.223
78402W        W50662   7.232  13.813   0.804
78403W        W50663  41.870  11.867   2.869
78404W        W50664  11.622  12.200  14.489
78405W        W50665   0.458  20.146   4.639
78406W        W50666   2.381  32.894  10.457
78407W        W50667  44.436  35.024   1.743
78408W        W50668  30.656  28.497  11.956
78409W        W50669   4.278  43.877  14.290
78410W        W50670   0.321  33.076   0.295
78411W        W50671  23.119   6.852   3.351
78412W        W50672   6.837  19.549  12.968
78413W        W50673  10.277  24.482   4.138
78414W        W50674  40.372  23.222  12.522
78415W        W50675  43.867  17.783   2.901
78416W        W50676   0.745   6.766   0.329
78417W        W50677  23.240  30.513  14.943
78418W        W50678  43.413  37.002  11.019
78419W        W50679  20.537  36.082   4.201
78420W        W50680   6.679  18.576   0.259
78421W        W50681  25.587   6.279   4.635
78422W        W50682  27.661  26.605   4.267
78423W        W50683   9.807  31.539  11.455
78424W        W50684  41.327  13.320   1.368
78425W        W50685  15.277  12.808  12.358
78426W        W50686  33.480  14.317   2.248
78427W        W50687  28.438  18.750  14.490
78428W        W50688  20.762  13.247   3.174
78429W        W50689  27.019   7.832  13.503
78430W        W50690  12.823  34.989   0.322
78431W        W50691  29.507  39.027   2.214
78432W        W50692  30.145   0.893   4.176
78433W        W50693  19.711  11.814   5.109
78434W        W50694  42.913   3.864   1.267
78435W        W50695  42.496   5.706   1.701
78436W        W50696  35.046  29.967  10.932
78437W        W50697   7.306   6.325  14.885
78438W        W50698  23.058  11.710   3.814
78439W        W50699  42.350   1.397  14.800
78440W        W50700  30.468  10.804  11.407
78441W        W50701   7.399  24.517   4.785
78442W        W50702  25.660  18.770   4.793
78443W        W50703  44.788  24.506  13.352
78444W        W50704  25.544  24.544   2.375
78445W        W50705   4.329  12.243  11.020
78446W        W50706   3.908  17.114   0.841
78447W        W50707  29.153  40.415  14.443
78448W        W50708  35.559  24.227  13.417
78449W        W50709  19.600  14.623   3.344
78450W        W50710  27.089  15.112  12.454
78451W        W50711   6.239  13.300  12.923
78452W        W50712  33.432  14.160   0.906
78453W        W50713  14.126   8.397  13.019
78454W        W50714  20.584   6.838  14.009
78455W        W50715  27.557   7.209   2.224
78456W        W50716   6.372  15.646   4.179
78457W        W50717  38.962  19.642  11.128
78458W        W50718  20.049   3.239  13.974
78459W        W50719  25.706  11.667  12.914
78460W        W50720  21.250  10.741  11.449
78461W        W50721  26.976  22.051  10.619
78462W        W50722  20.090   9.173  11.434
78463W        W50723  26.039  36.919   4.203
78464W        W50724  35.443  16.072  14.362
78465W        W50725  14.789  38.882   0.914
78466W        W50726   8.261  30.932  11.902
78467W        W50727  32.114  23.661  14.005
78468W        W50728  25.127  36.496   0.391
78469W        W50729  20.610   8.833  11.863
78470W        W50730  42.786  21.148   5.215
78471W        W50731  11.786  37.037   1.406
78472W        W50732  15.298  29.597  11.987
78473W        W50733   6.833  12.614  12.030
78474W        W50734  40.412  25.976  13.374
78475W        W50735   2.759  17.618  10.897
78476W        W50736  39.538  33.035   1.424
78477W        W50737   4.347  36.469  10.974
78478W        W50738  25.132  37.368   1.861
78479W        W50739  12.797   0.756   1.347
78480W        W50740  36.370  24.072   3.328
78481W        W50741  20.618  18.750   2.256
78482W        W50742  34.923  33.009  11.535
78483W        W50743  14.113   2.926  12.976
78484W        W50744   0.378  14.102  10.642
78485W        W50745   8.345  39.510  13.308
78486W        W50746  16.695  39.421  12.870
78487W        W50747   1.894  36.052   1.932
78488W        W50748   5.203   2.956   2.347
78489W        W50749  34.596  10.722  13.341
78490W        W50750   3.841  43.438   4.145
78491W        W50751  37.943  29.634  13.989
78492W        W50752  17.674  30.910   3.354
78493W        W50753  10.736  28.558  13.481
78494W        W50754  36.065   1.401   0.777
78495W        W50755  20.593  42.308   1.764
78496W        W50756   6.713  20.710   1.265
78497W        W50757  26.543  32.952  12.401
78498W        W50758   9.161  17.270   4.733
78499W        W50759  12.774  44.406  12.387
78500W        W50760   9.880  38.482   4.809
78501W        W50761  33.434  13.747   1.230
78502W        W50762   9.375  43.427  13.492
78503W        W50763  44.266  44.435   3.770
78504W        W50764  12.346  16.310  13.414
78505W        W50765  43.877  36.405   4.199
78506W        W50766  17.641  37.394  11.584
78507W        W50767  12.267  37.832   2.337
78508W        W50768  13.678  13.683  11.419
78509W        W50769  44.971   7.748  12.839
78510W        W50770  39.385  21.091   2.326
78511W        W50771   1.876  21.077  14.317
78512W        W50772  34.377  39.360  13.394
78513W        W50773  44.866  10.841  12.372
78514W        W50774  21.634  11.692  11.955
78515W        W50775   3.308  14.166   0.270
78516W        W50776  13.254  33.534   5.118
78517W        W50777   7.721   2.334  11.956
78518W        W50778  39.040  17.679   4.154
78519W        W50779   8.688   3.279  11.967
78520W        W50780  17.612  43.498  12.075
78521W        W50781  29.973  16.264  13.520
78522W        W50782   9.648  12.621  12.397
78523W        W50783  39.471  41.427  10.971
78524W        W50784   1.939  29.122   2.306
78525W        W50785  34.989  17.254  13.490
78526W        W50786  44.923  12.139   2.198
78527W        W50787  27.117   9.842   4.257
78528W        W50788  28.463   9.800  14.837
78529W        W50789   2.729  43.414  12.970
78530W        W50790  16.118  43.845  12.864
78531W        W50791  10.327  37.000   5.267
78532W        W50792  44.353  16.196  13.340
78533W        W50793  40.523  16.744   4.629
78534W        W50794  30.650  38.486   3.174
78535W        W50795   4.772  14.171   9.925
78536W        W50796  27.543  38.951   3.633
78537W        W50797  29.647   3.770  12.413
78538W        W50798  37.036  16.717  13.921
78539W        W50799  27.571  44.331   4.195
78540W        W50800  21.207  39.352   3.318
78541W        W50801   2.360  35.101   1.315
78542W        W50802  11.261  12.185  12.837
78543W        W50803   3.808  22.038  14.398
78544W        W50804   2.380  19.257   0.751
78545W        W50805  35.593  42.826  12.388
78546W        W50806  11.729  40.487   4.712
78547W        W50807  19.241  29.979   1.215
78548W        W50808  38.470  16.657  14.999
78549W        W50809  43.866  35.579  10.572
78550W        W50810   1.827  42.845  11.997
78551W        W50811  11.728  16.107  14.405
78552W        W50812   8.773  39.506   3.677
78553W        W50813  34.885  44.437  10.948
78554W        W50814  40.416  29.974   0.364
78555W        W50815  23.234  29.137   9.545
78556W        W50816  28.544   8.793  12.445
78557W        W50817  12.145  44.415   3.767
78558W        W50818  21.692  17.652   1.752
78559W        W50819   8.230  38.868   4.661
78560W        W50820  14.192   0.753   2.385
78561W        W50821  21.573  40.521   2.403
78562W        W50822  28.450   0.810  13.401
78563W        W50823  32.092  34.007   2.763
78564W        W50824   5.895  36.885   0.457
78565W        W50825   1.974  25.020   0.949
78566W        W50826  21.247  19.707  14.945
78567W        W50827  40.492  17.209  14.013
78568W        W50828  32.101  16.286  14.490
78569W        W50829  15.652   0.260  13.862
78570W        W50830  12.357  27.990  11.604
78571W        W50831  27.123  12.712  12.506
78572W        W50832   7.812  42.849   2.201
78573W        W50833  27.650  39.520   2.676
78574W        W50834  21.105  14.787  14.904
78575W        W50835  35.595   8.323  10.579
78576W        W50836   3.451  21.127  13.031
78577W        W50837  42.802  26.964  12.434
78578W        W50838  18.689  11.781  12.061
78579W        W50839  29.924  24.217   2.215
78580W        W50840  23.050  25.200  12.861
78581W        W50841   7.239  26.191  14.408
78582W        W50842  31.072  30.584   3.756
78583W        W50843  31.047  11.172  12.371
78584W        W50844  32.953  42.978   0.306
78585W        W50845  23.210  15.083   4.815
78586W        W50846  32.071   7.225  10.622
78587W        W50847   9.838   5.392   2.851
78588W        W50848  27.148  21.233   4.343
78589W        W50849  24.085   0.454   3.354
78590W        W50850  26.593  30.449   3.794
78591W        W50851  42.500  29.931   3.743
78592W        W50852  37.037  18.285  12.486
78593W        W50853  36.043   7.771   0.774
78594W        W50854  20.544  18.608   1.782
78595W        W50855  14.117  27.566   3.269
78596W        W50856  17.063  43.271  13.310
78597W        W50857  15.588   0.420  11.969
78598W        W50858  36.841  23.100   1.772
78599W        W50859   3.244   3.823   1.778
78600W        W50860   3.289  44.386   1.866
78601W        W50861  42.488  35.062  11.905
78602W        W50862  40.962   6.259  14.936
78603W        W50863   3.806  26.689  11.414
78604W        W50864  28.080  15.124   4.155
78605W        W50865  18.691   1.870   1.906
78606W        W50866  18.640  18.564  11.988
78607W        W50867  10.160  26.137  12.074
78608W        W50868  37.386  43.359  11.928
78609W        W50869  44.452  40.452   2.735
78610W        W50870  18.669  23.683  12.009
78611W        W50871  25.969   4.782  13.482
78612W        W50872  22.181   4.754  10.495
78613W        W50873  21.092  14.116   0.328
78614W        W50874  32.075  30.100  13.925
78615W        W50875  22.603  12.222   3.367
78616W        W50876  25.209  21.255  10.645
78617W        W50877  43.458  36.056  13.453
78618W        W50878   6.818  32.570  10.406
78619W        W50879  16.274  22.163   3.288
78620W        W50880  37.845   6.383  13.365
78621W        W50881  42.777  10.195  14.803
78622W        W50882  38.438  41.890   4.651
78623W        W50883  38.914  26.529   0.805
78624W        W50884   9.256  42.993   0.728
78625W        W50885   1.281   3.936  13.352
78626W        W50886  25.499  43.836   3.193
78627W        W50887  28.657  31.998   3.277
78628W        W50888  11.154   9.263  14.357
78629W        W50889  22.742  39.962   0.830
78630W        W50890  20.125  14.122  13.033
78631W        W50891  38.360  25.626  14.510
78632W        W50892  20.265   9.754   0.895
78633W        W50893  42.305  12.362   2.215
78634W        W50894   0.874  20.061  11.958
78635W        W50895  17.210   2.789   2.765
78636W        W50896  35.466  37.407  13.543
78637W        W50897  38.371  39.431  14.858
78638W        W50898  32.544  35.439  10.596
78639W        W50899   9.799  31.514   3.794
78640W        W50900   5.821  28.661   3.146
78641W        W50901  43.487  42.324   0.926
78642W        W50902  17.191  42.935  12.015
78643W        W50903   1.829  27.991  13.465
78644W        W50904   5.389  35.493   3.803
78645W        W50905  36.394  18.148  13.432
78646W        W50906  31.955  36.056   3.854
78647W        W50907  12.718  43.444  11.989
78648W        W50908  23.087  23.658   1.884
78649W        W50909   5.259  31.626  12.422
78650W        W50910   6.912  10.847  12.864
78651W        W50911  31.469   4.745  13.345
78652W        W50912   1.937  38.498  14.867
78653W        W50913  15.660   2.253   4.711
78654W        W50914  25.526   6.719  14.957
78655W        W50915  17.289  10.382  11.890
78656W        W50916  21.606  24.574  12.523
78657W        W50917  18.593  19.276  12.984
78658W        W50918  39.426  11.745  13.487
78659W        W50919  23.114  43.965   1.732
78660W        W50920  10.772  13.271   2.341
78661W        W50921   3.862   4.870   4.158
78662W        W50922  35.550  11.320  11.893
78663W        W50923   8.220   1.964   3.630
78664W        W50924  22.691  34.953   9.926
78665W        W50925  25.617  23.507   4.693
78666W        W50926  13.830  15.157   1.843
78667W        W50927   3.751  37.047   2.405
78668W        W50928  17.628  10.746   3.231
78669W        W50929  31.027  13.675  14.026
78670W        W50930   0.265   7.805  14.509
78671W        W50931  39.048  23.658  14.455
78672W        W50932  22.147  17.269   0.298
78673W        W50933  43.349  31.968  12.442
78674W        W50934   6.725  27.672   4.140
78675W        W50935  12.711  27.019  14.848
78676W        W50936  41.439  35.969   1.935
78677W        W50937  22.687  18.247   9.998
78678W        W50938  14.747  22.082   1.801
78679W        W50939  25.537  39.967  12.466
78680W        W50940  12.838  30.481  11.895
78681W        W50941  37.369  32.133   1.863
78682W        W50942  23.225  28.012   9.977
78683W        W50943  14.747   5.262   2.322
78684W        W50944  17.754  15.710   1.700
78685W        W50945   4.908  18.177   3.290
78686W        W50946  33.430  17.577   2.388
78687W        W50947  35.034  30.463   4.254
78688W        W50948  43.512  19.218   2.875
78689W        W50949  11.758  16.668   0.343
78690W        W50950  32.524  43.871   3.241
78691W        W50951  14.741  10.653   0.462
78692W        W50952  24.700  41.431  14.501
78693W        W50953  36.963  31.632   1.890
78694W        W50954  31.081  31.092   1.318
78695W        W50955  35.483  30.564   1.346
78696W        W50956  39.837  44.292  12.383
78697W        W50957  31.992  43.281  12.408
78698W        W50958  25.102  15.276   0.385
78699W        W50959  22.204  20.655   3.684
78700W        W50960  42.375  29.640  10.445
78701W        W50961  20.275  44.880  11.093
78702W        W50962  16.661  10.156  12.403
78703W        W50963   3.323  33.050   2.223
78704W        W50964  35.089  35.481   2.211
78705W        W50965  26.954  44.501   1.707
78706W        W50966  35.860  23.511   4.204
78707W        W50967   3.760   7.241   4.234
78708W        W50968  22.681  32.933  12.838
78709W        W50969  23.128  17.116   4.252
78710W        W50970   7.795   3.221  11.932
78711W        W50971  35.362  43.014   1.271
78712W        W50972  29.652  18.698  11.409
78713W        W50973  20.055  28.614   0.887
78714W        W50974  12.779  19.720  11.452
78715W        W50975  35.008  40.815   4.120
78716W        W50976   0.866  34.471  11.942
78717W        W50977  20.232  20.593   2.717
78718W        W50978  31.102  24.162  12.441
78719W        W50979   5.913  21.184  13.938
78720W        W50980  16.125  12.268  12.826
78721W        W50981  15.176  11.137   0.783
78722W        W50982  13.702  38.388  12.365
78723W        W50983  41.501  33.969   1.699
78724W        W50984  11.708  26.599  10.645
78725W        W50985  11.707  28.933  14.839
78726W        W50986  37.920  27.036   0.795
78727W        W50987  11.679  28.939  13.487
78728W        W50988  41.790   4.214   4.757
78729W        W50989   7.890  19.621  11.985
78730W        W50990  11.127  37.450   0.763
78731W        W50991  16.103  17.258   0.834
78732W        W50992  25.131  15.824   3.832
78733W        W50993  41.380  13.794   1.920
78734W        W50994  26.680  22.508   3.203
78735W        W50995  42.363  15.134   2.293
78736W        W50996  40.306  30.593  10.978
78737W        W50997  23.111  10.286   1.332
78738W        W50998  14.794  31.035  14.021
78739W        W50999   6.718   5.742  10.473
78740W        W51000  35.504   4.317  10.591
78741W        W51001  42.317  30.469  12.965
78742W        W51002  24.605  28.610  14.955
78743W        W51003  41.345  40.934   4.216
78744W        W51004  42.423  27.070  11.557
78745W        W51005  26.097  23.709  11.417
78746W        W51006  29.012   6.691  12.342
78747W        W51007  38.565  10.807   9.658
78748W        W51008   5.344  19.062   0.257
78749W        W51009   3.440  35.069  14.896
78750W        W51010   8.273  42.406   3.289
78751W        W51011  34.905  15.218  13.398
78752W        W51012  25.627  40.850  12.080
78753W        W51013  34.488  26.134  12.887
78754W        W51014  23.191  29.116   1.724
78755W        W51015  24.124  22.718  10.905
78756W        W51016   6.182   8.796  13.331
78757W        W51017  40.856  23.177   3.803
78758W        W51018  12.361  36.483   2.409
78759W        W51019  14.298  24.979   3.322
78760W        W51020  14.181  25.996  13.527
78761W        W51021  11.283  12.828  11.979
78762W        W51022  20.170  10.371   2.302
78763W        W51023  41.830   5.229   0.411
78764W        W51024  23.171  21.683   0.901
78765W        W51025  38.368   9.352  11.601
78766W        W51026  34.092   7.739  13.815
78767W        W51027  42.011  43.289  12.862
78768W        W51028   8.737  30.423   3.377
78769W        W51029  37.842  10.750   2.705
78770W        W51030  43.479  16.276  13.061
78771W        W51031  38.992  11.254   0.369
78772W        W51032  40.432  43.377   4.837
78773W        W51033  23.237  25.701   3.712
78774W        W51034  40.909  12.674  14.317
78775W        W51035   6.874   8.813  14.306
78776W        W51036  23.113  23.240  14.984
78777W        W51037  25.098   2.419  11.558
78778W        W51038  23.100   8.721  11.545
78779W        W51039   3.317   2.237   3.707
78780W        W51040  36.061  19.758  11.126
78781W        W51041   0.829  17.589  14.280
78782W        W51042  44.354  43.453  12.920
78783W        W51043  36.544  41.789  10.887
78784W        W51044  25.976  31.603   1.311
78785W        W51045  41.394  34.408   2.704
78786W        W51046  33.616  43.441  12.060
78787W        W51047  18.178  35.480   0.420
78788W        W51048  14.124  11.249  10.952
78789W        W51049  20.055  38.994   0.280
78790W        W51050  41.349  28.040   0.263
78791W        W51051  32.560  22.131   3.386
78792W        W51052  10.364  19.767   0.383
78793W        W51053  29.955   2.410   2.694
78794W        W51054   7.297  43.771  12.058
78795W        W51055  35.502  15.128   4.672
78796W        W51056  36.465  31.086  11.435
78797W        W51057  27.190  29.450   3.804
78798W        W51058  18.582  37.485  11.060
78799W        W51059  33.917  33.007   2.774
78800W        W51060  35.390  27.028   2.845
78801W        W51061  28.634   3.308   3.222
78802W        W51062  27.944  43.498  13.511
78803W        W51063   6.903  34.996  12.960
78804W        W51064  33.614  23.187  13.475
78805W        W51065  41.354  33.415  11.127
78806W        W51066  37.058   9.196  13.801
78807W        W51067  10.808   2.239   2.243
78808W        W51068  19.543  39.905  13.953
78809W        W51069  31.917  44.855   1.441
78810W        W51070  18.707  16.686  13.528
78811W        W51071  15.308  13.700   4.122
78812W        W51072  21.063   9.208   0.870
78813W        W51073  44.419  36.890  10.513
78814W        W51074  28.011   3.215   3.350
78815W        W51075  31.468   6.725  13.490
78816W        W51076  35.013  35.586  12.976
78817W        W51077  37.473  40.465   4.642
78818W        W51078  42.298  33.965   1.293
78819W        W51079  17.166   7.699  14.384
78820W        W51080   4.393  41.458   1.224
78821W        W51081  21.526  44.452  10.004
78822W        W51082  36.460  16.568  12.900
78823W        W51083  31.492  11.815   1.358
78824W        W51084   7.393   9.731  11.080
78825W        W51085   5.918  38.951  11.527
78826W        W51086  20.125   2.873  14.807
78827W        W51087   8.190  42.857  10.514
78828W        W51088  32.428  24.546  13.543
78829W        W51089  10.344   9.649   2.303
78830W        W51090  44.279  18.183   4.145
78831W        W51091  26.126  18.245   2.692
78832W        W51092  39.058  32.499   0.445
78833W        W51093  34.533  17.577  10.563
78834W        W51094  27.076  28.949  12.340
78835W        W51095  23.517   9.312   1.356
78836W        W51096   1.422  21.172   4.140
78837W        W51097   0.887  34.103   1.724
78838W        W51098  36.370  18.192   3.227
78839W        W51099  34.991  27.636   3.164
78840W        W51100  35.999   4.776  12.403
78841W        W51101   7.820  16.669   4.684
78842W        W51102  38.432  35.580  14.353
78843W        W51103  32.490  21.699  12.512
78844W        W51104  11.219  21.129   2.852
78845W        W51105  34.493  36.908   0.889
78846W        W51106  12.354  42.955   3.656
78847W        W51107  27.615   6.856  14.820
78848W        W51108  44.386   4.444   1.886
78849W        W51109   6.398  16.165   3.776
78850W        W51110  31.119  40.994  11.606
78851W        W51111  35.970  17.784  12.457
78852W        W51112  27.077  10.663  10.966
78853W        W51113  43.808   5.306  12.374
78854W        W51114   6.882  36.896  13.957
78855W        W51115  19.613  16.667  11.505
78856W        W51116  31.427  22.628  11.004
78857W        W51117  42.894  42.971  14.458
78858W        W51118  42.399  35.461  14.856
78859W        W51119  20.048  18.752   0.782
78860W        W51120  32.035  40.538   4.802
78861W        W51121  11.165  42.495  10.483
78862W        W51122   8.707  38.338   9.946
78863W        W51123  30.158   8.314   0.931
78864W        W51124  32.962  13.224  11.438
78865W        W51125  40.477  18.295  14.809
78866W        W51126  23.519   3.302  10.159
78867W        W51127  12.310  10.755  10.484
78868W        W51128  42.003  14.812  10.411
78869W        W51129  11.749  21.561  12.859
78870W        W51130  22.653   4.900   2.305
78871W        W51131  16.781   8.403  12.340
78872W        W51132  21.069  23.682   4.623
78873W        W51133  12.264   6.729  14.883
78874W        W51134  27.164  10.758   4.699
78875W        W51135  27.028  16.170   1.277
78876W        W51136   7.726  42.950   0.361
78877W        W51137  18.547  19.686  10.408
78878W        W51138   1.835  25.599  11.011
78879W        W51139  12.708  33.995  11.528
78880W        W51140  25.660  35.925   4.721
78881W        W51141  32.601  32.580   2.684
78882W        W51142  28.551  29.538   1.273
78883W        W51143  12.338  17.222  12.378
78884W        W51144  18.661  35.381   2.760
78885W        W51145  24.080  37.002   0.412
78886W        W51146  10.726  24.995   3.175
78887W        W51147  20.088  25.476   3.858
78888W        W51148  23.725  37.415  12.340
78889W        W51149   8.296  44.291   4.159
78890W        W51150   3.308  20.708   3.637
78891W        W51151   3.825   9.855  12.542
78892W        W51152  42.791  31.530  12.853
78893W        W51153  13.258  17.281   1.911
78894W        W51154  17.691  38.325   3.310
78895W        W51155  19.143  32.134   5.209
78896W        W51156   2.832  38.987  12.369
78897W        W51157  24.591   8.279  11.070
78898W        W51158   8.302  43.294  13.363
78899W        W51159  17.621  30.579   3.300
78900W        W51160  15.695  15.232   3.215
78901W        W51161  12.158  30.140   4.182
78902W        W51162  21.089   2.356  10.502
78903W        W51163  13.803  38.549  13.865
78904W        W51164   0.802  38.864  12.035
78905W        W51165  13.812  16.773   1.324
78906W        W51166   7.770  15.288  12.986
78907W        W51167  34.545  38.071   4.665
78908W        W51168  18.192  23.695  13.021
78909W        W51169  31.063  36.397  13.970
78910W        W51170  12.726  29.445   0.301
78911W        W51171   6.799  33.960  13.937
78912W        W51172  21.241  25.199   4.671
78913W        W51173   9.774  14.681   1.235
78914W        W51174   6.285  25.968   0.892
78915W        W51175  33.434  41.395   1.906
78916W        W51176  32.936   3.347  13.337
78917W        W51177   2.834   1.314  10.619
78918W        W51178   8.787  34.073  12.944
78919W        W51179  28.088  37.869   1.811
78920W        W51180  24.522  34.917   4.625
78921W        W51181  37.950  30.148  13.986
78922W        W51182  37.982   8.731   0.414
78923W        W51183  26.525  43.481  12.888
78924W        W51184  35.572  35.492   4.210
78925W        W51185  38.983  22.654  12.900
78926W        W51186   5.255   6.333  11.890
78927W        W51187   1.873   3.761   1.862
78928W        W51188  18.295  15.148   4.734
78929W        W51189   7.823  21.629   1.841
78930W        W51190  15.727  41.969  11.901
78931W        W51191  10.770  25.664  11.897
78932W        W51192  31.940  19.671   4.807
78933W        W51193  17.599   9.890   2.856
78934W        W51194  37.950  10.722   4.152
78935W        W51195   1.743   6.234   3.836
78936W        W51196   3.358  44.968   2.754
78937W        W51197   2.727  37.007  13.365
78938W        W51198  37.581   9.751  10.405
78939W        W51199   8.163  37.520   1.811
78940W        W51200  37.429  44.815   3.782
78941W        W51201   3.857  37.410  12.556
78942W        W51202  37.500   4.258  14.960
78943W        W51203  32.586  18.570  12.366
78944W        W51204  32.924  17.263   0.361
78945W        W51205   0.846  21.124   1.405
78946W        W51206  22.042   2.252  13.878
78947W        W51207  29.156  26.481   4.143
78948W        W51208   0.757  41.910   3.777
78949W        W51209  18.775  28.032   0.825
78950W        W51210  25.096  22.709   2.393
78951W        W51211   9.321  27.667  11.481
78952W        W51212  39.537  25.516   2.836
78953W        W51213  27.975  16.810   4.745
78954W        W51214  18.682  32.012   1.818
78955W        W51215  34.045  40.327  10.548
78956W        W51216   3.263  30.462   4.609
78957W        W51217  21.156  36.076  11.601
78958W        W51218  35.974  21.033  12.902
78959W        W51219   7.261  34.559   3.743
78960W        W51220   3.255  35.479  13.947
78961W        W51221  37.944  12.796  13.989
78962W        W51222  20.119  36.918   1.912
78963W        W51223  40.905  25.575  12.501
78964W        W51224  16.603  13.178   1.868
78965W        W51225  27.630   4.736   0.478
78966W        W51226  32.406  20.523  11.935
78967W        W51227  10.356  26.072   2.380
78968W        W51228   3.847   8.301   1.715
78969W        W51229   0.455  12.767   1.410
78970W        W51230  37.348  10.333   4.626
78971W        W51231  21.142  38.365   4.713
78972W        W51232  20.598  21.583   0.382
78973W        W51233   0.258  23.081   3.837
78974W        W51234  14.152  23.734   0.770
78975W        W51235  21.685  39.406   2.689
78976W        W51236  19.206  16.751   2.322
78977W        W51237  27.501  35.423  11.102
78978W        W51238  14.802   6.195   5.308
78979W        W51239  11.686  40.930  12.085
78980W        W51240   1.411  21.512  14.394
78981W        W51241  27.062  22.068   4.683
78982W        W51242  34.963  18.158  11.990
78983W        W51243   2.463  13.645   3.754
78984W        W51244   2.327  29.648   2.858
78985W        W51245  43.951  18.058  12.082
78986W        W51246  19.712  27.579  13.346
78987W        W51247  27.612  44.962   3.187
78988W        W51248  40.324  38.898   2.286
78989W        W51249  35.910  27.031  12.076
78990W        W51250  41.392  23.129  14.800
78991W        W51251  15.293  39.944  12.978
78992W        W51252  20.592  19.675   4.600
78993W        W51253  11.362  30.042  14.288
78994W        W51254   2.461  42.284  10.579
78995W        W51255  23.052  29.641   0.762
78996W        W51256   7.340   8.894   1.324
78997W        W51257  32.498  31.068  14.833
78998W        W51258  44.436  10.262  13.051
78999W        W51259  44.810  13.241  12.067
79000W        W51260  34.025  44.473  14.331
79001W        W51261  43.857  22.182   4.269
79002W        W51262  24.129  25.992   1.732
79003W        W51263   0.908  28.439  13.936
79004W        W51264  27.032  30.631   4.251
79005W        W51265  31.634  39.321  14.363
79006W        W51266  31.465  19.652  10.438
79007W        W51267  34.079  17.713   1.919
79008W        W51268  33.087  39.365   1.808
79009W        W51269  29.498  40.985  11.459
79010W        W51270  42.969  24.127   3.779
79011W        W51271  29.015  10.285  14.285
79012W        W51272  29.143  14.773  12.022
79013W        W51273  31.558  17.603  10.592
79014W        W51274  18.209  25.103   2.706
79015W        W51275  32.402  31.981  14.455
79016W        W51276  34.530  38.563  11.110
79017W        W51277  29.987   8.272  10.934
79018W        W51278  15.669  18.609  13.038
79019W        W51279   7.733  17.111   2.867
79020W        W51280  19.170  12.230  11.497
79021W        W51281  18.699  13.228  13.318
79022W        W51282   1.422   4.927  14.404
79023W        W51283  30.063   8.710   2.715
79024W        W51284  18.056  40.968   4.793
79025W        W51285  25.977   1.893  13.382
79026W        W51286   8.770  35.956   2.701
79027W        W51287   3.292  31.113  10.439
79028W        W51288   6.865   2.444   0.941
79029W        W51289   8.199  16.765  12.860
79030W        W51290  11.141  23.143   2.226
79031W        W51291  24.622   9.184   4.642
79032W        W51292  29.918  19.274  11.414
79033W        W51293   8.813  15.663   3.734
79034W        W51294   4.385  19.635  13.017
79035W        W51295  27.031   1.376  12.089
79036W        W51296  22.100  13.107  12.410
79037W        W51297  25.969  14.186   5.278
79038W        W51298  32.024   5.389   2.188
79039W        W51299   1.882  42.029   0.436
79040W        W51300  39.828  20.081   1.282
79041W        W51301  37.437  20.177   1.241
79042W        W51302  33.900  11.708  14.469
79043W        W51303  34.947  21.052   2.351
79044W        W51304   7.755   7.814  13.337
79045W        W51305  26.200   8.819   4.199
79046W        W51306  24.709  40.836  10.446
79047W        W51307  34.560  25.150   0.428
79048W        W51308  20.545  21.028   3.786
79049W        W51309  44.322  33.985   0.274
79050W        W51310  31.958  25.679   5.144
79051W        W51311   2.280  22.105  11.079
79052W        W51312   0.370   8.661  11.403
79053W        W51313  36.038   2.326   3.250
79054W        W51314  10.322  18.637  12.444
79055W        W51315  44.462  39.874   1.907
79056W        W51316   9.831   0.911  12.534
79057W        W51317   9.645  26.181  13.342
79058W        W51318  18.275  33.550  13.011
79059W        W51319  15.212  28.623  12.907
79060W        W51320  38.427   3.446   1.228
79061W        W51321  35.562  19.080  10.603
79062W        W51322  31.153   3.848  14.979
79063W        W51323  43.866  37.443   1.782
79064W        W51324  27.552  33.532   4.617
79065W        W51325  32.078  26.048   2.272
79066W        W51326  30.907   0.861   3.322
79067W        W51327  23.567  41.887  14.013
79068W        W51328  32.017  24.190  11.391
79069W        W51329  17.087  14.266   1.781
79070W        W51330  13.803  39.055   3.280
79071W        W51331  41.521  21.544   0.900
79072W        W51332  18.553  43.365   1.434
79073W        W51333  38.900  41.921  11.507
79074W        W51334  31.047   5.928   1.293
79075W        W51335  36.395  25.601  14.972
79076W        W51336  29.114  27.967  12.026
79077W        W51337  37.006   1.736  11.034
79078W        W51338   7.893  10.235   5.213
79079W        W51339  26.601  30.461   2.849
79080W        W51340  29.496  38.901  14.014
79081W        W51341  30.101  38.952  14.277
79082W        W51342  27.124  38.047  13.328
79083W        W51343  12.742   3.732   1.698
79084W        W51344  40.404  34.876   3.326
79085W        W51345   8.318  29.168  13.831
79086W        W51346  19.046  44.338  12.403
79087W        W51347  11.730  29.975  14.303
79088W        W51348   5.304   5.402   3.782
79089W        W51349  32.905   6.837   2.409
79090W        W51350  43.818  18.185   3.355
79091W        W51351  16.696   6.835   1.265
79092W        W51352  13.605  28.669   1.306
79093W        W51353   6.702  15.619   3.333
79094W        W51354  44.320  28.437  12.850
79095W        W51355  29.620   4.755   1.870
79096W        W51356  41.454  28.455  11.980
79097W        W51357  12.727   2.922  13.509
79098W        W51358   7.874   8.340   3.366
79099W        W51359  29.128  16.788  14.345
79100W        W51360   1.339  17.714  13.941
79101W        W51361  10.333  15.212   4.350
79102W        W51362   0.428   8.826  12.061
79103W        W51363  41.924   5.883  13.402
79104W        W51364   4.788  39.917   2.673
79105W        W51365  31.148  39.391  13.411
79106W        W51366  20.194   0.435  13.997
79107W        W51367  15.188  44.943  11.572
79108W        W51368   0.877  33.918   1.246
79109W        W51369  36.375  20.696  11.883
79110W        W51370  23.517  22.174  12.090
79111W        W51371  37.356  40.326  11.028
79112W        W51372  42.021   0.951  12.520
79113W        W51373  34.880  42.506  13.906
79114W        W51374   5.394  24.568  13.819
79115W        W51375   5.718  35.577   2.326
79116W        W51376   7.738  32.449  12.416
79117W        W51377  31.636  10.761  12.355
79118W        W51378  21.636   0.476   1.360
79119W        W51379  29.165  23.096  10.590
79120W        W51380  13.326  36.381   3.850
79121W        W51381  12.334  30.486   4.146
79122W        W51382   4.429  27.688   5.247
79123W        W51383  15.821   3.356  10.951
79124W        W51384  37.025  44.381  11.522
79125W        W51385  36.566  41.338   5.230
79126W        W51386  36.482  15.650  12.470
79127W        W51387  40.876  35.101  12.434
79128W        W51388  13.753  14.692  11.108
79129W        W51389  19.147  28.596  12.443
79130W        W51390  36.915  18.787  10.594
79131W        W51391   9.758  34.084   3.305
79132W        W51392  34.908  30.118   2.780
79133W        W51393  43.379   3.317   0.284
79134W        W51394   4.412  28.033   2.262
79135W        W51395   9.689   7.225   2.355
79136W        W51396  12.708  11.788  13.807
79137W        W51397  42.330   7.217   3.292
79138W        W51398  19.098  37.009  14.774
79139W        W51399  10.700  31.924  11.543
79140W        W51400  43.355  19.634   4.120
79141W        W51401  41.343   1.761   4.740
79142W        W51402   4.396   2.917  14.978
79143W        W51403  22.586  22.177   1.314
79144W        W51404  28.513  21.701  11.574
79145W        W51405  44.339  35.600  13.412
79146W        W51406  38.484   3.898   1.878
79147W        W51407   6.869  26.539  12.473
79148W        W51408  42.835  33.876   2.399
79149W        W51409   3.937  39.810  11.111
79150W        W51410   5.356  42.432   3.856
79151W        W51411   7.204   9.352  11.934
79152W        W51412  12.769  17.073  10.638
79153W        W51413  16.174   3.356  13.318
79154W        W51414  17.600  11.167   2.246
79155W        W51415  19.282  41.893  12.427
79156W        W51416   9.163  38.536   4.212
79157W        W51417  13.764  32.463  14.306
79158W        W51418  16.625  20.108  10.906
79159W        W51419   8.706  17.787   0.258
79160W        W51420  14.631  36.416   1.425
79161W        W51421  18.059  35.516  11.093
79162W        W51422  16.162  17.783   1.816
79163W        W51423  13.689   2.372   4.656
79164W        W51424  24.717   8.211   0.365
79165W        W51425   1.468  39.997  13.001
79166W        W51426  24.979  31.592   1.799
79167W        W51427  14.825  30.953  11.872
79168W        W51428  41.311  31.501  10.500
79169W        W51429  22.519  30.965  13.513
79170W        W51430  21.706   4.882  12.007
79171W        W51431  24.978  26.462  13.978
79172W        W51432  43.997  42.446  12.048
79173W        W51433  18.710  25.218   4.805
79174W        W51434   8.782  33.397   3.301
79175W        W51435  31.039  22.692  11.558
79176W        W51436  16.246  19.743  12.474
79177W        W51437  29.643  39.358  10.947
79178W        W51438  10.783  16.245  11.078
79179W        W51439  14.230  38.553  12.086
79180W        W51440  35.438  43.338   4.208
79181W        W51441  14.109  41.459  13.376
79182W        W51442  28.459  18.204   3.678
79183W        W51443  33.882  33.015  11.115
79184W        W51444  32.591  29.540   0.414
79185W        W51445  21.576   2.261  11.112
79186W        W51446  23.733  35.518   4.283
79187W        W51447  31.918  40.429  12.859
79188W        W51448   9.294  41.315  10.961
79189W        W51449  14.702  13.301  13.533
79190W        W51450  25.683   6.385   4.317
79191W        W51451  11.816  19.582   5.296
79192W        W51452  40.417   3.813  12.502
79193W        W51453  19.740  38.846   3.186
79194W        W51454  41.857  37.855  10.621
79195W        W51455   2.900  31.608   1.280
79196W        W51456   2.249  35.555  14.306
79197W        W51457   8.278  28.647   1.886
79198W        W51458   9.793  33.039   0.363
79199W        W51459  22.088  27.447   3.662
79200W        W51460  36.564  41.398  14.018
79201W        W51461   7.701  17.185  14.414
79202W        W51462  32.030  29.643   2.850
79203W        W51463  18.671  32.006   2.247
79204W        W51464   0.340  16.751   2.696
79205W        W51465   3.218  29.084  14.869
79206W        W51466  13.684   7.706  14.957
79207W        W51467  12.134   7.188   3.334
79208W        W51468  25.594  41.433   0.481
79209W        W51469  30.458  41.466   1.399
79210W        W51470  18.196   1.898   2.210
79211W        W51471  21.257  17.169   3.285
79212W        W51472  40.461  23.709   3.207
79213W        W51473  22.582  24.033   1.766
79214W        W51474   4.733  28.019  14.953
79215W        W51475  44.762   3.952  14.305
79216W        W51476   6.202  36.928  10.438
79217W        W51477  22.085  10.375  13.441
79218W        W51478  26.530  24.082   4.616
79219W        W51479  40.910   0.841   0.753
79220W        W51480  16.171  42.496   3.371
79221W        W51481  11.789   2.326   4.128
79222W        W51482  28.054  42.352   1.742
79223W        W51483  22.584  17.078   3.152
79224W        W51484  27.052   2.928  11.595
79225W        W51485  11.137  41.818  14.775
79226W        W51486  18.193  28.011   2.286
79227W        W51487  12.170  44.799  13.061
79228W        W51488  32.503  13.163   2.706
79229W        W51489  10.720  35.446   0.263
79230W        W51490  27.132  22.149   1.787
79231W        W51491   7.692  31.009  10.530
79232W        W51492  19.248   2.391   2.842
79233W        W51493  17.586  22.108  10.601
79234W        W51494  38.501   5.270   3.244
79235W        W51495  42.910  10.242   4.810
79236W        W51496  11.710  25.115   1.794
79237W        W51497  44.928  32.089  11.107
79238W        W51498  36.408  23.726   4.275
79239W        W51499   1.372  30.454  13.419
79240W        W51500  23.114  28.012   2.859
79241W        W51501   0.358  30.569  12.066
79242W        W51502  28.434  18.258   0.779
79243W        W51503  29.464  13.623   1.783
79244W        W51504  43.371  36.018   3.795
79245W        W51505  20.621   7.417   3.258
79246W        W51506  39.541  36.038   2.240
79247W        W51507  21.204   4.400  12.574
79248W        W51508   6.892  38.003   2.863
79249W        W51509  38.331  42.977  13.829
79250W        W51510   3.755   1.248   3.275
79251W        W51511   4.858  22.073   1.814
79252W        W51512  14.810  38.565  14.279
79253W        W51513   0.947   8.754  12.086
79254W        W51514  41.342  20.233  11.606
79255W        W51515  19.602  13.665  10.625
79256W        W51516  32.908  21.531   1.405
79257W        W51517  43.407  16.706  11.417
79258W        W51518  25.669  12.360  13.985
79259W        W51519  35.575  19.751  12.991
79260W        W51520  24.219  25.542  11.572
79261W        W51521  20.185  15.129   3.200
79262W        W51522  40.364  29.656   1.745
79263W        W51523  23.681  27.948   1.288
79264W        W51524  43.281  24.712   4.311
79265W        W51525   5.721  30.652   1.749
79266W        W51526  29.011  34.534   1.920
79267W        W51527   6.859  24.565   1.733
79268W        W51528   4.783  41.980   4.309
79269W        W51529   2.449   7.279   9.950
79270W        W51530  18.174   1.855  12.930
79271W        W51531  32.939  41.992   3.847
79272W        W51532   5.285   1.929  11.509
79273W        W51533  10.356  14.322   0.284
79274W        W51534  43.816  16.728   1.784
79275W        W51535   4.869  38.011  11.041
79276W        W51536  38.565  13.659  10.900
79277W        W51537   9.839  41.829  14.408
79278W        W51538   7.712  22.078  14.798
79279W        W51539  21.096   9.170   1.355
79280W        W51540  20.236  31.971   1.266
79281W        W51541   2.911  30.916  11.982
79282W        W51542  37.479  14.628  10.484
79283W        W51543   4.422  32.111   0.362
79284W        W51544  13.752  13.820   4.304
79285W        W51545  42.486  34.579  12.080
79286W        W51546  34.449  43.497  13.368
79287W        W51547   1.816  32.064  14.991
79288W        W51548  41.922  25.989  12.356
79289W        W51549  31.913  39.527   4.116
79290W        W51550  20.147  18.068   4.759
79291W        W51551  43.853   9.835   0.942
79292W        W51552  16.799  26.002   2.228
79293W        W51553   0.788  41.476  12.969
79294W        W51554   2.862  44.490   2.681
79295W        W51555   2.782  39.375  12.357
79296W        W51556  17.738  36.994   1.396
79297W        W51557  29.611  24.974  12.850
79298W        W51558  10.780   0.490  11.976
79299W        W51559  11.173  23.532  11.486
79300W        W51560  30.101  20.734   0.738
79301W        W51561  20.135  34.382  10.960
79302W        W51562  25.185  19.093  10.506
79303W        W51563  16.297  35.473   1.331
79304W        W51564  22.745  12.684  11.436
79305W        W51565  22.598  26.527  11.392
79306W        W51566   2.325  17.770  13.898
79307W        W51567  31.137  35.451   1.331
79308W        W51568  37.484  30.469   3.668
79309W        W51569   2.302  36.918   2.235
79310W        W51570  39.812  16.788   1.712
79311W        W51571  10.356  33.997  11.079
79312W        W51572   1.971  25.069   3.751
79313W        W51573   8.848  31.509  13.955
79314W        W51574  25.688   1.964   3.647
79315W        W51575  12.692   4.855  13.016
79316W        W51576  35.474  42.841  14.430
79317W        W51577   0.769  24.054  14.482
79318W        W51578  15.615  24.027  12.083
79319W        W51579  31.048  18.734  14.876
79320W        W51580  36.950   0.462  13.968
79321W        W51581  42.787  34.882  12.885
79322W        W51582  30.633  29.955   0.265
79323W        W51583  32.987  22.072  12.577
79324W        W51584  34.520  20.532  10.531
79325W        W51585  10.855  22.676   1.905
79326W        W51586  20.212  11.810   3.171
79327W        W51587  29.056  14.192  11.957
79328W        W51588  10.816  33.589  14.778
79329W        W51589  21.112  39.025   0.375
79330W        W51590   1.448  43.798   3.866
79331W        W51591  39.507  28.133  12.941
79332W        W51592  36.899  40.330  12.565
79333W        W51593   6.809  30.544  12.473
79334W        W51594  42.805  35.485   1.324
79335W        W51595   7.399  29.578  14.829
79336W        W51596  29.539   0.962  12.448
79337W        W51597  10.762   9.390  13.036
79338W        W51598  22.079   6.753  12.464
79339W        W51599   9.649   8.177   3.754
79340W        W51600  29.964  29.098   3.377
79341W        W51601  31.153  15.239   1.730
79342W        W51602   1.789  23.180  12.476
79343W        W51603  13.611  31.561  10.583
79344W        W51604   0.494  40.311   3.298
79345W        W51605  38.359  34.969   0.861
79346W        W51606  24.221  11.184   4.653
79347W        W51607  39.843  13.790  13.944
79348W        W51608  34.983  11.861   4.673
79349W        W51609   7.185   6.343   4.279
79350W        W51610  13.171  40.374   0.286
79351W        W51611  15.225  17.641   1.429
79352W        W51612  18.765  19.720  14.019
79353W        W51613  42.465   7.226  13.360
79354W        W51614  42.309  21.697   4.206
79355W        W51615  32.937  18.774  12.506
79356W        W51616   6.838  39.054  13.365
79357W        W51617  39.559   5.368  11.507
79358W        W51618  14.627  35.906   2.752
79359W        W51619  24.505  31.068  11.584
79360W        W51620  22.020  38.820   2.855
79361W        W51621   5.828   5.395  13.933
79362W        W51622  43.400  28.472   0.870
79363W        W51623  24.015  39.944   9.959
79364W        W51624   5.254  23.047   4.250
79365W        W51625   8.404  11.174  12.492
79366W        W51626  23.207  16.571   3.787
79367W        W51627  26.472  15.755  14.968
79368W        W51628  11.359  21.249  14.313
79369W        W51629  14.152  19.621   1.221
79370W        W51630  27.586  18.195   2.687
79371W        W51631  12.264  39.889  10.909
79372W        W51632  24.490  40.388   0.326
79373W        W51633  13.694  19.633  11.483
79374W        W51634  37.058  32.401   3.702
79375W        W51635  16.197  29.096   4.614
79376W        W51636  44.386  13.330  14.842
79377W        W51637  42.366  11.294  12.062
79378W        W51638  41.502  39.051  11.398
79379W        W51639  41.292   1.452  10.936
79380W        W51640  15.146  23.575   4.137
79381W        W51641  16.247  33.068  12.469
79382W        W51642  21.104   2.769   3.732
79383W        W51643  44.956  40.910   1.398
79384W        W51644  20.170  35.109   4.337
79385W        W51645   5.243   0.324  11.879
79386W        W51646  36.386  11.698   4.665
79387W        W51647   8.205  14.654   1.827
79388W        W51648  21.569  35.457   1.815
79389W        W51649  19.551  19.555   2.673
79390W        W51650  37.475  28.145   0.440
79391W        W51651  10.310  43.469   0.759
79392W        W51652  40.549   1.752  11.036
79393W        W51653  16.746  11.849   4.310
79394W        W51654   2.423  37.917   2.829
79395W        W51655   8.719  16.121   1.822
79396W        W51656  23.095  29.047   4.329
79397W        W51657   5.323  37.361  13.819
79398W        W51658  24.505   5.267  13.368
79399W        W51659  31.020  15.254   2.831
79400W        W51660  16.277  34.564  12.875
79401W        W51661  27.516  31.959   5.145
79402W        W51662  23.542  16.208  12.989
79403W        W51663  37.466  26.134  12.977
79404W        W51664   3.389  30.146   1.865
79405W        W51665  16.616  15.323   2.222
79406W        W51666  18.067   2.264  12.947
79407W        W51667   9.252  32.544   1.355
79408W        W51668   9.273  18.605  12.936
79409W        W51669  39.894  21.056   3.356
79410W        W51670  19.565   2.791  14.334
79411W        W51671  31.987  39.453   3.869
79412W        W51672   9.701  29.985   3.646
79413W        W51673   4.318  11.862   3.343
79414W        W51674  15.125  14.803  12.898
79415W        W51675  23.727  26.124   2.384
79416W        W51676   7.892  39.829   0.440
79417W        W51677   7.393  44.910   4.347
79418W        W51678  34.539  34.489  10.570
79419W        W51679  19.563  21.066   3.364
79420W        W51680  31.927  40.047  14.778
79421W        W51681  29.656  43.952  14.774
79422W        W51682  29.124   6.806  10.887
79423W        W51683   2.811  16.296  14.801
79424W        W51684  36.364  21.168  11.402
79425W        W51685  39.448  34.985   2.241
79426W        W51686  22.611   1.750   2.712
79427W        W51687  12.317   9.288   2.297
79428W        W51688  40.980  26.105   0.466
79429W        W51689  18.208  21.642  11.059
79430W        W51690  22.715  40.832   3.773
79431W        W51691  38.912  36.028   5.203
79432W        W51692  31.011   2.382  10.923
79433W        W51693  10.240   6.681   1.262
79434W        W51694  26.549   6.221   3.631
79435W        W51695   9.164   2.396   2.392
79436W        W51696  21.716  35.538   2.375
79437W        W51697  36.960  34.894  14.903
79438W        W51698  22.217  25.696   9.923
79439W        W51699   9.812  30.589   2.309
79440W        W51700  16.195  12.787   0.349
79441W        W51701  24.549  20.268  12.883
79442W        W51702  44.951  28.674   2.752
79443W        W51703  44.941   4.851  13.962
79444W        W51704  38.890  15.651   4.755
79445W        W51705   5.386  17.199   2.732
79446W        W51706   7.861  18.144   0.307
79447W        W51707  10.820  36.936   3.304
79448W        W51708   9.780  15.582   3.161
79449W        W51709  15.628   4.860   4.320
79450W        W51710  44.381  14.163   0.294
79451W        W51711   7.316  31.993   0.414
79452W        W51712  41.932  13.818   4.243
79453W        W51713  18.187  32.040  14.847
79454W        W51714  35.412   0.384   0.825
79455W        W51715  16.108  33.529   9.936
79456W        W51716  28.137   6.417  11.513
79457W        W51717  24.633  18.546   1.901
79458W        W51718  15.220  42.778   2.285
79459W        W51719   9.300   4.832   1.709
79460W        W51720   0.786   7.254   2.241
79461W        W51721   7.674  44.793  10.522
79462W        W51722  10.635  35.902  12.041
79463W        W51723   7.796  43.805   2.851
79464W        W51724  42.910  32.048   2.887
79465W        W51725  33.935   9.306  14.888
79466W        W51726  36.455  32.524   3.262
79467W        W51727   5.297  16.738   3.254
79468W        W51728  41.508   1.410  14.291
79469W        W51729   5.223  39.870  10.908
79470W        W51730   0.455  38.021  13.999
79471W        W51731  39.052   1.249  14.857
79472W        W51732  23.506   7.301   3.740
79473W        W51733  10.698  24.647   2.384
79474W        W51734  14.111  43.843  14.451
79475W        W51735  35.880  25.484   1.242
79476W        W51736   1.371  21.545   1.360
79477W        W51737  11.216  44.809  14.825
79478W        W51738  13.218  13.130   4.698
79479W        W51739  39.512  22.742   1.261
79480W        W51740   6.884  36.910  11.450
79481W        W51741  11.674  13.716  12.877
79482W        W51742  32.433   8.874  12.969
79483W        W51743  40.505  31.140  11.980
79484W        W51744   3.757  41.482  12.883
79485W        W51745   2.824  15.099   4.337
79486W        W51746  34.547  26.011  11.056
79487W        W51747  24.485  31.022  12.831
79488W        W51748  44.426   5.292  10.894
79489W        W51749  43.976  38.045  12.069
79490W        W51750  32.497  35.974   4.838
79491W        W51751  14.256  12.734  13.953
79492W        W51752  11.676   1.833   4.616
79493W        W51753  22.731  39.837   2.199
79494W        W51754  24.634  28.934   0.810
79495W        W51755  33.066  44.787   1.361
79496W        W51756  22.535  36.975   1.415
79497W        W51757  15.660  36.589   5.127
79498W        W51758  42.003   8.658   5.217
79499W        W51759   9.874   6.804   3.156
79500W        W51760  44.863  30.446   1.707
79501W        W51761  19.614  25.625   2.821
79502W        W51762  44.927   6.355  10.987
79503W        W51763  38.336  16.710   0.967
79504W        W51764   7.325  41.353  12.911
79505W        W51765  32.108   8.206  13.935
79506W        W51766  28.094  11.357   0.967
79507W        W51767  11.319  35.937   0.732
79508W        W51768  10.749  27.063   2.419
79509W        W51769  22.724  35.893   2.409
79510W        W51770   2.763  42.521   3.382
79511W        W51771  43.886  37.847   0.455
79512W        W51772  31.465  15.194   4.261
79513W        W51773  12.681   4.447  10.505
79514W        W51774   4.369  27.633   5.701
79515W        W51775  30.581  16.293  11.965
79516W        W51776  43.321  39.329  11.121
79517W        W51777  35.921  26.034   2.854
79518W        W51778  22.123   8.332   0.937
79519W        W51779  30.091  15.629   1.781
79520W        W51780   5.689  43.020   5.093
79521W        W51781  23.086  22.121   3.345
79522W        W51782  19.749  10.276   0.797
79523W        W51783   3.854  27.452   1.794
79524W        W51784   9.854   8.365  10.587
79525W        W51785  25.470  30.945   4.780
79526W        W51786   9.660   8.230  14.944
79527W        W51787  18.675  26.592   4.175
79528W        W51788   2.844   5.864   4.607
79529W        W51789  33.987  44.410   0.391
79530W        W51790   9.150  30.086   4.619
79531W        W51791  40.957  31.932   2.883
79532W        W51792   9.173  29.491  10.006
79533W        W51793  28.121   0.759   3.309
79534W        W51794   1.741  30.919   0.850
79535W        W51795  11.187  33.104   3.254
79536W        W51796  24.058  23.652   4.226
79537W        W51797  25.126  22.596  11.094
79538W        W51798   3.742  35.068   2.285
79539W        W51799   9.229  24.144  10.560
79540W        W51800  16.699  23.654   0.331
79541W        W51801  26.208   5.749   4.757
79542W        W51802  11.843  33.432   4.247
79543W        W51803   0.858  39.982  10.069
79544W        W51804  26.974  11.670   4.114
79545W        W51805  12.711   1.838  13.808
79546W        W51806  30.572  33.924   4.329
79547W        W51807   2.880  17.154   2.390
79548W        W51808  24.512  17.678  14.861
79549W        W51809  21.730  30.580   0.784
79550W        W51810  29.022   0.752   0.788
79551W        W51811   7.836  38.517   1.788
79552W        W51812   4.310   1.919   1.901
79553W        W51813  19.538   6.796   4.211
79554W        W51814   2.803  34.095  14.779
79555W        W51815  40.029  36.893   2.744
79556W        W51816  32.041  16.750   4.673
79557W        W51817  44.388  30.924   0.366
79558W        W51818  32.089  42.934  14.971
79559W        W51819  32.549  11.739  10.940
79560W        W51820  36.416  38.505   0.942
79561W        W51821  42.870  20.616  13.815
79562W        W51822  22.533  24.641   4.767
79563W        W51823  19.209  32.400   4.770
79564W        W51824  40.028  39.869  12.493
79565W        W51825   3.909  24.618  14.762
79566W        W51826  18.293  29.502  13.456
79567W        W51827   8.688  39.001   0.314
79568W        W51828  34.081  27.588   1.434
79569W        W51829  32.404  22.175  11.896
79570W        W51830  18.573  29.609  14.985
79571W        W51831   2.775  27.566  10.523
79572W        W51832   5.257  19.569  13.546
79573W        W51833   8.841  31.965  10.009
79574W        W51834  22.708  27.599  12.376
79575W        W51835  29.048   5.368  13.000
79576W        W51836   5.778  29.971  13.428
79577W        W51837  24.656  10.261   2.315
79578W        W51838  20.586  17.632   1.920
79579W        W51839  21.085  25.036  10.038
79580W        W51840  22.067  38.043   0.315
79581W        W51841  42.288  41.331   2.350
79582W        W51842  16.107  43.799   2.798
79583W        W51843  23.545  35.896   0.888
79584W        W51844  12.791  40.801   4.784
79585W        W51845  32.463   3.360  14.502
79586W        W51846  19.185  40.381   2.899
79587W        W51847  14.251  16.583   3.173
79588W        W51848  31.614  23.020   3.792
79589W        W51849  32.998  44.969   3.781
79590W        W51850  28.634   0.457   0.906
79591W        W51851  15.741  11.862   0.305
79592W        W51852  38.843  21.597  11.521
79593W        W51853  37.992  19.615  11.402
79594W        W51854  23.112  43.376  10.575
79595W        W51855   5.739  16.600   4.186
79596W        W51856  11.815   9.394   0.867
79597W        W51857  42.991  16.646   3.642
79598W        W51858   5.898  11.751   0.475
79599W        W51859  15.810  19.228  13.877
79600W        W51860  27.644  15.204  14.015
79601W        W51861  33.127  23.037   3.255
79602W        W51862  26.111  44.444  10.971
79603W        W51863  40.925  43.430  11.875
79604W        W51864  35.586  34.005   1.920
79605W        W51865   7.798   7.821  12.074
79606W        W51866  42.345  31.418  11.506
79607W        W51867  31.632  43.397  14.788
79608W        W51868   7.760   5.731   3.279
79609W        W51869  10.361  17.078   3.206
79610W        W51870   5.196   3.238  11.112
79611W        W51871   3.753  22.507  11.611
79612W        W51872  34.910   5.695  11.485
79613W        W51873  38.073   1.781  14.806
79614W        W51874  15.797  12.251   3.830
79615W        W51875  10.351  35.371  10.914
79616W        W51876  42.523  14.126  10.994
79617W        W51877  10.229  14.817   1.764
79618W        W51878  14.096   7.292   4.767
79619W        W51879   2.374  36.011   0.930
79620W        W51880  32.458  14.339   1.211
79621W        W51881   9.234  19.058  11.975
79622W        W51882  28.933  31.527   2.831
79623W        W51883  14.696  35.450   0.906
79624W        W51884  40.535  24.722  13.427
79625W        W51885  38.455  23.142   0.402
79626W        W51886  15.095  31.423  13.959
79627W        W51887  36.978  43.327  14.018
79628W        W51888  13.666  44.997  14.391
79629W        W51889  42.443  37.568  14.471
79630W        W51890  43.863  14.696  11.444
79631W        W51891  26.970  41.441   5.305
79632W        W51892  43.369  30.653   4.306
79633W        W51893  39.354  18.739  13.351
79634W        W51894  27.154  32.452   0.354
79635W        W51895   2.753   1.402   1.355
79636W        W51896   4.794   1.247  12.502
79637W        W51897  15.751  44.334  14.784
79638W        W51898  12.218  35.579  11.881
79639W        W51899  18.262   4.408  10.912
79640W        W51900  41.010  29.596  10.971
79641W        W51901  34.885  38.914   1.746
79642W        W51902  33.047  34.456   1.932
79643W        W51903   5.425  15.654   3.832
79644W        W51904  32.079  15.262   2.279
79645W        W51905   3.316  41.833   4.347
79646W        W51906  31.103  36.454  10.924
79647W        W51907   6.764  38.361   0.912
79648W        W51908   9.726  36.375   3.351
79649W        W51909   8.689  41.997  12.405
79650W        W51910  14.647  27.512  11.077
79651W        W51911   1.960  40.535  13.483
79652W        W51912  25.509  34.528  10.477
79653W        W51913   5.404  21.580   1.910
79654W        W51914  43.914   7.270   4.730
79655W        W51915  12.711  28.066   2.378
79656W        W51916  27.141  15.700   3.318
79657W        W51917  41.883  44.276  13.330
79658W        W51918  20.119  11.133   4.621
79659W        W51919  35.460   6.383  14.337
79660W        W51920   1.434   4.758  13.909
79661W        W51921  15.259  28.462  11.008
79662W        W51922  35.964  43.992   0.967
79663W        W51923  44.441  23.575   1.878
79664W        W51924  40.308   0.981   3.309
79665W        W51925  33.386   5.361   2.678
79666W        W51926   8.339   4.401  11.102
79667W        W51927   2.733  21.726  13.914
79668W        W51928  16.686   5.207   3.714
79669W        W51929  44.327  20.042  14.009
79670W        W51930  40.504  16.213  14.294
79671W        W51931  11.680  28.665  10.139
79672W        W51932  33.519  33.571  13.514
79673W        W51933  15.650  14.185  12.854
79674W        W51934  23.123  25.136   4.314
79675W        W51935  21.257  34.383  10.488
79676W        W51936  36.058  28.557   2.744
79677W        W51937  25.485  35.976  12.966
79678W        W51938  41.901   3.346  12.362
79679W        W51939  32.420  20.683   0.262
79680W        W51940  44.928  28.679   0.927
79681W        W51941  24.101  13.189  14.406
79682W        W51942   4.251   9.234  10.982
79683W        W51943  41.424  30.471   2.893
79684W        W51944  43.985   2.364  13.010
79685W        W51945  25.496   6.422   0.276
79686W        W51946   0.492   1.950  10.450
79687W        W51947  25.019  41.450  14.362
79688W        W51948  34.996  30.928  12.823
79689W        W51949   6.910  16.276  12.438
79690W        W51950  11.851  28.457   0.800
79691W        W51951  27.164  32.141  13.318
79692W        W51952  37.051   8.845   5.709
79693W        W51953  26.496  19.713  14.885
79694W        W51954   5.281  32.036   2.196
79695W        W51955  32.503  11.368  11.563
79696W        W51956  40.452  32.903   1.760
79697W        W51957  43.375  33.030  10.426
79698W        W51958   8.273  22.602  12.906
79699W        W51959  26.135  42.482   3.694
79700W        W51960  14.768  11.790   0.479
79701W        W51961  33.449   8.813   3.649
79702W        W51962  13.817  31.578  11.561
79703W        W51963   2.925  25.005   3.382
79704W        W51964  40.409  13.718   4.815
79705W        W51965   0.482  26.184  11.590
79706W        W51966  34.020  31.431  11.880
79707W        W51967  23.576  42.980   4.239
79708W        W51968  10.866   5.790  14.788
79709W        W51969  32.548   7.395   9.960
79710W        W51970   3.722   9.188   4.326
79711W        W51971  10.867  40.511   3.835
79712W        W51972  39.830  42.351   0.733
79713W        W51973  37.001   6.870   2.341
79714W        W51974  21.519  16.732   0.954
79715W        W51975  33.068   0.377   3.738
79716W        W51976   4.774  28.929   4.290
79717W        W51977  22.114   6.704  13.850
79718W        W51978  36.425  40.837   3.720
79719W        W51979   3.793   5.290   2.297
79720W        W51980  37.006  16.212   4.317
79721W        W51981  19.224   6.789   1.228
79722W        W51982  43.971   6.877   0.289
79723W        W51983  18.221   6.831   2.689
79724W        W51984  38.524  32.448  11.491
79725W        W51985  19.157  37.411   3.836
79726W        W51986  23.664  10.362  13.326
79727W        W51987  31.635  35.068  14.334
79728W        W51988  21.078  23.521  13.509
79729W        W51989  42.363  32.434  14.930
79730W        W51990  26.576  19.633   0.447
79731W        W51991  20.610  22.559   2.875
79732W        W51992   0.901  14.727  12.968
79733W        W51993  16.220  26.532  12.925
79734W        W51994   9.776  16.304   3.149
79735W        W51995  14.630   4.436  11.395
79736W        W51996   2.234   2.404   1.834
79737W        W51997  43.426  37.493   1.931
79738W        W51998  35.969   3.345   0.357
79739W        W51999  41.299  20.647   3.716
79740W        W52000  21.129  32.444   3.840
79741W        W52001   5.278   2.874   3.823
79742W        W52002   3.719  41.877   3.781
79743W        W52003  17.305   1.356  14.800
79744W        W52004  27.974  20.262   2.200
79745W        W52005  25.085  11.751   2.697
79746W        W52006  31.453  38.971  14.903
79747W        W52007   6.774  43.946  12.395
79748W        W52008  27.663  39.890   0.276
79749W        W52009  16.750  38.485   3.647
79750W        W52010  20.087  25.984  12.444
79751W        W52011  25.991  29.477   0.930
79752W        W52012  40.014  38.383   3.762
79753W        W52013  33.563  10.200   0.476
79754W        W52014   1.770   5.697  12.440
79755W        W52015  23.140   2.471   1.844
79756W        W52016  21.658  32.118   0.281
79757W        W52017  21.683  26.020  12.910
79758W        W52018  25.994  44.940   2.375
79759W        W52019  26.208  43.501   4.697
79760W        W52020  39.455  43.906   1.859
79761W        W52021   7.272  14.334  11.439
79762W        W52022  18.272  23.218  13.802
79763W        W52023   5.715  29.087   3.746
79764W        W52024  30.479  12.643   3.374
79765W        W52025  23.126   2.436   0.832
79766W        W52026  11.295  10.825   4.755
79767W        W52027   6.702  36.050   1.732
79768W        W52028  31.520  30.924   3.658
79769W        W52029  35.597  32.888  14.454
79770W        W52030  25.964  17.780  10.449
79771W        W52031  32.569  42.428  13.991
79772W        W52032  20.729  41.450   2.787
79773W        W52033  17.655  24.608   1.387
79774W        W52034  18.714  39.405  13.361
79775W        W52035   9.676  29.959  12.473
79776W        W52036   1.942  44.306   3.300
79777W        W52037  32.422  11.834  13.845
79778W        W52038  22.730  27.528  11.579
79779W        W52039  36.859   5.375   2.214
79780W        W52040   2.392   7.794  12.911
79781W        W52041  36.925  31.965  14.315
79782W        W52042  38.858  16.575   3.205
79783W        W52043  44.859  16.785  12.060
79784W        W52044  17.577  14.620   1.423
79785W        W52045   6.264  41.336  12.927
79786W        W52046  18.254  43.880  14.011
79787W        W52047  29.476  33.504   2.662
79788W        W52048  14.149   2.386   3.685
79789W        W52049  39.034  41.824   4.798
79790W        W52050  22.128  21.726  11.063
79791W        W52051  39.968  23.587   1.714
79792W        W52052  14.798  10.727  13.031
79793W        W52053  42.363   1.325  13.343
79794W        W52054   4.723  30.610   4.265
79795W        W52055  33.551  14.121  11.107
79796W        W52056  43.962  44.392   4.232
79797W        W52057  34.424  42.860  14.435
79798W        W52058  12.272  25.511  11.113
79799W        W52059  42.796  11.792   2.223
79800W        W52060  11.194  35.523   1.822
79801W        W52061  43.316  22.996   3.830
79802W        W52062  39.386  11.239   3.704
79803W        W52063   9.385  23.653   0.392
79804W        W52064  28.963  34.982   0.370
79805W        W52065  32.503  22.663  12.392
79806W        W52066  12.278  18.183   2.672
79807W        W52067  24.139  19.640   3.169
79808W        W52068  32.084  17.270   5.268
79809W        W52069  11.165   8.388  13.538
79810W        W52070  26.594  13.816   4.350
79811W        W52071  39.008  18.615   4.324
79812W        W52072  27.498  22.173   3.375
79813W        W52073  17.679  29.533  12.467
79814W        W52074  14.274   1.383  11.004
79815W        W52075  27.637  30.124   3.715
79816W        W52076  35.091  36.369   4.337
79817W        W52077   5.740  34.422   2.682
79818W        W52078   1.237  21.239  11.525
79819W        W52079  27.945  12.159   0.276
79820W        W52080  14.219   1.788  12.964
79821W        W52081  38.463  12.361   0.317
79822W        W52082  14.299  32.085  14.954
79823W        W52083  35.600  26.013   0.461
79824W        W52084  22.552  24.561   4.214
79825W        W52085  36.461  21.044  14.494
79826W        W52086  26.179  31.952  11.567
79827W        W52087  32.911   9.845  11.947
79828W        W52088  40.809  17.261  10.592
79829W        W52089  39.842  34.880  12.480
79830W        W52090  23.635  32.923   1.449
79831W        W52091  23.240  43.887  14.404
79832W        W52092  22.655   0.903  11.991
79833W        W52093  43.488  12.339  10.951
79834W        W52094   4.796  10.866  12.094
79835W        W52095   1.842   0.359   1.849
79836W        W52096   5.277  42.376   4.194
79837W        W52097  10.242  44.801  12.868
79838W        W52098  16.790   3.377   2.884
79839W        W52099  25.979  13.146  11.865
79840W        W52100  14.699   9.272   3.723
79841W        W52101  35.100   7.906   2.323
79842W        W52102  29.453  32.060  14.317
79843W        W52103  26.071  26.076   4.719
79844W        W52104  34.590  40.874  14.918
79845W        W52105   1.880  34.093   0.933
79846W        W52106  34.556   3.759   2.790
79847W        W52107  40.024  35.919   1.706
79848W        W52108  25.118  38.398   2.320
79849W        W52109  16.618   1.426   3.157
79850W        W52110  42.974  20.712   2.256
79851W        W52111   7.818  39.391  11.601
79852W        W52112  36.354  39.367   4.742
79853W        W52113  19.563   9.773  12.351
79854W        W52114  26.994  11.668   1.904
79855W        W52115  23.065  34.376  11.958
79856W        W52116   1.757   0.969  13.878
79857W        W52117  36.456  41.042   2.364
79858W        W52118   1.293  35.080  13.884
79859W        W52119  26.002   8.323   0.791
79860W        W52120   2.798   0.434  12.547
79861W        W52121   8.837  28.576  14.362
79862W        W52122  31.608  11.704  10.956
79863W        W52123  39.541  25.034   2.750
79864W        W52124   2.764  18.775   1.412
79865W        W52125  44.312  24.191   2.201
79866W        W52126  39.839   6.270  14.856
79867W        W52127  10.312  36.949   4.148
79868W        W52128  35.922   2.315  10.476
79869W        W52129  25.176  36.929  14.807
79870W        W52130   4.208   6.766   1.713
79871W        W52131  13.172  23.516   3.695
79872W        W52132  36.946  16.638  11.485
79873W        W52133  29.464   4.317   0.775
79874W        W52134  29.157  31.039  10.898
79875W        W52135  29.604  30.007   3.700
79876W        W52136  35.081  17.594  13.329
79877W        W52137  12.324   9.340   4.230
79878W        W52138  35.020  31.986  10.128
79879W        W52139  12.649   3.336   0.854
79880W        W52140  44.274  34.002  11.578
79881W        W52141  37.866  33.063  12.060
79882W        W52142   3.232   0.876  12.392
79883W        W52143  31.569  35.915   3.261
79884W        W52144  15.265  32.528  10.927
79885W        W52145  18.581  28.128  13.422
79886W        W52146  30.532  42.924  11.118
79887W        W52147  13.744  30.649  13.028
79888W        W52148  13.625  33.584  12.381
79889W        W52149  32.635  39.012   2.661
79890W        W52150  18.052  19.046   4.615
79891W        W52151  37.441  44.762   2.805
79892W        W52152  16.652  25.705  14.508
79893W        W52153  35.107  27.574  13.967
79894W        W52154  33.924   2.776  14.790
79895W        W52155  35.053  26.617   3.828
79896W        W52156   1.909  32.124   1.795
79897W        W52157  38.841  22.030  10.925
79898W        W52158  10.155  14.737  10.583
79899W        W52159  18.229  43.385  14.324
79900W        W52160   2.830  36.372   0.727
79901W        W52161  26.167   7.252   4.247
79902W        W52162   3.424   0.820   2.238
79903W        W52163  37.502  44.270   1.355
79904W        W52164  24.663   5.214  12.537
79905W        W52165  25.121  26.177   0.825
79906W        W52166  35.451  38.841   4.833
79907W        W52167  10.650  26.016   1.780
79908W        W52168  30.046  29.061   1.225
79909W        W52169  35.527  38.030   0.962
79910W        W52170  20.091  14.320   5.167
79911W        W52171  43.424   2.899   1.219
79912W        W52172  34.047  44.412  13.811
79913W        W52173  21.740  11.764  11.443
79914W        W52174  40.422  25.202   0.483
79915W        W52175  43.456  38.404  12.349
79916W        W52176  35.867  28.940  12.063
79917W        W52177   8.337  20.251  12.575
79918W        W52178  33.921  39.829   4.664
79919W        W52179  37.862  25.687   0.285
79920W        W52180  41.869  10.786  10.462
79921W        W52181   8.656  26.584  14.799
79922W        W52182  18.230  26.061   4.149
79923W        W52183  34.449  12.645   0.418
79924W        W52184  17.097  37.500   5.171
79925W        W52185  11.654  43.505   1.312
79926W        W52186  26.205  35.573   1.217
79927W        W52187  11.779  15.633   3.673
79928W        W52188  37.533  43.805  14.393
79929W        W52189  15.640  39.377   1.832
79930W        W52190  17.611  15.238   4.314
79931W        W52191  15.184  15.813   2.853
79932W        W52192  19.582  33.591  13.851
79933W        W52193  20.053  40.944  11.479
79934W        W52194   5.266  44.868   4.799
79935W        W52195  25.650   3.939   0.913
79936W        W52196  38.898  37.520   3.194
79937W        W52197  44.852   6.417  12.350
79938W        W52198  10.187  13.144  10.565
79939W        W52199  41.376  31.926  11.443
79940W        W52200   5.222  31.122  12.357
79941W        W52201  10.645  12.725   4.301
79942W        W52202   1.753  37.426   4.312
79943W        W52203  18.149  36.567   4.702
79944W        W52204  26.013  25.967  13.544
79945W        W52205  23.540   1.361  10.469
79946W        W52206  31.116  41.476   0.451
79947W        W52207   8.870  17.227  13.411
79948W        W52208  16.602  26.512   2.690
79949W        W52209  12.284  26.964  11.406
79950W        W52210  44.911  38.936  14.380
79951W        W52211  39.902  21.017   2.318
79952W        W52212  17.072  18.104   4.280
79953W        W52213  19.113  33.422  11.002
79954W        W52214  17.259  16.237  13.485
79955W        W52215  23.682  17.229  11.930
79956W        W52216   3.288  11.244   0.324
79957W        W52217   3.729   4.223  13.521
79958W        W52218   7.898  22.149   0.795
79959W        W52219  13.203  35.096  11.954
79960W        W52220  20.543  36.396  11.553
79961W        W52221  23.584  19.197  12.384
79962W        W52222  34.888  26.496  11.560
79963W        W52223   6.715   6.744   4.641
79964W        W52224  42.490  13.813   3.698
79965W        W52225  18.295   5.314   1.821
79966W        W52226  30.505  43.406   3.800
79967W        W52227  33.519   6.726   0.280
79968W        W52228  21.086   0.431   2.330
79969W        W52229   8.753  41.986  11.598
79970W        W52230   2.380  41.317   1.742
79971W        W52231  40.437  31.523  13.439
79972W        W52232  17.065  13.797   3.246
79973W        W52233  42.345  12.132   4.304
79974W        W52234   4.810   5.383   3.803
79975W        W52235  34.534  17.706   3.233
79976W        W52236  21.168  26.607  11.521
79977W        W52237  19.737   3.890   3.788
79978W        W52238  22.517  12.783   5.286
79979W        W52239  12.712  34.533   0.967
79980W        W52240   2.279  40.805  12.893
79981W        W52241  12.239   0.367  10.457
79982W        W52242  17.732  38.048  13.809
79983W        W52243   6.698  12.657  13.515
79984W        W52244  24.703  22.605   2.199
79985W        W52245  13.167  22.512   3.735
79986W        W52246  31.045  15.157  11.904
79987W        W52247  41.940  17.103   2.392
79988W        W52248  25.679   4.887   4.599
79989W        W52249  22.160   2.377  10.616
79990W        W52250  35.943   9.345  11.396
79991W        W52251   6.878  35.874  13.820
79992W        W52252  12.265   1.926   4.623
79993W        W52253  34.371  35.988  10.904
79994W        W52254  41.791  44.813  14.856
79995W        W52255  40.537  33.392   2.844
79996W        W52256  42.445  17.271  12.402
79997W        W52257  34.484  32.584  12.853
79998W        W52258   5.708  26.161   9.934
79999W        W52259  26.553  10.701   1.840
80000W        W52260  16.707  25.571  13.031
80001W        W52261  23.548  35.905   0.399
80002W        W52262   6.317   0.756  13.464
80003W        W52263  25.703   3.711   3.381
80004W        W52264  41.429  24.481  11.545
80005W        W52265  27.136  26.108  13.535
80006W        W52266  24.220  28.986   0.816
80007W        W52267  15.704  37.853   2.182
80008W        W52268  16.798  32.566  14.903
80009W        W52269  24.658  31.634  11.371
80010W        W52270  39.050  28.182  13.826
80011W        W52271  22.527  30.568  11.415
80012W        W52272  23.687  38.026  10.933
80013W        W52273  25.200  14.124  11.427
80014W        W52274  34.087   4.845   3.862
80015W        W52275  10.661  20.714   0.780
80016W        W52276  18.791  36.005   4.794
80017W        W52277  19.672  34.986   2.298
80018W        W52278  12.124  38.338  10.630
80019W        W52279  16.185  39.463  13.917
80020W        W52280  44.353  25.041  12.351
80021W        W52281   5.730  16.606   0.787
80022W        W52282   4.892  37.373  14.961
80023W        W52283  39.050  37.900  14.307
80024W        W52284  21.549  21.255  11.396
80025W        W52285  40.881  41.936  13.461
80026W        W52286  26.588  16.176   1.366
80027W        W52287  23.697  32.089   1.345
80028W        W52288  36.555   9.775  12.839
80029W        W52289  13.728  39.400  13.896
80030W        W52290  13.824  26.065   0.792
80031W        W52291  14.299  28.046   5.277
80032W        W52292   6.726  25.583   9.526
80033W        W52293  31.071   3.278   3.289
80034W        W52294  26.045  19.211   1.719
80035W        W52295  28.009  22.228   3.856
80036W        W52296  41.033  35.936  12.431
80037W        W52297  20.676  42.509   3.836
80038W        W52298  17.740  31.017  10.488
80039W        W52299  15.613  33.477   3.735
80040W        W52300  43.473  38.967   2.830
80041W        W52301  44.428  40.050  13.056
80042W        W52302  39.553  40.372  14.351
80043W        W52303   4.806  37.532   4.767
80044W        W52304   5.771   1.883  13.930
80045W        W52305  33.474   8.855   1.903
80046W        W52306   3.312  11.171  12.578
80047W        W52307  30.595  26.079   4.734
80048W        W52308  16.190  11.747   4.210
80049W        W52309   6.421  41.891   4.327
80050W        W52310  41.323  18.119   4.205
80051W        W52311  17.165  44.981   4.289
80052W        W52312  42.833  43.004   3.329
80053W        W52313  11.237  38.464   3.265
80054W        W52314  29.083  25.699   2.357
80055W        W52315  23.126   8.218  10.564
80056W        W52316  11.691  22.187   3.299
80057W        W52317  25.554  19.669  12.962
80058W        W52318  20.651  18.291   0.440
80059W        W52319  23.634   2.876   2.297
80060W        W52320   4.445  34.555   0.967
80061W        W52321  19.157   3.233   4.319
80062W        W52322  20.159   2.446   4.321
80063W        W52323  12.849  30.086   5.580
80064W        W52324  16.285  30.079  13.487
80065W        W52325  39.825   2.831  13.056
80066W        W52326  37.402   0.759   0.408
80067W        W52327  18.590   1.469  14.913
80068W        W52328  30.654   4.348  12.843
80069W        W52329  44.800   4.928   0.408
80070W        W52330  20.553   4.265  13.478
80071W        W52331   9.215  28.501  13.506
80072W        W52332   0.325   4.701   2.671
80073W        W52333  13.653  20.634  14.949
80074W        W52334  37.397  27.026   0.465
80075W        W52335  42.345  41.398   0.768
80076W        W52336  13.189  24.658   2.803
80077W        W52337  10.294  40.494   3.834
80078W        W52338  44.479  22.740   3.255
80079W        W52339   0.294   3.267  11.587
80080W        W52340  39.496  23.669   5.182
80081W        W52341   2.267  33.896   2.771
80082W        W52342  16.154  24.020  14.813
80083W        W52343   4.915   5.393  11.877
80084W        W52344  40.046  33.079  14.344
80085W        W52345  22.135  18.142  10.909
80086W        W52346   2.340  27.127   0.334
80087W        W52347  26.117  34.561  10.530
80088W        W52348   3.943  37.504   4.608
80089W        W52349  15.813   4.302   4.689
80090W        W52350   7.301  15.735  11.958
80091W        W52351   7.302  40.415   4.276
80092W        W52352  34.413  22.676   3.718
80093W        W52353  42.813  44.277   3.376
80094W        W52354  22.614  35.509  12.949
80095W        W52355  29.930   2.826  14.452
80096W        W52356  41.980  12.721   4.634
80097W        W52357  20.523  19.596   2.833
80098W        W52358  44.882  35.590  14.922
80099W        W52359  23.641  10.357   3.772
80100W        W52360   8.267  36.043  13.466
80101W        W52361  22.096  38.996   4.162
80102W        W52362  12.270  15.149   4.790
80103W        W52363  31.512  15.225   2.240
80104W        W52364   1.335  34.979   0.788
80105W        W52365   2.448  27.111  13.318
80106W        W52366  35.571  28.114   2.363
80107W        W52367  41.907   7.263  10.488
80108W        W52368  12.729  28.994  13.532
80109W        W52369   7.384  10.794  12.398
80110W        W52370   9.340  31.962   3.780
80111W        W52371  43.968  34.107  13.022
80112W        W52372  20.118   9.689  12.016
80113W        W52373  37.911  15.179   3.173
80114W        W52374  39.467   2.884   2.765
80115W        W52375  11.281  26.056   0.358
80116W        W52376  39.350  31.923   4.342
80117W        W52377   7.317  41.534  10.982
80118W        W52378  10.316  18.207   4.676
80119W        W52379  23.987  18.139  10.981
80120W        W52380  15.738  21.594   1.836
80121W        W52381  20.713  41.448  12.071
80122W        W52382  38.919  39.439   2.753
80123W        W52383  37.864  24.569  13.330
80124W        W52384   9.759   6.251   3.735
80125W        W52385   6.188  24.481   2.813
80126W        W52386   7.195  38.967  14.503
80127W        W52387  43.341  41.948   1.392
80128W        W52388  34.485  29.447   1.356
80129W        W52389   7.891  32.580  13.010
80130W        W52390   4.383  25.977  14.338
80131W        W52391  28.147  37.065   0.453
80132W        W52392  38.366  25.150  13.855
80133W        W52393  28.972   6.203   3.219
80134W        W52394  23.211   3.923  13.921
80135W        W52395  41.488  16.673  12.567
80136W        W52396  25.551  40.495   0.795
80137W        W52397  37.940  28.024  13.371
80138W        W52398  10.646  36.973   1.300
80139W        W52399  39.049   8.863   1.718
80140W        W52400  39.849   0.744  12.420
80141W        W52401  30.439  25.670   3.703
80142W        W52402  10.238  20.135   0.329
80143W        W52403  37.548  26.472  11.586
80144W        W52404  10.249   7.838  13.028
80145W        W52405  24.693  44.985   1.799
80146W        W52406   5.763  30.631  13.544
80147W        W52407  38.405   7.185   4.717
80148W        W52408  38.903  23.004   4.263
80149W        W52409   3.364   4.258   0.827
80150W        W52410  38.931  30.445   9.921
80151W        W52411  18.587   8.371  11.607
80152W        W52412  41.947  25.966  14.308
80153W        W52413  26.643   1.844   2.246
80154W        W52414  38.515  23.676   3.208
80155W        W52415  25.655  12.710  10.121
80156W        W52416  10.244  39.028   1.855
80157W        W52417  17.726  13.669  11.504
80158W        W52418  23.004   7.685   1.295
80159W        W52419   3.911  19.764   0.940
80160W        W52420   7.709  37.526   5.187
80161W        W52421   2.728  30.539  14.915
80162W        W52422  37.045  18.676  13.964
80163W        W52423   0.906  11.790   2.766
80164W        W52424  44.797   9.720  13.064
80165W        W52425  35.446  39.318  14.867
80166W        W52426  24.223  19.046   4.315
80167W        W52427   1.807  41.857  11.043
80168W        W52428   2.873  31.988   0.357
80169W        W52429  25.154   0.900   4.130
80170W        W52430  37.022  18.688  13.057
80171W        W52431  22.569  25.147   4.224
80172W        W52432  26.177  44.831  10.459
80173W        W52433   8.261  12.254   0.454
80174W        W52434   8.732  35.079   2.884
80175W        W52435   8.766  32.042  14.960
80176W        W52436  19.761  12.659   1.375
80177W        W52437  23.631  16.199  11.610
80178W        W52438  25.597   3.266   0.855
80179W        W52439  18.747  40.032  14.300
80180W        W52440  40.894  16.753   3.241
80181W        W52441   9.187  37.352  11.606
80182W        W52442  36.066  13.813   1.710
80183W        W52443  11.711  16.103  12.873
80184W        W52444   5.875  21.115   1.330
80185W        W52445  25.005   1.364  14.027
80186W        W52446   8.185  28.460  14.780
80187W        W52447  35.576  22.238   1.323
80188W        W52448  11.737   7.336  11.936
80189W        W52449  23.218  31.129  10.981
80190W        W52450  19.269  34.880  11.562
80191W        W52451  31.508  14.115   3.757
80192W        W52452   2.748   1.483   3.299
80193W        W52453  30.659   8.816  10.918
80194W        W52454   3.427  10.710   2.677
80195W        W52455  33.538  32.959   0.727
80196W        W52456  44.838   9.273  11.097
80197W        W52457   3.223  38.920   2.763
80198W        W52458  31.108  11.291   4.723
80199W        W52459   1.920  30.144   1.863
80200W        W52460  38.447  22.660   4.623
80201W        W52461  16.614  10.217   2.249
80202W        W52462   9.285   5.790  12.503
80203W        W52463  35.926   6.223  13.824
80204W        W52464   1.882  21.737   2.237
80205W        W52465  12.644   0.424   4.764
80206W        W52466  11.184  44.989   2.298
80207W        W52467  19.668  25.649   1.829
80208W        W52468   7.223  35.529  11.908
80209W        W52469  29.139  29.078  12.544
80210W        W52470  41.441  41.295  13.832
80211W        W52471  32.407  44.319  13.315
80212W        W52472  34.583  22.190  12.558
80213W        W52473  16.648  26.068  10.933
80214W        W52474  36.380  18.551  14.853
80215W        W52475   3.443  10.845  11.380
80216W        W52476  24.079   3.876  14.862
80217W        W52477  13.774  38.864  14.769
80218W        W52478  18.630  24.493  12.449
80219W        W52479  28.439  25.582  13.840
80220W        W52480  12.631  42.013   2.280
80221W        W52481  38.349  35.922  14.388
80222W        W52482   6.242  22.645   5.133
80223W        W52483  42.928   7.839   0.726
80224W        W52484  20.229  29.477  13.412
80225W        W52485   6.803   5.274   0.784
80226W        W52486  20.600  30.469  10.453
80227W        W52487   4.796  11.626   3.385
80228W        W52488  35.412  14.809  11.115
80229W        W52489  23.656  44.265  10.146
80230W        W52490  24.643  38.886  13.423
80231W        W52491   2.431  11.828   2.727
80232W        W52492  32.100   0.305   5.118
80233W        W52493   0.855  32.096  13.036
80234W        W52494   7.829   7.214  10.061
80235W        W52495  44.392  22.552   2.309
80236W        W52496  12.769  44.332  13.988
80237W        W52497   3.310  11.208  14.850
80238W        W52498  15.709   4.272  14.844
80239W        W52499  22.638   6.312  12.340
80240W        W52500  43.871  37.397   1.419
80241W        W52501  27.534  21.224  13.852
80242W        W52502  18.704   5.908  14.029
80243W        W52503  17.146  22.034   3.700
80244W        W52504   9.334   4.858  11.611
80245W        W52505  13.712   9.722  13.982
80246W        W52506  26.652  17.633  13.858
80247W        W52507  24.641  10.158  11.083
80248W        W52508  29.548  22.671  10.636
80249W        W52509   4.385  17.712   4.114
80250W        W52510  27.025  29.068  14.312
80251W        W52511   6.772   9.354  11.898
80252W        W52512   5.844  20.215  10.407
80253W        W52513  25.701  20.085  14.793
80254W        W52514   9.739  12.701   4.165
80255W        W52515   6.831  29.546  10.149
80256W        W52516  10.835  24.704   3.251
80257W        W52517  14.668  32.125  11.126
80258W        W52518  13.311  14.191   2.329
80259W        W52519  17.613  31.550  11.096
80260W        W52520  38.037  43.917  12.569
80261W        W52521  41.976  23.094   4.713
80262W        W52522  23.694  31.514   1.812
80263W        W52523  44.344  30.051   3.302
80264W        W52524  13.739  10.261   0.840
80265W        W52525  29.557  16.185   3.199
80266W        W52526  36.889  35.387   2.722
80267W        W52527  24.014   0.396   4.693
80268W        W52528  15.305  38.558  14.414
80269W        W52529  44.451  10.700  13.544
80270W        W52530   1.977  22.015  12.058
80271W        W52531  14.703  22.070  11.505
80272W        W52532  10.376  30.636  14.947
80273W        W52533  16.098  27.135  14.001
80274W        W52534  27.675  15.267   2.801
80275W        W52535  36.030  18.112  12.384
80276W        W52536  13.630  39.868  10.502
80277W        W52537   1.977  23.037   0.417
80278W        W52538   1.910  28.107  14.028
80279W        W52539  12.639  37.551  10.410
80280W        W52540  13.801  27.953  14.818
80281W        W52541  18.237  42.787   3.194
80282W        W52542  16.122   9.266  10.601
80283W        W52543  44.984   2.362  14.863
80284W        W52544  20.049  20.571  11.951
80285W        W52545  13.168  27.955   9.993
80286W        W52546  41.953  38.386   1.322
80287W        W52547  25.674  16.766  10.481
80288W        W52548   8.762  36.995   3.248
80289W        W52549   8.863  19.640   5.107
80290W        W52550  20.669   2.821  12.942
80291W        W52551  39.478  24.062  12.448
80292W        W52552  17.598  13.797  13.532
80293W        W52553  41.298  44.884  12.925
80294W        W52554  15.762   5.335   2.668
80295W        W52555  25.610  14.321  10.901
80296W        W52556  33.394  22.623   3.277
80297W        W52557  27.451   4.768   2.833
80298W        W52558  11.624  40.527  12.912
80299W        W52559   3.282  28.065  14.385
80300W        W52560   3.385  17.117  11.082
80301W        W52561   3.290  33.618  13.935
80302W        W52562  24.226  17.177  14.428
80303W        W52563   3.797  38.959  11.579
80304W        W52564  24.071   5.750   1.725
80305W        W52565  18.234   5.803   4.190
80306W        W52566  25.498   5.703  14.353
80307W        W52567   4.277  21.653  13.399
80308W        W52568  18.629  41.337  14.809
80309W        W52569  36.443   1.406  11.420
80310W        W52570  18.588  35.034   1.213
80311W        W52571  24.157   2.260  11.435
80312W        W52572  32.096  33.601   2.212
80313W        W52573   6.787  14.173  11.953
80314W        W52574  33.493  43.354  11.083
80315W        W52575  28.588  39.819  11.908
80316W        W52576  11.310  22.134  11.421
80317W        W52577  37.487  24.026  12.339
80318W        W52578  12.323  16.081   3.798
80319W        W52579  15.780  41.909   2.893
80320W        W52580  20.562   5.313  12.055
80321W        W52581   3.821  37.370  10.496
80322W        W52582  21.612  21.046   0.464
80323W        W52583  44.843  23.672   0.776
80324W        W52584  14.686  23.030  12.390
80325W        W52585  35.891  36.054  14.417
80326W        W52586  44.285   4.271  14.876
80327W        W52587   1.791  11.767  12.573
80328W        W52588  32.952  23.115   3.692
80329W        W52589  30.986  32.524   1.215
80330W        W52590  27.519  40.931   0.452
80331W        W52591  13.832  34.551  10.992
80332W        W52592   5.783  34.922  14.788
80333W        W52593  24.653  33.957  14.813
80334W        W52594  18.718  33.504  10.143
80335W        W52595  28.043  25.607  11.014
80336W        W52596  39.999  34.528  13.989
80337W        W52597  23.208   3.790   3.844
80338W        W52598  12.628  24.639   0.864
80339W        W52599  40.861   5.231   4.126
80340W        W52600   9.369  38.971  13.312
80341W        W52601  24.709  42.853  11.071
80342W        W52602  31.471  35.924   2.209
80343W        W52603   2.964  27.484   2.728
80344W        W52604  27.104   1.798   5.272
80345W        W52605  18.705  22.523   2.319
80346W        W52606   8.321  33.091  13.948
80347W        W52607  17.242  30.924   1.215
80348W        W52608  25.114  24.206   1.845
80349W        W52609  43.780  34.909   2.689
80350W        W52610   5.759  16.306   2.817
80351W        W52611  36.555   1.771   2.752
80352W        W52612  23.184   0.262  11.071
80353W        W52613   8.673  25.605  14.792
80354W        W52614  21.030   6.688   4.779
80355W        W52615   5.326  28.180   3.171
80356W        W52616  12.669   7.233   1.891
80357W        W52617  22.238   3.303   2.747
80358W        W52618  12.240  44.472  14.478
80359W        W52619  33.092  40.799   1.356
80360W        W52620  21.745  37.895  10.626
80361W        W52621  19.170   4.739  12.066
80362W        W52622   0.834  36.446   4.238
80363W        W52623  37.977  41.510   2.870
80364W        W52624  18.104  41.838  12.461
80365W        W52625  39.552  28.128   2.381
80366W        W52626  41.502  12.210   0.778
80367W        W52627  34.939  37.016  10.561
80368W        W52628   0.369  30.970   2.304
80369W        W52629   2.824  31.508   2.257
80370W        W52630  22.246  44.492   1.829
80371W        W52631  41.985  21.698   1.259
80372W        W52632  30.649  21.212  13.044
80373W        W52633  16.228  20.083   1.273
80374W        W52634   6.796  15.329  10.598
80375W        W52635   5.231  43.927   1.420
80376W        W52636  28.141   8.733   4.741
80377W        W52637  10.729   2.449  14.348
80378W        W52638  43.351  15.262  12.435
80379W        W52639   7.216  37.952  12.425
80380W        W52640   0.483   0.441   2.348
80381W        W52641  29.068  27.536  13.447
80382W        W52642  27.613  44.270  14.332
80383W        W52643  19.641  34.590   1.811
80384W        W52644  39.047  29.663  12.012
80385W        W52645  38.070  35.087  11.482
80386W        W52646  42.931   6.891   2.851
80387W        W52647  15.617   9.796   3.148
80388W        W52648  23.012   0.301  11.940
80389W        W52649  31.569  24.097  11.419
80390W        W52650  22.087  22.137   9.659
80391W        W52651  34.512   0.824   4.253
80392W        W52652  13.722  41.951  13.919
80393W        W52653  22.623  39.335   3.790
80394W        W52654  15.110  34.940   2.229
80395W        W52655   9.214  36.445  13.884
80396W        W52656   0.916  42.787   1.739
80397W        W52657  23.560  35.468  11.970
80398W        W52658  38.503  19.197  11.466
80399W        W52659   1.436  16.244  14.836
80400W        W52660  32.411  33.506   4.225
80401W        W52661  22.036  36.410   2.192
80402W        W52662  24.667  13.149   1.697
80403W        W52663  20.720  12.143  14.954
80404W        W52664  35.456  42.389   0.824
80405W        W52665  34.017  33.389  12.965
80406W        W52666   3.853   3.293   4.253
80407W        W52667  40.054  43.455   0.840
80408W        W52668  41.895  39.354   3.150
80409W        W52669  35.377  18.116   9.925
80410W        W52670   4.944  17.726  14.430
80411W        W52671   1.391  10.343   2.231
80412W        W52672   4.278  42.474   4.687
80413W        W52673  15.622  20.734   2.390
80414W        W52674  25.075  20.645  11.577
80415W        W52675  29.513  44.327  12.864
80416W        W52676  10.311  44.264   2.807
80417W        W52677  17.278  33.611   2.377
80418W        W52678  28.144   0.877   3.714
80419W        W52679   9.218  35.937   5.245
80420W        W52680   4.702  10.684   3.315
80421W        W52681  19.079   0.476   1.249
80422W        W52682  44.275  28.504  14.389
80423W        W52683   4.294  22.172   1.826
80424W        W52684  31.095  43.808   4.704
80425W        W52685  35.537   0.391   0.408
80426W        W52686  29.645  30.606  12.898
80427W        W52687  32.470  44.847   4.297
80428W        W52688  10.340  36.863  13.974
80429W        W52689  23.703   1.279  14.857
80430W        W52690  23.644  32.417  14.788
80431W        W52691   9.256   3.845   3.832
80432W        W52692  28.521  34.371   2.824
80433W        W52693  19.159  19.684   4.636
80434W        W52694   5.723   0.753  11.442
80435W        W52695   4.432  31.920  14.409
80436W        W52696  34.590   3.385  12.027
80437W        W52697  15.198  40.803  12.416
80438W        W52698  28.616   3.818  14.960
80439W        W52699  26.535   4.230   0.936
80440W        W52700  36.406  21.643   4.733
80441W        W52701   7.239  15.582  13.393
80442W        W52702  34.592  22.525  11.458
80443W        W52703   9.704  41.850  14.784
80444W        W52704  11.848  19.191  14.982
80445W        W52705  21.636  10.808   0.814
80446W        W52706  37.503  12.830   1.840
80447W        W52707  13.713  16.789   5.587
80448W        W52708  13.808  38.368   3.160
80449W        W52709  13.331  27.679  13.045
80450W        W52710  25.658  27.083   1.910
80451W        W52711   8.288  16.763   0.727
80452W        W52712  42.480   6.694   3.316
80453W        W52713  29.073  28.593  13.046
80454W        W52714   0.382  37.884   1.766
80455W        W52715  30.472  25.979  14.022
80456W        W52716   8.363  27.485   4.607
80457W        W52717  22.724  23.731   4.343
80458W        W52718  11.753   5.906  11.374
80459W        W52719  35.538  34.999   2.199
80460W        W52720  19.071  26.178  12.508
80461W        W52721  16.153  13.600  10.605
80462W        W52722  40.881  20.129  13.917
80463W        W52723  18.155  22.154   1.862
80464W        W52724  32.984  41.509   2.323
80465W        W52725  10.788   4.207   3.794
80466W        W52726  14.599  31.007  13.375
80467W        W52727  16.667   6.721   0.320
80468W        W52728   7.308   0.482   2.391
80469W        W52729  19.214  26.490   2.350
80470W        W52730  19.225  27.615   4.147
80471W        W52731  37.847  11.862  12.074
80472W        W52732  14.109  29.149   4.255
80473W        W52733  12.153  22.721  10.432
80474W        W52734  17.253  23.177  12.555
80475W        W52735  30.149   5.285   3.704
80476W        W52736  17.636   9.658  13.954
80477W        W52737   4.885  19.145   3.683
80478W        W52738  43.331  43.330  12.400
80479W        W52739  10.366  37.480   9.988
80480W        W52740   2.377  20.540   0.848
80481W        W52741  40.510  14.104  11.571
80482W        W52742  12.701   5.909  13.818
80483W        W52743   2.790  29.654  13.473
80484W        W52744  43.336  41.818  11.548
80485W        W52745  14.149  21.253  14.939
80486W        W52746  38.379   9.373  11.060
80487W        W52747  32.993   0.800  14.296
80488W        W52748   4.362  15.772  14.300
80489W        W52749  32.003   0.872  14.409
80490W        W52750  24.493  41.941  14.898
80491W        W52751  18.249  29.140  13.542
80492W        W52752  26.133  24.662   2.807
80493W        W52753  20.114   2.448  13.382
80494W        W52754  42.343   4.882  13.024
80495W        W52755  19.079  31.462   1.218
80496W        W52756  24.543  20.759   2.675
80497W        W52757   5.251  29.483  10.426
80498W        W52758  21.734   4.265   1.371
80499W        W52759  34.883  21.199  12.017
80500W        W52760  22.579  26.468   0.959
80501W        W52761   8.738  15.126  14.376
80502W        W52762  30.649  34.011   0.835
80503W        W52763  42.392   1.412  13.820
80504W        W52764  27.012   5.752   4.343
80505W        W52765   8.811  25.582  13.335
80506W        W52766  39.466  10.743  10.407
80507W        W52767  16.308  14.094   5.303
80508W        W52768  31.960  21.514  10.903
80509W        W52769  14.200  11.214  14.906
80510W        W52770  34.041  11.671   4.207
80511W        W52771   1.735  18.748   0.842
80512W        W52772  10.681  20.205  11.583
80513W        W52773  29.160  11.272  12.832
80514W        W52774  24.114  40.421   5.164
80515W        W52775  16.722   5.244   1.740
80516W        W52776  24.681   6.715  12.340
80517W        W52777  15.675  22.725   5.296
80518W        W52778  29.048  17.728   1.224
80519W        W52779  17.733  18.228  13.528
80520W        W52780  30.619  31.983   2.324
80521W        W52781  28.096  24.181  11.500
80522W        W52782  32.090   3.768  14.385
80523W        W52783   7.329  39.383   3.851
80524W        W52784   0.304  34.111  11.507
80525W        W52785  23.642  25.693  14.281
80526W        W52786  33.446  23.037  11.982
80527W        W52787  24.117  36.385  14.864
80528W        W52788   8.697  15.690  14.319
80529W        W52789  33.116  28.659  14.867
80530W        W52790  11.361  35.929  11.878
80531W        W52791  31.547   9.208   1.847
80532W        W52792  10.305  22.695  14.336
80533W        W52793  43.293  18.205   4.118
80534W        W52794  38.380   6.287  11.596
80535W        W52795  26.642  32.920   3.792
80536W        W52796  41.315  37.877  14.861
80537W        W52797  31.106   2.782  10.413
80538W        W52798  28.646  18.663   1.245
80539W        W52799  28.994  29.025   0.926
80540W        W52800  19.235  11.264  13.503
80541W        W52801  12.208  11.265  13.482
80542W        W52802  35.966   1.934  14.279
80543W        W52803  12.123  12.827   2.232
80544W        W52804  12.621  16.109   0.939
80545W        W52805  39.381  31.620   4.312
80546W        W52806  36.865  33.613  11.070
80547W        W52807  16.779  38.903   4.200
80548W        W52808  39.993  31.490   4.323
80549W        W52809  42.820  42.862  13.444
80550W        W52810  31.128  22.180   0.285
80551W        W52811   1.841   4.832   5.262
80552W        W52812  38.523  42.806  13.307
80553W        W52813  43.496  28.489  11.075
80554W        W52814  25.138  38.564  10.131
80555W        W52815  23.027  12.167   2.697
80556W        W52816  31.969  15.740  12.918
80557W        W52817  15.580  15.189   1.726
80558W        W52818  37.336  33.956  14.797
80559W        W52819  26.675  24.216   2.845
80560W        W52820  38.895  40.392   1.694
80561W        W52821  12.343   1.410  14.379
80562W        W52822  44.956  22.667  10.455
80563W        W52823  33.435   5.691   0.929
80564W        W52824  42.831  39.967  11.572
80565W        W52825  34.970  41.484   4.701
80566W        W52826  39.948  29.095   3.809
80567W        W52827   5.830  41.790  12.523
80568W        W52828   4.944  40.465  12.557
80569W        W52829  34.063  19.728   0.412
80570W        W52830   9.778   7.856  12.379
80571W        W52831  40.468   0.881  14.995
80572W        W52832  15.654  22.564   1.301
80573W        W52833  10.203  16.154  12.078
80574W        W52834  26.560   9.859   0.326
80575W        W52835  44.376  39.377   0.798
80576W        W52836  44.398  41.890  11.997
80577W        W52837   1.433  42.952  13.370
80578W        W52838  17.597   6.740  11.892
80579W        W52839   2.455  18.727  10.463
80580W        W52840  19.161   6.386   3.727
80581W        W52841   0.382  15.281   2.285
80582W        W52842  42.437  27.584  13.373
80583W        W52843  19.158   3.874  13.855
80584W        W52844  32.909  15.317   0.472
80585W        W52845  22.029   1.241  14.488
80586W        W52846  21.191  33.611   1.915
80587W        W52847   4.935  25.664   2.842
80588W        W52848  38.066  18.585   3.772
80589W        W52849  40.982  19.160   4.603
80590W        W52850  26.206  26.014   0.805
80591W        W52851  44.878  39.893   2.257
80592W        W52852  23.619  44.865   0.945
80593W        W52853   7.903   0.919   2.817
80594W        W52854  35.035  14.096  10.619
80595W        W52855   3.802  26.700  11.995
80596W        W52856  31.899  28.488   1.825
80597W        W52857   9.241  19.585  13.968
80598W        W52858  20.572   1.791  12.992
80599W        W52859   3.315  15.249   0.319
80600W        W52860  41.295  39.375   1.866
80601W        W52861  31.139   7.215   2.690
80602W        W52862   1.854  33.924  14.954
80603W        W52863   7.706  44.982  13.842
80604W        W52864  18.589  33.488   0.275
80605W        W52865  11.235  43.461   2.862
80606W        W52866  21.637   3.761  13.883
80607W        W52867  20.234  15.198  14.485
80608W        W52868  37.950  26.482   2.721
80609W        W52869  31.019  16.703  13.791
80610W        W52870  35.887  16.094   0.906
80611W        W52871  29.484  38.023   1.302
80612W        W52872  13.251   9.150  11.504
80613W        W52873  26.012  33.934  10.523
80614W        W52874  13.668   0.305  14.389
80615W        W52875  17.754   0.373   4.326
80616W        W52876  38.976  39.954  11.085
80617W        W52877  35.576  42.397   3.227
80618W        W52878  12.130   5.297  11.386
80619W        W52879  35.428  20.123   0.900
80620W        W52880  11.626  26.467   5.121
80621W        W52881   1.304  10.216   1.401
80622W        W52882  29.634  29.091   2.183
80623W        W52883   5.810  35.445  11.543
80624W        W52884  41.833   2.354  14.903
80625W        W52885  29.075  11.177   1.361
80626W        W52886   2.232   3.832  13.486
80627W        W52887  26.471  23.054   1.325
80628W        W52888  31.054  18.257  11.933
80629W        W52889  14.244  26.989  13.509
80630W        W52890  16.313  35.024  11.896
80631W        W52891   9.208   1.454   1.784
80632W        W52892   1.831  30.471   4.606
80633W        W52893  28.537  41.432   0.826
80634W        W52894  40.341   7.825  12.024
80635W        W52895  37.548  13.179   2.306
80636W        W52896  30.449   3.818  10.961
80637W        W52897   2.324  23.148  12.382
80638W        W52898  14.180  28.063  11.024
80639W        W52899  39.525  29.458  13.380
80640W        W52900  34.981  36.434  11.419
80641W        W52901  17.634  26.477   4.712
80642W        W52902  19.537  33.981  13.357
80643W        W52903   1.976  37.516  14.430
80644W        W52904  32.505  32.043   4.159
80645W        W52905  32.127  28.156   0.248
80646W        W52906  40.344  36.895   2.783
80647W        W52907  41.902  28.964  10.109
80648W        W52908   8.205  26.147   0.249
80649W        W52909  34.978  25.214  11.581
80650W        W52910  22.124  20.158   2.838
80651W        W52911   8.729   0.401  13.435
80652W        W52912  34.060   4.208  12.374
80653W        W52913  16.163  29.557   2.689
80654W        W52914  33.062  14.220  14.991
80655W        W52915  10.185   7.898  13.946
80656W        W52916  21.262  29.163  14.976
80657W        W52917  44.298  30.644   3.662
80658W        W52918  28.634  39.408   3.817
80659W        W52919  13.816  12.676   3.800
80660W        W52920  36.499   9.778  13.879
80661W        W52921  30.040  20.706  13.022
80662W        W52922  13.809  16.082   4.297
80663W        W52923  12.675   2.247   2.281
80664W        W52924  14.276   2.244  11.603
80665W        W52925  34.933  43.282   4.237
80666W        W52926  13.762  39.002   4.833
80667W        W52927  43.476   1.737  11.400
80668W        W52928  35.591  15.710  11.937
80669W        W52929  35.420  21.683  12.454
80670W        W52930  41.864  32.098   1.927
80671W        W52931  17.633  35.032   2.788
80672W        W52932  44.987  16.300   1.333
80673W        W52933  36.479  36.532  12.575
80674W        W52934   8.782  29.032  12.529
80675W        W52935  32.035  27.172   2.399
80676W        W52936  28.965   9.757   0.882
80677W        W52937  41.470  33.407   0.365
80678W        W52938  35.883  19.276   4.766
80679W        W52939  19.663  13.768   1.380
80680W        W52940   0.433  34.385   2.359
80681W        W52941  43.928   1.843  10.595
80682W        W52942  32.583  32.040  12.517
80683W        W52943   5.691  17.616   3.230
80684W        W52944  34.405  39.456   2.311
80685W        W52945  42.848  19.142   0.882
80686W        W52946  11.742  23.641  14.396
80687W        W52947   0.403  41.867  11.492
80688W        W52948  22.723  17.670  13.486
80689W        W52949  13.304  11.180   3.373
80690W        W52950  34.574  21.115   0.302
80691W        W52951  26.488  28.014  11.978
80692W        W52952  11.799  43.892   1.904
80693W        W52953  25.603   1.875  13.835
80694W        W52954  44.797   7.267   1.283
80695W        W52955   9.657  38.928   4.731
80696W        W52956  31.016  14.816   4.774
80697W        W52957  39.018  29.138   3.281
80698W        W52958  31.153  17.588   2.820
80699W        W52959   7.723  33.560   4.714
80700W        W52960  14.161   1.944  14.817
80701W        W52961  22.727  11.747  12.455
80702W        W52962  27.971  21.121  11.435
80703W        W52963  21.576  24.181   0.342
80704W        W52964  22.066  23.159  12.365
80705W        W52965   2.796   0.412  14.336
80706W        W52966  19.266  29.557   3.200
80707W        W52967  34.423  43.868   1.847
80708W        W52968   8.160  24.104  14.491
80709W        W52969  21.180   7.200  12.470
80710W        W52970  42.023   1.373  11.002
80711W        W52971  22.530  29.129   5.270
80712W        W52972   9.337   9.795   2.327
80713W        W52973  25.496  41.385  12.867
80714W        W52974  12.772   0.406   3.861
80715W        W52975  25.962   4.934   3.849
80716W        W52976  10.866  20.045   1.343
80717W        W52977  22.166  20.168   1.297
80718W        W52978   9.734  18.601  10.998
80719W        W52979  22.186  38.395  10.582
80720W        W52980  37.421   4.337   0.408
80721W        W52981  40.940  31.942  11.124
80722W        W52982  41.332   5.268   2.374
80723W        W52983  37.356  21.626   1.416
80724W        W52984  26.011  18.636   1.830
80725W        W52985  36.350  33.617  14.826
80726W        W52986  35.386   7.239   1.797
80727W        W52987   9.680   3.339  13.924
80728W        W52988  15.207  38.387   1.444
80729W        W52989  23.602   0.863  14.804
80730W        W52990  28.172   2.859   0.823
80731W        W52991  29.094  38.381  14.358
80732W        W52992  29.126  39.965   2.890
80733W        W52993  42.979  31.924   2.268
80734W        W52994  28.036   1.823   4.655
80735W        W52995   9.799   7.669  12.904
80736W        W52996  17.689  22.129  13.979
80737W        W52997  24.641  35.110   2.716
80738W        W52998  13.289  39.530   4.336
80739W        W52999  14.282  27.954  10.474
80740W        W53000  22.207   6.776  11.126
80741W        W53001  27.127   3.800  14.016
80742W        W53002   5.840  28.173  11.076
80743W        W53003  28.985   2.949  14.834
80744W        W53004  41.831   1.765   3.216
80745W        W53005   9.728  26.969   1.809
80746W        W53006  38.493   0.934   1.747
80747W        W53007   8.203  26.042  12.466
80748W        W53008  20.758  29.171  14.002
80749W        W53009  38.381  32.944   4.664
80750W        W53010  30.643  38.380  11.931
80751W        W53011  43.967  20.602  11.955
80752W        W53012  24.684  39.911  14.509
80753W        W53013  23.117  40.819  11.031
80754W        W53014  37.072   9.321  10.461
80755W        W53015  19.282  18.716   2.812
80756W        W53016  27.116  44.791   2.257
80757W        W53017   1.319  13.327   0.750
80758W        W53018  22.037   8.348   1.880
80759W        W53019  20.769  39.990   0.757
80760W        W53020  32.049   3.282  13.796
80761W        W53021   5.724  42.975   2.374
80762W        W53022  33.572  30.648  11.556
80763W        W53023  30.108  19.738   2.783
80764W        W53024  42.778  32.949   1.801
80765W        W53025  30.134  35.499  13.429
80766W        W53026  22.586  20.216   4.252
80767W        W53027  12.302  24.005  14.394
80768W        W53028  20.038  27.569   1.731
80769W        W53029  17.689   2.919  10.606
80770W        W53030  33.109  20.095  12.498
80771W        W53031  23.513  37.427  14.488
80772W        W53032  19.694   6.212  10.921
80773W        W53033  44.454  44.924  10.530
80774W        W53034  17.561  16.222   0.346
80775W        W53035   0.289   3.762  11.929
80776W        W53036  35.388  37.025  14.796
80777W        W53037  26.102  10.635   3.646
80778W        W53038   0.975   6.688   4.705
80779W        W53039  24.111  37.842  11.032
80780W        W53040   1.784  36.442  12.387
80781W        W53041  26.205  16.238   2.252
80782W        W53042  25.581  27.627   2.690
80783W        W53043   9.203  37.925  11.965
80784W        W53044  13.194   2.808   0.420
80785W        W53045   9.739  17.238  12.998
80786W        W53046   8.243   0.899   1.432
80787W        W53047  40.329  20.547  11.964
80788W        W53048  31.429  21.694   4.336
80789W        W53049  21.745  42.336   1.285
80790W        W53050  10.219  41.538   2.678
80791W        W53051  12.165  16.778  13.889
80792W        W53052  21.534  15.585   3.642
80793W        W53053  40.988  42.810   4.288
80794W        W53054  42.293   6.679   4.808
80795W        W53055  22.031  33.104   1.720
80796W        W53056  10.709  39.377   4.116
80797W        W53057  40.530  34.571  11.990
80798W        W53058  36.428  29.102   4.258
80799W        W53059  27.077  29.094   1.862
80800W        W53060   2.246  23.147   4.270
80801W        W53061  30.911  29.612   3.279
80802W        W53062  12.765  30.626   2.671
80803W        W53063  19.165  18.686   4.187
80804W        W53064  38.916  31.442   9.999
80805W        W53065   7.245  31.132  11.426
80806W        W53066   5.273  10.768  11.096
80807W        W53067  29.493  24.503   3.682
80808W        W53068  29.603  44.815  10.500
80809W        W53069  19.144   5.332  11.578
80810W        W53070  25.987  12.845  14.977
80811W        W53071  24.990  12.148   2.403
80812W        W53072  38.983  36.381  10.119
80813W        W53073  14.660  27.994  10.924
80814W        W53074  27.954  19.121   3.734
80815W        W53075  29.984  43.856  13.376
80816W        W53076  18.070  22.607  12.047
80817W        W53077   7.718  28.100   2.740
80818W        W53078  44.802  27.020  13.439
80819W        W53079   3.821  34.048  14.957
80820W        W53080   4.379  29.491   2.819
80821W        W53081  10.342  19.267   0.370
80822W        W53082  15.285  13.340  10.922
80823W        W53083  24.174  44.768   3.222
80824W        W53084  11.340   2.806   1.832
80825W        W53085   9.279  44.771  14.928
80826W        W53086  27.062  37.440   0.433
80827W        W53087  31.569  19.258   3.666
80828W        W53088  14.688  18.644  13.859
80829W        W53089  39.006  13.314  14.285
80830W        W53090   4.826   8.359   5.234
80831W        W53091  17.671  35.872   1.430
80832W        W53092  37.531   9.203   1.354
80833W        W53093  17.105   2.720   2.266
80834W        W53094  15.152  24.114  10.941
80835W        W53095   9.819  21.732   1.811
80836W        W53096  33.875   9.755   2.730
80837W        W53097  32.024  22.206   3.746
80838W        W53098   6.782   0.953  12.408
80839W        W53099  30.009  18.672  10.621
80840W        W53100  44.279  39.031   1.857
80841W        W53101  32.396   7.418  14.331
80842W        W53102  19.588   9.272   3.218
80843W        W53103  14.698  14.815   4.701
80844W        W53104  38.825  19.080  11.602
80845W        W53105  18.707  22.025   0.336
80846W        W53106   2.765   1.465   2.702
80847W        W53107  31.634  43.422   2.306
80848W        W53108  28.073  35.866   1.404
80849W        W53109  42.936  34.572  14.921
80850W        W53110  14.144  30.643   3.206
80851W        W53111  23.724  22.622  14.774
80852W        W53112  32.020  42.928  10.556
80853W        W53113  28.052  30.036   3.838
80854W        W53114  32.570  35.889   1.257
80855W        W53115  16.276   5.739   2.833
80856W        W53116  37.465  32.633   3.301
80857W        W53117  43.492   2.257   0.939
80858W        W53118  20.541  19.242  13.054
80859W        W53119   8.829  26.591  12.538
80860W        W53120   3.738  21.090   4.163
80861W        W53121  43.009  25.149  12.091
80862W        W53122  28.591   5.262   2.225
80863W        W53123  21.109  19.633   4.345
80864W        W53124  20.619  11.163   2.781
80865W        W53125  44.814  30.471  10.547
80866W        W53126   7.797  33.117  13.995
80867W        W53127  14.777  42.802  11.048
80868W        W53128  15.783  32.458   2.346
80869W        W53129  10.850  17.175  11.009
80870W        W53130  21.703  21.175  14.854
80871W        W53131  19.541  40.973   0.276
80872W        W53132   1.483  11.713   1.389
80873W        W53133  29.111  10.744   2.409
80874W        W53134  22.069  24.689   0.844
80875W        W53135  32.032  34.525  14.959
80876W        W53136  23.678  14.699  11.586
80877W        W53137   6.850  30.438  13.489
80878W        W53138  40.450  24.168  13.419
80879W        W53139   5.257  36.956  10.896
80880W        W53140  38.368  18.579  14.782
80881W        W53141  19.176  31.982   1.395
80882W        W53142  20.209  24.479   2.759
80883W        W53143  30.135  30.037  12.343
80884W        W53144  16.670  40.311  14.481
80885W        W53145  44.378  44.378  13.393
80886W        W53146  16.090   3.850  12.356
80887W        W53147  39.422  23.043   1.889
80888W        W53148  11.158  38.890   0.348
80889W        W53149  24.568  30.488  14.915
80890W        W53150   2.251   1.239   1.816
80891W        W53151  41.802  28.580   0.465
80892W        W53152  25.201  38.976   1.314
80893W        W53153  24.046  11.646  13.873
80894W        W53154  42.421  29.102  12.359
80895W        W53155  17.267  44.371   4.824
80896W        W53156  10.652   1.802   3.719
80897W        W53157  18.644  29.075   1.737
80898W        W53158  22.048  23.172  14.504
80899W        W53159  27.942  35.542  12.967
80900W        W53160   2.829  42.510   4.780
80901W        W53161  23.586  27.100   4.342
80902W        W53162  32.422   5.284   4.353
80903W        W53163  18.072  27.013   0.866
80904W        W53164  10.282  41.472   3.208
80905W        W53165  26.616  34.373  14.354
80906W        W53166   9.778  29.644  11.384
80907W        W53167   7.324   0.306  11.007
80908W        W53168  33.579  36.928   0.841
80909W        W53169  26.678  26.203  13.415
80910W        W53170   4.397  34.390  12.024
80911W        W53171   1.904  12.195   2.808
80912W        W53172   7.734   5.287  10.623
80913W        W53173   7.332  43.312   1.373
80914W        W53174  40.813   8.796   0.279
80915W        W53175  13.327   7.226  10.941
80916W        W53176   9.735  38.983   2.870
80917W        W53177  37.037  20.220  12.885
80918W        W53178  11.342  26.501  12.505
80919W        W53179  25.481  38.564  13.365
80920W        W53180  20.697   8.319   1.391
80921W        W53181  43.377  27.186   3.245
80922W        W53182  23.546  10.817  10.414
80923W        W53183  40.991  14.210   0.889
80924W        W53184  44.868  26.173   1.431
80925W        W53185  43.964  37.576   2.287
80926W        W53186   5.284   3.386  13.001
80927W        W53187  19.652   3.372  14.423
80928W        W53188  30.935  17.635  13.464
80929W        W53189  43.441  11.641  10.990
80930W        W53190  19.602  13.799   1.832
80931W        W53191   3.751  43.956  13.830
80932W        W53192  13.229   2.264  12.429
80933W        W53193  37.071  43.948  14.484
80934W        W53194   7.279  21.608   3.284
80935W        W53195  14.751  29.615   5.782
80936W        W53196  19.052  43.994  11.404
80937W        W53197   5.258  20.575  13.850
80938W        W53198   4.267  44.419   4.315
80939W        W53199  27.095  31.000  10.951
80940W        W53200  44.846   8.236   3.705
80941W        W53201  10.238  43.447   4.158
80942W        W53202  33.526   2.413   2.720
80943W        W53203  30.944  20.127  13.457
80944W        W53204  38.836  42.427   0.728
80945W        W53205  25.041  30.129   4.234
80946W        W53206   7.870  35.058   0.395
80947W        W53207   3.852  31.000   1.386
80948W        W53208   8.847  41.359   4.747
80949W        W53209  37.337  28.137  14.814
80950W        W53210  15.309   7.206  14.414
80951W        W53211  33.044   2.764  13.907
80952W        W53212  12.668  25.050  13.358
80953W        W53213   7.220   9.200   4.818
80954W        W53214  38.537  14.818  12.378
80955W        W53215  28.506  12.698   1.705
80956W        W53216  37.848  23.143  14.768
80957W        W53217  34.065  16.668  11.047
80958W        W53218   1.398  40.326  11.492
80959W        W53219   9.778  26.120   3.361
80960W        W53220  12.290  25.597  13.460
80961W        W53221  29.476  24.006  14.286
80962W        W53222   5.808  21.592  11.097
80963W        W53223  22.059  26.677   5.225
80964W        W53224  18.667  14.320  14.470
80965W        W53225  23.216  44.320  11.857
80966W        W53226   9.740  37.008   1.280
80967W        W53227  33.410  22.538   4.208
80968W        W53228   5.385  27.500  12.903
80969W        W53229  24.141  24.997  14.951
80970W        W53230  36.537   7.729   1.264
80971W        W53231   5.371  40.971   0.778
80972W        W53232  29.426  13.655  13.008
80973W        W53233  35.368  14.331  14.361
80974W        W53234  13.133  12.161   1.719
80975W        W53235   1.959  24.719  12.896
80976W        W53236   2.739   1.261   3.705
80977W        W53237  15.271  23.112   1.396
80978W        W53238  40.512  36.071   1.729
80979W        W53239  38.829   0.752  12.527
80980W        W53240   1.417   8.892  11.419
80981W        W53241   6.716  29.517   1.390
80982W        W53242  27.032  37.987   3.297
80983W        W53243  43.511   3.433   4.218
80984W        W53244  13.290   3.891   2.737
80985W        W53245  42.304  23.608   1.713
80986W        W53246  30.025  14.797  11.401
80987W        W53247  17.794  33.422  14.364
80988W        W53248  43.941   3.821  12.921
80989W        W53249  30.548  14.171  13.046
80990W        W53250  11.650   4.926  14.367
80991W        W53251  30.113  28.667  12.925
80992W        W53252  22.502   3.268   3.796
80993W        W53253  31.083  10.712  12.576
80994W        W53254   1.401  19.647  10.409
80995W        W53255  17.595  20.643  11.074
80996W        W53256   1.923   0.815  11.391
80997W        W53257  19.080  29.948   3.720
80998W        W53258  39.055  23.592   1.875
80999W        W53259   1.426  42.804  14.991
81000W        W53260  34.461  17.593   1.315
81001W        W53261   8.360  21.101   2.281
81002W        W53262   0.472  43.368   3.775
81003W        W53263  23.228   0.381  11.600
81004W        W53264   0.387  43.825   1.339
81005W        W53265  21.660   1.843  14.020
81006W        W53266  36.414  40.989  10.973
81007W        W53267  36.577  12.292   2.238
81008W        W53268  30.005   5.731  14.943
81009W        W53269  16.679  22.078  13.382
81010W        W53270  27.585  31.932   4.133
81011W        W53271  17.577  30.602  11.090
81012W        W53272  41.533  24.198   3.276
81013W        W53273  10.268  24.049  13.463
81014W        W53274  40.815   6.884  11.962
81015W        W53275   6.397  43.794   4.323
81016W        W53276  30.113  28.636   1.925
81017W        W53277  25.692   9.364  13.487
81018W        W53278  13.705  43.899   4.196
81019W        W53279   4.882  10.724  12.985
81020W        W53280  17.307  27.151   2.787
81021W        W53281  13.164   9.273  12.562
81022W        W53282  24.170  31.104   2.318
81023W        W53283   3.330   5.755  14.977
81024W        W53284  29.535  24.222  11.379
81025W        W53285  19.250  35.579   3.329
81026W        W53286  15.125  20.694  11.472
81027W        W53287  31.102  27.503  13.533
81028W        W53288  21.238  18.757   3.864
81029W        W53289  28.063  21.138  13.413
81030W        W53290   3.387  18.765   1.935
81031W        W53291   5.715  30.143   1.700
81032W        W53292   9.878   2.848  13.429
81033W        W53293  33.076  36.966   2.748
81034W        W53294  12.617  43.977   0.903
81035W        W53295  24.718  34.069   0.869
81036W        W53296  21.150   3.819  11.515
81037W        W53297   6.293  31.903   3.692
81038W        W53298  41.803  22.640   4.742
81039W        W53299   9.688  13.183  12.887
81040W        W53300  25.520   5.919   3.660
81041W        W53301   0.482   8.802  10.641
81042W        W53302  12.653   4.296   2.392
81043W        W53303  21.729  31.056   4.828
81044W        W53304   9.842  24.607   0.738
81045W        W53305   4.395   0.840   2.845
81046W        W53306  41.946  27.592  14.787
81047W        W53307   8.783   6.708   3.696
81048W        W53308   7.280  14.626   2.297
81049W        W53309   0.807   7.197  12.024
81050W        W53310   2.744  42.500  13.433
81051W        W53311  38.838  17.292   0.812
81052W        W53312  36.987  18.123  12.829
81053W        W53313  22.229  25.053  11.943
81054W        W53314  10.256  38.974   3.718
81055W        W53315  27.007   1.865   0.469
81056W        W53316   9.303  41.409  14.476
81057W        W53317   3.293  13.340   3.660
81058W        W53318  34.921  26.202   0.815
81059W        W53319  18.699  14.662   3.773
81060W        W53320   4.766  30.122   3.795
81061W        W53321  14.174  20.207   0.303
81062W        W53322   2.734  33.437  12.920
81063W        W53323   7.705  44.980  14.821
81064W        W53324  31.473  24.068   3.284
81065W        W53325   6.279  44.767   0.431
81066W        W53326  32.635  23.102   3.276
81067W        W53327  31.054  35.889  14.313
81068W        W53328  39.829  27.461   3.304
81069W        W53329  30.005  29.609   4.706
81070W        W53330   7.262   1.760   0.390
81071W        W53331  17.624  41.409   0.938
81072W        W53332  19.586   4.427   0.888
81073W        W53333  40.931  33.423  14.364
81074W        W53334  43.941  34.496  14.987
81075W        W53335  28.494  24.723  12.343
81076W        W53336  43.012  19.240   1.448
81077W        W53337  36.569   9.316   4.787
81078W        W53338  25.060  13.690   2.683
81079W        W53339   0.418  36.504   2.719
81080W        W53340  23.573   6.758   1.877
81081W        W53341  35.003  29.940  14.468
81082W        W53342   3.817   5.315   2.772
81083W        W53343  38.391  36.852  12.863
81084W        W53344  26.540  29.166  13.498
81085W        W53345  34.434  39.460  12.514
81086W        W53346  44.920  11.161  10.509
81087W        W53347  12.692  43.893   3.328
81088W        W53348  22.700  11.152   1.427
81089W        W53349   8.805   6.418  14.287
81090W        W53350  16.667  33.089  12.014
81091W        W53351   2.334  35.543  13.843
81092W        W53352  22.708  15.733  13.966
81093W        W53353  15.589  23.573  13.364
81094W        W53354   6.697  19.595  10.898
81095W        W53355  30.915   7.846  13.987
81096W        W53356  41.834  42.954  11.988
81097W        W53357  31.050  38.393  11.884
81098W        W53358  23.681  29.505   3.630
81099W        W53359  24.129  25.630   2.358
81100W        W53360  36.053  36.069  12.385
81101W        W53361  32.529  32.972   2.351
81102W        W53362  30.056  15.822   0.478
81103W        W53363  34.109  43.901   2.771
81104W        W53364  18.564   6.213  14.388
81105W        W53365  35.853  38.893   2.754
81106W        W53366  40.815  13.251  14.473
81107W        W53367  23.678  27.947   5.186
81108W        W53368   1.274  38.412   3.342
81109W        W53369  26.166  44.893  11.070
81110W        W53370  40.444  15.800   3.668
81111W        W53371  28.148  25.049   3.377
81112W        W53372  39.493   1.954   0.966
81113W        W53373   8.830  21.674   3.248
81114W        W53374   9.743  11.659  14.366
81115W        W53375  27.456  36.858  12.436
81116W        W53376  21.229  21.176   1.882
81117W        W53377  33.050   5.224  11.911
81118W        W53378  40.337  11.306  13.009
81119W        W53379   3.246   3.789   3.169
81120W        W53380  42.787  19.602  14.926
81121W        W53381  30.518  44.785   0.431
81122W        W53382  26.990  34.964  12.410
81123W        W53383  13.313  29.466  12.517
81124W        W53384  26.703  39.977  10.970
81125W        W53385  35.495  31.523   4.305
81126W        W53386  44.996  13.711   3.315
81127W        W53387   5.385  15.320  14.476
81128W        W53388  16.568  22.723  10.596
81129W        W53389  20.745  43.461   2.414
81130W        W53390  18.252  41.808  11.058
81131W        W53391   0.298  17.209   4.786
81132W        W53392  43.933  25.488   0.280
81133W        W53393  42.418  31.451   4.601
81134W        W53394  11.225  22.047   0.773
81135W        W53395   6.363  15.634  13.448
81136W        W53396   0.959   1.466   4.327
81137W        W53397  14.201  17.579  11.009
81138W        W53398  29.921  10.729  14.341
81139W        W53399   1.240  37.880   3.293
81140W        W53400  25.974  44.387   0.849
81141W        W53401  35.933  41.952  10.915
81142W        W53402  11.157   0.805  12.093
81143W        W53403  27.576  42.822   1.918
81144W        W53404  19.221   4.383   2.776
81145W        W53405  16.800  33.025  10.644
81146W        W53406  34.024  31.465  13.855
81147W        W53407  20.146  14.244  14.811
81148W        W53408   3.344  15.776  11.002
81149W        W53409  39.963   7.775  14.363
81150W        W53410  44.323  32.966   1.356
81151W        W53411  28.063  26.994   3.827
81152W        W53412   3.416  36.513  10.551
81153W        W53413  25.662  13.278   1.235
81154W        W53414  17.767  37.337  12.410
81155W        W53415  15.732  30.935   4.683
81156W        W53416  16.611  39.911  13.899
81157W        W53417   2.829  18.626   3.840
81158W        W53418  39.995  31.625  11.538
81159W        W53419  35.008  14.750   4.746
81160W        W53420  29.510  35.910   2.230
81161W        W53421  16.714  37.987   0.808
81162W        W53422  40.882  27.577  10.490
81163W        W53423  18.104  35.436   4.711
81164W        W53424  44.369  30.581   2.259
81165W        W53425  18.604   7.774   1.788
81166W        W53426   5.275  19.268  13.048
81167W        W53427  31.586  20.136   3.290
81168W        W53428  21.125  20.554   4.599
81169W        W53429  23.648  38.364   2.757
81170W        W53430   6.256  31.061  10.943
81171W        W53431   9.236  19.645  14.435
81172W        W53432  44.781  40.359   2.665
81173W        W53433  38.905  22.556   3.210
81174W        W53434  24.213  23.499  14.426
81175W        W53435  19.128  44.466  11.940
81176W        W53436   9.700  28.975  13.456
81177W        W53437  40.399   8.682   2.789
81178W        W53438  10.754  37.891   1.851
81179W        W53439  30.628  29.993   9.948
81180W        W53440  37.913  16.617  11.525
81181W        W53441  36.049  25.013   3.726
81182W        W53442  43.912  33.086  11.416
81183W        W53443  14.815  40.051  11.409
81184W        W53444  36.977  18.094   0.877
81185W        W53445  43.396   1.384   4.622
81186W        W53446  29.116   7.241  10.913
81187W        W53447  35.069  29.128  14.813
81188W        W53448   3.823  12.819  11.127
81189W        W53449  35.902  24.009   1.843
81190W        W53450   7.397  29.447   2.742
81191W        W53451  13.257   1.964  10.506
81192W        W53452  28.125  32.973  14.402
81193W        W53453  38.518  32.501   4.606
81194W        W53454  33.527  26.678  12.455
81195W        W53455  41.473   7.776   2.226
81196W        W53456   1.378  10.694   2.237
81197W        W53457   8.726  34.562   2.202
81198W        W53458  38.974  29.018   3.657
81199W        W53459  26.635  12.293  10.581
81200W        W53460  26.595  10.349  11.900
81201W        W53461  17.791  21.560  11.917
81202W        W53462  21.516  18.654  13.028
81203W        W53463  26.055  33.475  12.057
81204W        W53464  11.320  11.202   3.342
81205W        W53465  33.609  40.978  11.406
81206W        W53466  35.889  11.734   3.260
81207W        W53467  13.717  16.262  14.849
81208W        W53468  13.806   5.916   4.740
81209W        W53469  44.305  27.083   3.815
81210W        W53470  39.391  13.271  14.903
81211W        W53471  26.472   4.287   0.360
81212W        W53472  16.691  24.525   0.441
81213W        W53473  43.336  33.050   3.237
81214W        W53474  37.961  26.045   4.349
81215W        W53475  40.989   8.376   0.460
81216W        W53476   2.394  18.279   2.895
81217W        W53477  25.132   7.260  14.860
81218W        W53478  36.928  39.025  12.840
81219W        W53479  25.604   6.225  11.885
81220W        W53480  25.164  10.374   3.203
81221W        W53481   1.752  31.524  10.456
81222W        W53482  15.302  38.973   3.262
81223W        W53483   0.395  26.641  10.435
81224W        W53484  13.276  30.006  10.413
81225W        W53485  42.896   5.891   1.917
81226W        W53486  15.110  36.944   4.657
81227W        W53487  40.874  33.016  12.430
81228W        W53488  33.582  13.668  13.438
81229W        W53489   5.728  19.069  11.547
81230W        W53490   3.808   4.774   2.342
81231W        W53491  33.428  15.188   3.783
81232W        W53492   2.338  15.265   2.207
81233W        W53493   3.869  36.928   3.859
81234W        W53494  28.475  20.161  14.970
81235W        W53495  32.487  18.271   0.967
81236W        W53496  28.042  30.536  11.592
81237W        W53497  12.340  15.101  10.527
81238W        W53498  21.673  31.403   3.272
81239W        W53499  11.171  40.892  10.546
81240W        W53500  26.061   1.318   0.317
81241W        W53501  39.840  40.815  11.888
81242W        W53502  34.374   2.735  14.485
81243W        W53503  13.807  28.482   2.209
81244W        W53504  43.309   7.380  14.883
81245W        W53505  30.072   6.342  13.414
81246W        W53506  24.673  13.193   4.688
81247W        W53507  16.292  33.515  13.816
81248W        W53508  34.088   2.779   1.834
81249W        W53509   7.748  27.182   4.256
81250W        W53510  19.686   5.724  12.352
81251W        W53511  41.812  34.000  12.965
81252W        W53512  17.172  37.511   0.436
81253W        W53513   5.802  33.612  12.522
81254W        W53514  23.521  24.085   0.851
81255W        W53515  10.681   8.859   2.404
81256W        W53516  40.968  15.734   2.248
81257W        W53517  37.526  23.017   3.270
81258W        W53518  39.398  18.741  11.029
81259W        W53519  17.207  24.043   0.887
81260W        W53520  21.262  31.971   4.808
81261W        W53521  33.936  13.204   0.382
81262W        W53522  16.273  26.037  14.399
81263W        W53523  40.839  12.317  13.793
81264W        W53524   9.688  16.096  10.995
81265W        W53525  17.731  33.919  12.042
81266W        W53526  16.598  36.887  13.899
81267W        W53527  41.403  35.463   0.249
81268W        W53528  16.268   4.383   3.697
81269W        W53529   6.689   1.265   3.226
81270W        W53530   2.377   9.792   1.758
81271W        W53531  18.112  37.528   0.289
81272W        W53532  41.395  14.620   2.884
81273W        W53533  20.118  34.580  10.031
81274W        W53534   1.954  32.630  13.481
81275W        W53535  42.286  20.605   4.267
81276W        W53536  23.092  25.978   1.380
81277W        W53537  34.984   6.426   3.643
81278W        W53538   7.674   8.811   4.805
81279W        W53539  37.976  44.374  10.064
81280W        W53540  41.017  10.219   1.784
81281W        W53541   1.363  27.066   1.297
81282W        W53542  34.055  27.162  13.859
81283W        W53543  17.088   1.426  11.571
81284W        W53544   1.478   4.399   2.258
81285W        W53545   9.760  35.897  12.451
81286W        W53546   4.418  41.535   0.965
81287W        W53547  42.990  31.127  13.941
81288W        W53548  33.051   7.907  12.054
81289W        W53549  24.492  29.494   4.822
81290W        W53550  32.981   5.308  12.887
81291W        W53551  11.673  38.874  12.000
81292W        W53552  44.330  38.568   3.148
81293W        W53553  43.815  23.051  12.002
81294W        W53554  36.025   0.749   1.308
81295W        W53555   5.303  32.559   2.330
81296W        W53556   8.755  12.223   1.703
81297W        W53557  27.500   5.245   4.274
81298W        W53558  18.259   9.322  10.430
81299W        W53559  35.554  43.353  12.885
81300W        W53560  27.095   2.956  10.566
81301W        W53561  15.207  19.761   0.269
81302W        W53562  15.173  24.664  14.291
81303W        W53563   7.414   5.355   1.215
81304W        W53564   3.898  19.701   0.291
81305W        W53565  13.342  34.100   0.466
81306W        W53566  24.974   6.719   2.201
81307W        W53567   3.835  29.141   3.853
81308W        W53568  43.417  12.616   1.448
81309W        W53569  32.133   7.867  14.769
81310W        W53570  15.087  43.908  11.903
81311W        W53571  41.904  26.633   3.784
81312W        W53572  30.108  36.886   0.411
81313W        W53573  11.243  37.056   3.149
81314W        W53574  26.006  33.453   2.266
81315W        W53575   7.323  14.159  10.935
81316W        W53576  39.518  23.223  14.374
81317W        W53577  13.311  38.396   2.771
81318W        W53578  20.729  22.252  13.310
81319W        W53579   2.826  15.285   0.469
81320W        W53580  35.469  34.905   0.367
81321W        W53581  36.888  12.198   4.809
81322W        W53582  42.916   2.779   4.767
81323W        W53583  16.799  19.248   0.859
81324W        W53584  21.604  23.994  14.471
81325W        W53585  15.209  15.817   0.902
81326W        W53586   1.300  14.296   5.220
81327W        W53587  31.902  13.639   4.337
81328W        W53588  25.187  39.466  13.020
81329W        W53589  15.181  21.579   1.448
81330W        W53590  21.704  26.030  14.964
81331W        W53591  33.923  23.491   1.248
81332W        W53592  41.438  13.726   2.731
81333W        W53593   8.815  39.945  13.793
81334W        W53594  34.946   0.915  10.619
81335W        W53595  16.116  10.250  10.629
81336W        W53596  29.441   5.789   4.338
81337W        W53597  31.509  17.713   4.274
81338W        W53598   7.865  28.504  10.481
81339W        W53599   1.355  26.180   3.783
81340W        W53600  22.588  22.740   4.834
81341W        W53601  43.840  43.282   2.775
81342W        W53602   7.767  44.777   4.603
81343W        W53603  22.109  28.084   0.333
81344W        W53604  18.565  33.393   0.874
81345W        W53605  18.715  33.991   1.390
81346W        W53606  33.534  43.439  10.486
81347W        W53607  28.109  16.226   4.601
81348W        W53608   7.391  20.681   2.233
81349W        W53609  31.132  38.336  12.551
81350W        W53610  27.145   8.191  11.399
81351W        W53611  21.715   1.377   1.773
81352W        W53612  30.436  40.994   3.683
81353W        W53613  21.731  11.777  13.372
81354W        W53614  29.971  30.966   2.783
81355W        W53615  33.993  10.689  14.305
81356W        W53616  37.014  14.135   0.299
81357W        W53617  13.174  23.043   2.228
81358W        W53618  27.542  43.346  14.481
81359W        W53619   5.769  36.572  14.963
81360W        W53620  26.676  33.919   5.210
81361W        W53621  10.875  39.990  13.547
81362W        W53622  44.763  40.863   4.155
81363W        W53623   6.894  15.234  14.018
81364W        W53624   4.446   4.283   4.664
81365W        W53625   2.943  36.085   4.707
81366W        W53626  32.580   5.795  14.909
81367W        W53627  27.524  10.351  11.871
81368W        W53628   9.174   5.215   1.760
81369W        W53629   2.720  30.587   4.170
81370W        W53630   0.875  44.405   0.916
81371W        W53631  11.706  25.047   3.658
81372W        W53632   3.269  22.731  11.950
81373W        W53633   5.794  21.513  13.821
81374W        W53634  28.494   0.468   2.285
81375W        W53635  43.773   5.197   4.707
81376W        W53636  37.950   0.294   4.674
81377W        W53637  15.627   7.858   4.316
81378W        W53638  14.622  31.083  14.954
81379W        W53639  15.195  13.779   5.111
81380W        W53640   9.655  35.876   0.753
81381W        W53641  31.101  25.703   4.768
81382W        W53642  25.150  13.617  10.454
81383W        W53643  35.604   0.429  13.370
81384W        W53644  36.988   0.864   0.395
81385W        W53645  18.698  16.741  14.017
81386W        W53646  21.181  27.953  10.955
81387W        W53647  12.832  34.431  13.055
81388W        W53648  39.476  37.970   0.910
81389W        W53649  15.092  27.183  11.094
81390W        W53650  44.857   8.670  11.947
81391W        W53651  14.248  42.015   2.692
81392W        W53652   4.256   0.474   3.723
81393W        W53653  18.158  42.888  11.612
81394W        W53654  32.953  16.720  13.946
81395W        W53655  10.222  25.588   4.133
81396W        W53656   6.412   4.395   0.832
81397W        W53657   3.888  21.688   4.288
81398W        W53658  18.642  13.350  14.899
81399W        W53659  26.602  34.455  10.606
81400W        W53660   5.742  26.602  12.545
81401W        W53661  26.477  39.881   3.823
81402W        W53662  38.911  38.526  13.971
81403W        W53663  21.036  22.663  13.449
81404W        W53664  32.129   8.871   0.905
81405W        W53665   1.443  10.356   0.478
81406W        W53666  26.163  12.616   4.252
81407W        W53667  15.609  17.296  11.067
81408W        W53668  39.455  39.379   1.319
81409W        W53669  28.563  26.191  13.432
81410W        W53670  40.868   5.351  10.954
81411W        W53671   6.353   1.895   3.296
81412W        W53672  44.334  24.709   4.712
81413W        W53673   7.192  32.886  11.599
81414W        W53674  20.640  25.565  14.416
81415W        W53675   3.878  34.115  12.989
81416W        W53676  14.240  18.289   4.833
81417W        W53677  38.053   0.427   1.724
81418W        W53678   0.962  38.915   4.712
81419W        W53679  40.457  29.573  10.460
81420W        W53680  35.439  27.565   4.774
81421W        W53681  31.454   2.866   2.365
81422W        W53682  39.536  31.455   2.869
81423W        W53683  32.960  17.708   2.284
81424W        W53684  25.665  41.527   3.780
81425W        W53685  26.994  25.135   5.316
81426W        W53686  40.828  41.331   2.726
81427W        W53687  11.865  24.179  10.954
81428W        W53688  16.657   8.406   2.749
81429W        W53689  10.695  17.648  12.824
81430W        W53690  12.700   5.809   3.779
81431W        W53691   1.795   7.783   4.167
81432W        W53692  20.726   1.802   1.299
81433W        W53693  43.805  20.666  10.919
81434W        W53694  20.674  37.444  14.996
81435W        W53695  19.763  31.061   2.295
81436W        W53696   7.828   8.392  11.043
81437W        W53697  37.025  42.312  14.328
81438W        W53698   2.882  34.885  11.958
81439W        W53699  13.783  12.847  14.870
81440W        W53700  31.416  41.297   0.772
81441W        W53701  25.689  25.681   0.352
81442W        W53702   8.780  21.679  12.958
81443W        W53703  24.549  29.995  11.059
81444W        W53704   2.960  13.708   4.319
81445W        W53705  36.397   3.788   0.451
81446W        W53706  16.729  20.707   1.754
81447W        W53707  39.871   8.176  11.512
81448W        W53708  41.326   2.883   2.247
81449W        W53709  11.776  39.952   3.683
81450W        W53710  22.040  37.866  12.394
81451W        W53711  23.519  31.546   3.237
81452W        W53712  30.622  20.584  11.021
81453W        W53713  22.093  21.602  14.434
81454W        W53714  15.105  14.654   1.258
81455W        W53715  11.784  42.492  12.876
81456W        W53716  40.886  13.773   3.772
81457W        W53717  32.617  25.538   2.383
81458W        W53718  37.464  34.905  12.373
81459W        W53719  35.367  35.528   1.867
81460W        W53720  12.166  38.466  12.008
81461W        W53721  13.133  17.278  11.572
81462W        W53722  11.214  23.602   0.752
81463W        W53723  29.489  43.961  11.474
81464W        W53724   0.938  41.898   0.301
81465W        W53725  23.068  29.439  12.875
81466W        W53726  25.709  36.480   3.702
81467W        W53727  19.082  16.313  11.453
81468W        W53728  39.033  10.709  11.968
81469W        W53729  44.469   0.331   4.753
81470W        W53730  15.210  34.530   1.238
81471W        W53731  31.069  20.749  13.814
81472W        W53732   4.790  31.638  11.474
81473W        W53733  43.004  34.409   4.662
81474W        W53734  39.814  11.157   0.907
81475W        W53735  44.875  33.549   4.276
81476W        W53736  25.693  43.300   3.257
81477W        W53737   2.385  15.780   4.259
81478W        W53738  28.563  10.771  10.496
81479W        W53739  28.950  42.499   1.335
81480W        W53740   8.180   9.244   0.387
81481W        W53741  43.444  11.841  13.351
81482W        W53742  15.676  11.187  14.461
81483W        W53743  43.412  14.106  13.513
81484W        W53744  14.302  10.765   0.384
81485W        W53745  43.855  17.652  12.036
81486W        W53746   9.793  38.012  11.596
81487W        W53747  10.760  22.148   3.353
81488W        W53748  27.535  40.396   3.860
81489W        W53749  15.734   6.224   2.877
81490W        W53750  30.619  28.455   2.329
81491W        W53751  16.252  15.237   3.337
81492W        W53752  35.945  13.194  11.864
81493W        W53753  13.290  41.791  14.917
81494W        W53754  30.441  40.417   0.779
81495W        W53755   7.282   5.429   4.132
81496W        W53756   0.906  39.024   0.451
81497W        W53757  14.793  37.535   4.326
81498W        W53758  32.490  25.106   4.220
81499W        W53759  40.484  14.261  13.934
81500W        W53760  16.773  35.977   4.273
81501W        W53761   3.323   9.268   1.773
81502W        W53762  35.105  34.046   1.716
81503W        W53763  23.694  42.496   1.323
81504W        W53764  39.920   8.657   2.666
81505W        W53765  20.682  41.310  12.885
81506W        W53766  29.615  27.152   2.193
81507W        W53767  34.078  24.660   2.306
81508W        W53768  10.223   0.916  10.972
81509W        W53769   7.794  26.028   4.140
81510W        W53770  21.653   3.800   3.752
81511W        W53771  14.672  12.617   1.303
81512W        W53772  33.588  42.022  13.802
81513W        W53773   6.689  27.062   3.268
81514W        W53774   1.778  35.918   4.304
81515W        W53775  15.325  39.396  13.476
81516W        W53776   4.827   1.769  10.078
81517W        W53777  27.530   4.330   2.710
81518W        W53778  21.205   0.362   1.377
81519W        W53779  30.503  27.025  10.455
81520W        W53780   5.304  15.115   3.368
81521W        W53781  19.093  16.781   0.759
81522W        W53782  27.581  29.956   0.854
81523W        W53783  23.141   0.438   1.785
81524W        W53784  40.423   7.829   2.773
81525W        W53785  28.607  20.125   2.833
81526W        W53786  18.558  38.407   3.375
81527W        W53787  19.620  16.088  14.318
81528W        W53788   2.824  19.237  11.971
81529W        W53789  23.091  16.104  12.902
81530W        W53790  35.008   8.694   4.344
81531W        W53791  44.359  17.697  10.584
81532W        W53792   2.334  12.701  14.013
81533W        W53793  35.948  40.475  12.403
81534W        W53794   3.775  14.239  11.069
81535W        W53795  13.137   8.335   0.939
81536W        W53796  43.388  16.193  14.476
81537W        W53797  17.557  30.051   3.308
81538W        W53798  38.927  31.945  10.500
81539W        W53799  23.694  22.675  12.013
81540W        W53800  19.690  27.113   3.782
81541W        W53801  22.739  44.758   3.772
81542W        W53802  18.127  41.341   3.281
81543W        W53803   9.325  11.147  10.466
81544W        W53804   5.318  11.621  11.425
81545W        W53805  44.956  36.441   3.358
81546W        W53806  42.928  23.501   3.723
81547W        W53807  33.893  26.208   2.268
81548W        W53808  24.048   5.260  11.414
81549W        W53809  11.286  30.589   2.234
81550W        W53810  28.091  11.358  13.830
81551W        W53811  24.609   2.962   4.193
81552W        W53812  11.719  40.999   1.758
81553W        W53813   1.276  23.240  14.304
81554W        W53814   6.243  40.828   2.224
81555W        W53815  13.842  11.235   2.334
81556W        W53816  33.482   2.450   0.360
81557W        W53817  30.951  18.702   2.708
81558W        W53818  14.652  41.025   1.855
81559W        W53819  14.811  20.045   0.472
81560W        W53820  13.657  32.624  10.518
81561W        W53821  38.400  33.503  11.595
81562W        W53822  12.290  39.933  11.600
81563W        W53823  39.360  29.660  14.031
81564W        W53824  41.538  29.554  12.498
81565W        W53825  22.636  14.270  14.759
81566W        W53826  14.755   1.411  10.432
81567W        W53827  24.539   7.266  11.491
81568W        W53828  37.498  15.266   1.862
81569W        W53829  16.288  20.712  13.942
81570W        W53830  27.657   7.184   1.899
81571W        W53831  36.972  35.037   0.756
81572W        W53832   3.316  41.950  14.995
81573W        W53833  30.475  18.689  12.840
81574W        W53834  31.905   2.763   0.922
81575W        W53835  27.524  36.977  11.044
81576W        W53836  25.034   9.798   4.767
81577W        W53837  40.416  22.189   0.806
81578W        W53838  33.926  24.976   2.895
81579W        W53839  25.674  15.820  13.978
81580W        W53840  17.174  40.519  14.317
81581W        W53841  44.761   0.322   2.380
81582W        W53842  18.096  19.122   2.679
81583W        W53843  43.309  26.693   0.455
81584W        W53844  17.654   4.326   1.414
81585W        W53845   1.798  34.546   1.285
81586W        W53846  13.345  26.045  13.527
81587W        W53847  25.612  13.609   0.284
81588W        W53848   0.491  33.411  13.482
81589W        W53849  30.539  23.115  11.030
81590W        W53850  44.427  29.068   4.165
81591W        W53851  27.606  19.086  13.802
81592W        W53852   9.287  28.063  14.974
81593W        W53853  11.297  31.015   0.435
81594W        W53854  39.058  42.304   1.310
81595W        W53855   3.376  26.205  14.922
81596W        W53856  10.727  38.016   2.756
81597W        W53857  20.645  15.278  13.873
81598W        W53858  10.675  40.008   1.448
81599W        W53859  29.003  29.002   3.299
81600W        W53860   3.299  20.196   0.905
81601W        W53861  17.238   3.313  10.611
81602W        W53862  38.405  19.654  10.941
81603W        W53863  42.862  42.444  11.405
81604W        W53864   7.853  19.139   0.246
81605W        W53865  15.773  27.600   0.340
81606W        W53866   9.845   6.397  14.805
81607W        W53867  18.678  38.535   0.834
81608W        W53868  18.688   9.837   2.761
81609W        W53869   9.158  43.275   3.377
81610W        W53870  42.317   8.299  10.534
81611W        W53871  33.612  41.853  13.321
81612W        W53872  13.681   7.301  13.005
81613W        W53873  30.527  19.103   0.356
81614W        W53874  34.932  40.491  11.557
81615W        W53875  12.805  38.901   0.358
81616W        W53876  21.228  29.149   3.285
81617W        W53877  25.615  30.483  11.382
81618W        W53878  13.146   9.149  14.404
81619W        W53879  17.681   6.887  14.362
81620W        W53880  28.100   3.753   0.943
81621W        W53881  35.420   3.891  10.602
81622W        W53882  34.590  21.513   4.147
81623W        W53883  35.366  44.797  10.573
81624W        W53884  11.257   9.736   2.261
81625W        W53885  22.550  25.097  10.135
81626W        W53886  33.046  33.620   2.302
81627W        W53887  28.501  11.753   0.419
81628W        W53888  19.210  39.471  14.801
81629W        W53889  31.027  39.482   0.382
81630W        W53890  27.167  33.539  10.634
81631W        W53891  24.081  15.304  10.961
81632W        W53892  29.047   6.403   4.269
81633W        W53893  12.181  40.799   4.229
81634W        W53894   8.709  24.506   4.820
81635W        W53895   5.292   7.798   2.831
81636W        W53896  39.002  27.497  11.956
81637W        W53897  42.452  44.884   2.796
81638W        W53898   7.374  20.179  11.094
81639W        W53899  22.106  44.773  12.390
81640W        W53900  43.306  24.098  14.379
81641W        W53901   7.254   0.253   3.253
81642W        W53902  10.328  26.571   0.866
81643W        W53903  29.995  19.671  10.915
81644W        W53904  33.571  40.385  12.384
81645W        W53905  20.526  18.632  11.006
81646W        W53906  37.359  36.053   3.363
81647W        W53907  34.932   7.372   0.278
81648W        W53908  13.612  34.994   4.803
81649W        W53909  33.131   2.920  13.047
81650W        W53910   9.341   0.806  12.388
81651W        W53911   5.796  11.178   4.678
81652W        W53912   6.388  16.109  10.478
81653W        W53913  17.781  20.655   2.725
81654W        W53914   3.400  28.571  11.006
81655W        W53915  30.562  32.596   5.581
81656W        W53916   6.810  34.575   2.322
81657W        W53917  41.974  39.522  13.936
81658W        W53918  17.755  23.211   4.762
81659W        W53919  28.631  17.163  11.091
81660W        W53920  31.550  28.580   2.408
81661W        W53921  19.045  42.833  12.029
81662W        W53922  43.451   4.298  11.000
81663W        W53923   6.374  32.458   0.893
81664W        W53924   5.721  20.206  14.802
81665W        W53925  24.018   6.276  12.541
81666W        W53926   2.888   4.271   0.304
81667W        W53927  34.480   7.850   3.649
81668W        W53928  39.550  31.130  10.993
81669W        W53929  10.292  42.876  12.353
81670W        W53930   0.333  36.892  12.985
81671W        W53931   3.789  19.695   2.347
81672W        W53932  36.588  18.263   5.095
81673W        W53933  35.067  26.579   2.800
81674W        W53934  41.940  17.227  10.091
81675W        W53935  38.339  43.947   0.795
81676W        W53936  29.092  35.398   0.905
81677W        W53937  32.618  21.069   3.863
81678W        W53938  30.059   4.338  14.965
81679W        W53939  39.329  26.959  10.433
81680W        W53940  14.786  10.858   1.717
81681W        W53941  28.067  18.159  13.903
81682W        W53942  25.052  36.475  13.060
81683W        W53943   5.829  20.047   1.288
81684W        W53944  42.838  13.117   2.412
81685W        W53945  37.572  16.653   1.922
81686W        W53946  14.752  21.586  10.945
81687W        W53947  21.027  30.096   2.361
81688W        W53948  43.281  30.138   0.766
81689W        W53949  27.553  31.500  12.935
81690W        W53950  26.153  27.982   1.746
81691W        W53951   9.852  26.150  13.832
81692W        W53952   9.244  21.056  13.327
81693W        W53953  23.642  20.034   3.697
81694W        W53954  14.680  36.370   3.270
81695W        W53955  31.904  16.232   1.694
81696W        W53956  17.146  38.433   1.289
81697W        W53957  14.603  15.314  12.390
81698W        W53958  42.429  21.032   2.380
81699W        W53959  42.829  31.622  10.146
81700W        W53960  33.022   9.690  13.837
81701W        W53961  18.178  28.148  12.964
81702W        W53962  25.037  25.532  10.905
81703W        W53963  12.152  17.729  14.322
81704W        W53964  34.450   3.791   1.248
81705W        W53965  32.912  17.705   0.443
81706W        W53966  31.547  36.450  11.014
81707W        W53967  18.215  29.050  14.791
81708W        W53968   0.296  36.056   4.279
81709W        W53969  35.409  27.521  14.799
81710W        W53970  36.925   2.299  14.399
81711W        W53971  23.986  25.491   1.283
81712W        W53972  34.996   0.351  11.861
81713W        W53973  23.664  44.777  11.094
81714W        W53974   1.866  24.709  10.553
81715W        W53975  30.006   3.432   4.833
81716W        W53976  34.399   7.846  11.958
81717W        W53977  20.745  19.053  12.439
81718W        W53978  34.585  44.297  10.529
81719W        W53979  28.499  41.393  14.964
81720W        W53980  32.440  22.516  13.511
81721W        W53981   2.364  10.691  14.507
81722W        W53982  37.032  35.400  13.460
81723W        W53983  32.511  34.477  11.975
81724W        W53984   9.239  21.073   4.613
81725W        W53985  42.942   5.908   2.757
81726W        W53986  12.346  36.075  13.852
81727W        W53987  28.063   6.273  10.404
81728W        W53988  12.612   3.261  13.834
81729W        W53989   9.807  23.710   0.421
81730W        W53990  21.694  40.808   2.782
81731W        W53991  37.431   7.343  11.982
81732W        W53992  15.702  20.751   0.732
81733W        W53993  42.453  14.649  13.810
81734W        W53994  24.092  35.870   5.314
81735W        W53995   3.444  44.494  13.460
81736W        W53996  16.663  19.182   4.676
81737W        W53997  39.423  32.897   4.302
81738W        W53998  17.762  25.175   3.164
81739W        W53999  34.949   6.853  12.905
81740W        W54000   8.853   9.237  12.464
81741W        W54001  14.209  31.521   2.859
81742W        W54002  32.574  33.517   0.826
81743W        W54003  29.077  30.453   0.847
81744W        W54004  24.496  44.431   4.172
81745W        W54005  18.575  34.502  14.881
81746W        W54006   3.321   6.276  10.440
81747W        W54007  24.058  29.066  12.506
81748W        W54008   8.315  23.598   3.638
81749W        W54009  43.831  31.536   3.785
81750W        W54010  23.210  12.329   3.738
81751W        W54011  23.606  40.871   3.742
81752W        W54012   4.335   8.700   0.404
81753W        W54013  19.695  17.726  10.612
81754W        W54014  25.669  34.605  13.818
81755W        W54015  12.266  44.908   4.120
81756W        W54016  43.020  26.178  14.766
81757W        W54017   3.810  35.588  11.572
81758W        W54018   7.366  17.669  10.574
81759W        W54019  38.929  19.555  13.452
81760W        W54020  17.105   8.180  10.542
81761W        W54021  22.109  28.593  14.011
81762W        W54022  34.865  31.629   4.730
81763W        W54023  19.649   6.757   1.233
81764W        W54024  30.966  11.744  11.453
81765W        W54025  25.987  44.496  12.960
81766W        W54026  23.557  31.932   4.346
81767W        W54027  10.856  29.489  12.924
81768W        W54028  29.663  25.648   1.264
81769W        W54029  25.978  13.218  13.827
81770W        W54030  29.651  13.647   0.847
81771W        W54031  29.430  24.002   0.896
81772W        W54032   9.816  13.833   2.753
81773W        W54033   1.862  26.055   0.838
81774W        W54034  35.431  37.579  11.404
81775W        W54035  22.251  32.935   2.677
81776W        W54036  10.691  22.620   9.965
81777W        W54037  15.761  22.602   4.743
81778W        W54038  20.541  16.793   0.850
81779W        W54039   6.813  39.546  13.547
81780W        W54040  30.083  27.517  12.042
81781W        W54041  11.682  12.171   1.903
81782W        W54042  28.546  34.021   4.278
81783W        W54043  16.165  42.827   3.864
81784W        W54044  25.094  11.248   0.280
81785W        W54045  25.475  43.809  12.076
81786W        W54046  13.336   7.736   0.416
81787W        W54047  35.445  17.750  13.423
81788W        W54048   2.325  22.660  12.957
81789W        W54049   7.188  36.519   3.160
81790W        W54050  19.160   6.424   0.734
81791W        W54051  11.297  25.557  10.483
81792W        W54052  22.521  38.002  11.573
81793W        W54053  24.478  31.611   4.191
81794W        W54054  15.159  14.814   1.712
81795W        W54055  28.474  13.764  11.604
81796W        W54056   4.372  12.743   4.124
81797W        W54057  17.127  20.042  11.998
81798W        W54058   6.303  42.451   1.390
81799W        W54059  33.061  13.725   0.442
81800W        W54060  21.731   6.685  12.007
81801W        W54061  44.422   0.903   5.241
81802W        W54062  33.071   5.344   4.740
81803W        W54063   9.183  37.496   0.356
81804W        W54064  13.657  16.619   1.863
81805W        W54065   6.234  16.770  13.502
81806W        W54066   6.879  13.784  11.998
81807W        W54067  26.563  44.382  10.547
81808W        W54068  17.761   2.326   2.297
81809W        W54069  23.989  32.119   3.793
81810W        W54070  30.149  41.853  14.296
81811W        W54071  18.729   6.862  11.939
81812W        W54072  28.951  36.572  13.450
81813W        W54073  12.728  38.464  14.897
81814W        W54074  36.898  11.224   4.806
81815W        W54075  40.959  39.933   4.668
81816W        W54076  10.745   4.883  13.915
81817W        W54077  29.556  36.500  14.814
81818W        W54078  14.767  44.468  13.022
81819W        W54079  10.187  14.162   1.363
81820W        W54080   3.319  33.084  10.574
81821W        W54081   0.271  14.788  12.007
81822W        W54082  44.390  44.504   1.329
81823W        W54083  22.035  42.988   0.263
81824W        W54084  11.274  19.594   4.784
81825W        W54085   4.919  24.647   0.329
81826W        W54086  12.215  26.034  11.916
81827W        W54087   6.420  30.141  12.447
81828W        W54088  29.132  37.835   0.957
81829W        W54089  29.518  28.042   0.815
81830W        W54090  21.058  35.956  13.511
81831W        W54091  39.508   8.675  10.941
81832W        W54092  43.313  33.467  13.455
81833W        W54093   9.211  40.008  14.778
81834W        W54094  32.025  17.074  11.873
81835W        W54095  35.594  40.497   4.116
81836W        W54096  20.627   7.361   1.726
81837W        W54097  43.816  11.277   1.280
81838W        W54098  15.655   3.237  12.534
81839W        W54099  25.695  12.694   0.755
81840W        W54100  32.950  22.674   4.146
81841W        W54101  14.768  25.178   2.839
81842W        W54102  24.074  24.658   3.803
81843W        W54103  39.493  44.441  12.366
81844W        W54104  31.410  16.736   4.770
81845W        W54105  37.841  22.147   4.766
81846W        W54106  15.126  44.824   3.202
81847W        W54107   8.386  36.423   0.874
81848W        W54108  41.969  11.216  13.507
81849W        W54109  13.783  38.030   4.229
81850W        W54110  15.134  21.182   3.702
81851W        W54111  23.225  36.457   4.188
81852W        W54112  12.144  18.653  13.423
81853W        W54113   7.206   2.785   4.117
81854W        W54114  44.309  34.865   4.634
81855W        W54115  38.877  33.127   3.851
81856W        W54116   7.884   6.761  13.534
81857W        W54117   3.936  43.793   4.121
81858W        W54118   3.849   2.784  12.079
81859W        W54119  18.642  31.900   3.374
81860W        W54120  40.825  12.301  11.066
81861W        W54121   5.325   6.386  14.471
81862W        W54122  20.624   3.276  10.494
81863W        W54123   7.252  18.574   1.428
81864W        W54124  37.873  36.912   3.748
81865W        W54125  33.890  37.071   1.910
81866W        W54126  14.221  35.078  10.584
81867W        W54127  13.663  16.231   0.265
81868W        W54128   8.278  22.664  10.484
81869W        W54129  18.599   3.248   2.707
81870W        W54130   4.794   9.175   2.852
81871W        W54131  26.497  23.575   4.778
81872W        W54132  36.937  29.030   3.657
81873W        W54133  39.895  14.254   1.244
81874W        W54134  24.676  38.949  14.862
81875W        W54135  25.135   9.839   2.199
81876W        W54136  34.432  20.127   0.736
81877W        W54137  26.096   0.412  13.870
81878W        W54138  30.066  22.036   0.249
81879W        W54139  22.736   0.859  12.399
81880W        W54140  43.271  21.672   0.420
81881W        W54141   7.269  36.569   3.676
81882W        W54142   3.291  39.013   0.359
81883W        W54143   7.808  34.973   3.728
81884W        W54144   2.927  35.392   3.754
81885W        W54145  35.930  24.589  11.903
81886W        W54146  43.019   2.954   3.643
81887W        W54147  16.106  19.646  14.401
81888W        W54148  42.798   4.886  12.893
81889W        W54149  22.634  31.484  11.861
81890W        W54150  10.687  31.133   2.788
81891W        W54151  32.997  17.067   1.921
81892W        W54152   0.796  12.302  14.946
81893W        W54153  24.663  35.053   2.332
81894W        W54154  16.315   0.365  14.017
81895W        W54155  14.777  43.769   0.954
81896W        W54156  15.609  44.910  13.442
81897W        W54157  17.800  24.135  14.324
81898W        W54158   8.665  37.425   2.884
81899W        W54159  20.695  25.208   4.190
81900W        W54160   1.810  10.829  14.770
81901W        W54161  42.945  12.275  13.471
81902W        W54162  17.080  41.806  14.497
81903W        W54163  19.115   9.166   0.467
81904W        W54164  37.067  34.391   0.808
81905W        W54165  15.168  13.283   3.796
81906W        W54166  13.811  31.919  13.915
81907W        W54167   6.915   4.901  12.501
81908W        W54168  13.297  23.663  11.074
81909W        W54169  39.358  26.671  12.833
81910W        W54170  30.511   1.934   4.819
81911W        W54171  28.117  35.558  10.477
81912W        W54172  40.363  21.240   3.741
81913W        W54173  30.139  22.025  13.328
81914W        W54174  26.040  34.997   0.417
81915W        W54175  36.431   8.368   3.860
81916W        W54176   6.870  19.053  12.362
81917W        W54177  27.180  18.631  14.412
81918W        W54178  17.635  13.215  10.642
81919W        W54179  11.814  32.422  11.122
81920W        W54180  25.547  22.675  12.518
81921W        W54181  40.502  34.879   0.483
81922W        W54182  36.881  44.290  13.006
81923W        W54183  35.038  32.039   5.286
81924W        W54184   7.750  29.164  12.936
81925W        W54185  16.132  38.886   4.692
81926W        W54186  23.588  23.710  14.302
81927W        W54187  37.852  40.531   1.802
81928W        W54188   3.420  33.051   1.777
81929W        W54189   3.930  33.954   4.123
81930W        W54190  30.162  44.467  14.799
81931W        W54191  25.589  40.914   1.378
81932W        W54192  16.759  33.622   4.815
81933W        W54193  27.028  25.203   4.605
81934W        W54194  30.571   4.366   3.159
81935W        W54195  33.546  37.948   4.124
81936W        W54196  42.480  33.574  10.596
81937W        W54197  12.642  13.241  12.028
81938W        W54198  36.471  32.403  10.923
81939W        W54199   1.937  41.812   0.728
81940W        W54200  43.900   9.345   0.383
81941W        W54201  32.527  29.510  10.966
81942W        W54202  36.593  13.223  12.004
81943W        W54203  38.003  17.641  10.915
81944W        W54204  25.031  15.601  13.913
81945W        W54205  44.836   8.226  12.011
81946W        W54206  20.047  29.661   0.469
81947W        W54207  12.182  16.653   2.186
81948W        W54208  23.686  39.978  12.835
81949W        W54209   4.706   1.240   2.831
81950W        W54210   7.320  22.231   3.722
81951W        W54211   9.298  16.677   1.733
81952W        W54212   8.191   7.217  10.963
81953W        W54213  25.688  25.489   0.783
81954W        W54214  34.535   8.738  13.419
81955W        W54215  44.771  28.018  11.535
81956W        W54216  44.832   4.898   1.369
81957W        W54217  15.130  13.618  11.061
81958W        W54218   3.841  34.091   0.304
81959W        W54219  38.468  15.211  10.489
81960W        W54220  17.304   0.938  12.984
81961W        W54221   8.218  20.642  12.968
81962W        W54222  23.099  17.144   9.925
81963W        W54223  18.631  25.470  11.440
81964W        W54224  26.576  29.516   2.696
81965W        W54225  30.445   6.227   3.715
81966W        W54226   7.361  16.750   1.794
81967W        W54227  18.583  27.688   0.287
81968W        W54228  29.937  35.592  13.910
81969W        W54229  32.507  29.448  13.031
81970W        W54230  23.694  26.501   4.641
81971W        W54231  23.572  15.312   4.837
81972W        W54232  17.583  38.048  12.835
81973W        W54233  21.513  42.777   4.779
81974W        W54234  23.145  15.094  11.065
81975W        W54235  20.651  41.419  14.289
81976W        W54236  33.010  40.938   0.845
81977W        W54237  32.924   3.346  11.544
81978W        W54238  13.733   6.243   1.885
81979W        W54239  39.845  40.854   2.358
81980W        W54240   7.173  22.185   2.872
81981W        W54241  24.554   5.740  11.040
81982W        W54242   5.920   0.285   0.295
81983W        W54243  19.717  23.068   2.302
81984W        W54244  33.032  26.163   4.190
81985W        W54245  29.924   6.728  14.477
81986W        W54246  29.431  20.111   0.338
81987W        W54247   1.410   1.392  14.442
81988W        W54248  22.574   2.388   1.374
81989W        W54249   1.833   3.357   3.167
81990W        W54250  15.304   5.321   1.308
81991W        W54251  40.325  39.395  14.374
81992W        W54252  12.177   9.662  11.977
81993W        W54253  22.705  34.608  14.007
81994W        W54254  16.723   9.207   0.764
81995W        W54255  21.117  34.941   0.856
81996W        W54256  18.212  36.946  13.537
81997W        W54257  24.614  38.411   0.963
81998W        W54258  11.801  28.007   3.279
81999W        W54259  11.787  31.454   3.681
82000W        W54260  36.031  43.496  10.489
82001W        W54261  16.609  21.564  14.949
82002W        W54262   4.339  31.904  12.908
82003W        W54263  37.460  41.452   1.836
82004W        W54264  21.700   9.740   0.400
82005W        W54265  33.111  29.489   3.790
82006W        W54266  40.391  18.090   4.710
82007W        W54267   6.810  20.663   3.639
82008W        W54268  13.191  34.571   1.821
82009W        W54269   3.269  30.993   3.343
82010W        W54270  34.964  29.638   4.722
82011W        W54271  23.227   7.240   4.640
82012W        W54272  42.325  25.583   1.732
82013W        W54273   7.189  15.151  14.867
82014W        W54274  18.168  21.102   2.244
82015W        W54275  21.214  14.213   2.717
82016W        W54276  33.395  16.317   3.205
82017W        W54277  35.471  21.028  14.797
82018W        W54278   5.205   1.466   1.766
82019W        W54279  41.498  18.674  13.993
82020W        W54280   5.357  11.697  10.122
82021W        W54281  34.965  19.779  13.428
82022W        W54282   1.252   1.373   0.323
82023W        W54283  19.745   8.268  11.065
82024W        W54284  17.258   5.301   1.279
82025W        W54285  11.275  40.343  12.479
82026W        W54286  40.849  13.174  13.859
82027W        W54287  13.237  44.938  12.021
82028W        W54288  19.152  26.978  13.803
82029W        W54289  19.079   3.922   1.371
82030W        W54290  30.909  40.045   0.258
82031W        W54291  43.883  26.080  12.000
82032W        W54292  20.529  33.478  14.881
82033W        W54293  20.545   1.469   1.920
82034W        W54294  40.939  27.489  12.394
82035W        W54295  25.160  30.042  14.925
82036W        W54296  12.830  39.446  12.504
82037W        W54297  26.527  14.782   0.256
82038W        W54298   9.805  13.182   1.379
82039W        W54299  22.653  18.151   2.694
82040W        W54300  42.947  19.190  11.594
82041W        W54301  40.343  30.977  14.365
82042W        W54302   3.300  34.888  11.024
82043W        W54303  27.112   9.747  11.612
82044W        W54304  27.118  10.204   2.321
82045W        W54305  37.525  15.763  12.517
82046W        W54306  24.616  14.145   1.913
82047W        W54307  29.151  42.948  10.588
82048W        W54308  35.476  18.271   5.307
82049W        W54309   2.831   1.799   1.812
82050W        W54310  25.567   2.233   0.341
82051W        W54311  24.504   6.315   0.927
82052W        W54312  32.959  38.385  11.885
82053W        W54313  18.674  37.538  14.407
82054W        W54314  11.247   7.289   0.737
82055W        W54315  14.665  22.250  13.917
82056W        W54316  44.430  35.549   1.320
82057W        W54317  36.519  16.809   1.211
82058W        W54318  22.070  15.657  11.878
82059W        W54319  18.727  43.850   2.243
82060W        W54320   1.412  35.106  13.388
82061W        W54321  20.163   8.714   4.693
82062W        W54322  37.070  34.893  12.924
82063W        W54323  11.154  11.322  11.593
82064W        W54324  42.792   4.887   3.317
82065W        W54325   6.324   0.389   3.761
82066W        W54326  26.145  33.507  11.531
82067W        W54327  20.636  37.022   0.407
82068W        W54328  44.479  16.140  10.613
82069W        W54329  11.176   5.772   2.845
82070W        W54330  16.656  39.033   1.740
82071W        W54331  40.352  43.481   1.823
82072W        W54332  22.532  19.603  11.046
82073W        W54333  20.649  40.012   0.454
82074W        W54334   6.223  18.575  14.301
82075W        W54335  15.244   6.349   1.301
82076W        W54336  32.124  19.189   3.351
82077W        W54337   4.450   4.716   4.138
82078W        W54338  12.227  22.695  11.602
82079W        W54339   2.406  38.570  11.471
82080W        W54340  34.607  14.661   0.455
82081W        W54341  26.096  43.007   2.846
82082W        W54342  23.605   2.320  13.906
82083W        W54343  39.049  22.210  10.603
82084W        W54344  41.444  19.238   4.665
82085W        W54345   7.388   6.402  14.463
82086W        W54346  41.971  20.623   3.309
82087W        W54347  23.124  38.830   1.791
82088W        W54348  32.528  17.116   4.153
82089W        W54349  44.997   8.812   0.751
82090W        W54350  16.269   2.746   2.688
82091W        W54351  43.515  15.145  10.501
82092W        W54352   5.274  11.129   1.417
82093W        W54353  37.576  24.040   0.878
82094W        W54354  35.434  42.949  11.384
82095W        W54355   4.749  32.905  11.932
82096W        W54356  11.298  22.233  12.877
82097W        W54357  40.951   3.793  14.485
82098W        W54358  27.952  38.369  11.606
82099W        W54359   6.219  10.878   4.132
82100W        W54360   6.412  15.695  14.411
82101W        W54361   8.254  31.436   4.197
82102W        W54362   2.728  11.663   2.734
82103W        W54363  40.475  26.618   5.201
82104W        W54364  16.718  28.454   4.143
82105W        W54365  16.596   6.820  14.420
82106W        W54366   0.306  31.404   1.420
82107W        W54367  39.543  12.779  13.383
82108W        W54368  28.484  39.871  14.901
82109W        W54369  13.275  42.949  14.363
82110W        W54370   5.401   6.836   2.693
82111W        W54371  27.980  14.796  11.518
82112W        W54372   2.828  41.935   0.793
82113W        W54373  41.015  32.477  13.958
82114W        W54374  15.275  15.701   9.924
82115W        W54375  38.971  19.684  12.351
82116W        W54376  20.259   9.178   4.795
82117W        W54377  30.542  44.346  12.986
82118W        W54378  26.469  10.172  11.430
82119W        W54379  35.405  42.871  10.628
82120W        W54380  24.495  12.778   1.884
82121W        W54381  23.515  37.387   2.831
82122W        W54382  13.299   2.907   3.162
82123W        W54383  33.941   4.886   1.838
82124W        W54384   0.253  28.186   4.761
82125W        W54385  34.116  22.037  12.496
82126W        W54386  41.863  43.289   0.776
82127W        W54387  37.336   5.423  13.369
82128W        W54388  43.905   3.384   0.823
82129W        W54389  35.424   0.980   4.342
82130W        W54390  35.927  32.482  14.794
82131W        W54391   9.712  22.621   0.336
82132W        W54392  20.118  38.960   5.251
82133W        W54393  41.395  29.088  14.320
82134W        W54394  28.515  19.161   1.365
82135W        W54395  24.194  22.120  14.900
82136W        W54396  31.576   2.229  10.577
82137W        W54397  12.671  32.627  12.991
82138W        W54398  29.539  28.978   3.756
82139W        W54399  34.918   3.765   3.273
82140W        W54400  20.220  44.879  13.447
82141W        W54401  31.971   7.334  14.331
82142W        W54402   1.364   6.280   1.238
82143W        W54403   8.805  24.080   1.258
82144W        W54404  19.262  34.520   3.315
82145W        W54405  43.495  43.965   4.149
82146W        W54406  25.700  41.832   4.823
82147W        W54407  40.513  32.509   0.358
82148W        W54408  28.145   0.407   2.772
82149W        W54409  36.577   3.328   0.927
82150W        W54410  44.321  26.119  13.460
82151W        W54411   1.261   7.904  13.941
82152W        W54412  11.746  23.514  13.372
82153W        W54413  27.030   0.474   0.381
82154W        W54414  18.256   7.909  13.833
82155W        W54415  40.535  35.371  14.499
82156W        W54416  32.054  27.552   0.381
82157W        W54417  10.822  36.971  11.046
82158W        W54418  39.918  14.328   4.799
82159W        W54419  36.097   7.803   2.208
82160W        W54420  18.607  11.759  14.491
82161W        W54421  13.290   4.760   1.356
82162W        W54422  14.645   7.414   3.839
82163W        W54423  25.600  37.869   4.624
82164W        W54424  32.394  35.056  10.617
82165W        W54425  23.092   2.898   4.287
82166W        W54426  22.008  26.618   1.861
82167W        W54427  35.542  10.655   0.961
82168W        W54428  25.530  28.153  13.541
82169W        W54429  35.475   2.447  10.558
82170W        W54430  42.367   2.373   2.785
82171W        W54431   1.238  22.550  10.555
82172W        W54432  13.746  42.312  12.908
82173W        W54433  32.593  27.003   2.759
82174W        W54434  37.548  34.508   4.260
82175W        W54435  10.820   9.257   0.884
82176W        W54436   1.925   0.251   4.765
82177W        W54437  28.531  10.207  13.797
82178W        W54438  32.052  21.571   4.181
82179W        W54439  42.370   3.303   1.446
82180W        W54440  31.103  34.916  13.423
82181W        W54441   6.339  33.019  10.532
82182W        W54442  13.814   5.885   2.684
82183W        W54443  18.290  41.316  13.832
82184W        W54444  28.149  30.148   2.809
82185W        W54445  35.860  37.969   4.346
82186W        W54446  41.416  27.089   1.857
82187W        W54447  44.754  16.140  12.477
82188W        W54448  25.607  33.900  10.549
82189W        W54449   3.410   4.251   3.790
82190W        W54450  18.068  34.407  14.931
82191W        W54451  25.684  39.050  14.369
82192W        W54452  37.522  43.848   3.298
82193W        W54453  29.933  43.380  12.407
82194W        W54454  15.190  12.831  14.281
82195W        W54455  17.648  34.603  11.118
82196W        W54456  41.999   1.289  10.474
82197W        W54457  36.391   0.323  10.540
82198W        W54458  19.548  43.842   0.252
82199W        W54459   4.438   9.769  12.959
82200W        W54460   7.273  22.064  11.127
82201W        W54461  22.586   8.662   3.657
82202W        W54462  34.613  15.802  12.562
82203W        W54463  24.195   5.313  14.316
82204W        W54464   6.896   2.900  12.435
82205W        W54465  43.015  26.499   0.425
82206W        W54466  42.994  11.701  11.604
82207W        W54467   3.321  28.628   1.408
82208W        W54468  22.022   8.788   4.213
82209W        W54469  10.212   8.760  14.330
82210W        W54470  40.500   6.775   4.297
82211W        W54471  24.570  11.131   3.298
82212W        W54472  19.713  19.629  10.068
82213W        W54473  24.228   6.886  13.037
82214W        W54474   9.318   9.280  13.927
82215W        W54475  44.998  17.650  14.894
82216W        W54476  39.412  24.524  10.594
82217W        W54477  23.508   3.937  13.373
82218W        W54478  17.103  18.769   0.436
82219W        W54479  31.124  44.010   0.795
82220W        W54480   7.690  39.933  12.866
82221W        W54481   9.306   4.276  14.017
82222W        W54482  43.410  32.067   3.773
82223W        W54483   7.858  43.013  14.347
82224W        W54484  30.048  39.825   1.850
82225W        W54485  19.282  36.591  14.946
82226W        W54486  39.390  27.664   1.273
82227W        W54487  34.916  28.445  11.882
82228W        W54488  35.864  18.068   4.824
82229W        W54489  39.389  44.430   3.170
82230W        W54490  30.644  31.975  13.442
82231W        W54491  33.088  43.009  10.097
82232W        W54492   7.269  12.129  13.338
82233W        W54493  20.233   2.378   2.700
82234W        W54494  44.429  42.399   4.267
82235W        W54495  16.093  14.825   0.298
82236W        W54496   1.887   9.847  13.337
82237W        W54497  43.318  41.954   3.723
82238W        W54498  14.597  13.628  11.062
82239W        W54499   1.345   0.289  14.960
82240W        W54500  18.213  18.127   4.731
82241W        W54501  43.849  34.082   0.868
82242W        W54502  30.454  17.728  12.933
82243W        W54503   7.851   1.873   2.860
82244W        W54504  13.629  22.538  14.818
82245W        W54505  21.659  23.662   1.263
82246W        W54506  10.722  27.616  12.892
82247W        W54507   3.430  26.689  10.928
82248W        W54508  12.313  25.677  11.375
82249W        W54509   4.905  39.936  11.530
82250W        W54510  33.403  32.906  12.085
82251W        W54511  11.239  27.185  13.387
82252W        W54512  12.848  12.234  13.800
82253W        W54513  20.057  40.505  14.934
82254W        W54514  11.154   4.724  12.063
82255W        W54515   3.789  25.145   2.219
82256W        W54516  39.395  24.539  13.339
82257W        W54517  24.657  34.078   3.664
82258W        W54518  21.708  32.057  14.497
82259W        W54519  21.752  25.540   4.829
82260W        W54520  30.950  20.631   0.861
82261W        W54521  41.801  18.702   4.154
82262W        W54522  16.649  42.344   0.752
82263W        W54523  15.164  27.197   1.798
82264W        W54524  12.157   6.913   4.182
82265W        W54525  15.202  38.064   4.287
82266W        W54526   6.194   2.283  11.025
82267W        W54527  39.965  27.987  13.034
82268W        W54528  33.915  42.911  10.596
82269W        W54529   5.408  26.634   0.249
82270W        W54530  36.442  19.762  10.924
82271W        W54531  37.835  10.358  12.475
82272W        W54532   3.237  38.023  14.904
82273W        W54533  30.080  18.108  14.842
82274W        W54534  22.647   1.827   0.936
82275W        W54535  16.714  43.442   3.267
82276W        W54536   5.799  16.687  12.838
82277W        W54537  29.100  24.118   4.669
82278W        W54538  34.567   0.325   1.783
82279W        W54539  35.379  44.450  11.979
82280W        W54540  19.647  18.758  11.505
82281W        W54541  37.861   8.842  10.506
82282W        W54542   3.313  36.377  14.774
82283W        W54543  36.913   8.838  10.529
82284W        W54544  30.140  24.553  14.308
82285W        W54545  30.060  27.597   2.298
82286W        W54546   9.693   4.725  12.438
82287W        W54547   8.302  41.312  14.945
82288W        W54548   7.882  16.175  14.769
82289W        W54549  11.712   7.224   1.755
82290W        W54550  16.616  14.667   3.262
82291W        W54551  26.543  28.587  10.628
82292W        W54552  36.947  40.971   3.178
82293W        W54553   6.425  41.394   4.794
82294W        W54554   4.327  39.345   3.632
82295W        W54555  35.482  11.352  14.968
82296W        W54556  30.050  28.657  14.800
82297W        W54557  29.522  19.602   1.907
82298W        W54558   2.418  27.035   4.146
82299W        W54559  40.976  29.971   2.283
82300W        W54560  30.911  14.160   1.878
82301W        W54561  26.508  38.398   3.342
82302W        W54562  22.103  31.985  10.912
82303W        W54563  40.024   7.289   3.828
82304W        W54564  10.858   8.329   0.856
82305W        W54565   3.759  25.470  10.445
82306W        W54566  22.670  44.754   0.321
82307W        W54567  18.599  10.722  10.641
82308W        W54568  22.505  20.170   1.272
82309W        W54569  22.593  31.005  10.130
82310W        W54570  24.124   6.336   2.401
82311W        W54571  25.478  10.697   4.772
82312W        W54572  20.681  31.937  13.937
82313W        W54573  32.464  22.191   4.207
82314W        W54574  40.903  18.720  13.516
82315W        W54575  42.485  11.624   0.327
82316W        W54576   9.373   0.985   3.241
82317W        W54577  23.589  24.501   1.352
82318W        W54578  23.103  40.810  13.426
82319W        W54579  42.373   5.763   3.789
82320W        W54580   3.728  19.714  14.919
82321W        W54581  28.481  41.976  14.458
82322W        W54582  12.274  29.147  10.904
82323W        W54583  41.509  20.616  14.293
82324W        W54584  12.806  31.149  12.522
82325W        W54585  29.502   8.352   2.800
82326W        W54586  37.835  31.048  12.536
82327W        W54587   5.900   7.279  14.846
82328W        W54588  44.477  18.273  11.466
82329W        W54589   5.219   9.769   3.774
82330W        W54590  21.514  22.225  12.933
82331W        W54591   5.797  23.055  14.004
82332W        W54592  33.475  26.480   9.964
82333W        W54593  16.238  42.481  12.363
82334W        W54594  10.326  28.968  10.026
82335W        W54595  43.841  14.243   4.252
82336W        W54596  29.453  17.118  14.837
82337W        W54597  10.862   1.739   1.827
82338W        W54598  13.740  15.319   2.830
82339W        W54599  40.540  28.128   4.633
82340W        W54600  29.629  39.477  13.418
82341W        W54601   5.772  35.924   4.737
82342W        W54602  28.601  32.461  14.373
82343W        W54603  25.124  30.141   1.784
82344W        W54604  32.945   7.315  12.345
82345W        W54605  12.850  16.223   4.257
82346W        W54606   3.910  38.866   0.907
82347W        W54607  32.957  33.526  10.464
82348W        W54608  19.094   0.319  14.373
82349W        W54609  11.670  25.591  14.790
82350W        W54610  36.975   1.933  14.396
82351W        W54611  12.753   7.373  13.378
82352W        W54612  44.280  20.738  14.437
82353W        W54613  29.588  30.415  13.973
82354W        W54614   3.793  38.071  12.917
82355W        W54615  20.729  17.238  13.871
82356W        W54616  42.030  27.567  12.936
82357W        W54617  17.220  33.125  12.459
82358W        W54618  20.226  31.561   2.701
82359W        W54619  43.329   3.871   4.691
82360W        W54620  18.193  43.976  10.557
82361W        W54621  44.763  41.335   4.615
82362W        W54622  34.087  15.746  13.939
82363W        W54623   4.231  31.420  12.342
82364W        W54624  27.102  24.018   2.252
82365W        W54625   1.404   3.385  11.089
82366W        W54626   7.738   4.247  13.996
82367W        W54627  27.516  11.785   4.631
82368W        W54628  22.508  17.574  10.602
82369W        W54629   9.785   2.425  10.424
82370W        W54630   4.205  16.285   2.710
82371W        W54631  43.964  13.248  12.355
82372W        W54632  35.100   3.935   2.804
82373W        W54633   7.695   5.297   1.451
82374W        W54634  30.097  14.203   4.354
82375W        W54635   9.815  44.888   3.286
82376W        W54636  42.886   8.222  12.426
82377W        W54637  30.099   9.245  11.490
82378W        W54638  34.929  17.263   1.868
82379W        W54639  42.336  42.492   1.276
82380W        W54640  12.306  19.117  12.453
82381W        W54641  40.378  12.712  11.584
82382W        W54642  44.307  14.309  12.942
82383W        W54643  43.418  29.442   4.752
82384W        W54644  38.483  10.184   9.637
82385W        W54645  27.540  34.576   0.804
82386W        W54646   2.254   6.900  10.448
82387W        W54647   0.373  43.841  11.020
82388W        W54648  37.002  30.521   4.734
82389W        W54649  28.556  10.255   3.707
82390W        W54650   5.344  25.218  10.043
82391W        W54651  22.063  12.248   4.828
82392W        W54652   3.916  35.498   1.239
82393W        W54653   4.439   5.308   3.743
82394W        W54654  16.170  10.768   0.473
82395W        W54655  32.443  14.718   3.781
82396W        W54656   9.300  26.198   2.389
82397W        W54657   9.168   9.715   4.759
82398W        W54658  38.479  28.956   4.262
82399W        W54659  15.760  13.243   4.789
82400W        W54660  10.690  11.292  11.497
82401W        W54661  11.724  24.978  14.863
82402W        W54662  35.570  12.316   3.361
82403W        W54663  23.092  18.286   0.839
82404W        W54664   8.792  22.718   2.770
82405W        W54665  33.952  19.274   4.751
82406W        W54666   1.737  15.292  14.919
82407W        W54667  42.930  27.549  13.933
82408W        W54668  10.186   1.796   9.983
82409W        W54669   6.289   5.386  10.404
82410W        W54670  11.835  25.077  11.581
82411W        W54671  41.351  27.996   3.262
82412W        W54672  23.586  38.015  11.581
82413W        W54673  40.496  34.950  11.553
82414W        W54674  40.839  37.969   1.377
82415W        W54675  19.699  43.006   0.301
82416W        W54676  19.182  29.064  12.954
82417W        W54677   9.155  17.289   2.329
82418W        W54678  41.404   7.173   0.342
82419W        W54679  37.488   8.893   3.319
82420W        W54680  43.974  17.665   0.448
82421W        W54681  40.007   6.776  14.759
82422W        W54682  30.487  42.902   2.347
82423W        W54683  32.060   1.251   2.721
82424W        W54684  41.860   6.726   1.417
82425W        W54685  41.466  43.328  14.366
82426W        W54686  23.146   0.771   2.834
82427W        W54687  42.840   8.308  14.899
82428W        W54688  43.439  20.248   3.809
82429W        W54689   1.893  41.954   1.224
82430W        W54690  26.180  25.073  11.541
82431W        W54691  16.302  26.483   3.742
82432W        W54692  44.366  13.260  11.857
82433W        W54693  14.242  15.757  14.340
82434W        W54694  29.925  40.507  10.603
82435W        W54695  14.269  22.504   1.763
82436W        W54696   0.340  14.782   0.754
82437W        W54697  33.393  23.576   0.380
82438W        W54698  22.197  12.767  11.534
82439W        W54699  15.601  34.395  12.893
82440W        W54700  23.073   1.270   2.253
82441W        W54701  31.908  38.560  13.509
82442W        W54702  34.452  33.482  11.025
82443W        W54703   6.728   8.684   0.902
82444W        W54704  28.679  33.981  14.498
82445W        W54705  35.435  21.582  10.486
82446W        W54706  31.431  16.773   1.856
82447W        W54707  13.282  25.143   2.386
82448W        W54708  29.505  20.166  12.545
82449W        W54709  40.440  29.142  11.492
82450W        W54710  24.086  15.654   5.106
82451W        W54711  21.163  35.544  14.778
82452W        W54712  43.361   0.912   9.984
82453W        W54713  19.157  11.280  14.368
82454W        W54714  29.610  12.697   2.683
82455W        W54715  17.674  39.390   1.883
82456W        W54716   5.864   9.319  14.357
82457W        W54717   5.836  30.626   2.218
82458W        W54718   4.295  23.025  11.388
82459W        W54719  37.561  16.800  10.571
82460W        W54720  11.707  40.380   3.681
82461W        W54721  35.925  12.154   3.702
82462W        W54722   1.449   6.891   3.849
82463W        W54723  11.287  23.156  11.048
82464W        W54724  37.898  33.459   2.727
82465W        W54725   1.785  34.913  11.110
82466W        W54726  15.267  28.134   1.894
82467W        W54727  43.497  42.789  10.922
82468W        W54728  34.436   7.375  12.915
82469W        W54729   9.200  13.192   0.300
82470W        W54730  19.647   3.328  14.963
82471W        W54731  24.130  14.124  12.566
82472W        W54732  32.600  36.953   0.481
82473W        W54733  42.424  41.869   1.897
82474W        W54734  28.633  34.885  10.077
82475W        W54735   4.290  35.101  11.434
82476W        W54736  17.684  37.344   3.317
82477W        W54737  25.055  42.306   4.694
82478W        W54738  24.667  23.582   2.738
82479W        W54739  36.495  28.536   0.440
82480W        W54740  13.712  12.246  13.384
82481W        W54741  12.799  22.251  13.876
82482W        W54742  36.388  17.300  14.856
82483W        W54743  27.024  41.526   2.387
82484W        W54744  36.846  44.418   1.823
82485W        W54745  13.754  10.636   2.880
82486W        W54746  39.883  38.351  12.405
82487W        W54747  43.295  17.124  12.344
82488W        W54748  35.895  19.677   3.244
82489W        W54749   8.175  19.280   0.345
82490W        W54750  37.390  33.072   3.754
82491W        W54751  36.388  18.628   4.296
82492W        W54752  33.555  13.707   1.856
82493W        W54753  39.921   9.287   1.307
82494W        W54754   1.869  29.057  10.520
82495W        W54755  17.134  16.202  12.377
82496W        W54756  22.532   8.352   4.183
82497W        W54757  24.721  13.705  11.588
82498W        W54758  43.773   4.719  10.039
82499W        W54759  42.949  42.334  12.531
82500W        W54760  14.785  34.106  11.944
82501W        W54761  37.451  38.076  14.975
82502W        W54762  35.095  42.372   2.301
82503W        W54763  31.515   0.777   4.653
82504W        W54764  44.294  16.715   1.443
82505W        W54765  13.756   0.283  10.922
82506W        W54766  21.740  15.292   1.804
82507W        W54767  41.853  44.802   4.268
82508W        W54768  38.408  18.063   0.937
82509W        W54769   2.761  16.173  13.378
82510W        W54770  30.913  12.761  10.929
82511W        W54771  39.373  15.586   2.687
82512W        W54772  36.362  33.969  10.404
82513W        W54773   4.247  29.936  13.319
82514W        W54774  15.658  29.035  13.430
82515W        W54775  38.473   5.911   2.780
82516W        W54776  44.478  22.702  13.358
82517W        W54777  30.008  44.980  11.054
82518W        W54778  15.777  15.735  11.551
82519W        W54779  13.649  26.058  14.915
82520W        W54780  12.750  37.029  10.554
82521W        W54781  17.728  12.162   0.481
82522W        W54782  31.082  34.489   2.415
82523W        W54783  22.198  39.949   1.255
82524W        W54784  24.123  32.419   2.762
82525W        W54785  33.466   5.884   2.329
82526W        W54786  12.333  26.504   2.872
82527W        W54787  18.746   8.851  12.382
82528W        W54788  26.484  38.988  12.993
82529W        W54789  28.447   0.806   3.682
82530W        W54790  34.432  36.592  10.477
82531W        W54791   1.962  36.523   2.823
82532W        W54792   7.830  16.677  14.775
82533W        W54793  22.519  41.839   1.258
82534W        W54794  36.390   1.897  14.424
82535W        W54795  11.242  31.558   3.234
82536W        W54796  20.190  21.532   2.346
82537W        W54797   3.911  19.231   3.171
82538W        W54798  39.498  17.064  14.947
82539W        W54799  36.005  41.927  10.629
82540W        W54800  33.883   9.289  12.486
82541W        W54801  44.938   1.836  14.280
82542W        W54802   8.303   4.293  12.979
82543W        W54803  41.822  21.211  10.991
82544W        W54804  17.280   2.385  11.012
82545W        W54805  13.695  23.049  10.941
82546W        W54806  34.951  20.749  12.373
82547W        W54807   1.731   7.778  13.826
82548W        W54808  16.233  35.994   1.303
82549W        W54809  28.524   7.742   3.768
82550W        W54810   9.871  41.393   2.326
82551W        W54811  22.550  32.521  13.028
82552W        W54812  11.808  30.147   9.518
82553W        W54813  26.026  44.008   1.818
82554W        W54814  13.717  31.113   4.255
82555W        W54815  13.719  30.097   2.889
82556W        W54816  43.376   1.468   0.949
82557W        W54817   4.798   0.836  14.363
82558W        W54818  15.596  17.062   3.230
82559W        W54819   0.437  21.649  12.069
82560W        W54820  23.119  21.608   2.406
82561W        W54821  28.994  16.660   1.864
82562W        W54822  11.771  43.429  10.550
82563W        W54823  21.748  21.585  11.902
82564W        W54824   7.778  43.885   1.713
82565W        W54825   3.223  32.082  12.419
82566W        W54826  24.493  36.352   1.872
82567W        W54827  40.904  42.889  14.994
82568W        W54828  16.598  43.461   1.829
82569W        W54829  11.190  29.478   4.133
82570W        W54830  32.450  16.230   2.303
82571W        W54831   5.234  44.276   4.258
82572W        W54832  28.559  12.145   0.794
82573W        W54833  34.390   0.468   4.692
82574W        W54834  42.821  26.632  14.395
82575W        W54835  33.094  22.125  12.070
82576W        W54836  30.018  24.628   2.299
82577W        W54837  37.055  12.180   1.824
82578W        W54838  20.575  22.997  11.107
82579W        W54839  14.146  39.317  12.431
82580W        W54840   4.714  33.567   4.338
82581W        W54841   3.780  25.213   3.212
82582W        W54842   8.686  25.657   2.708
82583W        W54843  19.672  38.992   0.287
82584W        W54844  14.270   4.934   5.281
82585W        W54845  21.136  37.844   2.666
82586W        W54846   9.729  41.954  13.998
82587W        W54847  11.243  20.596  10.551
82588W        W54848  16.701   1.762   2.274
82589W        W54849  38.389   9.889  13.806
82590W        W54850  36.563  43.920  12.475
82591W        W54851  39.883  23.209   0.816
82592W        W54852  23.151  24.089   0.292
82593W        W54853  14.311   0.266   3.781
82594W        W54854  24.580  15.738  12.475
82595W        W54855  15.089  19.257   1.395
82596W        W54856  28.048  16.095   1.777
82597W        W54857  10.147  40.445  12.480
82598W        W54858  22.567  34.064   3.163
82599W        W54859  10.657  25.586   4.300
82600W        W54860  41.494  23.102  10.910
82601W        W54861  24.100  44.370  14.345
82602W        W54862  13.185  28.628  11.867
82603W        W54863  28.007  15.633   4.751
82604W        W54864  25.069  21.153   3.319
82605W        W54865  35.003  23.503  12.545
82606W        W54866  38.993  34.531  11.407
82607W        W54867  32.405   4.298   2.280
82608W        W54868  20.041   3.905  10.410
82609W        W54869  12.682  22.503   1.330
82610W        W54870  24.132  11.848   2.678
82611W        W54871   2.387  39.352  13.419
82612W        W54872  31.644  31.004  13.547
82613W        W54873   7.700  38.936   0.829
82614W        W54874  12.300  13.134  13.839
82615W        W54875  33.055  26.995   1.320
82616W        W54876  21.715   3.259   5.183
82617W        W54877  32.603  41.044  13.943
82618W        W54878  39.466  15.276   1.861
82619W        W54879  32.970  44.762   0.736
82620W        W54880  25.561  41.472  10.476
82621W        W54881   5.329   4.343   3.275
82622W        W54882  32.921  16.807   4.651
82623W        W54883   8.188  40.464  12.969
82624W        W54884   8.390  16.121  12.985
82625W        W54885  16.159   5.405   2.707
82626W        W54886  17.594  36.591  14.825
82627W        W54887  24.224   7.339  11.453
82628W        W54888  29.572  38.522  11.974
82629W        W54889  35.010  24.595   2.794
82630W        W54890  18.668  37.431   2.670
82631W        W54891  24.110  11.354  10.497
82632W        W54892  11.699   2.851  12.863
82633W        W54893   7.352  44.969  10.619
82634W        W54894  19.750  38.524  12.951
82635W        W54895  10.849  15.225  14.325
82636W        W54896  13.710  19.183  13.847
82637W        W54897  24.200   8.870   4.719
82638W        W54898  39.545   3.348   3.300
82639W        W54899  38.072  31.897   4.190
82640W        W54900  34.881   3.798   4.292
82641W        W54901  15.607  29.572   4.634
82642W        W54902  37.850  22.725   4.260
82643W        W54903  28.659  41.872   2.664
82644W        W54904  39.835  23.073   3.766
82645W        W54905  38.343  26.972  13.525
82646W        W54906  13.839   2.961  13.019
82647W        W54907  42.483  43.314   4.304
82648W        W54908  11.824  33.064   2.800
82649W        W54909   1.807   5.702   1.249
82650W        W54910   3.733   2.349  12.046
82651W        W54911  32.910  36.434  13.456
82652W        W54912   6.249   6.800  14.456
82653W        W54913  38.033  35.044   2.196
82654W        W54914   5.284   4.890   3.775
82655W        W54915  41.016  18.244  13.310
82656W        W54916   7.328  27.457  12.034
82657W        W54917  40.321   7.389  11.105
82658W        W54918   8.727  15.283   3.721
82659W        W54919   4.215  11.193  13.992
82660W        W54920  20.169   9.860   3.246
82661W        W54921  34.885  25.624   3.637
82662W        W54922   8.287  28.154   0.770
82663W        W54923  14.247  16.205  14.880
82664W        W54924  34.054  30.539  11.978
82665W        W54925  23.736  10.363  11.581
82666W        W54926  16.633   4.933   3.192
82667W        W54927  34.999  25.002  14.443
82668W        W54928  27.469   5.379   3.796
82669W        W54929  28.005  22.040  14.871
82670W        W54930  38.514  20.633  13.433
82671W        W54931  33.544  40.546  11.110
82672W        W54932  25.079  14.752  14.957
82673W        W54933  32.570  41.387  13.520
82674W        W54934  32.506  17.766  14.799
82675W        W54935  28.158  15.631  11.129
82676W        W54936  44.909   2.736  12.562
82677W        W54937  24.582  10.755  11.856
82678W        W54938  30.556  37.374  11.878
82679W        W54939  11.180  21.029  14.001
82680W        W54940  16.280   4.282  12.419
82681W        W54941   7.839  11.343   0.845
82682W        W54942  42.458  14.642  12.570
82683W        W54943   8.196  33.015  12.520
82684W        W54944   3.374  34.420  14.432
82685W        W54945  23.736   1.737   4.310
82686W        W54946   6.298  42.974   0.887
82687W        W54947   4.225   1.736  11.071
82688W        W54948  25.134  37.888   4.276
82689W        W54949  31.048   4.891  13.873
82690W        W54950  18.665   0.805  10.585
82691W        W54951  39.835   9.679   1.425
82692W        W54952  40.510  29.944   3.228
82693W        W54953  40.396  43.015   3.242
82694W        W54954   9.825  17.766   1.908
82695W        W54955  23.185  18.276   4.318
82696W        W54956  41.345  27.519  10.979
82697W        W54957  24.000   7.272   2.299
82698W        W54958  32.936  11.773   2.733
82699W        W54959  42.352   0.766  13.425
82700W        W54960  17.124   9.191   0.897
82701W        W54961   9.363  44.888   3.700
82702W        W54962   5.913  19.637  14.942
82703W        W54963  38.876  38.933   3.315
82704W        W54964  18.681  38.392  10.591
82705W        W54965  11.300  40.326  14.383
82706W        W54966  33.527  26.629   3.816
82707W        W54967  34.884  37.476   1.359
82708W        W54968  11.635  26.515   0.255
82709W        W54969  41.311  13.276   0.926
82710W        W54970   6.782  16.607  14.443
82711W        W54971  43.866  12.221  13.468
82712W        W54972  21.043  13.219  13.344
82713W        W54973  26.672  19.111  11.406
82714W        W54974  39.477  29.444   0.341
82715W        W54975  13.820  13.312   1.851
82716W        W54976  38.494  37.937   0.966
82717W        W54977  26.568  11.626  12.071
82718W        W54978  32.047  36.420   1.698
82719W        W54979  20.098   6.899   1.214
82720W        W54980  38.826  26.118  12.367
82721W        W54981   7.378  17.643   2.400
82722W        W54982  39.425  37.577  14.360
82723W        W54983  35.889  40.511   0.245
82724W        W54984  22.084   6.811   1.300
82725W        W54985  33.945  20.641   0.384
82726W        W54986  37.438  20.237   4.620
82727W        W54987  25.989  25.679   2.892
82728W        W54988  20.256   8.800  11.899
82729W        W54989  29.612  12.747  14.424
82730W        W54990  19.128  37.948   1.828
82731W        W54991  18.225   0.479   1.866
82732W        W54992  33.915   8.292   0.301
82733W        W54993  16.615  31.932   0.791
82734W        W54994  29.488   6.876  10.511
82735W        W54995  37.966  25.050   2.900
82736W        W54996  41.832  31.926   4.153
82737W        W54997   2.776  35.421   4.686
82738W        W54998  11.805  33.034   1.756
82739W        W54999   4.822  24.689   3.237
82740W        W55000  29.096   9.172   3.257
82741W        W55001   2.892  29.947  12.474
82742W        W55002  44.933   0.797  11.430
82743W        W55003  20.099  40.358   1.926
82744W        W55004   7.219   1.933   4.162
82745W        W55005   2.885  26.191  12.019
82746W        W55006  20.054  20.069   0.881
82747W        W55007  40.811   6.762   1.794
82748W        W55008  17.075   8.662  11.498
82749W        W55009  39.016  30.908  12.085
82750W        W55010  27.962  10.292  13.944
82751W        W55011  19.093  32.548   4.300
82752W        W55012  44.473  30.496  10.032
82753W        W55013   6.338   0.894   1.392
82754W        W55014  37.859  43.952  14.482
82755W        W55015  36.986   4.220   2.865
82756W        W55016  23.735  14.652   2.766
82757W        W55017  37.482  37.027  14.948
82758W        W55018  29.125  17.740  14.933
82759W        W55019  32.470  28.564  10.451
82760W        W55020  31.503  20.552  12.454
82761W        W55021  24.633   7.181   0.284
82762W        W55022  40.981  35.083  12.992
82763W        W55023  38.392  21.201  10.482
82764W        W55024  16.609  14.803   1.283
82765W        W55025  37.926  17.197  11.935
82766W        W55026  17.259  26.501  14.914
82767W        W55027  33.897  23.156   3.315
82768W        W55028  25.158  16.078  14.508
82769W        W55029   8.710   3.814  13.474
82770W        W55030  10.778  15.273  14.023
82771W        W55031  38.482  44.992   3.757
82772W        W55032  44.372  33.503  10.601
82773W        W55033  43.503  15.228  10.978
82774W        W55034  27.077  12.695  13.394
82775W        W55035   9.749  42.778   2.749
82776W        W55036   9.772  18.102  12.028
82777W        W55037  24.568  27.544  13.478
82778W        W55038  10.706  30.053  14.375
82779W        W55039  16.779  23.042  14.343
82780W        W55040  31.063  22.219  11.122
82781W        W55041  27.087  36.529  12.945
82782W        W55042  13.808  13.774   3.639
82783W        W55043  20.567   4.358   3.353
82784W        W55044  34.939  24.482   3.717
82785W        W55045  23.043  27.656   4.721
82786W        W55046  44.892   2.372   0.759
82787W        W55047  15.161   9.688   1.920
82788W        W55048  11.158  35.004  13.400
82789W        W55049  29.938   9.871  14.880
82790W        W55050  18.292  22.654  14.951
82791W        W55051  17.291  33.530   3.345
82792W        W55052   2.458  44.872   0.809
82793W        W55053   6.857  17.123  12.892
82794W        W55054  16.664   5.873  12.525
82795W        W55055  31.449  18.179  14.857
82796W        W55056  23.549  33.981  14.859
82797W        W55057  41.810   0.363   1.757
82798W        W55058  23.153  17.288   4.811
82799W        W55059  31.615  32.053   2.403
82800W        W55060  38.859   0.444   1.836
82801W        W55061   0.488  17.733  13.319
82802W        W55062  39.887  17.578  11.011
82803W        W55063  29.057  36.068   4.174
82804W        W55064  40.488  16.652   2.825
82805W        W55065   9.198  14.321   4.167
82806W        W55066  38.401  26.182   4.299
82807W        W55067  22.097  11.255   4.146
82808W        W55068   0.489   8.775   3.188
82809W        W55069  25.125  25.100   3.743
82810W        W55070   6.705   3.339  12.537
82811W        W55071  32.921  41.406  12.088
82812W        W55072   4.726   7.827  12.913
82813W        W55073  40.465  18.663   4.265
82814W        W55074  22.194  41.527  11.073
82815W        W55075  41.497  35.931   0.784
82816W        W55076  42.821   6.788  14.494
82817W        W55077  41.946   2.230   2.189
82818W        W55078  12.703  35.399   0.367
82819W        W55079  43.973  15.305  10.568
82820W        W55080   7.791  26.503   9.508
82821W        W55081  20.212  38.404   1.830
82822W        W55082  32.513  10.647   2.348
82823W        W55083  28.485  23.647  12.546
82824W        W55084  34.118   7.394  14.907
82825W        W55085   4.924  38.564  13.026
82826W        W55086  34.609  29.446  10.965
82827W        W55087  15.778  24.007   0.316
82828W        W55088  43.771  20.123   4.203
82829W        W55089   5.409  28.552   0.322
82830W        W55090  40.858  20.067  11.538
82831W        W55091  32.493  11.135  11.866
82832W        W55092  41.335  23.172   0.740
82833W        W55093  18.238  40.047   4.677
82834W        W55094  10.747   1.855  14.790
82835W        W55095  23.691  28.506  11.489
82836W        W55096   1.434  26.113  11.558
82837W        W55097  11.168  29.483   0.910
82838W        W55098  15.612   8.761   4.162
82839W        W55099  40.895   9.650   0.245
82840W        W55100  17.067  11.751  13.377
82841W        W55101   5.721   0.818   0.439
82842W        W55102  28.050  23.012   3.663
82843W        W55103  17.099  40.337  14.881
82844W        W55104  41.866  26.111   2.327
82845W        W55105   0.402  38.413   4.690
82846W        W55106  37.979  44.467   0.754
82847W        W55107  14.147  42.419  11.414
82848W        W55108   8.832  17.582   3.855
82849W        W55109  16.099  21.734   2.671
82850W        W55110   0.769  13.780   4.689
82851W        W55111  44.914   3.766   1.823
82852W        W55112  41.014  23.681   0.399
82853W        W55113  31.021  19.585   4.162
82854W        W55114   5.845  35.009   2.344
82855W        W55115  29.120  28.132  13.361
82856W        W55116   4.708   2.941  11.588
82857W        W55117  28.482  43.934  14.948
82858W        W55118  36.574  15.099   3.638
82859W        W55119   6.362  21.245  13.963
82860W        W55120  40.902  18.228   0.412
82861W        W55121  41.026  19.052   4.265
82862W        W55122  20.628  26.636  13.452
82863W        W55123  13.660  33.578  14.439
82864W        W55124  22.741  20.581   4.633
82865W        W55125  28.528  10.638   2.717
82866W        W55126  41.963  17.114   5.276
82867W        W55127  34.407  41.913  12.500
82868W        W55128   0.927  16.314  11.968
82869W        W55129  22.195  20.041   5.111
82870W        W55130  38.475  39.813   0.758
82871W        W55131  35.436  18.117   2.835
82872W        W55132  14.597   6.777  13.991
82873W        W55133  37.046  43.972  12.045
82874W        W55134  26.042  42.469   0.470
82875W        W55135  29.926   5.863   1.876
82876W        W55136   4.927  43.925  14.460
82877W        W55137  38.864   1.781  14.867
82878W        W55138  28.046  18.205  11.526
82879W        W55139  12.303  15.283  14.991
82880W        W55140   5.216  22.161  13.475
82881W        W55141  30.642  15.290  14.003
82882W        W55142  10.284  18.104  12.911
82883W        W55143   5.390  31.536  13.003
82884W        W55144  30.619  40.514   1.749
82885W        W55145  34.401   5.891  14.769
82886W        W55146  12.692   4.790   1.912
82887W        W55147   8.881   9.786  10.422
82888W        W55148   1.415  17.624  11.420
82889W        W55149   8.767  14.276  11.423
82890W        W55150  41.348  36.878   4.332
82891W        W55151  19.568  13.313   1.902
82892W        W55152  28.663  14.201  14.497
82893W        W55153  22.007  41.875  10.426
82894W        W55154  32.497  23.067  13.534
82895W        W55155  29.560  23.641   2.194
82896W        W55156  18.618  16.106  12.426
82897W        W55157  44.431   7.740   3.332
82898W        W55158  28.526  36.969   1.351
82899W        W55159  11.328  28.465  12.018
82900W        W55160  28.087  35.028  11.520
82901W        W55161   1.329  18.643   1.751
82902W        W55162  43.351   9.209   4.607
82903W        W55163   6.291   8.756  12.912
82904W        W55164  11.312  42.306  11.915
82905W        W55165  13.824  18.224  11.418
82906W        W55166  39.894   5.869  13.392
82907W        W55167  24.152  24.560  10.953
82908W        W55168  35.081  38.483   4.257
82909W        W55169  20.136   6.705  11.068
82910W        W55170   4.883  17.195  14.337
82911W        W55171   1.298  33.952  12.552
82912W        W55172  11.253  22.715   2.811
82913W        W55173  23.542   3.253   0.805
82914W        W55174   5.755  25.623   3.666
82915W        W55175  10.644   4.866   3.860
82916W        W55176  24.007  13.308  11.065
82917W        W55177  43.964  35.869   3.328
82918W        W55178  42.354  41.472  13.346
82919W        W55179  15.281  23.636  13.944
82920W        W55180  20.150  12.843  11.891
82921W        W55181  26.100  42.933  14.810
82922W        W55182   8.687   4.326   1.323
82923W        W55183   3.352  12.809  10.529
82924W        W55184   3.908  26.041   1.696
82925W        W55185  21.627  12.230   4.173
82926W        W55186  39.871  10.323   2.785
82927W        W55187  42.804   1.950   3.658
82928W        W55188  30.022  37.548   3.813
82929W        W55189  10.749  21.679  12.048
82930W        W55190  20.065  31.628  11.506
82931W        W55191   4.929   2.784  14.503
82932W        W55192   5.742  19.060  12.835
82933W        W55193  37.538  44.945   4.627
82934W        W55194  17.082   1.747  10.566
82935W        W55195  38.928   6.748   4.831
82936W        W55196  26.661   1.390   3.869
82937W        W55197  14.202  20.195  12.483
82938W        W55198  41.005  38.365  11.996
82939W        W55199  34.037  41.948  13.892
82940W        W55200  28.534  27.653   1.909
82941W        W55201   7.767  11.204   1.760
82942W        W55202  16.080   0.898   1.750
82943W        W55203  28.470  44.874   0.926
82944W        W55204   1.344  27.517  12.358
82945W        W55205  22.651   4.281   2.371
82946W        W55206  36.968  36.574  13.897
82947W        W55207  30.066   7.321  10.996
82948W        W55208  11.254  16.740   0.267
82949W        W55209  43.872   3.749   3.835
82950W        W55210  13.674  41.499  12.025
82951W        W55211  28.012  40.001   2.806
82952W        W55212  42.935   4.360   0.467
82953W        W55213  44.819   1.259   4.665
82954W        W55214  22.543  17.634   1.378
82955W        W55215   3.860   1.395  13.996
82956W        W55216  12.620  38.451  11.032
82957W        W55217  14.106  44.001  11.476
82958W        W55218  34.066  17.651   1.301
82959W        W55219  43.458  38.382   3.641
82960W        W55220  25.597  21.758  12.560
82961W        W55221  23.694  16.118   2.782
82962W        W55222   9.697  33.931  12.959
82963W        W55223   0.986  37.021   4.263
82964W        W55224  22.653  12.236  13.861
82965W        W55225   2.846  26.952  13.794
82966W        W55226  24.635  16.244   1.377
82967W        W55227  25.034  19.715  14.329
82968W        W55228  20.702   1.919  14.373
82969W        W55229  23.219   9.329  10.597
82970W        W55230  10.291  30.121  12.830
82971W        W55231  23.154  10.296  14.989
82972W        W55232   0.358  11.239   4.330
82973W        W55233  41.798  18.131   5.183
82974W        W55234  22.182   7.202  12.496
82975W        W55235   4.743   5.773  13.937
82976W        W55236  15.316  17.722   0.925
82977W        W55237  18.618  26.990   1.348
82978W        W55238  17.260   9.257  12.890
82979W        W55239   1.398   9.769   1.264
82980W        W55240   6.413  20.143  10.584
82981W        W55241  33.405  35.909   3.163
82982W        W55242  11.830  33.948   0.968
82983W        W55243  31.423  36.943  12.562
82984W        W55244   1.822  24.039   3.336
82985W        W55245  26.479   5.262  14.828
82986W        W55246  39.431   2.877  14.841
82987W        W55247  18.741  19.050  10.943
82988W        W55248  39.505  42.904  14.834
82989W        W55249   7.171  23.144  12.389
82990W        W55250  35.970  15.225  11.597
82991W        W55251  18.588   0.842   0.333
82992W        W55252  15.674  26.036   0.892
82993W        W55253   0.319  43.452  13.040
82994W        W55254  27.097   2.729  12.973
82995W        W55255   7.217  28.965   3.808
82996W        W55256  34.463   3.713  14.369
82997W        W55257   8.229  32.001   4.831
82998W        W55258  42.983  24.716   2.899
82999W        W55259  43.973  40.409   4.664
83000W        W55260  13.704   2.283  14.390
83001W        W55261  33.545  18.776  10.987
83002W        W55262  39.435  34.559   0.850
83003W        W55263  20.741  41.372  10.437
83004W        W55264  26.063   0.921   1.785
83005W        W55265  32.524  25.537   0.831
83006W        W55266   7.798  24.991   9.979
83007W        W55267   9.310   7.305   1.295
83008W        W55268  30.614   0.965  10.638
83009W        W55269  24.001   5.804   0.918
83010W        W55270  37.493   3.746   4.719
83011W        W55271   9.349   1.854  10.922
83012W        W55272  30.551  32.998   4.793
83013W        W55273  40.839  23.200  10.520
83014W        W55274  28.178  31.122  10.640
83015W        W55275  33.980  29.062  13.957
83016W        W55276  38.453  25.513   4.823
83017W        W55277   2.288  34.976   2.752
83018W        W55278   3.400   7.239   0.830
83019W        W55279   2.373  11.841   1.883
83020W        W55280   2.291  38.365  12.480
83021W        W55281   2.878  21.241  14.935
83022W        W55282  28.945  39.041  11.890
83023W        W55283  44.932  35.046  12.988
83024W        W55284  40.839  17.696   1.897
83025W        W55285  33.943  20.670   0.876
83026W        W55286  33.905  14.669  12.379
83027W        W55287  14.788   1.251  11.531
83028W        W55288   6.723   7.361   4.305
83029W        W55289  30.155  15.695  12.506
83030W        W55290  33.489  27.943   4.660
83031W        W55291  44.938   1.961   3.691
83032W        W55292  37.979  20.726   0.726
83033W        W55293   6.735  23.159  11.414
83034W        W55294   5.434  19.657   4.819
83035W        W55295  25.992  38.967  11.508
83036W        W55296  14.612  28.494  10.611
83037W        W55297  24.166  21.073   0.834
83038W        W55298  37.055   8.198  10.896
83039W        W55299  17.701  25.165   0.729
83040W        W55300  27.184  17.702   4.217
83041W        W55301  22.708  36.865   0.435
83042W        W55302  43.343  33.130  14.881
83043W        W55303  34.082   3.375   2.395
83044W        W55304  41.946   7.823  11.384
83045W        W55305  30.435  22.505   0.330
83046W        W55306  15.206  36.848  11.977
83047W        W55307   4.361  17.597  14.938
83048W        W55308  24.714   3.886  14.931
83049W        W55309  40.847  34.882   0.769
83050W        W55310  43.303  13.758  13.838
83051W        W55311  22.586   2.964  14.902
83052W        W55312  29.085   8.804   0.319
83053W        W55313   3.298  39.495  11.879
83054W        W55314  21.726  27.947  13.391
83055W        W55315  19.238  39.440  12.413
83056W        W55316   0.416  23.620  11.037
83057W        W55317  34.435   0.326  14.776
83058W        W55318   2.307  17.613   1.332
83059W        W55319   7.365   2.278   4.676
83060W        W55320  26.688  14.727  13.479
83061W        W55321  14.759  24.197   4.203
83062W        W55322  28.469  35.591  14.889
83063W        W55323  33.418   1.901  12.878
83064W        W55324  42.433   9.878  10.410
83065W        W55325  33.118  22.722   2.882
83066W        W55326  23.046  25.065  11.383
83067W        W55327  26.534  43.385   4.292
83068W        W55328  43.918   7.253   1.806
83069W        W55329   9.280  12.235  13.059
83070W        W55330  39.330   5.734   4.620
83071W        W55331  40.963  27.648   0.272
83072W        W55332  41.337  44.415  10.578
83073W        W55333  32.032  41.371  13.832
83074W        W55334   1.769   5.755   3.313
83075W        W55335  33.937   7.396  14.487
83076W        W55336   4.897  40.835   1.794
83077W        W55337  39.027  15.307  12.889
83078W        W55338  37.885   0.855   3.720
83079W        W55339  15.605  17.672  12.861
83080W        W55340  24.157  44.864   0.902
83081W        W55341  38.877  34.478  14.846
83082W        W55342  12.649  42.865   4.734
83083W        W55343  44.270  30.600  10.927
83084W        W55344  27.974  22.531   3.231
83085W        W55345  20.714   7.328  12.027
83086W        W55346  33.509  34.989  10.453
83087W        W55347  15.272  39.490  14.981
83088W        W55348   2.935  31.487  13.379
83089W        W55349   3.220  19.208  10.474
83090W        W55350   8.302  40.001   3.806
83091W        W55351   3.251   9.747   1.843
83092W        W55352  31.080   6.911  14.301
83093W        W55353  35.971  16.697   0.465
83094W        W55354  17.557   7.766  10.075
83095W        W55355  19.168  37.432  11.043
83096W        W55356  30.548  42.515  13.893
83097W        W55357  30.456  34.009  10.912
83098W        W55358  40.893  16.696  14.456
83099W        W55359  30.637  28.587  12.512
83100W        W55360  29.631   0.364   3.661
83101W        W55361  11.763  20.634   2.200
83102W        W55362  14.149   1.766  11.896
83103W        W55363   7.364  38.069   3.828
83104W        W55364  23.224  18.644   4.604
83105W        W55365  39.411  40.510   2.903
83106W        W55366  44.385   8.889   1.394
83107W        W55367  43.961  34.061   2.355
83108W        W55368   1.946  33.012   2.183
83109W        W55369  26.163  29.025  11.482
83110W        W55370  32.532  28.571   4.332
83111W        W55371   0.272   4.358   4.815
83112W        W55372   8.833  43.271   4.651
83113W        W55373  14.777  38.945   1.364
83114W        W55374   9.367  16.291  12.841
83115W        W55375   1.449  28.166   3.704
83116W        W55376  37.079   5.846  13.838
83117W        W55377  14.286  30.434  10.584
83118W        W55378  16.288  27.645  14.008
83119W        W55379  13.819  21.040   2.232
83120W        W55380   5.392  38.541   0.845
83121W        W55381  30.640  12.259   4.309
83122W        W55382  43.817  41.833  12.948
83123W        W55383  24.639   1.968  13.488
83124W        W55384  43.961  33.109   0.442
83125W        W55385  10.836  23.733  14.336
83126W        W55386  42.390  22.178  13.901
83127W        W55387  17.670  21.602   0.442
83128W        W55388  42.819  32.025   5.115
83129W        W55389  37.085  25.526   1.729
83130W        W55390  17.676  40.797  13.880
83131W        W55391  16.602  43.346   4.270
83132W        W55392   1.748  26.003   0.388
83133W        W55393   7.362  21.617  14.973
83134W        W55394  31.510  24.225   4.162
83135W        W55395  26.147   5.351   3.232
83136W        W55396  22.539   1.362   2.352
83137W        W55397   9.201  26.008  11.937
83138W        W55398  16.665  33.039  12.377
83139W        W55399  43.913  30.488  10.917
83140W        W55400  25.700  15.689  10.535
83141W        W55401  23.622  29.650   0.960
83142W        W55402   4.369   2.774   1.808
83143W        W55403  11.745  12.685   4.716
83144W        W55404  24.617  42.816  12.930
83145W        W55405   2.289  21.574  14.958
83146W        W55406  22.008  31.627  11.028
83147W        W55407  20.593  20.653   3.645
83148W        W55408  28.672  10.324  14.467
83149W        W55409  26.075  29.568  11.900
83150W        W55410  18.609   8.365  12.379
83151W        W55411  23.590  30.501  14.414
83152W        W55412  22.707   7.667   0.845
83153W        W55413  34.578  26.612   1.829
83154W        W55414   1.431  42.321  13.960
83155W        W55415  15.711  41.856   0.953
83156W        W55416  15.214   3.240  12.428
83157W        W55417  26.475  38.876  10.636
83158W        W55418  32.920   0.978   4.194
83159W        W55419  16.157  13.760  12.412
83160W        W55420  17.663   8.342  14.030
83161W        W55421  26.498  13.657  14.812
83162W        W55422  29.092  36.057   2.384
83163W        W55423  15.244  19.595  10.614
83164W        W55424  29.574   0.806   5.118
83165W        W55425  19.158   8.405   5.199
83166W        W55426  33.559  12.847  13.511
83167W        W55427  40.360   5.385  12.949
83168W        W55428  38.464  40.494  11.929
83169W        W55429   9.758  42.318  10.921
83170W        W55430  30.080  17.078   4.617
83171W        W55431  37.484  18.546  11.445
83172W        W55432  44.956  14.326  14.501
83173W        W55433  29.584   3.234   0.794
83174W        W55434  10.698  42.836  13.039
83175W        W55435  23.230  16.721   4.244
83176W        W55436  36.964  32.109   1.217
83177W        W55437   9.739   0.339  12.964
83178W        W55438   9.251  40.007   1.846
83179W        W55439  16.628  22.689  13.393
83180W        W55440  23.027  22.109   2.813
83181W        W55441  14.311  40.962  10.936
83182W        W55442   7.391  33.892  14.020
83183W        W55443   0.897  26.114   1.811
83184W        W55444  44.449  39.963   5.249
83185W        W55445  34.475   9.888   1.384
83186W        W55446  43.480  11.718   2.808
83187W        W55447  20.693   7.240   4.695
83188W        W55448  12.329  19.159   2.400
83189W        W55449   8.877  10.351  11.081
83190W        W55450  37.339  42.016   5.148
83191W        W55451  12.723  22.208  10.953
83192W        W55452   9.682   9.305   0.837
83193W        W55453  44.838  29.586   0.758
83194W        W55454   1.282  30.503   0.775
83195W        W55455   9.204  30.659   2.351
83196W        W55456  30.033  21.565  13.419
83197W        W55457  35.980  24.006  13.497
83198W        W55458  36.050  30.154  11.855
83199W        W55459  31.515   6.377  11.565
83200W        W55460   0.293  29.468   0.937
83201W        W55461  14.104  10.153   1.713
83202W        W55462  17.612  12.666  13.438
83203W        W55463  37.507  20.144   4.254
83204W        W55464   0.262  22.110  12.375
83205W        W55465  15.139  35.050   2.769
83206W        W55466  11.666  14.176  11.920
83207W        W55467  23.103  32.513   4.303
83208W        W55468  43.881  43.294  11.564
83209W        W55469  39.454   2.831   0.762
83210W        W55470  10.294  40.867   2.793
83211W        W55471  43.909  21.538   3.743
83212W        W55472  31.146  35.439  14.382
83213W        W55473  20.532   9.862  13.827
83214W        W55474  37.842  29.011   2.321
83215W        W55475  32.542  39.945  14.467
83216W        W55476   5.316  22.116  14.967
83217W        W55477  36.089  44.884   4.223
83218W        W55478  11.759  26.640  14.020
83219W        W55479  21.089  43.883   4.768
83220W        W55480   3.337  14.103   4.816
83221W        W55481  12.116  38.032  13.809
83222W        W55482  22.228  16.212   0.939
83223W        W55483  23.035  22.096  14.963
83224W        W55484   6.883  10.289  14.488
83225W        W55485  24.707   4.905  12.444
83226W        W55486  12.298  25.055   4.603
83227W        W55487  25.983  20.195  10.925
83228W        W55488  43.979   1.470   4.635
83229W        W55489   0.440  26.183  11.919
83230W        W55490  20.100  15.096  14.807
83231W        W55491   1.731  12.194  11.951
83232W        W55492  18.058  14.151   1.891
83233W        W55493  12.645  25.979   3.166
83234W        W55494  18.295  11.135   0.368
83235W        W55495  10.737  42.447  12.570
83236W        W55496  43.882   6.746  12.983
83237W        W55497  13.730  30.978   0.377
83238W        W55498  26.209  19.635  12.394
83239W        W55499   0.893   2.282   3.191
83240W        W55500  32.070   7.348   2.859
83241W        W55501  36.976  37.372  14.417
83242W        W55502  14.206  36.421   4.254
83243W        W55503  13.665   9.352   1.769
83244W        W55504   1.312  11.726   2.301
83245W        W55505  36.369  13.274  13.953
83246W        W55506  26.583   5.362  10.957
83247W        W55507  23.686  39.002   3.368
83248W        W55508  41.011  35.061   3.286
83249W        W55509  25.666  23.687   3.659
83250W        W55510  20.057  28.978   4.801
83251W        W55511  11.367  14.265  12.387
83252W        W55512  15.696   0.273  10.083
83253W        W55513  30.101  43.306   1.870
83254W        W55514  11.236  27.484   0.942
83255W        W55515  36.375  23.131  14.452
83256W        W55516  14.099   7.262   2.211
83257W        W55517  35.958   3.844   1.214
83258W        W55518  26.537  25.181   9.940
83259W        W55519  28.609  29.527  13.517
83260W        W55520   5.718  11.247   0.288
83261W        W55521  20.524  14.671   0.939
83262W        W55522  25.109  28.485   3.206
83263W        W55523  14.736  32.601  10.580
83264W        W55524  22.233  38.536   0.451
83265W        W55525  44.373  18.245  10.911
83266W        W55526   4.358  15.094  11.091
83267W        W55527   0.777   2.250  13.448
83268W        W55528  22.676  15.243   3.871
83269W        W55529  38.346  42.321  10.483
83270W        W55530  22.514  16.306  11.478
83271W        W55531  13.706  36.042  13.868
83272W        W55532  39.402   3.405   0.407
83273W        W55533  20.692  38.066  10.917
83274W        W55534  13.199  37.356   2.409
83275W        W55535  30.989   1.772   2.361
83276W        W55536  23.050  37.959  10.529
83277W        W55537  10.745   1.806   4.292
83278W        W55538  34.001  18.689   1.373
83279W        W55539  31.588  23.017   1.909
83280W        W55540  22.722  17.211  14.289
83281W        W55541  21.600  11.836  14.499
83282W        W55542  34.471   6.333   4.617
83283W        W55543  36.015  12.760   1.351
83284W        W55544   4.775  37.020   3.234
83285W        W55545  42.020   6.917  14.422
83286W        W55546  27.545  18.695  14.415
83287W        W55547   1.881   6.380  13.934
83288W        W55548  27.538  18.067  13.347
83289W        W55549  20.753   8.868   1.439
83290W        W55550  23.196   3.752  11.115
83291W        W55551   3.449  31.634  12.071
83292W        W55552  27.092  37.933  14.926
83293W        W55553  13.123  27.026   2.224
83294W        W55554  16.198  29.029  11.420
83295W        W55555   2.829  10.654  11.394
83296W        W55556  16.190  41.508  12.344
83297W        W55557  35.600   8.364   4.808
83298W        W55558  28.956   0.829  10.583
83299W        W55559  32.887   1.464   3.643
83300W        W55560  35.531  39.503  11.983
83301W        W55561  23.663  30.984   2.396
83302W        W55562  11.358  26.488  13.033
83303W        W55563  32.493   4.430   0.276
83304W        W55564  23.994   7.346  11.969
83305W        W55565  25.671  30.476   2.225
83306W        W55566  13.802  17.737   1.374
83307W        W55567   2.242  21.650   4.700
83308W        W55568  15.772  19.611  12.015
83309W        W55569   2.297  36.486  14.952
83310W        W55570   1.938  35.411  11.372
83311W        W55571  15.629  19.079  10.578
83312W        W55572   1.287  40.970   2.230
83313W        W55573   6.379  11.691  14.799
83314W        W55574  40.382   0.936   5.257
83315W        W55575  36.979  24.121  11.916
83316W        W55576  27.692  11.224   0.873
83317W        W55577  10.338  38.504   4.607
83318W        W55578   4.941   0.806   2.778
83319W        W55579  12.190  10.721   1.789
83320W        W55580  40.874  22.040   4.290
83321W        W55581  39.326   2.280  14.843
83322W        W55582  20.163  43.487   4.646
83323W        W55583   7.740  23.007  11.018
83324W        W55584  34.945  40.506  13.398
83325W        W55585  38.532  27.071   3.218
83326W        W55586   6.214  11.237   0.841
83327W        W55587  29.600   3.889   0.325
83328W        W55588  16.711   0.413  11.013
83329W        W55589   7.889  42.400   0.261
83330W        W55590  37.445  29.477  11.112
83331W        W55591  33.410  33.620  13.954
83332W        W55592  11.309  32.899   4.183
83333W        W55593   3.216  20.077   3.186
83334W        W55594  17.140  11.627  14.843
83335W        W55595  43.967  30.007   1.699
83336W        W55596  19.284  39.971  14.420
83337W        W55597  15.216   7.684  12.993
83338W        W55598   7.396   4.209   3.208
83339W        W55599  18.622  38.049   2.211
83340W        W55600  17.623  36.059   4.139
83341W        W55601  12.157  20.156   1.856
83342W        W55602  11.683  15.300  11.002
83343W        W55603  44.374  38.988   0.746
83344W        W55604  30.586  13.805  14.988
83345W        W55605  43.935  26.657  11.919
83346W        W55606  30.430  38.072  13.814
83347W        W55607   5.921  38.344  14.832
83348W        W55608  21.516  38.459   2.695
83349W        W55609   2.864  26.525  13.421
83350W        W55610   2.227  14.643   3.346
83351W        W55611  21.263  30.470   9.974
83352W        W55612   4.307  13.637   0.374
83353W        W55613  16.318  15.578  10.643
83354W        W55614   0.801  33.051  12.540
83355W        W55615   7.675  40.425   9.967
83356W        W55616  32.051   0.773  11.380
83357W        W55617  20.640  35.425  12.935
83358W        W55618  21.628  27.541   4.733
83359W        W55619   4.309  36.353  11.463
83360W        W55620   7.679  38.403   4.147
83361W        W55621  34.574   6.879  11.912
83362W        W55622  37.992  30.927  14.817
83363W        W55623  35.452   2.816   3.656
83364W        W55624  17.069  22.527   1.934
83365W        W55625  23.109  21.174   5.168
83366W        W55626  24.068   3.315  11.042
83367W        W55627  27.536  33.969   2.306
83368W        W55628  42.364  36.424   4.641
83369W        W55629  41.033  18.234  12.930
83370W        W55630  42.363  42.412  14.834
83371W        W55631  18.104  31.971   1.211
83372W        W55632  33.539  36.482  12.024
83373W        W55633  29.618  22.655  13.964
83374W        W55634  35.407  19.612  11.933
83375W        W55635  28.614   1.481  13.337
83376W        W55636  31.072  15.674  12.836
83377W        W55637  33.131  13.346  13.411
83378W        W55638   3.752  17.556   2.315
83379W        W55639  26.515  14.116  12.025
83380W        W55640  44.450  44.330  14.401
83381W        W55641  29.561  12.177   2.369
83382W        W55642  38.925  19.108  13.530
83383W        W55643  25.106  23.671   1.367
83384W        W55644  28.634   1.872   4.199
83385W        W55645  19.198   0.379  10.894
83386W        W55646  17.297   5.738  13.810
83387W        W55647  25.502   4.699   1.771
83388W        W55648   4.937  25.551  12.928
83389W        W55649  38.849   0.913  10.955
83390W        W55650  11.657   8.228  11.107
83391W        W55651  30.057  34.910   0.780
83392W        W55652  33.477  19.542   0.861
83393W        W55653   3.790  41.496   1.325
83394W        W55654  33.508   5.931   1.784
83395W        W55655  37.937   4.418   0.935
83396W        W55656  44.962  10.163  10.084
83397W        W55657  13.250  40.459   4.730
83398W        W55658  43.279  14.178   1.333
83399W        W55659   6.345   3.248   2.690
83400W        W55660  33.523   0.980  11.973
83401W        W55661   0.262  21.045   4.141
83402W        W55662   3.938  39.978   3.259
83403W        W55663  12.322  39.534   3.333
83404W        W55664  16.291  12.696  10.430
83405W        W55665  40.525  15.654  11.512
83406W        W55666  23.602  15.716   2.703
83407W        W55667  30.437  35.004   4.628
83408W        W55668   4.915   3.845  12.092
83409W        W55669  22.063  10.237  12.373
83410W        W55670  43.509  10.149  10.525
83411W        W55671   2.226  37.348   4.251
83412W        W55672  31.944   7.363   4.661
83413W        W55673  30.003  11.345  10.644
83414W        W55674  35.571   7.330   0.947
83415W        W55675   7.885   6.898   3.220
83416W        W55676  12.122  39.380  11.075
83417W        W55677  32.010  31.018   1.282
83418W        W55678  36.453  24.570  12.059
83419W        W55679  18.732  44.368  10.472
83420W        W55680  22.172  35.102  13.493
83421W        W55681  28.645  24.059  13.028
83422W        W55682   7.851  26.573   2.851
83423W        W55683   8.709  41.446   3.695
83424W        W55684  33.119   2.342  13.477
83425W        W55685  32.432   4.274  12.546
83426W        W55686  42.456  20.671  14.824
83427W        W55687  40.906  13.812   2.347
83428W        W55688  13.263  35.574  14.955
83429W        W55689  32.002  14.766  13.811
83430W        W55690  43.326   0.249   5.133
83431W        W55691  33.875  21.232   4.704
83432W        W55692   1.766  14.267  12.363
83433W        W55693  42.465  33.085   2.324
83434W        W55694  41.023  26.536  10.407
83435W        W55695  35.382  24.518  14.897
83436W        W55696  22.149  42.340  12.560
83437W        W55697   0.971  42.899  12.413
83438W        W55698  34.994  15.703  14.023
83439W        W55699  17.125  37.001   0.419
83440W        W55700  18.722  40.516   4.197
83441W        W55701   8.216  34.114   1.414
83442W        W55702  19.178  41.874   0.334
83443W        W55703  15.744  35.562  12.054
83444W        W55704  16.145  41.352   1.364
83445W        W55705  21.563  27.526  11.026
83446W        W55706   2.270   0.314   1.235
83447W        W55707  38.069  38.947   1.847
83448W        W55708  17.135  34.093   2.261
83449W        W55709  31.093   8.900   3.641
83450W        W55710   2.806  20.125  11.999
83451W        W55711  27.175   5.205   4.682
83452W        W55712  43.863  33.940   3.747
83453W        W55713  28.151  12.127   3.631
83454W        W55714  14.743  40.328  13.926
83455W        W55715  21.228  21.703  10.985
83456W        W55716  40.335  26.974  10.635
83457W        W55717  35.584  13.657  12.404
83458W        W55718  21.562  36.997  10.986
83459W        W55719   8.703  16.292   3.765
83460W        W55720  43.920  29.487  14.853
83461W        W55721   3.264   5.410  14.409
83462W        W55722   7.855  43.467  10.503
83463W        W55723  38.426  41.881  14.307
83464W        W55724   0.480  34.369  11.954
83465W        W55725   6.888   9.345   4.658
83466W        W55726  44.299  22.663   3.842
83467W        W55727  43.796  10.283   1.260
83468W        W55728  12.746  18.257  13.827
83469W        W55729  33.469  18.738   5.186
83470W        W55730  12.846  21.176  14.333
83471W        W55731  22.102  17.729  12.580
83472W        W55732  13.733  20.039   3.755
83473W        W55733  16.200  33.129  13.899
83474W        W55734  30.948  32.903  10.980
83475W        W55735  21.565  22.132  11.951
83476W        W55736   5.699  10.214  12.513
83477W        W55737  21.156  12.840   4.251
83478W        W55738  30.531   9.201  13.958
83479W        W55739   7.280  42.997   2.187
83480W        W55740  21.722  22.553   2.374
83481W        W55741  37.912  14.648  13.946
83482W        W55742  29.960   0.880  12.394
83483W        W55743   3.441  36.549  13.335
83484W        W55744  34.490   2.297  12.942
83485W        W55745  22.011   5.817  12.828
83486W        W55746   3.394  19.604   3.641
83487W        W55747  22.663  29.438   3.148
83488W        W55748  19.041   8.783   2.712
83489W        W55749  34.426  10.643  14.021
83490W        W55750   8.346  23.622   1.792
83491W        W55751   5.739   0.343   1.804
83492W        W55752  25.070   3.718  13.001
83493W        W55753  14.610  40.401   4.679
83494W        W55754  44.904  24.480   1.927
83495W        W55755  19.135  34.527  11.984
83496W        W55756  34.942  20.101  10.021
83497W        W55757   2.226  14.592  14.016
83498W        W55758   4.359   4.297   2.881
83499W        W55759  22.118  37.547   1.303
83500W        W55760  29.545  10.370  11.475
83501W        W55761  24.160  25.541   2.742
83502W        W55762   4.401  13.766  13.405
83503W        W55763  33.524  25.057   4.209
83504W        W55764  25.651   4.220  11.010
83505W        W55765   3.775  23.539   1.393
83506W        W55766  11.621  43.871  12.853
83507W        W55767  20.578  18.265  14.428
83508W        W55768   9.149  22.112   2.276
83509W        W55769  36.465  29.600   5.122
83510W        W55770  44.910  33.603  14.500
83511W        W55771   3.302  25.123   1.366
83512W        W55772  28.133  15.675   0.958
83513W        W55773   1.859  29.058  13.857
83514W        W55774   6.310  35.088   3.811
83515W        W55775  22.550  43.816  12.553
83516W        W55776  28.043   8.388  10.585
83517W        W55777  24.707  32.471   4.831
83518W        W55778  25.657  25.174   1.873
83519W        W55779  37.932   0.247  14.901
83520W        W55780  20.242  15.758  13.539
83521W        W55781  12.356  27.086   3.370
83522W        W55782  39.455  11.367  11.597
83523W        W55783   6.871  42.519  12.468
83524W        W55784  26.594  29.045   0.394
83525W        W55785  25.686  30.607  13.436
83526W        W55786  32.904  11.825   2.267
83527W        W55787  41.337   0.422  14.851
83528W        W55788  42.784   3.280   3.242
83529W        W55789   1.791  30.558  11.505
83530W        W55790   4.881   5.708   1.437
83531W        W55791  28.473  23.575  11.419
83532W        W55792   2.388  43.002  13.529
83533W        W55793  21.049  42.875  10.445
83534W        W55794   7.335  16.742   3.229
83535W        W55795  13.738  28.091   3.272
83536W        W55796  30.606  15.236   4.346
83537W        W55797   3.823  38.406  12.040
83538W        W55798  27.191   1.837  12.880
83539W        W55799  27.991  22.657  14.423
83540W        W55800  26.505  29.101   2.298
83541W        W55801  15.223  15.607  14.492
83542W        W55802   4.413  40.875  12.472
83543W        W55803  30.480  27.576   1.219
83544W        W55804  14.178  18.642  14.898
83545W        W55805   0.922   4.280   1.259
83546W        W55806   4.815   0.967  10.022
83547W        W55807  23.092  19.631   5.288
83548W        W55808  19.083   5.912   4.325
83549W        W55809  20.739  36.877   3.692
83550W        W55810   1.421  11.848   1.724
83551W        W55811  16.782   2.948   4.803
83552W        W55812   0.266  19.744   3.195
83553W        W55813   4.256   6.273  12.427
83554W        W55814   7.358  16.223  12.924
83555W        W55815   3.405  25.129  12.472
83556W        W55816   1.793  13.175   3.170
83557W        W55817  22.713  27.991  10.044
83558W        W55818  28.150  15.819  14.031
83559W        W55819  40.358  28.047  10.611
83560W        W55820  31.600  44.480   0.937
83561W        W55821  25.171  17.291  13.940
83562W        W55822  33.449  29.924  13.934
83563W        W55823  18.662   4.810   0.935
83564W        W55824  39.920   6.391   0.770
83565W        W55825  37.480  21.151  12.559
83566W        W55826  15.214   3.351  12.000
83567W        W55827  26.514  14.691  10.910
83568W        W55828  29.507  10.770  14.442
83569W        W55829  17.120  41.863   4.660
83570W        W55830   4.707  29.533  11.381
83571W        W55831  22.218  40.844  12.063
83572W        W55832  12.838  23.599  10.625
83573W        W55833  29.576  24.602   4.680
83574W        W55834  31.012  22.204  14.322
83575W        W55835  28.124  16.253   4.339
83576W        W55836  32.059  37.918   5.098
83577W        W55837  33.504  15.584   0.921
83578W        W55838  30.597   2.454  10.939
83579W        W55839   4.254  21.065   1.915
83580W        W55840  39.064  38.547   1.434
83581W        W55841  18.606  23.730   1.815
83582W        W55842  15.730   7.842   1.279
83583W        W55843  24.700   0.273  14.363
83584W        W55844  20.537  21.184  10.510
83585W        W55845  41.373  11.320  12.833
83586W        W55846  27.458  15.733  14.801
83587W        W55847   7.332  41.339   3.169
83588W        W55848  40.979  30.478   2.391
83589W        W55849  40.027  42.479  13.956
83590W        W55850  44.423  32.417   1.879
83591W        W55851  38.915  42.418   2.870
83592W        W55852  20.709  40.904   4.732
83593W        W55853  27.197   2.752   3.276
83594W        W55854  42.851   4.404  10.944
83595W        W55855  19.753  23.067  14.811
83596W        W55856   7.415  29.110  12.033
83597W        W55857   9.221  28.052   2.837
83598W        W55858  33.389   0.962  13.519
83599W        W55859  22.576  43.308  10.570
83600W        W55860   5.322  41.857   2.729
83601W        W55861  41.868  20.714   4.802
83602W        W55862  12.281   0.371  12.899
83603W        W55863  42.310  19.766   3.666
83604W        W55864  29.919   3.889  12.863
83605W        W55865  10.253  25.086  11.021
83606W        W55866  40.882  36.470   4.125
83607W        W55867  14.593  34.521   2.409
83608W        W55868  21.733  16.752  13.447
83609W        W55869  26.041  36.559  11.505
83610W        W55870   3.268  42.393  14.311
83611W        W55871  37.955  29.929  13.488
83612W        W55872   3.405   5.916   4.120
83613W        W55873  42.344  27.074  14.364
83614W        W55874  30.474  15.095   3.821
83615W        W55875  17.734  19.710   1.928
83616W        W55876  34.455   8.224  10.520
83617W        W55877   0.806  10.869  10.475
83618W        W55878  36.492  41.511  14.430
83619W        W55879  29.061  20.538  14.953
83620W        W55880   2.332   6.336  10.437
83621W        W55881  15.716  29.477   3.745
83622W        W55882  44.421   4.266  13.428
83623W        W55883   0.834   5.358   0.760
83624W        W55884   7.824  22.577   5.089
83625W        W55885  24.524  27.574  14.984
83626W        W55886  14.768  36.068  14.846
83627W        W55887   7.237   2.873   3.825
83628W        W55888  40.824  44.489  14.318
83629W        W55889  31.021  30.994  14.861
83630W        W55890  23.056  11.252   4.745
83631W        W55891  17.675  42.930  13.982
83632W        W55892   3.904   7.348  11.545
83633W        W55893  16.227  43.934   4.245
83634W        W55894  40.360  10.666  11.124
83635W        W55895   7.756  26.154   9.996
83636W        W55896  44.320  11.179  11.395
83637W        W55897  44.311  23.205  14.497
83638W        W55898  29.056  36.459   1.832
83639W        W55899  24.638  34.563  11.384
83640W        W55900   7.829  17.765   3.382
83641W        W55901  40.959  18.275   4.741
83642W        W55902  22.599  37.538  12.894
83643W        W55903  16.226  34.457   2.186
83644W        W55904   6.813  20.211   2.208
83645W        W55905  20.178  35.873   0.410
83646W        W55906  26.051   6.710  10.930
83647W        W55907  22.119  33.110  12.408
83648W        W55908  13.773  35.413  12.867
83649W        W55909  21.140  19.247   4.173
83650W        W55910  24.616   2.282   0.916
83651W        W55911  17.249  27.068  13.055
83652W        W55912  13.142  28.462  12.417
83653W        W55913  16.169  20.091  14.495
83654W        W55914  11.357  43.390  12.399
83655W        W55915  44.338  30.946  13.400
83656W        W55916  43.773  16.699  11.572
83657W        W55917  36.484  26.966   0.357
83658W        W55918   8.778   0.422   3.184
83659W        W55919  43.914  35.066   0.412
83660W        W55920  41.835   2.911   2.782
83661W        W55921  10.171  10.847   4.170
83662W        W55922  26.142  12.274  10.443
83663W        W55923  32.635  44.484  13.857
83664W        W55924  22.048  23.179   4.779
83665W        W55925  41.346  23.149  11.590
83666W        W55926   8.190  28.460  12.362
83667W        W55927  10.839  44.978  14.823
83668W        W55928   7.760  16.694   0.767
83669W        W55929  41.471  34.886  11.420
83670W        W55930  38.043  19.122   2.862
83671W        W55931  37.845   8.354   2.883
83672W        W55932  27.488  32.077   1.773
83673W        W55933   2.358   4.256   1.280
83674W        W55934   8.885  30.066   0.940
83675W        W55935  14.248  10.857   2.403
83676W        W55936  11.757  36.965  10.900
83677W        W55937  24.042  19.252   0.835
83678W        W55938   4.265  20.241   3.358
83679W        W55939  11.812  44.414  14.331
83680W        W55940  20.068  14.297   3.739
83681W        W55941  20.691  40.917   3.826
83682W        W55942  19.202  32.590   1.328
83683W        W55943  30.975  10.713  11.438
83684W        W55944  34.370  18.109  11.474
83685W        W55945  44.263  33.966  13.973
83686W        W55946  37.057  16.197  10.961
83687W        W55947  37.919   4.900  12.372
83688W        W55948  42.994  40.855  10.568
83689W        W55949  14.260  20.087  11.521
83690W        W55950  34.488  15.591  11.375
83691W        W55951   0.375  16.573   2.206
83692W        W55952  15.597  16.781  13.922
83693W        W55953  37.047  21.217   3.174
83694W        W55954  32.101  12.658  10.496
83695W        W55955  35.486  16.313   0.361
83696W        W55956  23.159   2.261  13.796
83697W        W55957  38.945  10.838   2.183
83698W        W55958  32.967  44.344  12.928
83699W        W55959  32.114   1.341  14.771
83700W        W55960   4.215  23.517   2.694
83701W        W55961   5.851  40.858   4.800
83702W        W55962  24.089  16.810   4.696
83703W        W55963   1.317  19.695  13.971
83704W        W55964  41.382  30.047  11.931
83705W        W55965  25.668  30.651  12.341
83706W        W55966  24.009  44.822   4.354
83707W        W55967  16.608   8.235   1.445
83708W        W55968  25.707  30.978  10.614
83709W        W55969  21.739  10.294   2.380
83710W        W55970  40.882  17.235   1.277
83711W        W55971  25.531  38.487   3.807
83712W        W55972  44.954   7.841  11.595
83713W        W55973  32.424  18.649   1.817
83714W        W55974  12.800  21.201   1.899
83715W        W55975  26.491  38.965   1.269
83716W        W55976  32.612  35.410   1.409
83717W        W55977  16.149  17.608  14.323
83718W        W55978  26.995  36.475   1.233
83719W        W55979  39.363  24.011  12.996
83720W        W55980  12.137  28.053   2.858
83721W        W55981   3.406  26.142  12.086
83722W        W55982  22.229  33.570   2.707
83723W        W55983  10.665  32.926  13.370
83724W        W55984  16.813  25.527   0.482
83725W        W55985  42.508  29.604  14.348
83726W        W55986  44.970  29.999   4.619
83727W        W55987  34.580  24.141   0.363
83728W        W55988  14.243  27.085  10.564
83729W        W55989  36.354  38.571   1.331
83730W        W55990   0.267   8.252  14.349
83731W        W55991   4.786  19.545  14.426
83732W        W55992  42.946   7.360   4.323
83733W        W55993   1.773  39.940   4.723
83734W        W55994  36.022  32.056   1.381
83735W        W55995  16.675  22.507   0.315
83736W        W55996   8.804  12.206   1.391
83737W        W55997  36.555  29.092  14.782
83738W        W55998  26.565  32.967  11.933
83739W        W55999  22.709  14.811  12.345
83740W        W56000  37.531  23.050  11.372
83741W        W56001  28.487  41.004   0.930
83742W        W56002  27.617  11.168  10.567
83743W        W56003  25.499  15.191   2.833
83744W        W56004   8.834  22.509   4.324
83745W        W56005  17.628   5.696   5.666
83746W        W56006  25.999  22.236  11.398
83747W        W56007   4.865  15.604   0.884
83748W        W56008   2.399  27.501  13.517
83749W        W56009  44.916  28.024   3.648
83750W        W56010  23.553   1.289   0.828
83751W        W56011  28.614  42.350  11.528
83752W        W56012   9.809  36.904  13.816
83753W        W56013   2.908  24.098  12.087
83754W        W56014   1.288  25.603  13.888
83755W        W56015  19.039  16.764  14.995
83756W        W56016  19.684  31.055  14.375
83757W        W56017  19.128   1.296   2.229
83758W        W56018  34.547  24.091   3.814
83759W        W56019  39.052  12.614  13.859
83760W        W56020  38.452   6.689  12.037
83761W        W56021  39.931  23.006  11.422
83762W        W56022  24.070  12.144   1.707
83763W        W56023  38.005  29.635  10.521
83764W        W56024  18.187  13.630   4.673
83765W        W56025  35.088  29.921   3.657
83766W        W56026  14.250  39.411   1.919
83767W        W56027  43.006   6.412   5.237
83768W        W56028  29.952  44.382   4.643
83769W        W56029  22.044  29.118  13.525
83770W        W56030  17.777  23.204  11.459
83771W        W56031  18.204   9.702  13.426
83772W        W56032   0.927  20.261  13.519
83773W        W56033  44.883  44.382  14.425
83774W        W56034  16.661   5.876   0.762
83775W        W56035  22.665  29.944  11.419
83776W        W56036  11.634  40.973   2.244
83777W        W56037  38.533   7.229  10.023
83778W        W56038  34.076  33.579  11.885
83779W        W56039  18.248  38.967   2.379
83780W        W56040  21.523  23.569  12.380
83781W        W56041  39.043  32.633   4.314
83782W        W56042  17.165   8.201   4.186
83783W        W56043  36.468  11.130   4.344
83784W        W56044   6.302  21.535   0.783
83785W        W56045  20.105  15.767  14.510
83786W        W56046  43.782  23.497  11.474
83787W        W56047   8.792  33.060  10.974
83788W        W56048  31.454  24.141   0.890
83789W        W56049  42.285  42.488  13.962
83790W        W56050  21.047  36.873   0.770
83791W        W56051  22.610   2.422  11.559
83792W        W56052  28.991  30.652   4.831
83793W        W56053  30.532   0.822  12.891
83794W        W56054  17.293  27.661  13.874
83795W        W56055   3.763  41.041  13.977
83796W        W56056  38.959   1.329  13.924
83797W        W56057   9.273  22.160   4.836
83798W        W56058  36.571  41.464   3.226
83799W        W56059  38.494  26.659  14.399
83800W        W56060  15.787  19.591  11.005
83801W        W56061  15.168  21.191  14.914
83802W        W56062  11.274  29.164  12.926
83803W        W56063  11.657   0.913   2.238
83804W        W56064  11.775  23.520  13.950
83805W        W56065  33.424  42.299   2.252
83806W        W56066  19.187  27.090  12.475
83807W        W56067  39.923  16.716  12.044
83808W        W56068   6.694  14.833  13.029
83809W        W56069  18.096   1.823  13.456
83810W        W56070  41.952  31.592  10.933
83811W        W56071  11.796  41.521   3.782
83812W        W56072  12.229  26.052  12.825
83813W        W56073  10.722  37.457   1.827
83814W        W56074  11.632   4.901  13.516
83815W        W56075  16.316   8.359  11.113
83816W        W56076  33.498   0.826   5.164
83817W        W56077  12.307  31.421  10.631
83818W        W56078  22.160  39.478  14.786
83819W        W56079   1.743  38.983   4.182
83820W        W56080  38.897  23.635   2.842
83821W        W56081  23.626   7.210  14.961
83822W        W56082  26.965  41.300   1.424
83823W        W56083  14.636  29.972   2.874
83824W        W56084  43.433  12.348   0.779
83825W        W56085  35.390  12.821   2.419
83826W        W56086   1.245  27.174   4.192
83827W        W56087  10.277  43.902   2.682
83828W        W56088  35.031  21.235  10.931
83829W        W56089  28.537  10.853  14.377
83830W        W56090   3.436  26.128  11.405
83831W        W56091  12.663  41.931   4.758
83832W        W56092  30.452  29.943   5.178
83833W        W56093  42.519  15.124   4.614
83834W        W56094  16.693  27.627   0.371
83835W        W56095  21.077   7.349  11.004
83836W        W56096   3.216   0.414  14.824
83837W        W56097  39.345  30.106   3.816
83838W        W56098  11.823   4.232  12.956
83839W        W56099  30.617  30.617   3.354
83840W        W56100  12.837  12.232  13.330
83841W        W56101   1.339  44.942   2.231
83842W        W56102   9.325  24.690   3.775
83843W        W56103  34.532  44.765  12.966
83844W        W56104  19.561  34.593   1.222
83845W        W56105  17.153  14.703  12.900
83846W        W56106  16.696  10.719  10.593
83847W        W56107  35.995  17.207   0.909
83848W        W56108   2.927  32.897   2.753
83849W        W56109  22.052  13.791   2.864
83850W        W56110   6.398  11.697  14.497
83851W        W56111  41.895  41.394   4.266
83852W        W56112   7.765  41.836  11.887
83853W        W56113  35.498   6.722  12.453
83854W        W56114   1.390  31.487  13.000
83855W        W56115  32.065  44.922   2.188
83856W        W56116  12.262  44.879   2.326
83857W        W56117  31.610  37.926   1.319
83858W        W56118  18.101  38.871  13.392
83859W        W56119  22.126   6.913   0.762
83860W        W56120  15.158  14.227   5.768
83861W        W56121   3.721  42.980  12.342
83862W        W56122  29.580   1.761  10.894
83863W        W56123  42.026  36.493  11.944
83864W        W56124  25.638   7.310   4.636
83865W        W56125   4.727   0.390   4.230
83866W        W56126   8.885   2.928  12.873
83867W        W56127  10.243  42.353  13.992
83868W        W56128  12.312  22.595  13.011
83869W        W56129  11.744  39.448  11.586
83870W        W56130   3.241  32.126   4.293
83871W        W56131  26.490   1.255  11.867
83872W        W56132  35.001  23.507   1.764
83873W        W56133  12.778  18.238   1.323
83874W        W56134  14.704   3.921  12.532
83875W        W56135  41.364  43.871  12.522
83876W        W56136  37.971  40.959   2.819
83877W        W56137   6.367   2.747   0.357
83878W        W56138  31.502  11.298   3.257
83879W        W56139  16.796  19.171  14.778
83880W        W56140   5.198  19.211   1.927
83881W        W56141  39.900  25.495   4.615
83882W        W56142  12.781  25.199  12.580
83883W        W56143  44.403  20.525  10.613
83884W        W56144  22.099  35.907   3.782
83885W        W56145  12.243  34.452   1.785
83886W        W56146  20.201  31.032  11.061
83887W        W56147  10.369  17.110   1.225
83888W        W56148  35.099  21.130   1.730
83889W        W56149   6.364  15.632  10.053
83890W        W56150   6.769  33.027  13.501
83891W        W56151  11.631  17.677   2.708
83892W        W56152  24.609  37.907  10.429
83893W        W56153  30.532  16.078   2.834
83894W        W56154   3.429  41.340  11.458
83895W        W56155   1.734  29.149   3.265
83896W        W56156  29.551   6.283   2.199
83897W        W56157  37.472  14.274  12.474
83898W        W56158  37.358   1.861   2.862
83899W        W56159   0.984  23.169   3.303
83900W        W56160  40.894  16.629  13.898
83901W        W56161   6.297  28.495  13.005
83902W        W56162  40.836  41.518  11.419
83903W        W56163  15.235  35.421  14.367
83904W        W56164  36.024  17.209  10.563
83905W        W56165  32.888  25.565   0.309
83906W        W56166  17.075  19.569   5.091
83907W        W56167  36.564  23.197   0.811
83908W        W56168  14.283   2.797  10.511
83909W        W56169  14.241  21.560   3.720
83910W        W56170  31.099   5.198   0.273
83911W        W56171  44.477   0.858  11.002
83912W        W56172  24.510  10.284   3.370
83913W        W56173   7.793   4.340   3.739
83914W        W56174  42.823  11.722   4.598
83915W        W56175   1.924  33.127   4.212
83916W        W56176  24.552  43.951  10.496
83917W        W56177  24.074  31.491   4.184
83918W        W56178  41.807  15.170  11.444
83919W        W56179   1.256  30.436   1.863
83920W        W56180  44.782  34.565  14.949
83921W        W56181  36.057   5.213  10.967
83922W        W56182  20.113  12.757   0.272
83923W        W56183  12.255  23.618  12.906
83924W        W56184   4.870  43.363  11.374
83925W        W56185   1.270  42.442   0.798
83926W        W56186   7.807  10.659   2.357
83927W        W56187   2.464  13.658   2.851
83928W        W56188  42.491   0.292   4.256
83929W        W56189  21.083  42.975  13.341
83930W        W56190  42.785   1.428   1.760
83931W        W56191  10.193  18.783   3.162
83932W        W56192   3.227  40.892   1.789
83933W        W56193   9.804  44.478  14.299
83934W        W56194  37.435  29.604   0.784
83935W        W56195   7.882  25.100  13.860
83936W        W56196  27.051   4.808  14.883
83937W        W56197   9.280  26.573  10.953
83938W        W56198  44.372   0.338   2.819
83939W        W56199  29.541  18.286  10.930
83940W        W56200  37.544  25.148  13.842
83941W        W56201  28.100  34.886   1.298
83942W        W56202  33.939  21.131  10.918
83943W        W56203  40.543  40.927  14.359
83944W        W56204  20.689  44.905  12.558
83945W        W56205  19.754  35.401   1.904
83946W        W56206   5.736   3.870  12.831
83947W        W56207   2.405   9.370   4.301
83948W        W56208  22.190  32.048   2.787
83949W        W56209   7.366  41.011   2.228
83950W        W56210  33.495  44.362  11.018
83951W        W56211  29.019  41.861   2.829
83952W        W56212  20.177   2.921   4.297
83953W        W56213  28.097   1.933  13.898
83954W        W56214  42.851  28.086   0.405
83955W        W56215  12.644  42.957   3.673
83956W        W56216  38.468   1.958  14.969
83957W        W56217  39.372  20.124  11.031
83958W        W56218   6.353  12.763   0.422
83959W        W56219   0.378  28.951   4.205
83960W        W56220  19.210  17.110  12.572
83961W        W56221   8.291  39.337   0.242
83962W        W56222  30.479  23.023  10.544
83963W        W56223  35.358  33.043   2.240
83964W        W56224  16.766  22.558  11.587
83965W        W56225  28.134  37.068   3.213
83966W        W56226  14.761  36.401   2.178
83967W        W56227   7.278  41.914  10.601
83968W        W56228  23.539  24.521  12.503
83969W        W56229  13.295  26.533  13.384
83970W        W56230   8.785  43.426   3.725
83971W        W56231  39.872  11.798  12.491
83972W        W56232  35.470   0.417   4.238
83973W        W56233  44.889  27.625  12.992
83974W        W56234  28.038   7.361   4.620
83975W        W56235   7.735  39.013  13.344
83976W        W56236  29.062  24.587   0.941
83977W        W56237  24.994   2.446  11.066
83978W        W56238  24.010  33.494   2.663
83979W        W56239  33.059   3.861   1.369
83980W        W56240  13.723  26.616  13.489
83981W        W56241  37.393   9.768   3.270
83982W        W56242  29.083  11.741   4.718
83983W        W56243  10.731  15.278  10.419
83984W        W56244  27.616   4.816  12.984
83985W        W56245   6.355   1.288  14.847
83986W        W56246  26.008  36.589  13.913
83987W        W56247  20.721  12.768  14.962
83988W        W56248  11.798  13.720   2.209
83989W        W56249  29.547   4.816  12.456
83990W        W56250  26.672  27.467   5.098
83991W        W56251   6.348  35.873  12.912
83992W        W56252  17.163  39.011  12.910
83993W        W56253  15.234  42.846  11.865
83994W        W56254   5.204   0.988  11.519
83995W        W56255  27.994  43.429  10.432
83996W        W56256   0.408  17.589  10.939
83997W        W56257  32.507  24.217   1.739
83998W        W56258  20.705   1.922   4.249
83999W        W56259  38.831  15.137   1.267
84000W        W56260  43.409  29.565  14.928
84001W        W56261   9.723  21.030  10.465
84002W        W56262  30.512  19.098  13.968
84003W        W56263  32.547  44.949   0.758
84004W        W56264  13.230  31.611   1.410
84005W        W56265  24.480   9.666  11.502
84006W        W56266  33.958  44.779   4.232
84007W        W56267  33.439  44.775  12.900
84008W        W56268  28.619  13.130  13.862
84009W        W56269  37.048  20.734  12.537
84010W        W56270  29.038   4.835  10.459
84011W        W56271  23.646  11.787  13.315
84012W        W56272   5.193  19.176   4.805
84013W        W56273  25.604  25.604  11.441
84014W        W56274   1.918  30.619   0.472
84015W        W56275  30.427  12.255  14.438
84016W        W56276   0.859  35.900   3.264
84017W        W56277  42.807  25.000  13.468
84018W        W56278  34.456  10.163  13.530
84019W        W56279  30.974  32.427  14.854
84020W        W56280  22.189   6.291  12.917
84021W        W56281   7.219  41.801   4.620
84022W        W56282  38.542  13.658   2.886
84023W        W56283  11.725  43.984  13.450
84024W        W56284  12.165  44.780   0.886
84025W        W56285  24.124   9.742   4.168
84026W        W56286  15.283  39.517  10.502
84027W        W56287   6.340   4.723  14.906
84028W        W56288  14.804  37.540  13.947
84029W        W56289   8.315  27.553  13.795
84030W        W56290  31.017  44.979  14.317
84031W        W56291  18.183   8.269   4.140
84032W        W56292  26.609   4.443   1.439
84033W        W56293  37.433  26.677  11.861
84034W        W56294  41.025  18.614   2.672
84035W        W56295  19.174  21.139   2.868
84036W        W56296  15.203  20.115  12.951
84037W        W56297  10.824   2.311   1.821
84038W        W56298  37.400   3.817   0.459
84039W        W56299  20.210  23.656  11.026
84040W        W56300   8.852  22.525  14.007
84041W        W56301   7.824  42.421  10.912
84042W        W56302   8.238   6.679  14.761
84043W        W56303  24.588  16.765  14.014
84044W        W56304  35.481  42.365   3.670
84045W        W56305  44.809  41.508  12.382
84046W        W56306  29.572   7.193   0.869
84047W        W56307   9.754  14.733   1.796
84048W        W56308  19.759   6.855   5.172
84049W        W56309  32.888  29.530   2.806
84050W        W56310  23.072  25.192   3.730
84051W        W56311  12.251  18.110  11.604
84052W        W56312  22.045  41.316  10.634
84053W        W56313   6.261  41.371   3.291
84054W        W56314   5.872  25.187  13.522
84055W        W56315  24.688  33.110  14.348
84056W        W56316  17.157  41.788   1.706
84057W        W56317  35.067   4.257   1.389
84058W        W56318  17.064  30.518   0.318
84059W        W56319   5.846  31.465  11.906
84060W        W56320  35.569  41.393  10.639
84061W        W56321  44.473  29.157  13.060
84062W        W56322   1.774  17.672  14.468
84063W        W56323  43.395  37.832   1.398
84064W        W56324  14.745  18.149   0.364
84065W        W56325  11.235  14.809  14.339
84066W        W56326  14.755   9.232   1.428
84067W        W56327  24.179  40.859   0.365
84068W        W56328  44.980   8.193  13.992
84069W        W56329  20.163   1.808   3.318
84070W        W56330  42.444  21.578  11.948
84071W        W56331  19.563   7.199   0.294
84072W        W56332  42.452  39.396  12.887
84073W        W56333   6.385  25.141  12.090
84074W        W56334  13.671  40.941   4.682
84075W        W56335  20.524  29.560   2.809
84076W        W56336  40.465  16.226  12.987
84077W        W56337  29.107   8.837  13.511
84078W        W56338  33.454  20.589  10.450
84079W        W56339   4.907  19.736  12.495
84080W        W56340   4.374  43.945  13.995
84081W        W56341   8.699   5.239   2.321
84082W        W56342  33.381  44.893   4.824
84083W        W56343  30.447  10.253  11.550
84084W        W56344   2.438  10.315  12.913
84085W        W56345  33.034  38.056  13.006
84086W        W56346  24.206   3.724   2.216
84087W        W56347  11.272   1.401   0.909
84088W        W56348  28.068  43.925  12.580
84089W        W56349  44.801   3.356  13.931
84090W        W56350  38.029  15.593   0.422
84091W        W56351  17.292  26.571   4.674
84092W        W56352  17.145  38.979   4.151
84093W        W56353  27.509  21.538  13.933
84094W        W56354  21.118  37.972  12.000
84095W        W56355   2.760  40.439  12.408
84096W        W56356  13.671  34.529   0.930
84097W        W56357  38.398  22.104  10.959
84098W        W56358  19.592  31.412  10.890
84099W        W56359  25.071  44.270   4.757
84100W        W56360   0.765  33.920  12.553
84101W        W56361  18.753  32.040   0.247
84102W        W56362   1.292  21.215   1.790
84103W        W56363  13.199   1.839   0.831
84104W        W56364  32.906  29.977   2.887
84105W        W56365  25.988   4.349  14.388
84106W        W56366  15.308  14.717   9.654
84107W        W56367  30.058  11.837   0.830
84108W        W56368  17.293  37.987   1.290
84109W        W56369  43.379  16.585  14.858
84110W        W56370  18.651  35.604   0.476
84111W        W56371   0.403  19.112  12.504
84112W        W56372  14.808  12.161   0.847
84113W        W56373  31.972  39.959  14.359
84114W        W56374   3.389   4.314   3.182
84115W        W56375  37.519  17.252   0.475
84116W        W56376   5.402  41.786  12.089
84117W        W56377  21.042  13.254  13.838
84118W        W56378  20.689  15.731  11.051
84119W        W56379  31.012  15.100  12.916
84120W        W56380   0.375   8.800  13.529
84121W        W56381  12.832   5.422   1.720
84122W        W56382  32.411  34.983   1.912
84123W        W56383  40.814   5.913   3.191
84124W        W56384  25.586   1.355  13.004
84125W        W56385  14.634  11.163  11.466
84126W        W56386  19.778  30.443   2.812
84127W        W56387   8.782  42.509  13.808
84128W        W56388  34.998  30.495  13.430
84129W        W56389   5.731  20.561   4.794
84130W        W56390  28.056  44.319   1.892
84131W        W56391   0.420  29.635  12.833
84132W        W56392  27.488  36.045   3.760
84133W        W56393   0.935  16.622  11.408
84134W        W56394   6.292  23.200  10.982
84135W        W56395  39.518  37.853  11.060
84136W        W56396  42.290  35.401   1.418
84137W        W56397   9.251  35.484  12.420
84138W        W56398   4.935  30.439   3.655
84139W        W56399  36.445  15.219   0.901
84140W        W56400   6.344  11.804   1.361
84141W        W56401   2.901  23.042  11.517
84142W        W56402  35.529  16.713   4.748
84143W        W56403  42.018  28.112  14.824
84144W        W56404  11.655  32.594   2.731
84145W        W56405  12.177   9.195  12.534
84146W        W56406  40.032   3.299   3.224
84147W        W56407  13.268  20.106  11.379
84148W        W56408  43.019   0.290  11.485
84149W        W56409  13.335  44.391  12.035
84150W        W56410  19.772  28.473   3.738
84151W        W56411  43.329   9.309   2.303
84152W        W56412  18.278   0.888   2.186
84153W        W56413  36.966  34.895   1.246
84154W        W56414  22.743  26.171  10.933
84155W        W56415  10.779  24.587  10.608
84156W        W56416  20.149   5.847   5.720
84157W        W56417  27.587   4.245  11.417
84158W        W56418  10.156   4.813  12.860
84159W        W56419  30.059   2.433  13.821
84160W        W56420  28.964  37.506  13.793
84161W        W56421  28.536   2.294   1.925
84162W        W56422  35.018  14.820  11.561
84163W        W56423   0.756  10.149  13.011
84164W        W56424  25.990  25.196   0.887
84165W        W56425  29.546  35.366  13.465
84166W        W56426  31.442  44.989   4.213
84167W        W56427   4.212  32.535  10.539
84168W        W56428  42.786  18.131  11.511
84169W        W56429  40.916   7.198   4.768
84170W        W56430   1.403  17.223  13.889
84171W        W56431  15.580  24.191  10.587
84172W        W56432  28.062   9.718  10.468
84173W        W56433   9.311  27.054   0.947
84174W        W56434  34.560  28.040   1.745
84175W        W56435   0.390  20.670   0.948
84176W        W56436  32.058   3.942   0.938
84177W        W56437  28.531   5.792   4.204
84178W        W56438  11.678  32.046  14.806
84179W        W56439  21.208  38.560  10.891
84180W        W56440  33.563   1.384  14.329
84181W        W56441   2.387  17.797   2.662
84182W        W56442  37.458  32.961   1.273
84183W        W56443   1.266   5.365   2.293
84184W        W56444  13.219  44.266   3.682
84185W        W56445  40.046  43.896  13.344
84186W        W56446  32.904  30.013   2.363
84187W        W56447   8.209  31.644   0.372
84188W        W56448  31.449   5.315  10.932
84189W        W56449  37.891  30.459   1.897
84190W        W56450  33.490  43.835  10.520
84191W        W56451  11.785   9.715   1.218
84192W        W56452  26.976  23.617   0.750
84193W        W56453  12.244  20.258   4.766
84194W        W56454  34.018  15.102   0.789
84195W        W56455   5.716  29.057  10.036
84196W        W56456   7.356  14.603  10.558
84197W        W56457  24.630  28.981  13.988
84198W        W56458  26.546   9.718   0.812
84199W        W56459  40.540  17.747  14.766
84200W        W56460  29.949  37.500   1.448
84201W        W56461  12.153  29.970  14.478
84202W        W56462  31.562  28.014  12.091
84203W        W56463  43.885   6.850   3.653
84204W        W56464  24.002  18.135  12.089
84205W        W56465  33.472  36.524  13.438
84206W        W56466  31.531  20.609  13.497
84207W        W56467  10.765  21.253   2.244
84208W        W56468  43.466  38.940   3.354
84209W        W56469  28.467  10.813   1.869
84210W        W56470  38.353  35.984   4.207
84211W        W56471  22.716   3.784  14.983
84212W        W56472  14.230  19.123  14.797
84213W        W56473  37.963  27.543   1.720
84214W        W56474  16.281  16.577  10.049
84215W        W56475  19.653  10.788   0.956
84216W        W56476  39.358  11.855  11.032
84217W        W56477   9.164  12.742   4.794
84218W        W56478  10.841   6.885   0.368
84219W        W56479  40.917  11.658   1.813
84220W        W56480  15.311  11.625  14.888
84221W        W56481  36.461   1.313   3.162
84222W        W56482  31.407  35.573   3.370
84223W        W56483   0.894  29.478  11.541
84224W        W56484  29.642   1.791   4.651
84225W        W56485   4.793  23.112  13.820
84226W        W56486  11.371  33.971  14.489
84227W        W56487  21.620  16.193   3.286
84228W        W56488  22.598  26.566   4.744
84229W        W56489  24.583  24.214  13.984
84230W        W56490  11.809   5.776  14.421
84231W        W56491   4.278  17.696   1.778
84232W        W56492  39.329  16.662  13.377
84233W        W56493   5.397  27.965  14.776
84234W        W56494  33.038  14.134   0.342
84235W        W56495  24.128   4.741  11.465
84236W        W56496  42.020  37.908  11.371
84237W        W56497  29.487  18.587   3.756
84238W        W56498  26.620  38.521   2.763
84239W        W56499  37.939  37.950  11.907
84240W        W56500  25.530  26.153  11.388
84241W        W56501  19.699  25.659   3.211
84242W        W56502  18.699  27.675  14.348
84243W        W56503  11.231  35.475  14.854
84244W        W56504  44.398  18.213  13.957
84245W        W56505   8.240  14.177   3.850
84246W        W56506   0.840   7.900  10.985
84247W        W56507  16.616  37.402   1.368
84248W        W56508  18.732  43.338  12.536
84249W        W56509  26.471  17.129  11.919
84250W        W56510   9.738   8.339   2.328
84251W        W56511   4.234  10.787  11.943
84252W        W56512  14.334  15.319   3.321
84253W        W56513  28.453  30.150  14.387
84254W        W56514  24.605  21.547   3.721
84255W        W56515  30.161  28.141   0.281
84256W        W56516  38.837   5.711  14.960
84257W        W56517  12.854  30.160   1.813
84258W        W56518  28.595   0.326   4.158
84259W        W56519  31.570  28.479  13.512
84260W        W56520  32.015   3.460   2.701
84261W        W56521  35.902  22.516   1.925
84262W        W56522  31.458  13.844  14.434
84263W        W56523  36.534  23.202   4.146
84264W        W56524  44.781  23.042  11.112
84265W        W56525  21.617  25.497  11.002
84266W        W56526  24.652   4.350  14.389
84267W        W56527  21.588  14.266  11.439
84268W        W56528  29.943   3.363   0.277
84269W        W56529  41.483  39.938   1.826
84270W        W56530  31.945  44.994  11.081
84271W        W56531  17.062  26.511  11.410
84272W        W56532  14.627  15.805  13.029
84273W        W56533  10.373   4.915  13.488
84274W        W56534  12.171   5.793  13.469
84275W        W56535  35.543   9.154   3.853
84276W        W56536  32.101  15.622   4.601
84277W        W56537  33.461  27.015   2.228
84278W        W56538  15.270   6.267   2.796
84279W        W56539  24.986  35.556   3.726
84280W        W56540  32.421  17.280   4.827
84281W        W56541  12.232   9.859  11.513
84282W        W56542  31.641  40.480  12.378
84283W        W56543  10.752  18.674  12.513
84284W        W56544  32.490  10.852   3.277
84285W        W56545  10.353   3.730  14.816
84286W        W56546   2.258  32.604  10.951
84287W        W56547  36.979  27.029   4.703
84288W        W56548  39.865  34.439   0.382
84289W        W56549   6.922   9.153   0.302
84290W        W56550  13.292  41.302  12.068
84291W        W56551  40.482   2.371  13.035
84292W        W56552  12.173  35.373  14.341
84293W        W56553  10.342  39.934   4.299
84294W        W56554  17.792   8.392   2.374
84295W        W56555  31.028  38.860   3.299
84296W        W56556  40.844  23.489   2.209
84297W        W56557  19.678  24.069   3.681
84298W        W56558  20.654   4.725  11.085
84299W        W56559  26.988  36.442   0.414
84300W        W56560  19.695  38.523   0.436
84301W        W56561  44.994  44.996  11.991
84302W        W56562  30.065  22.636  12.554
84303W        W56563   6.262  19.546   3.871
84304W        W56564   3.822  30.602   3.846
84305W        W56565  26.492  27.072   1.251
84306W        W56566   4.762   9.881  11.092
84307W        W56567  32.136  35.559  14.778
84308W        W56568   5.270  23.639  14.952
84309W        W56569  27.168  34.971   3.850
84310W        W56570  35.852   0.797   4.760
84311W        W56571  19.170   9.687   4.656
84312W        W56572  15.777   9.241  11.548
84313W        W56573  13.640  30.443   2.252
84314W        W56574  37.074   8.396   5.198
84315W        W56575  24.066   2.398  13.908
84316W        W56576  11.178  18.206   0.435
84317W        W56577   6.293  36.046   3.699
84318W        W56578  35.410   1.301   1.411
84319W        W56579   4.204  12.320  12.964
84320W        W56580   0.408  41.389  11.484
84321W        W56581   0.465  32.427  11.566
84322W        W56582  39.849  41.496  11.088
84323W        W56583   2.438  20.072   4.649
84324W        W56584  39.013  27.512  10.108
84325W        W56585  41.828  21.067   9.921
84326W        W56586  29.523  40.509   0.400
84327W        W56587  30.567   3.387   0.284
84328W        W56588  21.637  28.532   9.544
84329W        W56589  44.757  11.723  13.009
84330W        W56590   1.269  25.032   1.742
84331W        W56591  32.491  15.794  10.594
84332W        W56592  36.033  29.663   1.757
84333W        W56593  24.219  34.870  10.990
84334W        W56594  35.546  29.051  14.505
84335W        W56595  27.521  14.304  10.405
84336W        W56596   4.366  33.920  11.439
84337W        W56597  33.020  28.174  10.946
84338W        W56598  16.670  24.109  13.497
84339W        W56599  11.280  30.484  10.907
84340W        W56600   6.370  37.577  12.529
84341W        W56601   3.405  24.994   4.295
84342W        W56602   1.314  15.593   1.380
84343W        W56603  26.700  41.381  11.405
84344W        W56604  44.271   5.219   5.169
84345W        W56605  32.952  11.287  10.643
84346W        W56606  37.456  39.017   0.348
84347W        W56607  31.968   6.676  12.491
84348W        W56608   3.926  11.642  14.494
84349W        W56609  21.619  25.663  14.385
84350W        W56610  40.884  40.797   3.636
84351W        W56611  16.123  14.721   5.767
84352W        W56612  37.011  44.496   0.280
84353W        W56613  20.195   3.380   4.157
84354W        W56614  34.049  10.753  10.919
84355W        W56615  40.838  34.938   0.341
84356W        W56616  43.509  16.099   4.179
84357W        W56617  12.857  11.298   4.619
84358W        W56618  18.782   1.734  11.523
84359W        W56619  21.743  17.287  13.929
84360W        W56620   3.817  34.957   3.345
84361W        W56621  36.370  41.502  10.597
84362W        W56622  24.568   3.382   0.928
84363W        W56623   6.242  15.609  11.116
84364W        W56624  39.850  43.841  10.636
84365W        W56625   7.335  16.700   3.676
84366W        W56626  31.941   6.858  10.948
84367W        W56627   1.382  16.777  11.441
84368W        W56628  36.497  11.263  10.482
84369W        W56629  32.010   9.341   3.305
84370W        W56630  21.668  16.764   2.784
84371W        W56631  43.343  11.194  12.448
84372W        W56632  34.553   5.784  13.319
84373W        W56633  14.232  39.863   4.117
84374W        W56634   4.289  43.870   0.949
84375W        W56635  11.166   8.842   3.783
84376W        W56636   5.739  39.463  14.801
84377W        W56637  37.887  21.239  14.951
84378W        W56638   1.745  29.114  13.378
84379W        W56639  22.579   4.330   1.304
84380W        W56640  44.310  10.287   2.676
84381W        W56641   7.774  13.330   1.836
84382W        W56642  30.943  12.823  13.016
84383W        W56643  40.518  38.859   4.341
84384W        W56644   3.749  34.579  10.539
84385W        W56645  31.956   6.817   2.678
84386W        W56646   2.234  26.072   2.876
84387W        W56647  26.194   2.292  13.409
84388W        W56648  19.129   8.362  12.040
84389W        W56649  41.353  30.129  14.434
84390W        W56650  13.739  13.177   0.864
84391W        W56651  23.072  10.213  11.548
84392W        W56652   8.819   6.845  13.016
84393W        W56653  29.978  30.550  10.993
84394W        W56654  17.604  15.581  11.549
84395W        W56655  33.511  40.911  13.959
84396W        W56656  13.250  10.640   0.366
84397W        W56657  17.114  28.030   5.172
84398W        W56658  35.541  31.410  14.318
84399W        W56659   8.861  23.649   0.398
84400W        W56660  28.176  42.972   0.886
84401W        W56661   8.678  20.665  11.028
84402W        W56662  14.313  43.308  14.790
84403W        W56663  27.636  42.303   3.699
84404W        W56664  29.459   1.441   0.948
84405W        W56665  32.593  11.719   4.333
84406W        W56666   2.275  11.300  14.389
84407W        W56667  19.277  26.079   4.767
84408W        W56668  43.888  22.586  10.465
84409W        W56669  14.246   8.287   0.966
84410W        W56670  35.091  14.137   1.367
84411W        W56671  31.143  30.451   2.262
84412W        W56672  30.970   9.658   2.378
84413W        W56673   0.794  38.452  13.986
84414W        W56674   1.293  39.010   2.735
84415W        W56675  29.010  25.112  10.418
84416W        W56676  17.266  28.614   0.832
84417W        W56677   3.756  23.152  12.938
84418W        W56678  19.692  19.538   5.180
84419W        W56679  43.949   7.794   3.869
84420W        W56680  31.445   3.319   0.958
84421W        W56681  19.184   8.249  14.372
84422W        W56682  16.216  15.279   3.647
84423W        W56683   1.954  36.897  11.393
84424W        W56684  20.625  40.839   2.392
84425W        W56685  27.022  29.053   2.679
84426W        W56686  41.815  11.139   2.678
84427W        W56687  19.599   0.408  12.896
84428W        W56688  33.088  37.043  11.404
84429W        W56689   4.362   2.420  11.391
84430W        W56690  26.008  19.607   2.323
84431W        W56691  24.164  31.927   3.263
84432W        W56692  32.107  16.691   2.882
84433W        W56693  36.901  27.473   3.334
84434W        W56694  29.166   5.716   3.699
84435W        W56695  23.224  35.508  12.541
84436W        W56696   2.933  36.490   2.784
84437W        W56697  42.895   7.215   9.995
84438W        W56698   0.767  35.877  11.974
84439W        W56699   7.778  12.741   4.724
84440W        W56700  17.684  25.114  10.511
84441W        W56701  16.670  44.867  12.564
84442W        W56702  25.174   8.315  13.854
84443W        W56703  23.196   6.828   4.610
84444W        W56704  19.708  14.728   0.323
84445W        W56705  16.154   2.908  10.498
84446W        W56706  29.598   2.437   4.706
84447W        W56707  32.400  37.070   3.673
84448W        W56708   7.318  28.660  11.458
84449W        W56709   3.369   8.738  12.382
84450W        W56710   1.779  36.068  11.096
84451W        W56711  16.090  19.172  11.471
84452W        W56712  15.207  31.620   3.192
84453W        W56713  34.372  37.391   0.361
84454W        W56714  36.917  21.746  14.959
84455W        W56715   0.974  11.781  10.931
84456W        W56716  37.408   2.331  12.009
84457W        W56717  24.588  33.530   4.346
84458W        W56718  13.240  42.903   3.380
84459W        W56719  44.337  37.849   2.216
84460W        W56720  31.481  24.016   4.635
84461W        W56721  27.188  37.520  11.891
84462W        W56722  10.318   3.361   2.795
84463W        W56723  19.659  18.673   4.223
84464W        W56724  17.688   8.368   9.497
84465W        W56725  28.140  11.137   9.930
84466W        W56726  38.030   9.686   5.631
84467W        W56727  43.411  14.716  13.925
84468W        W56728  37.880  37.522  11.487
84469W        W56729   8.261   1.239   1.833
84470W        W56730   7.363  17.696  14.394
84471W        W56731  13.203   3.902  12.086
84472W        W56732  26.103  36.428  14.900
84473W        W56733   1.246  17.601  10.993
84474W        W56734  13.793   5.396  14.483
84475W        W56735   4.741  42.797   1.381
84476W        W56736  26.001  35.431  13.047
84477W        W56737  42.026  42.006   0.848
84478W        W56738  19.733  16.222  14.834
84479W        W56739  30.544   3.259  12.051
84480W        W56740   3.348  36.352   3.641
84481W        W56741  17.097  32.983  11.452
84482W        W56742   3.293  28.113  10.551
84483W        W56743  10.348  39.546  14.372
84484W        W56744  18.221  34.603  10.990
84485W        W56745  19.682  28.670  11.967
84486W        W56746  13.605  10.729  12.356
84487W        W56747  20.212  34.011  14.434
84488W        W56748  30.994  42.808  14.958
84489W        W56749  31.917  41.922  12.435
84490W        W56750  14.310  10.166   0.739
84491W        W56751   6.197  43.801   1.312
84492W        W56752   1.408  35.945  11.006
84493W        W56753  25.546  26.147   1.906
84494W        W56754  41.825  40.825  12.865
84495W        W56755  30.429  21.518   2.385
84496W        W56756  15.252  14.718  12.409
84497W        W56757  36.428  22.551  11.903
84498W        W56758   9.786   2.787   0.917
84499W        W56759   4.441  41.327  11.960
84500W        W56760  39.013  39.423   0.903
84501W        W56761  35.567  36.956  13.371
84502W        W56762  11.319  36.878   1.904
84503W        W56763  30.466  32.086   1.802
84504W        W56764   6.732  36.078  11.016
84505W        W56765  35.094  17.151   4.339
84506W        W56766  34.414  12.698  14.429
84507W        W56767  20.686  30.042  12.078
84508W        W56768  17.565   4.879   2.360
84509W        W56769   3.449  17.736  12.952
84510W        W56770   3.438  13.108   4.650
84511W        W56771  11.867   3.335  13.314
84512W        W56772   1.927  25.069  13.888
84513W        W56773  44.907  35.005  13.936
84514W        W56774   1.900  27.948   3.232
84515W        W56775  40.382  15.124  13.924
84516W        W56776  28.035   1.937  10.999
84517W        W56777  13.233  22.130  13.932
84518W        W56778  34.544   7.314   2.412
84519W        W56779  36.491   8.862  13.342
84520W        W56780  38.843  18.158  13.444
84521W        W56781  41.534   9.229   1.402
84522W        W56782   2.941  26.609   2.674
84523W        W56783  14.832  18.080   4.173
84524W        W56784   1.789  41.934   3.661
84525W        W56785  35.991  18.194   1.916
84526W        W56786  26.008  34.879  11.389
84527W        W56787   2.906  25.649   3.645
84528W        W56788  32.128  28.079   1.445
84529W        W56789  40.523   7.410  12.529
84530W        W56790   8.343  39.837   4.228
84531W        W56791  23.015  13.743  11.888
84532W        W56792  23.227   6.263  13.933
84533W        W56793   7.806  44.266  14.333
84534W        W56794  19.663  37.015   3.300
84535W        W56795  15.199  35.393  13.337
84536W        W56796  41.461  25.973   0.909
84537W        W56797  32.087  37.502  12.400
84538W        W56798  24.657  29.585   4.283
84539W        W56799  26.629  23.110  12.562
84540W        W56800  17.688   9.260   1.368
84541W        W56801   3.858  43.329  14.371
84542W        W56802  22.699  23.011  10.489
84543W        W56803  44.778  16.751  11.515
84544W        W56804  25.035  24.623  13.051
84545W        W56805  34.079  27.956  14.389
84546W        W56806  22.510  33.501  12.089
84547W        W56807  18.760  41.416  12.381
84548W        W56808  34.975  41.019   0.797
84549W        W56809  11.362  10.219   4.699
84550W        W56810  17.076   4.703   4.179
84551W        W56811  25.985  20.528  11.952
84552W        W56812  38.999   3.787  13.984
84553W        W56813  28.555  24.519   2.664
84554W        W56814  32.451  36.955   2.377
84555W        W56815  24.111   3.374   1.401
84556W        W56816  41.312   8.161   2.754
84557W        W56817  22.217  32.604   1.291
84558W        W56818  29.993  43.782  11.102
84559W        W56819  22.730   7.268   4.126
84560W        W56820  34.117  14.631   4.758
84561W        W56821  20.162  12.732   2.802
84562W        W56822  27.676  30.439   4.174
84563W        W56823  18.638  29.024  10.465
84564W        W56824  14.249   0.747   0.327
84565W        W56825  37.408  35.523   2.205
84566W        W56826  13.277  44.790   2.721
84567W        W56827  26.198  43.864  13.517
84568W        W56828   9.249  19.137  12.966
84569W        W56829  26.133  36.357  14.381
84570W        W56830  44.392   4.715   4.741
84571W        W56831   8.396  30.023   1.860
84572W        W56832  22.560  14.209   3.710
84573W        W56833  39.527  21.612  11.859
84574W        W56834  23.570  18.652   4.738
84575W        W56835  44.277   1.883  10.054
84576W        W56836  15.589  32.036   2.717
84577W        W56837  37.475  18.724   1.858
84578W        W56838  22.646  35.567   0.744
84579W        W56839  35.060  26.491   0.420
84580W        W56840   0.327  13.703  11.437
84581W        W56841   2.415   9.669   3.369
84582W        W56842   8.340  29.521   4.725
84583W        W56843  18.727  33.619   1.226
84584W        W56844  39.042  20.178  11.080
84585W        W56845  42.283  43.894   0.738
84586W        W56846  39.432  25.578  11.491
84587W        W56847  24.524  38.451   4.709
84588W        W56848  18.583  16.786   2.766
84589W        W56849  20.274  39.385  12.898
84590W        W56850  37.536  31.979   3.793
84591W        W56851  14.124  14.746   9.949
84592W        W56852  16.807  22.044   1.845
84593W        W56853  14.288   8.362   1.297
84594W        W56854  13.642   4.258  14.934
84595W        W56855  10.301  42.886  14.308
84596W        W56856  43.374  25.596  10.465
84597W        W56857  19.209  41.930   3.289
84598W        W56858  41.407  21.564  13.317
84599W        W56859  27.490   0.456  12.514
84600W        W56860  22.744  40.004   0.446
84601W        W56861  14.730  32.922   2.264
84602W        W56862  25.028   0.417   3.775
84603W        W56863  23.659  22.111  10.426
84604W        W56864  31.998  19.538   5.296
84605W        W56865  39.021  13.160   5.282
84606W        W56866  15.143  22.564   1.694
84607W        W56867   2.771  39.511   0.345
84608W        W56868  44.853  44.458   2.838
84609W        W56869   0.935  20.631   2.199
84610W        W56870  28.662   5.793  11.596
84611W        W56871   9.826  11.209   4.602
84612W        W56872  36.567  11.330  10.900
84613W        W56873  40.861  36.522  11.602
84614W        W56874  19.699   5.800  12.860
84615W        W56875  18.174   6.191  10.996
84616W        W56876  42.359  18.220  14.995
84617W        W56877  40.849  43.933   3.330
84618W        W56878  21.243  22.065   0.940
84619W        W56879  39.040  43.942  10.950
84620W        W56880  12.140  26.668   0.956
84621W        W56881  31.474   6.198   0.329
84622W        W56882  29.048  12.811  12.071
84623W        W56883  12.857   7.294  14.889
84624W        W56884  16.123   8.244  12.048
84625W        W56885  23.999   5.338  13.344
84626W        W56886  36.516   1.868  14.799
84627W        W56887  20.053  22.185  13.009
84628W        W56888   7.394   2.416   2.753
84629W        W56889  33.118   2.257   1.246
84630W        W56890  25.099   2.793   4.334
84631W        W56891  35.853  43.795  13.859
84632W        W56892  12.638  23.704  12.571
84633W        W56893   6.327  29.581   1.319
84634W        W56894  30.414  43.405   1.712
84635W        W56895   8.185  27.614  11.417
84636W        W56896   5.797  28.030  13.049
84637W        W56897  24.491  27.477  10.414
84638W        W56898  10.355  11.139   4.186
84639W        W56899  13.632  36.567   1.417
84640W        W56900  14.613  32.892   3.633
84641W        W56901  43.483  28.017   1.391
84642W        W56902  31.938  21.730   2.416
84643W        W56903  23.535  10.676   4.732
84644W        W56904   3.808   9.770  11.076
84645W        W56905  35.555  34.430  13.859
84646W        W56906   0.841   8.275  12.449
84647W        W56907  23.656  12.199  11.508
84648W        W56908  39.317  20.270   4.629
84649W        W56909   0.340   1.807  12.382
84650W        W56910  11.215  11.362   4.819
84651W        W56911   0.871  44.833   0.341
84652W        W56912  38.071  39.016  12.415
84653W        W56913   5.242  31.482   4.338
84654W        W56914  10.207  12.160  10.962
84655W        W56915  34.043  27.055  13.365
84656W        W56916  43.303  35.600   3.161
84657W        W56917   6.706  24.677  11.553
84658W        W56918  18.625  36.588  14.980
84659W        W56919  29.064  43.904   4.770
84660W        W56920  44.920  34.457   2.833
84661W        W56921   5.857   8.828  14.760
84662W        W56922  17.638   5.855   1.893
84663W        W56923  18.265  28.172   3.163
84664W        W56924  29.666  29.572  10.010
84665W        W56925   2.958  20.750  11.044
84666W        W56926  40.381  11.779  13.013
84667W        W56927  30.979   8.293  11.394
84668W        W56928  29.566   6.238  12.015
84669W        W56929   6.200   2.891  12.928
84670W        W56930  23.506  36.351   4.608
84671W        W56931  31.981  26.113  14.965
84672W        W56932  37.018  20.600   1.739
84673W        W56933   4.294  42.431  12.457
84674W        W56934  28.675  12.713   0.342
84675W        W56935  43.376  17.574   0.296
84676W        W56936  24.048  14.296   5.164
84677W        W56937  11.679  11.236   1.934
84678W        W56938   2.875  20.174   2.412
84679W        W56939   4.244  41.825   2.809
84680W        W56940   9.363  40.544  13.853
84681W        W56941   9.654   3.884  14.320
84682W        W56942   5.323  27.456  11.104
84683W        W56943  38.479  36.934  14.835
84684W        W56944   5.891  21.060   3.784
84685W        W56945  14.751  12.612  12.014
84686W        W56946  17.244  13.122  12.497
84687W        W56947  42.940   7.217   2.685
84688W        W56948  33.577  18.700   1.761
84689W        W56949  15.106  25.038  11.877
84690W        W56950   2.402   6.679   4.207
84691W        W56951   6.284  31.497  13.017
84692W        W56952   1.282  38.935   4.599
84693W        W56953   9.829   0.448   2.892
84694W        W56954  26.004  17.770   0.357
84695W        W56955  35.533  40.825   3.719
84696W        W56956  23.579  42.523   3.375
84697W        W56957  37.378  10.708   4.288
84698W        W56958  23.494   0.792   4.829
84699W        W56959  10.300  32.127   3.279
84700W        W56960  29.038   3.825   3.847
84701W        W56961  41.833  38.003  14.337
84702W        W56962  25.073  32.576   0.464
84703W        W56963  12.634   1.749  10.569
84704W        W56964  32.616  35.368   4.126
84705W        W56965   7.719  34.526   3.857
84706W        W56966  38.036  28.523   2.333
84707W        W56967  14.337   2.339   0.820
84708W        W56968  24.714  42.370  12.401
84709W        W56969   1.367   7.258   0.432
84710W        W56970   7.383  22.087  12.990
84711W        W56971  28.141  22.133   2.284
84712W        W56972  23.685  20.116  14.356
84713W        W56973  12.700  17.708   1.848
84714W        W56974   9.662  30.914   0.833
84715W        W56975  16.152   3.814  14.344
84716W        W56976  41.442  32.064   5.175
84717W        W56977  18.552  41.827   2.756
84718W        W56978  14.246   3.742  11.497
84719W        W56979  34.498  24.075   2.399
84720W        W56980  11.666  12.258   0.320
84721W        W56981  27.051  40.491   0.880
84722W        W56982  12.764   3.382  12.514
84723W        W56983  41.814  19.640   0.915
84724W        W56984  19.582  42.997  14.327
84725W        W56985  34.462  43.815  10.459
84726W        W56986  10.778   3.390   3.684
84727W        W56987  35.030  14.201   3.845
84728W        W56988  10.803  31.912  12.093
84729W        W56989  16.106  28.067  10.908
84730W        W56990  31.525   1.319  12.519
84731W        W56991  39.909   6.898  11.934
84732W        W56992  25.136  33.505   4.298
84733W        W56993   4.433  11.685  14.022
84734W        W56994  30.154  13.695   3.329
84735W        W56995  25.167  37.864   2.677
84736W        W56996   9.686  35.490  11.549
84737W        W56997  11.244   1.448   4.623
84738W        W56998  21.245  40.405  14.336
84739W        W56999  29.494  39.527  11.911
84740W        W57000  22.552  43.491   1.870
84741W        W57001  21.682  38.034  13.529
84742W        W57002  24.029  24.535  13.421
84743W        W57003  23.159  25.650  10.533
84744W        W57004  31.550   4.363  12.979
84745W        W57005  33.030  40.338  10.946
84746W        W57006   4.799  18.139  14.788
84747W        W57007  28.529  16.264   1.239
84748W        W57008   1.961   3.397   2.389
84749W        W57009   7.293  40.029   2.768
84750W        W57010  31.619  26.652  11.470
84751W        W57011  23.503   0.857  12.908
84752W        W57012  24.179  32.979   2.807
84753W        W57013  42.797  12.620  11.902
84754W        W57014  26.649  40.926  13.807
84755W        W57015  27.635   7.710   4.709
84756W        W57016  44.945  27.995  12.917
84757W        W57017  30.035  28.151  13.825
84758W        W57018   2.797  17.653  11.495
84759W        W57019  15.304  36.556  11.888
84760W        W57020  11.186  14.182   1.852
84761W        W57021  28.473  32.452   5.314
84762W        W57022   8.274  13.137  13.055
84763W        W57023  13.748  37.939   2.683
84764W        W57024   8.290  19.534   0.407
84765W        W57025  23.155  30.127  14.411
84766W        W57026  31.004  27.966   1.781
84767W        W57027  12.128  22.536  11.038
84768W        W57028  16.151  40.411   0.255
84769W        W57029  30.509  41.454   3.667
84770W        W57030  33.020  39.830   1.235
84771W        W57031  18.765  25.198   4.182
84772W        W57032  22.675  35.108   1.436
84773W        W57033  18.653  41.304  11.444
84774W        W57034  37.894  28.647   3.724
84775W        W57035  34.915  21.239   3.170
84776W        W57036  13.645   8.369  11.525
84777W        W57037  37.500  36.841   1.783
84778W        W57038   7.709   3.335   2.306
84779W        W57039  35.855  26.509   2.689
84780W        W57040   2.311  43.358  13.885
84781W        W57041   7.697  12.132  12.082
84782W        W57042  17.798   2.813  11.598
84783W        W57043  40.914   9.661   2.188
84784W        W57044  24.615  18.676   0.247
84785W        W57045   8.791  16.672  10.941
84786W        W57046  34.994  21.088  13.540
84787W        W57047  36.464  34.897   4.279
84788W        W57048  44.492  38.036   1.341
84789W        W57049  18.552  16.651  11.977
84790W        W57050  32.585  39.054  12.085
84791W        W57051  11.735  38.458   3.867
84792W        W57052  18.581  42.495  12.010
84793W        W57053  28.012  36.521   2.690
84794W        W57054  10.773  17.705   4.209
84795W        W57055  25.664  34.442  12.418
84796W        W57056  11.357  21.187  10.443
84797W        W57057  42.357  26.180  12.859
84798W        W57058  40.933  18.152  11.046
84799W        W57059   0.360   9.841  13.919
84800W        W57060  33.015  29.558  13.909
84801W        W57061  20.088   8.286   0.877
84802W        W57062  36.455   0.838  14.906
84803W        W57063  35.550  31.532  12.828
84804W        W57064   1.921  33.534  11.104
84805W        W57065  19.199  12.148  12.924
84806W        W57066  16.770  12.207   2.896
84807W        W57067  17.655  20.641  12.092
84808W        W57068  30.128   1.424   2.225
84809W        W57069  31.528  42.799  13.493
84810W        W57070  30.916  13.201   4.130
84811W        W57071  28.978  19.176  10.623
84812W        W57072   2.836  15.326   3.855
84813W        W57073  32.122  42.289   0.407
84814W        W57074  15.652  34.956   5.298
84815W        W57075   2.805  19.725  12.961
84816W        W57076  27.504  36.399   1.431
84817W        W57077  18.068  25.967   0.833
84818W        W57078  17.612  36.526  11.523
84819W        W57079  20.736  13.828   2.823
84820W        W57080  22.048  25.626  11.403
84821W        W57081  30.562  15.779   0.739
84822W        W57082  32.007  25.657  14.919
84823W        W57083  15.818   8.709   0.337
84824W        W57084  28.120  35.384  11.036
84825W        W57085  22.689  17.306   5.282
84826W        W57086  28.078   7.872   4.624
84827W        W57087  21.045  35.080   4.761
84828W        W57088   0.877  18.217   4.201
84829W        W57089  12.802  13.264   1.929
84830W        W57090  24.624  42.396  11.462
84831W        W57091  43.959  10.809   3.664
84832W        W57092  40.873  42.348  10.440
84833W        W57093  25.554   9.718   1.289
84834W        W57094  18.547  37.914   4.256
84835W        W57095  19.673  15.120  14.821
84836W        W57096  34.557   0.316   1.316
84837W        W57097  40.512   4.827   0.744
84838W        W57098  40.899  21.536  14.947
84839W        W57099  40.907  35.063  10.909
84840W        W57100  38.982  36.446   4.709
84841W        W57101  23.119  21.579  13.058
84842W        W57102  25.210  22.009  11.077
84843W        W57103  29.612  43.925  13.900
84844W        W57104  32.080  19.179  10.483
84845W        W57105  11.268  35.450   4.816
84846W        W57106  37.383  33.617  12.515
84847W        W57107   0.324   6.241  11.482
84848W        W57108  41.860  12.330   0.297
84849W        W57109  22.529   4.865  11.421
84850W        W57110   0.845  27.036  14.493
84851W        W57111  23.718  11.315  14.938
84852W        W57112  11.201  28.646   2.179
84853W        W57113  21.597  22.205  12.499
84854W        W57114  35.978  16.745   0.964
84855W        W57115  14.229  18.619   1.223
84856W        W57116  36.073  36.434   0.917
84857W        W57117  41.412   4.391  14.969
84858W        W57118  19.100  13.285  13.329
84859W        W57119  32.427  33.581   2.349
84860W        W57120  27.520  23.638   3.293
84861W        W57121  32.415  13.161  13.356
84862W        W57122   0.742  27.057  14.854
84863W        W57123  21.208  30.555  11.935
84864W        W57124  26.480  29.161   3.296
84865W        W57125  32.891   3.898  11.585
84866W        W57126  20.737  37.965   1.795
84867W        W57127   5.217  27.966   5.640
84868W        W57128  34.049  30.062   4.220
84869W        W57129  23.582  24.059   2.777
84870W        W57130  15.258  11.207   4.656
84871W        W57131  18.231   2.741   0.812
84872W        W57132  10.379  25.187  14.799
84873W        W57133  35.966  42.783  11.863
84874W        W57134  24.031  42.783  13.517
84875W        W57135  20.730  40.848  12.399
84876W        W57136  37.487   5.266   4.140
84877W        W57137   2.267  42.951   4.734
84878W        W57138  19.108  31.471  10.946
84879W        W57139  25.560  39.003  11.496
84880W        W57140  43.011  39.826   1.846
84881W        W57141  21.661  36.371   2.821
84882W        W57142  35.378  44.984  13.320
84883W        W57143  41.978   2.241  12.545
84884W        W57144  26.016   3.395  12.002
84885W        W57145  12.270  37.484   2.197
84886W        W57146   4.365  13.739   4.599
84887W        W57147   6.767  16.597   1.741
84888W        W57148  31.508  39.808   4.177
84889W        W57149   1.322   7.284  14.296
84890W        W57150  28.060  22.502  11.985
84891W        W57151  25.202   0.446  11.606
84892W        W57152  43.939   2.916   1.793
84893W        W57153  30.502   7.884  11.008
84894W        W57154  35.418  42.885  13.791
84895W        W57155  17.152  39.460   1.295
84896W        W57156  42.326  35.541  14.362
84897W        W57157  33.933  14.095  11.376
84898W        W57158  30.994  32.082   0.337
84899W        W57159  12.184  37.383  12.020
84900W        W57160   7.204  29.942   2.375
84901W        W57161  42.958  20.157  14.935
84902W        W57162  10.810  39.865   4.120
84903W        W57163  25.220  32.080   0.741
84904W        W57164  26.606  20.198  13.406
84905W        W57165  33.501  31.566  12.922
84906W        W57166  39.533   8.194   5.311
84907W        W57167  30.472  32.596   5.095
84908W        W57168  12.790  37.339   3.238
84909W        W57169   1.780   9.723  11.473
84910W        W57170  15.738  35.049   1.280
84911W        W57171  40.817  42.897  11.122
84912W        W57172  37.057  24.687   0.415
84913W        W57173  35.515  16.081  10.960
84914W        W57174  36.572  27.643   1.311
84915W        W57175  37.051  12.296   3.233
84916W        W57176  10.182  17.589   4.126
84917W        W57177  23.707   8.823   2.683
84918W        W57178  37.358  18.056   3.266
84919W        W57179   8.809  31.020   3.289
84920W        W57180  11.776  12.826  14.775
84921W        W57181  13.832  37.013   3.342
84922W        W57182  11.152  14.150  12.944
84923W        W57183  38.491   3.892  11.972
84924W        W57184  37.460  11.323   1.436
84925W        W57185  41.971  34.384  10.464
84926W        W57186   3.384  43.491   0.784
84927W        W57187  17.166  39.970  13.845
84928W        W57188   7.757  44.288   4.229
84929W        W57189   6.250  23.715  12.851
84930W        W57190  15.823   7.666   3.215
84931W        W57191  13.826  25.063  14.456
84932W        W57192   4.323   0.816  10.901
84933W        W57193  13.134  19.579  14.398
84934W        W57194  44.913  35.591   1.235
84935W        W57195   0.902  42.841   9.965
84936W        W57196  26.012  31.513   4.237
84937W        W57197  30.004  43.794   3.782
84938W        W57198   8.745  16.212  11.911
84939W        W57199  35.070  29.628  14.331
84940W        W57200  31.147  27.982  14.828
84941W        W57201  33.082  29.017  10.511
84942W        W57202  44.968  29.026   2.760
84943W        W57203  33.995  13.600   1.348
84944W        W57204  25.610  12.274  14.995
84945W        W57205  10.318   9.659  13.454
84946W        W57206  30.522   9.350  10.626
84947W        W57207  13.621  31.953   3.208
84948W        W57208  15.771   7.840  14.948
84949W        W57209   9.870   5.922  12.485
84950W        W57210  38.059  16.205  11.874
84951W        W57211  43.355  23.101  11.460
84952W        W57212  37.866   7.791   2.694
84953W        W57213  39.321   6.224  14.026
84954W        W57214  25.108  40.023   0.850
84955W        W57215   7.371  38.857   4.690
84956W        W57216  27.047  17.727   1.327
84957W        W57217  36.024  30.466   4.209
84958W        W57218  15.799  18.233  14.988
84959W        W57219  20.153  13.636   2.375
84960W        W57220   4.780   4.319   2.228
84961W        W57221  13.800   2.316   3.826
84962W        W57222  43.272  11.220  14.993
84963W        W57223  42.857  25.107  11.549
84964W        W57224  26.121  31.428   0.336
84965W        W57225  41.836  32.046   3.345
84966W        W57226  24.024   7.282   9.936
84967W        W57227   3.215  27.672   2.662
84968W        W57228  22.044  12.185  10.425
84969W        W57229  41.004  28.152  11.115
84970W        W57230  32.611  28.932  10.119
84971W        W57231   7.417   3.373  14.815
84972W        W57232  13.751  26.180   1.902
84973W        W57233  34.532   6.289  13.925
84974W        W57234   0.773  40.940   1.762
84975W        W57235  29.160  20.735  11.016
84976W        W57236  16.582   7.871   5.771
84977W        W57237  38.831   1.890   4.601
84978W        W57238  12.155  18.123   4.766
84979W        W57239  33.408  25.471   3.842
84980W        W57240  34.439  38.960   3.733
84981W        W57241  16.258  19.684   4.754
84982W        W57242  15.720  18.156   3.368
84983W        W57243  42.026  25.990   4.168
84984W        W57244  19.123   7.395   0.269
84985W        W57245  27.117  27.652   2.702
84986W        W57246  44.885   4.310   4.262
84987W        W57247  15.608  29.669  13.938
84988W        W57248  34.436  16.216  10.570
84989W        W57249  30.497  43.493   2.217
84990W        W57250   2.416   3.752   1.779
84991W        W57251  26.676   6.868  11.431
84992W        W57252  18.578  11.782   2.387
84993W        W57253  20.633   6.811  10.983
84994W        W57254  26.540   7.404   4.128
84995W        W57255   9.295  35.463   3.306
84996W        W57256   0.815  18.573   4.826
84997W        W57257   1.409  10.797  11.078
84998W        W57258  12.799  18.557   1.694
84999W        W57259   9.152  21.597  12.458
85000W        W57260   9.388  15.653  11.971
85001W        W57261  37.560   6.188  11.569
85002W        W57262   4.902  12.796   0.267
85003W        W57263   9.227   2.254   3.279
85004W        W57264  10.287   6.708  10.893
85005W        W57265  21.252   6.795   3.344
85006W        W57266  38.540   6.705   1.256
85007W        W57267  24.221   5.315   3.650
85008W        W57268  35.379  43.825  10.979
85009W        W57269  13.797  15.724  14.452
85010W        W57270  40.957  12.230   2.314
85011W        W57271  10.322  28.601   1.286
85012W        W57272  21.019  36.914  12.374
85013W        W57273  28.140  38.424  13.532
85014W        W57274  42.334  35.591   4.766
85015W        W57275  31.516  43.501   4.157
85016W        W57276  34.443  34.422  12.092
85017W        W57277  27.976  26.147   9.976
85018W        W57278   9.723   4.273  13.874
85019W        W57279  10.190   0.782   3.870
85020W        W57280   4.760  15.627   5.247
85021W        W57281  11.748  44.385  13.797
85022W        W57282  20.723  11.198  13.931
85023W        W57283   0.447  38.340   3.708
85024W        W57284  21.519  25.040  12.991
85025W        W57285  38.071  12.158  10.561
85026W        W57286  42.837   7.204  11.882
85027W        W57287  32.393  28.040   1.871
85028W        W57288  41.815   3.940  12.516
85029W        W57289  33.586   7.273  10.642
85030W        W57290  29.077  38.471  13.902
85031W        W57291  21.133   1.382   4.832
85032W        W57292  40.004   0.282   2.670
85033W        W57293   3.280   3.296  14.397
85034W        W57294  30.562  36.458   4.784
85035W        W57295  32.033  42.438   4.346
85036W        W57296  11.309  37.992   4.133
85037W        W57297  18.198  21.171   1.413
85038W        W57298   7.806  37.964  11.375
85039W        W57299   8.199  28.486  14.398
85040W        W57300  21.533  38.446  14.017
85041W        W57301  42.284  26.085  14.022
85042W        W57302   6.801  39.559   1.415
85043W        W57303  29.161  39.959   0.336
85044W        W57304  14.198   1.827  12.568
85045W        W57305  43.970  13.662  10.564
85046W        W57306  35.591  19.232  10.955
85047W        W57307  42.795  38.999  12.956
85048W        W57308  44.450  22.735   0.401
85049W        W57309  38.909   3.298   0.410
85050W        W57310  27.520  32.578   1.210
85051W        W57311  38.068  36.415  14.000
85052W        W57312  24.008  20.695  12.891
85053W        W57313  27.647   9.685  14.294
85054W        W57314   8.708  21.255   1.777
85055W        W57315  20.166  17.070  11.993
85056W        W57316  24.600  12.222  13.481
85057W        W57317  29.052   4.236   2.209
85058W        W57318  27.962  26.192   2.877
85059W        W57319   0.260  37.031  11.897
85060W        W57320  29.122  11.347   0.782
85061W        W57321   6.423  25.206  10.036
85062W        W57322   3.375  44.438   3.338
85063W        W57323  43.861  44.309  14.368
85064W        W57324  21.180  40.492  13.878
85065W        W57325   9.862  28.612   0.433
85066W        W57326  33.984  31.996   2.678
85067W        W57327  12.779  16.077   2.873
85068W        W57328  12.342  21.144   0.373
85069W        W57329  25.978  22.007   1.420
85070W        W57330  44.504  18.066  13.388
85071W        W57331  30.108   0.783   1.216
85072W        W57332  35.867  32.892   2.720
85073W        W57333   3.439  16.220   1.876
85074W        W57334  38.393   0.363  13.368
85075W        W57335  36.455  35.003  11.523
85076W        W57336  26.488  30.114  14.394
85077W        W57337  24.632  31.145  13.311
85078W        W57338  26.171  43.389  12.522
85079W        W57339  41.498  32.530   4.353
85080W        W57340  35.362  26.471  11.416
85081W        W57341  18.765  35.454  14.000
85082W        W57342   1.787  25.984  13.416
85083W        W57343  34.372  30.143  14.810
85084W        W57344  16.689   3.250   0.474
85085W        W57345  43.515  44.415  13.031
85086W        W57346  43.830  12.681   2.196
85087W        W57347   1.477  43.472   2.225
85088W        W57348  11.644   0.775  14.335
85089W        W57349  20.200  15.220  10.464
85090W        W57350  28.679  32.440   3.741
85091W        W57351  23.509  21.040   0.278
85092W        W57352  37.520   5.422  13.816
85093W        W57353  17.137  44.484   0.431
85094W        W57354  16.772  11.339   4.146
85095W        W57355  30.030  10.879   0.895
85096W        W57356  10.874  40.883   2.761
85097W        W57357  15.187  14.143  13.405
85098W        W57358  29.464  43.302  14.357
85099W        W57359  33.542  39.446  12.074
85100W        W57360  20.542   4.908   4.721
85101W        W57361  38.069  42.871   4.700
85102W        W57362  30.981  15.734   0.456
85103W        W57363  40.459  13.779   4.331
85104W        W57364  16.111  32.060   1.808
85105W        W57365   4.341  40.341  13.004
85106W        W57366  19.153   4.819   1.855
85107W        W57367  38.537  35.975  14.902
85108W        W57368   6.262   3.873   4.259
85109W        W57369  14.621  39.926   3.222
85110W        W57370  41.963  25.551  13.502
85111W        W57371  27.074   7.306   2.665
85112W        W57372  17.297   7.205  10.049
85113W        W57373  10.378  33.475   3.803
85114W        W57374  18.091  30.445   2.196
85115W        W57375  33.030  32.943   0.865
85116W        W57376  41.992  37.463  14.334
85117W        W57377  14.604  35.427  11.964
85118W        W57378  23.216  12.342  13.953
85119W        W57379  13.817  18.649  12.360
85120W        W57380  33.457   7.317   4.779
85121W        W57381  42.378   2.884   1.421
85122W        W57382   7.213  28.000  14.949
85123W        W57383   2.887   7.692   3.297
85124W        W57384  35.584  16.124   0.815
85125W        W57385  32.574   7.209   5.319
85126W        W57386  37.048   4.248  12.011
85127W        W57387  16.181  41.908  12.879
85128W        W57388  27.655  11.177   1.923
85129W        W57389  26.473  21.094   5.263
85130W        W57390   8.160  16.648  11.106
85131W        W57391   3.805  35.052  10.061
85132W        W57392  12.202  41.300   4.815
85133W        W57393  28.103  17.679   1.749
85134W        W57394  20.736  33.539  12.369
85135W        W57395  34.538  20.080   3.673
85136W        W57396  23.138  31.440  13.398
85137W        W57397  42.402   5.785   3.213
85138W        W57398  14.183   5.743   2.207
85139W        W57399  23.066  23.137   4.244
85140W        W57400  42.389  41.838   1.334
85141W        W57401  34.500  40.048   4.753
85142W        W57402  24.648  17.572   0.407
85143W        W57403  28.657  40.875  13.417
85144W        W57404  38.449  37.368  13.393
85145W        W57405  30.653  22.016   1.855
85146W        W57406   3.849   7.207   3.220
85147W        W57407  17.605   1.788  13.030
85148W        W57408  34.999  37.360  13.905
85149W        W57409  26.651  25.219  10.450
85150W        W57410  14.101  25.158  11.960
85151W        W57411  14.599  17.172   5.270
85152W        W57412  13.239   2.781  13.342
85153W        W57413  14.192   7.767  14.794
85154W        W57414  25.613  39.839  12.012
85155W        W57415  10.860  41.527  12.362
85156W        W57416   0.337  32.086  14.299
85157W        W57417  23.091  27.107  14.001
85158W        W57418  20.231   0.248   2.192
85159W        W57419  33.458  35.365  13.029
85160W        W57420  44.935  10.355  11.443
85161W        W57421  43.313   9.656   0.476
85162W        W57422   1.286  41.835   0.358
85163W        W57423  17.568  22.511   3.758
85164W        W57424  42.878  30.561  10.543
85165W        W57425  29.455  43.471  14.938
85166W        W57426  39.028  11.829  12.911
85167W        W57427  40.384  27.460  11.540
85168W        W57428  17.242  36.023  11.949
85169W        W57429   6.785  24.222   2.190
85170W        W57430  32.987   4.336   0.248
85171W        W57431  14.619   5.390   3.775
85172W        W57432  14.324  42.302  13.902
85173W        W57433  42.957  37.364   0.919
85174W        W57434  39.339   1.783   4.254
85175W        W57435   9.391  28.167  11.483
85176W        W57436   8.883  17.154  11.035
85177W        W57437  44.455  16.599  10.604
85178W        W57438   5.380  39.331  14.497
85179W        W57439  28.016  23.021  10.617
85180W        W57440  40.401  35.384  13.375
85181W        W57441  11.714  42.013  13.517
85182W        W57442   9.324  18.068   2.207
85183W        W57443  28.119  31.084  13.456
85184W        W57444  29.155  21.103   0.922
85185W        W57445  13.783   4.875  14.426
85186W        W57446  30.945   6.766   0.346
85187W        W57447  33.625  37.845  13.417
85188W        W57448  19.051  36.445   2.739
85189W        W57449  26.141  37.960  12.393
85190W        W57450  28.544   5.714  12.012
85191W        W57451   5.331  39.975  12.575
85192W        W57452  19.575  40.412   5.235
85193W        W57453  35.385  16.689   3.321
85194W        W57454  35.091  15.633  10.632
85195W        W57455   3.784   3.862  13.960
85196W        W57456  37.558  35.502  13.839
85197W        W57457  20.111  23.637  13.963
85198W        W57458   9.312  25.646  13.845
85199W        W57459  41.039  16.595  10.954
85200W        W57460  41.339   6.263   1.386
85201W        W57461  41.790   1.270  12.000
85202W        W57462   1.321  22.719   0.408
85203W        W57463  28.991  11.729  10.407
85204W        W57464  20.173  14.722  12.026
85205W        W57465  28.023  33.890  13.857
85206W        W57466   1.781  42.987   2.796
85207W        W57467  37.982  12.168   4.775
85208W        W57468  13.769  10.852   3.375
85209W        W57469  33.992  27.040   3.346
85210W        W57470  11.268  13.617   1.751
85211W        W57471  43.924  25.098  12.374
85212W        W57472   3.791  42.875  13.989
85213W        W57473  43.971  30.087   1.374
85214W        W57474  21.613  44.783  11.449
85215W        W57475   6.861  39.032   1.825
85216W        W57476  30.483  35.914  10.956
85217W        W57477  32.906  14.762   2.398
85218W        W57478  27.084   0.370  14.398
85219W        W57479  18.127  34.442  11.581
85220W        W57480  16.117  35.879   5.092
85221W        W57481  16.694  15.771  12.372
85222W        W57482  11.781  14.186   4.215
85223W        W57483  14.666   9.848   4.196
85224W        W57484  25.210   7.903  12.472
85225W        W57485  15.126  13.700  12.563
85226W        W57486  14.289   9.361  11.043
85227W        W57487  12.143  39.850  13.875
85228W        W57488  30.025  42.920   2.376
85229W        W57489   3.823  15.265  14.332
85230W        W57490  28.185   2.292  12.569
85231W        W57491  31.930  12.709   0.367
85232W        W57492   5.371  38.042   3.217
85233W        W57493   3.814  32.454   3.688
85234W        W57494  35.989  22.739  10.442
85235W        W57495  30.623   1.871  11.463
85236W        W57496  21.631   9.338   1.738
85237W        W57497  33.575  21.569  13.491
85238W        W57498  24.533   4.888   3.372
85239W        W57499  24.707   4.317   2.846
85240W        W57500  40.991   3.940  13.049
85241W        W57501  32.624  35.524   2.214
85242W        W57502  15.580   3.922   4.817
85243W        W57503  25.577  35.554  14.874
85244W        W57504   8.664  30.126   3.302
85245W        W57505  27.541  34.996  12.472
85246W        W57506  34.980   4.255  14.769
85247W        W57507  11.642   9.244  11.076
85248W        W57508  32.409  17.568  10.968
85249W        W57509  13.278  24.221   2.763
85250W        W57510  30.418  38.402  12.434
85251W        W57511  24.141  29.020  11.942
85252W        W57512   3.295  19.598  13.390
85253W        W57513  37.356  31.648   3.192
85254W        W57514  16.678  28.620   0.469
85255W        W57515  13.169  37.340  10.574
85256W        W57516  38.459  37.878   3.677
85257W        W57517  38.369   7.201   5.727
85258W        W57518  41.953  33.032   4.696
85259W        W57519  37.969  39.007  13.969
85260W        W57520   0.468  34.974   2.181
85261W        W57521  26.679  31.918  14.367
85262W        W57522  28.592  38.967   9.991
85263W        W57523  20.087  43.442  13.896
85264W        W57524   3.722  25.023   1.848
85265W        W57525  25.200  32.004   2.289
85266W        W57526  26.498  25.000   3.643
85267W        W57527   7.681  27.146  13.350
85268W        W57528   3.727  15.734  14.019
85269W        W57529  11.829  28.179   4.190
85270W        W57530  31.922  35.925   3.280
85271W        W57531  23.542  28.548   3.180
85272W        W57532  23.592  37.065  14.424
85273W        W57533  13.218  43.389   2.740
85274W        W57534   7.751  15.766  12.354
85275W        W57535  32.070   4.211  13.413
85276W        W57536   5.900  43.343   4.744
85277W        W57537  41.023  37.500   3.203
85278W        W57538  12.355  39.039   2.304
85279W        W57539   9.786  33.009   2.811
85280W        W57540   9.355  42.785   9.929
85281W        W57541  20.248   7.253  12.846
85282W        W57542   7.715  14.273  14.479
85283W        W57543   8.190   6.305  14.785
85284W        W57544  30.417  42.918  14.422
85285W        W57545  42.940  10.334   0.826
85286W        W57546  20.255  32.632   0.807
85287W        W57547  19.198  41.451   2.290
85288W        W57548  37.043  40.460   3.860
85289W        W57549  26.565   6.812  13.839
85290W        W57550  24.189  33.585  13.047
85291W        W57551  27.179  16.102   3.214
85292W        W57552  11.700  38.899  12.514
85293W        W57553  35.003  24.101   5.121
85294W        W57554  32.095  22.021   1.843
85295W        W57555  36.366   5.722  12.404
85296W        W57556   0.791   1.346  10.990
85297W        W57557   6.279  14.146   2.688
85298W        W57558  10.320  13.750   3.179
85299W        W57559  41.472  30.034  14.791
85300W        W57560  29.510  35.380  14.904
85301W        W57561  23.990  19.542  13.803
85302W        W57562  21.663  19.059   2.847
85303W        W57563   4.439   0.395  11.910
85304W        W57564  43.969  21.194  10.642
85305W        W57565  10.321   4.881   9.932
85306W        W57566   0.327  15.251   3.699
85307W        W57567  18.676  27.995   2.363
85308W        W57568  43.298  10.663  10.890
85309W        W57569   1.845  16.293   2.873
85310W        W57570   5.199  42.854   1.857
85311W        W57571  20.723  13.839  11.558
85312W        W57572   5.882  31.036  13.054
85313W        W57573   8.224  28.950   4.723
85314W        W57574  42.482  25.193  10.918
85315W        W57575  16.712  44.464   3.783
85316W        W57576  39.984  15.269  12.522
85317W        W57577  44.504   9.863   0.821
85318W        W57578  13.350  29.133   3.829
85319W        W57579   0.388  39.871   1.694
85320W        W57580   7.204  34.981  13.364
85321W        W57581   4.791   1.809   2.743
85322W        W57582  31.609  19.620  13.545
85323W        W57583  14.250  44.493   1.797
85324W        W57584  37.895  39.024   4.283
85325W        W57585  28.932  31.512  13.836
85326W        W57586   6.902   3.805   1.378
85327W        W57587  44.328  11.326  14.848
85328W        W57588  25.644  14.232  13.934
85329W        W57589  34.976   0.448   1.753
85330W        W57590  30.457  30.419   0.878
85331W        W57591  34.961  33.547  14.800
85332W        W57592  14.736  14.200  13.016
85333W        W57593  42.814  24.581   3.318
85334W        W57594   5.914  40.421   2.770
85335W        W57595  12.768  37.870  10.977
85336W        W57596  30.606  40.952  11.605
85337W        W57597   0.899  44.774  11.396
85338W        W57598  22.653  18.786   2.762
85339W        W57599  37.982  37.985  14.458
85340W        W57600  36.021  39.812  12.520
85341W        W57601  36.417   7.711  14.302
85342W        W57602  24.023  23.594   1.356
85343W        W57603  28.012  42.364  14.810
85344W        W57604  11.686  17.240  12.002
85345W        W57605  28.046  12.825   2.247
85346W        W57606   8.338  14.726   1.369
85347W        W57607   1.297   3.298   1.704
85348W        W57608  15.708   9.188   1.280
85349W        W57609  16.592   1.942  13.336
85350W        W57610   8.863  31.077  14.759
85351W        W57611  23.129  13.186   1.745
85352W        W57612   4.770  28.443   2.398
85353W        W57613  14.256  19.151  14.277
85354W        W57614  39.922  27.571   3.797
85355W        W57615  19.772  31.931   2.666
85356W        W57616  31.104  37.506   0.255
85357W        W57617  34.877  43.864   1.738
85358W        W57618   2.745  34.381  14.477
85359W        W57619  42.835   0.952  14.967
85360W        W57620  44.960  21.617  11.969
85361W        W57621  33.423  19.057  11.507
85362W        W57622  40.343  28.937  14.936
85363W        W57623  25.166  21.132  11.964
85364W        W57624  27.196  29.493   3.160
85365W        W57625  18.728   7.723  14.459
85366W        W57626  12.292  37.088  13.837
85367W        W57627  16.655  41.429   4.138
85368W        W57628  18.682  18.082   0.889
85369W        W57629  42.444  10.849   2.212
85370W        W57630  42.959   7.275   3.193
85371W        W57631  25.655   3.772  12.851
85372W        W57632  44.409  10.191   1.385
85373W        W57633  32.027  39.346   2.356
85374W        W57634  14.782  28.164  14.853
85375W        W57635  33.931  20.169   0.942
85376W        W57636   0.872  11.709   0.461
85377W        W57637  34.082   3.851   1.449
85378W        W57638  30.620  39.413  14.859
85379W        W57639  14.591  22.620  13.919
85380W        W57640  39.423  14.264   1.891
85381W        W57641  22.158  39.941   3.856
85382W        W57642  39.362  17.068  11.491
85383W        W57643  20.567  21.262  12.853
85384W        W57644  38.042  11.860  13.848
85385W        W57645  31.032  10.723  14.772
85386W        W57646  37.873  34.978  10.431
85387W        W57647  17.185   4.238   3.685
85388W        W57648  42.513   7.882  12.055
85389W        W57649  29.010   0.981  12.883
85390W        W57650   2.960  20.269  14.332
85391W        W57651  35.554  44.753   2.401
85392W        W57652  21.070   4.356   4.673
85393W        W57653  42.823   9.352  11.862
85394W        W57654  22.734  27.585  14.953
85395W        W57655  29.010  12.826   0.299
85396W        W57656  26.049  36.423   3.259
85397W        W57657   1.381  32.416   3.771
85398W        W57658  37.463  12.635   9.945
85399W        W57659  20.748  38.417  12.523
85400W        W57660  20.730  11.764  11.985
85401W        W57661  23.180   5.699   0.327
85402W        W57662  39.421  43.332   4.295
85403W        W57663  33.477  17.176  11.924
85404W        W57664   8.191  34.467  12.362
85405W        W57665  37.504  21.164   2.691
85406W        W57666  20.263  37.565   2.249
85407W        W57667  14.638  28.017   3.145
85408W        W57668  31.424  36.850  14.438
85409W        W57669  34.959  20.744  13.425
85410W        W57670  18.201  10.770   1.241
85411W        W57671  19.255  29.045   1.371
85412W        W57672  42.339  19.092   3.209
85413W        W57673  24.491   2.934   1.837
85414W        W57674   7.410   2.345   2.390
85415W        W57675   7.330  37.405  11.942
85416W        W57676   7.259  42.318   1.336
85417W        W57677  36.869   6.753  11.900
85418W        W57678  26.956   2.927   0.961
85419W        W57679   8.782  39.376  14.889
85420W        W57680  11.144  28.655  13.881
85421W        W57681  24.698  38.491  13.814
85422W        W57682  20.092  26.691  11.101
85423W        W57683  32.014   2.230  10.918
85424W        W57684  37.060  11.699  14.931
85425W        W57685  22.651  35.860   1.260
85426W        W57686  16.611  23.127   3.784
85427W        W57687  24.977  41.472   2.224
85428W        W57688  40.023  24.593  14.779
85429W        W57689  24.686  12.165   3.327
85430W        W57690  32.618  39.522   4.833
85431W        W57691   7.297  18.188   1.753
85432W        W57692   2.378  30.605  13.330
85433W        W57693  38.330  14.291  11.377
85434W        W57694  12.746   4.785   3.209
85435W        W57695   3.412  35.559   1.710
85436W        W57696  13.346  36.575   3.329
85437W        W57697  18.625   6.835   3.771
85438W        W57698  25.180  14.590  12.892
85439W        W57699  19.610  10.340   3.710
85440W        W57700  20.713   9.293  10.911
85441W        W57701  36.507  32.455   4.262
85442W        W57702  20.762  16.204   1.931
85443W        W57703  32.570  35.517  11.946
85444W        W57704  43.994  10.723   3.281
85445W        W57705  14.715  38.012   3.736
85446W        W57706  13.331  27.004   1.845
85447W        W57707  24.162   0.458  13.469
85448W        W57708  38.526  13.622  13.486
85449W        W57709  36.992  18.293   2.317
85450W        W57710  39.038  41.327   4.120
85451W        W57711  13.789  15.172  13.357
85452W        W57712  22.192   2.338  11.473
85453W        W57713  25.119  20.761  14.974
85454W        W57714  29.481   0.321  10.432
85455W        W57715  18.578   7.778   5.297
85456W        W57716  31.482  36.873   4.148
85457W        W57717  14.830  16.130  12.381
85458W        W57718  30.507  19.638   2.241
85459W        W57719  10.283  27.185   3.793
85460W        W57720   5.331   0.960  12.997
85461W        W57721  38.454  44.266   4.610
85462W        W57722   9.783   4.823   2.748
85463W        W57723  16.595  16.262   0.282
85464W        W57724  42.875  16.235   1.217
85465W        W57725  30.944  19.263  14.007
85466W        W57726  17.643  25.695  12.834
85467W        W57727  25.969  31.986   1.792
85468W        W57728  30.094  29.956   2.412
85469W        W57729   1.813  40.891  14.909
85470W        W57730  18.659   2.885   1.803
85471W        W57731  41.024  17.168  14.431
85472W        W57732  24.491  27.624   9.499
85473W        W57733  24.223  27.481   4.731
85474W        W57734   2.930  30.031   2.829
85475W        W57735  43.489   2.875  11.418
85476W        W57736  24.982  27.619  14.905
85477W        W57737  28.033  43.302  10.989
85478W        W57738  15.131   1.899   1.853
85479W        W57739  26.978  30.450   3.324
85480W        W57740  43.330  15.125   4.745
85481W        W57741  27.684  22.567  12.442
85482W        W57742  41.881  35.068  10.488
85483W        W57743  16.080   6.745   0.774
85484W        W57744  33.067   7.374  11.401
85485W        W57745  24.687  22.640   2.771
85486W        W57746  40.043  42.852  14.985
85487W        W57747   0.442  17.725  14.311
85488W        W57748  39.505  19.755  13.822
85489W        W57749  40.955  39.417   2.395
85490W        W57750  12.753  23.019   3.179
85491W        W57751  43.959  40.806   3.795
85492W        W57752  10.383  38.046  13.537
85493W        W57753  22.229  36.075  13.476
85494W        W57754   8.325  14.123  12.482
85495W        W57755  10.192  33.971  14.359
85496W        W57756  22.570  38.990   2.681
85497W        W57757  35.070  43.861  14.908
85498W        W57758   0.374  42.836   3.168
85499W        W57759  15.245  44.386  13.524
85500W        W57760  11.852  24.611  14.798
85501W        W57761   2.255  30.537   5.244
85502W        W57762  18.723  22.156   2.685
85503W        W57763   5.264  29.145  11.463
85504W        W57764  23.160  26.584  12.086
85505W        W57765  34.394   3.769   3.719
85506W        W57766  43.369  25.973   4.198
85507W        W57767  36.060  29.941  10.914
85508W        W57768  31.930  20.724   4.224
85509W        W57769  34.933   4.765  14.861
85510W        W57770  18.656  28.453   0.907
85511W        W57771   8.235  40.822  10.562
85512W        W57772  21.147  24.618  10.952
85513W        W57773   0.920  35.517   4.682
85514W        W57774  40.933  15.697  14.294
85515W        W57775  21.584  32.942   3.292
85516W        W57776  19.195  31.569   4.257
85517W        W57777  44.948  33.423  13.960
85518W        W57778  25.111  11.147   2.877
85519W        W57779  21.511  32.565  11.977
85520W        W57780  18.590   0.275  13.480
85521W        W57781  40.529  19.217  13.808
85522W        W57782  44.893   8.852  11.572
85523W        W57783  35.582  26.160   0.854
85524W        W57784  11.247  16.588  13.485
85525W        W57785   9.317  24.045   4.156
85526W        W57786   9.879  18.772  12.901
85527W        W57787  34.584  24.043  13.443
85528W        W57788  16.220  11.176  12.372
85529W        W57789   6.330  35.566  10.474
85530W        W57790  40.029   5.282   1.831
85531W        W57791  33.007  35.539  10.522
85532W        W57792  38.008  44.325  12.466
85533W        W57793   2.405   5.900   4.245
85534W        W57794  31.507  26.617  12.911
85535W        W57795   7.694  12.692   2.711
85536W        W57796  38.374  13.829  11.439
85537W        W57797  44.817  31.641  14.850
85538W        W57798  13.188  27.174  12.903
85539W        W57799  37.578   3.880  11.077
85540W        W57800  10.277  28.627  11.944
85541W        W57801  39.941  43.271   1.361
85542W        W57802  19.579  27.100  14.401
85543W        W57803  29.170  23.729   1.236
85544W        W57804  19.595  39.862   2.191
85545W        W57805  10.321  15.231  14.830
85546W        W57806  17.585  12.739  12.868
85547W        W57807  31.124  27.175  11.516
85548W        W57808  20.553   1.812  11.383
85549W        W57809   2.812  21.526  12.894
85550W        W57810  39.916  21.640  10.975
85551W        W57811  24.145   2.821   0.847
85552W        W57812  37.569  14.592  13.360
85553W        W57813   7.398  28.478  13.945
85554W        W57814  28.143  40.930   1.864
85555W        W57815  38.069  28.590  10.452
85556W        W57816  36.970   1.281  14.443
85557W        W57817   0.303  43.277  10.575
85558W        W57818  24.585  16.773   4.683
85559W        W57819  35.475  30.956   4.791
85560W        W57820  40.514  23.229   4.200
85561W        W57821   1.968  26.059  11.496
85562W        W57822  15.153  13.720   2.846
85563W        W57823  29.066   0.271   2.688
85564W        W57824  17.210   0.355  13.326
85565W        W57825  43.496  28.161   4.744
85566W        W57826  11.836  41.852   1.860
85567W        W57827  24.994  43.514  12.983
85568W        W57828   2.375  23.573  11.116
85569W        W57829   3.920   6.879  14.022
85570W        W57830  38.898   2.412  12.890
85571W        W57831   1.763  40.486  12.885
85572W        W57832  25.184  21.641   1.384
85573W        W57833  31.987   8.819   1.723
85574W        W57834   8.893  35.084  12.954
85575W        W57835  17.586  10.838   2.893
85576W        W57836  26.018  29.532   0.251
85577W        W57837  36.883  25.586  10.500
85578W        W57838   5.704  16.783  14.391
85579W        W57839  35.064  28.594   0.307
85580W        W57840  14.612  29.073  12.076
85581W        W57841  26.681  12.278  11.929
85582W        W57842  20.110  14.318  10.587
85583W        W57843   6.312  42.434   3.837
85584W        W57844  11.192  39.825  10.999
85585W        W57845  34.019   6.407  13.831
85586W        W57846  22.019  31.424  13.859
85587W        W57847  39.881  27.191  14.315
85588W        W57848  37.541   0.753   3.261
85589W        W57849  27.019  15.720  14.758
85590W        W57850  18.291  26.154   1.762
85591W        W57851  35.599  34.537   4.118
85592W        W57852   4.867  36.026  12.556
85593W        W57853  28.446  40.803  12.918
85594W        W57854  25.569  30.124   1.416
85595W        W57855  39.397   7.810  14.360
85596W        W57856  32.987  12.250   0.815
85597W        W57857  43.372  38.059  12.872
85598W        W57858  44.782  20.756   3.836
85599W        W57859  10.242  29.936  14.960
85600W        W57860  17.282  15.165  10.632
85601W        W57861   4.353  24.215   2.768
85602W        W57862  24.673   3.883   3.288
85603W        W57863   3.224  37.552  10.575
85604W        W57864  10.354  39.840   2.711
85605W        W57865   3.419   6.359   0.892
85606W        W57866   2.721   7.811  13.857
85607W        W57867  22.148  42.029  14.402
85608W        W57868  15.796   8.344   0.866
85609W        W57869  11.171  11.747   0.743
85610W        W57870   4.261  10.310   4.736
85611W        W57871  20.682  27.151   0.408
85612W        W57872  13.696  32.013  14.506
85613W        W57873  22.707   7.319   1.271
85614W        W57874  41.943  24.982  10.473
85615W        W57875  26.598  42.813  10.552
85616W        W57876  29.571   3.248  12.827
85617W        W57877   6.236  14.610   2.405
85618W        W57878  27.984   9.849  14.789
85619W        W57879  40.429   7.360   1.379
85620W        W57880  15.294   9.688  14.856
85621W        W57881  31.465  17.652   2.355
85622W        W57882  21.154  16.161  13.384
85623W        W57883   1.349  27.601  14.860
85624W        W57884  23.577  15.300   3.287
85625W        W57885   2.892  23.591   3.636
85626W        W57886  33.049  24.625  13.926
85627W        W57887  20.110  16.310   1.815
85628W        W57888  38.998  22.515  13.858
85629W        W57889   4.771  29.931   1.224
85630W        W57890  38.344  42.974   0.438
85631W        W57891   6.793  38.924   4.831
85632W        W57892  11.719  10.769   2.317
85633W        W57893  32.460  15.325  11.066
85634W        W57894  37.087  42.413   3.261
85635W        W57895   7.356  19.689  11.910
85636W        W57896  24.056  20.525   3.346
85637W        W57897  20.698  29.639   3.869
85638W        W57898  42.029  27.533  13.421
85639W        W57899  19.258  42.893   3.297
85640W        W57900  31.469   3.785  14.030
85641W        W57901  44.396  43.781   0.901
85642W        W57902  27.039  44.441  13.473
85643W        W57903  26.553  14.660  13.005
85644W        W57904  13.814  26.598   0.346
85645W        W57905   7.213  41.496  11.537
85646W        W57906  14.684  14.730   2.393
85647W        W57907  34.868  39.875  12.376
85648W        W57908  21.512  18.563  11.430
85649W        W57909   3.724  27.157  12.568
85650W        W57910  43.829  16.157  14.486
85651W        W57911  38.469   7.400   5.163
85652W        W57912  13.832  22.562   0.944
85653W        W57913  39.451  36.358  13.051
85654W        W57914   1.428  38.873  14.289
85655W        W57915   4.794  39.423  12.052
85656W        W57916  39.497  21.694  13.803
85657W        W57917   4.904  30.602  10.888
85658W        W57918  33.456  32.560  11.865
85659W        W57919  23.732  38.440  10.899
85660W        W57920  29.573   9.793  13.539
85661W        W57921  43.969   6.874  13.971
85662W        W57922  33.566   6.230   0.884
85663W        W57923  12.255   9.885  12.341
85664W        W57924   7.212  41.827   4.270
85665W        W57925  12.331  29.594   2.819
85666W        W57926  16.087   3.343   9.961
85667W        W57927  20.732  41.326   4.275
85668W        W57928  40.044  30.044   4.211
85669W        W57929  42.915   5.789  10.937
85670W        W57930   2.450  40.866  14.356
85671W        W57931  12.694   1.794   4.618
85672W        W57932  31.641   4.228   4.182
85673W        W57933  31.522  41.801   3.205
85674W        W57934  11.163  34.383  14.939
85675W        W57935   6.790   6.729  12.900
85676W        W57936  27.083  44.260  11.533
85677W        W57937  25.006  17.231  13.459
85678W        W57938  29.532  36.479  13.314
85679W        W57939  13.146  23.494  11.464
85680W        W57940  17.266   9.274   0.353
85681W        W57941   5.760  39.049   0.412
85682W        W57942  25.135   3.803  12.548
85683W        W57943  25.112  40.872  11.483
85684W        W57944  32.409  22.249  11.416
85685W        W57945  16.107  38.372   2.253
85686W        W57946   2.239  19.614  13.802
85687W        W57947   3.268  32.484   4.159
85688W        W57948  24.128  39.043   5.233
85689W        W57949   3.379  19.771   0.911
85690W        W57950   3.932  14.322  10.017
85691W        W57951  35.584   9.306  12.991
85692W        W57952  40.521  20.255   2.775
85693W        W57953  17.156  10.632   4.718
85694W        W57954  40.026  28.553  12.831
85695W        W57955  43.445  12.315  14.445
85696W        W57956  42.932  11.299   0.862
85697W        W57957  21.204  14.177  12.384
85698W        W57958   2.878  35.596   2.810
85699W        W57959  37.007   2.399   2.315
85700W        W57960  25.212  11.652  11.017
85701W        W57961  29.089  42.448  11.408
85702W        W57962  11.741  31.094  12.455
85703W        W57963  19.726  38.504  13.387
85704W        W57964  15.092  14.700  14.853
85705W        W57965  40.053  20.568   2.259
85706W        W57966   4.751  18.572  11.116
85707W        W57967   1.749  26.957  13.508
85708W        W57968  21.575   4.303   3.176
85709W        W57969  12.823  38.335   0.461
85710W        W57970  21.704  36.958  13.050
85711W        W57971   5.331  37.402   0.300
85712W        W57972  12.707  36.070  12.036
85713W        W57973   1.251  14.145   4.616
85714W        W57974  21.040   1.454  11.516
85715W        W57975  32.018  28.937   0.342
85716W        W57976  18.670  11.339   3.150
85717W        W57977  14.590  26.003  14.284
85718W        W57978  23.093  29.495   3.771
85719W        W57979   9.772  41.398  14.862
85720W        W57980  26.617   6.762   3.373
85721W        W57981   6.922   0.843  10.966
85722W        W57982  34.090  20.059   5.150
85723W        W57983   8.341  22.675  11.068
85724W        W57984  39.405  16.720  10.460
85725W        W57985  10.806  17.591  14.357
85726W        W57986  35.007  11.285  14.297
85727W        W57987   4.866  33.392   1.780
85728W        W57988   6.326  43.360   4.262
85729W        W57989   6.746   1.831  10.541
85730W        W57990  42.366  33.571  14.959
85731W        W57991  11.336  26.184   2.416
85732W        W57992   8.315  25.219  11.911
85733W        W57993  33.927  18.677   4.237
85734W        W57994  18.294  16.136  12.874
85735W        W57995  19.179  11.849   2.260
85736W        W57996  11.370  12.788  11.594
85737W        W57997  30.631   1.380   0.326
85738W        W57998  35.543   0.779   3.321
85739W        W57999  36.494  22.185  12.959
85740W        W58000   2.294  24.638  13.498
85741W        W58001  25.612  41.008   1.845
85742W        W58002  39.998  35.032  14.837
85743W        W58003  31.506  30.550  14.821
85744W        W58004  11.320  38.328   0.370
85745W        W58005  44.475  28.029  11.005
85746W        W58006   2.948  18.575  13.465
85747W        W58007   5.409  44.470  10.117
85748W        W58008  13.623   1.347  10.631
85749W        W58009  23.031   9.266  13.983
85750W        W58010  35.889  39.890  13.503
85751W        W58011  30.618   3.265  11.453
85752W        W58012  23.220  34.091  14.440
85753W        W58013  18.657  17.599   1.895
85754W        W58014  38.003  20.673   0.465
85755W        W58015  39.393  17.668  14.483
85756W        W58016  39.536   4.348  10.561
85757W        W58017   6.842  13.129   1.250
85758W        W58018  31.915  27.169  12.012
85759W        W58019  36.508  43.515   3.283
85760W        W58020  21.089   9.329  14.780
85761W        W58021   1.451  34.086   1.299
85762W        W58022  40.518  10.795  14.283
85763W        W58023  18.143  12.614  12.515
85764W        W58024  40.501  39.046   4.740
85765W        W58025  26.668  14.341  11.495
85766W        W58026  26.040   6.804   1.780
85767W        W58027  20.258   1.919  13.548
85768W        W58028  25.704  24.135   1.391
85769W        W58029  12.683  14.181   4.803
85770W        W58030  16.282  23.647   0.887
85771W        W58031  26.998  11.239   2.183
85772W        W58032   3.355  32.431   3.300
85773W        W58033  17.169  36.988   3.833
85774W        W58034  42.018   0.419  11.965
85775W        W58035  29.470  18.203   4.250
85776W        W58036   5.403  43.491  13.981
85777W        W58037  17.175   6.402   4.657
85778W        W58038  35.407  41.966   4.706
85779W        W58039  24.990  25.622  12.568
85780W        W58040  23.529   8.672  13.849
85781W        W58041  17.726  40.363  10.967
85782W        W58042   9.295  40.984   4.252
85783W        W58043   5.703  20.561   1.695
85784W        W58044   4.258  43.990  10.534
85785W        W58045  30.549  39.366  10.964
85786W        W58046  15.657  37.921  14.846
85787W        W58047  34.906   4.779  12.927
85788W        W58048  21.678  24.051   3.180
85789W        W58049   7.229   4.308  11.862
85790W        W58050  29.503  10.857  13.979
85791W        W58051   5.744  13.830  10.464
85792W        W58052  43.818  28.528  14.994
85793W        W58053  20.224  25.605   0.827
85794W        W58054  18.186  40.900   0.827
85795W        W58055  29.981  29.960   1.795
85796W        W58056  30.569  23.608   2.227
85797W        W58057  16.691  33.477  10.013
85798W        W58058  25.661  20.672   3.671
85799W        W58059  20.632  41.870   0.820
85800W        W58060  11.161  44.503  13.467
85801W        W58061  25.668  12.291   4.243
85802W        W58062  27.622  31.936  10.137
85803W        W58063  44.307   1.810   1.900
85804W        W58064   8.689  21.703   4.813
85805W        W58065   5.804   1.395   2.345
85806W        W58066  12.833  40.327  10.632
85807W        W58067   1.839  41.928   1.737
85808W        W58068   9.241   3.425  10.502
85809W        W58069  11.769  27.649   2.342
85810W        W58070  35.376  30.948   1.919
85811W        W58071  10.731  23.093  11.959
85812W        W58072  20.731  33.561   4.251
85813W        W58073  44.259   9.168   0.764
85814W        W58074  13.112  35.438  13.535
85815W        W58075   7.849  26.006  14.332
85816W        W58076  28.934  44.457   4.206
85817W        W58077  14.629  40.982  10.528
85818W        W58078   6.244  23.073  12.470
85819W        W58079  29.929  26.543   4.158
85820W        W58080  35.510  24.563  11.070
85821W        W58081  37.994  28.127  11.372
85822W        W58082  24.091   0.770   1.856
85823W        W58083  30.123   4.838  14.355
85824W        W58084  33.460  42.981   1.744
85825W        W58085  25.586   9.749  13.325
85826W        W58086  41.378  17.750  14.914
85827W        W58087  40.374  14.139  10.978
85828W        W58088   9.643  24.092   2.292
85829W        W58089  44.863  28.002  12.026
85830W        W58090   5.260  26.955   4.310
85831W        W58091  18.685  26.519   2.354
85832W        W58092  24.191  38.870  11.129
85833W        W58093  31.033  27.593   0.764
85834W        W58094  24.998  25.513  13.364
85835W        W58095  42.946  30.158   0.956
85836W        W58096  29.930  44.285  11.046
85837W        W58097   5.928  31.066   4.351
85838W        W58098  30.047  14.804  14.452
85839W        W58099  26.050  39.417   5.295
85840W        W58100  16.800   6.740   9.993
85841W        W58101  40.506   4.937  12.928
85842W        W58102  37.079  11.201  10.912
85843W        W58103  41.014  29.665  11.375
85844W        W58104  27.940  43.846  14.373
85845W        W58105  40.961  11.140  11.454
85846W        W58106  35.960  17.696   1.337
85847W        W58107   7.370  20.659  11.386
85848W        W58108   9.845  33.434  11.872
85849W        W58109  28.942   4.362  11.379
85850W        W58110  28.486  22.193  11.862
85851W        W58111  41.404  44.377  11.857
85852W        W58112   9.657  14.701   0.764
85853W        W58113   7.265  10.363   4.273
85854W        W58114  28.099  30.631   2.798
85855W        W58115  29.007  41.438  13.429
85856W        W58116   8.172   0.341   1.420
85857W        W58117   0.479  37.480  11.061
85858W        W58118  16.312  35.422  13.449
85859W        W58119  32.564  22.135  13.931
85860W        W58120  17.101   9.785  14.509
85861W        W58121  25.076  14.600  12.567
85862W        W58122  43.792  26.596   9.990
85863W        W58123  11.752   9.827   0.260
85864W        W58124  40.324   3.848   0.761
85865W        W58125  29.126  27.107  12.995
85866W        W58126  24.674  34.456   4.138
85867W        W58127   3.232  41.310   0.760
85868W        W58128  17.786  44.909   4.719
85869W        W58129  26.630  33.074   4.733
85870W        W58130  18.186   5.749   2.398
85871W        W58131  14.159  37.345   0.481
85872W        W58132  18.550  36.091  14.019
85873W        W58133  21.224  25.117  11.493
85874W        W58134  44.474  43.903   4.157
85875W        W58135   8.884  44.452  12.991
85876W        W58136  37.934  13.230   2.198
85877W        W58137  43.444  21.573   2.390
85878W        W58138  21.530  43.400  14.439
85879W        W58139   4.359   3.442   3.196
85880W        W58140  15.730  17.703   3.176
85881W        W58141   8.811   4.869  11.417
85882W        W58142  20.119  42.422  13.012
85883W        W58143  13.656  31.079  11.594
85884W        W58144  33.443  22.085   1.924
85885W        W58145  26.545  30.491  13.843
85886W        W58146  40.544  39.968   3.723
85887W        W58147  32.410  27.980  13.916
85888W        W58148  25.053   2.248   5.087
85889W        W58149  16.750  24.043   1.759
85890W        W58150  16.307   9.696   0.358
85891W        W58151   2.356  19.593  12.063
85892W        W58152  35.579  32.952  11.034
85893W        W58153  10.338   1.919   2.843
85894W        W58154  26.659  43.854   1.739
85895W        W58155  36.400   7.230  11.940
85896W        W58156  12.172   6.788  10.937
85897W        W58157  21.723  18.193   4.266
85898W        W58158  31.948  44.838   2.902
85899W        W58159  26.524  42.879  14.335
85900W        W58160  36.036  28.089  11.564
85901W        W58161  41.017  11.137  13.446
85902W        W58162  17.111  22.998   2.823
85903W        W58163   7.380  18.564  11.111
85904W        W58164  30.150  41.527  12.517
85905W        W58165  10.650  41.788   3.750
85906W        W58166  33.460  15.655   0.472
85907W        W58167  30.979  22.251   0.817
85908W        W58168  41.349  13.190   3.257
85909W        W58169  19.139  12.662   2.799
85910W        W58170  34.876  13.610   1.887
85911W        W58171  11.673  23.527   4.219
85912W        W58172   7.793  11.621   5.124
85913W        W58173  10.680  11.177   0.378
85914W        W58174  38.045   9.798   1.322
85915W        W58175   4.706  25.615  11.395
85916W        W58176   2.440  17.251  12.981
85917W        W58177  40.398   8.890  14.953
85918W        W58178   4.208  33.881  13.884
85919W        W58179   7.220  13.741  13.319
85920W        W58180  44.365  26.651   0.947
85921W        W58181   9.281  38.934   4.733
85922W        W58182  23.192  33.911  11.924
85923W        W58183   8.879   9.188  12.829
85924W        W58184   3.300  21.029   4.218
85925W        W58185  14.740  41.790   3.191
85926W        W58186  40.974   9.389  11.001
85927W        W58187  20.185  18.686  14.887
85928W        W58188  10.344  29.557  10.569
85929W        W58189   3.378  35.451   4.659
85930W        W58190   8.767  14.776   1.223
85931W        W58191  40.394  29.663   2.837
85932W        W58192  41.831  16.802   1.720
85933W        W58193  16.761   8.839  14.353
85934W        W58194   3.787  35.976  14.892
85935W        W58195  31.085  24.144   2.210
85936W        W58196  18.558   2.375   1.217
85937W        W58197  14.803   5.428  11.073
85938W        W58198  43.432  44.993   4.614
85939W        W58199  10.685  22.091   4.175
85940W        W58200  20.033  21.072   0.396
85941W        W58201  32.095   4.757   2.186
85942W        W58202  29.651  28.616  13.861
85943W        W58203  30.134  31.447   0.746
85944W        W58204  25.638  43.358   2.414
85945W        W58205  33.576   8.241  10.553
85946W        W58206   6.677   6.697  11.373
85947W        W58207   9.183   5.826  14.282
85948W        W58208  40.936  16.708  12.451
85949W        W58209  14.125  40.517   3.384
85950W        W58210  10.708   8.822   1.293
85951W        W58211  28.997  29.122  11.937
85952W        W58212  18.237  27.496   0.270
85953W        W58213  14.144  29.054  13.520
85954W        W58214   8.236  20.526  11.582
85955W        W58215  34.037   8.404   3.784
85956W        W58216   5.415  35.954   0.369
85957W        W58217  43.891  29.538  14.299
85958W        W58218  44.811  44.442   2.316
85959W        W58219  36.857  29.538  12.889
85960W        W58220  39.558  28.473   3.843
85961W        W58221  18.295  19.162  10.514
85962W        W58222  40.509  15.588   4.187
85963W        W58223   4.383  28.647   4.615
85964W        W58224   6.217  30.146   0.459
85965W        W58225  36.881  35.582  13.947
85966W        W58226  34.899   7.288  11.998
85967W        W58227  32.513   8.286   4.648
85968W        W58228  12.244  32.949   3.828
85969W        W58229   5.325   2.256  12.476
85970W        W58230   3.410  26.567   1.405
85971W        W58231  17.075   7.269   3.185
85972W        W58232   4.877   3.352  14.413
85973W        W58233  36.930  27.588  13.478
85974W        W58234  23.578  24.050   0.379
85975W        W58235  23.572  12.348  12.006
85976W        W58236  34.034  10.158  13.948
85977W        W58237  30.046  25.644   2.677
85978W        W58238  43.967   1.960   2.707
85979W        W58239  18.688  25.615  12.485
85980W        W58240  19.263  37.004   2.302
85981W        W58241  40.456  13.295   1.370
85982W        W58242  14.762  21.017  10.454
85983W        W58243  12.789   9.852  12.371
85984W        W58244   5.922  28.599   0.771
85985W        W58245  44.422  23.069  14.787
85986W        W58246  18.140  36.360  14.455
85987W        W58247  19.098  40.975   4.126
85988W        W58248   3.935  23.602   0.750
85989W        W58249  14.686  23.555   0.451
85990W        W58250  27.631   3.235   1.257
85991W        W58251  33.530  41.017   4.308
85992W        W58252   0.325  21.688  14.991
85993W        W58253   1.800   0.255  11.499
85994W        W58254   7.206  15.676   9.964
85995W        W58255  27.447  31.116   1.769
85996W        W58256  42.997  31.140  10.479
85997W        W58257  25.978   3.845   0.466
85998W        W58258  22.031  16.605  14.466
85999W        W58259  43.505  13.705   3.193
86000W        W58260   0.420  20.051  12.566
86001W        W58261  26.666  16.110   2.824
86002W        W58262   1.905  11.358   0.333
86003W        W58263  44.913  11.769  11.551
86004W        W58264   0.885   9.388  12.839
86005W        W58265   7.263  10.227   1.327
86006W        W58266  15.741  30.137   4.614
86007W        W58267  10.159   6.228   5.134
86008W        W58268  14.161  10.797  10.444
86009W        W58269  41.967   6.864  11.599
86010W        W58270  41.348  34.020   0.373
86011W        W58271   4.747  23.201   1.879
86012W        W58272  17.700  36.442  12.383
86013W        W58273  43.433  39.923   5.223
86014W        W58274  30.054   0.337   0.254
86015W        W58275  11.829  42.478   1.422
86016W        W58276  20.271  12.204   0.963
86017W        W58277  38.911  44.877  13.946
86018W        W58278  41.371  40.475   2.788
86019W        W58279  25.614   1.386   4.711
86020W        W58280  28.132  33.412  10.144
86021W        W58281   7.403   7.747   3.154
86022W        W58282  36.880  20.077   5.612
86023W        W58283  41.321  27.592   3.854
86024W        W58284   5.841  13.227  10.419
86025W        W58285   7.178  30.060  11.870
86026W        W58286   0.867  38.362   2.843
86027W        W58287   6.921   4.774  11.052
86028W        W58288  29.002  26.174   0.299
86029W        W58289  35.423   8.656   1.732
86030W        W58290  10.168  27.059   2.802
86031W        W58291  27.460  39.559  12.468
86032W        W58292  31.603   2.845  14.004
86033W        W58293  34.955  18.096   2.749
86034W        W58294   3.796  32.122   0.899
86035W        W58295  13.612  26.581   1.414
86036W        W58296  24.152  26.544   2.783
86037W        W58297   2.729  16.317  12.456
86038W        W58298  38.341   3.894  13.812
86039W        W58299  13.777   0.814   3.863
86040W        W58300   7.826  42.413  11.579
86041W        W58301  21.582  22.202   3.830
86042W        W58302  26.048  13.277  11.405
86043W        W58303  13.166  41.330  13.044
86044W        W58304   0.779  13.151  11.890
86045W        W58305   1.375  15.225   0.743
86046W        W58306  33.960  32.099  12.358
86047W        W58307   1.252  27.448   3.186
86048W        W58308  16.205  17.624  14.994
86049W        W58309  16.685  26.124  13.913
86050W        W58310  35.958  15.110   0.922
86051W        W58311  29.038  37.042   4.115
86052W        W58312  33.132  36.849  13.024
86053W        W58313  25.131  30.572   2.897
86054W        W58314  13.760   4.328  11.386
86055W        W58315  29.627   6.198  14.861
86056W        W58316  32.942  24.058  10.634
86057W        W58317  33.398  35.900   2.285
86058W        W58318  36.495   6.194  12.525
86059W        W58319  16.234  32.009   5.150
86060W        W58320   7.853  32.545  14.028
86061W        W58321  36.945  37.520   3.791
86062W        W58322  42.308  18.782  14.421
86063W        W58323  24.991  11.786  12.073
86064W        W58324  13.328  12.771   0.359
86065W        W58325  27.116  35.969   2.211
86066W        W58326  26.633  19.727  12.522
86067W        W58327  23.727  29.084  12.538
86068W        W58328  15.284   7.235   3.220
86069W        W58329  11.181  10.676   0.854
86070W        W58330   5.384  40.961   2.178
86071W        W58331  30.052  36.395  13.050
86072W        W58332  17.638  25.964   3.771
86073W        W58333  19.770  30.079  13.822
86074W        W58334  35.441  18.199  12.046
86075W        W58335   7.907  15.768   1.732
86076W        W58336  11.687  23.678   2.342
86077W        W58337  41.855  12.260  11.453
86078W        W58338  41.836  29.028  11.054
86079W        W58339  38.447  34.059  13.982
86080W        W58340  29.483  14.776  10.906
86081W        W58341  15.617   7.353  12.377
86082W        W58342  26.692  12.275  14.001
86083W        W58343  34.004  27.498   0.434
86084W        W58344  44.811  39.000  10.976
86085W        W58345  21.700  19.758  11.427
86086W        W58346  14.711  11.644   4.344
86087W        W58347  43.803  28.499  10.920
86088W        W58348  15.805  11.236   4.758
86089W        W58349  32.057  19.678  14.971
86090W        W58350   2.768  30.972   0.480
86091W        W58351  34.937  23.032   0.344
86092W        W58352   5.357  30.588   0.811
86093W        W58353  18.757   9.730   1.853
86094W        W58354  39.385  10.636  12.462
86095W        W58355  35.000  29.959   3.150
86096W        W58356  11.790  17.800   0.821
86097W        W58357  21.256   8.839   1.229
86098W        W58358  12.135  39.933   0.810
86099W        W58359  18.626  25.044  14.395
86100W        W58360  33.537  37.429   1.351
86101W        W58361  22.719  21.538   2.732
86102W        W58362  12.709  33.007  13.028
86103W        W58363  27.551  34.582  13.974
86104W        W58364  21.094  25.019  13.460
86105W        W58365  42.343   5.811  13.434
86106W        W58366  29.465  37.556  14.013
86107W        W58367  22.231  30.127   3.829
86108W        W58368  33.876  41.814   0.328
86109W        W58369  15.140  38.948   0.838
86110W        W58370   9.795  35.392  13.833
86111W        W58371  19.597  38.867  10.906
86112W        W58372  39.024  44.999   4.250
86113W        W58373  38.040  39.383   3.257
86114W        W58374  31.972  11.796   4.599
86115W        W58375  26.083  11.246  11.006
86116W        W58376  34.894   0.952   2.862
86117W        W58377  15.246  30.427   3.701
86118W        W58378  37.349  17.289   3.294
86119W        W58379  11.157  25.482  13.420
86120W        W58380  20.621  23.665   1.424
86121W        W58381  28.569  42.458  10.985
86122W        W58382   6.258  13.237  13.337
86123W        W58383  12.851  19.761   1.214
86124W        W58384   1.975  25.205  13.379
86125W        W58385  16.619   3.396  10.937
86126W        W58386   2.923  21.575  12.026
86127W        W58387  44.949  33.388  14.826
86128W        W58388  38.497  32.432  14.875
86129W        W58389   8.892   3.431   0.897
86130W        W58390   1.795  41.369   2.687
86131W        W58391   5.215   9.281  11.066
86132W        W58392  29.666  17.737  11.579
86133W        W58393   3.748  13.326   3.845
86134W        W58394   9.837   9.853   3.150
86135W        W58395  34.105  18.663  13.538
86136W        W58396   0.903  11.234  11.903
86137W        W58397  44.815   4.806  12.985
86138W        W58398  11.775   3.732   4.616
86139W        W58399   6.716  28.084   1.883
86140W        W58400  23.065  44.782  13.393
86141W        W58401   1.297  33.490  12.387
86142W        W58402  42.911   9.231  12.525
86143W        W58403  33.427  24.508  13.453
86144W        W58404  25.051  32.430   2.297
86145W        W58405  11.782  28.597   2.215
86146W        W58406   2.361  36.049   2.865
86147W        W58407   0.766  21.634   1.783
86148W        W58408  10.236  22.219  14.812
86149W        W58409  26.047  35.925   1.716
86150W        W58410  44.863   7.834  11.962
86151W        W58411  24.191  36.408  10.448
86152W        W58412  37.975   7.250  14.352
86153W        W58413  12.789  10.279   3.223
86154W        W58414  23.996  38.560   3.823
86155W        W58415  14.655   1.385   0.875
86156W        W58416  13.315   5.817   0.751
86157W        W58417  35.954  36.475   2.705
86158W        W58418  20.153  38.932  13.388
86159W        W58419   8.250  16.206   0.752
86160W        W58420  30.030  11.825   0.359
86161W        W58421  14.684   7.195   2.312
86162W        W58422  28.081   7.912   1.404
86163W        W58423  20.544   5.271   2.397
86164W        W58424  37.086  19.718   0.851
86165W        W58425  10.246  31.029   3.260
86166W        W58426  33.416   3.365   3.852
86167W        W58427  17.198  39.025  14.368
86168W        W58428  24.143  13.202  14.778
86169W        W58429  18.114  27.664   4.604
86170W        W58430  25.081  38.932   5.303
86171W        W58431  20.095  34.990  11.000
86172W        W58432  32.414  44.396   2.417
86173W        W58433  29.666  32.939  10.971
86174W        W58434  43.848  43.896   1.311
86175W        W58435  41.933  14.252  13.987
86176W        W58436  10.249  24.991  13.405
86177W        W58437   8.295  36.095   0.940
86178W        W58438  27.005  16.597   0.275
86179W        W58439   9.689  12.297   2.286
86180W        W58440  39.031  11.833  12.423
86181W        W58441  17.700  14.204   0.965
86182W        W58442  23.001   1.782  12.091
86183W        W58443   6.389  22.006  13.340
86184W        W58444  29.427  23.186  14.000
86185W        W58445  24.991   4.817   3.729
86186W        W58446  30.549  43.995  11.945
86187W        W58447   8.292  23.547   0.736
86188W        W58448  34.932   0.417  11.483
86189W        W58449   0.262   9.226  14.503
86190W        W58450  15.582  37.390   1.916
86191W        W58451  12.723   4.864  10.526
86192W        W58452  19.610  34.062  11.122
86193W        W58453  33.587  22.509   9.985
86194W        W58454  19.618  24.629   3.339
86195W        W58455  13.261  27.987   4.188
86196W        W58456  23.631  29.553  14.918
86197W        W58457   5.863  29.140   2.206
86198W        W58458   7.792   4.934   3.355
86199W        W58459  20.731  27.548   0.920
86200W        W58460  29.463  20.574   0.365
86201W        W58461  40.350   1.854   5.226
86202W        W58462   9.263  42.792  14.324
86203W        W58463  31.421  29.088   3.192
86204W        W58464  26.158  34.589   1.847
86205W        W58465  10.349  25.712  11.118
86206W        W58466  18.227   7.753  13.448
86207W        W58467  41.811   8.682  11.111
86208W        W58468  43.404  18.661  14.463
86209W        W58469  44.871   4.806  14.364
86210W        W58470   4.932  10.358   0.845
86211W        W58471  36.984  20.735  14.986
86212W        W58472  39.333   1.333   2.878
86213W        W58473  12.304  18.569  12.874
86214W        W58474   0.461  37.345  11.383
86215W        W58475  18.696  27.165  11.889
86216W        W58476  37.058  37.390   1.859
86217W        W58477  42.825  19.056   4.739
86218W        W58478  32.998  21.744  11.426
86219W        W58479  21.231  40.432  12.443
86220W        W58480   2.472   7.347   1.257
86221W        W58481  20.716   8.266   3.227
86222W        W58482   3.383  15.242  14.472
86223W        W58483  22.106  36.868   3.383
86224W        W58484  44.811  44.868   0.762
86225W        W58485   8.242  36.438   3.178
86226W        W58486  37.045  38.891  11.954
86227W        W58487  43.875  39.896  13.414
86228W        W58488  26.110  43.850  12.077
86229W        W58489  44.306  29.546  10.985
86230W        W58490   3.271   2.832   1.714
86231W        W58491  39.457  34.987   1.804
86232W        W58492  28.149   6.686  11.119
86233W        W58493  29.456  32.117  10.081
86234W        W58494  35.881  27.168  11.412
86235W        W58495   1.737  32.993   1.896
86236W        W58496  13.204  34.414   1.447
86237W        W58497  39.324  33.887   3.343
86238W        W58498  21.134  37.466  14.326
86239W        W58499  13.190   4.714   3.672
86240W        W58500  39.492   2.729   4.734
86241W        W58501  20.260   5.397  12.418
86242W        W58502  41.386   9.740   2.770
86243W        W58503  16.098  14.188   2.762
86244W        W58504  17.084  11.177  11.609
86245W        W58505   6.917   9.792   0.463
86246W        W58506   6.882   2.881   2.232
86247W        W58507  16.659  41.827  11.077
86248W        W58508   2.962  11.761  14.800
86249W        W58509  11.632  18.210  11.480
86250W        W58510  16.643   7.365  10.007
86251W        W58511  43.858  37.936   4.133
86252W        W58512  18.670   5.797  14.346
86253W        W58513  19.187  40.508   4.293
86254W        W58514  36.515  33.537  10.945
86255W        W58515  35.995  14.142   1.773
86256W        W58516  42.845  27.582   2.298
86257W        W58517  29.039  12.184   2.869
86258W        W58518  23.008  11.335  14.276
86259W        W58519  37.529  34.589   0.389
86260W        W58520  14.703  21.155  13.049
86261W        W58521   0.932   9.679  13.500
86262W        W58522  38.038  44.959  14.468
86263W        W58523  17.712  30.965   4.727
86264W        W58524   6.877  28.090  13.963
86265W        W58525  17.212  41.307  13.367
86266W        W58526  31.911  40.805   1.403
86267W        W58527  14.745  42.370   3.751
86268W        W58528  27.474  41.893   3.260
86269W        W58529  10.832  22.196   3.674
86270W        W58530  35.875  16.628  14.794
86271W        W58531  10.781   4.744   3.242
86272W        W58532   2.890  44.314   0.875
86273W        W58533   7.172   5.202  11.545
86274W        W58534  15.327  10.798   0.953
86275W        W58535  28.513   9.738  12.884
86276W        W58536  13.148   1.797   4.750
86277W        W58537   3.331  39.331  12.461
86278W        W58538   5.887  42.460   0.900
86279W        W58539  44.328  30.907  13.038
86280W        W58540   6.295  20.703  11.556
86281W        W58541  13.271   5.898  11.587
86282W        W58542  37.412  27.112   2.724
86283W        W58543  11.345  27.492   2.828
86284W        W58544   8.788  19.602  14.762
86285W        W58545  22.049  26.550  13.398
86286W        W58546  10.308  28.111   2.781
86287W        W58547  13.728  34.456   1.694
86288W        W58548   6.780  38.065  11.024
86289W        W58549  40.311  44.753  12.417
86290W        W58550  11.309  22.747   2.197
86291W        W58551  10.822  26.653   3.747
86292W        W58552   6.218  44.286  12.865
86293W        W58553  36.530  35.565  11.870
86294W        W58554  30.101  12.180  14.277
86295W        W58555  16.261  37.356  10.928
86296W        W58556  42.947  18.673   2.724
86297W        W58557  34.864  20.029   4.701
86298W        W58558  29.133  18.079   1.730
86299W        W58559  40.798  19.570   3.763
86300W        W58560  40.855  34.537   1.702
86301W        W58561  21.126  31.084   2.663
86302W        W58562  39.921   6.869  12.858
86303W        W58563  24.627  41.882  13.949
86304W        W58564   0.817  12.695   3.308
86305W        W58565   7.243  35.989  12.385
86306W        W58566  44.859  38.994  14.850
86307W        W58567  44.973  43.934   1.252
86308W        W58568  14.127   9.177   4.699
86309W        W58569  15.659  40.035   9.998
86310W        W58570   9.820  26.702  13.017
86311W        W58571  33.101  44.912   3.356
86312W        W58572  39.414   6.907   1.400
86313W        W58573  36.943   6.221   4.632
86314W        W58574  38.902  33.947   0.259
86315W        W58575  36.044  22.561   2.865
86316W        W58576  32.482  14.314   2.232
86317W        W58577   0.764  37.353   5.185
86318W        W58578  41.395  37.901   3.640
86319W        W58579  18.114  35.984  13.973
86320W        W58580  19.730  17.639  13.431
86321W        W58581  13.816  26.020   3.317
86322W        W58582  23.098  17.278  14.900
86323W        W58583  43.894  20.662   3.639
86324W        W58584   9.251   5.345  12.880
86325W        W58585  41.016  13.283   3.867
86326W        W58586  36.358  32.088   4.687
86327W        W58587  18.594  21.655   0.802
86328W        W58588  31.638  13.141  14.398
86329W        W58589   9.815  10.206  14.469
86330W        W58590  36.454  39.967   4.667
86331W        W58591  28.598   1.824   2.720
86332W        W58592   3.316  25.035   3.218
86333W        W58593   0.467  19.546  14.883
86334W        W58594   2.820  35.987  11.395
86335W        W58595  34.088  28.531   2.704
86336W        W58596  21.667   0.456  11.586
86337W        W58597   5.407  42.816  14.463
86338W        W58598  42.324  24.623  11.970
86339W        W58599  21.031   7.772  12.911
86340W        W58600  33.545   7.717   0.858
86341W        W58601  29.046  14.336   0.255
86342W        W58602  28.636  13.785  12.513
86343W        W58603   7.880  31.129  11.028
86344W        W58604  32.409  24.694   3.701
86345W        W58605  27.537  31.502   5.311
86346W        W58606  17.291  18.570  14.799
86347W        W58607  22.612  24.667  13.512
86348W        W58608   2.940   9.801  14.391
86349W        W58609   5.253  43.935   0.446
86350W        W58610  23.098  25.997  13.336
86351W        W58611   0.882  22.071  14.953
86352W        W58612  41.292  37.554  13.465
86353W        W58613   3.885  35.410   3.716
86354W        W58614   5.411  26.669  14.455
86355W        W58615  36.516  34.054  11.526
86356W        W58616  43.294  33.500  11.095
86357W        W58617  40.945   1.353   1.749
86358W        W58618  16.634  30.933   4.325
86359W        W58619   7.834  24.694  12.460
86360W        W58620  13.141  34.106  11.059
86361W        W58621  22.540  21.594  10.967
86362W        W58622  24.005   8.185  10.519
86363W        W58623  24.526  41.988  13.512
86364W        W58624  34.545   1.922  11.584
86365W        W58625  12.741  17.787  13.450
86366W        W58626   2.389  21.080   2.259
86367W        W58627  39.498  25.039  13.805
86368W        W58628  24.555  34.909   0.370
86369W        W58629  40.899   1.968   4.293
86370W        W58630  22.233  42.031   4.731
86371W        W58631   9.652  44.268  12.510
86372W        W58632  35.519  34.048   4.175
86373W        W58633  37.535  37.383   3.331
86374W        W58634   8.882   6.836  10.969
86375W        W58635  26.082  17.668  12.018
86376W        W58636  12.319  12.835   1.813
86377W        W58637  16.294   1.924   4.333
86378W        W58638   9.736  40.834  13.826
86379W        W58639  44.427  36.552  14.026
86380W        W58640  41.446  38.067  11.463
86381W        W58641  26.042  11.351  11.972
86382W        W58642  38.325   1.825  13.363
86383W        W58643  15.289  43.413   4.620
86384W        W58644  44.307  37.353  14.798
86385W        W58645   1.894  16.157  13.904
86386W        W58646  34.962  32.984  12.897
86387W        W58647  19.099  15.162  13.443
86388W        W58648  38.828  41.916  14.286
86389W        W58649   1.434  37.367   1.754
86390W        W58650  41.491  28.465  12.532
86391W        W58651  32.582   9.703   2.860
86392W        W58652   5.422  31.602   2.860
86393W        W58653  42.345  39.014  14.450
86394W        W58654  31.595  30.953  12.365
86395W        W58655  41.427   1.823   2.212
86396W        W58656   2.727  32.523   3.254
86397W        W58657  23.216  30.042   3.172
86398W        W58658  22.137  11.178  13.796
86399W        W58659  28.007  15.605   3.354
86400W        W58660  16.167  25.149  11.087
86401W        W58661   9.188  44.923  13.830
86402W        W58662  11.130  24.189   0.813
86403W        W58663   7.226   7.771   1.700
86404W        W58664  33.536  19.769  10.095
86405W        W58665   7.693  21.194   0.353
86406W        W58666  34.981  25.649   1.371
86407W        W58667   0.258  36.468   4.341
86408W        W58668   4.740  27.595   3.787
86409W        W58669  41.533  43.440  13.823
86410W        W58670   1.372  16.157  13.826
86411W        W58671  26.607  42.445  14.850
86412W        W58672  12.326   7.350   2.316
86413W        W58673   5.723  28.008   2.368
86414W        W58674  36.898  11.254  14.908
86415W        W58675  15.323   1.308   1.252
86416W        W58676  13.236  31.464   0.365
86417W        W58677  16.629  18.202   4.198
86418W        W58678  13.644   6.858   3.379
86419W        W58679  32.133   4.258  12.957
86420W        W58680  23.057  34.553  10.975
86421W        W58681  10.832  34.937   3.346
86422W        W58682  19.074  28.018   2.257
86423W        W58683  27.593  23.510  11.926
86424W        W58684  29.948  22.680   0.762
86425W        W58685  31.433  14.301   4.759
86426W        W58686   0.754  13.658   3.325
86427W        W58687  17.178  11.648   5.113
86428W        W58688  22.674  24.649  12.408
86429W        W58689  30.933  44.355   4.186
86430W        W58690  27.990  14.120  10.963
86431W        W58691  43.006  13.652  10.901
86432W        W58692   5.240   9.654   1.371
86433W        W58693   0.260  14.591   3.333
86434W        W58694  23.996  20.654  12.027
86435W        W58695  25.033  39.408   0.274
86436W        W58696   0.315  16.810  10.929
86437W        W58697   0.454  21.705   2.724
86438W        W58698   9.221   3.268  12.018
86439W        W58699  12.151  31.447  13.021
86440W        W58700  21.139  36.923  12.940
86441W        W58701  41.394  31.138  11.535
86442W        W58702  15.631  12.152   2.241
86443W        W58703  18.153  30.986  13.415
86444W        W58704  18.740  26.595  14.791
86445W        W58705  28.136  16.754   2.711
86446W        W58706  41.430  10.277   0.794
86447W        W58707  13.151  39.400  13.889
86448W        W58708  19.775  37.465  13.397
86449W        W58709  41.912   6.400  12.060
86450W        W58710  27.992   0.279  11.414
86451W        W58711   9.154  22.658  13.796
86452W        W58712  18.292  37.979  12.968
86453W        W58713  10.309  30.160   4.321
86454W        W58714  16.725   1.874  12.541
86455W        W58715  14.126   7.781  13.870
86456W        W58716  13.778  25.026   1.918
86457W        W58717  12.356  30.161   2.670
86458W        W58718  41.503  26.064   1.801
86459W        W58719   0.780   4.207  11.439
86460W        W58720  19.058  27.557  11.584
86461W        W58721  10.282  33.463  13.878
86462W        W58722  44.784  39.955  11.381
86463W        W58723  34.052  33.088   1.414
86464W        W58724  44.816  32.908  11.958
86465W        W58725   9.644  22.560  11.070
86466W        W58726  10.272  18.216  11.550
86467W        W58727  42.303  20.082   2.204
86468W        W58728  44.004  15.605   4.214
86469W        W58729  32.964  20.548   1.804
86470W        W58730   7.695  35.869  10.985
86471W        W58731  37.020  23.504  11.903
86472W        W58732  34.551  26.575  11.020
86473W        W58733   9.767  11.742   2.221
86474W        W58734   1.734   0.819   1.731
86475W        W58735  12.766  22.711  11.886
86476W        W58736  17.658  32.436  14.467
86477W        W58737   9.876  31.625   0.890
86478W        W58738  35.960   1.362  11.467
86479W        W58739  40.929   3.762   3.165
86480W        W58740  16.634  13.238  14.396
86481W        W58741  29.657  43.439  11.475
86482W        W58742  12.275  39.041  12.479
86483W        W58743  20.545  25.626   4.767
86484W        W58744  18.606  26.584  14.363
86485W        W58745  32.042   3.357  14.941
86486W        W58746  19.135  20.617  10.437
86487W        W58747  39.931  34.583  14.322
86488W        W58748  36.974  33.055  14.471
86489W        W58749   0.423  37.883   4.754
86490W        W58750  43.980  34.413   1.371
86491W        W58751  24.993   5.884  12.988
86492W        W58752   8.283  26.676  12.024
86493W        W58753  40.940  32.614  11.953
86494W        W58754  25.018  29.070  11.571
86495W        W58755   5.384   1.249  11.110
86496W        W58756   3.762  37.423  12.975
86497W        W58757  27.612  16.154  11.973
86498W        W58758  42.459  31.050   0.763
86499W        W58759  20.186  28.618   3.275
86500W        W58760  44.835   1.908   2.790
86501W        W58761  28.050  20.192   1.702
86502W        W58762  37.535  33.454   2.688
86503W        W58763  41.486  31.505  13.470
86504W        W58764  41.833  38.865   0.905
86505W        W58765  32.483   5.214   3.148
86506W        W58766  37.476   9.683  11.589
86507W        W58767  34.072  29.119   3.250
86508W        W58768  29.437  34.969   2.709
86509W        W58769   3.777   0.950  14.393
86510W        W58770  29.601  14.816   1.886
86511W        W58771  23.644  41.408   3.651
86512W        W58772  31.442  44.473  13.348
86513W        W58773   5.401  22.024  13.908
86514W        W58774  44.395  27.060  14.328
86515W        W58775  40.935  25.713  14.785
86516W        W58776  13.784  35.096   2.235
86517W        W58777  36.069  39.523   4.685
86518W        W58778  15.606   6.229  11.962
86519W        W58779  12.179  17.712  14.989
86520W        W58780  30.516  18.683   3.269
86521W        W58781  22.052  41.889  14.957
86522W        W58782  33.410   2.952  13.535
86523W        W58783  19.640  35.903   1.278
86524W        W58784  32.577  24.089   3.339
86525W        W58785   8.840  40.419  13.381
86526W        W58786  14.132  30.467  14.945
86527W        W58787   0.411  29.128   1.880
86528W        W58788  44.382  41.419   0.421
86529W        W58789  43.489   9.178  14.969
86530W        W58790  30.475  11.172   3.756
86531W        W58791   1.278   5.889  10.530
86532W        W58792   9.305  34.039  11.604
86533W        W58793  11.824  26.032  14.846
86534W        W58794  30.135  32.943   1.296
86535W        W58795  38.567  39.466   0.430
86536W        W58796  42.426  21.554  11.104
86537W        W58797  12.695  20.570  14.875
86538W        W58798  38.820  32.578   1.698
86539W        W58799  28.935  33.127  14.986
86540W        W58800   9.312  10.204   3.155
86541W        W58801  29.094  22.508  12.575
86542W        W58802   8.338  11.769   3.659
86543W        W58803  33.570  38.958  13.363
86544W        W58804  29.611  22.710   5.100
86545W        W58805  12.732  28.021   9.674
86546W        W58806   9.655  20.643  10.631
86547W        W58807  34.965  22.997   3.364
86548W        W58808   6.236  13.731  11.376
86549W        W58809   7.687  27.549   9.449
86550W        W58810   5.229  27.499   1.705
86551W        W58811  10.780  13.613  12.089
86552W        W58812   9.167  22.538   4.266
86553W        W58813   1.846  24.571   3.341
86554W        W58814  40.995  30.507   0.352
86555W        W58815  38.966  24.692   0.462
86556W        W58816   6.359  10.744  11.061
86557W        W58817  21.755   3.738   0.444
86558W        W58818   7.699  23.098  14.480
86559W        W58819  32.142  38.541   2.687
86560W        W58820   6.731  23.015  10.451
86561W        W58821  12.348  14.261   2.236
86562W        W58822  43.364  44.274  12.066
86563W        W58823   6.881  31.146  12.066
86564W        W58824  44.753  33.437  10.629
86565W        W58825  19.680  12.772  14.949
86566W        W58826  14.267  25.127  12.481
86567W        W58827  11.812  22.729  14.410
86568W        W58828   6.829   4.873  14.807
86569W        W58829   0.331  37.845   1.217
86570W        W58830  33.598  34.886   2.293
86571W        W58831  30.095   0.298  12.508
86572W        W58832  36.915  38.065  11.959
86573W        W58833  40.390  26.961  10.980
86574W        W58834  17.579   3.851  14.372
86575W        W58835  31.958  31.937  10.488
86576W        W58836   6.254  32.097  14.907
86577W        W58837  15.151  14.714   2.318
86578W        W58838  32.917  12.169   4.160
86579W        W58839  20.050  33.960  13.416
86580W        W58840  29.023   4.317   2.868
86581W        W58841  40.358  37.085   1.925
86582W        W58842  18.653   6.192  11.119
86583W        W58843  38.822  30.636  12.953
86584W        W58844  13.693  28.588   4.351
86585W        W58845  43.439  22.705  13.025
86586W        W58846  19.666  36.886   2.217
86587W        W58847  16.812  15.176   9.481
86588W        W58848  11.360  20.536  13.806
86589W        W58849  19.578   5.915  10.448
86590W        W58850   3.812  12.230   0.426
86591W        W58851  28.093   4.447  11.045
86592W        W58852  44.823  34.073  11.479
86593W        W58853  28.989  25.112   1.432
86594W        W58854  17.205  18.057   5.266
86595W        W58855  16.189  14.269  13.799
86596W        W58856   5.364   7.283  14.805
86597W        W58857  35.489  33.520  13.329
86598W        W58858   9.205  17.591  14.906
86599W        W58859  20.042  21.727  14.808
86600W        W58860   2.743  37.546  10.984
86601W        W58861  26.547  43.921   3.685
86602W        W58862   2.331   0.326  12.556
86603W        W58863  32.952   5.793   4.803
86604W        W58864  31.012  31.104   5.314
86605W        W58865  24.531  31.600   4.696
86606W        W58866   0.332   1.923  11.954
86607W        W58867  19.208  35.533   4.328
86608W        W58868  25.497  23.181   4.342
86609W        W58869  25.654  28.140  11.433
86610W        W58870  25.069  12.251  12.982
86611W        W58871  30.477  37.489   0.838
86612W        W58872  40.895  11.268  14.350
86613W        W58873  15.790  21.147   1.834
86614W        W58874  31.488  11.162   1.332
86615W        W58875  41.400  12.282  14.460
86616W        W58876  13.322  38.535  14.973
86617W        W58877   2.315  16.594   3.697
86618W        W58878   7.839  36.943  11.389
86619W        W58879   8.673  20.269  13.879
86620W        W58880  39.508  29.510   1.253
86621W        W58881  39.475  26.641  10.939
86622W        W58882  29.600  27.484   3.844
86623W        W58883  15.665  10.217  11.026
86624W        W58884  13.261   0.449  13.323
86625W        W58885  23.987   3.437   4.661
86626W        W58886  34.039  13.159  11.993
86627W        W58887  44.322   6.680  13.355
86628W        W58888  17.659  43.331   3.367
86629W        W58889  20.553  31.993  11.129
86630W        W58890  21.664  41.392  12.532
86631W        W58891  40.448  29.659  14.472
86632W        W58892  11.267  16.207  13.343
86633W        W58893   2.734   0.872  12.010
86634W        W58894  38.863  38.540   0.358
86635W        W58895  17.742  38.921   1.233
86636W        W58896  16.669  42.777   4.350
86637W        W58897  18.773   3.954  12.436
86638W        W58898  25.714  14.749  10.958
86639W        W58899  18.131   6.818   3.630
86640W        W58900  11.767  16.661  11.523
86641W        W58901  32.572  28.034  12.893
86642W        W58902  30.109  28.115  14.763
86643W        W58903   0.423  43.352   3.167
86644W        W58904  33.027  37.485   4.200
86645W        W58905  25.670   1.320  14.439
86646W        W58906  22.184  17.693  10.570
86647W        W58907  18.696  12.820   4.628
86648W        W58908  39.951  20.179  10.406
86649W        W58909   0.324   4.321  11.055
86650W        W58910  30.626  42.368   3.798
86651W        W58911  26.481  38.382  13.956
86652W        W58912   6.770  32.588  11.894
86653W        W58913  44.999  31.487   1.900
86654W        W58914  44.964   0.914  12.398
86655W        W58915  36.985  25.187   2.221
86656W        W58916  10.337  27.941   1.430
86657W        W58917  30.458   0.864   2.686
86658W        W58918   0.323  30.426  10.565
86659W        W58919  30.907  20.638   4.828
86660W        W58920   1.246  24.002   0.765
86661W        W58921  24.497   6.771  10.520
86662W        W58922  44.952  39.554   3.189
86663W        W58923  26.986  28.487   1.866
86664W        W58924   0.469  17.700  13.802
86665W        W58925  23.522  30.978   1.256
86666W        W58926  13.712  13.279  10.968
86667W        W58927  42.917   2.820   3.356
86668W        W58928  26.585  25.039  13.824
86669W        W58929  42.886  36.990  12.839
86670W        W58930  38.938  21.239  10.037
86671W        W58931  21.113  39.903   4.354
86672W        W58932  20.666  33.020  14.349
86673W        W58933  23.029   9.378  12.977
86674W        W58934  42.880   3.898   1.903
86675W        W58935  25.008  43.017   3.228
86676W        W58936  34.921  44.436  13.388
86677W        W58937   6.785  13.240  11.900
86678W        W58938  12.169  20.636   0.921
86679W        W58939   7.413  24.184  12.011
86680W        W58940  25.571  29.439  14.028
86681W        W58941   8.739  37.877   1.392
86682W        W58942  25.602  14.734  14.953
86683W        W58943  32.460  25.169   3.787
86684W        W58944  42.790   3.238  13.518
86685W        W58945  21.056  11.190   2.671
86686W        W58946   4.896  32.082   3.844
86687W        W58947  26.161  40.388  13.901
86688W        W58948  39.924  17.113  11.569
86689W        W58949   3.864  30.995   2.806
86690W        W58950  15.169  40.372  14.320
86691W        W58951  17.714  37.477   0.735
86692W        W58952  17.206  10.806   3.187
86693W        W58953  10.761  41.905   0.925
86694W        W58954  28.143  37.898   2.898
86695W        W58955  31.988  43.912  10.935
86696W        W58956  40.986  43.802   0.245
86697W        W58957  39.042  33.520   2.813
86698W        W58958  13.692  31.561  13.018
86699W        W58959  36.448  25.640   1.842
86700W        W58960  21.155  16.566  13.945
86701W        W58961   5.774  20.094  13.416
86702W        W58962  28.952  10.830  14.327
86703W        W58963  16.668  17.659  10.925
86704W        W58964   2.416  21.609   0.752
86705W        W58965  31.097  15.277   4.156
86706W        W58966  28.133  16.761  12.577
86707W        W58967   3.911  11.231  13.041
86708W        W58968  11.353   0.834  10.895
86709W        W58969  15.153  43.982  13.363
86710W        W58970  29.948   1.949  12.540
86711W        W58971  11.651  41.829  14.839
86712W        W58972  13.599  31.900   2.708
86713W        W58973  37.888  31.478  11.458
86714W        W58974  38.968  20.628   4.259
86715W        W58975  31.489  44.307   0.375
86716W        W58976  14.820  31.980   0.410
86717W        W58977  40.034  15.663  14.364
86718W        W58978  13.233   1.375  12.358
86719W        W58979  23.054   8.335   2.890
86720W        W58980  22.539  44.320   1.277
86721W        W58981  41.501   3.923  14.008
86722W        W58982  25.977  14.209  11.051
86723W        W58983  24.000  12.817   3.258
86724W        W58984  41.301  38.912  13.047
86725W        W58985  32.067   0.903   3.177
86726W        W58986  28.603   1.467  10.487
86727W        W58987  27.036  20.211   2.343
86728W        W58988  18.214   4.771   1.261
86729W        W58989  35.425  15.803   0.750
86730W        W58990  34.944  18.743   4.694
86731W        W58991  22.586  13.318   2.253
86732W        W58992  44.978  16.257   2.763
86733W        W58993  44.409   1.275   1.435
86734W        W58994  10.364  17.642   3.359
86735W        W58995  36.967  17.755  13.367
86736W        W58996  21.741  20.653   5.147
86737W        W58997  40.494  39.818   4.798
86738W        W58998  37.041  42.493   4.145
86739W        W58999  29.586  21.214   0.442
86740W        W59000   6.745  43.016   0.733
86741W        W59001  20.212  21.093  11.111
86742W        W59002   2.240  20.144  13.022
86743W        W59003   8.162  27.597   0.309
86744W        W59004   8.165  43.389  12.357
86745W        W59005  25.098  12.346  10.455
86746W        W59006  37.475   3.250  13.019
86747W        W59007  41.497  40.883   4.662
86748W        W59008  15.105  14.257   2.418
86749W        W59009  27.137  40.310  13.394
86750W        W59010  40.916  43.787   1.248
86751W        W59011  27.028  15.731  12.883
86752W        W59012  13.287  29.607  10.419
86753W        W59013  26.144   1.379   1.377
86754W        W59014   6.843  40.054   3.771
86755W        W59015  29.497  25.571  11.889
86756W        W59016  14.791  37.501  12.365
86757W        W59017   0.442  21.726   0.278
86758W        W59018  44.875  27.449  10.552
86759W        W59019  28.541  37.415   3.721
86760W        W59020  20.244   4.233  13.455
86761W        W59021  28.988  40.800  12.364
86762W        W59022  29.136  24.646   4.697
86763W        W59023   2.440  25.133  12.564
86764W        W59024   4.932  33.560   2.345
86765W        W59025  21.256  12.226   2.700
86766W        W59026  32.433  33.472  13.860
86767W        W59027  10.680  34.925   1.227
86768W        W59028  13.753  24.607  12.094
86769W        W59029   6.836  27.481   0.837
86770W        W59030  18.764  33.404  13.506
86771W        W59031  39.008  15.737   1.695
86772W        W59032   8.198  35.902   0.373
86773W        W59033  33.489  43.815   0.746
86774W        W59034  17.064  12.819  10.917
86775W        W59035  24.694  25.160   4.147
86776W        W59036  34.048  38.960   4.242
86777W        W59037   8.336   4.312   3.670
86778W        W59038  39.961  42.826   3.329
86779W        W59039  15.601  31.584  10.643
86780W        W59040  14.767   0.376  12.035
86781W        W59041  44.832  34.488   1.903
86782W        W59042  25.620   5.769  10.441
86783W        W59043  15.716  36.546   4.633
86784W        W59044   8.654  26.994   0.332
86785W        W59045  20.153  42.401   0.271
86786W        W59046  20.686  11.810   0.808
86787W        W59047   1.787  11.748  10.919
86788W        W59048  17.617  23.241  13.988
86789W        W59049  21.722  27.481   4.352
86790W        W59050  21.219  44.939  13.511
86791W        W59051  28.104   7.297   0.254
86792W        W59052  33.977  40.457   1.428
86793W        W59053  43.785  17.721   1.913
86794W        W59054  22.208  32.064  14.374
86795W        W59055  39.425  16.095   0.344
86796W        W59056  29.593  33.005   3.783
86797W        W59057  40.335  42.465  11.102
86798W        W59058   5.278  39.861   1.930
86799W        W59059   7.275  19.281   3.836
86800W        W59060   6.909   6.292  12.043
86801W        W59061   8.404  27.646  13.407
86802W        W59062  36.054   8.659   2.853
86803W        W59063  43.887  22.697  13.024
86804W        W59064  44.983  38.333  11.460
86805W        W59065  33.896  13.709  14.810
86806W        W59066  44.796  18.691  13.960
86807W        W59067  33.082  23.152  13.469
86808W        W59068  34.000   4.906   0.743
86809W        W59069  33.899  10.753  14.919
86810W        W59070  15.220  12.239   4.342
86811W        W59071  17.623   4.342  13.830
86812W        W59072  19.590  37.525   2.332
86813W        W59073  19.049  27.073   0.376
86814W        W59074   8.765  17.300   1.851
86815W        W59075  36.447   0.490   5.111
86816W        W59076  43.022  32.628  11.533
86817W        W59077  40.870   3.771   2.890
86818W        W59078  21.613  14.715   1.313
86819W        W59079  27.191  26.972  11.915
86820W        W59080  36.539   6.215   5.161
86821W        W59081  25.687  33.966   3.684
86822W        W59082  13.676   4.304  10.945
86823W        W59083  26.525  11.164   1.393
86824W        W59084  40.495  37.532  14.419
86825W        W59085  42.776  26.201  10.478
86826W        W59086  36.916   6.212  11.400
86827W        W59087  30.629  42.963   1.841
86828W        W59088  33.525   4.280  11.453
86829W        W59089  19.140  10.709  14.933
86830W        W59090  10.757   9.684   2.283
86831W        W59091  24.047  24.481   3.199
86832W        W59092  32.431  15.205   3.359
86833W        W59093  21.193  24.103  13.976
86834W        W59094  43.287  20.593  13.809
86835W        W59095   7.217  10.153   3.355
86836W        W59096  42.957  35.926  13.426
86837W        W59097  29.632  39.446   3.813
86838W        W59098   4.239   9.833  13.543
86839W        W59099   1.905  11.188  10.554
86840W        W59100  22.047   8.684   0.328
86841W        W59101  15.120  30.908   4.750
86842W        W59102  11.729  16.721  10.465
86843W        W59103  16.683  38.895  10.988
86844W        W59104  29.079  15.693   4.633
86845W        W59105  33.533  18.730  11.959
86846W        W59106  13.351  26.082  14.954
86847W        W59107  44.872  39.467  11.393
86848W        W59108  28.562   2.258  12.534
86849W        W59109  38.854  13.283   0.965
86850W        W59110   4.813  28.515  11.012
86851W        W59111  18.708  27.467   3.652
86852W        W59112  35.066   6.412   1.785
86853W        W59113  13.760  29.499   1.931
86854W        W59114  27.492  31.617   9.669
86855W        W59115   0.792  24.630  13.356
86856W        W59116  38.392   0.988  10.912
86857W        W59117  12.724  34.012  13.820
86858W        W59118  10.737   6.904  14.934
86859W        W59119  13.200  30.083  12.970
86860W        W59120   7.766  33.476   0.909
86861W        W59121   2.944  21.087   1.336
86862W        W59122  12.227  39.482   0.355
86863W        W59123   4.416  27.030   4.728
86864W        W59124  31.030  16.595   0.864
86865W        W59125   4.733  31.437  10.554
86866W        W59126  22.226  21.035   3.746
86867W        W59127  33.459  39.983   4.724
86868W        W59128  19.149  29.490   4.254
86869W        W59129  29.506  34.503   4.118
86870W        W59130  42.422  23.664   0.742
86871W        W59131  22.691  43.393   3.679
86872W        W59132  18.257   6.200   3.190
86873W        W59133  17.207  39.472  13.869
86874W        W59134  11.653   5.834  11.898
86875W        W59135  32.125  30.558  12.081
86876W        W59136  25.127  19.727   3.856
86877W        W59137  23.009   1.265   3.799
86878W        W59138   0.400  18.603   0.439
86879W        W59139  28.020   4.939  12.366
86880W        W59140   8.693  20.531   1.318
86881W        W59141   8.321  42.341   0.790
86882W        W59142   7.712   7.363  12.057
86883W        W59143   3.449  36.040   4.676
86884W        W59144  28.612   7.234  10.994
86885W        W59145  41.531   8.314   3.204
86886W        W59146  38.360   3.342   3.742
86887W        W59147   6.849   1.439  14.328
86888W        W59148   2.424   3.339   0.916
86889W        W59149  44.323   5.336   1.699
86890W        W59150  12.197  25.162  14.787
86891W        W59151  38.045  43.371   2.845
86892W        W59152   9.328  24.679   1.430
86893W        W59153  11.132  41.439   1.730
86894W        W59154  18.608  16.259   3.203
86895W        W59155  43.378  42.374  13.895
86896W        W59156  34.604  39.844   2.867
86897W        W59157  10.740  26.074  14.436
86898W        W59158  40.518  12.803  10.417
86899W        W59159  37.541  35.495  12.526
86900W        W59160   9.852  42.464  12.383
86901W        W59161  38.457   0.468  10.615
86902W        W59162  17.082   7.407   1.824
86903W        W59163  13.135  15.114  11.431
86904W        W59164  24.145  39.974   5.749
86905W        W59165   8.279  32.402   1.364
86906W        W59166  32.895  43.411   2.727
86907W        W59167  38.930  18.767   5.193
86908W        W59168  32.106  15.601   2.717
86909W        W59169   6.205  35.885   0.942
86910W        W59170  20.613  21.692  10.940
86911W        W59171  10.207   4.290  13.322
86912W        W59172   5.715  42.913  13.033
86913W        W59173  35.105   9.796  10.988
86914W        W59174  34.958  24.083  14.027
86915W        W59175  20.229  25.653  12.892
86916W        W59176   5.274  18.616   0.829
86917W        W59177  17.198  28.955   4.634
86918W        W59178  23.007  15.666   3.717
86919W        W59179  33.520   3.365   5.177
86920W        W59180  44.790  44.435  12.938
86921W        W59181  33.937   6.283  12.398
86922W        W59182  43.471   5.792  14.785
86923W        W59183  18.189  28.635  10.542
86924W        W59184   7.878  43.854   0.806
86925W        W59185  12.358  34.427   1.295
86926W        W59186  40.428  17.099   3.286
86927W        W59187   3.935   2.758   4.614
86928W        W59188  34.010  39.835   2.324
86929W        W59189  25.669   5.194  11.123
86930W        W59190   5.723  19.581   3.200
86931W        W59191  26.083  15.246   2.784
86932W        W59192   7.777   1.817  13.425
86933W        W59193  41.439  32.975   3.818
86934W        W59194  20.219  44.350  10.414
86935W        W59195  40.398   9.728  12.426
86936W        W59196   0.919  40.330   2.706
86937W        W59197  21.202  44.873   3.744
86938W        W59198  40.805  10.721   0.850
86939W        W59199  12.182  13.790   1.862
86940W        W59200  43.865  31.639  11.457
86941W        W59201  19.654  24.114   0.454
86942W        W59202  41.006  10.820  14.334
86943W        W59203  34.943  28.546  13.437
86944W        W59204  16.251  20.260  12.547
86945W        W59205  24.086  25.016  11.975
86946W        W59206   4.761   1.751   3.864
86947W        W59207  30.573   4.248  14.360
86948W        W59208   6.202  12.771  11.983
86949W        W59209   1.906  38.445  12.823
86950W        W59210   8.889  10.751   2.211
86951W        W59211  43.367   5.902   0.404
86952W        W59212  39.381  37.930  12.461
86953W        W59213  39.418   3.381  11.049
86954W        W59214  22.583  14.710  11.377
86955W        W59215  41.346  33.393  13.348
86956W        W59216  14.212   6.214   3.742
86957W        W59217  22.529  40.337   1.308
86958W        W59218  27.980  17.697   2.804
86959W        W59219   6.225   0.473   2.386
86960W        W59220  18.641  28.640   2.857
86961W        W59221  29.597  38.496   0.937
86962W        W59222  18.625  44.437  14.346
86963W        W59223  11.817  40.800  12.421
86964W        W59224  26.609  21.217  12.461
86965W        W59225  23.579  14.154  14.301
86966W        W59226  42.842   3.334   0.381
86967W        W59227  40.874  26.580  13.849
86968W        W59228  17.680  21.219   3.772
86969W        W59229  27.995  38.883   5.314
86970W        W59230   0.931  32.611  14.878
86971W        W59231   2.315  33.976  11.539
86972W        W59232  22.097   2.341   2.739
86973W        W59233  29.516   4.300   3.812
86974W        W59234   6.770  11.804  12.925
86975W        W59235   0.820  42.025  13.544
86976W        W59236  23.119  25.215  13.343
86977W        W59237  30.930  42.995   2.212
86978W        W59238   1.312  42.452  11.426
86979W        W59239  35.514  22.246  14.771
86980W        W59240  39.855  43.432   2.869
86981W        W59241  28.033  12.643   4.271
86982W        W59242   5.199  11.319  10.634
86983W        W59243   6.199  33.012  12.884
86984W        W59244   8.660  19.602   2.387
86985W        W59245  34.983   0.861  14.330
86986W        W59246  40.492  19.591  13.005
86987W        W59247  33.531  43.954   1.305
86988W        W59248   3.287  10.230  11.030
86989W        W59249  37.832  15.294  13.367
86990W        W59250  25.083   8.696  13.329
86991W        W59251  39.940  14.681  12.845
86992W        W59252   7.845   9.751  14.931
86993W        W59253  32.048  22.679  12.851
86994W        W59254  41.954  41.314  14.278
86995W        W59255  26.963  22.642  11.890
86996W        W59256  32.553  19.193  10.541
86997W        W59257  31.984  28.040   4.175
86998W        W59258   5.312  29.463  14.962
86999W        W59259  40.837  22.520  12.346
87000W        W59260  38.356  12.645   1.725
87001W        W59261  16.086  16.771   2.358
87002W        W59262  15.729  10.237  10.468
87003W        W59263  30.654  38.536  11.115
87004W        W59264  11.163  43.005  14.350
87005W        W59265  21.263  30.930  10.628
87006W        W59266   2.297  11.191  10.933
87007W        W59267  21.102  42.455  11.528
87008W        W59268  23.695  34.561   3.364
87009W        W59269  25.531  18.603   1.887
87010W        W59270  31.972  34.988   3.753
87011W        W59271  39.488   6.772   3.803
87012W        W59272  12.271  33.607   1.224
87013W        W59273   2.378  36.855   1.769
87014W        W59274  32.498   2.957   3.333
87015W        W59275   8.373  30.939   0.947
87016W        W59276  21.172  16.265   4.149
87017W        W59277  17.667  36.011  14.480
87018W        W59278   6.783   5.267  12.872
87019W        W59279  10.778  26.572  10.592
87020W        W59280   0.437   1.913  11.591
87021W        W59281  33.595  42.967  11.071
87022W        W59282   3.458   1.898   0.292
87023W        W59283  16.233  44.957   0.936
87024W        W59284   8.755  15.608   0.942
87025W        W59285  19.680  42.378  10.422
87026W        W59286   9.272  41.518  12.398
87027W        W59287  14.657  39.009  12.861
87028W        W59288  21.635   9.164   3.786
87029W        W59289  21.152  16.758  14.884
87030W        W59290  17.300  22.621  13.970
87031W        W59291  19.696   2.436  13.917
87032W        W59292  11.661  23.497  12.578
87033W        W59293  17.070  27.006   9.989
87034W        W59294   2.463  37.896   2.180
87035W        W59295   7.218  41.824   3.715
87036W        W59296  29.640  40.974  10.578
87037W        W59297  19.211  29.665  12.906
87038W        W59298  30.509  22.079   2.288
87039W        W59299  31.103  44.403  14.392
87040W        W59300  37.011  13.684   0.340
87041W        W59301  14.651  21.119   4.645
87042W        W59302  21.198  21.055   2.259
87043W        W59303  40.037  15.223   2.884
87044W        W59304   6.741  40.500  13.879
87045W        W59305   0.943   0.962   2.223
87046W        W59306  14.699  30.521   4.260
87047W        W59307   4.750  26.655  13.525
87048W        W59308  33.068   3.822   3.859
87049W        W59309  17.194  31.403   3.301
87050W        W59310  20.267   1.835   0.242
87051W        W59311  34.609   9.237  12.387
87052W        W59312   4.230   5.689   2.715
87053W        W59313   3.293  13.167   1.394
87054W        W59314  26.998  20.156   2.752
87055W        W59315  36.560  39.338   4.165
87056W        W59316  21.163   3.792  12.556
87057W        W59317  19.614  28.009  10.635
87058W        W59318  11.358  23.491   4.815
87059W        W59319  42.805  43.787  10.509
87060W        W59320  19.239  37.521   1.779
87061W        W59321  16.792   5.764  11.015
87062W        W59322  42.405  24.078  10.968
87063W        W59323  32.995  33.917   0.410
87064W        W59324  11.752  23.724   2.867
87065W        W59325  43.499   1.927  14.779
87066W        W59326   0.309  12.226  11.882
87067W        W59327  14.294   3.330   4.298
87068W        W59328  11.130  13.228  13.397
87069W        W59329   6.707  17.722   3.838
87070W        W59330  42.394  15.610   2.833
87071W        W59331  34.041  35.956   2.826
87072W        W59332   3.847  41.391  13.407
87073W        W59333  15.115  44.778   1.766
87074W        W59334  29.479  31.421  11.404
87075W        W59335  33.621  31.050  12.450
87076W        W59336   1.791  37.878  11.124
87077W        W59337  12.630  29.524   0.905
87078W        W59338   6.383   6.829  12.458
87079W        W59339  10.669  29.099   0.834
87080W        W59340  24.072   4.331  14.944
87081W        W59341  37.946  26.014  11.870
87082W        W59342   1.460  13.332   4.820
87083W        W59343  17.565  31.960   1.892
87084W        W59344  18.166  30.573  10.432
87085W        W59345  26.575   6.296  12.344
87086W        W59346   0.763  41.378   2.204
87087W        W59347  40.850  38.989  14.279
87088W        W59348  32.963  37.438  13.968
87089W        W59349  19.738  23.666   4.353
87090W        W59350  25.613   9.868   4.773
87091W        W59351  15.604   4.852  11.429
87092W        W59352  21.702  42.384  14.020
87093W        W59353  17.654  36.872   0.767
87094W        W59354  44.826  29.970   1.727
87095W        W59355   4.772  21.101   3.640
87096W        W59356  18.275  35.062   1.399
87097W        W59357   8.285  31.454  10.542
87098W        W59358  31.541   7.828  10.449
87099W        W59359  29.154   2.730   2.310
87100W        W59360   8.295  43.443  11.032
87101W        W59361  42.356  18.593  10.887
87102W        W59362   7.226  28.611   5.113
87103W        W59363   4.715   4.273  14.357
87104W        W59364  17.744  42.925   0.302
87105W        W59365  27.104   9.711  13.523
87106W        W59366  19.160  42.903   0.962
87107W        W59367   4.218  30.138   3.841
87108W        W59368  26.053  42.508  11.011
87109W        W59369   3.401  21.140  11.378
87110W        W59370  33.438  36.025  10.614
87111W        W59371  32.021   9.875  14.327
87112W        W59372  21.674  36.499   0.259
87113W        W59373   2.777  35.486  13.532
87114W        W59374  23.229  33.491   3.312
87115W        W59375  20.680  43.901  10.644
87116W        W59376  18.146   3.248  14.443
87117W        W59377  26.957   0.455   3.727
87118W        W59378  12.755  34.559  12.425
87119W        W59379   2.850   5.381   2.874
87120W        W59380  33.510  14.329   9.978
87121W        W59381  30.071  22.741  13.405
87122W        W59382  39.982   8.776   3.378
87123W        W59383  17.634  30.603   1.325
87124W        W59384  34.965   4.433   3.784
87125W        W59385  10.331  34.379  10.612
87126W        W59386   6.905  15.711  13.927
87127W        W59387  24.169  21.210   5.202
87128W        W59388  10.867  12.284   4.712
87129W        W59389   5.405  23.066   3.196
87130W        W59390   3.913   9.842   0.400
87131W        W59391  40.017  25.605   0.267
87132W        W59392   6.268  33.537  14.860
87133W        W59393  13.656  43.942  11.953
87134W        W59394  37.559  42.378  11.126
87135W        W59395   2.310   2.771  12.427
87136W        W59396  20.588  29.057   4.692
87137W        W59397   4.811  41.508   0.912
87138W        W59398  25.611  16.122   3.842
87139W        W59399   3.766  35.985  13.840
87140W        W59400  38.325  27.138  14.404
87141W        W59401   3.872  29.476  10.415
87142W        W59402  43.019  26.460  10.071
87143W        W59403  30.558   4.376  11.048
87144W        W59404   7.338  41.815   1.439
87145W        W59405  18.082  44.918   0.803
87146W        W59406  38.375  31.056  11.373
87147W        W59407   3.835  16.739   2.679
87148W        W59408  36.350  19.150   0.286
87149W        W59409  33.550   6.308   4.313
87150W        W59410  37.966  17.086  11.004
87151W        W59411  21.085  44.418   4.783
87152W        W59412  36.988  19.272   2.675
87153W        W59413   8.777  26.973  12.060
87154W        W59414  32.634  31.469   3.260
87155W        W59415   4.727   8.398   9.999
87156W        W59416  18.252  22.592  14.383
87157W        W59417  38.992   1.853  13.954
87158W        W59418  30.545  41.911   2.235
87159W        W59419   1.960   9.719  12.849
87160W        W59420  32.419  25.200  11.082
87161W        W59421  27.638  34.554   2.707
87162W        W59422   0.253  16.200  13.350
87163W        W59423  33.025  22.212   2.389
87164W        W59424   0.778  19.156  10.895
87165W        W59425   3.454  42.921   4.193
87166W        W59426  18.093  44.880  14.359
87167W        W59427  16.764  37.490   4.739
87168W        W59428  34.490  35.102   3.315
87169W        W59429   0.481   0.773   3.374
87170W        W59430  39.915  42.923   5.293
87171W        W59431  23.593  12.161   3.790
87172W        W59432  33.889  20.645   5.746
87173W        W59433   0.810   1.298  13.462
87174W        W59434   9.643   0.265  10.915
87175W        W59435   8.888  42.953   0.742
87176W        W59436   8.779  44.285  11.091
87177W        W59437  16.689  14.612   1.819
87178W        W59438  20.191  44.807  10.577
87179W        W59439   7.408  25.994   1.752
87180W        W59440  42.859  29.663   0.399
87181W        W59441  35.603   0.395   3.658
87182W        W59442  14.294  18.790   0.431
87183W        W59443   2.290  13.294  10.968
87184W        W59444  20.037  36.996   4.800
87185W        W59445   3.932  18.146  12.938
87186W        W59446  27.568  19.181   4.198
87187W        W59447   6.779   4.321   4.127
87188W        W59448  14.297  23.212  11.569
87189W        W59449  11.677  43.911   2.223
87190W        W59450   6.217  22.184   2.404
87191W        W59451  44.355   9.163   0.298
87192W        W59452   5.364  44.458   2.221
87193W        W59453   3.898  39.935  10.626
87194W        W59454   4.339  13.816   4.330
87195W        W59455  32.131  19.569   3.194
87196W        W59456  31.989  18.623   2.738
87197W        W59457   5.798  32.955  13.866
87198W        W59458  15.769  12.678   4.638
87199W        W59459  34.015  16.616  11.863
87200W        W59460  22.151   1.889  11.425
87201W        W59461  27.580  41.942   0.243
87202W        W59462  30.974  17.623   4.344
87203W        W59463  19.576  19.081  11.487
87204W        W59464   2.833  22.089   3.376
87205W        W59465  14.611   2.409  11.515
87206W        W59466  17.305  28.471  11.858
87207W        W59467  15.619  35.983   0.768
87208W        W59468  23.545  22.999  11.985
87209W        W59469  25.972  30.095  14.888
87210W        W59470  26.196  11.743   0.805
87211W        W59471   8.400  35.564  11.509
87212W        W59472  31.905  11.324  13.019
87213W        W59473  42.359  33.550  10.140
87214W        W59474  18.127  18.284   2.402
87215W        W59475  20.100   1.809   4.724
87216W        W59476   6.732  35.546   3.658
87217W        W59477  44.960   1.765   2.380
87218W        W59478  11.857  26.673  12.473
87219W        W59479  30.531  43.810  10.906
87220W        W59480  33.098  29.022  11.378
87221W        W59481  34.456  32.020   2.831
87222W        W59482  35.039  16.146   0.436
87223W        W59483  17.278  14.276   0.373
87224W        W59484  25.028  12.316   3.212
87225W        W59485  17.567  39.885  12.370
87226W        W59486  35.055   5.341   4.640
87227W        W59487  26.100  13.755  11.948
87228W        W59488  11.863  30.140   3.330
87229W        W59489  17.636  22.206   1.237
87230W        W59490  40.515  38.982  11.558
87231W        W59491  39.469   9.866  11.017
87232W        W59492  39.952  31.075   3.867
87233W        W59493  34.955  30.995  14.462
87234W        W59494   4.869  32.447   4.272
87235W        W59495  25.496  11.291  11.016
87236W        W59496   2.790  12.695   3.722
87237W        W59497  34.610  23.567   0.888
87238W        W59498  44.769  43.954  14.403
87239W        W59499   5.887  18.064   1.723
87240W        W59500  25.109  22.055   3.658
87241W        W59501  29.998   0.344   0.824
87242W        W59502  11.127  33.006   2.355
87243W        W59503  41.456   7.848   0.726
87244W        W59504  41.396  16.163   0.731
87245W        W59505  24.188  21.219   2.255
87246W        W59506   4.386   4.279  13.473
87247W        W59507  14.264   7.231  10.906
87248W        W59508  13.118   4.384  12.467
87249W        W59509  26.493  30.611   0.404
87250W        W59510   3.337  12.747  10.159
87251W        W59511  22.251  38.834   0.468
87252W        W59512   8.164  14.625  11.602
87253W        W59513  25.513  28.585   3.383
87254W        W59514   8.259  17.686  11.075
87255W        W59515  24.030  43.994   0.414
87256W        W59516  35.980  33.482  10.632
87257W        W59517  26.176   6.293   4.636
87258W        W59518   3.405  29.509   3.379
87259W        W59519  38.436  32.552   2.666
87260W        W59520   7.727  36.995   1.800
87261W        W59521  40.000  42.481  14.345
87262W        W59522   9.699  29.452  13.357
87263W        W59523  24.974  42.495   3.319
87264W        W59524  38.891  14.609   1.870
87265W        W59525  12.675  41.875   0.459
87266W        W59526   7.408  19.584  11.102
87267W        W59527   2.429   4.791   4.228
87268W        W59528  38.034  18.778   0.279
87269W        W59529  11.765  15.614  13.970
87270W        W59530  22.127  39.857  11.909
87271W        W59531  41.004  27.076   0.405
87272W        W59532  24.531  42.820  14.974
87273W        W59533  25.642  43.851   3.701
87274W        W59534  43.774  23.587  10.935
87275W        W59535   2.444  11.305   0.265
87276W        W59536  10.663  36.857  12.952
87277W        W59537  41.353  32.130  12.942
87278W        W59538  43.933  32.529  13.384
87279W        W59539  39.391  24.501   1.327
87280W        W59540   7.890  17.287  12.916
87281W        W59541   5.378   7.906  14.505
87282W        W59542  44.916  39.967   4.175
87283W        W59543  12.241   1.759  10.623
87284W        W59544  18.200  37.391  11.579
87285W        W59545  38.878  20.262  13.439
87286W        W59546  17.761  17.654   2.390
87287W        W59547  14.694  28.529  14.924
87288W        W59548  40.325  33.590   0.744
87289W        W59549  37.924  36.385   0.249
87290W        W59550  10.823  20.766   2.251
87291W        W59551  25.182   3.229   3.861
87292W        W59552  32.064   2.238   1.323
87293W        W59553   4.797  20.036  11.918
87294W        W59554  18.097   3.914  14.926
87295W        W59555  19.571  27.479  13.973
87296W        W59556  22.106  24.556   3.757
87297W        W59557  29.533  14.331   2.370
87298W        W59558  21.025  34.537   4.278
87299W        W59559  27.197  43.343   3.726
87300W        W59560   4.719   7.724  10.580
87301W        W59561   5.931   1.315  14.791
87302W        W59562  30.019  43.289  13.921
87303W        W59563  25.089  41.435  10.087
87304W        W59564  34.870  43.966  13.370
87305W        W59565  43.306   9.783   0.843
87306W        W59566  14.282  16.700   9.584
87307W        W59567  12.710   4.434   0.964
87308W        W59568   3.937  21.212   3.763
87309W        W59569  27.976  36.361   3.247
87310W        W59570   5.807  12.675  11.963
87311W        W59571   5.318  10.329  13.507
87312W        W59572  10.759  34.868   4.678
87313W        W59573  17.300   1.422  10.474
87314W        W59574  14.646  17.782   4.181
87315W        W59575   3.366  29.434  12.411
87316W        W59576   1.773  37.030  13.318
87317W        W59577  28.625   7.815  14.936
87318W        W59578  14.668  41.391  14.978
87319W        W59579  31.423   0.961  14.988
87320W        W59580  27.562  29.024  11.002
87321W        W59581  14.219  19.171   2.238
87322W        W59582  10.871  17.677  13.379
87323W        W59583  13.159  23.238  11.422
87324W        W59584   9.279  11.766   1.888
87325W        W59585  28.088  29.427  12.885
87326W        W59586  43.494  26.540   2.800
87327W        W59587  24.706  37.923  12.460
87328W        W59588  38.867  35.896   4.710
87329W        W59589  36.011  19.732   0.284
87330W        W59590  24.563  34.919   3.819
87331W        W59591  17.307  35.565  12.382
87332W        W59592   5.768   0.257  11.916
87333W        W59593  13.294  19.244   2.203
87334W        W59594   1.846  20.198   0.457
87335W        W59595  16.105  10.757   4.321
87336W        W59596   0.387  34.405   0.766
87337W        W59597  20.531   5.422  12.425
87338W        W59598  42.016  29.462   1.375
87339W        W59599  32.078  24.041   0.462
87340W        W59600  20.589   3.240  12.996
87341W        W59601  20.151  19.762   5.291
87342W        W59602  23.648  16.619  12.899
87343W        W59603  43.480  27.177  11.489
87344W        W59604   9.165  12.360  11.961
87345W        W59605  25.678  33.924   1.308
87346W        W59606   6.874  35.599   3.190
87347W        W59607  41.853  38.978   0.476
87348W        W59608  39.946  12.690   1.264
87349W        W59609  17.250  14.167  11.870
87350W        W59610  35.917  39.535   2.311
87351W        W59611  41.505  39.470  13.006
87352W        W59612  21.707  20.234  10.463
87353W        W59613  20.168  29.426  11.572
87354W        W59614  26.052   3.805   3.690
87355W        W59615  22.061  20.574   0.481
87356W        W59616  41.331  10.794  12.933
87357W        W59617  24.587   6.905  11.471
87358W        W59618  26.508  43.869  13.000
87359W        W59619  38.973  29.016  13.542
87360W        W59620  27.448   1.811   0.268
87361W        W59621  36.930  22.139  13.980
87362W        W59622   4.265  22.538  14.980
87363W        W59623  35.885   1.884  13.339
87364W        W59624  40.001  39.453  13.405
87365W        W59625  14.770   6.763   4.210
87366W        W59626  16.803   7.848  14.948
87367W        W59627  24.077  42.887  13.856
87368W        W59628  12.829  32.946  12.059
87369W        W59629  37.986  39.458   1.904
87370W        W59630  20.557  40.476  11.610
87371W        W59631   7.845  10.763   0.932
87372W        W59632  18.585  20.726   0.385
87373W        W59633   8.248  44.289   0.734
87374W        W59634  11.199  25.530   2.785
87375W        W59635  30.012  38.901  12.982
87376W        W59636   4.304  35.462  13.874
87377W        W59637   6.221   5.211  12.036
87378W        W59638  34.085  44.341  10.118
87379W        W59639  36.009   6.774   0.286
87380W        W59640  29.613  27.569  13.938
87381W        W59641  15.305  31.583   3.828
87382W        W59642  20.201  38.527   4.258
87383W        W59643  10.690   9.718   0.475
87384W        W59644  38.390  33.451  13.954
87385W        W59645  14.308   5.339  13.535
87386W        W59646  13.736   6.267   2.293
87387W        W59647  28.578  26.628  11.003
87388W        W59648  15.598  40.887   4.187
87389W        W59649  12.267  37.479  11.384
87390W        W59650  30.907  24.528  12.948
87391W        W59651  22.549  31.434   0.951
87392W        W59652   3.335  38.961  14.406
87393W        W59653  41.999  12.641  11.440
87394W        W59654  11.226  11.733   1.920
87395W        W59655  11.246   5.324  14.508
87396W        W59656  43.775  24.174  13.470
87397W        W59657  28.981  34.985  11.382
87398W        W59658   1.359  38.987  12.029
87399W        W59659  12.226  15.667  10.533
87400W        W59660   8.745  16.772  13.546
87401W        W59661  22.198  41.787   0.756
87402W        W59662  15.097  26.147  12.023
87403W        W59663  19.592  18.065   4.750
87404W        W59664  16.706  18.084  14.937
87405W        W59665  17.222  17.580  10.576
87406W        W59666   3.339  18.072   1.882
87407W        W59667   1.289  32.035  13.378
87408W        W59668  24.659  27.588   1.725
87409W        W59669  22.618  29.173  13.829
87410W        W59670  36.933  37.911  14.391
87411W        W59671  16.735  40.926  12.061
87412W        W59672  21.619  44.436   0.956
87413W        W59673   5.217  26.000  14.281
87414W        W59674   6.753  12.746  14.930
87415W        W59675  27.082  12.272   0.251
87416W        W59676  36.867  30.914   3.290
87417W        W59677   0.903  28.634   4.269
87418W        W59678  31.575   7.336  12.414
87419W        W59679  26.019  34.611   1.388
87420W        W59680  22.720  11.330   3.783
87421W        W59681  38.348  13.640   0.332
87422W        W59682  28.505  19.731   1.814
87423W        W59683  34.536   3.312   0.436
87424W        W59684  33.914  37.919   2.736
87425W        W59685  15.616  40.925   3.148
87426W        W59686  33.976  16.160   0.832
87427W        W59687  34.061  37.393   4.287
87428W        W59688  23.545  39.985  14.994
87429W        W59689  41.327  25.713   5.099
87430W        W59690   0.467  12.226   3.869
87431W        W59691  22.180  37.353   0.306
87432W        W59692  36.944   7.226   0.288
87433W        W59693  28.062  22.613   4.185
87434W        W59694   4.855   8.714   5.295
87435W        W59695   6.207  40.824  10.967
87436W        W59696  35.945  36.422   3.832
87437W        W59697  34.076   1.874  14.817
87438W        W59698  18.655  24.081   0.890
87439W        W59699   7.683   0.743  11.883
87440W        W59700   0.273  11.622  14.393
87441W        W59701  32.494  21.562   1.447
87442W        W59702  37.570  40.908  11.442
87443W        W59703  14.105  34.881  13.992
87444W        W59704  29.649  31.063   1.372
87445W        W59705   6.716  44.422   3.169
87446W        W59706  10.730  37.920  12.469
87447W        W59707  38.943   0.475  10.484
87448W        W59708  23.606  19.189  13.016
87449W        W59709  18.762  37.580   9.964
87450W        W59710  43.829  10.786   4.146
87451W        W59711  12.286   8.771   0.836
87452W        W59712   3.245   4.298  14.461
87453W        W59713  13.813  29.058  10.120
87454W        W59714  23.174  40.847  12.442
87455W        W59715  40.999  16.760   0.372
87456W        W59716   3.859  41.411  11.590
87457W        W59717  18.548  40.486  13.317
87458W        W59718  11.258  21.657   4.600
87459W        W59719   7.869   1.385   1.448
87460W        W59720  32.022   6.309  12.445
87461W        W59721  41.791   7.809   5.319
87462W        W59722   7.801  37.368  10.135
87463W        W59723  33.071  31.909  11.477
87464W        W59724  43.353  40.396  11.028
87465W        W59725  33.537  16.105  13.941
87466W        W59726  14.664  35.543  10.414
87467W        W59727  14.705  35.985  10.605
87468W        W59728  28.186  36.381  14.447
87469W        W59729   5.715  42.381  13.002
87470W        W59730  40.799   2.756   1.855
87471W        W59731  12.638  13.675   4.123
87472W        W59732   1.397  27.975   0.297
87473W        W59733  23.692  13.761   3.359
87474W        W59734  32.086   5.713  12.488
87475W        W59735  40.497  44.431  14.470
87476W        W59736   5.360   4.889   1.427
87477W        W59737  39.497   6.414  11.876
87478W        W59738   2.777  27.624   0.295
87479W        W59739   5.831  25.052  10.905
87480W        W59740  28.121  44.764  13.458
87481W        W59741  30.519  25.564  12.014
87482W        W59742  12.790  33.978   0.790
87483W        W59743  38.337   6.858   0.402
87484W        W59744  10.792  44.440  11.435
87485W        W59745  11.360  31.458   1.402
87486W        W59746   5.793   7.380   0.401
87487W        W59747  19.243  32.446   2.733
87488W        W59748   8.340  31.036  12.984
87489W        W59749   5.719  22.162  12.344
87490W        W59750  32.545   5.201  14.373
87491W        W59751  30.489  12.839   1.397
87492W        W59752  34.542  21.163   5.606
87493W        W59753  10.210  28.603   3.262
87494W        W59754  20.567   4.377   2.298
87495W        W59755   9.305  18.646   3.689
87496W        W59756  16.094   7.261  10.414
87497W        W59757   8.763   7.706   1.425
87498W        W59758   2.447  30.495  14.277
87499W        W59759  26.533  37.841  10.962
87500W        W59760  14.794  12.790  10.050
87501W        W59761  35.410  29.934   1.702
87502W        W59762  14.669   0.488   3.727
87503W        W59763   1.252  21.660   4.723
87504W        W59764   1.769  22.213  13.423
87505W        W59765  35.084  20.101  11.457
87506W        W59766  43.790  33.003   1.801
87507W        W59767  20.723   6.353   5.113
87508W        W59768   3.273  31.099  13.884
87509W        W59769   7.342  32.437  13.312
87510W        W59770   6.822  39.021  11.459
87511W        W59771  44.350  16.161   0.453
87512W        W59772   4.422  31.440  10.587
87513W        W59773  13.752   6.717  11.407
87514W        W59774  29.966  26.146  13.870
87515W        W59775  31.929  41.986  13.907
87516W        W59776  33.999  20.708   3.317
87517W        W59777  40.471  15.627  13.342
87518W        W59778  13.137   8.183  12.973
87519W        W59779  13.181  36.902   4.328
87520W        W59780   7.386   9.776   2.184
87521W        W59781  42.899   0.339  14.435
87522W        W59782  38.439  33.444   1.352
87523W        W59783   3.332  13.242   0.258
87524W        W59784   5.349  14.597  13.440
87525W        W59785   2.437   1.872  12.423
87526W        W59786   1.765  26.498   3.738
87527W        W59787  28.510   1.385  11.912
87528W        W59788  40.842   0.323   4.213
87529W        W59789  28.986  28.118   2.335
87530W        W59790  18.726  28.965  12.458
87531W        W59791  21.117  38.822   1.847
87532W        W59792  44.754  12.269   2.853
87533W        W59793  14.675  41.820  13.482
87534W        W59794  19.064  20.577  14.356
87535W        W59795  15.243  42.357  12.034
87536W        W59796  30.498  16.172   4.795
87537W        W59797  10.163  21.076  11.913
87538W        W59798   1.794  11.228  14.512
87539W        W59799  14.248  16.114  14.302
87540W        W59800  35.393  10.669   3.163
87541W        W59801  13.219  10.741   3.866
87542W        W59802  22.207   5.745  12.535
87543W        W59803  20.708  38.049  14.355
87544W        W59804  30.962  13.647   0.390
87545W        W59805  25.520  23.720   0.250
87546W        W59806   9.375  20.175   3.781
87547W        W59807  35.454  20.068   9.937
87548W        W59808   4.256   3.278  13.545
87549W        W59809   6.252  28.536  11.022
87550W        W59810  44.934  32.109  10.621
87551W        W59811  37.066  19.198   4.780
87552W        W59812  27.604  26.656   3.156
87553W        W59813  25.157   3.220  14.854
87554W        W59814  31.077  10.781   2.184
87555W        W59815  34.604  16.221   0.272
87556W        W59816  20.102  43.013  10.613
87557W        W59817  35.461   3.434  12.829
87558W        W59818  43.882   3.285  14.962
87559W        W59819  44.372  15.798   3.652
87560W        W59820  27.602  23.708  13.479
87561W        W59821  15.695  20.717  13.985
87562W        W59822  41.038  40.308  14.020
87563W        W59823  36.464  21.214  12.347
87564W        W59824  13.698   4.752   2.768
87565W        W59825  28.484   5.350  14.836
87566W        W59826   7.176  13.822   1.912
87567W        W59827   4.383  26.598   4.719
87568W        W59828   6.799  21.190   2.202
87569W        W59829  44.315  29.518   3.632
87570W        W59830  30.923  32.974  12.478
87571W        W59831  17.233   3.909  12.908
87572W        W59832  12.814   6.730   1.413
87573W        W59833   8.751  20.584  13.797
87574W        W59834  13.149  27.170   0.961
87575W        W59835  40.356  18.061  10.952
87576W        W59836  44.450  44.807   3.253
87577W        W59837  33.018   5.882  10.461
87578W        W59838  38.072   3.379  10.069
87579W        W59839   8.163  18.642   4.152
87580W        W59840  10.345  24.489   2.245
87581W        W59841  31.473  41.971   4.771
87582W        W59842   7.865   3.375   4.279
87583W        W59843  29.565  29.092   4.758
87584W        W59844  36.415  31.473   1.343
87585W        W59845  30.937   0.828  11.446
87586W        W59846   7.206   7.722  11.500
87587W        W59847  13.264   6.408   4.735
87588W        W59848   6.694  30.082  10.457
87589W        W59849  13.154  20.666   3.849
87590W        W59850  44.452  23.022  10.503
87591W        W59851   8.890  41.927   3.317
87592W        W59852  39.321  21.645   4.673
87593W        W59853  31.110  42.898   1.725
87594W        W59854  33.461   6.815  12.984
87595W        W59855  18.575  31.127  13.062
87596W        W59856  31.636  32.465   2.755
87597W        W59857  38.565   6.789   3.749
87598W        W59858   1.374  21.149   3.246
87599W        W59859  25.558  30.126   2.235
87600W        W59860  31.028  43.995  11.890
87601W        W59861  11.363  11.690   3.310
87602W        W59862  39.465  15.201   3.677
87603W        W59863  44.311   9.730  12.060
87604W        W59864  21.610  23.681  11.105
87605W        W59865  42.455  22.052   0.880
87606W        W59866   9.757   8.278   1.351
87607W        W59867  41.462  42.507  11.039
87608W        W59868   0.388  41.877  10.934
87609W        W59869  42.814  10.657   4.831
87610W        W59870  15.287  37.540  14.812
87611W        W59871   5.415   1.940   4.785
87612W        W59872   1.347  27.034  11.977
87613W        W59873  15.659   1.351  13.500
87614W        W59874  31.475  42.467  11.041
87615W        W59875  30.039   3.739  14.305
87616W        W59876   9.246  42.986   5.195
87617W        W59877   1.783   0.797  11.049
87618W        W59878  27.466  27.547  13.813
87619W        W59879  37.953  21.680  14.832
87620W        W59880  22.147  31.497   3.179
87621W        W59881  24.144  28.455   2.768
87622W        W59882   9.256   4.797  10.488
87623W        W59883   9.153  28.463  13.910
87624W        W59884  16.642  39.544  11.399
87625W        W59885  44.821  14.175  11.946
87626W        W59886  37.367   4.870   4.765
87627W        W59887  39.879  13.157  12.539
87628W        W59888  37.960  12.679  14.995
87629W        W59889  31.089  25.698   4.266
87630W        W59890  31.554  36.538   2.813
87631W        W59891  10.823  41.327  11.440
87632W        W59892  35.444  38.033   0.367
87633W        W59893  33.543  40.366   1.297
87634W        W59894  38.547   1.474   2.304
87635W        W59895  37.052  42.299  13.026
87636W        W59896  34.871   5.427   3.196
87637W        W59897  27.978  44.950   4.233
87638W        W59898  31.410   6.852  12.841
87639W        W59899  35.954  44.945   4.651
87640W        W59900  11.806  38.040   0.389
87641W        W59901  23.534  21.614   0.826
87642W        W59902   2.233  16.174  10.924
87643W        W59903   1.447  16.646  14.510
87644W        W59904  24.687  27.128   2.329
87645W        W59905  40.914  15.761  14.898
87646W        W59906  22.995   9.314   0.834
87647W        W59907  32.437  44.425   0.823
87648W        W59908  21.032   5.247  14.005
87649W        W59909  24.042  12.788   0.840
87650W        W59910  41.910  30.526   3.747
87651W        W59911  14.122  22.616  14.938
87652W        W59912  18.595   3.310  13.047
87653W        W59913   5.883   4.793  11.425
87654W        W59914  28.114  22.708  13.383
87655W        W59915   6.423  10.683   3.207
87656W        W59916  16.135   5.876  13.838
87657W        W59917  21.733  31.488  12.385
87658W        W59918   0.949  42.417   3.811
87659W        W59919  43.425  21.617  12.456
87660W        W59920   6.761  15.703   4.247
87661W        W59921   6.381  41.820  13.495
87662W        W59922  17.213  42.838   2.740
87663W        W59923  11.223  17.216  10.411
87664W        W59924   5.412  33.596   0.936
87665W        W59925  43.377  12.208   4.227
87666W        W59926  14.728  41.028   2.359
87667W        W59927  41.910   4.278  12.967
87668W        W59928   7.407   3.393  11.493
87669W        W59929  36.005  38.514   1.321
87670W        W59930  20.541  36.565   0.807
87671W        W59931  37.582  31.153   1.795
87672W        W59932  35.558   4.805   2.879
87673W        W59933  13.113   4.794   0.287
87674W        W59934  27.027   2.443   4.721
87675W        W59935  15.823  22.097   2.417
87676W        W59936  35.525  29.978  14.823
87677W        W59937  28.070   2.394  10.528
87678W        W59938  32.064  32.085   1.264
87679W        W59939  27.059  43.859  14.894
87680W        W59940  28.649  32.568  11.019
87681W        W59941  38.376  27.979   3.197
87682W        W59942  19.729  14.117   3.858
87683W        W59943  21.110  38.494  12.573
87684W        W59944   9.314  23.115   1.863
87685W        W59945  31.081  44.489  13.881
87686W        W59946  38.561  27.508   0.822
87687W        W59947   2.841  41.822   3.173
87688W        W59948  24.098  38.396   2.237
87689W        W59949  16.631   5.762  13.812
87690W        W59950   3.777  25.520  12.011
87691W        W59951  41.039  11.158  13.865
87692W        W59952  37.910  17.151  14.791
87693W        W59953  22.525  16.803   9.994
87694W        W59954  33.073  32.624  12.928
87695W        W59955  32.060  18.233   1.869
87696W        W59956  40.498   4.871  14.949
87697W        W59957  21.579   9.266  12.833
87698W        W59958  28.095   0.975   4.128
87699W        W59959  20.695  23.078   4.735
87700W        W59960  34.490  22.115   0.794
87701W        W59961  30.442  37.856  12.089
87702W        W59962  23.210  11.780   0.447
87703W        W59963   4.878  42.806  11.880
87704W        W59964  12.754  33.614   1.313
87705W        W59965   6.417  17.686   3.756
87706W        W59966  44.964   6.881   0.248
87707W        W59967  14.287  27.606  14.002
87708W        W59968   1.776  26.475  12.976
87709W        W59969  30.095  17.202  10.591
87710W        W59970   7.803  30.020   1.413
87711W        W59971  25.066   1.314  10.632
87712W        W59972  29.444  19.270   3.287
87713W        W59973  23.125  29.067  11.539
87714W        W59974  27.053  44.260   0.405
87715W        W59975  24.543   1.382   3.800
87716W        W59976  41.923  37.448   4.806
87717W        W59977   0.441  27.573  10.961
87718W        W59978  36.415   2.916  12.955
87719W        W59979   4.834   2.309   0.266
87720W        W59980  30.600  20.584  12.888
87721W        W59981  19.280  14.623  12.531
87722W        W59982  35.526  26.583   4.815
87723W        W59983  19.551  41.960   1.312
87724W        W59984  11.770  28.124   3.817
87725W        W59985  35.387  33.993   2.766
87726W        W59986   7.229   5.830   4.231
87727W        W59987   0.426  22.659   1.697
87728W        W59988   0.317  29.436   4.330
87729W        W59989  14.302  16.704  12.078
87730W        W59990  14.715  25.586  11.875
87731W        W59991  41.947  22.553  13.472
87732W        W59992  27.133  10.284  12.473
87733W        W59993  40.923  24.683   2.231
87734W        W59994  18.629  32.498  13.941
87735W        W59995  41.907   7.836  11.105
87736W        W59996  20.072  11.158   2.179
87737W        W59997  20.047  35.905  10.029
87738W        W59998  44.420  24.626  12.357
87739W        W59999   9.172   3.880   2.302
87740W        W60000   5.789   7.788  13.968
87741W        W60001  32.083   0.949   2.673
87742W        W60002  22.666  27.642   0.357
87743W        W60003   2.840  32.549   4.708
87744W        W60004  25.029  11.185   3.220
87745W        W60005  23.510   6.298   1.446
87746W        W60006  20.227  39.877   4.822
87747W        W60007  10.196  16.150  14.425
87748W        W60008  28.172  33.422  12.355
87749W        W60009   6.701  16.700   4.254
87750W        W60010   7.206   4.248  14.414
87751W        W60011  36.491   9.265  10.475
87752W        W60012  24.593  20.102   0.452
87753W        W60013  16.151   2.840   0.480
87754W        W60014  32.434   9.199   4.182
87755W        W60015  41.954  22.636  12.958
87756W        W60016  44.929  31.059   1.450
87757W        W60017   7.365   1.436  12.935
87758W        W60018  11.136  13.830  12.436
87759W        W60019  14.780   1.284  13.915
87760W        W60020  15.683  26.656   4.741
87761W        W60021  10.271  11.265   1.791
87762W        W60022  24.040  20.078  12.058
87763W        W60023  18.160  39.835   3.785
87764W        W60024  13.762  14.136   1.771
87765W        W60025   0.765  42.356   1.916
87766W        W60026  22.205  18.590   0.363
87767W        W60027   7.807  22.076  13.361
87768W        W60028  25.149  42.360   2.195
87769W        W60029  29.077  17.113   4.811
87770W        W60030  29.651   5.808   3.321
87771W        W60031  10.679   8.164  11.485
87772W        W60032  20.197  28.553   2.732
87773W        W60033   1.973  15.119  13.021
87774W        W60034  37.562  40.371  13.916
87775W        W60035  20.552  35.897   0.290
87776W        W60036  13.119   3.308  14.836
87777W        W60037  38.871   1.921   1.243
87778W        W60038  33.979   9.354  13.544
87779W        W60039  16.082  22.697  10.463
87780W        W60040  42.025  11.823  12.429
87781W        W60041  15.620  33.624   1.295
87782W        W60042   0.779  23.586   2.734
87783W        W60043  36.557  42.387   3.188
87784W        W60044  31.135  11.368  10.063
87785W        W60045  14.245  12.146   4.681
87786W        W60046  30.985  25.561  12.082
87787W        W60047  14.164  34.028   1.883
87788W        W60048  28.184  20.109  12.881
87789W        W60049   4.732  34.564   0.362
87790W        W60050  30.435  44.461  10.931
87791W        W60051  39.868  37.479   0.402
87792W        W60052  32.467  37.870  11.099
87793W        W60053  37.984   9.849   0.905
87794W        W60054  33.421  15.239  13.319
87795W        W60055   9.679  33.463   3.698
87796W        W60056  37.062   1.449   3.630
87797W        W60057  33.890  23.552  14.370
87798W        W60058  32.114  21.023  14.424
87799W        W60059  31.628  11.660  10.507
87800W        W60060  19.684  34.449   0.333
87801W        W60061   7.374   7.302   3.347
87802W        W60062  25.644  28.071  11.027
87803W        W60063  30.972  36.398   3.652
87804W        W60064   3.751  41.959  13.528
87805W        W60065   2.909  25.210   4.789
87806W        W60066  12.779  12.194   4.318
87807W        W60067  31.614  31.542  14.959
87808W        W60068  27.121  18.551   3.170
87809W        W60069  27.607  34.572   1.868
87810W        W60070   7.247  21.139   4.760
87811W        W60071  28.146  24.675   1.787
87812W        W60072  41.519   9.690  12.034
87813W        W60073  36.886  11.224   4.304
87814W        W60074  22.099  29.497  12.419
87815W        W60075   8.338  15.722  11.553
87816W        W60076  31.532  34.481   3.202
87817W        W60077  21.700  36.563  11.447
87818W        W60078  16.251  23.206   4.629
87819W        W60079  35.537  37.048  11.398
87820W        W60080  12.729   2.814   0.759
87821W        W60081  17.156  25.171  11.549
87822W        W60082  27.107   2.825  13.480
87823W        W60083   4.818  30.566   0.262
87824W        W60084  32.569  44.826  10.491
87825W        W60085   3.224   4.745   2.820
87826W        W60086  16.710  17.773   0.401
87827W        W60087  32.535  27.611  13.818
87828W        W60088  12.226  26.992   4.232
87829W        W60089  25.175  35.058   3.208
87830W        W60090   1.298  11.157   0.911
87831W        W60091   0.980  30.417   0.905
87832W        W60092  18.276  19.716   0.474
87833W        W60093  31.623   2.888  11.425
87834W        W60094  29.448  18.192  13.319
87835W        W60095  13.234  21.719   2.891
87836W        W60096  29.638  42.019  10.615
87837W        W60097  19.191  38.501  13.397
87838W        W60098  34.086  33.109   1.852
87839W        W60099   1.768   9.332   3.182
87840W        W60100  25.497  15.254  13.871
87841W        W60101  28.039   8.376  11.419
87842W        W60102  35.462  23.083   3.285
87843W        W60103  34.091  37.393  14.008
87844W        W60104  13.296  24.702   0.924
87845W        W60105  39.451  33.396   2.678
87846W        W60106  15.772   8.183  12.969
87847W        W60107  34.879  19.774  11.104
87848W        W60108  34.007  12.806   4.229
87849W        W60109  32.115  20.210  11.876
87850W        W60110   8.195   4.765   0.854
87851W        W60111  28.046  22.998  14.882
87852W        W60112  36.590   5.319  10.929
87853W        W60113  41.446  42.300  12.955
87854W        W60114   2.882  42.871  14.997
87855W        W60115  12.776  13.729   1.919
87856W        W60116  31.644  30.571   0.415
87857W        W60117  26.652  12.808  11.569
87858W        W60118  12.836  33.029   1.783
87859W        W60119  34.919  20.096  12.929
87860W        W60120  38.411   8.729  14.904
87861W        W60121  17.568  33.118   1.710
87862W        W60122  19.105  38.066   2.335
87863W        W60123  15.769  23.091   0.789
87864W        W60124  27.115  11.651   0.828
87865W        W60125  28.121  24.490  12.925
87866W        W60126  16.135  22.143  13.828
87867W        W60127  37.410  17.118   4.815
87868W        W60128  10.852  34.936  14.942
87869W        W60129   3.724  11.754   4.724
87870W        W60130   6.820   3.786   2.731
87871W        W60131  21.620  18.652   2.694
87872W        W60132   0.375  14.715  14.380
87873W        W60133  44.984  14.154   3.196
87874W        W60134  37.951  40.837  11.000
87875W        W60135  30.045  36.082   1.377
87876W        W60136  14.706  18.671  10.913
87877W        W60137  35.988  13.814   2.753
87878W        W60138  21.629  27.089  11.084
87879W        W60139   6.293   6.319  13.025
87880W        W60140  21.204  11.199   0.374
87881W        W60141   7.775  34.391   4.327
87882W        W60142   7.341   8.243  12.921
87883W        W60143  39.886  19.638   1.719
87884W        W60144  17.279  17.748  13.976
87885W        W60145  42.393  44.841  10.576
87886W        W60146  40.547  33.917   3.686
87887W        W60147   8.399  30.022   2.662
87888W        W60148  33.930  16.116   2.680
87889W        W60149  19.192   3.916  13.480
87890W        W60150   4.379  13.144   4.140
87891W        W60151  44.470   6.290   1.847
87892W        W60152  26.037  21.220  11.082
87893W        W60153  31.954  34.483   4.272
87894W        W60154  44.964  30.581   4.624
87895W        W60155  39.830  10.658  13.375
87896W        W60156  10.282   7.210  14.986
87897W        W60157  23.685  43.854   3.751
87898W        W60158   2.356  37.367  14.326
87899W        W60159  18.240  21.523  14.279
87900W        W60160  24.710  18.190  14.878
87901W        W60161  41.019   9.177  13.012
87902W        W60162  27.172  11.170   1.288
87903W        W60163  23.212  25.701  13.958
87904W        W60164  37.391  18.216  10.639
87905W        W60165  32.578   7.757  11.578
87906W        W60166  44.284  42.407   1.325
87907W        W60167  19.581  38.328  13.898
87908W        W60168   0.441  33.944   4.723
87909W        W60169  37.465  10.364   2.245
87910W        W60170   0.357   9.703  10.974
87911W        W60171  22.633  16.737  12.552
87912W        W60172  16.091  17.778   0.333
87913W        W60173  23.108  12.319  14.934
87914W        W60174  20.142   8.816   5.232
87915W        W60175   1.869   3.795   2.674
87916W        W60176   0.334  14.766  12.415
87917W        W60177   5.824  18.204  10.475
87918W        W60178  35.575  20.149  11.057
87919W        W60179  15.297  10.383   0.827
87920W        W60180  24.093   0.424   1.830
87921W        W60181  41.815  30.629   4.809
87922W        W60182  44.938  16.639   3.649
87923W        W60183  14.813  23.638  10.924
87924W        W60184  30.416  31.977   3.304
87925W        W60185  20.626  20.211   9.944
87926W        W60186   6.217   8.274  13.919
87927W        W60187  41.406   3.306  14.919
87928W        W60188  19.695  12.802  13.979
87929W        W60189   7.331  11.170  10.570
87930W        W60190  42.449  26.480  10.110
87931W        W60191  41.537  23.622  14.011
87932W        W60192  27.632  32.999   0.439
87933W        W60193  43.874   2.386  14.958
87934W        W60194  35.911  13.196   3.242
87935W        W60195  38.832  31.605  13.481
87936W        W60196  18.117  11.287  11.594
87937W        W60197  24.095  27.484   5.276
87938W        W60198  27.050   0.479  13.516
87939W        W60199  17.726  30.463  14.486
87940W        W60200  37.360  12.226   3.794
87941W        W60201  21.527  26.990  12.906
87942W        W60202  30.984  12.698   1.379
87943W        W60203  13.329  25.500  13.318
87944W        W60204  41.806  24.130   3.828
87945W        W60205  13.608   8.373   2.779
87946W        W60206  16.129  40.975   2.767
87947W        W60207  18.651   6.201   3.671
87948W        W60208  18.141  44.888   0.469
87949W        W60209  24.199  44.386  10.080
87950W        W60210   5.371  32.909   2.740
87951W        W60211  28.443   2.453   4.326
87952W        W60212  35.588   6.372  13.319
87953W        W60213  11.241   1.963  13.385
87954W        W60214  44.448   9.338   4.290
87955W        W60215  37.051  32.621  10.444
87956W        W60216  29.132  29.619  14.278
87957W        W60217  33.994  25.497  10.984
87958W        W60218  40.861  33.562   4.260
87959W        W60219  35.103  19.757  11.974
87960W        W60220  35.409  15.592  14.797
87961W        W60221  28.465  32.994  12.843
87962W        W60222   7.892  27.126  12.082
87963W        W60223   7.828  34.513  13.026
87964W        W60224  40.408   6.716  12.968
87965W        W60225  19.170   5.316  12.929
87966W        W60226   0.766   2.304   4.271
87967W        W60227   4.446  28.138   2.895
87968W        W60228  23.508  14.278   0.330
87969W        W60229   8.291  42.493   3.730
87970W        W60230   8.309  28.976  14.351
87971W        W60231  19.730  25.638  13.909
87972W        W60232   5.270  19.573   0.464
87973W        W60233  11.747  16.682  14.397
87974W        W60234  18.737  36.012  10.460
87975W        W60235  32.002  41.011   2.879
87976W        W60236  36.385   6.889   4.134
87977W        W60237  11.184  12.781   3.345
87978W        W60238   1.863  32.544  12.344
87979W        W60239  19.543  19.076  14.388
87980W        W60240  20.759  30.574  13.918
87981W        W60241  30.549  41.959  10.612
87982W        W60242  27.653  14.129  13.469
87983W        W60243   0.431  44.904  12.356
87984W        W60244  39.333   4.241  11.105
87985W        W60245  14.790  38.909   4.619
87986W        W60246   9.645   1.278  14.017
87987W        W60247  19.163  21.576   1.867
87988W        W60248  35.936  14.301   4.218
87989W        W60249  19.578  31.074   1.310
87990W        W60250  18.284  14.751  12.014
87991W        W60251  21.205  16.134  14.888
87992W        W60252   8.720  24.162   3.766
87993W        W60253  37.462  28.456  12.011
87994W        W60254  15.188   8.385   3.154
87995W        W60255  22.997   0.759   0.341
87996W        W60256  33.056  10.709   4.836
87997W        W60257  33.016   2.772  11.492
87998W        W60258  25.503  21.533  10.902
87999W        W60259  36.935  43.326   4.798
88000W        W60260   1.926  43.995  14.865
88001W        W60261  29.591  34.053   4.770
88002W        W60262  20.535  12.224   1.880
88003W        W60263  32.112  10.209   2.882
88004W        W60264   0.823  11.730  12.560
88005W        W60265  21.233   2.410  12.537
88006W        W60266  28.679  28.473  13.932
88007W        W60267  36.035  34.051  11.998
88008W        W60268  31.522  29.449   0.816
88009W        W60269  15.314  31.906  14.761
88010W        W60270  29.159   6.313   3.839
88011W        W60271  11.184  10.852   1.802
88012W        W60272  17.668  12.715   2.849
88013W        W60273  35.934  28.952  14.945
88014W        W60274  32.921   7.891  12.931
88015W        W60275  43.463  23.083   1.788
88016W        W60276  24.228  43.959   2.723
88017W        W60277  25.672  21.115   2.790
88018W        W60278  39.035  12.650  10.992
88019W        W60279  39.041   8.858  14.350
88020W        W60280  44.321  26.129   3.730
88021W        W60281   9.781   7.724  10.420
88022W        W60282   7.359  21.690  14.390
88023W        W60283  38.052   6.389  12.968
88024W        W60284  26.470   7.679   4.632
88025W        W60285   2.778  12.753  12.422
88026W        W60286   5.356  10.793  14.872
88027W        W60287  17.201  31.040   4.800
88028W        W60288  39.321  38.923   2.823
88029W        W60289  43.457  41.512  13.796
88030W        W60290  17.301   8.695  13.934
88031W        W60291  14.226  11.839   3.169
88032W        W60292  35.452  39.560  14.437
88033W        W60293  35.075  17.141   3.193
88034W        W60294   4.361  43.857   2.385
88035W        W60295   4.832  18.663   4.220
88036W        W60296   8.861  10.236   3.200
88037W        W60297  43.931  16.145  11.040
88038W        W60298  16.762  43.933   1.703
88039W        W60299  24.533  10.832   1.798
88040W        W60300  43.796  42.459   4.620
88041W        W60301  34.422  14.749  10.472
88042W        W60302   6.889  10.778  11.442
88043W        W60303  42.329  19.179   0.907
88044W        W60304  28.962   8.850   1.289
88045W        W60305  13.777  18.277   1.879
88046W        W60306  42.505  13.157  11.399
88047W        W60307  37.406  19.701  14.328
88048W        W60308  12.823  39.923   1.345
88049W        W60309  15.298  14.145  13.033
88050W        W60310  29.660   3.217  10.113
88051W        W60311  31.025  21.633  10.427
88052W        W60312  43.795  40.325  14.768
88053W        W60313  37.874  27.090   4.160
88054W        W60314   4.414  17.226  12.426
88055W        W60315  25.509  29.999   4.115
88056W        W60316  30.620  40.476  10.623
88057W        W60317  20.602   7.858   2.894
88058W        W60318  41.455   0.970   3.155
88059W        W60319  44.389  19.646   0.754
88060W        W60320  22.615  15.164  11.961
88061W        W60321  26.981  23.493   3.286
88062W        W60322  27.531  43.496   0.776
88063W        W60323   8.308  15.166   3.344
88064W        W60324  40.016  19.174  14.323
88065W        W60325  33.411  30.507  10.967
88066W        W60326  15.751  11.855  11.462
88067W        W60327  35.430   2.890  12.533
88068W        W60328  23.644  28.041  11.606
88069W        W60329  23.236  23.139   1.447
88070W        W60330   1.434  28.535   3.334
88071W        W60331  13.718  41.949   0.861
88072W        W60332  34.531  31.992  10.468
88073W        W60333  20.129  32.008   4.155
88074W        W60334  38.944   4.302   2.829
88075W        W60335  43.334  20.579  13.393
88076W        W60336  44.973  27.989   0.329
88077W        W60337  29.151  24.529   2.702
88078W        W60338   0.259   7.828   2.403
88079W        W60339  11.837  13.280   0.404
88080W        W60340   7.405  13.248   2.670
88081W        W60341  12.767   7.745   1.739
88082W        W60342  10.365  27.573   3.726
88083W        W60343  35.490  12.762   4.725
88084W        W60344  18.216  38.391   0.742
88085W        W60345   7.800  27.548   4.761
88086W        W60346   9.874   7.765  10.891
88087W        W60347  13.331  12.839  14.455
88088W        W60348  32.527   8.688  14.789
88089W        W60349  17.773  29.647  12.834
88090W        W60350  13.288  36.591  11.468
88091W        W60351  34.912  12.689  14.933
88092W        W60352  23.670  10.256   4.684
88093W        W60353   8.824   1.306  11.543
88094W        W60354   0.304  15.086  13.914
88095W        W60355  43.838  28.109  13.375
88096W        W60356   9.312  10.383   0.395
88097W        W60357   6.918  14.613  10.921
88098W        W60358  29.127  12.612   2.332
88099W        W60359   0.825  27.643   4.696
88100W        W60360  35.473  19.680   3.276
88101W        W60361  27.545  36.475  14.894
88102W        W60362  41.538  26.055   3.817
88103W        W60363   1.461  13.725   1.305
88104W        W60364  22.677  41.038  13.392
88105W        W60365  27.501   4.340  13.924
88106W        W60366   6.344  38.487   2.783
88107W        W60367  26.506   0.318  14.496
88108W        W60368  31.630   6.420  10.926
88109W        W60369   6.701  20.728  10.643
88110W        W60370  43.809  36.045  11.404
88111W        W60371  21.583  39.408   1.728
88112W        W60372  27.655   8.876   0.887
88113W        W60373  23.645  30.915   3.782
88114W        W60374  28.130  32.404  13.344
88115W        W60375  22.014   5.805  13.468
88116W        W60376  21.063  34.040  13.890
88117W        W60377  16.661  35.037  14.320
88118W        W60378  18.728  25.549  10.479
88119W        W60379   5.368  24.693  14.423
88120W        W60380  30.429  24.088  11.100
88121W        W60381  32.936   9.348  10.635
88122W        W60382  31.086  37.531  10.119
88123W        W60383  13.285  27.120  13.379
88124W        W60384  16.172   0.265   2.705
88125W        W60385  24.663   6.325   3.794
88126W        W60386   8.278   9.171   3.791
88127W        W60387  13.618  20.065   0.960
88128W        W60388  19.732  19.582  14.830
88129W        W60389  26.161  37.376  12.464
88130W        W60390  38.356  38.876   1.418
88131W        W60391  41.823   6.341   4.354
88132W        W60392   1.798   1.843   1.365
88133W        W60393  23.106  16.121  13.312
88134W        W60394  28.501  42.432  10.623
88135W        W60395  14.786   6.764  14.928
88136W        W60396   0.395  24.117   4.180
88137W        W60397   0.790   8.847   3.287
88138W        W60398  42.458  34.430   1.268
88139W        W60399  38.022  34.903  12.462
88140W        W60400  27.017   0.460   0.839
88141W        W60401  22.182  32.547   4.602
88142W        W60402  32.992   5.886   2.263
88143W        W60403  10.342   4.770   3.731
88144W        W60404   3.392  36.956   0.748
88145W        W60405   8.405  17.171   2.805
88146W        W60406   3.451  31.510   1.250
88147W        W60407  17.062   5.380  14.507
88148W        W60408   8.247  43.869  12.056
88149W        W60409  24.523  24.683  10.557
88150W        W60410  37.063  37.037  14.978
88151W        W60411   4.215  13.345   1.287
88152W        W60412  18.649  29.147   0.962
88153W        W60413  17.289  12.288   2.379
88154W        W60414  10.266  37.486   3.799
88155W        W60415  15.600  31.140   4.334
88156W        W60416  20.220  39.825  10.966
88157W        W60417  29.542  11.285  13.868
88158W        W60418  22.154  19.187   2.826
88159W        W60419   7.357  20.148   3.203
88160W        W60420  32.410   8.666   2.877
88161W        W60421  34.994   2.890   0.798
88162W        W60422  36.349  44.853   1.344
88163W        W60423  16.812  25.996   0.924
88164W        W60424  14.597  39.409  12.461
88165W        W60425  20.690  11.367   3.382
88166W        W60426  15.724  15.614   1.794
88167W        W60427  43.422   1.463   4.305
88168W        W60428  14.256   2.274  14.507
88169W        W60429  16.796  11.359   2.225
88170W        W60430  18.704  29.582  11.929
88171W        W60431  33.615  12.651   2.777
88172W        W60432  13.308  15.771   4.325
88173W        W60433   7.697  26.995   1.412
88174W        W60434  15.767  36.347   1.362
88175W        W60435   1.772   3.391   1.817
88176W        W60436  24.049  28.095  10.419
88177W        W60437  39.389  43.427  12.513
88178W        W60438  25.049  31.492   0.274
88179W        W60439   0.980  40.429  10.568
88180W        W60440  16.805   2.907   1.350
88181W        W60441  36.429  25.600  14.276
88182W        W60442  19.060   6.693  11.945
88183W        W60443  11.349  35.107  12.945
88184W        W60444  25.977  43.964   3.799
88185W        W60445  33.618  44.445   1.440
88186W        W60446  10.356  26.196  14.433
88187W        W60447   8.668  36.464  14.935
88188W        W60448   1.957  37.419  10.989
88189W        W60449   1.911  24.164   0.915
88190W        W60450  36.486  44.837  11.096
88191W        W60451  31.035  37.005  10.549
88192W        W60452  16.644  33.946  10.456
88193W        W60453   1.248  20.746   4.173
88194W        W60454  14.591  32.501   1.376
88195W        W60455  43.781  32.525  14.286
88196W        W60456   2.386  19.076   1.808
88197W        W60457  12.283  12.219  13.963
88198W        W60458  18.751  32.135  13.970
88199W        W60459  18.177  36.532  12.453
88200W        W60460  11.229  39.552  13.018
88201W        W60461  40.487  21.518  12.483
88202W        W60462   7.364  31.086  14.006
88203W        W60463  44.291   5.284   4.781
88204W        W60464  29.049  40.981   3.319
88205W        W60465  24.195  23.601  10.049
88206W        W60466  37.010  15.588  10.009
88207W        W60467  33.495  44.902   0.471
88208W        W60468  25.982   5.353  14.505
88209W        W60469   1.432  15.649   2.835
88210W        W60470  39.446   7.224   1.831
88211W        W60471  15.723   0.248  13.503
88212W        W60472  37.074  10.829  11.583
88213W        W60473  11.735  29.160  10.472
88214W        W60474  42.406   4.882   1.321
88215W        W60475  13.811  21.167   0.388
88216W        W60476   9.395  14.819  13.851
88217W        W60477  33.419  32.484   4.136
88218W        W60478  12.715  26.172   3.785
88219W        W60479  10.833   1.342  11.900
88220W        W60480   4.830  37.505   3.828
88221W        W60481  18.751  22.110  14.368
88222W        W60482  30.599   9.699  14.004
88223W        W60483  20.131  37.854  10.905
88224W        W60484  40.934   1.268   2.675
88225W        W60485   4.387   0.953   2.248
88226W        W60486  12.707  42.821  12.053
88227W        W60487  29.091  28.623   4.215
88228W        W60488   0.898  36.919  11.077
88229W        W60489  40.356  11.259  14.351
88230W        W60490   5.202  28.478   3.816
88231W        W60491  40.523   3.329  10.541
88232W        W60492  13.708  41.304   4.174
88233W        W60493  32.977  42.446  14.980
88234W        W60494  11.792  42.466  12.429
88235W        W60495  19.215  30.638   4.750
88236W        W60496  38.060  23.072   2.276
88237W        W60497  35.070   5.770  13.888
88238W        W60498  40.043   8.222   2.296
88239W        W60499  16.127  21.060  14.439
88240W        W60500  40.976  10.846  11.925
88241W        W60501   3.216   4.255  12.988
88242W        W60502  18.557  18.142  11.375
88243W        W60503  44.841  35.021   3.207
88244W        W60504   9.847  25.173  13.062
88245W        W60505  24.024  25.056   1.908
88246W        W60506   0.848  44.909  13.830
88247W        W60507  25.060   2.940   3.850
88248W        W60508  20.658  33.434  12.846
88249W        W60509  24.067  41.892   1.852
88250W        W60510  32.456  10.206  11.547
88251W        W60511  14.596  14.662  10.585
88252W        W60512  25.150   6.880  12.094
88253W        W60513   0.351  24.119   1.827
88254W        W60514  30.653  19.725   4.132
88255W        W60515   7.872  40.377   3.279
88256W        W60516  35.413  26.988   2.208
88257W        W60517   3.911  36.380   0.465
88258W        W60518  20.709  13.188   2.701
88259W        W60519   0.767  41.341  12.388
88260W        W60520   0.453  41.863   4.137
88261W        W60521  10.653  21.247   3.348
88262W        W60522  34.908  32.628  14.298
88263W        W60523  16.711  30.084  12.459
88264W        W60524  12.268  34.097   2.228
88265W        W60525  11.283  27.487  13.852
88266W        W60526  41.996  26.599  10.621
88267W        W60527  43.453   7.739   3.759
88268W        W60528  21.700   8.780  11.506
88269W        W60529  25.173   8.804   4.201
88270W        W60530  19.237   8.370   1.341
88271W        W60531  22.036   4.830   4.292
88272W        W60532  34.527  22.225   4.684
88273W        W60533  26.511   9.262  12.984
88274W        W60534  35.095   0.480   0.354
88275W        W60535   1.361  16.240  10.418
88276W        W60536  11.185  33.578   1.322
88277W        W60537  43.004  32.493  13.332
88278W        W60538  35.926  38.821  14.379
88279W        W60539  26.171  36.476   4.723
88280W        W60540   3.331  15.787  13.515
88281W        W60541  36.587  44.783  12.885
88282W        W60542  17.579  33.610  12.951
88283W        W60543  20.725  15.325   4.323
88284W        W60544   1.881   4.881  11.496
88285W        W60545  17.666   1.338   2.848
88286W        W60546  28.147  33.894  11.100
88287W        W60547   9.745  43.981  12.036
88288W        W60548  29.124   6.763  13.540
88289W        W60549   0.892   2.735  13.808
88290W        W60550  40.396  23.187  11.483
88291W        W60551  27.137  26.061   0.864
88292W        W60552  31.063  24.177  11.871
88293W        W60553   0.457  33.409   0.736
88294W        W60554   0.847   8.341   0.895
88295W        W60555  24.010  22.745   1.344
88296W        W60556   0.392  18.174  12.360
88297W        W60557  18.624  22.013   4.810
88298W        W60558   7.765   5.845   4.628
88299W        W60559  44.465  25.005   2.671
88300W        W60560  24.587  21.674  10.562
88301W        W60561  44.911  17.729   0.439
88302W        W60562  31.150  44.957  13.345
88303W        W60563   5.912   9.662  12.907
88304W        W60564  35.021  39.884  10.584
88305W        W60565   1.402   6.370  14.437
88306W        W60566  36.407  44.868  12.367
88307W        W60567  44.388   5.874  12.443
88308W        W60568   1.841   7.209  14.830
88309W        W60569   7.204  40.494   0.440
88310W        W60570  18.214   3.228  10.890
88311W        W60571  41.829  35.853   2.215
88312W        W60572  39.555  17.221   2.820
88313W        W60573  23.655  38.530  14.971
88314W        W60574  38.849  28.135  12.993
88315W        W60575  13.197  33.964  14.838
88316W        W60576   9.305  34.964   0.920
88317W        W60577   2.752  18.269   0.331
88318W        W60578  25.476  34.475  14.800
88319W        W60579  44.927  22.536   4.314
88320W        W60580  15.327   3.858  11.877
88321W        W60581  21.646  33.418   2.300
88322W        W60582   5.718  36.549  12.960
88323W        W60583   7.753  14.321   2.213
88324W        W60584   3.444   0.442   4.154
88325W        W60585  13.791  25.189   0.957
88326W        W60586  24.046  29.167   2.207
88327W        W60587  41.019  10.319  12.930
88328W        W60588  12.219  31.429   0.794
88329W        W60589  42.442  44.849  12.910
88330W        W60590   5.778  39.446   1.913
88331W        W60591  35.513   0.770  14.400
88332W        W60592  15.317  40.544   0.348
88333W        W60593  31.464  35.442   4.292
88334W        W60594  17.249  19.175  12.348
88335W        W60595  26.506  31.131  12.372
88336W        W60596  29.945  33.877   0.816
88337W        W60597   8.295   1.388  10.459
88338W        W60598  19.276  28.515  11.988
88339W        W60599  43.387  32.443  11.539
88340W        W60600  26.163  22.716   3.384
88341W        W60601  44.381  23.187   1.893
88342W        W60602  16.226   9.881   1.752
88343W        W60603  42.003  28.939  10.559
88344W        W60604   1.924  26.558  11.890
88345W        W60605   7.185  39.995   1.410
88346W        W60606  11.222  28.989  11.396
88347W        W60607  13.603  29.991   5.580
88348W        W60608  12.230  37.842   0.858
88349W        W60609  14.184  14.700   0.435
88350W        W60610  35.577   0.887  13.936
88351W        W60611  35.571  34.913   0.827
88352W        W60612  39.379  31.984  10.521
88353W        W60613  36.555  26.473   2.348
88354W        W60614   2.320  13.645  10.448
88355W        W60615  29.485  26.049   1.217
88356W        W60616  10.754  42.028  11.065
88357W        W60617   9.283  17.194  13.417
88358W        W60618  16.640  32.986  13.857
88359W        W60619  22.030  33.455  11.600
88360W        W60620  44.365  43.379   3.292
88361W        W60621  29.463  43.376  11.877
88362W        W60622  24.693  33.405   2.768
88363W        W60623  26.615  13.171  13.049
88364W        W60624  15.233  14.773   5.161
88365W        W60625  27.996  22.684   5.308
88366W        W60626  35.947  42.018   3.380
88367W        W60627  21.223  36.549  10.487
88368W        W60628  17.307  14.099  12.855
88369W        W60629  35.974  11.703   1.223
88370W        W60630  38.928  40.347  14.478
88371W        W60631  18.666  44.007  12.996
88372W        W60632  21.138  17.250   1.887
88373W        W60633  22.197   7.837   1.697
88374W        W60634  37.007  21.176  14.373
88375W        W60635  10.715  22.009   1.413
88376W        W60636  20.122  38.060   4.174
88377W        W60637  21.145  25.054   3.342
88378W        W60638  43.300   1.375  14.299
88379W        W60639  25.479  38.566  14.972
88380W        W60640  14.256  18.100   4.221
88381W        W60641  11.276  14.808   1.274
88382W        W60642  30.569  23.559   3.692
88383W        W60643  10.325  26.696   2.801
88384W        W60644   7.253  28.454   2.666
88385W        W60645  23.625   0.926   2.391
88386W        W60646   4.840  24.986  14.365
88387W        W60647   6.285  42.979  14.287
88388W        W60648   4.732   8.808  13.500
88389W        W60649  19.558  39.440   0.300
88390W        W60650   6.769   4.700   2.845
88391W        W60651   2.832   3.300   1.770
88392W        W60652  20.071  16.157  14.990
88393W        W60653  42.811  40.043   3.810
88394W        W60654  43.388   0.466   3.770
88395W        W60655   6.785  10.182   4.748
88396W        W60656  43.011   5.380  11.113
88397W        W60657  26.103   6.875   0.476
88398W        W60658   1.961  30.982  13.987
88399W        W60659  34.968  19.720  14.432
88400W        W60660  25.023   2.844   1.792
88401W        W60661  34.014  31.952  13.418
88402W        W60662  15.649  23.501   2.245
88403W        W60663  26.696   8.367   3.864
88404W        W60664  11.670   3.408  10.499
88405W        W60665  27.543  20.178  10.496
88406W        W60666  27.576  31.111   3.325
88407W        W60667  43.901  23.007   2.234
88408W        W60668  11.745   2.359   3.338
88409W        W60669   5.267   3.319   0.934
88410W        W60670  12.157  21.207   4.248
88411W        W60671   3.894  40.432  13.470
88412W        W60672  15.261  28.930  11.475
88413W        W60673  12.695  31.487   2.211
88414W        W60674  16.266   2.793  13.311
88415W        W60675  16.597  30.613  12.385
88416W        W60676  37.996  25.141   0.836
88417W        W60677  13.142  29.014  11.435
88418W        W60678  30.418  39.959  12.967
88419W        W60679  30.110  29.611   2.902
88420W        W60680   5.361  30.089  12.038
88421W        W60681  34.514   4.432   0.940
88422W        W60682  10.252   6.724  10.444
88423W        W60683  38.008  33.006   1.357
88424W        W60684  26.502  18.172   3.771
88425W        W60685  40.326   7.354   5.301
88426W        W60686  24.080  32.414   0.871
88427W        W60687  20.208  17.642   2.277
88428W        W60688  36.385  43.804   3.210
88429W        W60689  36.939  23.053  11.557
88430W        W60690   9.735  31.008   3.785
88431W        W60691  30.081  18.152   3.723
88432W        W60692  42.501   7.247  14.339
88433W        W60693   3.295  27.647   3.865
88434W        W60694  26.691   0.844   1.314
88435W        W60695  32.547  42.903   2.707
88436W        W60696  33.958  19.689   2.223
88437W        W60697   5.223  18.190  14.771
88438W        W60698  12.825  40.042   3.274
88439W        W60699  41.873   9.825   4.202
88440W        W60700  20.741  30.919   0.881
88441W        W60701   2.381  16.231  14.032
88442W        W60702   3.444  17.640  14.929
88443W        W60703  35.357  13.642  12.880
88444W        W60704  33.126  10.761   0.851
88445W        W60705  31.928  29.067  10.937
88446W        W60706  20.674  24.204  13.897
88447W        W60707   4.731  12.135  11.433
88448W        W60708  15.140  34.546   2.865
88449W        W60709  37.341   9.264   0.455
88450W        W60710  36.351  18.695  13.844
88451W        W60711  25.707  32.438  14.374
88452W        W60712  11.784  35.424   2.249
88453W        W60713  33.437  28.635  13.910
88454W        W60714  19.686  31.914   2.407
88455W        W60715  27.039   3.447  10.429
88456W        W60716  28.000  27.069   1.277
88457W        W60717  15.769  32.416  14.025
88458W        W60718  40.987  21.109   1.317
88459W        W60719  10.163  42.479   4.649
88460W        W60720  43.917  43.003   4.617
88461W        W60721  18.716   2.370  11.875
88462W        W60722  26.485  41.022  13.338
88463W        W60723  27.662  23.114   1.214
88464W        W60724   4.750  19.715   3.667
88465W        W60725  11.726  23.091  10.525
88466W        W60726  39.330  14.127  10.639
88467W        W60727   2.736  20.705   4.334
88468W        W60728  11.163   3.448   1.718
88469W        W60729  17.300   6.796  11.104
88470W        W60730   1.352   7.818  13.056
88471W        W60731  31.435  39.481  12.872
88472W        W60732  41.466  17.710  11.981
88473W        W60733  16.089  43.328  14.969
88474W        W60734  19.184  13.686   2.821
88475W        W60735  16.162   8.355   3.227
88476W        W60736  25.677  43.787  13.515
88477W        W60737  28.447  44.990   3.365
88478W        W60738  28.983  11.759  12.431
88479W        W60739  22.161  34.064   0.304
88480W        W60740  13.718  36.863  11.071
88481W        W60741  28.017  22.728  11.035
88482W        W60742  34.521  33.987  10.953
88483W        W60743  27.600  35.862  13.854
88484W        W60744  29.950  11.195  11.580
88485W        W60745  31.474  24.691   4.309
88486W        W60746  33.971  21.080  14.506
88487W        W60747  30.546   8.406  11.418
88488W        W60748  40.403  41.840  14.298
88489W        W60749  16.607  41.919   3.326
88490W        W60750  39.518  16.154  14.872
88491W        W60751  27.651  10.251  12.967
88492W        W60752  25.098  40.524   0.956
88493W        W60753   5.257  25.528   1.892
88494W        W60754  41.018  31.034  10.514
88495W        W60755   1.300  28.982  11.079
88496W        W60756  40.398  37.963   4.120
88497W        W60757  28.987  26.112   0.929
88498W        W60758  17.152  22.734   4.721
88499W        W60759  37.944   7.232  13.400
88500W        W60760   8.173  23.040  11.543
88501W        W60761  10.334  20.170   3.780
88502W        W60762   7.380  27.083  12.528
88503W        W60763  39.538   6.323   4.827
88504W        W60764  40.487  32.133   2.806
88505W        W60765   9.267   8.660  10.050
88506W        W60766  18.671   0.289   1.275
88507W        W60767  34.612   6.900   0.294
88508W        W60768   9.799  18.246  11.034
88509W        W60769  28.635   9.225  13.378
88510W        W60770  25.559  39.447  10.074
88511W        W60771  15.117   3.444   3.771
88512W        W60772  20.644  14.189  11.395
88513W        W60773   9.796  22.157   0.304
88514W        W60774   0.765  17.215   1.777
88515W        W60775  16.109   3.750   3.362
88516W        W60776  31.420  42.882  14.360
88517W        W60777  11.299   7.784  10.456
88518W        W60778  15.175  29.606   2.897
88519W        W60779  29.461   5.279   2.879
88520W        W60780  30.429  34.492   3.678
88521W        W60781  26.109  39.345   0.300
88522W        W60782  18.611  15.748  13.334
88523W        W60783  21.146  32.914  11.402
88524W        W60784  26.465  18.752   0.244
88525W        W60785  29.623  43.271   0.385
88526W        W60786   2.281  36.081   3.168
88527W        W60787   3.289  25.476  13.054
88528W        W60788  17.660  10.225   0.364
88529W        W60789  20.617  38.852   1.427
88530W        W60790  22.667  25.532   0.456
88531W        W60791  39.358  41.477  13.525
88532W        W60792   1.855  27.096   0.409
88533W        W60793  27.543   1.948  14.471
88534W        W60794  25.134   9.284   3.153
88535W        W60795  15.215   7.398  12.833
88536W        W60796  13.220   2.238  11.483
88537W        W60797  17.180  41.296   4.681
88538W        W60798  43.021  25.045   0.839
88539W        W60799  43.508  35.527  14.334
88540W        W60800  20.194  16.574  13.968
88541W        W60801  19.235  35.542  11.393
88542W        W60802  19.118  11.697  11.457
88543W        W60803  19.052  20.121   0.391
88544W        W60804  33.100  39.855  14.356
88545W        W60805   0.282  30.067  12.863
88546W        W60806   7.400   1.435  12.431
88547W        W60807   3.216   6.389   1.862
88548W        W60808  38.561  12.708   2.780
88549W        W60809  23.541   7.359   3.195
88550W        W60810   0.434   0.248  14.410
88551W        W60811  38.824  31.599  11.417
88552W        W60812  13.135   3.379  10.579
88553W        W60813  41.011  35.403  11.412
88554W        W60814  19.676   9.657  14.415
88555W        W60815  14.594  21.746  14.899
88556W        W60816  26.107  32.472   1.333
88557W        W60817  16.631  18.128   2.772
88558W        W60818  34.095   6.682  13.522
88559W        W60819  30.111  32.521  13.548
88560W        W60820   8.359  34.064  13.342
88561W        W60821  20.053  11.718   2.325
88562W        W60822  15.815   6.910  13.022
88563W        W60823  33.485  20.097  10.012
88564W        W60824  37.482   6.321   4.325
88565W        W60825  41.304  17.233   0.730
88566W        W60826  22.111  31.466   0.409
88567W        W60827  31.951  40.843  14.784
88568W        W60828  18.599  23.997   1.934
88569W        W60829  26.188  40.396  12.442
88570W        W60830  18.197  31.011  11.412
88571W        W60831   8.370  13.617  12.992
88572W        W60832  41.014  16.578  11.987
88573W        W60833  21.699  44.761  11.898
88574W        W60834  10.718   1.968  14.316
88575W        W60835   9.884  27.977  14.381
88576W        W60836  36.588  42.336  12.833
88577W        W60837  16.314  14.175   3.676
88578W        W60838   2.910  11.179   4.115
88579W        W60839   5.926   4.208  11.942
88580W        W60840  39.936  29.430   3.818
88581W        W60841  13.641  41.877  12.859
88582W        W60842  31.582  27.050  10.521
88583W        W60843  37.578  11.155  10.534
88584W        W60844   1.337  29.504  14.307
88585W        W60845  12.331  23.038   0.266
88586W        W60846  37.425   1.434  12.052
88587W        W60847  36.585  36.005  10.072
88588W        W60848  23.734  44.933  13.841
88589W        W60849  15.163  20.651   4.182
88590W        W60850  33.875  10.379   0.343
88591W        W60851  43.914  12.699   2.859
88592W        W60852  40.365  16.648  13.861
88593W        W60853  40.941  43.322   3.632
88594W        W60854  27.522  27.149  10.625
88595W        W60855  41.837   1.949   3.815
88596W        W60856  44.448  44.266   1.742
88597W        W60857  13.327   9.741  10.515
88598W        W60858  12.293  32.637   2.772
88599W        W60859  28.075  28.681   0.930
88600W        W60860  36.438  29.931  13.994
88601W        W60861   9.174   4.839  12.421
88602W        W60862  13.121   9.831   3.681
88603W        W60863   2.909  19.152  11.068
88604W        W60864  27.466  16.189   3.245
88605W        W60865   2.932   5.224  10.575
88606W        W60866   5.847   0.768  13.986
88607W        W60867   4.812   9.332   0.957
88608W        W60868  14.340  25.003   2.682
88609W        W60869  33.492  32.992  14.299
88610W        W60870   1.880  13.841   2.199
88611W        W60871  31.984   6.764  12.895
88612W        W60872  21.229  15.157   0.439
88613W        W60873   4.415  30.158  14.811
88614W        W60874  33.479  11.631  14.869
88615W        W60875  20.583   3.860   4.684
88616W        W60876  30.429  21.138   3.667
88617W        W60877  38.980   5.361   3.833
88618W        W60878  30.085  44.275   0.291
88619W        W60879  15.643  40.486   0.854
88620W        W60880  15.758  16.713   4.265
88621W        W60881   4.302  29.058   0.938
88622W        W60882  43.466  41.961  12.364
88623W        W60883  43.275  42.442  12.477
88624W        W60884  11.861  34.430   3.706
88625W        W60885   3.766   5.425  14.989
88626W        W60886  37.007  26.091  11.105
88627W        W60887  27.648  26.499  10.507
88628W        W60888  19.130  17.216   0.318
88629W        W60889  27.537  32.044   3.665
88630W        W60890  44.275   3.214   5.187
88631W        W60891  40.912   8.679  11.429
88632W        W60892  22.539  38.486  13.856
88633W        W60893  31.572  29.453   1.830
88634W        W60894  27.570  41.351  12.478
88635W        W60895  27.494  41.889   2.347
88636W        W60896  23.671  11.317   1.398
88637W        W60897  40.963  32.941   1.270
88638W        W60898  23.497  29.463   2.775
88639W        W60899  17.160  40.331   2.890
88640W        W60900  36.097  19.549   2.380
88641W        W60901  40.937  30.102   4.327
88642W        W60902  43.875   8.753   2.870
88643W        W60903   6.809  30.082   3.162
88644W        W60904  36.014  34.380  11.387
88645W        W60905  26.102  41.335   2.860
88646W        W60906   3.829  32.556  14.442
88647W        W60907  13.298  14.318  12.076
88648W        W60908  44.450  15.755  13.397
88649W        W60909  42.401  37.509  10.959
88650W        W60910   5.421  35.973  12.058
88651W        W60911  10.167  27.947  11.127
88652W        W60912   3.415  31.434   2.292
88653W        W60913  32.566  24.994   0.910
88654W        W60914  22.703  11.321  12.095
88655W        W60915  37.568  37.068   0.249
88656W        W60916  15.178  43.354  11.915
88657W        W60917  30.975  10.320  14.311
88658W        W60918   6.920  12.318  11.550
88659W        W60919  32.028  23.563   2.788
88660W        W60920   2.864   7.730  12.050
88661W        W60921  22.564  42.985   2.372
88662W        W60922  18.764   8.260   3.311
88663W        W60923  22.150  43.304   0.408
88664W        W60924  29.977   5.389   4.816
88665W        W60925  36.039  25.102   4.226
88666W        W60926   8.331  12.316   2.197
88667W        W60927  31.120  20.721   3.286
88668W        W60928  41.792  23.151  14.822
88669W        W60929  27.130   6.833   3.242
88670W        W60930  22.079   0.742  12.955
88671W        W60931   5.771  31.101  10.581
88672W        W60932  18.785  22.076   0.920
88673W        W60933   4.824  11.271  14.433
88674W        W60934  12.167  32.476  13.025
88675W        W60935   4.374  20.232   0.325
88676W        W60936   7.862   2.336   3.774
88677W        W60937  15.665  43.407  14.977
88678W        W60938  43.950  18.686  10.925
88679W        W60939  39.994  42.953  13.347
88680W        W60940  37.045  23.230   3.324
88681W        W60941  34.119  44.299  13.518
88682W        W60942  37.869   7.190  11.999
88683W        W60943   9.333  23.521  14.369
88684W        W60944  29.501  32.534  12.088
88685W        W60945  33.439  26.571   2.323
88686W        W60946  37.500  21.037  11.885
88687W        W60947  20.076  44.978   3.754
88688W        W60948  21.142  27.633   2.364
88689W        W60949  28.098  42.427   2.747
88690W        W60950  22.690  35.926  14.423
88691W        W60951  13.143  35.032  14.417
88692W        W60952  26.579  16.660  11.113
88693W        W60953  35.928  44.444   3.782
88694W        W60954  31.959  11.652  10.933
88695W        W60955  38.555  26.510   1.350
88696W        W60956   1.804  36.566  12.905
88697W        W60957  25.098  44.338   5.250
88698W        W60958  14.832  19.201  11.865
88699W        W60959  32.948  29.039   0.245
88700W        W60960  22.064  10.251   1.755
88701W        W60961  43.396  40.895   4.815
88702W        W60962  31.944  42.010  11.585
88703W        W60963  20.127  22.095   3.185
88704W        W60964  13.318  43.017   4.713
88705W        W60965  41.885  24.697   0.301
88706W        W60966   8.368  15.679  13.934
88707W        W60967  39.062  35.972  12.549
88708W        W60968  28.519  15.731   0.844
88709W        W60969  26.060   5.239  12.036
88710W        W60970  44.853  41.037  13.964
88711W        W60971   3.849   7.284  14.410
88712W        W60972  40.477   8.668   2.401
88713W        W60973   4.252  33.496   1.420
88714W        W60974  20.722  24.620  13.041
88715W        W60975  36.038  18.116   4.248
88716W        W60976  36.006  21.549   3.702
88717W        W60977  38.429  36.425   1.218
88718W        W60978  34.073  13.812   2.718
88719W        W60979   3.937  40.316   0.322
88720W        W60980  36.979  32.903  12.913
88721W        W60981   9.207  30.419   0.945
88722W        W60982  23.715   8.289   0.871
88723W        W60983  35.046  25.059  12.526
88724W        W60984  11.627   8.278  12.464
88725W        W60985   0.918  20.585   4.716
88726W        W60986  32.597  38.368   3.782
88727W        W60987  14.111  15.690  12.072
88728W        W60988  41.039   1.863   4.670
88729W        W60989  40.445  34.514  13.794
88730W        W60990  24.117  21.262   1.374
88731W        W60991  29.464   8.807   2.205
88732W        W60992  20.635  44.939   2.773
88733W        W60993   8.207   9.155   3.361
88734W        W60994  30.969  36.056  14.772
88735W        W60995  25.214  24.993   1.872
88736W        W60996  30.158  42.788  12.009
88737W        W60997  22.211  44.962  13.895
88738W        W60998  29.596  28.062  12.945
88739W        W60999  44.366  38.856  12.071
88740W        W61000  21.728  33.124  10.597
88741W        W61001  31.955  15.682   3.864
88742W        W61002   9.776  37.839   3.195
88743W        W61003  26.580  24.996   4.239
88744W        W61004  18.687   8.758  12.875
88745W        W61005  28.504  27.658  11.938
88746W        W61006  18.244  43.420  11.984
88747W        W61007  22.092  18.572   1.385
88748W        W61008  31.942  18.789   0.914
88749W        W61009  34.916   8.179   4.275
88750W        W61010  19.173  42.911  14.383
88751W        W61011  19.592  27.081  12.385
88752W        W61012  22.056  14.319  13.797
88753W        W61013  13.162   8.263  10.473
88754W        W61014   3.798  14.709  14.474
88755W        W61015  42.373  43.304   1.263
88756W        W61016  21.193  37.912   4.166
88757W        W61017  20.135  20.617   3.244
88758W        W61018  42.807  31.468   2.300
88759W        W61019  29.169  38.914  10.018
88760W        W61020   7.180   4.307   1.732
88761W        W61021  27.992  12.338   5.269
88762W        W61022  42.463  21.018   2.818
88763W        W61023  32.906  27.986  12.363
88764W        W61024  21.088   5.781   3.161
88765W        W61025  35.010  35.510   4.122
88766W        W61026  21.705  10.745  12.924
88767W        W61027  39.445  20.201  14.933
88768W        W61028   4.867  42.862  10.981
88769W        W61029  15.159   3.808   0.753
88770W        W61030  22.167  30.991  12.834
88771W        W61031  10.240  26.994  11.898
88772W        W61032   0.435  23.590   2.797
88773W        W61033  16.102  10.817   3.641
88774W        W61034  38.523  33.552  10.475
88775W        W61035  35.981  16.642  11.555
88776W        W61036   6.738  39.444   3.804
88777W        W61037  27.676   2.234  11.959
88778W        W61038  23.608  15.756  14.935
88779W        W61039  18.756   1.268  11.996
88780W        W61040  33.535   3.726   1.448
88781W        W61041   2.828  40.813   3.330
88782W        W61042  17.608  23.227  13.037
88783W        W61043  27.179  12.836   4.338
88784W        W61044  25.569  13.146   0.370
88785W        W61045  41.360  12.284  11.392
88786W        W61046  36.887  38.380   1.339
88787W        W61047  33.420  14.097   3.772
88788W        W61048  11.253  42.458  14.966
88789W        W61049   3.436  44.348  11.535
88790W        W61050  34.546   5.322   3.686
88791W        W61051  31.428   3.361   1.901
88792W        W61052  16.191   1.275  13.917
88793W        W61053  13.693  10.826  10.962
88794W        W61054   7.808  12.277  14.338
88795W        W61055  34.927  10.139   1.726
88796W        W61056  21.229  25.076   1.785
88797W        W61057   5.841   7.815   4.215
88798W        W61058  25.127  27.650  10.499
88799W        W61059  36.053  38.358  11.941
88800W        W61060   4.307  32.118   3.255
88801W        W61061  12.614  14.820  10.915
88802W        W61062  22.085  37.060   1.318
88803W        W61063  13.216  41.464  10.534
88804W        W61064  42.780  17.182   1.210
88805W        W61065  38.516  20.531  13.053
88806W        W61066  12.308  33.996   4.621
88807W        W61067   4.717  18.739  14.453
88808W        W61068  11.212  14.605  12.454
88809W        W61069  36.385  22.696  14.868
88810W        W61070  33.003   1.395  13.487
88811W        W61071  21.590  29.019   1.857
88812W        W61072  25.127  33.626  13.891
88813W        W61073   0.455  19.689   1.293
88814W        W61074   9.293   5.792  14.910
88815W        W61075  10.321  33.461   5.141
88816W        W61076  14.791  28.542   2.292
88817W        W61077  37.988  13.709  11.371
88818W        W61078  42.834   6.276  12.510
88819W        W61079  17.194  13.805  13.055
88820W        W61080   6.226  16.591  14.848
88821W        W61081   2.315  15.686  11.856
88822W        W61082  41.501   9.726  14.767
88823W        W61083  14.697   8.205   2.259
88824W        W61084  16.154  37.368  13.973
88825W        W61085  43.881  30.936   1.370
88826W        W61086  18.625  42.830   1.370
88827W        W61087  14.262  18.709   4.236
88828W        W61088   2.779  30.413  12.945
88829W        W61089   8.344  10.304  12.541
88830W        W61090  20.627   6.347  10.506
88831W        W61091  20.685   4.413   1.301
88832W        W61092   2.298  40.534   4.306
88833W        W61093   2.736  26.005   2.370
88834W        W61094  13.646  14.142  13.984
88835W        W61095   5.916  23.629  11.983
88836W        W61096  21.044   7.856   2.395
88837W        W61097  27.536  31.014  11.092
88838W        W61098   5.734   2.733  10.993
88839W        W61099  43.905  14.281  14.506
88840W        W61100   5.791  29.024   9.529
88841W        W61101  31.988   1.748  14.006
88842W        W61102  38.047  34.521   2.362
88843W        W61103   9.381   4.344   2.807
88844W        W61104  20.135  35.960  12.364
88845W        W61105  25.987  24.625   3.681
88846W        W61106  37.498  19.690  10.489
88847W        W61107  32.030  38.399  11.872
88848W        W61108  33.595  26.062  14.286
88849W        W61109  11.203  13.729   3.838
88850W        W61110  37.045   7.845  10.984
88851W        W61111   2.814  11.864   0.380
88852W        W61112  21.241  30.124  10.566
88853W        W61113  25.535  43.326   2.766
88854W        W61114  33.011  22.553   0.776
88855W        W61115  36.579   8.174  13.848
88856W        W61116  15.641  44.396   2.382
88857W        W61117  18.260  43.018  14.291
88858W        W61118  21.030  37.440  10.475
88859W        W61119  37.083  37.977  14.781
88860W        W61120  12.306  11.297  13.956
88861W        W61121   4.729  11.635   3.747
88862W        W61122  39.844   9.693   3.218
88863W        W61123  19.229   4.418   3.168
88864W        W61124  41.419  43.882   2.264
88865W        W61125   2.800  40.041  10.902
88866W        W61126  38.056  30.503  12.878
88867W        W61127  16.129  12.135  13.852
88868W        W61128   5.402  36.993   2.274
88869W        W61129   7.281   4.266   4.297
88870W        W61130   1.467  32.539  14.339
88871W        W61131  32.892  25.046  13.001
88872W        W61132  10.821  31.898   4.227
88873W        W61133  21.588  39.543  13.031
88874W        W61134  30.137   1.788   4.836
88875W        W61135  19.749  34.440   2.304
88876W        W61136  16.670  23.503   2.183
88877W        W61137  33.449  32.051   0.772
88878W        W61138  38.022  27.120   0.419
88879W        W61139  43.423  35.010  10.029
88880W        W61140  34.554   2.962   4.197
88881W        W61141  42.477  23.990  12.922
88882W        W61142  26.974  40.508   4.275
88883W        W61143   0.757  37.057   2.392
88884W        W61144   2.815  11.631  14.472
88885W        W61145  34.385  25.564   0.882
88886W        W61146  10.311  16.212  11.473
88887W        W61147  27.156  38.402  12.438
88888W        W61148  42.398  34.513  13.509
88889W        W61149   1.422  40.331   2.350
88890W        W61150  12.360  19.589  13.307
88891W        W61151   6.381  39.875  13.313
88892W        W61152  30.924  42.414   0.754
88893W        W61153  43.967  18.683   3.765
88894W        W61154  19.204  29.094  11.441
88895W        W61155  39.447  11.150   4.184
88896W        W61156  27.572  17.765   0.784
88897W        W61157  17.134  16.600   1.739
88898W        W61158  30.558  25.127  14.005
88899W        W61159  27.471  31.029   3.720
88900W        W61160  16.801  33.520  12.991
88901W        W61161  39.912  41.008  14.354
88902W        W61162  25.994   5.260   1.378
88903W        W61163  12.314  19.660  11.902
88904W        W61164  29.650   8.229   3.254
88905W        W61165  40.878  15.161  10.533
88906W        W61166  21.084  11.690  14.316
88907W        W61167  10.789  44.915  13.392
88908W        W61168  37.870  14.153   3.189
88909W        W61169   0.284   7.832   0.370
88910W        W61170  39.402  39.004  13.031
88911W        W61171  44.805   5.765  13.961
88912W        W61172  16.283  34.451   0.340
88913W        W61173  37.490  15.613  10.953
88914W        W61174  21.233  39.900  10.640
88915W        W61175   4.309  11.262  10.918
88916W        W61176  13.143   0.310   2.774
88917W        W61177  31.994  14.167  12.839
88918W        W61178   5.435  16.775  13.525
88919W        W61179  20.173  34.513   2.202
88920W        W61180   1.824  14.592  11.410
88921W        W61181  32.458  27.585   1.818
88922W        W61182  34.093  40.893   2.216
88923W        W61183  14.114   5.273   0.304
88924W        W61184  26.521  41.913   4.323
88925W        W61185   6.794  35.865   3.207
88926W        W61186   0.420  43.289  13.883
88927W        W61187  33.925   2.245  13.312
88928W        W61188  36.571  43.966   3.740
88929W        W61189  27.004  11.643   3.219
88930W        W61190  35.074   4.217   2.333
88931W        W61191  37.456   1.246  14.966
88932W        W61192  20.724  39.839  14.855
88933W        W61193  35.472  40.915   0.895
88934W        W61194  23.724  23.061   1.420
88935W        W61195  35.914  43.379   3.182
88936W        W61196  33.051  39.905   4.209
88937W        W61197  23.001  44.396   4.744
88938W        W61198   9.179  21.709   3.163
88939W        W61199  20.059  42.308  14.432
88940W        W61200  31.031  18.697   1.861
88941W        W61201  40.535  21.727   2.671
88942W        W61202  15.806  32.559   4.738
88943W        W61203  40.983  14.292   3.301
88944W        W61204  39.965  10.330  10.990
88945W        W61205   8.256  36.513  12.093
88946W        W61206   8.774  35.902   0.744
88947W        W61207  31.410   0.988   2.744
88948W        W61208  39.427  26.500   0.911
88949W        W61209   7.401  31.612  14.828
88950W        W61210  10.214  21.082   5.248
88951W        W61211  27.641   5.794   3.737
88952W        W61212  44.322  33.477   2.370
88953W        W61213  37.562   0.393  11.611
88954W        W61214  35.436   3.935  12.968
88955W        W61215  38.978  31.942   9.989
88956W        W61216  26.695  27.662   0.274
88957W        W61217  22.997  19.106   2.250
88958W        W61218  19.059   7.246   3.745
88959W        W61219  20.564  33.038  12.358
88960W        W61220  20.037   2.384   2.391
88961W        W61221  43.980   8.383  10.603
88962W        W61222  31.479  37.897  10.429
88963W        W61223  22.122  29.109   9.468
88964W        W61224  41.876  25.689   3.755
88965W        W61225   3.223  43.841  10.441
88966W        W61226   0.398   5.798  13.925
88967W        W61227  11.836  18.291   0.744
88968W        W61228  28.553  41.881   4.299
88969W        W61229  26.544  22.678   1.324
88970W        W61230  27.645  18.213   2.194
88971W        W61231  10.818  12.850   0.743
88972W        W61232   0.295   1.433  12.551
88973W        W61233  10.259  33.013   1.423
88974W        W61234  33.092  38.408  14.917
88975W        W61235   7.207  25.590  14.836
88976W        W61236  19.097  26.007  10.491
88977W        W61237  16.259  42.383   4.137
88978W        W61238  20.559  42.819  12.388
88979W        W61239  23.105  24.044   0.891
88980W        W61240   8.249  31.467   3.818
88981W        W61241  34.390  42.969  12.552
88982W        W61242  34.523  25.973   3.278
88983W        W61243  27.570  23.114  12.353
88984W        W61244  32.535  38.830  13.354
88985W        W61245  39.946  38.048   3.313
88986W        W61246  24.503  21.608  12.833
88987W        W61247  41.797  24.049   4.696
88988W        W61248  17.782  11.757   1.768
88989W        W61249  25.194  23.681   3.265
88990W        W61250  29.044  25.557  11.000
88991W        W61251  20.111   7.760  14.888
88992W        W61252  16.683   8.899  11.523
88993W        W61253  44.942  11.335   1.753
88994W        W61254  12.242   7.401  12.487
88995W        W61255  33.904  19.649  12.368
88996W        W61256  12.782   7.221   2.675
88997W        W61257   3.863  39.432   3.748
88998W        W61258  18.110  15.158   1.333
88999W        W61259  12.204  32.070  14.795
89000W        W61260  17.230  23.672  10.911
89001W        W61261  29.141  11.368  10.960
89002W        W61262  29.656  32.898   1.288
89003W        W61263   7.383  26.553   0.268
89004W        W61264  37.550  42.861  11.023
89005W        W61265   0.861  20.242  14.322
89006W        W61266  37.941   6.707   4.313
89007W        W61267   9.357  31.572  11.437
89008W        W61268  36.877  25.132  11.937
89009W        W61269  33.886  43.015  13.338
89010W        W61270  21.588  26.041   4.684
89011W        W61271  17.136  29.561  11.905
89012W        W61272   9.687  18.122   4.221
89013W        W61273  33.473  12.849  14.974
89014W        W61274  21.074  13.713   4.126
89015W        W61275  22.062  25.165   2.212
89016W        W61276   9.326  17.578   2.419
89017W        W61277  20.105  17.599  12.044
89018W        W61278  20.168  40.871  14.758
89019W        W61279   1.930  14.123   1.751
89020W        W61280  27.458  22.678   1.328
89021W        W61281  44.284  42.484  12.427
89022W        W61282  37.954  25.187  11.415
89023W        W61283  41.025  31.420  10.442
89024W        W61284  17.615  27.953   3.353
89025W        W61285   1.481  41.865  11.086
89026W        W61286  38.351   1.237   3.166
89027W        W61287  16.670  19.695   2.414
89028W        W61288  10.817  41.969  11.856
89029W        W61289  10.762  30.923   4.252
89030W        W61290  28.568  19.086  12.031
89031W        W61291   1.428   6.312  11.021
89032W        W61292  25.486  35.393   0.817
89033W        W61293   4.258  35.052  11.944
89034W        W61294   3.452   3.817   4.217
89035W        W61295  31.520  41.990   1.342
89036W        W61296  18.205  24.161   0.837
89037W        W61297  33.984  13.161   0.790
89038W        W61298  10.669  25.662  13.863
89039W        W61299  38.561   1.480  10.545
89040W        W61300  23.630  35.927  10.492
89041W        W61301  44.865  38.435   3.659
89042W        W61302  44.404  22.747  14.786
89043W        W61303  27.541  36.929  12.843
89044W        W61304  24.539   5.833  13.523
89045W        W61305  33.057   6.286  13.437
89046W        W61306   2.361  39.849   1.301
89047W        W61307  11.365   7.753   3.838
89048W        W61308  13.140   1.392   2.265
89049W        W61309  40.307  20.150   4.162
89050W        W61310  18.768  40.949  11.059
89051W        W61311  22.169  15.615   3.307
89052W        W61312  44.941  12.672  13.495
89053W        W61313  38.405  31.455   4.717
89054W        W61314  16.606  23.530  13.064
89055W        W61315  31.523  43.301  13.943
89056W        W61316  17.664  36.427  10.494
89057W        W61317  34.058  13.230   1.739
89058W        W61318  23.993  14.741  11.428
89059W        W61319   2.248  39.018  13.537
89060W        W61320  27.984   0.939  13.929
89061W        W61321  10.817  29.447  11.858
89062W        W61322   4.334   6.883  13.939
89063W        W61323  39.888  11.332  13.453
89064W        W61324  38.033   9.689   3.337
89065W        W61325  38.506  39.500   0.938
89066W        W61326  37.058  24.710  11.953
89067W        W61327  25.514  34.890   4.346
89068W        W61328  32.532  20.162   1.261
89069W        W61329   3.782  18.124   4.197
89070W        W61330   5.301   6.195  12.835
89071W        W61331  30.584  27.069  11.601
89072W        W61332  22.174  30.102   4.785
89073W        W61333  12.853   5.853   4.252
89074W        W61334  28.449  16.685  10.548
89075W        W61335  33.388   5.204  13.426
89076W        W61336  22.516  29.450   3.770
89077W        W61337   3.225  15.710  12.928
89078W        W61338  37.865   1.867   4.209
89079W        W61339  29.958  40.026   2.240
89080W        W61340  15.717  27.978  13.858
89081W        W61341  23.027  12.838   3.294
89082W        W61342  18.703   5.716   5.174
89083W        W61343  25.684  24.614   0.892
89084W        W61344  42.816  36.910  14.996
89085W        W61345  25.709   8.187   2.725
89086W        W61346  42.494  29.637   1.246
89087W        W61347  17.756  19.196  11.413
89088W        W61348   8.220  23.151   0.445
89089W        W61349  21.549  13.126   2.260
89090W        W61350  41.873   5.292   1.756
89091W        W61351  36.401   2.853   2.663
89092W        W61352  27.173  26.005   1.276
89093W        W61353   1.372  23.205   0.807
89094W        W61354  35.547   3.304   4.608
89095W        W61355   0.890  30.562   4.832
89096W        W61356  21.580   2.361   4.309
89097W        W61357  39.857  40.543   4.731
89098W        W61358  30.548  32.928  12.980
89099W        W61359  28.995  42.389  11.002
89100W        W61360  37.964   3.365   2.796
89101W        W61361  43.890   3.782   2.856
89102W        W61362  30.479   3.810  12.399
89103W        W61363  15.230  40.817   3.345
89104W        W61364   2.751  37.356  13.459
89105W        W61365  19.560  15.092   0.755
89106W        W61366  38.908  33.898   4.691
89107W        W61367  32.569  37.984   2.818
89108W        W61368   7.701   8.170   2.194
89109W        W61369  17.255   2.434   0.965
89110W        W61370  31.062   0.963  11.926
89111W        W61371   5.368  36.469   3.835
89112W        W61372  21.154  32.910  13.846
89113W        W61373   5.236  27.507  10.413
89114W        W61374   3.790  11.149  14.878
89115W        W61375   6.765  13.190   0.395
89116W        W61376   1.251  10.759  14.403
89117W        W61377  10.845   2.314  12.069
89118W        W61378  29.506  44.782   0.338
89119W        W61379  42.342  25.576   4.806
89120W        W61380  19.257  21.521  14.862
89121W        W61381  33.969  33.131  14.321
89122W        W61382  44.433  42.022   0.893
89123W        W61383  44.918  12.166   4.693
89124W        W61384  30.956  38.528   0.480
89125W        W61385  36.992  18.132  10.443
89126W        W61386  22.244  22.529   4.224
89127W        W61387  44.790   1.812  11.397
89128W        W61388  18.738  31.048  14.330
89129W        W61389  12.790  15.802   2.220
89130W        W61390  38.356  10.809  13.508
89131W        W61391   7.883   8.824   1.336
89132W        W61392   3.404   2.353   4.180
89133W        W61393  20.681   9.828   1.316
89134W        W61394   1.772  18.756  11.032
89135W        W61395  32.612   8.656   4.640
89136W        W61396  29.544  35.408  12.011
89137W        W61397  19.145  42.378   4.165
89138W        W61398  22.695  42.001  14.329
89139W        W61399  30.625  36.890  13.473
89140W        W61400  40.803  37.867   2.754
89141W        W61401   3.759  26.054   3.357
89142W        W61402  11.798  25.651   2.892
89143W        W61403   7.675  42.965  12.569
89144W        W61404   0.297  24.496  13.024
89145W        W61405  28.042   0.894  13.423
89146W        W61406  33.599  39.889  11.902
89147W        W61407  10.873  30.073   0.852
89148W        W61408  36.517   3.810   2.188
89149W        W61409  42.021  17.642   4.179
89150W        W61410  17.635  29.025  11.886
89151W        W61411  39.055  41.019  13.993
89152W        W61412  41.401  24.498   2.713
89153W        W61413  25.573  33.497   3.759
89154W        W61414  14.832  17.217   5.575
89155W        W61415  31.056  42.510   4.288
89156W        W61416  23.189  20.055   1.751
89157W        W61417  17.172   2.407  10.571
89158W        W61418   6.396  37.518  10.616
89159W        W61419   2.796  44.390   3.658
89160W        W61420  10.190  10.356  11.863
89161W        W61421  22.133  29.948  11.076
89162W        W61422  16.313  35.950  11.602
89163W        W61423  22.143  42.394  13.802
89164W        W61424  29.498  26.457   1.379
89165W        W61425  11.849   4.413  11.611
89166W        W61426  34.476   4.230   0.310
89167W        W61427   3.872   7.373  12.971
89168W        W61428  32.533  32.088   0.810
89169W        W61429  25.986  12.623  14.396
89170W        W61430   9.302  37.032  10.516
89171W        W61431  10.201  23.520  14.934
89172W        W61432  19.719  13.702  13.869
89173W        W61433  37.373  19.650  12.400
89174W        W61434  37.951   0.372   1.373
89175W        W61435  34.595  23.698  11.007
89176W        W61436  44.395  27.455   2.240
89177W        W61437  34.968   1.841  11.082
89178W        W61438  42.841   2.740  14.435
89179W        W61439   6.766  14.737  13.390
89180W        W61440   4.906  43.838   1.388
89181W        W61441  37.549   1.373   2.312
89182W        W61442  10.240  38.461  10.431
89183W        W61443  41.325  26.643  13.472
89184W        W61444   7.767  16.651  12.022
89185W        W61445  22.551  37.021  14.496
89186W        W61446  11.809   3.296   0.780
89187W        W61447   9.796  34.076   4.133
89188W        W61448  20.220  20.209   3.263
89189W        W61449  17.761  14.130  12.390
89190W        W61450  13.351  41.950   1.309
89191W        W61451   1.442  40.959  11.924
89192W        W61452   8.388   4.206   0.319
89193W        W61453  17.249  19.042  13.471
89194W        W61454  32.549  41.327  12.407
89195W        W61455  24.479  29.930   0.398
89196W        W61456   0.274  43.838   1.770
89197W        W61457   6.838  44.951   3.275
89198W        W61458  38.518  15.594  10.635
89199W        W61459  36.090  36.420   1.447
89200W        W61460  31.970  42.883   4.827
89201W        W61461  10.669  29.099   3.777
89202W        W61462  42.367  40.349   2.416
89203W        W61463  14.655  44.340  12.078
89204W        W61464  39.064   1.255   4.193
89205W        W61465  17.306  13.680   0.842
89206W        W61466   7.215  28.005  10.544
89207W        W61467  41.885  30.646   0.777
89208W        W61468  31.435  27.127   2.232
89209W        W61469   4.219  25.605   1.240
89210W        W61470  44.465   9.837  10.605
89211W        W61471  38.946  28.614   0.895
89212W        W61472   0.917  23.508  14.782
89213W        W61473   8.899   8.817  13.440
89214W        W61474  27.108   7.394  10.442
89215W        W61475   0.479  40.318   4.223
89216W        W61476   5.233  14.299  11.582
89217W        W61477  29.977  32.007  13.870
89218W        W61478  13.238  42.328   0.861
89219W        W61479  14.741  39.906  13.936
89220W        W61480   7.697   2.954   3.356
89221W        W61481   5.758   6.259  13.917
89222W        W61482  26.023  33.464  14.765
89223W        W61483  30.012  30.003  10.467
89224W        W61484  15.712  38.473   2.280
89225W        W61485  41.013  42.488   3.293
89226W        W61486  27.996  36.077  10.940
89227W        W61487  39.369  21.719  10.523
89228W        W61488  29.437  37.889  12.430
89229W        W61489  33.013  25.108   0.811
89230W        W61490   4.704   1.324  14.802
89231W        W61491   9.176  22.165  12.906
89232W        W61492  24.607  32.547  10.436
89233W        W61493  42.842  28.058   4.254
89234W        W61494  13.246   2.885  14.897
89235W        W61495   3.398   4.403   2.817
89236W        W61496  38.939  21.526  13.461
89237W        W61497  13.725  42.406   1.886
89238W        W61498   5.232  19.132  13.852
89239W        W61499  16.664  24.481  12.885
89240W        W61500  37.876   6.782   3.856
89241W        W61501  30.133  35.025   4.639
89242W        W61502   3.933   9.234  10.565
89243W        W61503  13.106   6.776  11.394
89244W        W61504  39.385  20.606  14.917
89245W        W61505  13.809  10.261  13.922
89246W        W61506  43.392   3.232  12.960
89247W        W61507   7.242  38.539   2.361
89248W        W61508  43.319  21.161   2.189
89249W        W61509  26.525  28.472  14.928
89250W        W61510   4.873  15.580   1.722
89251W        W61511  32.125  12.312   2.241
89252W        W61512   4.418  38.492   3.152
89253W        W61513  22.579  20.707  12.438
89254W        W61514  34.437  39.379   1.708
89255W        W61515  20.524  17.169  13.543
89256W        W61516   7.723  26.055   0.927
89257W        W61517  12.814  18.598   3.808
89258W        W61518  27.654  10.269  13.494
89259W        W61519   6.838  13.721   0.859
89260W        W61520  44.267  23.987  10.620
89261W        W61521  10.667  37.998  14.390
89262W        W61522  37.515  39.517   3.317
89263W        W61523  30.617  31.936  10.062
89264W        W61524  32.508  30.645   4.740
89265W        W61525  16.601  17.671   3.365
89266W        W61526  26.568  19.210  14.890
89267W        W61527  11.297  31.106   4.685
89268W        W61528  36.905  10.255   2.397
89269W        W61529  13.149   5.830   3.283
89270W        W61530  31.624  38.434   3.350
89271W        W61531  37.030  20.695   3.852
89272W        W61532   7.213  16.105   4.245
89273W        W61533  33.886  18.229  14.315
89274W        W61534  28.603  42.974   4.265
89275W        W61535  17.269  14.337  12.461
89276W        W61536  38.841   7.231   1.837
89277W        W61537  30.442  11.153   1.801
89278W        W61538   1.883  24.143   2.892
89279W        W61539  21.758   6.715   2.739
89280W        W61540  44.470  39.408  13.331
89281W        W61541  24.004  23.033  12.529
89282W        W61542   9.386   7.784  12.493
89283W        W61543  10.370  38.838   0.408
89284W        W61544   4.712   2.923   3.182
89285W        W61545  28.052  35.010  11.952
89286W        W61546   2.447   5.718  10.432
89287W        W61547  36.501   1.253  10.949
89288W        W61548  35.937  16.212  10.492
89289W        W61549  35.527   4.808   0.736
89290W        W61550  44.836  26.544   2.365
89291W        W61551  10.783   7.183   0.269
89292W        W61552  35.429  37.843  11.891
89293W        W61553  16.609   6.851   1.863
89294W        W61554  36.392  19.722   4.257
89295W        W61555  34.470   3.450   5.191
89296W        W61556  24.666   4.310  11.610
89297W        W61557  33.508  37.339   3.339
89298W        W61558  36.024  17.746   2.802
89299W        W61559   9.226  26.665  14.826
89300W        W61560   8.394  44.986   1.808
89301W        W61561   7.674  21.087   3.786
89302W        W61562  24.982  13.732  12.926
89303W        W61563  44.897  25.969  10.449
89304W        W61564   6.774  33.026  12.928
89305W        W61565  39.432   7.208  13.051
89306W        W61566  34.497  43.906  11.501
89307W        W61567   5.893  30.966   1.927
89308W        W61568   2.456   5.754   1.852
89309W        W61569   9.196   7.709   4.777
89310W        W61570  26.460   7.808  11.043
89311W        W61571   9.773  10.644   4.666
89312W        W61572  16.802  36.845   3.311
89313W        W61573  44.846  23.020   4.298
89314W        W61574  19.673  12.205  13.378
89315W        W61575   8.795  33.436   3.819
89316W        W61576   4.390  22.619  14.516
89317W        W61577  40.347  25.639   3.178
89318W        W61578  17.637   3.270   3.753
89319W        W61579  10.747   5.772   2.764
89320W        W61580  20.766  17.723   1.236
89321W        W61581   7.833  27.639   3.791
89322W        W61582   5.715  18.093  13.991
89323W        W61583  26.025  43.320  13.458
89324W        W61584   3.415   3.888   0.473
89325W        W61585   4.727  26.959  12.397
89326W        W61586  40.967  27.538   3.300
89327W        W61587  33.921  21.026   5.099
89328W        W61588  24.007   7.853   0.810
89329W        W61589  42.904   1.462   4.231
89330W        W61590   0.428  23.546  14.341
89331W        W61591   8.761  32.058   0.414
89332W        W61592  36.960  36.408   0.381
89333W        W61593  11.751  41.960  11.947
89334W        W61594  10.874  42.405   1.802
89335W        W61595  34.015  42.026  12.962
89336W        W61596  14.169  32.446   1.285
89337W        W61597  27.633  29.135  11.496
89338W        W61598  12.265  16.705  14.948
89339W        W61599   5.865  34.563  14.333
89340W        W61600   0.841   5.430  11.504
89341W        W61601   0.796  29.022   2.185
89342W        W61602  39.866  24.230  14.507
89343W        W61603  33.590  20.667   9.951
89344W        W61604  27.560  15.649  12.947
89345W        W61605  41.519  42.879   3.709
89346W        W61606  24.147  39.468   2.671
89347W        W61607  29.506  32.926   0.429
89348W        W61608  10.856  36.394   0.418
89349W        W61609  25.563  38.009  13.437
89350W        W61610  34.034   9.265   0.752
89351W        W61611  11.625  21.076  14.430
89352W        W61612  30.488  13.639  13.419
89353W        W61613  22.535  11.240  10.494
89354W        W61614  38.829  37.550  10.083
89355W        W61615  11.210  25.499  12.015
89356W        W61616  41.959   9.227  12.398
89357W        W61617  28.023   0.933   5.266
89358W        W61618  24.172  27.166   3.631
89359W        W61619  44.917  23.574   1.289
89360W        W61620  31.059  14.114   0.818
89361W        W61621  13.116  25.058   9.937
89362W        W61622  11.185   5.871   1.897
89363W        W61623  43.842  35.890  13.411
89364W        W61624  36.521  19.153  10.569
89365W        W61625  41.923  12.823   2.402
89366W        W61626  24.537  21.626   4.774
89367W        W61627  39.326  21.023   0.353
89368W        W61628  34.008  23.141   2.842
89369W        W61629  41.038  39.325  13.538
89370W        W61630  41.825  22.070  11.597
89371W        W61631   3.872   1.885   2.409
89372W        W61632  11.806  32.552  14.491
89373W        W61633  26.104  41.021   4.179
89374W        W61634   8.233  33.554  12.043
89375W        W61635  37.932  39.433   3.826
89376W        W61636  15.748  12.770  12.414
89377W        W61637  36.530  31.647   0.896
89378W        W61638  40.448  35.440   2.828
89379W        W61639  30.445  25.689   1.352
89380W        W61640  42.943  36.867   1.904
89381W        W61641   1.893   9.239  12.954
89382W        W61642  14.114  29.995  12.543
89383W        W61643  30.584  29.651   0.264
89384W        W61644  36.408  37.509  11.046
89385W        W61645  28.660   1.400  14.962
89386W        W61646   9.884  25.989  14.295
89387W        W61647   9.338  13.819  14.003
89388W        W61648   3.908  43.779  14.899
89389W        W61649   3.345  27.136  10.963
89390W        W61650  21.564  22.644  13.360
89391W        W61651  11.661   8.400   3.745
89392W        W61652  44.898  35.997  10.564
89393W        W61653  38.501  17.776  10.640
89394W        W61654  27.053  19.648   3.291
89395W        W61655   8.237  19.746  10.575
89396W        W61656  24.144  15.153   4.757
89397W        W61657  43.984  37.898   3.158
89398W        W61658  41.030  42.384  11.910
89399W        W61659  24.070  41.934  12.357
89400W        W61660   4.329  23.612  12.557
89401W        W61661   1.430  29.588  10.628
89402W        W61662  25.574   3.432   1.309
89403W        W61663  41.868  44.781   3.359
89404W        W61664   2.849  11.812  13.514
89405W        W61665  21.205  13.765   3.311
89406W        W61666   6.901  23.504   0.771
89407W        W61667   7.671  43.300   1.323
89408W        W61668   9.258  20.176   1.213
89409W        W61669  15.230  12.807   1.226
89410W        W61670  28.495  37.548   1.910
89411W        W61671  28.998  12.216  11.480
89412W        W61672   6.287  24.075   3.241
89413W        W61673  10.878  16.263  14.279
89414W        W61674  24.119  31.522   0.954
89415W        W61675  35.997  37.049  13.463
89416W        W61676  11.298  31.626  13.362
89417W        W61677  42.882  24.610  11.890
89418W        W61678  10.317  26.976   1.923
89419W        W61679   6.741  10.157  10.549
89420W        W61680   3.262   7.173   1.876
89421W        W61681  39.460  38.331   0.473
89422W        W61682   1.836  42.439   0.804
89423W        W61683  30.448   2.430  11.978
89424W        W61684  12.175  41.312  12.877
89425W        W61685  28.077   2.789  12.823
89426W        W61686  18.132  42.801   5.157
89427W        W61687  34.575  39.991  14.475
89428W        W61688  36.372  27.160  12.394
89429W        W61689  25.469   7.347   0.337
89430W        W61690  32.579  14.214   2.835
89431W        W61691  15.274  17.114   0.810
89432W        W61692   5.259  14.234  12.465
89433W        W61693  13.166  25.171  11.599
89434W        W61694  10.870  33.949  11.940
89435W        W61695  30.421  40.415  13.488
89436W        W61696  18.764  16.130   4.198
89437W        W61697  25.135  13.715   1.826
89438W        W61698   3.392  28.078  12.524
89439W        W61699  38.875  11.136  14.408
89440W        W61700  10.734   8.335   2.287
89441W        W61701   1.300  43.968  13.923
89442W        W61702  24.583  15.211   3.262
89443W        W61703  39.994  33.025   2.775
89444W        W61704  34.930  14.606   1.269
89445W        W61705  10.745  34.089   0.866
89446W        W61706   1.417  38.332   0.839
89447W        W61707  29.656  26.132  13.896
89448W        W61708  18.637  42.861   3.853
89449W        W61709  27.451  17.732  11.420
89450W        W61710   1.957   1.927   2.359
89451W        W61711   5.350  16.740   0.762
89452W        W61712  14.229  26.208   3.281
89453W        W61713  32.475  29.600   1.439
89454W        W61714  35.085  22.629  12.463
89455W        W61715  31.407  13.276   4.782
89456W        W61716  31.641  23.558   4.726
89457W        W61717  22.235  18.172  14.910
89458W        W61718  10.234  43.842   3.848
89459W        W61719   4.829  21.622  11.494
89460W        W61720  33.875   6.720  12.476
89461W        W61721  43.862  20.600  10.605
89462W        W61722  36.905  39.985  11.384
89463W        W61723  22.246  25.664   0.878
89464W        W61724   8.193   1.268  13.507
89465W        W61725  23.176   1.772  13.480
89466W        W61726  10.146  19.222  14.327
89467W        W61727  18.108  40.965  13.489
89468W        W61728  37.403  13.122   5.178
89469W        W61729  10.217  13.262  14.307
89470W        W61730  38.976  15.145   0.442
89471W        W61731  28.559   3.720  10.977
89472W        W61732  35.965  44.428  11.458
89473W        W61733  34.377  31.410   2.385
89474W        W61734  27.687  28.656  14.867
89475W        W61735  16.703  21.651  11.590
89476W        W61736  15.687  13.661   3.292
89477W        W61737  25.002  19.765  12.906
89478W        W61738  18.705  39.064  10.504
89479W        W61739  18.063  21.186  10.479
89480W        W61740   6.183  19.145  14.020
89481W        W61741  15.777  27.119  10.428
89482W        W61742  20.703   9.213   1.218
89483W        W61743  23.050  42.001  10.917
89484W        W61744  39.500  25.006   1.230
89485W        W61745  22.134   1.360   1.771
89486W        W61746  31.578  13.693   3.385
89487W        W61747  25.606   1.817   1.737
89488W        W61748   6.734  21.219   3.312
89489W        W61749  38.914  35.448  12.930
89490W        W61750  34.108  15.209   4.642
89491W        W61751   1.958   0.871   2.365
89492W        W61752  19.678   1.862   4.808
89493W        W61753  17.177  34.376   1.836
89494W        W61754  29.970  20.619   3.830
89495W        W61755  16.781   3.246  13.445
89496W        W61756  43.479   2.388   2.197
89497W        W61757  44.459  34.899  13.026
89498W        W61758  37.367  30.917   2.229
89499W        W61759  24.601  37.400  12.478
89500W        W61760   0.461  15.667  10.454
89501W        W61761  24.516  32.045   1.747
89502W        W61762   1.889  41.846  13.539
89503W        W61763  21.134  32.449   0.940
89504W        W61764   7.810  27.152  10.154
89505W        W61765  10.333  39.521   1.900
89506W        W61766  30.498  38.824   3.809
89507W        W61767   8.250  18.072   3.842
89508W        W61768  23.500  24.653   2.694
89509W        W61769   7.370  42.802   4.818
89510W        W61770  21.025  31.588  12.838
89511W        W61771  11.743  27.977  14.319
89512W        W61772  10.762  31.934  10.585
89513W        W61773  38.010   3.883  13.458
89514W        W61774   0.381  11.699   2.769
89515W        W61775  40.462  40.475   4.114
89516W        W61776  18.125  11.268   3.258
89517W        W61777   3.866  37.444  13.832
89518W        W61778   9.784  29.425  10.415
89519W        W61779  42.526  22.738  10.553
89520W        W61780  41.951   7.360   3.177
89521W        W61781  23.636  27.056  11.607
89522W        W61782  27.518   5.894   1.318
89523W        W61783   4.215   5.697   1.779
89524W        W61784  28.518  35.873   0.431
89525W        W61785  35.592   7.267   2.264
89526W        W61786  36.985  13.609  12.375
89527W        W61787  39.508  31.410  12.390
89528W        W61788  39.470  14.808   0.906
89529W        W61789   7.399  12.846  12.985
89530W        W61790  24.077  11.135   2.308
89531W        W61791  27.469   0.956   0.935
89532W        W61792  37.496  42.835   4.299
89533W        W61793  18.647  14.247  12.958
89534W        W61794  20.615  29.594   4.199
89535W        W61795  35.027  42.842   2.334
89536W        W61796  11.127   7.824   2.186
89537W        W61797  12.134   8.376   3.849
89538W        W61798   9.250   3.808   1.367
89539W        W61799  42.835  10.159  11.492
89540W        W61800  33.991   0.949   2.334
89541W        W61801  27.689  24.193  13.501
89542W        W61802  13.777   2.364   1.786
89543W        W61803  21.710  17.696   3.276
89544W        W61804  40.534   4.729   5.159
89545W        W61805  39.879  10.840  12.433
89546W        W61806  22.733  12.153  12.093
89547W        W61807  22.533  16.775   1.234
89548W        W61808  43.954  29.511   1.919
89549W        W61809  32.450  30.641  12.452
89550W        W61810  34.910  31.570   0.459
89551W        W61811  23.571  21.664  11.452
89552W        W61812  11.810  38.897  11.079
89553W        W61813  12.787  39.892   0.375
89554W        W61814   6.192  21.584  11.595
89555W        W61815  19.549  11.661   4.676
89556W        W61816  11.175  20.679  12.937
89557W        W61817   1.319  27.183   2.262
89558W        W61818  20.628  37.841   4.302
89559W        W61819  32.033  32.608  11.502
89560W        W61820   9.707   4.748  13.336
89561W        W61821  27.056   4.334  13.845
89562W        W61822   9.757  40.377   4.680
89563W        W61823   7.350  20.253   1.751
89564W        W61824  11.156   3.797   1.392
89565W        W61825  14.258  17.675   0.740
89566W        W61826   9.884   9.229   4.169
89567W        W61827  12.131  27.982  10.505
89568W        W61828  20.759  36.518   0.280
89569W        W61829  12.698  30.009  10.061
89570W        W61830   8.338  14.199   2.196
89571W        W61831  14.139  30.578   3.762
89572W        W61832  36.846   6.713   1.417
89573W        W61833  40.389  39.851   1.350
89574W        W61834   0.783  15.798  12.919
89575W        W61835  18.201  36.980  12.577
89576W        W61836  34.107   0.868   0.459
89577W        W61837  28.565  38.535   0.472
89578W        W61838  30.118  14.599  11.939
89579W        W61839  22.218  35.099   2.242
89580W        W61840  31.632  17.175  11.058
89581W        W61841  22.145  39.429  14.356
89582W        W61842  10.803  11.802   2.805
89583W        W61843   6.870  21.755   1.360
89584W        W61844  29.425  11.659   0.891
89585W        W61845  20.074  10.264  12.392
89586W        W61846  43.275  24.495  13.983
89587W        W61847  15.194  38.552   0.316
89588W        W61848  16.280  44.462   4.729
89589W        W61849  27.966  33.124  14.965
89590W        W61850  36.944   7.172  11.464
89591W        W61851  25.977  23.110  13.457
89592W        W61852  17.153  26.191   4.792
89593W        W61853   6.416  26.157  14.411
89594W        W61854  43.389  16.727   4.663
89595W        W61855  14.180   0.896  13.953
89596W        W61856  30.604  33.588  14.284
89597W        W61857  15.094  33.452  13.513
89598W        W61858   4.801   9.743   4.309
89599W        W61859  39.948  38.858   1.406
89600W        W61860  15.243   8.397  12.578
89601W        W61861   9.775  31.964  14.438
89602W        W61862  40.536   4.260   2.413
89603W        W61863  31.918  37.426   2.696
89604W        W61864   0.255  39.423   0.729
89605W        W61865  33.597  41.013   1.300
89606W        W61866  22.105  19.096   3.821
89607W        W61867   9.192   0.796   1.792
89608W        W61868  38.560   7.721  13.901
89609W        W61869   0.817  43.942  14.516
89610W        W61870  14.628  21.699   4.313
89611W        W61871  16.265  29.569   3.756
89612W        W61872  19.133   1.279   0.864
89613W        W61873  14.762  25.068   3.727
89614W        W61874  28.080   8.379   1.902
89615W        W61875  33.901  29.442   4.722
89616W        W61876  18.568  12.182   0.817
89617W        W61877  10.811  10.738  10.594
89618W        W61878  22.651   7.321   2.359
89619W        W61879   8.174   4.769  10.561
89620W        W61880  15.737  35.085   2.306
89621W        W61881  17.096  37.039   4.121
89622W        W61882  36.485  39.347  12.569
89623W        W61883   3.895  21.614   2.674
89624W        W61884  27.466  40.500   2.865
89625W        W61885  20.111   5.315  14.977
89626W        W61886  18.556  41.041  13.433
89627W        W61887   0.936  29.655  13.796
89628W        W61888  38.947  41.498   2.288
89629W        W61889  17.307  29.064  10.893
89630W        W61890  26.179  22.237   3.766
89631W        W61891   0.851  42.384  14.335
89632W        W61892  32.579  20.204  11.526
89633W        W61893   6.766   8.664  12.423
89634W        W61894  17.561   3.752   1.283
89635W        W61895  25.621  43.937   2.330
89636W        W61896  35.387   7.412   4.180
89637W        W61897   0.918  26.003  10.613
89638W        W61898  41.985  15.236   0.920
89639W        W61899  19.141   9.718  13.001
89640W        W61900   7.187  12.721  14.323
89641W        W61901  18.614  41.911   0.326
89642W        W61902  28.175  39.026  11.528
89643W        W61903   6.290   1.764  14.018
89644W        W61904  19.072  15.619  13.998
89645W        W61905   5.835  35.092   1.389
89646W        W61906  41.012  11.843  11.590
89647W        W61907  37.899  21.263   4.683
89648W        W61908  41.803   6.732   4.239
89649W        W61909  18.149   3.904   0.965
89650W        W61910  14.226  31.441  14.515
89651W        W61911  22.058  42.932  13.427
89652W        W61912  19.217  18.670  11.065
89653W        W61913   9.336  34.067   4.299
89654W        W61914   9.743   7.289   0.768
89655W        W61915  11.811   7.852  11.428
89656W        W61916  10.794  26.047  14.972
89657W        W61917  25.216   4.758  11.084
89658W        W61918  28.500  27.020   3.781
89659W        W61919  24.581  41.382  11.950
89660W        W61920  15.240  13.610  11.430
89661W        W61921  32.908  13.736  10.496
89662W        W61922  35.362  43.951   2.770
89663W        W61923   3.311  40.848  10.969
89664W        W61924   6.256  12.662  12.464
89665W        W61925  17.232  23.142   1.858
89666W        W61926  26.656  33.493  12.935
89667W        W61927  26.157  42.364   3.231
89668W        W61928  30.961   1.942  11.109
89669W        W61929  41.014  22.612   0.396
89670W        W61930   7.893  15.113   4.166
89671W        W61931   9.256   8.759  11.505
89672W        W61932  24.113   7.410  13.943
89673W        W61933   2.803  11.630   4.301
89674W        W61934   3.453  41.303   1.749
89675W        W61935  17.757   6.883   5.093
89676W        W61936  44.968  28.001   4.288
89677W        W61937  32.961  37.468   3.230
89678W        W61938   0.438  24.132   2.346
89679W        W61939  24.498  26.127   0.252
89680W        W61940  25.047  27.508   4.289
89681W        W61941  35.442  27.560   4.237
89682W        W61942  28.632  12.356   4.759
89683W        W61943  22.642  20.256  12.945
89684W        W61944  21.653   8.350   3.704
89685W        W61945  13.274   3.896  14.777
89686W        W61946  25.474  28.135  12.402
89687W        W61947  19.719  34.081   2.681
89688W        W61948  23.602   4.807   3.751
89689W        W61949  13.786  32.490   1.256
89690W        W61950   3.758   4.298  14.817
89691W        W61951   2.734  26.517  14.471
89692W        W61952  16.751  33.041   1.729
89693W        W61953  27.504   1.868   0.900
89694W        W61954  43.856   2.850   0.832
89695W        W61955  32.102   3.252  12.006
89696W        W61956   7.865   5.385   0.836
89697W        W61957  42.425  33.050   0.889
89698W        W61958  40.018  21.067   4.737
89699W        W61959  13.777  11.664   2.291
89700W        W61960  42.363  12.743  14.437
89701W        W61961  17.718   0.300  14.320
89702W        W61962   8.803  10.801   2.689
89703W        W61963   1.874  34.110   3.157
89704W        W61964   9.874  22.674   2.807
89705W        W61965  41.867  15.732   2.224
89706W        W61966  28.138  43.363   3.186
89707W        W61967  10.161  37.352   2.323
89708W        W61968   0.951  12.782   3.700
89709W        W61969   3.826  20.542  10.971
89710W        W61970  44.269  17.148   3.652
89711W        W61971   2.351  21.520  11.888
89712W        W61972   5.890  31.119  12.499
89713W        W61973  40.944  21.121   3.675
89714W        W61974  30.474   7.323  13.406
89715W        W61975  15.673  12.213   2.667
89716W        W61976  21.162  10.743   0.358
89717W        W61977  21.663  18.720  13.889
89718W        W61978  38.886  30.520   3.306
89719W        W61979  42.788  15.668   4.785
89720W        W61980   1.935  19.170   1.311
89721W        W61981  30.566  29.997  11.989
89722W        W61982   0.920   7.319   3.696
89723W        W61983  18.665  44.460   0.763
89724W        W61984   8.358  15.784   2.787
89725W        W61985  38.382   2.455   3.181
89726W        W61986  14.322  34.422   4.796
89727W        W61987  41.924   7.706   3.859
89728W        W61988  23.688  21.118  10.962
89729W        W61989   4.205  39.044  11.581
89730W        W61990  38.396  35.000  10.482
89731W        W61991  19.213   5.931  12.560
89732W        W61992  35.998  27.580  12.088
89733W        W61993   7.703  40.325   1.435
89734W        W61994  10.686  16.584  13.519
89735W        W61995   5.305  37.992  12.046
89736W        W61996  35.567  25.132   4.699
89737W        W61997  29.082  22.171   1.883
89738W        W61998  41.459  35.959  12.073
89739W        W61999  11.746  39.864  13.396
89740W        W62000  29.984  10.227   3.304
89741W        W62001  33.410   1.798   5.318
89742W        W62002  34.512  40.016   4.128
89743W        W62003  22.017  40.318   4.247
89744W        W62004  29.466  40.842  11.077
89745W        W62005  12.308  25.491   4.807
89746W        W62006  14.741   1.273  14.373
89747W        W62007  28.950  13.156   0.862
89748W        W62008  41.533  19.674   0.942
89749W        W62009  43.927  15.628   2.812
89750W        W62010   1.896   5.389   3.366
89751W        W62011  39.954   1.297   1.929
89752W        W62012  10.319  37.497   2.840
89753W        W62013   8.318   9.869   2.201
89754W        W62014  18.294   5.320   2.215
89755W        W62015  42.775  35.378   4.757
89756W        W62016  42.320  37.060  12.471
89757W        W62017   6.757  18.214  12.443
89758W        W62018  36.434  29.612  11.072
89759W        W62019   2.739  10.765  13.467
89760W        W62020  23.069  21.560   9.935
89761W        W62021  13.800  27.952   0.730
89762W        W62022  23.686  21.556   1.399
89763W        W62023   3.447   8.818   0.284
89764W        W62024  43.404   5.879   1.382
89765W        W62025  31.020   1.458  14.863
89766W        W62026  28.114  12.222   3.378
89767W        W62027  33.932   8.269  12.959
89768W        W62028   8.298  40.337  13.885
89769W        W62029  31.475   1.904   0.257
89770W        W62030  39.830  21.197  11.531
89771W        W62031  43.392   3.333   2.237
89772W        W62032  36.508  17.146   3.850
89773W        W62033  40.044  38.360   4.817
89774W        W62034   2.378  30.014  13.966
89775W        W62035  37.559  31.972  11.515
89776W        W62036  23.060  36.023   2.327
89777W        W62037  41.948   8.679  12.062
89778W        W62038  43.364  13.272   0.358
89779W        W62039  44.421  26.527   2.665
89780W        W62040  43.436   1.423   2.227
89781W        W62041  39.455   4.440   2.215
89782W        W62042  16.100  35.100  14.343
89783W        W62043   0.927  10.732   4.829
89784W        W62044  33.084  37.422   4.794
89785W        W62045   0.414  35.990  12.944
89786W        W62046   8.199  27.447   1.240
89787W        W62047  16.637   2.876   3.788
89788W        W62048  22.720  29.047   9.559
89789W        W62049  25.987  34.559   2.270
89790W        W62050  17.069  19.269   3.854
89791W        W62051  36.424  38.858   0.952
89792W        W62052  41.331  44.277   3.720
89793W        W62053  24.222  21.087   9.976
89794W        W62054  11.862  31.152  10.442
89795W        W62055  43.505  34.025  14.911
89796W        W62056  38.389  22.683  12.097
89797W        W62057  33.979  26.592   1.372
89798W        W62058  24.228  24.225   5.205
89799W        W62059  10.829  36.066   1.279
89800W        W62060  20.185  24.141   1.774
89801W        W62061  42.954  29.133  14.959
89802W        W62062  40.496  40.516   3.191
89803W        W62063   5.689  11.741   1.841
89804W        W62064  19.538   7.280  12.058
89805W        W62065  41.042  17.578  10.636
89806W        W62066  36.981  20.601   9.640
89807W        W62067   1.926  18.707   2.788
89808W        W62068  41.509  44.472   5.183
89809W        W62069  12.745  37.882  11.432
89810W        W62070  33.945  33.623   0.389
89811W        W62071   7.297  34.003   4.660
89812W        W62072  43.326  21.140   4.778
89813W        W62073  15.281  19.284   3.234
89814W        W62074  29.949  21.164  12.953
89815W        W62075  16.279   7.218  13.955
89816W        W62076   8.270  31.059   0.430
89817W        W62077   7.286  44.802  12.996
89818W        W62078  44.261  33.120   2.886
89819W        W62079  41.389  12.207  10.492
89820W        W62080  22.652  42.393   4.354
89821W        W62081  30.652  26.562   2.203
89822W        W62082  10.195  14.675  13.809
89823W        W62083  33.879  31.098   4.688
89824W        W62084  28.007  39.333  10.939
89825W        W62085  23.083  20.208   1.346
89826W        W62086   5.700  39.006  12.529
89827W        W62087  14.655   7.182  10.575
89828W        W62088   4.301  22.010  10.564
89829W        W62089  11.350  29.088  14.811
89830W        W62090  26.039  11.637  13.311
89831W        W62091  17.765  28.460   4.355
89832W        W62092  30.505  44.963   3.704
89833W        W62093  35.479  34.452  12.981
89834W        W62094  12.766   3.359  11.072
89835W        W62095  14.197  30.442  14.282
89836W        W62096  31.528  15.108  11.539
89837W        W62097  17.796  42.503   0.248
89838W        W62098  44.344   4.263   0.341
89839W        W62099  26.178  21.124   0.810
89840W        W62100  35.027   8.246   1.728
89841W        W62101  42.814  41.428   9.949
89842W        W62102  14.153  33.899   0.880
89843W        W62103  13.719  34.954  11.910
89844W        W62104  13.172   9.772  13.041
89845W        W62105  29.473  26.184  14.459
89846W        W62106   6.877  33.001   2.330
89847W        W62107  36.039  10.694   3.355
89848W        W62108  24.609  33.027  13.888
89849W        W62109  34.407   6.396  11.558
89850W        W62110  23.073   3.751  12.844
89851W        W62111   2.435  10.696  12.035
89852W        W62112   7.755  11.824  11.078
89853W        W62113  32.617   4.350  10.946
89854W        W62114   7.850  17.694  13.496
89855W        W62115   0.258  30.021  13.899
89856W        W62116  10.778  33.406   2.821
89857W        W62117  25.624   1.850   2.874
89858W        W62118   6.327  20.646  12.565
89859W        W62119  36.844  30.052   2.344
89860W        W62120  12.652  44.471   2.233
89861W        W62121  20.696  11.670  13.338
89862W        W62122  23.689  35.058  14.862
89863W        W62123  32.105  12.746  10.961
89864W        W62124  15.757  43.293   4.132
89865W        W62125  16.630  44.002  14.888
89866W        W62126   4.826   0.395   0.390
89867W        W62127  36.457  12.800  13.010
89868W        W62128  11.190  30.455  12.370
89869W        W62129   0.313   0.981   0.948
89870W        W62130  42.507  13.337  11.922
89871W        W62131  11.197  26.509   3.843
89872W        W62132   0.984  23.173  11.539
89873W        W62133  14.294  15.238  13.484
89874W        W62134  22.619  25.202   1.221
89875W        W62135  36.381   4.912  10.582
89876W        W62136  27.110  41.339   3.669
89877W        W62137  37.073  38.949   1.246
89878W        W62138  34.948  28.450   3.357
89879W        W62139  22.566  41.294  11.944
89880W        W62140  31.924  27.000  12.558
89881W        W62141  15.097  25.079  12.537
89882W        W62142  30.046  20.077  12.913
89883W        W62143  36.075  19.053   5.121
89884W        W62144   8.194   5.308   3.154
89885W        W62145   1.239  21.681   3.340
89886W        W62146  26.546  41.995   9.933
89887W        W62147   5.325   5.439   2.849
89888W        W62148  42.372  44.419  14.376
89889W        W62149  14.323  39.857  13.399
89890W        W62150  20.205  25.003  13.836
89891W        W62151  44.479  17.143  12.396
89892W        W62152  14.603  41.524   0.469
89893W        W62153   9.216  15.126  14.957
89894W        W62154   5.831  20.038  11.429
89895W        W62155  13.203  25.700   4.770
89896W        W62156  44.470  15.114   2.349
89897W        W62157  43.006  12.340   2.400
89898W        W62158   5.854  37.051   4.640
89899W        W62159  24.573  40.464  13.407
89900W        W62160  43.280  10.159  11.991
89901W        W62161   9.758  12.362   2.895
89902W        W62162  33.963   7.865   4.312
89903W        W62163  25.472  28.436  10.596
89904W        W62164  32.066  17.761  14.483
89905W        W62165  29.158   9.261  11.081
89906W        W62166  26.181   0.785  12.553
89907W        W62167   1.342   6.184  11.516
89908W        W62168  26.079  37.512   3.266
89909W        W62169  36.446  13.822   4.801
89910W        W62170   7.409   4.380  13.442
89911W        W62171   5.361   3.906   3.316
89912W        W62172  21.654   7.340   4.811
89913W        W62173  40.855  20.248  12.459
89914W        W62174   8.332  25.498   4.288
89915W        W62175   9.810  43.283  14.810
89916W        W62176   9.754  44.919  14.785
89917W        W62177  36.907  40.386   3.241
89918W        W62178  26.670   1.781   1.882
89919W        W62179  29.494  22.149  11.418
89920W        W62180  13.334  24.009   4.161
89921W        W62181  20.574  21.034   0.480
89922W        W62182  39.464  32.475   1.902
89923W        W62183  37.553  35.556  12.900
89924W        W62184  24.091  14.312   2.695
89925W        W62185  40.874  41.916   2.698
89926W        W62186   7.249   1.265   4.812
89927W        W62187  40.958  18.646  11.559
89928W        W62188   4.909  18.230  10.623
89929W        W62189  23.531  20.126  12.349
89930W        W62190  25.070   4.309  11.460
89931W        W62191  34.378  34.566   4.175
89932W        W62192   8.754  25.999  13.501
89933W        W62193  29.511  41.891   2.271
89934W        W62194  37.084  32.425  12.007
89935W        W62195  15.796  14.099   2.404
89936W        W62196   9.379   9.215   1.282
89937W        W62197  30.090  22.560   0.296
89938W        W62198  31.080  29.602  11.036
89939W        W62199  26.484  33.541  13.826
89940W        W62200  14.117  11.269   0.903
89941W        W62201  19.188   9.379  10.995
89942W        W62202  26.096  44.765   4.194
89943W        W62203  40.011  22.682   2.210
89944W        W62204  10.855  40.936   1.701
89945W        W62205  10.864  43.421   3.763
89946W        W62206  17.262  37.559  13.948
89947W        W62207   8.313  20.529   1.214
89948W        W62208  41.927  20.695   0.884
89949W        W62209   9.762   4.382   1.391
89950W        W62210  31.061  15.328   3.816
89951W        W62211  19.574   3.753  11.472
89952W        W62212  26.669  21.025  11.438
89953W        W62213  21.263  38.839  12.870
89954W        W62214  38.458  17.095  14.476
89955W        W62215  12.737  20.749   1.433
89956W        W62216   0.347  35.109   4.321
89957W        W62217   6.843  35.932  11.570
89958W        W62218  13.339  33.619   2.313
89959W        W62219   5.431  23.998   3.186
89960W        W62220  13.145  26.010   0.927
89961W        W62221   5.241   5.787  12.928
89962W        W62222  29.057   7.357  13.834
89963W        W62223   0.415  25.477   2.245
89964W        W62224   8.704  32.135   5.296
89965W        W62225  38.357  27.560  12.886
89966W        W62226  21.026   4.790   4.216
89967W        W62227  17.246  33.435  11.428
89968W        W62228  43.836  12.774  13.018
89969W        W62229  39.869  28.653   1.844
89970W        W62230  38.461   5.232  10.434
89971W        W62231  41.834  13.696  14.852
89972W        W62232  10.770  23.733  10.597
89973W        W62233  43.964  33.049   4.779
89974W        W62234  17.171   9.156  11.533
89975W        W62235  14.124  26.685   3.722
89976W        W62236   4.362  13.117  11.582
89977W        W62237  40.465   2.803  14.800
89978W        W62238  18.695  21.574  12.991
89979W        W62239  21.192  29.549  12.062
89980W        W62240  11.719   9.300  10.438
89981W        W62241  17.289  21.593  14.775
89982W        W62242  21.590  13.787  11.977
89983W        W62243  35.042   5.781  11.886
89984W        W62244  33.429  34.612  12.829
89985W        W62245  15.145  28.966  14.014
89986W        W62246   2.735  28.568  11.494
89987W        W62247  27.162  20.029   4.184
89988W        W62248  26.525  41.445  13.050
89989W        W62249  19.664  42.445   1.379
89990W        W62250   0.345   1.391   3.281
89991W        W62251   0.892  34.964   3.237
89992W        W62252  24.049  35.986  14.293
89993W        W62253  21.219  18.620   2.200
89994W        W62254  27.037  27.501  14.898
89995W        W62255  32.114  29.516  10.889
89996W        W62256   6.412  43.792  11.452
89997W        W62257   1.900   7.301  11.122
89998W        W62258   2.472  23.497   0.413
89999W        W62259  28.940  33.986   2.888
90000W        W62260  43.423   4.801  13.455
90001W        W62261  38.984   1.738  13.038
90002W        W62262   8.783  26.002  12.493
90003W        W62263  27.619   8.405  12.413
90004W        W62264  35.436  38.838  11.031
90005W        W62265  22.128  20.079  10.536
90006W        W62266  36.449  32.408   3.790
90007W        W62267  16.641   3.407   2.198
90008W        W62268  27.135   0.845  12.974
90009W        W62269  34.605  44.846  12.544
90010W        W62270   1.479  11.338   1.791
90011W        W62271  29.976  15.619   3.334
90012W        W62272  35.394  36.405   3.825
90013W        W62273  36.872  27.025  14.279
90014W        W62274  14.219   7.840  10.993
90015W        W62275  30.052  34.008  11.080
90016W        W62276   7.910  35.556  13.426
90017W        W62277  11.657  22.009  11.535
90018W        W62278  20.252  30.627   1.273
90019W        W62279  20.698   3.244   1.748
90020W        W62280   1.255   6.252   4.619
90021W        W62281  30.043  26.528  14.000
90022W        W62282   9.732  32.589   2.699
90023W        W62283  36.498  22.998  12.001
90024W        W62284  43.275   7.176  12.873
90025W        W62285   1.818  22.015   4.725
90026W        W62286  13.789  15.265   1.421
90027W        W62287  27.578  15.684  11.003
90028W        W62288   0.914  13.161  12.484
90029W        W62289  27.617  38.468   1.834
90030W        W62290   2.296  16.247   0.910
90031W        W62291  16.158  13.677   0.480
90032W        W62292  23.182   1.303  11.857
90033W        W62293  27.988  19.723   0.258
90034W        W62294  13.647   3.887  14.030
90035W        W62295   6.341  44.921  14.898
90036W        W62296  23.000  10.750  12.516
90037W        W62297  33.597   7.763  14.026
90038W        W62298  38.536  35.902   2.282
90039W        W62299  34.595  25.991   3.731
90040W        W62300  29.463  39.538  12.514
90041W        W62301  41.483   1.263  13.420
90042W        W62302   5.816  18.126   3.675
90043W        W62303   5.392  11.272   2.760
90044W        W62304  21.717  20.205  14.926
90045W        W62305  23.120  27.979   1.807
90046W        W62306  39.885  11.790  14.835
90047W        W62307  40.955  28.566  14.826
90048W        W62308   7.667  10.745  12.911
90049W        W62309   4.395  42.991  11.964
90050W        W62310   1.306  14.642  11.064
90051W        W62311  42.505  27.454  12.406
90052W        W62312  27.964  26.970  12.416
90053W        W62313  42.906   3.765   3.714
90054W        W62314  42.396  28.041   3.669
90055W        W62315  20.522  31.938   2.669
90056W        W62316  22.030  40.326   3.850
90057W        W62317  24.197  40.012  13.059
90058W        W62318  36.076  19.687  12.566
90059W        W62319  12.247  42.419   4.722
90060W        W62320   4.317   0.479  10.927
90061W        W62321  31.580  39.013  13.461
90062W        W62322  24.135   1.857  13.521
90063W        W62323  30.048  16.752  13.373
90064W        W62324  28.540  22.080  14.417
90065W        W62325  14.121  32.890   2.872
90066W        W62326  43.449   3.811   4.247
90067W        W62327  38.916  33.493  10.438
90068W        W62328  31.623  22.204  13.917
90069W        W62329   5.894  19.094   4.655
90070W        W62330  12.736  42.884  12.879
90071W        W62331   9.890  14.648   2.412
90072W        W62332   5.204  16.586   4.217
90073W        W62333   5.762  13.672  12.063
90074W        W62334  10.168   0.880   2.412
90075W        W62335  15.169  28.147  10.526
90076W        W62336  39.828  23.592   4.805
90077W        W62337  41.418   3.443   0.242
90078W        W62338   1.855   7.806   3.851
90079W        W62339   2.866   2.894  13.398
90080W        W62340  30.988  39.365  11.578
90081W        W62341  20.173  19.544  10.030
90082W        W62342  35.466   7.294  14.381
90083W        W62343  10.818  14.131   4.236
90084W        W62344   9.281  42.401   2.688
90085W        W62345  36.461   7.242   4.808
90086W        W62346  21.724  43.444   3.809
90087W        W62347  37.378  41.292  10.971
90088W        W62348   4.847  39.893  11.078
90089W        W62349  38.556  24.651  13.793
90090W        W62350  29.501   8.352  11.528
90091W        W62351   8.360  25.707  14.447
90092W        W62352   8.181  18.547   2.278
90093W        W62353  12.725  43.441   2.844
90094W        W62354   4.843  32.122  13.403
90095W        W62355  42.472  38.526   2.733
90096W        W62356  14.830  39.430  14.463
90097W        W62357   5.918  16.216   1.306
90098W        W62358  37.411  13.299  13.548
90099W        W62359  13.226  40.011  14.972
90100W        W62360  22.233  30.954  11.571
90101W        W62361   6.776  37.386   4.806
90102W        W62362  34.520  17.220   2.720
90103W        W62363  27.591  24.628  12.092
90104W        W62364   4.261  19.251  11.414
90105W        W62365  28.067  13.218  11.404
90106W        W62366   3.425   7.240   2.797
90107W        W62367  44.963  20.593  12.005
90108W        W62368  34.098  12.223   0.467
90109W        W62369   8.228  41.811   1.422
90110W        W62370  42.027  26.051  11.383
90111W        W62371  37.463  33.032  11.518
90112W        W62372  31.403  19.607   4.697
90113W        W62373  29.980  21.025   0.431
90114W        W62374  38.059   4.346   1.337
90115W        W62375  14.811  13.158  13.853
90116W        W62376  35.057  26.534  11.966
90117W        W62377  43.988  40.312  12.369
90118W        W62378  12.712  21.261   1.314
90119W        W62379  27.688  22.526  10.982
90120W        W62380   8.241  15.658   4.680
90121W        W62381   3.368  12.151  12.049
90122W        W62382  33.044  22.578   3.782
90123W        W62383  40.425   5.727   4.827
90124W        W62384  29.588  34.543  13.462
90125W        W62385   2.313  24.704  14.799
90126W        W62386  31.064  34.097   1.785
90127W        W62387  33.597  22.707   0.425
90128W        W62388  26.953  16.705  12.940
90129W        W62389  28.141  20.623   1.223
90130W        W62390  42.876  23.017  12.944
90131W        W62391  30.022  30.637   1.898
90132W        W62392  13.668  17.633  14.975
90133W        W62393  14.662  26.642  14.936
90134W        W62394  19.551  34.489   3.226
90135W        W62395  28.638  15.760   4.791
90136W        W62396  33.578   3.255  10.005
90137W        W62397   4.335   3.731  14.933
90138W        W62398   9.761  34.033   1.368
90139W        W62399  39.880  32.566  14.448
90140W        W62400  26.080  15.760   2.223
90141W        W62401  13.304  35.895  11.403
90142W        W62402  24.125  31.984   4.163
90143W        W62403  18.747  32.599   0.356
90144W        W62404  38.980  33.457  14.896
90145W        W62405  26.054  31.514  13.026
90146W        W62406  41.885  41.988  13.343
90147W        W62407  29.024  32.423  13.543
90148W        W62408   5.368  39.858   3.156
90149W        W62409  37.435  15.262  10.462
90150W        W62410  42.895  38.488   4.650
90151W        W62411  41.328  41.985  12.891
90152W        W62412  14.829  12.137   3.324
90153W        W62413  15.717  36.065   0.281
90154W        W62414  38.912  36.423  14.390
90155W        W62415  34.406  17.160  12.499
90156W        W62416  24.195  39.922   4.735
90157W        W62417  43.869  35.902  10.518
90158W        W62418  28.618  32.402   4.622
90159W        W62419   0.281   3.931  11.435
90160W        W62420  10.229   6.230  12.904
90161W        W62421   9.650   6.224  11.415
90162W        W62422  33.432  12.254   0.396
90163W        W62423  28.015  28.051  10.549
90164W        W62424  25.617  43.501  13.497
90165W        W62425  28.477  38.473   1.905
90166W        W62426  44.292  25.511  10.530
90167W        W62427   7.228  39.493  13.526
90168W        W62428  11.755  19.593   2.711
90169W        W62429  44.783  24.162   0.941
90170W        W62430   4.727  37.460   3.250
90171W        W62431  26.048   7.680   4.243
90172W        W62432  24.620  32.506  11.929
90173W        W62433  33.115  38.013  13.959
90174W        W62434  33.620  21.228  10.468
90175W        W62435  38.430  39.325  10.413
90176W        W62436  42.951   5.709  10.094
90177W        W62437  12.200  36.098   2.408
90178W        W62438  27.656   4.708  13.505
90179W        W62439  35.381  22.113  12.944
90180W        W62440   7.319  37.372  13.326
90181W        W62441  29.056  18.681   2.686
90182W        W62442   3.818  29.962  13.802
90183W        W62443  23.187   6.265  10.963
90184W        W62444  25.518   8.223  11.443
90185W        W62445   6.832  21.513  13.018
90186W        W62446  35.028  41.012   1.788
90187W        W62447  11.812   3.815  14.806
90188W        W62448   3.884  28.114  13.490
90189W        W62449  14.254  21.088  13.506
90190W        W62450  42.836  33.543   3.744
90191W        W62451  36.461  38.917   2.305
90192W        W62452  32.392  39.487  13.049
90193W        W62453  12.746  37.049  13.318
90194W        W62454   3.904  17.801  11.516
90195W        W62455   9.781  10.188  11.915
90196W        W62456  42.877  24.051   3.278
90197W        W62457  41.342  31.554   0.777
90198W        W62458  10.202  30.068   0.379
90199W        W62459   9.216  26.509  11.572
90200W        W62460   4.801   1.316   4.614
90201W        W62461   4.403  19.725   4.705
90202W        W62462  36.361  35.021  14.885
90203W        W62463  11.641  43.270  12.449
90204W        W62464  13.279  23.107  14.930
90205W        W62465  31.935  29.525   0.484
90206W        W62466  11.302  38.877   0.780
90207W        W62467  25.108  14.118   2.254
90208W        W62468   6.915   4.775   2.326
90209W        W62469  16.632  41.032  12.973
90210W        W62470  15.644  44.945  12.528
90211W        W62471  29.941  24.502  11.546
90212W        W62472  40.361  37.342   1.234
90213W        W62473   4.371  18.621  12.356
90214W        W62474   8.173  40.458   3.215
90215W        W62475  38.892  36.025  10.031
90216W        W62476  38.384  17.638  13.909
90217W        W62477  36.570   9.652   3.811
90218W        W62478  11.196  38.417  14.016
90219W        W62479  30.164  12.362  12.860
90220W        W62480  41.983  42.426   1.433
90221W        W62481   7.804  13.125  10.558
90222W        W62482  17.230  22.539  14.275
90223W        W62483  20.124  30.031   3.826
90224W        W62484  17.068  41.398   0.455
90225W        W62485  36.890   5.363  10.600
90226W        W62486  25.043  25.145  13.527
90227W        W62487  36.535  33.492   0.730
90228W        W62488  21.550  43.435  12.481
90229W        W62489   5.358  12.752   1.708
90230W        W62490  28.111  10.721  10.503
90231W        W62491  43.350   1.919   4.221
90232W        W62492   7.837  44.424   1.809
90233W        W62493  28.661  15.119  14.501
90234W        W62494   2.445   6.844  11.609
90235W        W62495  25.012  29.155  13.378
90236W        W62496  23.647  41.419   4.835
90237W        W62497   4.272  26.505   1.844
90238W        W62498  29.923  36.850   2.666
90239W        W62499  35.953  28.098   4.258
90240W        W62500  22.047  11.201   3.233
90241W        W62501  30.060  42.798  10.143
90242W        W62502  32.955  31.568   0.841
90243W        W62503  17.745   6.858  14.866
90244W        W62504  20.527  29.661   0.470
90245W        W62505  22.595  18.271   2.317
90246W        W62506  33.412  17.162  14.956
90247W        W62507  42.333  21.111  10.474
90248W        W62508  17.274  35.415   4.653
90249W        W62509   7.903  41.018   4.779
90250W        W62510   8.283   3.259  14.342
90251W        W62511  30.476  41.515   2.414
90252W        W62512  35.883  21.594   4.115
90253W        W62513   1.842  42.807   0.329
90254W        W62514  40.525  30.441   0.890
90255W        W62515  34.450   7.247  10.984
90256W        W62516  27.113   8.829  11.004
90257W        W62517  33.894  31.016  11.049
90258W        W62518  12.807  43.365   5.246
90259W        W62519  21.542   6.182   9.974
90260W        W62520  43.822   6.745   0.922
90261W        W62521  40.322  18.243  13.400
90262W        W62522   2.962   4.446  13.482
90263W        W62523  12.160  11.311   0.386
90264W        W62524  32.537  34.001  11.055
90265W        W62525  24.077   9.306  14.413
90266W        W62526  44.312  43.891  13.052
90267W        W62527   5.784  40.998  12.016
90268W        W62528  22.587  17.134  13.436
90269W        W62529  44.420  43.856  10.086
90270W        W62530  42.355  44.794  11.013
90271W        W62531  20.125   3.286  10.968
90272W        W62532  10.743  16.758   0.305
90273W        W62533  43.939  31.510  11.874
90274W        W62534  21.151  35.028  14.285
90275W        W62535   0.747  36.470   3.385
90276W        W62536  30.476  34.540  13.910
90277W        W62537  39.045  27.641  11.441
90278W        W62538  35.572  25.077   0.266
90279W        W62539  17.691  19.601  14.916
90280W        W62540  26.116  32.545   3.276
90281W        W62541  16.579   6.746  11.063
90282W        W62542  19.706  44.834  11.870
90283W        W62543  29.521   6.324   1.722
90284W        W62544  26.574  36.066   1.243
90285W        W62545  20.241  35.527   3.871
90286W        W62546  13.225  38.852  10.416
90287W        W62547   6.360   9.820  13.808
90288W        W62548  10.841  42.311   2.308
90289W        W62549  44.849  39.020  11.511
90290W        W62550   8.709  41.473   4.342
90291W        W62551  14.798  13.618   2.299
90292W        W62552  27.016   6.188  10.516
90293W        W62553  33.876  30.099   4.772
90294W        W62554  43.953   9.227   2.899
90295W        W62555  26.208   6.314   1.417
90296W        W62556  37.552  29.575   2.836
90297W        W62557  39.913  36.932   3.380
90298W        W62558  19.170  43.388  13.377
90299W        W62559   3.759   1.385   1.272
90300W        W62560  19.096  13.640   3.699
90301W        W62561   1.350  19.711   3.773
90302W        W62562  32.481  23.694  10.092
90303W        W62563  28.664  30.557  11.575
90304W        W62564   9.207   0.806   4.166
90305W        W62565   7.293  39.350   4.828
90306W        W62566  20.167  37.063   0.473
90307W        W62567  10.850  26.995  12.488
90308W        W62568  14.297   7.295   0.355
90309W        W62569  42.460  15.705   4.194
90310W        W62570  43.474  35.918   2.739
90311W        W62571  30.071  24.185  13.436
90312W        W62572  23.153  42.852  11.416
90313W        W62573  27.638   1.370  14.306
90314W        W62574  15.221  17.300  14.491
90315W        W62575   4.742  22.576  14.908
90316W        W62576  34.595  11.685   3.285
90317W        W62577  34.595  41.386   0.360
90318W        W62578   8.190  12.739  12.028
90319W        W62579  40.930  15.232   4.320
90320W        W62580  10.203  41.431   1.297
90321W        W62581  18.730  32.928   1.243
90322W        W62582  31.418   1.938  14.903
90323W        W62583  26.188  25.610   4.618
90324W        W62584  30.647  27.184   4.272
90325W        W62585   6.739  35.974   2.225
90326W        W62586  25.964  26.548   1.353
90327W        W62587  40.818  37.933   1.847
90328W        W62588   8.702  42.031   4.222
90329W        W62589  22.195  25.201   1.859
90330W        W62590   2.726   6.257  12.046
90331W        W62591  20.637  25.043   3.164
90332W        W62592  40.517  17.690  13.456
90333W        W62593   8.207  41.845  11.589
90334W        W62594  44.278  30.086   1.830
90335W        W62595  31.612  25.567   2.863
90336W        W62596  16.805  29.936   2.269
90337W        W62597  44.456  42.498   3.358
90338W        W62598  41.419  10.727  11.420
90339W        W62599  20.702  17.585  11.918
90340W        W62600  39.467  26.014   3.851
90341W        W62601   4.260   7.823   4.837
90342W        W62602  17.145   6.760  14.370
90343W        W62603  37.935   5.746   4.831
90344W        W62604  28.052  29.562   4.605
90345W        W62605   0.453  23.065   1.786
90346W        W62606   5.797  43.826   0.317
90347W        W62607  25.989  41.003  13.388
90348W        W62608  41.299  11.660  13.523
90349W        W62609  39.368  10.173  11.383
90350W        W62610  36.938  34.407   3.812
90351W        W62611  20.051  18.177   2.771
90352W        W62612  24.139  42.497   1.908
90353W        W62613  12.360   7.748  13.872
90354W        W62614  25.689  14.308   9.924
90355W        W62615  23.694  40.495   5.274
90356W        W62616   5.325  34.987   0.763
90357W        W62617  27.509   0.453  10.433
90358W        W62618  20.662  20.134  13.928
90359W        W62619  27.089  18.069  10.894
90360W        W62620   0.788  26.638   1.241
90361W        W62621  15.089   0.342  14.907
90362W        W62622  29.107  34.023  11.891
90363W        W62623  44.402  15.319   4.659
90364W        W62624   6.414  29.940  10.516
90365W        W62625  16.227  35.586  13.980
90366W        W62626  14.239  38.523  12.566
90367W        W62627  44.786  10.216  13.821
90368W        W62628  17.259  31.538   3.749
90369W        W62629  30.136  34.052   1.893
90370W        W62630  32.067  36.063   0.421
90371W        W62631  43.314  29.045  11.537
90372W        W62632  23.602  41.931  12.835
90373W        W62633  30.600  43.981   2.680
90374W        W62634   9.204   5.406   2.214
90375W        W62635  42.814  28.163   4.729
90376W        W62636  22.083   1.791   0.407
90377W        W62637  44.967  10.256  13.426
90378W        W62638  44.310  23.566   0.335
90379W        W62639  41.856  22.618  10.956
90380W        W62640  20.744  32.055   1.437
90381W        W62641   8.292  12.795  14.879
90382W        W62642  38.422  25.576  10.586
90383W        W62643  34.076  29.508   1.834
90384W        W62644  36.472  14.728  13.908
90385W        W62645  17.674  33.380  13.434
90386W        W62646  15.166  25.151  14.464
90387W        W62647  17.701   7.206  14.345
90388W        W62648   2.327  33.593  13.316
90389W        W62649  37.936  35.536  10.510
90390W        W62650  15.615  28.590   3.288
90391W        W62651  21.040   3.711   0.952
90392W        W62652  41.438  42.956   1.853
90393W        W62653   9.224  34.554   2.352
90394W        W62654  38.913  20.201   0.738
90395W        W62655  29.430  10.278  14.450
90396W        W62656  30.491   5.706  10.521
90397W        W62657  38.481  11.715  11.981
90398W        W62658   5.379  32.964  12.020
90399W        W62659  14.710   1.945  13.911
90400W        W62660  37.087  41.446   3.170
90401W        W62661   2.416  30.945   1.695
90402W        W62662   2.321   1.282   1.355
90403W        W62663  36.981  38.440   2.898
90404W        W62664  16.227  38.515  12.388
90405W        W62665   0.938  32.043  12.573
90406W        W62666  13.172   5.749   2.709
90407W        W62667  20.112  19.553   2.268
90408W        W62668  36.023  38.536   0.795
90409W        W62669  26.961  10.281  14.500
90410W        W62670   6.296  37.000  14.018
90411W        W62671  42.982  28.089   1.921
90412W        W62672  39.458  10.803   4.614
90413W        W62673   8.764  36.488  11.990
90414W        W62674   8.343   7.865   4.798
90415W        W62675  11.344  38.991  10.589
90416W        W62676  22.618  20.028   2.665
90417W        W62677  41.340  16.804   4.647
90418W        W62678   1.299  24.053   1.332
90419W        W62679  23.565  30.463   2.215
90420W        W62680  27.102  28.071   3.845
90421W        W62681  29.989  18.131  14.409
90422W        W62682  41.509   3.876  11.538
90423W        W62683  30.115  32.044   4.254
90424W        W62684  34.539  27.631   1.451
90425W        W62685   8.681  23.517   4.781
90426W        W62686  12.673  26.096  11.532
90427W        W62687  35.424  12.843  14.954
90428W        W62688  35.028  29.062  14.373
90429W        W62689  24.015  22.076  11.914
90430W        W62690  20.199  22.648   3.702
90431W        W62691   9.663  15.795  12.509
90432W        W62692  27.164  16.596  11.035
90433W        W62693  29.963  32.989   4.695
90434W        W62694   7.793  14.231  10.430
90435W        W62695  24.605  15.228   2.397
90436W        W62696  25.549  38.993   3.827
90437W        W62697   2.395  25.540   0.244
90438W        W62698  31.457  12.768   3.194
90439W        W62699   8.891  20.685   4.129
90440W        W62700  24.722  14.733   4.675
90441W        W62701  12.738  27.535   4.667
90442W        W62702  24.174  35.978   1.392
90443W        W62703  35.502  16.274   3.341
90444W        W62704  32.619  33.585   2.840
90445W        W62705  16.691   4.343   4.662
90446W        W62706  14.126  16.317  11.612
90447W        W62707   9.342  17.172  12.522
90448W        W62708  26.497  15.791   3.259
90449W        W62709  34.451  18.059  14.453
90450W        W62710   9.194  36.518  13.054
90451W        W62711  38.330  20.052   4.340
90452W        W62712  27.493  20.236   4.233
90453W        W62713  38.447  38.930   0.465
90454W        W62714   2.401  18.274  10.081
90455W        W62715  44.989  44.442   0.264
90456W        W62716   4.869   6.895  14.390
90457W        W62717  10.743  29.656   2.673
90458W        W62718  44.450  38.477   1.699
90459W        W62719  16.614  12.629  13.962
90460W        W62720   4.868  26.025   4.675
90461W        W62721  31.119  10.255   1.752
90462W        W62722  33.077   3.442   1.932
90463W        W62723  41.802  13.277  12.974
90464W        W62724   0.415  38.038   4.289
90465W        W62725  15.682  37.511   0.839
90466W        W62726  29.099  20.673   2.213
90467W        W62727   9.360  10.675  10.549
90468W        W62728  27.134  36.388   2.903
90469W        W62729  44.429  16.604  11.479
90470W        W62730   4.440   5.922   3.738
90471W        W62731  21.573  29.465   0.378
90472W        W62732  19.088  35.914   2.380
90473W        W62733   4.332   5.368  14.777
90474W        W62734  43.947  43.012   3.662
90475W        W62735  26.695  27.191   4.154
90476W        W62736  43.504  40.486  14.914
90477W        W62737   6.400  29.611   5.284
90478W        W62738  24.575  22.687   3.247
90479W        W62739  31.633   9.393  13.427
90480W        W62740  21.566  12.671  12.021
90481W        W62741  42.325   2.915   3.658
90482W        W62742  20.631   7.325  13.493
90483W        W62743  18.737  36.997  13.540
90484W        W62744  17.555  23.023  12.069
90485W        W62745  13.800  25.574   3.751
90486W        W62746  10.714  31.594   3.639
90487W        W62747  31.967   5.699   4.804
90488W        W62748  27.054  13.253  13.435
90489W        W62749   1.386   2.860   4.291
90490W        W62750  27.557  10.295   1.312
90491W        W62751  40.030  36.904   4.605
90492W        W62752  30.513  18.580  11.486
90493W        W62753  14.145   3.853  12.403
90494W        W62754  26.986  40.867  13.499
90495W        W62755  37.469   7.266   0.938
90496W        W62756  17.719  17.121  12.007
90497W        W62757  39.322  17.626  13.462
90498W        W62758  41.828   4.436  12.543
90499W        W62759   3.280   4.357   1.704
90500W        W62760   4.916  16.146   1.324
90501W        W62761  26.531   5.902  14.288
90502W        W62762  34.042  13.231   4.802
90503W        W62763  37.448  20.666   1.719
90504W        W62764  37.450   0.960   4.760
90505W        W62765  29.089  30.505   3.638
90506W        W62766  42.778   9.253   2.279
90507W        W62767  42.443   0.286  14.889
90508W        W62768   5.327  41.041   0.470
90509W        W62769  32.906  40.370  14.430
90510W        W62770  37.577  22.209  10.006
90511W        W62771   9.798  42.840  12.874
90512W        W62772  41.916   3.269   0.360
90513W        W62773  10.195   5.278   2.704
90514W        W62774  23.609  44.881   1.328
90515W        W62775   7.821   4.726  10.009
90516W        W62776  18.096   8.699   2.202
90517W        W62777  13.689   6.271  12.076
90518W        W62778  37.365  36.535  12.459
90519W        W62779   4.322   7.860  14.301
90520W        W62780   9.781  22.528  12.450
90521W        W62781   0.419  27.176   0.263
90522W        W62782  23.142  22.701   4.297
90523W        W62783  31.054  14.599   1.346
90524W        W62784  12.131  21.108  11.404
90525W        W62785   4.723  38.336   4.191
90526W        W62786  22.746   7.794   1.370
90527W        W62787  19.242  43.785  11.011
90528W        W62788  36.487  16.611   0.930
90529W        W62789  42.515  20.551   4.692
90530W        W62790   6.225  23.146   1.744
90531W        W62791  31.059  34.608  13.475
90532W        W62792  10.284  24.493   0.812
90533W        W62793  39.470  10.744   2.373
90534W        W62794   4.801  11.312   1.233
90535W        W62795  15.284  29.059  12.512
90536W        W62796  17.287  31.552  10.437
90537W        W62797  13.845  12.709  13.064
90538W        W62798  12.731  17.650   4.214
90539W        W62799  38.403   4.307  14.304
90540W        W62800  35.019   4.870   0.935
90541W        W62801  18.165  19.154  12.538
90542W        W62802  12.775  39.492   0.966
90543W        W62803   8.701  29.978   3.744
90544W        W62804   2.419  39.349  14.391
90545W        W62805  42.320  27.491   0.934
90546W        W62806  18.579  44.377   5.132
90547W        W62807  31.425   6.734   4.691
90548W        W62808  16.744   6.381  14.290
90549W        W62809  32.036   6.408   0.758
90550W        W62810  39.004  35.049   1.302
90551W        W62811  40.957  29.500  11.912
90552W        W62812  28.440  22.547  12.831
90553W        W62813   3.802  40.809   4.599
90554W        W62814   7.686  43.463  10.931
90555W        W62815  14.163  44.429  11.890
90556W        W62816   9.812   6.892   1.276
90557W        W62817  23.572  42.905  14.481
90558W        W62818  19.267  35.856   1.401
90559W        W62819  37.839  38.530  13.863
90560W        W62820  41.360  44.335  11.607
90561W        W62821  38.487   7.881  10.097
90562W        W62822   7.837  44.462  14.031
90563W        W62823   6.197  33.387  13.875
90564W        W62824  10.735  44.271  12.354
90565W        W62825  34.518  39.812  12.549
90566W        W62826  28.931  36.870  13.865
90567W        W62827  24.028  37.573  11.380
90568W        W62828  36.849  25.108  13.978
90569W        W62829  40.309  13.692   1.881
90570W        W62830  20.626   5.790   3.258
90571W        W62831  10.282   6.204  11.382
90572W        W62832  37.438   6.919   2.889
90573W        W62833  44.976  35.085   2.357
90574W        W62834   2.336  17.195   3.655
90575W        W62835  16.681  31.002  12.070
90576W        W62836  29.028  26.186   3.757
90577W        W62837  21.702   9.213   4.189
90578W        W62838  10.191  38.486  11.378
90579W        W62839  43.415  40.803   0.437
90580W        W62840  22.548  32.575   1.330
90581W        W62841  35.884  23.162   2.197
90582W        W62842   2.916   9.870   3.376
90583W        W62843  10.814  15.723   4.649
90584W        W62844  39.003  18.193  10.625
90585W        W62845  35.434  24.046   4.184
90586W        W62846  44.322   2.374  11.972
90587W        W62847  31.017  10.205  14.764
90588W        W62848  33.913  30.523   2.408
90589W        W62849   8.345  32.450  14.767
90590W        W62850  19.177  20.754  11.129
90591W        W62851   0.486  31.032  14.009
90592W        W62852   4.365  21.111  10.033
90593W        W62853  14.306  39.474   4.808
90594W        W62854  43.442  28.958  11.902
90595W        W62855   2.366   9.240   3.864
90596W        W62856   3.408   2.836  12.907
90597W        W62857   9.231  26.604  12.920
90598W        W62858  23.516   1.359   1.832
90599W        W62859  13.828   2.888  13.946
90600W        W62860   1.238  39.860  12.507
90601W        W62861  42.482  20.221  14.929
90602W        W62862   0.976  19.251   2.292
90603W        W62863  34.101   8.782  10.579
90604W        W62864  37.052  14.340   2.860
90605W        W62865   8.891  39.519  12.991
90606W        W62866  32.611  29.560  14.978
90607W        W62867  37.485   6.267   0.378
90608W        W62868  17.066  19.705  12.485
90609W        W62869  28.676   6.755  11.985
90610W        W62870  36.015  21.562  12.482
90611W        W62871   3.731  13.185   1.823
90612W        W62872   8.664   5.354   1.889
90613W        W62873  11.837   7.784   0.286
90614W        W62874  26.576   7.675  14.438
90615W        W62875   3.878   6.261   2.845
90616W        W62876  37.946  25.494   2.886
90617W        W62877  38.895   9.162   3.312
90618W        W62878  41.035  23.114   2.700
90619W        W62879   7.735   4.412   1.232
90620W        W62880   1.860  32.403   1.447
90621W        W62881  28.574   6.394   4.682
90622W        W62882  28.963  36.572  13.875
90623W        W62883  30.629  11.728  11.494
90624W        W62884  28.581  27.180  11.876
90625W        W62885  24.977  34.448  11.383
90626W        W62886  44.002  41.987  11.416
90627W        W62887  28.523   5.785  14.319
90628W        W62888  35.564  26.646  13.384
90629W        W62889  18.250   1.344  11.952
90630W        W62890  33.380  13.131  13.422
90631W        W62891  41.855   7.844  13.004
90632W        W62892  19.084   5.849   5.138
90633W        W62893   4.775  43.297  14.939
90634W        W62894  36.862   2.912  13.499
90635W        W62895  25.967  16.625  12.371
90636W        W62896  33.961  22.599  12.992
90637W        W62897  20.662   5.798  12.998
90638W        W62898  19.094  41.494  11.070
90639W        W62899  34.090  29.587  13.963
90640W        W62900   0.400  21.699  13.495
90641W        W62901  18.578  16.203  12.027
90642W        W62902  15.103   5.433  14.978
90643W        W62903  35.885  32.058   4.760
90644W        W62904  25.541  17.763  14.766
90645W        W62905   7.744  22.047  13.022
90646W        W62906   8.820  38.023   2.811
90647W        W62907  30.575   9.306   2.838
90648W        W62908  41.373   4.911  13.958
90649W        W62909  35.042  28.029  10.500
90650W        W62910  33.878  44.265   0.837
90651W        W62911   6.275  10.248  11.582
90652W        W62912   4.832  21.576   3.373
90653W        W62913  23.176  19.240  11.111
90654W        W62914  35.481   4.402   3.796
90655W        W62915   3.415  25.542  10.546
90656W        W62916  18.621  11.225   2.806
90657W        W62917  43.477  34.912   1.321
90658W        W62918  44.451  33.120  12.457
90659W        W62919  16.627   8.768   2.798
90660W        W62920  32.028  24.565   2.209
90661W        W62921  43.370  30.626   1.718
90662W        W62922  26.976   4.308  10.522
90663W        W62923  14.162  15.595   0.309
90664W        W62924  17.294  11.652   3.762
90665W        W62925  19.573  33.051   1.762
90666W        W62926  28.619  25.119   4.207
90667W        W62927  41.359  21.581  11.560
90668W        W62928  15.588  10.289   0.273
90669W        W62929   1.835   0.957  12.958
90670W        W62930  40.377  22.086  12.869
90671W        W62931  21.082  30.917   4.168
90672W        W62932   6.724  28.964   3.695
90673W        W62933  24.148   1.357  14.901
90674W        W62934  22.643  28.680  11.607
90675W        W62935  41.857  36.430  13.994
90676W        W62936  23.988  13.676  14.416
90677W        W62937  14.690  29.518   5.304
90678W        W62938  10.317  13.843  11.887
90679W        W62939  26.593  31.120   2.893
90680W        W62940  13.769  40.303   0.935
90681W        W62941  37.914  13.208  13.354
90682W        W62942  33.615  44.840  13.873
90683W        W62943  28.164  30.601   3.372
90684W        W62944  23.135  33.539  13.908
90685W        W62945  37.545  30.561  13.936
90686W        W62946  32.008   5.197   2.748
90687W        W62947  33.459  44.375   5.248
90688W        W62948   6.222  28.034  12.348
90689W        W62949  40.461   7.872   0.426
90690W        W62950   3.740  23.086   4.702
90691W        W62951  14.222  34.444  13.320
90692W        W62952  44.272  15.758   2.193
90693W        W62953  42.801  27.063  14.305
90694W        W62954  43.827  42.412  13.410
90695W        W62955  13.782  25.120  12.948
90696W        W62956  36.058  23.712  12.085
90697W        W62957   2.366  40.030  13.861
90698W        W62958  10.273   0.761   0.285
90699W        W62959  41.949  27.034  10.906
90700W        W62960  34.501  11.205   3.344
90701W        W62961  24.118  33.560   2.326
90702W        W62962   0.870  25.700  11.002
90703W        W62963  24.576  35.100  12.451
90704W        W62964  18.575  35.492  12.961
90705W        W62965  44.806   3.409  10.475
90706W        W62966  28.059  36.429   3.650
90707W        W62967  44.861  33.408  13.444
90708W        W62968  36.974  25.205   2.873
90709W        W62969  29.440  41.994   0.788
90710W        W62970  42.813  21.111  14.501
90711W        W62971  14.289  18.086   3.225
90712W        W62972   4.282  36.970   2.404
90713W        W62973  41.861   7.232   2.718
90714W        W62974  20.655  33.943  11.458
90715W        W62975  43.302  43.771  14.940
90716W        W62976  14.174   2.950   2.869
90717W        W62977   5.337   2.759   0.336
90718W        W62978  12.283  35.438   2.373
90719W        W62979  22.168  19.590  10.631
90720W        W62980   1.290  23.582   0.895
90721W        W62981   2.293   0.942   1.296
90722W        W62982  21.035  17.659   3.386
90723W        W62983   9.297  16.645  12.502
90724W        W62984  29.956  26.966   1.371
90725W        W62985  36.919  19.186   5.198
90726W        W62986  37.518  20.181  11.409
90727W        W62987  24.720  39.532  13.422
90728W        W62988  32.447  34.972   4.145
90729W        W62989   7.822  26.190   1.878
90730W        W62990  10.633  17.271   3.295
90731W        W62991   8.843  42.461  13.528
90732W        W62992  43.515   4.308   3.324
90733W        W62993  17.088  32.034  12.862
90734W        W62994  17.273  42.847  14.392
90735W        W62995   0.335  25.103   2.759
90736W        W62996  27.960  28.677   4.706
90737W        W62997  22.680   1.795  11.117
90738W        W62998  10.764  24.623  14.031
90739W        W62999   4.899  28.161  13.426
90740W        W63000   1.384   1.330  10.938
90741W        W63001  16.288  14.151  13.018
90742W        W63002   6.807   3.738  14.312
90743W        W63003  34.073  21.137   2.360
90744W        W63004   2.782  29.640  14.810
90745W        W63005   4.220  33.478   3.204
90746W        W63006  25.468   8.853  10.982
90747W        W63007  17.076  39.524  11.067
90748W        W63008  25.190  43.813   0.459
90749W        W63009  30.920  10.372  12.032
90750W        W63010  18.781  33.073  13.500
90751W        W63011   3.416  17.565  13.903
90752W        W63012  18.713  41.962  11.547
90753W        W63013  38.416  15.781  13.876
90754W        W63014  24.088  18.763  10.621
90755W        W63015  18.262  21.150   4.239
90756W        W63016   7.401   6.883   4.750
90757W        W63017  22.057  42.416   4.800
90758W        W63018  10.228  23.500   0.824
90759W        W63019  42.397  33.521   2.758
90760W        W63020   8.894  32.407   0.773
90761W        W63021  15.694   7.410   2.764
90762W        W63022   9.670  14.181   0.331
90763W        W63023  32.887  21.620  13.508
90764W        W63024  41.007  38.521   4.144
90765W        W63025   8.698  42.918   4.254
90766W        W63026  26.592  18.170  11.053
90767W        W63027  27.163  19.100   2.892
90768W        W63028  22.191   4.437   2.827
90769W        W63029  26.952  26.584   4.675
90770W        W63030  10.789   5.439  10.934
90771W        W63031  22.152   3.902   1.786
90772W        W63032   7.733  15.210  10.569
90773W        W63033  43.471  26.106  12.991
90774W        W63034   7.349  35.476   3.342
90775W        W63035  23.011  29.555   2.361
90776W        W63036   7.739   0.284  10.628
90777W        W63037   9.652  26.524   2.810
90778W        W63038  41.822  12.732  12.944
90779W        W63039  20.088  17.633   1.291
90780W        W63040  18.686   8.658  13.371
90781W        W63041  19.228  13.779  12.568
90782W        W63042  11.325  27.969  13.971
90783W        W63043  20.042   0.955   0.890
90784W        W63044  34.923  26.545   3.229
90785W        W63045  13.653   6.860   3.868
90786W        W63046   5.255  27.610  14.299
90787W        W63047  31.593   5.776  12.348
90788W        W63048  37.031  42.381   4.703
90789W        W63049  39.007  40.845   2.777
90790W        W63050  11.331   9.357  10.916
90791W        W63051  24.007  22.040  11.477
90792W        W63052   7.709  34.476   0.282
90793W        W63053  40.325  21.153  13.021
90794W        W63054  35.090  32.138  12.579
90795W        W63055   3.857   0.313  13.364
90796W        W63056  27.626  44.350  13.313
90797W        W63057   9.395  40.357   0.361
90798W        W63058  22.180   8.198   4.790
90799W        W63059  41.974   5.364   3.815
90800W        W63060  40.853  41.459  14.385
90801W        W63061  31.605  39.544  13.520
90802W        W63062   2.827   6.908  10.584
90803W        W63063  41.407  41.856  11.067
90804W        W63064  23.545  33.406  14.888
90805W        W63065  44.416   2.381  10.141
90806W        W63066  13.637  13.629   4.711
90807W        W63067  31.052  31.404   4.697
90808W        W63068  43.855  21.082   2.251
90809W        W63069  26.092  37.029   1.261
90810W        W63070  19.703  15.269   3.365
90811W        W63071  23.237  43.003   4.122
90812W        W63072  33.016  19.212   3.277
90813W        W63073   9.277  17.799   3.362
90814W        W63074   5.738   6.259  11.985
90815W        W63075  18.068  39.008  11.007
90816W        W63076  10.276  35.027   3.344
90817W        W63077  32.029  14.750   5.290
90818W        W63078  44.862  12.689  14.006
90819W        W63079  14.744  10.871  13.832
90820W        W63080  11.683   0.911  12.488
90821W        W63081  30.958   2.355   3.693
90822W        W63082  40.404  20.145   1.762
90823W        W63083  26.516  24.559  10.887
90824W        W63084  43.775  43.322   2.384
90825W        W63085  24.512  14.156  12.446
90826W        W63086  26.681  31.939  14.870
90827W        W63087  16.237  36.873   0.369
90828W        W63088  14.181  22.170  10.088
90829W        W63089  32.442  29.160   0.927
90830W        W63090  20.131  13.726   3.360
90831W        W63091  10.854  20.543  12.025
90832W        W63092  18.248   1.286  11.477
90833W        W63093  38.511   2.787   1.868
90834W        W63094  40.339  42.417   4.254
90835W        W63095  17.556  11.182   0.744
90836W        W63096  35.585  43.847   0.372
90837W        W63097  41.519  17.290   3.774
90838W        W63098  43.014   8.784   1.429
90839W        W63099  31.002  28.489   3.707
90840W        W63100   5.432  14.707   0.334
90841W        W63101  42.889  32.465   0.448
90842W        W63102  42.906   3.250  11.446
90843W        W63103  39.851   3.939  13.036
90844W        W63104   8.758  34.575  10.543
90845W        W63105  40.942  30.470  13.482
90846W        W63106  39.833  31.500   0.877
90847W        W63107  14.593  32.051   4.670
90848W        W63108   6.357  14.233   2.393
90849W        W63109  21.607   3.835  12.022
90850W        W63110  38.010  16.201  13.465
90851W        W63111  13.120   4.801   0.894
90852W        W63112  42.420   9.291   0.334
90853W        W63113   5.745  17.627   4.745
90854W        W63114  31.519  11.333  12.981
90855W        W63115  17.240   1.781  14.922
90856W        W63116  30.916  26.160  12.093
90857W        W63117   4.297   3.744   1.362
90858W        W63118  41.036  36.474   2.876
90859W        W63119  32.580  32.523  11.377
90860W        W63120  35.092  40.380  10.529
90861W        W63121  11.665  29.570   5.743
90862W        W63122  28.548  14.223   4.317
90863W        W63123  36.392   8.760   4.798
90864W        W63124  37.974  21.193   3.816
90865W        W63125  39.468  30.598  13.040
90866W        W63126  29.151   2.829   0.882
90867W        W63127  37.453   9.724   5.715
90868W        W63128   0.960  14.220   0.851
90869W        W63129  18.755  42.383  12.878
90870W        W63130  38.351  22.575   1.299
90871W        W63131   3.746  17.176  11.923
90872W        W63132  28.446  11.659  14.954
90873W        W63133  37.880  32.035   3.664
90874W        W63134   3.953   2.410   4.649
90875W        W63135   9.837  20.202   4.765
90876W        W63136  11.234  24.087   2.316
90877W        W63137  16.695  29.470   1.737
90878W        W63138  36.076  28.535  13.349
90879W        W63139  19.147  17.210  14.383
90880W        W63140   8.162  16.633  10.448
90881W        W63141   2.943   7.307   0.345
90882W        W63142  23.541  22.607   4.710
90883W        W63143  27.144  14.646  14.925
90884W        W63144  35.919   9.216   4.619
90885W        W63145  17.576  24.156  10.918
90886W        W63146  43.014  24.573  14.449
90887W        W63147  25.705  10.722   0.846
90888W        W63148  32.629  14.095   3.215
90889W        W63149  15.244   3.810  14.867
90890W        W63150  38.031  24.541  11.883
90891W        W63151  24.485  14.156   4.329
90892W        W63152  15.246  36.051   1.352
90893W        W63153   9.781  13.636   3.747
90894W        W63154  17.783   7.405  14.899
90895W        W63155   2.378  32.983  12.471
90896W        W63156  34.974  19.575   2.335
90897W        W63157  44.000  33.958  12.431
90898W        W63158  22.191  29.160   3.856
90899W        W63159  21.643  17.107   1.889
90900W        W63160  10.801  17.116   1.820
90901W        W63161  35.500  13.343   1.706
90902W        W63162   0.349   4.409  13.818
90903W        W63163   2.727  16.749   2.198
90904W        W63164  31.493  24.000   2.695
90905W        W63165  11.277  32.484  11.557
90906W        W63166  11.315   3.454   0.293
90907W        W63167   4.322  39.552   0.299
90908W        W63168   1.831  24.216   1.345
90909W        W63169  43.276  28.616   1.405
90910W        W63170   2.365  18.653  11.430
90911W        W63171   9.871  11.721   0.740
90912W        W63172  31.637  24.056   0.431
90913W        W63173  42.502  30.079  12.860
90914W        W63174  30.658   4.748  10.531
90915W        W63175  39.514  18.175  14.958
90916W        W63176  18.632  44.847   0.419
90917W        W63177  39.331  44.952  13.035
90918W        W63178  37.572  23.635   3.689
90919W        W63179  39.809  17.672  12.576
90920W        W63180  43.374  33.592  11.375
90921W        W63181  43.965  11.771  12.856
90922W        W63182  32.087  13.273  14.774
90923W        W63183   8.387  20.205  13.437
90924W        W63184  36.502   6.395  11.061
90925W        W63185  21.147  12.304  10.578
90926W        W63186  11.756  37.036  12.471
90927W        W63187  31.923  23.564   0.447
90928W        W63188  32.608  16.774  11.603
90929W        W63189   9.652  42.840   4.238
90930W        W63190   9.730   4.860   2.222
90931W        W63191  15.144  32.073  12.384
90932W        W63192  13.216  43.993   3.338
90933W        W63193  40.883  23.003   4.308
90934W        W63194  28.585  26.151   0.379
90935W        W63195   8.723  40.413  12.538
90936W        W63196  26.004  18.659   3.770
90937W        W63197  39.488  12.823   0.949
90938W        W63198  39.931  27.542   4.349
90939W        W63199  27.523  41.340  10.016
90940W        W63200   8.734  21.180  12.344
90941W        W63201  19.618  27.048   4.700
90942W        W63202   4.231  20.613   3.637
90943W        W63203  31.095  31.536   5.164
90944W        W63204  35.527   5.341  11.951
90945W        W63205  14.258   0.393  14.476
90946W        W63206  38.903  44.483   4.339
90947W        W63207  36.876  10.679   0.266
90948W        W63208  36.065  34.905  12.960
90949W        W63209  39.505  37.538  13.438
90950W        W63210  27.090  27.617   1.250
90951W        W63211  39.059  33.522  13.316
90952W        W63212   8.848  11.361   4.673
90953W        W63213   3.802  30.610  12.563
90954W        W63214   6.219  21.134  12.888
90955W        W63215  42.435  34.924   4.775
90956W        W63216  23.679  32.543   4.613
90957W        W63217  17.285  33.405   2.679
90958W        W63218  14.721  31.139   4.215
90959W        W63219  25.653  19.129  13.502
90960W        W63220  18.607  19.237   3.811
90961W        W63221  43.349  40.307   1.928
90962W        W63222  43.876  35.962   2.408
90963W        W63223  23.163  22.555  12.874
90964W        W63224   4.447  10.834   3.822
90965W        W63225  11.824  14.686   3.849
90966W        W63226   2.383  15.187  14.862
90967W        W63227  10.297  30.612   0.908
90968W        W63228  40.856  26.479   1.754
90969W        W63229  24.027  24.114   1.709
90970W        W63230  39.344  21.254   3.769
90971W        W63231  38.990  26.613  14.837
90972W        W63232  39.891   0.493  11.407
90973W        W63233  29.936  15.633  11.384
90974W        W63234  28.152   5.324  10.518
90975W        W63235   6.799  43.829  10.999
90976W        W63236  25.476  26.600  14.323
90977W        W63237  23.209  28.086  14.828
90978W        W63238   4.302  24.539  12.548
90979W        W63239  32.044  36.928  12.868
90980W        W63240  20.149   1.259   0.773
90981W        W63241   2.790  12.158  13.379
90982W        W63242   9.366  27.060  12.042
90983W        W63243  35.461  11.344  13.968
90984W        W63244  32.634  40.013  11.077
90985W        W63245  32.130  17.748   3.661
90986W        W63246   8.859  18.603  12.557
90987W        W63247  34.380  34.076   0.807
90988W        W63248   0.864  18.769   1.931
90989W        W63249   0.331  20.176  14.478
90990W        W63250   2.357  20.261   1.727
90991W        W63251  30.137  10.357  14.312
90992W        W63252  14.252  39.540   4.229
90993W        W63253  18.746  20.677   1.744
90994W        W63254  11.192  36.546   3.836
90995W        W63255  43.868  13.307  12.926
90996W        W63256  37.926  26.965  11.979
90997W        W63257  19.133   4.319  12.970
90998W        W63258  33.539  44.357  12.880
90999W        W63259   5.380   7.897   1.782
91000W        W63260  38.836  24.212   1.258
91001W        W63261  14.113   5.215  14.401
91002W        W63262  36.033  34.483  14.779
91003W        W63263   3.405  30.936   0.937
91004W        W63264  30.129   3.836  12.533
91005W        W63265  16.800   5.931   3.170
91006W        W63266  25.066   8.169   0.423
91007W        W63267  31.625   4.408  14.955
91008W        W63268  23.005  34.023  14.901
91009W        W63269  19.758  44.293  11.450
91010W        W63270  32.016   8.845   4.604
91011W        W63271  14.791   2.751   3.654
91012W        W63272  25.526  37.557   3.270
91013W        W63273  26.042   9.323   0.477
91014W        W63274  10.841  31.109  10.924
91015W        W63275  26.087   1.934   3.230
91016W        W63276  40.309  29.117   0.967
91017W        W63277  16.129  43.873   1.823
91018W        W63278  23.577  42.810   1.324
91019W        W63279  33.422  35.568  12.044
91020W        W63280  14.758  12.697  12.917
91021W        W63281  11.154  34.505   0.423
91022W        W63282  15.153  42.850  10.965
91023W        W63283  13.749  16.799  10.028
91024W        W63284  44.907  40.019  13.947
91025W        W63285  11.803  18.237   3.250
91026W        W63286  40.421  12.199  12.882
91027W        W63287   3.837  19.166   4.268
91028W        W63288  36.582  44.274  14.394
91029W        W63289   5.428  11.712  11.872
91030W        W63290  24.101   0.955   4.712
91031W        W63291   5.292   0.283  12.913
91032W        W63292  32.013   8.182   1.898
91033W        W63293  13.761  26.608   1.927
91034W        W63294  34.872  16.619  14.972
91035W        W63295  37.502   5.422  14.345
91036W        W63296  25.064  20.714  12.025
91037W        W63297  31.578  12.836  11.989
91038W        W63298  31.031   5.802  12.824
91039W        W63299  37.072  26.522  12.462
91040W        W63300  36.003  23.054   1.903
91041W        W63301  14.669   5.904   3.185
91042W        W63302   5.871  41.041   1.742
91043W        W63303  37.395  11.705   3.799
91044W        W63304  28.459  44.985  13.394
91045W        W63305  16.148  11.348  14.879
91046W        W63306  31.416  13.206  14.876
91047W        W63307  30.622   9.717   2.302
91048W        W63308  42.950  23.011  10.897
91049W        W63309  19.775   0.376  10.911
91050W        W63310  16.729  12.704  12.094
91051W        W63311  35.854  30.984  12.068
91052W        W63312  36.848  37.034   2.895
91053W        W63313  42.343  17.111  10.577
91054W        W63314  24.573   3.840  12.361
91055W        W63315  16.204  41.802  14.290
91056W        W63316  33.607   8.690   2.855
91057W        W63317  16.308  35.419  12.520
91058W        W63318  22.108  36.919  12.346
91059W        W63319  18.181  27.580  13.355
91060W        W63320  42.437  22.202  10.633
91061W        W63321  32.962  24.628   4.320
91062W        W63322  22.154  21.239   0.816
91063W        W63323  14.154   2.772  14.826
91064W        W63324   0.818   5.801  12.052
91065W        W63325  40.464  22.599   3.691
91066W        W63326  36.406   3.346   3.324
91067W        W63327   6.423  44.412  13.833
91068W        W63328  42.355  29.140   0.390
91069W        W63329  27.951  30.581   9.499
91070W        W63330   3.933  30.562  14.860
91071W        W63331   5.805   6.763   1.907
91072W        W63332  35.883   2.878  12.961
91073W        W63333   0.478  19.582   2.196
91074W        W63334  42.434   4.876  13.338
91075W        W63335  30.087  33.881  12.390
91076W        W63336  40.819  15.172  11.488
91077W        W63337   8.403  39.059   3.175
91078W        W63338  28.673  43.777  10.973
91079W        W63339  42.002  16.177  13.477
91080W        W63340   5.847   5.439   1.908
91081W        W63341  34.472  22.690  10.554
91082W        W63342  31.150  18.237  12.832
91083W        W63343  44.294  44.266  13.960
91084W        W63344   7.676   3.381  11.124
91085W        W63345  36.433  18.249  12.839
91086W        W63346  44.818   2.358   4.297
91087W        W63347   3.736  43.903   3.260
91088W        W63348  36.929  18.719  14.875
91089W        W63349  40.997   5.853  14.322
91090W        W63350  31.633  26.110   4.784
91091W        W63351  32.565  27.525   0.965
91092W        W63352  39.883   3.782  13.543
91093W        W63353  12.709   2.849  12.408
91094W        W63354  19.152  36.987   0.327
91095W        W63355  16.254   4.364  10.598
91096W        W63356  32.126  22.160  13.058
91097W        W63357  16.653  18.635   2.797
91098W        W63358  11.744  32.395   1.298
91099W        W63359   6.263  41.967  11.907
91100W        W63360  18.089  23.710  14.313
91101W        W63361  33.034  41.353   1.915
91102W        W63362  19.647  15.726   1.260
91103W        W63363  19.682   3.245  13.498
91104W        W63364  36.400  25.613   3.204
91105W        W63365  14.678  19.614   2.405
91106W        W63366  29.565  11.186  13.349
91107W        W63367  43.325  20.615   0.287
91108W        W63368  33.087  18.082  14.840
91109W        W63369  10.740  13.159  12.570
91110W        W63370  19.665  44.842   4.777
91111W        W63371  23.236   3.830   2.872
91112W        W63372  34.444   5.321   2.242
91113W        W63373  25.150  13.237  13.829
91114W        W63374   2.313  36.940  10.484
91115W        W63375  32.558  31.402   0.371
91116W        W63376   0.276  44.279  11.593
91117W        W63377  17.217   8.826   0.364
91118W        W63378  37.495  22.031  13.862
91119W        W63379  18.653  13.180   2.362
91120W        W63380  23.543  39.982  10.452
91121W        W63381  34.119  21.029   2.746
91122W        W63382  17.667  42.872   0.845
91123W        W63383  38.883  12.193  13.516
91124W        W63384  21.093  35.567   4.124
91125W        W63385   9.292  34.959   4.675
91126W        W63386  15.661  27.526   1.390
91127W        W63387  32.535   1.237  12.505
91128W        W63388  41.374  20.038   5.229
91129W        W63389  12.128  16.223  11.104
91130W        W63390  24.993  18.630  11.012
91131W        W63391  16.315  41.494   2.743
91132W        W63392  27.969  13.757  14.433
91133W        W63393  35.077   6.211  12.015
91134W        W63394  41.986  23.164  10.899
91135W        W63395  25.472   5.688   0.944
91136W        W63396  36.406  21.181  11.887
91137W        W63397  44.344  41.489  10.980
91138W        W63398  13.203  12.653   1.713
91139W        W63399   1.795  22.673  11.099
91140W        W63400  29.984  17.095   0.278
91141W        W63401  21.587  14.262  11.998
91142W        W63402  20.586   1.326  14.800
91143W        W63403  14.693  35.945   9.925
91144W        W63404  44.783  29.656   0.295
91145W        W63405  37.860  24.531   2.807
91146W        W63406   6.399  39.336   1.708
91147W        W63407  33.443  13.723  12.943
91148W        W63408  19.619  44.895   3.308
91149W        W63409  12.165   6.908   3.851
91150W        W63410  39.917  14.191  10.626
91151W        W63411  29.490  16.223  10.632
91152W        W63412  36.391  30.422   5.239
91153W        W63413  10.326   1.466  10.936
91154W        W63414   0.831   1.860   4.297
91155W        W63415  22.644  16.618   4.126
91156W        W63416  41.800  40.033  12.053
91157W        W63417  10.330   6.739   0.845
91158W        W63418  29.618  43.284   2.338
91159W        W63419  28.126  33.064   0.304
91160W        W63420  14.306  23.162   3.254
91161W        W63421  14.750  41.832  11.952
91162W        W63422   5.720  18.291  11.904
91163W        W63423  22.229  22.728   2.294
91164W        W63424  30.551  42.295   1.421
91165W        W63425   5.752  25.012   3.256
91166W        W63426  10.782  10.782  11.529
91167W        W63427  10.805  15.155  11.857
91168W        W63428   5.308  25.024   3.734
91169W        W63429  29.086   4.904  11.944
91170W        W63430  20.113  23.555  14.799
91171W        W63431  11.631  17.177   2.674
91172W        W63432  37.482  19.064   2.687
91173W        W63433   3.395  37.085  11.466
91174W        W63434   3.221  42.800  14.277
91175W        W63435  36.965  41.989  13.525
91176W        W63436   4.768   3.737  14.812
91177W        W63437  29.557  22.209   0.383
91178W        W63438  17.070  26.105   0.780
91179W        W63439  41.961  21.162  12.544
91180W        W63440   5.194  11.714  12.545
91181W        W63441  15.705  29.095  10.080
91182W        W63442  16.771  18.054  12.928
91183W        W63443   6.792   8.242   3.718
91184W        W63444   2.849  21.721   0.447
91185W        W63445  36.890  37.400   2.326
91186W        W63446  37.896  10.279  10.565
91187W        W63447  15.690  17.769   1.220
91188W        W63448  37.353   4.372   3.630
91189W        W63449  10.824   4.861  10.921
91190W        W63450  33.622  43.989  13.336
91191W        W63451  34.591  11.155  13.814
91192W        W63452  37.560   6.220   4.752
91193W        W63453  35.407  23.661  13.452
91194W        W63454   5.396  43.867  13.336
91195W        W63455   4.313  15.199   0.436
91196W        W63456  23.545  43.511   1.825
91197W        W63457  32.142  16.760  12.008
91198W        W63458  40.474  36.094   4.808
91199W        W63459   3.926  25.473  12.401
91200W        W63460  34.940  32.628   2.200
91201W        W63461  39.881  29.988  11.087
91202W        W63462  17.193  44.788   4.675
91203W        W63463  10.702  39.012   3.724
91204W        W63464  18.096  15.774  11.035
91205W        W63465  14.691   9.747   0.930
91206W        W63466   7.185   7.182   1.824
91207W        W63467   5.785  37.380   1.255
91208W        W63468  30.973  35.867   0.362
91209W        W63469  24.052  24.107   1.296
91210W        W63470   2.796   9.646  14.761
91211W        W63471  12.656   8.754  14.276
91212W        W63472  38.336  11.305   4.308
91213W        W63473  29.519  23.073  13.033
91214W        W63474  11.346  24.218   1.797
91215W        W63475  32.903   6.385   1.309
91216W        W63476  28.173  32.636  10.064
91217W        W63477  11.229   7.877   0.435
91218W        W63478  37.054  39.441  12.956
91219W        W63479  22.557  38.968   3.695
91220W        W63480   1.751  28.526  12.097
91221W        W63481   8.171  22.524   4.771
91222W        W63482   5.375  43.918   1.839
91223W        W63483  27.010  38.948   1.449
91224W        W63484  42.476  17.570  10.566
91225W        W63485  23.537  21.254   3.245
91226W        W63486  16.675  16.696  14.948
91227W        W63487   8.688  29.604  12.509
91228W        W63488   7.841  16.783  11.597
91229W        W63489  24.076  38.852  10.439
91230W        W63490  24.015  13.800  12.359
91231W        W63491  11.333  34.490   1.742
91232W        W63492  44.328  11.809   3.384
91233W        W63493   9.165   8.161  13.865
91234W        W63494  19.708   6.372  14.825
91235W        W63495  11.276   9.210   3.276
91236W        W63496   2.822   0.893   2.403
91237W        W63497  35.589  43.838   4.614
91238W        W63498  27.644  29.970  10.474
91239W        W63499  28.440   3.835  13.810
91240W        W63500  12.703   6.682  13.482
91241W        W63501  23.632  34.480  10.493
91242W        W63502   6.723  41.829   3.211
91243W        W63503  22.101  36.026  10.508
91244W        W63504  42.317   0.418   1.349
91245W        W63505  34.476  23.562  14.967
91246W        W63506  24.215   0.278  10.572
91247W        W63507  40.887  13.214   1.906
91248W        W63508  31.091   0.480   0.795
91249W        W63509  35.027  35.475   0.477
91250W        W63510  27.550   2.844   2.827
91251W        W63511  43.355  40.327  13.516
91252W        W63512   2.296  43.991  12.383
91253W        W63513  31.063  39.479  12.892
91254W        W63514  24.530  43.816  11.453
91255W        W63515  19.273  21.067  14.383
91256W        W63516   0.313   9.657  11.962
91257W        W63517  12.266  38.548   1.333
91258W        W63518  38.876  37.869   2.831
91259W        W63519  13.253  20.123   3.813
91260W        W63520  31.589  29.472  12.844
91261W        W63521  26.113  26.527  10.940
91262W        W63522   3.311  29.148  12.360
91263W        W63523   5.362   1.377   0.886
91264W        W63524  22.031  26.079  11.442
91265W        W63525   1.292  42.972   3.740
91266W        W63526  14.313  27.612  14.807
91267W        W63527  27.656  13.230  12.996
91268W        W63528  23.631  39.054   3.745
91269W        W63529  44.427  11.836   4.138
91270W        W63530   1.963   5.879  10.563
91271W        W63531  21.207   3.283  10.631
91272W        W63532  22.052   8.277  13.830
91273W        W63533   0.459  20.567  10.631
91274W        W63534  42.962  15.322  14.495
91275W        W63535   4.294  44.972   4.789
91276W        W63536  32.945  24.564  11.999
91277W        W63537  41.824  39.887  10.433
91278W        W63538  34.870   2.730   2.836
91279W        W63539  18.728  43.336   0.898
91280W        W63540  33.045  27.679   2.677
91281W        W63541  43.891  38.843   1.344
91282W        W63542  36.560   2.879   3.373
91283W        W63543  41.955   4.749  12.937
91284W        W63544  31.960  33.044  10.081
91285W        W63545  26.663  34.608   2.728
91286W        W63546  31.559  17.182  14.463
91287W        W63547  23.709   4.226   2.369
91288W        W63548  16.123  21.687   4.317
91289W        W63549   3.399  34.513  10.525
91290W        W63550  28.662  19.537  14.944
91291W        W63551  13.769   4.738  10.017
91292W        W63552   1.324  19.597   0.962
91293W        W63553   6.184   8.277   0.325
91294W        W63554  19.274  32.478  11.495
91295W        W63555  30.532   9.798  12.532
91296W        W63556  24.688  27.031  11.418
91297W        W63557  32.461  18.255  10.918
91298W        W63558  19.698  32.997  11.539
91299W        W63559  26.190   0.842  14.902
91300W        W63560  21.182  25.985  13.362
91301W        W63561  20.702  29.100  12.341
91302W        W63562   8.828  19.195  12.419
91303W        W63563  12.193   1.262   1.749
91304W        W63564   2.745  22.553  14.961
91305W        W63565  36.363   9.380  13.892
91306W        W63566   2.965  30.984  10.957
91307W        W63567  13.722  13.709   2.879
91308W        W63568  33.950  11.357  11.392
91309W        W63569  27.446  23.225   2.378
91310W        W63570  36.519  11.250  12.413
91311W        W63571   0.385  20.090   0.359
91312W        W63572  43.011  37.952   4.644
91313W        W63573  16.698  33.971  14.767
91314W        W63574  37.468  24.658  10.432
91315W        W63575  31.442   9.285   4.257
91316W        W63576  35.393  32.569   0.397
91317W        W63577  14.150  42.847  14.986
91318W        W63578  43.331  18.161  10.548
91319W        W63579  17.253  16.589   2.382
91320W        W63580  42.343   0.919  13.931
91321W        W63581   7.859  11.748   4.699
91322W        W63582  17.556  39.958  10.594
91323W        W63583  33.571  38.051   1.813
91324W        W63584  16.240  36.370   4.666
91325W        W63585  27.002  20.164  10.481
91326W        W63586  41.398  17.670  13.403
91327W        W63587   7.805  11.178   4.150
91328W        W63588  42.973   5.768   2.179
91329W        W63589  21.240  41.431   2.189
91330W        W63590  30.147   2.404   3.770
91331W        W63591  31.609  10.222   3.679
91332W        W63592  15.318  22.126   3.762
91333W        W63593  40.498   1.316   2.831
91334W        W63594  11.728  44.777   4.294
91335W        W63595  21.193  19.589  11.605
91336W        W63596  14.177  40.472   2.841
91337W        W63597  34.969  38.927   4.704
91338W        W63598  28.936  11.717  11.969
91339W        W63599   2.398  28.168   0.462
91340W        W63600  42.516   5.818  14.836
91341W        W63601  27.474  23.113   3.339
91342W        W63602  40.999  30.495  10.429
91343W        W63603  14.766   9.393   3.190
91344W        W63604  32.962  10.147  12.432
91345W        W63605  33.937   8.229   2.879
91346W        W63606  23.733  42.862  11.117
91347W        W63607   9.814  30.654   0.257
91348W        W63608  33.109   0.957  13.392
91349W        W63609  31.145  20.038  14.005
91350W        W63610  19.115  16.794  13.380
91351W        W63611  22.724  12.760  14.855
91352W        W63612  38.070   9.313   4.819
91353W        W63613  39.455  29.507  14.277
91354W        W63614  38.464  44.378   1.911
91355W        W63615  28.496  33.121   2.267
91356W        W63616  17.120  19.669  11.984
91357W        W63617  11.724  43.434  14.394
91358W        W63618   9.211  36.003  11.556
91359W        W63619   8.198  19.203  14.900
91360W        W63620   1.312  18.211  13.356
91361W        W63621  37.912  18.203  10.423
91362W        W63622  18.277  44.851   2.415
91363W        W63623  10.673  13.153   3.707
91364W        W63624  30.568   0.275   4.813
91365W        W63625   1.780  18.072   3.858
91366W        W63626  37.429  39.390  14.373
91367W        W63627  24.052  10.262  12.094
91368W        W63628  16.313  38.549  12.092
91369W        W63629  20.532  24.580   1.231
91370W        W63630  28.665  37.454   3.235
91371W        W63631  36.954  14.124   3.717
91372W        W63632   6.307  37.358  10.008
91373W        W63633  22.628   7.825   0.255
91374W        W63634  31.982   5.355  14.848
91375W        W63635  31.445  20.544  11.599
91376W        W63636  37.831  28.476   1.387
91377W        W63637   6.839   7.735   0.850
91378W        W63638  23.578  31.418  12.882
91379W        W63639  11.688  12.757   3.818
91380W        W63640  36.556  25.136   3.220
91381W        W63641   3.235  11.281   1.704
91382W        W63642   4.708  22.738   1.740
91383W        W63643  20.188  11.173   2.702
91384W        W63644  30.031  34.518   1.431
91385W        W63645   8.356  44.357  14.768
91386W        W63646  26.672  22.090   4.173
91387W        W63647  41.421  38.902   1.704
91388W        W63648  13.647  36.922  13.425
91389W        W63649  12.220  15.760  11.031
91390W        W63650  42.905  21.622   4.826
91391W        W63651  28.470  44.860  11.484
91392W        W63652  33.030  37.349  10.976
91393W        W63653   9.853   4.775  10.961
91394W        W63654  10.681  16.137   2.789
91395W        W63655  36.952  17.135   0.363
91396W        W63656  30.596  43.007  14.840
91397W        W63657  21.064   2.914  13.966
91398W        W63658  12.276  11.369   4.292
91399W        W63659  32.094   1.845  12.048
91400W        W63660   3.392  44.970  14.761
91401W        W63661   5.835  17.232   2.325
91402W        W63662  16.187  32.035   3.384
91403W        W63663  42.495  44.786  12.053
91404W        W63664  36.471  43.382  13.009
91405W        W63665  13.347   0.814  13.376
91406W        W63666  34.604  34.115  14.483
91407W        W63667   2.275   5.252  10.576
91408W        W63668  25.658  31.483   2.211
91409W        W63669  43.305  35.867  12.046
91410W        W63670  43.361  13.750  13.467
91411W        W63671  41.447  32.544  14.320
91412W        W63672  39.874  15.140  13.446
91413W        W63673  37.857  10.295   0.424
91414W        W63674  13.659  30.634  11.581
91415W        W63675  41.385  13.693   1.434
91416W        W63676  18.571   4.719   1.431
91417W        W63677  29.117  23.235  12.490
91418W        W63678   3.424  20.107  10.935
91419W        W63679  17.660  16.194   4.681
91420W        W63680   0.427   4.862   0.311
91421W        W63681  27.145   9.302   0.875
91422W        W63682   3.790   6.769  11.585
91423W        W63683  35.594   6.899  11.454
91424W        W63684   0.459  10.184  13.826
91425W        W63685  17.560   1.920   1.830
91426W        W63686  20.164  31.934   4.704
91427W        W63687  29.018  37.071   2.686
91428W        W63688  12.351   0.829   2.807
91429W        W63689  28.639  20.763  12.370
91430W        W63690  29.118  33.476   5.263
91431W        W63691  17.219  44.415  11.954
91432W        W63692  34.384  33.925   3.799
91433W        W63693   2.937   5.390  13.059
91434W        W63694  40.341   5.426  10.963
91435W        W63695  14.710  40.895  13.827
91436W        W63696  20.742  20.722  12.988
91437W        W63697  20.622  27.539  14.838
91438W        W63698   3.955   8.778   4.160
91439W        W63699  26.171   3.233  12.355
91440W        W63700  28.030  29.004   3.649
91441W        W63701  30.924  29.579   1.320
91442W        W63702   8.709  28.140  13.855
91443W        W63703  25.713  26.457   9.945
91444W        W63704  37.364  44.286  10.449
91445W        W63705   8.323  13.732   0.294
91446W        W63706  27.049  15.145  13.799
91447W        W63707  31.436   4.745   1.278
91448W        W63708  16.587  40.943  13.848
91449W        W63709  26.541   3.717   2.787
91450W        W63710  37.860  10.781   9.440
91451W        W63711   7.874   2.851  14.992
91452W        W63712   9.316  44.405   4.650
91453W        W63713  43.878  14.224   0.953
91454W        W63714  38.849  32.963   4.813
91455W        W63715  39.945   9.360   1.836
91456W        W63716  16.305  21.583  13.936
91457W        W63717   4.753  24.120   4.328
91458W        W63718   7.388  28.963   3.167
91459W        W63719  42.819  44.390  11.926
91460W        W63720  13.300  19.579  11.029
91461W        W63721  24.175  38.494   1.260
91462W        W63722   8.889  20.145  10.540
91463W        W63723  14.742   3.741  14.360
91464W        W63724  24.040  33.525  12.505
91465W        W63725  21.107  44.896   3.300
91466W        W63726  17.683  21.043   2.349
91467W        W63727   0.851   6.806   1.439
91468W        W63728  31.978  11.849   1.929
91469W        W63729  11.722   9.846   0.902
91470W        W63730  27.556   0.790  11.501
91471W        W63731  18.636   9.695  12.876
91472W        W63732  21.754  44.879  10.616
91473W        W63733  41.984  11.766  10.451
91474W        W63734  11.316  24.656   1.844
91475W        W63735   6.190   7.267   3.697
91476W        W63736  33.472   2.944   1.931
91477W        W63737  35.010  42.819  14.442
91478W        W63738   2.314  21.726   3.278
91479W        W63739  15.295  25.217   4.680
91480W        W63740  43.845  44.885   3.752
91481W        W63741  42.941   2.422   1.807
91482W        W63742  12.745   8.356   0.846
91483W        W63743  29.146   0.771  14.804
91484W        W63744  27.133   3.849  11.969
91485W        W63745  37.468  13.252   1.321
91486W        W63746  20.186   6.211  14.332
91487W        W63747   6.325   9.288   0.336
91488W        W63748  16.811  44.358  14.282
91489W        W63749   4.906  27.547   0.955
91490W        W63750  12.850  36.862   1.272
91491W        W63751  17.100  23.985   9.945
91492W        W63752  33.575  28.586   2.200
91493W        W63753  21.598  23.087  11.548
91494W        W63754  27.068  13.665   2.712
91495W        W63755  17.072  40.404   1.375
91496W        W63756   4.803  40.370  11.446
91497W        W63757  29.075   0.388  12.509
91498W        W63758  36.087  36.876  12.087
91499W        W63759  32.039  19.231  13.037
91500W        W63760  32.418  20.052  10.431
91501W        W63761  34.546  41.362  13.497
91502W        W63762  31.049  17.267   3.634
91503W        W63763  27.568   1.958   4.753
91504W        W63764  30.975   7.364  14.973
91505W        W63765  22.126   1.913  13.054
91506W        W63766  11.331   9.314   4.669
91507W        W63767  22.212   5.401  12.032
91508W        W63768  41.519  18.734   4.284
91509W        W63769   1.305  40.482  10.644
91510W        W63770  31.595  34.459   4.775
91511W        W63771  41.390   8.874  11.061
91512W        W63772  18.744   2.962   3.800
91513W        W63773   3.291  34.427  14.788
91514W        W63774  25.618  26.635   1.378
91515W        W63775  16.109  14.173  12.478
91516W        W63776  38.003  41.398   2.292
91517W        W63777  18.665  14.110  10.437
91518W        W63778  20.257  20.542  14.429
91519W        W63779  33.543  24.505  14.337
91520W        W63780  11.726  16.784  13.042
91521W        W63781   6.187   2.229  11.879
91522W        W63782  33.613  33.510  11.866
91523W        W63783  10.173  22.035  13.004
91524W        W63784  18.759  14.266   3.679
91525W        W63785  36.416  28.032  10.490
91526W        W63786  25.506   9.810   0.935
91527W        W63787  35.487  14.249   4.224
91528W        W63788  31.955  10.747   3.264
91529W        W63789  39.034   8.818  11.970
91530W        W63790  32.454  26.022   4.291
91531W        W63791   4.921   8.845   3.180
91532W        W63792   8.218  10.297   2.255
91533W        W63793  44.352  36.924  11.529
91534W        W63794  33.915  40.803  10.577
91535W        W63795   8.191  43.311  11.518
91536W        W63796  42.484   8.378  10.997
91537W        W63797   9.807  37.008   3.168
91538W        W63798  10.166  19.742   1.863
91539W        W63799  31.950  33.392  13.539
91540W        W63800   2.346   8.801   0.816
91541W        W63801  18.098  41.949  11.565
91542W        W63802  23.646   8.164   2.696
91543W        W63803  20.081   8.206   5.566
91544W        W63804  16.111  41.419   5.290
91545W        W63805  30.162  42.376   3.309
91546W        W63806   8.164  16.748   2.684
91547W        W63807   7.211  16.211  14.420
91548W        W63808  28.170   1.475  10.428
91549W        W63809   6.232  40.027  11.430
91550W        W63810  22.163  25.641  14.294
91551W        W63811   6.211  34.530  13.413
91552W        W63812  42.336   7.777   4.818
91553W        W63813   7.879  28.003   5.667
91554W        W63814   5.710  44.800  11.517
91555W        W63815  35.858  14.181  12.438
91556W        W63816  26.981  19.232  14.772
91557W        W63817  10.645   1.395   1.882
91558W        W63818  17.262  40.802  12.059
91559W        W63819  42.317   7.274   0.249
91560W        W63820  40.841  11.353   2.254
91561W        W63821  31.979   1.883   2.286
91562W        W63822  11.371  31.580  14.428
91563W        W63823  31.550   5.831   4.660
91564W        W63824  13.234  43.507  13.822
91565W        W63825   9.150  38.366  13.385
91566W        W63826  43.435  17.662   0.758
91567W        W63827  43.497  18.293   0.875
91568W        W63828  30.528   5.922   4.273
91569W        W63829  39.064  34.451  11.873
91570W        W63830  14.315  18.595   2.207
91571W        W63831  44.855  37.345  10.570
91572W        W63832  43.286  22.055  13.025
91573W        W63833  22.619  11.293  12.482
91574W        W63834  37.577  22.059  11.080
91575W        W63835  31.904  34.424  10.913
91576W        W63836  28.048  13.728  12.092
91577W        W63837  44.863   0.864   2.277
91578W        W63838  33.474  21.603   1.814
91579W        W63839  31.639  13.729  14.936
91580W        W63840  36.998   2.369   4.354
91581W        W63841  21.717  40.003   0.459
91582W        W63842   2.963  26.987   3.250
91583W        W63843  31.469  35.943  14.988
91584W        W63844  10.362  35.598  10.487
91585W        W63845  22.671  39.326  10.941
91586W        W63846  43.925   9.874   2.278
91587W        W63847   7.235  10.220  11.875
91588W        W63848  33.428  23.010  13.008
91589W        W63849   0.391  22.680  12.929
91590W        W63850  43.830  27.640  12.947
91591W        W63851  36.368  35.025   1.862
91592W        W63852  32.888  39.480  10.974
91593W        W63853  26.464   0.403   3.359
91594W        W63854  34.474  11.859  11.949
91595W        W63855  17.787  13.723   3.275
91596W        W63856  41.448   1.353  10.418
91597W        W63857   0.941  23.099  10.904
91598W        W63858  35.923   3.404  13.321
91599W        W63859  36.045  41.518  12.920
91600W        W63860  38.526  27.450  10.543
91601W        W63861   8.818   3.802   4.823
91602W        W63862  18.733  36.384   2.792
91603W        W63863  14.669   5.275   0.816
91604W        W63864  36.852   1.246   3.346
91605W        W63865  10.138  13.719  11.004
91606W        W63866  13.235   3.727  14.515
91607W        W63867  32.027  14.103   2.215
91608W        W63868  41.451  42.911  13.502
91609W        W63869  25.568   4.414  13.849
91610W        W63870  13.826  20.613   2.342
91611W        W63871   4.932  13.620   1.813
91612W        W63872   0.749   7.308   1.889
91613W        W63873  17.102   0.330  14.991
91614W        W63874  33.508  29.032  11.513
91615W        W63875   0.832  35.027  10.514
91616W        W63876  12.249  44.962   2.815
91617W        W63877   4.306  35.872  11.551
91618W        W63878  11.370  18.783   3.165
91619W        W63879  43.828  18.255   4.769
91620W        W63880  38.937  39.399  11.881
91621W        W63881  30.058  44.945  14.767
91622W        W63882  22.669   4.248  11.999
91623W        W63883  18.668  40.936  14.409
91624W        W63884   7.229  16.189   3.854
91625W        W63885  43.904  25.976  13.884
91626W        W63886  21.048  39.463   4.317
91627W        W63887  19.559  44.844  11.022
91628W        W63888  37.884  14.685  11.433
91629W        W63889   8.718  25.625   3.808
91630W        W63890  16.161  30.081   4.687
91631W        W63891  27.015  12.356   4.199
91632W        W63892  10.380  14.231  10.057
91633W        W63893  24.104  24.025   4.301
91634W        W63894  26.063  29.472  12.996
91635W        W63895   4.233   3.755  11.942
91636W        W63896  43.864  19.677   1.233
91637W        W63897  12.187  12.262   4.294
91638W        W63898   2.956  43.789   1.320
91639W        W63899  22.529   3.712  10.485
91640W        W63900  17.135  27.558  10.941
91641W        W63901  13.110   6.685  14.471
91642W        W63902  20.627   2.735  13.398
91643W        W63903  34.943   4.807  12.025
91644W        W63904  30.538  44.753  10.565
91645W        W63905  41.296  18.121  13.862
91646W        W63906  24.713  25.594  14.005
91647W        W63907  34.528  26.703  13.482
91648W        W63908  35.999  31.896  14.920
91649W        W63909  31.915  36.894   2.759
91650W        W63910  13.684  28.933   4.182
91651W        W63911  19.223  34.455   3.667
91652W        W63912  24.578   8.706   1.384
91653W        W63913   3.275   8.890   3.809
91654W        W63914  14.620  18.091   0.839
91655W        W63915   3.386  14.194  13.035
91656W        W63916  13.794  14.219  11.589
91657W        W63917   3.813  26.181   3.821
91658W        W63918  34.026  10.810  10.635
91659W        W63919   3.369   8.201  13.988
91660W        W63920   5.341  41.425   0.404
91661W        W63921   0.956   3.432  14.513
91662W        W63922   3.712  29.576   0.267
91663W        W63923  20.129   4.325  13.048
91664W        W63924  44.966   4.240   0.855
91665W        W63925  25.669   0.896  13.846
91666W        W63926  44.379  24.139   4.182
91667W        W63927   8.770   9.376  10.596
91668W        W63928   5.335  17.789  10.978
91669W        W63929  26.683  25.544  10.893
91670W        W63930  37.047   1.398  11.923
91671W        W63931  25.606  13.665  10.471
91672W        W63932  33.589  43.488  12.847
91673W        W63933  42.397  29.622   0.834
91674W        W63934  11.706  42.840  11.997
91675W        W63935  22.666  11.764   0.779
91676W        W63936  32.605  37.887   4.129
91677W        W63937   8.301  32.140   2.844
91678W        W63938  18.550  12.833  11.576
91679W        W63939   4.802   8.875   9.990
91680W        W63940   0.421  33.929   0.932
91681W        W63941  23.489  39.834   0.870
91682W        W63942  31.002  36.432  10.615
91683W        W63943  39.897   2.435  11.101
91684W        W63944   1.921   7.416   4.238
91685W        W63945  28.062  12.140   4.659
91686W        W63946  33.898  37.902  12.501
91687W        W63947  30.646  30.090   5.804
91688W        W63948   4.757  42.829   0.276
91689W        W63949  39.840   2.939  11.110
91690W        W63950  40.315  33.942   4.758
91691W        W63951  43.420  35.880   2.288
91692W        W63952   8.386  25.613   2.405
91693W        W63953  24.067  35.434   0.904
91694W        W63954  23.562  12.854   3.347
91695W        W63955  41.888  14.248   2.883
91696W        W63956  26.549   8.756  13.431
91697W        W63957  34.529   6.742  13.793
91698W        W63958   0.744  34.411   0.735
91699W        W63959  28.647  12.752  12.411
91700W        W63960  20.187   7.205   1.730
91701W        W63961  23.605   8.183   2.261
91702W        W63962  22.192  15.226   3.750
91703W        W63963   5.350  32.024  14.512
91704W        W63964  31.451   6.803   2.847
91705W        W63965  14.604  39.362   2.255
91706W        W63966  30.977   4.284  10.962
91707W        W63967  32.466  36.570   2.221
91708W        W63968  15.610  43.311  14.378
91709W        W63969  41.442  23.578   1.333
91710W        W63970  37.853  12.323  13.861
91711W        W63971  15.235  32.568  12.499
91712W        W63972   7.351  28.096   5.619
91713W        W63973  35.556  29.597   1.369
91714W        W63974  19.636  34.442  14.312
91715W        W63975  15.681  23.687  13.964
91716W        W63976   2.341  20.126  14.317
91717W        W63977   5.291  24.109   1.324
91718W        W63978  35.914   6.182   1.450
91719W        W63979  37.984   2.727  13.336
91720W        W63980   4.218  31.038   3.238
91721W        W63981   5.816  34.991   4.727
91722W        W63982  11.235  41.884   3.668
91723W        W63983   6.847  33.950   1.844
91724W        W63984  15.728  29.570   0.466
91725W        W63985  12.329   7.375  11.080
91726W        W63986  10.822  33.130  12.522
91727W        W63987  44.854  25.653  14.946
91728W        W63988  11.216  30.111   4.211
91729W        W63989  42.323   5.225   3.355
91730W        W63990   5.319  14.599   2.407
91731W        W63991   8.861  29.589   2.824
91732W        W63992  34.551  31.090   1.433
91733W        W63993  41.803  32.005   4.613
91734W        W63994  29.984  34.091  12.997
91735W        W63995  19.684  18.188  10.639
91736W        W63996  11.774  24.660   2.830
91737W        W63997  44.798  24.151   2.325
91738W        W63998   5.787  11.668   1.406
91739W        W63999  21.189  29.922   1.813
91740W        W64000   3.824  40.804  13.044
91741W        W64001  35.105  23.092  12.969
91742W        W64002  26.109  31.147  12.978
91743W        W64003  13.762  30.617   1.215
91744W        W64004   2.875  40.450  10.427
91745W        W64005  38.992   9.384  14.437
91746W        W64006  26.468  30.474   2.249
91747W        W64007   4.279   4.432  12.829
91748W        W64008  29.536   4.431   4.738
91749W        W64009  36.844  25.102  10.450
91750W        W64010   9.206  37.836   1.263
91751W        W64011  16.315  38.547  14.894
91752W        W64012  19.669   4.719   3.733
91753W        W64013  41.912   3.805   2.843
91754W        W64014  28.108  18.720   1.272
91755W        W64015  14.151  13.811  13.414
91756W        W64016  34.017   8.802  13.333
91757W        W64017  22.646  28.505   0.371
91758W        W64018   2.355  29.628  14.016
91759W        W64019  37.442   4.416  13.389
91760W        W64020   0.328  43.017   2.751
91761W        W64021  36.468   2.250   0.749
91762W        W64022  26.595  44.278  14.468
91763W        W64023  15.811  27.094  13.311
91764W        W64024   0.879  16.600   4.791
91765W        W64025  37.960   1.955  14.322
91766W        W64026  29.038  42.971   5.213
91767W        W64027   0.802  30.012   2.301
91768W        W64028  19.740  15.812   3.714
91769W        W64029  21.163  13.128   0.787
91770W        W64030  29.555  42.914   5.262
91771W        W64031   4.825  42.427   2.415
91772W        W64032  39.015  19.192   0.858
91773W        W64033   6.360   8.828  11.051
91774W        W64034   4.351  20.689   0.406
91775W        W64035  32.479  38.862  11.535
91776W        W64036  14.598   8.812  11.434
91777W        W64037  34.000  39.500  11.876
91778W        W64038  31.437  14.624  12.065
91779W        W64039  42.954  17.276   4.126
91780W        W64040   9.868  43.844  13.946
91781W        W64041  39.326  20.066   4.191
91782W        W64042   3.398  40.922   2.225
91783W        W64043  10.330  20.662  12.569
91784W        W64044  39.048  26.156  11.070
91785W        W64045  37.518  32.917  10.102
91786W        W64046  10.761  36.908   2.714
91787W        W64047  23.658   5.275  11.907
91788W        W64048   1.244  13.232  12.998
91789W        W64049  13.156   0.856  11.862
91790W        W64050  36.351   4.419  14.927
91791W        W64051  33.984  24.543  11.465
91792W        W64052  26.479  21.070  10.470
91793W        W64053  17.294   8.247   2.749
91794W        W64054  17.245  26.479  13.830
91795W        W64055  40.447  25.028  14.433
91796W        W64056  14.309   0.979   0.756
91797W        W64057  18.664   7.793  11.541
91798W        W64058  13.224  12.626  11.004
91799W        W64059  36.447  37.847   1.725
91800W        W64060   4.321  23.101  14.823
91801W        W64061   6.865  16.698  10.919
91802W        W64062   4.753  27.595  12.355
91803W        W64063  14.787  16.634   1.926
91804W        W64064  11.777   8.174  13.354
91805W        W64065  28.608  38.404   4.675
91806W        W64066  21.131   0.942   5.151
91807W        W64067  30.616  40.865  13.021
91808W        W64068  44.399  27.058  13.820
91809W        W64069  14.623  40.537   0.343
91810W        W64070  38.032  35.570  13.469
91811W        W64071  25.134  19.560  12.365
91812W        W64072  28.160   1.294   3.354
91813W        W64073  20.193  36.016   1.695
91814W        W64074   3.915  34.461  13.932
91815W        W64075   9.850   4.440   1.731
91816W        W64076  24.667  11.667  14.920
91817W        W64077   0.861   7.335  11.382
91818W        W64078  36.485  11.360  14.821
91819W        W64079  23.114  18.236  11.946
91820W        W64080  22.724   2.734   2.704
91821W        W64081   6.228   7.347   5.248
91822W        W64082  33.398  32.510   1.403
91823W        W64083  19.087  30.475  14.932
91824W        W64084   2.744  45.000  14.973
91825W        W64085  21.261   1.254  13.846
91826W        W64086   4.422   9.265   2.304
91827W        W64087  33.070  38.996  14.769
91828W        W64088   7.336  35.376  13.033
91829W        W64089   8.899  37.002   1.429
91830W        W64090  10.351  21.664   4.670
91831W        W64091  25.644  35.457   4.824
91832W        W64092  31.642  29.603  12.468
91833W        W64093  34.017   2.400   3.379
91834W        W64094  32.983  11.326  11.400
91835W        W64095  23.201  14.290   5.252
91836W        W64096  31.425  26.172   0.347
91837W        W64097   2.238  24.140   0.733
91838W        W64098  37.898   1.274  14.829
91839W        W64099   5.711  38.403  13.908
91840W        W64100  34.952   0.903  12.561
91841W        W64101  40.352  43.805  12.842
91842W        W64102  10.151  14.751   0.926
91843W        W64103   7.850   4.235  14.903
91844W        W64104  26.117  31.048   0.821
91845W        W64105  27.061  21.163  13.478
91846W        W64106  39.911  34.422   1.350
91847W        W64107  14.607  12.760   2.876
91848W        W64108  31.139   2.721   2.863
91849W        W64109  42.895  25.606  10.479
91850W        W64110   4.290  33.941  12.084
91851W        W64111   7.746   6.355   3.383
91852W        W64112  31.081  37.087   4.665
91853W        W64113   5.831  32.974  13.000
91854W        W64114  11.150  11.367   3.686
91855W        W64115  40.024   1.927   3.258
91856W        W64116  22.684  27.181  10.586
91857W        W64117   3.769  32.633   0.777
91858W        W64118  41.515  14.328  10.966
91859W        W64119  20.584   3.835   2.235
91860W        W64120  21.724  21.155   2.679
91861W        W64121  19.628  18.151  10.141
91862W        W64122  28.939  13.802  12.855
91863W        W64123  17.618  39.876   3.366
91864W        W64124  16.301  42.803   1.379
91865W        W64125  19.176  38.520  11.398
91866W        W64126  20.212   7.410   1.412
91867W        W64127   9.179  19.595  14.842
91868W        W64128  40.037  41.409   1.766
91869W        W64129  40.924  26.048  14.506
91870W        W64130  11.193  10.850  12.376
91871W        W64131   2.288  38.012   0.295
91872W        W64132  28.634   7.812   0.291
91873W        W64133  13.309  24.157  13.504
91874W        W64134  17.115   8.842  12.895
91875W        W64135  36.911  35.012  11.429
91876W        W64136  32.115  32.001   0.954
91877W        W64137   3.789  30.107   3.297
91878W        W64138  32.583  31.149  14.298
91879W        W64139   9.678   3.448   0.864
91880W        W64140  14.686  19.171  13.856
91881W        W64141  18.143  10.835   1.861
91882W        W64142  24.487  42.007   0.764
91883W        W64143  31.014  39.334  14.295
91884W        W64144  28.483  24.514  11.907
91885W        W64145   9.862   0.812  11.463
91886W        W64146  42.993  42.426   2.374
91887W        W64147  35.085  37.030  10.928
91888W        W64148  29.533   7.259  12.392
91889W        W64149  43.975  13.189   4.328
91890W        W64150  25.159   4.408  12.395
91891W        W64151  16.577  39.018   1.426
91892W        W64152  25.468  19.278  11.451
91893W        W64153   9.241  30.924   4.203
91894W        W64154  39.812  11.772   0.831
91895W        W64155   8.864  23.730  10.964
91896W        W64156  36.060  31.115  13.463
91897W        W64157  41.986  27.551  10.962
91898W        W64158  43.394   2.397  12.358
91899W        W64159  37.944   6.799   9.957
91900W        W64160  42.328  24.708   1.287
91901W        W64161  41.957  28.554  13.533
91902W        W64162  22.625  11.330  14.502
91903W        W64163   2.423   4.295  10.536
91904W        W64164  13.700  23.604   1.733
91905W        W64165  43.318  21.666   2.744
91906W        W64166   0.848  12.213   4.133
91907W        W64167   8.240  12.654   3.297
91908W        W64168   8.773  21.674  11.418
91909W        W64169  25.107   6.365  13.413
91910W        W64170  25.196   7.827  14.425
91911W        W64171   0.280  34.401  11.063
91912W        W64172  31.449  18.223  11.036
91913W        W64173  32.017  38.519   3.777
91914W        W64174  37.394  38.048   0.323
91915W        W64175  12.727   6.306  11.594
91916W        W64176  41.988  11.266  10.088
91917W        W64177   3.760  38.074  11.995
91918W        W64178  22.664  42.875  13.979
91919W        W64179  14.596   8.835   0.902
91920W        W64180   9.372  23.536   2.267
91921W        W64181  40.435   0.325  11.473
91922W        W64182   5.814  39.433  14.306
91923W        W64183  24.534   1.287   1.414
91924W        W64184  16.118  25.064   4.333
91925W        W64185  19.572  28.479  14.456
91926W        W64186  44.984  24.565   2.849
91927W        W64187   8.683  39.930  10.503
91928W        W64188  33.521  43.000   1.423
91929W        W64189  31.049   4.843   4.262
91930W        W64190  15.210  33.577   4.633
91931W        W64191  27.050   5.836   3.207
91932W        W64192   7.807  41.326  12.933
91933W        W64193  13.215  23.002  10.539
91934W        W64194  22.034   3.851   2.294
91935W        W64195   2.239  11.262   3.648
91936W        W64196  38.492   2.295   1.324
91937W        W64197  27.144  12.737  12.019
91938W        W64198  10.313  32.461   0.430
91939W        W64199  10.809  19.220  11.016
91940W        W64200  14.608  38.919  14.005
91941W        W64201  17.582  13.329  11.058
91942W        W64202   8.831   2.798  14.014
91943W        W64203  29.649  11.687   4.216
91944W        W64204  23.511   5.760  13.926
91945W        W64205  25.075  13.269   4.824
91946W        W64206   1.329  41.950   3.783
91947W        W64207  25.607  33.930   0.298
91948W        W64208  41.416  22.512  12.508
91949W        W64209  22.157  33.962   4.141
91950W        W64210  40.883  29.478   4.833
91951W        W64211   1.300  31.923  10.600
91952W        W64212  20.173  33.588   0.751
91953W        W64213  42.954  38.543   4.266
91954W        W64214  44.468   6.794  11.448
91955W        W64215  10.708   4.866  10.632
91956W        W64216  44.777  10.204   1.378
91957W        W64217  34.591   2.936  14.912
91958W        W64218   3.774  43.017   3.844
91959W        W64219  22.574  10.164   4.113
91960W        W64220  27.949  31.489   2.782
91961W        W64221  20.624   5.932   3.850
91962W        W64222   6.802  44.812  14.348
91963W        W64223  17.782   2.226   2.766
91964W        W64224  16.785  23.154   0.831
91965W        W64225   4.348  13.281  14.916
91966W        W64226  12.244  24.677   4.315
91967W        W64227  31.983  17.792  12.051
91968W        W64228   8.878  23.080   1.372
91969W        W64229  18.144  26.051   0.371
91970W        W64230  24.606  38.385   3.193
91971W        W64231  35.503  24.184  11.489
91972W        W64232   0.421  28.591  13.413
91973W        W64233   5.847  29.650  11.073
91974W        W64234  34.481  42.961  10.145
91975W        W64235  16.155   1.896  10.603
91976W        W64236   7.713   8.252  13.435
91977W        W64237  19.693  36.418   2.744
91978W        W64238  12.180  41.032  13.348
91979W        W64239  21.251  31.004   2.279
91980W        W64240  10.702  20.607  10.468
91981W        W64241  44.398  10.345   0.840
91982W        W64242  12.662   9.851   4.690
91983W        W64243  13.685  24.017  13.898
91984W        W64244  25.570  38.933  10.098
91985W        W64245  23.495   6.679   2.852
91986W        W64246  25.020  16.620  12.401
91987W        W64247  40.922   2.340  11.459
91988W        W64248  31.013  39.908  14.494
91989W        W64249  37.899   6.923  14.987
91990W        W64250  18.286   9.781   3.251
91991W        W64251  14.239   2.413  11.119
91992W        W64252   0.293  27.569   0.289
91993W        W64253  37.894  13.638  10.544
91994W        W64254  36.554  27.059   2.280
91995W        W64255  24.141  18.569  11.983
91996W        W64256  28.079  23.700   2.691
91997W        W64257  11.373   1.435   1.352
91998W        W64258  12.179  40.474   4.707
91999W        W64259  37.573   9.813  13.951
92000W        W64260  10.222  29.664  11.105
92001W        W64261  18.129  36.050  10.906
92002W        W64262  12.757   9.204  13.428
92003W        W64263  23.540  19.775  11.531
92004W        W64264  18.230  11.225  11.065
92005W        W64265   0.771  12.146   2.862
92006W        W64266  42.427  21.226  11.554
92007W        W64267  27.106  38.488  13.335
92008W        W64268  12.141   4.798   0.823
92009W        W64269   0.414  15.241  12.010
92010W        W64270  39.852  39.865  14.418
92011W        W64271  34.403  10.763  10.921
92012W        W64272  10.649  32.501  12.878
92013W        W64273  29.020  43.298   3.375
92014W        W64274   3.859   5.388   0.894
92015W        W64275   8.676  12.852  14.807
92016W        W64276  25.504  22.710   1.288
92017W        W64277  18.221  15.818   1.411
92018W        W64278  14.707  22.077  12.007
92019W        W64279  39.813   2.765   2.837
92020W        W64280   8.833  17.225  13.002
92021W        W64281  12.632  30.533   4.780
92022W        W64282   2.276  21.119  14.934
92023W        W64283  20.647  14.141  14.977
92024W        W64284  26.175   4.367  10.986
92025W        W64285  16.579  27.085  12.508
92026W        W64286  35.576  11.341  12.363
92027W        W64287  27.601  33.564   3.749
92028W        W64288   6.857  18.743  12.394
92029W        W64289  39.314  26.151  14.800
92030W        W64290   5.340  31.909  14.949
92031W        W64291  18.656  25.602  11.910
92032W        W64292  24.082  22.053  11.122
92033W        W64293   8.798  17.736  12.067
92034W        W64294  15.229  42.904   3.711
92035W        W64295  30.490  12.657   2.839
92036W        W64296  30.026  36.866  12.904
92037W        W64297   6.255  16.706   0.876
92038W        W64298  35.942  42.467   1.881
92039W        W64299  25.679   1.325  11.120
92040W        W64300  42.494   0.437  14.308
92041W        W64301  38.392  30.017  14.918
92042W        W64302  32.526  25.610  12.020
92043W        W64303  13.134   6.716  13.003
92044W        W64304  20.659  23.108  13.376
92045W        W64305  15.198   4.756  11.105
92046W        W64306  16.304  29.063   1.360
92047W        W64307  16.187  14.097  11.407
92048W        W64308  35.103  18.263  14.878
92049W        W64309  13.696  19.556   1.236
92050W        W64310   5.743  40.814  10.991
92051W        W64311   3.413  18.089   4.632
92052W        W64312  27.610  32.487  11.058
92053W        W64313  41.401  28.543   4.704
92054W        W64314  28.099   6.902  12.536
92055W        W64315  32.447  21.155  14.851
92056W        W64316  13.299  40.312  10.535
92057W        W64317  31.408   1.944  11.063
92058W        W64318  22.229   1.256  10.637
92059W        W64319  40.379  18.606   3.193
92060W        W64320   4.772  40.374  10.509
92061W        W64321  28.979  29.592   4.669
92062W        W64322  39.931  20.739  13.055
92063W        W64323  22.116  24.630  10.407
92064W        W64324  35.483  40.875   1.320
92065W        W64325  37.983   7.210  12.934
92066W        W64326  36.862   8.197  13.804
92067W        W64327  43.506  36.515   0.282
92068W        W64328   0.794   6.678  13.919
92069W        W64329  12.640  12.152   0.363
92070W        W64330  43.015  23.555  11.924
92071W        W64331  27.987  41.452  13.909
92072W        W64332  30.440  21.575  10.953
92073W        W64333  33.900  35.509   3.826
92074W        W64334   6.331  28.494   3.789
92075W        W64335  23.194  32.631  13.429
92076W        W64336  20.709  42.920  12.918
92077W        W64337   9.646   6.748   0.363
92078W        W64338  41.530   5.227   0.405
92079W        W64339  38.384  41.015   1.413
92080W        W64340  27.587   4.746   3.320
92081W        W64341  42.791   3.234  12.902
92082W        W64342  28.126  34.387   3.294
92083W        W64343  15.724  36.403  11.016
92084W        W64344  19.072  34.113  14.452
92085W        W64345   9.689  32.104  12.948
92086W        W64346  44.440   6.736  10.528
92087W        W64347  33.120  39.848  11.432
92088W        W64348   2.322   6.253  13.958
92089W        W64349   3.215  15.301  15.000
92090W        W64350  44.927  23.154  12.398
92091W        W64351  29.057   2.326   2.284
92092W        W64352   5.744  28.032   1.385
92093W        W64353  29.928  31.104   1.875
92094W        W64354  25.990  18.771  11.932
92095W        W64355  36.385  23.060   3.360
92096W        W64356  31.938  17.767   2.405
92097W        W64357  23.669  17.756  12.916
92098W        W64358  30.931  14.623   0.741
92099W        W64359   9.155  44.293  13.807
92100W        W64360  27.595  32.037   4.835
92101W        W64361   4.286  31.008   4.677
92102W        W64362  43.290  33.500   4.254
92103W        W64363   2.924  15.326  11.042
92104W        W64364  28.042   4.210  14.430
92105W        W64365  44.792  44.000   3.209
92106W        W64366  26.673  40.039  14.444
92107W        W64367  16.144  32.019   3.709
92108W        W64368  22.217  42.959  10.947
92109W        W64369  12.755   2.429   1.920
92110W        W64370  27.157  34.903  13.387
92111W        W64371  42.369  26.996  10.492
92112W        W64372  43.433  17.247   1.270
92113W        W64373  12.780  18.069   4.197
92114W        W64374  20.093  36.364   1.258
92115W        W64375  37.058  37.578  14.873
92116W        W64376  26.208  41.961   5.643
92117W        W64377   8.835  41.527   2.792
92118W        W64378  15.788  17.116   1.834
92119W        W64379  25.682  42.954   1.902
92120W        W64380  42.506   1.409  10.980
92121W        W64381  42.522  17.624   3.831
92122W        W64382   7.387  28.460   9.460
92123W        W64383  25.703  33.451  10.128
92124W        W64384  19.767  32.513   2.739
92125W        W64385  25.561  29.591  11.561
92126W        W64386   3.450  14.728   2.365
92127W        W64387  26.656   3.874   4.787
92128W        W64388  12.337  25.483   2.842
92129W        W64389  18.140   5.352   9.951
92130W        W64390   1.825  42.023  11.979
92131W        W64391  31.433  38.948  10.940
92132W        W64392  10.669   5.745   2.180
92133W        W64393  13.696   5.219   0.729
92134W        W64394  28.975   0.885   4.705
92135W        W64395   1.834  30.425   4.191
92136W        W64396  23.619   6.401  12.573
92137W        W64397   6.869  12.345  11.086
92138W        W64398  16.776  38.939  13.348
92139W        W64399  14.095  24.503  12.423
92140W        W64400  37.472  34.554   1.761
92141W        W64401   8.665  38.391  13.923
92142W        W64402  12.330  42.025   2.880
92143W        W64403   1.309  10.159   4.681
92144W        W64404  17.750   4.941  11.996
92145W        W64405   1.316  41.969  11.506
92146W        W64406  16.584  11.183  14.453
92147W        W64407  22.551  31.405  13.480
92148W        W64408  15.230   6.849   3.232
92149W        W64409  38.973  12.198  12.350
92150W        W64410  35.964  32.536   2.189
92151W        W64411  28.502  26.033   2.274
92152W        W64412   5.300  40.344   1.923
92153W        W64413   7.754  10.670  10.581
92154W        W64414   8.304  32.936  11.047
92155W        W64415  10.801  41.484  10.526
92156W        W64416   2.347  39.472  12.505
92157W        W64417   6.888   9.373   3.818
92158W        W64418  18.742  41.920  11.988
92159W        W64419  29.641   6.838   2.666
92160W        W64420  38.894  34.976  13.059
92161W        W64421  18.644  27.614   1.845
92162W        W64422  22.083  18.736   3.216
92163W        W64423   7.855  35.943   3.166
92164W        W64424   6.198  38.048  10.616
92165W        W64425  41.446   2.359   0.957
92166W        W64426  34.864  35.376  14.854
92167W        W64427   3.323  23.087   3.643
92168W        W64428  22.524  18.130  10.525
92169W        W64429  13.214  35.412  10.996
92170W        W64430  29.029  14.605   1.232
92171W        W64431   2.232  33.978   0.823
92172W        W64432  17.603  18.620   3.272
92173W        W64433  15.652  41.011   4.651
92174W        W64434  33.993  28.126   3.385
92175W        W64435   6.408  22.200   2.764
92176W        W64436  43.308  34.050  13.370
92177W        W64437  39.059  37.980   2.406
92178W        W64438  13.185   1.926  14.428
92179W        W64439  11.645  30.547  11.406
92180W        W64440  44.760  39.518   1.348
92181W        W64441  15.088   1.781  13.872
92182W        W64442   7.773  19.577  13.889
92183W        W64443  25.639  42.356  12.946
92184W        W64444  39.474  11.294   4.743
92185W        W64445  25.992  21.170  14.775
92186W        W64446  28.046  19.743   3.634
92187W        W64447   9.762  19.126   1.435
92188W        W64448  10.156  40.459   2.255
92189W        W64449  24.149  10.141   0.416
92190W        W64450  30.126  39.867  11.012
92191W        W64451  35.372  33.475   0.274
92192W        W64452   3.232   2.723   3.680
92193W        W64453  41.884   6.309  10.629
92194W        W64454  19.119  19.586  12.086
92195W        W64455   9.813  12.316  14.904
92196W        W64456  12.347  13.341   4.276
92197W        W64457  25.983  21.699  11.029
92198W        W64458  30.584  36.357  14.300
92199W        W64459  12.349  14.318   0.871
92200W        W64460  10.301   3.890  14.497
92201W        W64461   8.689  39.981  11.960
92202W        W64462  28.965  35.485   1.239
92203W        W64463  17.174  33.383  14.838
92204W        W64464  16.785   5.217  12.022
92205W        W64465   3.782  21.758  14.470
92206W        W64466  24.720  19.567   4.714
92207W        W64467  28.997  21.225  12.928
92208W        W64468   7.778  43.893   1.431
92209W        W64469  42.360  29.616  13.958
92210W        W64470  27.494  10.324   3.163
92211W        W64471  42.006  12.823  13.419
92212W        W64472  40.504   8.405  14.387
92213W        W64473  22.198   4.319  12.835
92214W        W64474   9.309  37.832  13.865
92215W        W64475  37.962  14.151  11.988
92216W        W64476  17.276  26.103   3.652
92217W        W64477  33.538  29.993  11.918
92218W        W64478  13.800  35.456  12.399
92219W        W64479  25.178  40.368  13.424
92220W        W64480  12.215  34.957   2.322
92221W        W64481  27.482   9.375  13.992
92222W        W64482  18.141  15.137   3.789
92223W        W64483  32.396  33.095  13.058
92224W        W64484  38.392  30.955   4.266
92225W        W64485  27.036  16.679   3.372
92226W        W64486  23.030  25.494   3.324
92227W        W64487  29.539  22.221   4.601
92228W        W64488  32.091  34.502  10.468
92229W        W64489  30.611  24.193   4.692
92230W        W64490  15.279   5.743   3.154
92231W        W64491  13.192  38.540   3.241
92232W        W64492  18.646  26.483   0.823
92233W        W64493  17.791  14.785   2.219
92234W        W64494  23.120  23.501   2.218
92235W        W64495  29.069  33.106   2.824
92236W        W64496  12.313   1.289   2.758
92237W        W64497  15.154  10.681  14.461
92238W        W64498  22.079  21.076  10.524
92239W        W64499  29.071  11.867  14.486
92240W        W64500  30.133  25.086  13.442
92241W        W64501  15.088  22.207  14.017
92242W        W64502  38.368  13.168   0.323
92243W        W64503  28.591  37.562  10.978
92244W        W64504  37.858  11.363   0.836
92245W        W64505  19.594  32.035  13.899
92246W        W64506  29.593  32.581   9.601
92247W        W64507  44.281  21.754   3.300
92248W        W64508  31.098  22.697   1.911
92249W        W64509  35.475  19.085   3.329
92250W        W64510  13.718  21.522   0.366
92251W        W64511  12.282  17.260  11.425
92252W        W64512  30.134  19.108  13.312
92253W        W64513  30.581   3.396   3.838
92254W        W64514  22.690  28.556  12.533
92255W        W64515   7.293  15.233   3.282
92256W        W64516  43.350  29.534  12.908
92257W        W64517  44.865   3.430   3.207
92258W        W64518   0.262  37.500  14.933
92259W        W64519   4.922  19.271   4.130
92260W        W64520  32.887  19.597   4.691
92261W        W64521  35.873  41.894   4.661
92262W        W64522  15.266  21.136  12.480
92263W        W64523  34.399  22.192  11.050
92264W        W64524  16.112  16.306  13.976
92265W        W64525  37.910  28.479  14.389
92266W        W64526   0.306  39.550   0.364
92267W        W64527  13.335   6.873   4.231
92268W        W64528  18.784   8.187   4.828
92269W        W64529   0.297  13.620  12.999
92270W        W64530  34.509  39.336  13.937
92271W        W64531  39.456   2.244   0.758
92272W        W64532  33.128   9.689   0.864
92273W        W64533  20.757  29.660  12.025
92274W        W64534  14.785  14.114  10.106
92275W        W64535  44.412  23.612  10.905
92276W        W64536  20.115  15.808   4.287
92277W        W64537  27.012  32.453  11.869
92278W        W64538  22.237  26.622  11.900
92279W        W64539  36.458  31.647   0.436
92280W        W64540  20.207  33.515  11.571
92281W        W64541  27.014  38.870  11.936
92282W        W64542  17.785  22.069  11.400
92283W        W64543  43.315   8.209  11.126
92284W        W64544   8.235   9.232  10.442
92285W        W64545   0.807  15.181  14.276
92286W        W64546  32.892  17.231  11.486
92287W        W64547   8.191  37.893  14.950
92288W        W64548  40.421  16.301  10.956
92289W        W64549  38.830  44.796  11.436
92290W        W64550  17.090   4.231   1.304
92291W        W64551  43.011  21.599  11.376
92292W        W64552  43.341  27.175   4.609
92293W        W64553   7.866   7.880  14.461
92294W        W64554  21.126  35.563  11.897
92295W        W64555  18.752  37.841   1.244
92296W        W64556  15.157   1.456   3.159
92297W        W64557   6.736  27.482  12.001
92298W        W64558   5.237  40.473   4.622
92299W        W64559   4.889  34.034   2.218
92300W        W64560  18.193  23.127  11.446
92301W        W64561   1.421  18.075  14.400
92302W        W64562  17.592  16.124  14.784
92303W        W64563  10.763  39.494   4.835
92304W        W64564  39.385  12.747   1.826
92305W        W64565  13.215  33.603  14.369
92306W        W64566  25.040  10.261  11.385
92307W        W64567  21.201  41.028   0.737
92308W        W64568   3.423   2.845   2.370
92309W        W64569  15.592  28.614  10.589
92310W        W64570  34.397  18.089   9.599
92311W        W64571   9.222  22.509   0.793
92312W        W64572  23.528  13.330   2.192
92313W        W64573  17.729  37.863   0.875
92314W        W64574  16.695  19.761  11.086
92315W        W64575  42.447   2.343   0.765
92316W        W64576  18.117   3.354  13.829
92317W        W64577  36.516  42.777  11.067
92318W        W64578   5.198  15.316   4.241
92319W        W64579  35.978  38.332   1.925
92320W        W64580  26.476   2.742   3.817
92321W        W64581  42.341  24.622  13.466
92322W        W64582  21.214  30.623  14.333
92323W        W64583   2.894  38.546  14.399
92324W        W64584  27.159   6.405   1.219
92325W        W64585  22.664   7.294  13.791
92326W        W64586  28.998   1.757  12.391
92327W        W64587  31.031  36.470   2.412
92328W        W64588  42.527  26.585  13.813
92329W        W64589  37.917  31.137  13.326
92330W        W64590  35.005  21.541  14.874
92331W        W64591  27.994  20.223  14.908
92332W        W64592  21.162  16.801   0.795
92333W        W64593  37.847  41.296   3.207
92334W        W64594  36.914  24.111   0.793
92335W        W64595  40.899  11.758  12.535
92336W        W64596   4.389  27.570   2.895
92337W        W64597  43.292  10.778   1.808
92338W        W64598  40.517   6.262  14.879
92339W        W64599  38.963  20.221  14.822
92340W        W64600  37.536  34.591  12.445
92341W        W64601  31.138  40.314  12.091
92342W        W64602  38.332  10.252  11.530
92343W        W64603  41.802  29.432   4.344
92344W        W64604  22.547  37.839  12.888
92345W        W64605  17.679  32.476  12.463
92346W        W64606   7.344  29.502  14.405
92347W        W64607  39.329  38.342   1.332
92348W        W64608  24.995   6.881  11.508
92349W        W64609  23.121  42.934   1.242
92350W        W64610  19.094   7.344   5.293
92351W        W64611  12.630  39.919  14.353
92352W        W64612  39.816   1.395  14.338
92353W        W64613  12.352  31.583  12.086
92354W        W64614  24.491  21.518   2.187
92355W        W64615   5.355  34.881  10.493
92356W        W64616   2.330  30.455   1.385
92357W        W64617  14.215  44.874   0.392
92358W        W64618  44.446  21.028  11.452
92359W        W64619  34.022  30.973   3.831
92360W        W64620  43.824  40.911  14.512
92361W        W64621  43.407  17.165  13.031
92362W        W64622  11.781   6.201   4.803
92363W        W64623  22.591  11.359   3.340
92364W        W64624  42.028  43.482   0.382
92365W        W64625   7.262  17.764   1.764
92366W        W64626  37.958  27.625   3.687
92367W        W64627  34.602  14.758   4.189
92368W        W64628  32.100  25.123   3.286
92369W        W64629  21.053  18.121   4.713
92370W        W64630  42.372   7.232  14.840
92371W        W64631  12.119  29.072   3.784
92372W        W64632  41.464  19.136   1.294
92373W        W64633  39.464  38.941   0.899
92374W        W64634  13.773   1.771  11.481
92375W        W64635  20.110  42.382  11.902
92376W        W64636  28.940  21.696  11.984
92377W        W64637   9.866  23.700   1.744
92378W        W64638  18.055  17.698  12.884
92379W        W64639   9.695   7.680  13.405
92380W        W64640  42.956   1.760  13.868
92381W        W64641   7.831  22.116  11.981
92382W        W64642  10.643  43.411  13.900
92383W        W64643  20.221  38.946   4.605
92384W        W64644  39.921   6.243   0.383
92385W        W64645  10.820  10.325   2.724
92386W        W64646  36.915   7.417   2.333
92387W        W64647  34.466   5.276   2.840
92388W        W64648   1.886  35.406  10.985
92389W        W64649  27.958  16.081  14.002
92390W        W64650  10.876  13.662  11.424
92391W        W64651  34.473   7.786  11.519
92392W        W64652  23.570  42.326  14.785
92393W        W64653  28.528  19.767   2.281
92394W        W64654  11.794  14.151  13.041
92395W        W64655   2.738  19.705  12.545
92396W        W64656   5.741  40.356   4.114
92397W        W64657  41.788   9.889   2.865
92398W        W64658  20.086  27.980  11.575
92399W        W64659  15.708  14.718   3.159
92400W        W64660  17.638  24.985   1.743
92401W        W64661   5.204  16.296  11.929
92402W        W64662  14.210  12.269   0.473
92403W        W64663  16.239  37.544  14.761
92404W        W64664  28.093  44.277   5.141
92405W        W64665  18.063   4.752   0.868
92406W        W64666  25.172  28.182  13.963
92407W        W64667  18.287  20.652   0.930
92408W        W64668  29.123  11.298   3.684
92409W        W64669  34.030  19.642   1.755
92410W        W64670  21.111  18.148   0.375
92411W        W64671  40.373   0.904  12.065
92412W        W64672  35.047   9.852  11.527
92413W        W64673  20.233  35.370  13.849
92414W        W64674  30.571  21.259  14.824
92415W        W64675  22.651   1.295  12.447
92416W        W64676  13.728  26.624   9.995
92417W        W64677  22.556  34.121   4.761
92418W        W64678  12.147  19.121   1.694
92419W        W64679  39.527  19.632   0.403
92420W        W64680  17.748  34.401  13.996
92421W        W64681  31.091  23.043  10.966
92422W        W64682  16.781   2.866  13.848
92423W        W64683  18.562  44.864  11.427
92424W        W64684  11.368  40.861  11.441
92425W        W64685  11.143  11.722   2.216
92426W        W64686  44.924  37.979  14.328
92427W        W64687  35.967  10.742  11.423
92428W        W64688  43.925  40.382   1.242
92429W        W64689  41.797  13.170   2.389
92430W        W64690  17.777  21.597  12.513
92431W        W64691  18.073   3.291  12.964
92432W        W64692  43.279  39.864  12.529
92433W        W64693  23.044   8.844  11.121
92434W        W64694  25.577  36.419  12.353
92435W        W64695  20.165   4.252   1.708
92436W        W64696  18.171  21.656   1.352
92437W        W64697  24.638  11.287   0.381
92438W        W64698  24.010   3.872  10.403
92439W        W64699  31.060  12.681  12.445
92440W        W64700  19.280  17.598   4.274
92441W        W64701  20.271  37.405  10.584
92442W        W64702  16.751  35.513  11.053
92443W        W64703  40.420  29.164   4.161
92444W        W64704  21.683  20.074   3.799
92445W        W64705  35.088  43.401  11.106
92446W        W64706   9.853  40.045   0.829
92447W        W64707  18.770  17.275   4.706
92448W        W64708  42.284  17.616  12.463
92449W        W64709  25.637   0.404   5.218
92450W        W64710  18.606  16.282  14.446
92451W        W64711  15.301  15.611  13.433
92452W        W64712  12.754  25.544  14.833
92453W        W64713   1.878  22.160  10.955
92454W        W64714   4.416  43.276  10.592
92455W        W64715  14.202  33.411  14.434
92456W        W64716  24.542  42.843   4.214
92457W        W64717   4.821   7.210  10.464
92458W        W64718   5.274  39.062   0.746
92459W        W64719   6.714  32.007  13.988
92460W        W64720  24.020  27.558  12.944
92461W        W64721   1.746  21.602  14.769
92462W        W64722  15.271  21.021   3.161
92463W        W64723  35.536  42.981  14.818
92464W        W64724  17.219  37.009  12.050
92465W        W64725  27.552  29.161   1.719
92466W        W64726  30.143   1.378   0.737
92467W        W64727  27.022  23.720  12.036
92468W        W64728  35.587  36.350   2.833
92469W        W64729   5.363  18.141   2.844
92470W        W64730   0.831  31.904   2.872
92471W        W64731   5.791  25.590   9.939
92472W        W64732  12.671  20.612   0.380
92473W        W64733  40.931  11.769   4.248
92474W        W64734  26.552  39.352  11.402
92475W        W64735  17.624   7.672   3.651
92476W        W64736  35.465  15.269  13.857
92477W        W64737  38.458  23.491   0.453
92478W        W64738   2.766   2.398   2.697
92479W        W64739  44.471  24.708  13.974
92480W        W64740  38.403  22.672  12.862
92481W        W64741  11.677   9.727  11.943
92482W        W64742  24.655  26.563   2.745
92483W        W64743  32.631  17.305   2.260
92484W        W64744  16.688  13.635  10.470
92485W        W64745  42.924  28.028  13.533
92486W        W64746  29.514  35.992  12.941
92487W        W64747  43.395  15.140  13.798
92488W        W64748  28.021  33.096   4.807
92489W        W64749  23.174   0.980   3.636
92490W        W64750  44.332   3.745  12.557
92491W        W64751  12.626  18.079   0.286
92492W        W64752  23.055  30.086   1.262
92493W        W64753   9.792  39.986  10.962
92494W        W64754  43.372  39.377  10.496
92495W        W64755  39.534   4.327  11.933
92496W        W64756  38.856   4.745   2.347
92497W        W64757  41.880   9.809  12.867
92498W        W64758  29.012  27.656   3.175
92499W        W64759   2.395  36.893   1.360
92500W        W64760   7.270  21.538  12.081
92501W        W64761  43.306  21.702   0.846
92502W        W64762  23.587   1.437  11.391
92503W        W64763  21.534  18.189   1.341
92504W        W64764  22.238  39.366  10.607
92505W        W64765  16.215  17.135  13.863
92506W        W64766   5.711  21.538   1.853
92507W        W64767  44.493   1.970  11.522
92508W        W64768  28.970  32.493   1.854
92509W        W64769  39.519  24.478   0.872
92510W        W64770   2.240   4.708   4.718
92511W        W64771  17.722   4.888  12.532
92512W        W64772  43.970   5.739   4.144
92513W        W64773  43.442  42.987   2.859
92514W        W64774  31.475  31.065  11.038
92515W        W64775  31.512  33.997   0.837
92516W        W64776  21.549  38.843   3.373
92517W        W64777   3.417  22.125  13.445
92518W        W64778  22.223  36.957  13.946
92519W        W64779  11.220   9.268  10.479
92520W        W64780  12.231   3.862   3.228
92521W        W64781   6.420   5.827  13.032
92522W        W64782  13.123  30.051  12.556
92523W        W64783  42.363  12.224  10.912
92524W        W64784  39.350  37.418   2.682
92525W        W64785   9.763  25.648  13.382
92526W        W64786   9.709  14.311   3.330
92527W        W64787   9.874   7.172  12.084
92528W        W64788  26.070  24.201  12.344
92529W        W64789  16.806  36.046   1.342
92530W        W64790  17.151  23.614  13.441
92531W        W64791  38.483  42.028  11.591
92532W        W64792  25.074  17.134   0.435
92533W        W64793  15.305  21.580  14.806
92534W        W64794  24.552  43.512   1.403
92535W        W64795   7.740  32.926   0.326
92536W        W64796  15.313  33.124   0.410
92537W        W64797  17.228  11.642   0.817
92538W        W64798  14.609  25.686   2.320
92539W        W64799  36.968   7.189  14.446
92540W        W64800  44.431   5.414  13.339
92541W        W64801   7.774  38.397   4.790
92542W        W64802   3.442   4.280  11.017
92543W        W64803  28.486  38.904   4.676
92544W        W64804  20.732  38.426   0.410
92545W        W64805  30.449  22.026  13.309
92546W        W64806  22.215   9.660  11.913
92547W        W64807   3.358  35.599  11.481
92548W        W64808  41.875  10.687  11.091
92549W        W64809  23.149   3.301  13.407
92550W        W64810  32.061   9.811   5.264
92551W        W64811  17.089  17.228   1.357
92552W        W64812  17.612  35.033   1.701
92553W        W64813  11.663  16.300   3.707
92554W        W64814   9.872  23.574   1.330
92555W        W64815  17.218  28.987   0.755
92556W        W64816  16.583  32.959  14.926
92557W        W64817  38.847  32.128   3.839
92558W        W64818  12.355  31.521   4.260
92559W        W64819  41.979   7.316  11.954
92560W        W64820  33.402   1.857  10.160
92561W        W64821  34.007   4.898  12.877
92562W        W64822   1.449  16.176   3.631
92563W        W64823  36.441   4.933   0.407
92564W        W64824   3.363  16.730  13.871
92565W        W64825  36.989  34.007   1.358
92566W        W64826   7.695   4.311  11.071
92567W        W64827  40.943  16.088  11.966
92568W        W64828  29.423  32.444   5.598
92569W        W64829  25.712  18.154  11.563
92570W        W64830  30.105  29.918  10.002
92571W        W64831  23.151  34.029  11.424
92572W        W64832  14.649  41.366   2.242
92573W        W64833  33.405  19.742  14.478
92574W        W64834  22.247  25.599  11.910
92575W        W64835   7.249  37.490   1.745
92576W        W64836  21.634  26.066   0.936
92577W        W64837  25.104  14.321   4.771
92578W        W64838  25.630  33.903  13.910
92579W        W64839  18.715  43.998  13.429
92580W        W64840  39.953  43.900   4.666
92581W        W64841   4.708  43.422   1.410
92582W        W64842  21.079  15.127   1.276
92583W        W64843  15.634  21.569   3.851
92584W        W64844  30.947  28.550  13.855
92585W        W64845  24.615   7.347   1.398
92586W        W64846  24.603  38.846  10.469
92587W        W64847  41.987  23.506   3.189
92588W        W64848  24.020  32.131   1.343
92589W        W64849  37.479  15.738  14.868
92590W        W64850  33.970  17.271  10.960
92591W        W64851   7.307   3.877   1.745
92592W        W64852  27.445   5.749   0.914
92593W        W64853  31.603   8.777   4.765
92594W        W64854  20.578  40.415   1.235
92595W        W64855   1.927   0.763  10.620
92596W        W64856   8.364  43.511   0.904
92597W        W64857   2.356  28.512  11.922
92598W        W64858  37.379  15.614   4.757
92599W        W64859   1.465  44.870  14.941
92600W        W64860  29.967   8.357   3.699
92601W        W64861  22.045   6.245   3.747
92602W        W64862  22.241  22.665  14.333
92603W        W64863   3.879   7.762   3.769
92604W        W64864  37.068  24.064   3.717
92605W        W64865  27.156  13.206  11.926
92606W        W64866   6.850  42.286  14.434
92607W        W64867  30.029  27.586  10.916
92608W        W64868   2.915   2.345   4.778
92609W        W64869  27.126  35.049  10.412
92610W        W64870   1.754  31.917  11.465
92611W        W64871  15.141  31.615  12.445
92612W        W64872  21.035  28.016  12.941
92613W        W64873  28.454   6.731   2.264
92614W        W64874   2.337  11.711   4.694
92615W        W64875   3.912  10.864   0.287
92616W        W64876   0.825  28.161   4.655
92617W        W64877  38.985  43.774   2.413
92618W        W64878   9.220   7.309  10.558
92619W        W64879  44.816  21.595  13.039
92620W        W64880  41.515  11.702   1.434
92621W        W64881  14.624  43.948  13.411
92622W        W64882  16.075  10.248   0.450
92623W        W64883  32.081  33.425   5.228
92624W        W64884  21.231  31.593   4.202
92625W        W64885  20.059   4.859  13.371
92626W        W64886   7.274  20.541   1.326
92627W        W64887  30.524   3.433   4.260
92628W        W64888  20.160  34.524   2.682
92629W        W64889  41.318  14.249   1.246
92630W        W64890  24.045  28.591  11.396
92631W        W64891  15.813  28.586  12.904
92632W        W64892  20.150  33.485   2.206
92633W        W64893  24.231  42.894   1.904
92634W        W64894   4.908  21.574  14.398
92635W        W64895  32.048  27.602  12.858
92636W        W64896  37.475  17.157   4.249
92637W        W64897  10.762  40.364   0.808
92638W        W64898  13.822  36.060   3.842
92639W        W64899  24.616   5.214  12.909
92640W        W64900  18.139  14.099   5.136
92641W        W64901  39.476  32.584  11.974
92642W        W64902   3.951  40.962   1.224
92643W        W64903   0.916   9.370  14.437
92644W        W64904  39.417  11.642  14.968
92645W        W64905   6.352  15.325   4.192
92646W        W64906  40.358  12.137  10.502
92647W        W64907  41.522   8.331   0.324
92648W        W64908  25.048  13.722  13.511
92649W        W64909  44.905  16.268   1.913
92650W        W64910  29.463  33.609   4.287
92651W        W64911  19.247  23.649  11.573
92652W        W64912  26.537  37.373  13.997
92653W        W64913  36.347  12.164   3.820
92654W        W64914  23.142   0.453   3.347
92655W        W64915   4.731  42.483   2.899
92656W        W64916  35.500  13.631   2.406
92657W        W64917  28.629   1.927   4.606
92658W        W64918  34.526   9.349  12.844
92659W        W64919  27.133  24.491  12.902
92660W        W64920  28.940  42.865   2.340
92661W        W64921  22.697  21.206  13.993
92662W        W64922  18.263  15.765   4.295
92663W        W64923  36.898  14.610   1.370
92664W        W64924  16.162  23.995  11.431
92665W        W64925  17.130   8.267  14.789
92666W        W64926  20.096  30.603  13.388
92667W        W64927  12.188  37.409   2.833
92668W        W64928  23.698  35.865   3.648
92669W        W64929   2.338  41.428   3.666
92670W        W64930  12.136  44.495  11.572
92671W        W64931  26.066  17.281  11.916
92672W        W64932  25.164  37.927  14.322
92673W        W64933   2.409  41.516  10.563
92674W        W64934  34.394  12.627  13.328
92675W        W64935  24.023   7.192   3.365
92676W        W64936  27.581  31.929  14.866
92677W        W64937  27.999   0.320  12.493
92678W        W64938  33.420  36.347   3.282
92679W        W64939  36.955  16.298   2.396
92680W        W64940   2.242   9.275  10.973
92681W        W64941  14.663  39.484   3.261
92682W        W64942  40.841  42.385   0.466
92683W        W64943  37.052  31.639   2.246
92684W        W64944  20.597  32.411   3.361
92685W        W64945   2.285  44.295   5.157
92686W        W64946  10.837  25.148   1.363
92687W        W64947  25.596  38.344   9.496
92688W        W64948  26.143  21.580  13.947
92689W        W64949   3.456  19.599  10.638
92690W        W64950  11.631  21.713   1.902
92691W        W64951  11.850  24.988   4.743
92692W        W64952  30.543  29.532   3.749
92693W        W64953  15.254  29.146   3.668
92694W        W64954  25.018   5.258  12.030
92695W        W64955   0.829  22.153   4.778
92696W        W64956  24.691  11.189   2.419
92697W        W64957  35.460  10.693  13.445
92698W        W64958  29.463  36.418   0.422
92699W        W64959  19.152   4.361   4.353
92700W        W64960  42.023  10.728   0.813
92701W        W64961  32.476  10.322   2.713
92702W        W64962   1.381  25.714   3.825
92703W        W64963  14.760  12.829  13.935
92704W        W64964  34.979  20.673   1.834
92705W        W64965  18.709   9.848  12.366
92706W        W64966   2.812   0.294  13.940
92707W        W64967  31.422  37.480  11.577
92708W        W64968  44.846  36.497   3.697
92709W        W64969  21.722   0.854  12.907
92710W        W64970  34.519   8.176   1.341
92711W        W64971   4.866   0.820  13.500
92712W        W64972  17.248  14.194  14.382
92713W        W64973  26.167  19.546  11.395
92714W        W64974  30.107   4.255  13.547
92715W        W64975   0.942  13.127   3.318
92716W        W64976  34.016  41.368  11.897
92717W        W64977   5.322  23.205  14.287
92718W        W64978  38.071   1.236  10.934
92719W        W64979   9.681  43.936  10.929
92720W        W64980   5.851   2.916   4.305
92721W        W64981  31.921  43.361  12.953
92722W        W64982  42.450  26.953   4.603
92723W        W64983  34.448  21.648   0.419
92724W        W64984  33.545  34.102  13.402
92725W        W64985  28.972  39.863  10.459
92726W        W64986  19.584  30.603   4.188
92727W        W64987   8.349  20.635   1.892
92728W        W64988  13.154  25.129  14.844
92729W        W64989  25.713   2.462   1.828
92730W        W64990  27.127  39.394   0.464
92731W        W64991  41.006  34.932  13.875
92732W        W64992  29.037  10.722  11.955
92733W        W64993   0.942  27.589  10.511
92734W        W64994  14.196  33.900  13.481
92735W        W64995  34.863  23.075  11.078
92736W        W64996  41.987   5.867   1.378
92737W        W64997  13.624  12.155  14.335
92738W        W64998   4.387  34.382  10.459
92739W        W64999   8.722   5.903   1.302
92740W        W65000  11.294   3.398  11.057
92741W        W65001  25.996   5.256   0.345
92742W        W65002  44.503   9.660   4.686
92743W        W65003  34.522  20.619  12.390
92744W        W65004  33.508  26.592   3.209
92745W        W65005  39.851  14.749  13.801
92746W        W65006  11.336  35.458  13.395
92747W        W65007  27.468  43.301  14.967
92748W        W65008   4.216  44.311  10.051
92749W        W65009  43.320  15.823  10.602
92750W        W65010  31.955   8.677   5.208
92751W        W65011   0.459  20.663   2.717
92752W        W65012   8.744  20.237  10.964
92753W        W65013  25.569  15.294   0.258
92754W        W65014   5.710  18.110   0.805
92755W        W65015  37.447  20.154   3.233
92756W        W65016  30.513  39.975  14.382
92757W        W65017  40.362  41.371  14.312
92758W        W65018  43.341   9.731  14.456
92759W        W65019  24.585  38.976   3.185
92760W        W65020  15.306  44.480   4.164
92761W        W65021   5.866  26.073  14.958
92762W        W65022   8.216  13.283   4.346
92763W        W65023  24.011  11.691   3.744
92764W        W65024  27.609  39.319   3.332
92765W        W65025  17.746  34.577  13.057
92766W        W65026  18.706  27.972  14.803
92767W        W65027  39.419  30.591   0.814
92768W        W65028  43.270  24.572   0.790
92769W        W65029  39.923  33.503   4.796
92770W        W65030  40.004  43.964  14.277
92771W        W65031   2.746  42.457   1.892
92772W        W65032  39.432  42.336  14.925
92773W        W65033   3.349  41.880   2.339
92774W        W65034  41.486  18.096  13.539
92775W        W65035  24.603  25.635   3.260
92776W        W65036  15.216   7.702   1.420
92777W        W65037  39.946  23.671  13.358
92778W        W65038  41.969  27.066   1.885
92779W        W65039  17.223  21.190  14.453
92780W        W65040  20.709  30.928   3.768
92781W        W65041  11.270   1.766   3.679
92782W        W65042  33.408  30.955  10.927
92783W        W65043  18.764  35.448  13.491
92784W        W65044  14.588  36.347   2.882
92785W        W65045  38.873  19.767   5.150
92786W        W65046  22.574  43.949   4.323
92787W        W65047   9.176  40.817  14.795
92788W        W65048  32.941  35.460   2.193
92789W        W65049  17.159   9.725   0.776
92790W        W65050  43.910  32.426  10.641
92791W        W65051   0.894   5.850   4.687
92792W        W65052  36.427  19.677   5.242
92793W        W65053  21.514  32.947  12.510
92794W        W65054   7.209  11.245   1.369
92795W        W65055   4.403  11.304   0.885
92796W        W65056  44.787  28.054  13.434
92797W        W65057  24.490  30.552   2.874
92798W        W65058  34.052   2.254   3.778
92799W        W65059   4.355  15.249  14.430
92800W        W65060  29.069  17.731  10.583
92801W        W65061  22.521   1.372  10.439
92802W        W65062  10.287  30.620   4.335
92803W        W65063  20.733  21.521  14.309
92804W        W65064  17.568  16.665  10.632
92805W        W65065  31.041   8.322   1.274
92806W        W65066  11.700   5.293   1.389
92807W        W65067  36.957  30.062   1.263
92808W        W65068  13.240  39.028   3.735
92809W        W65069  41.834  24.550   4.725
92810W        W65070  43.316  30.991   2.383
92811W        W65071  11.164  41.994   4.748
92812W        W65072  21.207  30.648  10.630
92813W        W65073  16.101  21.654   1.322
92814W        W65074  40.413  21.718   1.224
92815W        W65075  31.972   6.676   0.888
92816W        W65076  10.217  28.050  11.591
92817W        W65077  13.733  37.011   1.866
92818W        W65078  37.010  30.973  13.050
92819W        W65079   8.697  42.889   1.819
92820W        W65080  16.211  21.707  10.992
92821W        W65081   4.361  20.202  14.762
92822W        W65082  42.793   1.321   4.774
92823W        W65083  38.946  24.531  10.982
92824W        W65084   5.256  14.791  10.438
92825W        W65085   2.868  19.577  10.995
92826W        W65086  37.577  12.213   3.321
92827W        W65087  23.021  37.472   2.328
92828W        W65088  36.977  44.854  11.546
92829W        W65089   4.914  19.211  10.484
92830W        W65090  29.465  26.192   2.778
92831W        W65091   1.387  33.973  12.097
92832W        W65092  11.810  25.968   0.364
92833W        W65093   0.486   1.872  14.919
92834W        W65094  24.628  17.733   1.249
92835W        W65095  25.598  25.078  11.546
92836W        W65096  31.122  30.623  10.129
92837W        W65097  12.857  28.653  11.542
92838W        W65098  30.601  23.584  12.451
92839W        W65099  33.557  19.138   2.290
92840W        W65100  24.058  29.061   2.777
92841W        W65101   9.391   4.210  14.282
92842W        W65102  42.837  15.087   2.331
92843W        W65103  44.813  14.633   0.282
92844W        W65104  22.670  21.536   1.290
92845W        W65105  37.463  35.394  14.786
92846W        W65106  38.493  30.924   3.641
92847W        W65107  40.902  11.134   4.198
92848W        W65108   0.315  30.036  14.993
92849W        W65109   9.839  37.372  13.984
92850W        W65110  43.833   1.848  14.818
92851W        W65111  24.095  18.150  14.344
92852W        W65112   8.825  20.528  14.337
92853W        W65113  31.640  17.144  13.816
92854W        W65114   7.680   9.376  12.574
92855W        W65115  26.973  39.971  11.573
92856W        W65116  37.992   3.387   4.286
92857W        W65117  44.965   3.339   1.797
92858W        W65118  43.472  33.960   1.419
92859W        W65119  14.171  16.270   4.270
92860W        W65120  25.473  41.997  10.148
92861W        W65121  28.592  34.913   2.219
92862W        W65122  44.419   8.847   0.838
92863W        W65123  30.577  27.170   2.732
92864W        W65124  40.402  21.717   0.325
92865W        W65125  14.744  17.247   4.354
92866W        W65126  10.693  37.580  13.824
92867W        W65127  20.621  14.695  11.004
92868W        W65128  15.217  18.566   3.204
92869W        W65129  22.104  10.833  13.803
92870W        W65130  25.088   1.319   2.751
92871W        W65131   0.842  29.476   4.787
92872W        W65132  35.065  26.117  12.522
92873W        W65133  44.349  32.544  10.018
92874W        W65134  13.153  43.923  13.933
92875W        W65135  31.075  30.910  13.498
92876W        W65136  18.591  24.680   3.741
92877W        W65137   9.693  14.738  13.014
92878W        W65138  12.832  20.250  14.895
92879W        W65139  21.728  17.619  13.937
92880W        W65140  17.693  42.346   3.654
92881W        W65141  10.230   6.287   0.935
92882W        W65142  28.090  40.409  13.804
92883W        W65143  27.008   0.475  11.924
92884W        W65144  11.812   9.258  12.553
92885W        W65145  42.997  15.801   5.090
92886W        W65146  37.987  38.425   0.444
92887W        W65147  23.687   0.328   3.702
92888W        W65148  41.847  14.704  13.408
92889W        W65149  21.601  13.292   4.180
92890W        W65150   1.785   6.343  14.277
92891W        W65151  30.040  27.034   0.302
92892W        W65152  24.140  32.583  13.329
92893W        W65153  20.700   3.829  10.935
92894W        W65154   5.738  30.650  12.946
92895W        W65155  43.929  27.650  14.838
92896W        W65156  32.490  37.362  11.072
92897W        W65157  25.640   9.870  13.856
92898W        W65158  26.694  23.688   0.861
92899W        W65159  33.974   0.773  11.396
92900W        W65160  43.404  32.593   4.664
92901W        W65161  25.522  28.630  13.919
92902W        W65162  14.677  40.450  14.940
92903W        W65163   5.792  32.410   1.403
92904W        W65164  15.705   8.677  10.076
92905W        W65165  22.052   3.360  11.452
92906W        W65166  36.906  32.920  13.389
92907W        W65167  14.748  10.812  11.883
92908W        W65168   5.243   4.320   0.922
92909W        W65169  11.242  44.265  14.392
92910W        W65170  31.421  39.963   3.757
92911W        W65171  37.479  26.687   3.201
92912W        W65172  23.222  11.688  12.458
92913W        W65173  22.007   6.780   4.270
92914W        W65174  42.971  29.517   4.280
92915W        W65175  44.921   5.877  10.436
92916W        W65176   3.823  21.738   0.731
92917W        W65177   8.310   4.266  14.457
92918W        W65178  36.880  34.013  13.964
92919W        W65179  21.227   1.759   4.778
92920W        W65180   9.260  25.582   1.774
92921W        W65181  13.646  28.595   1.778
92922W        W65182  36.448   6.708  12.409
92923W        W65183  36.589  26.514   2.759
92924W        W65184  32.022   0.950  14.966
92925W        W65185   9.717  30.998   1.726
92926W        W65186  32.064  31.586   0.945
92927W        W65187   5.720  28.179   5.188
92928W        W65188   9.836  37.567  12.532
92929W        W65189  16.255   5.863  14.849
92930W        W65190  18.604  15.197  10.975
92931W        W65191  42.032  17.561   4.754
92932W        W65192  16.208  21.139  11.873
92933W        W65193  19.172  22.628  12.832
92934W        W65194  14.804  35.558   4.655
92935W        W65195   9.364  22.571  11.599
92936W        W65196  35.561  35.525  14.436
92937W        W65197  31.993  29.994   4.668
92938W        W65198  30.093  31.611  11.435
92939W        W65199  28.105  44.003  11.965
92940W        W65200  21.546  31.514   4.697
92941W        W65201  23.011  20.664  13.363
92942W        W65202   7.232   1.929   3.744
92943W        W65203  31.083  24.479   2.271
92944W        W65204  36.498  40.848  13.524
92945W        W65205   8.161  34.415  10.966
92946W        W65206  13.715   3.862  10.895
92947W        W65207   9.854  17.083  14.313
92948W        W65208  13.704   0.305   0.836
92949W        W65209  36.095  36.394  13.922
92950W        W65210  13.168  42.991   1.848
92951W        W65211  18.227  32.465  14.336
92952W        W65212  28.118  44.861  10.999
92953W        W65213  23.008  25.058  14.289
92954W        W65214  31.086   2.276   2.211
92955W        W65215  14.099  36.404   2.358
92956W        W65216  43.284  22.722   2.745
92957W        W65217  15.601  31.605  14.304
92958W        W65218  18.615  12.819   0.791
92959W        W65219  11.331  27.491  14.786
92960W        W65220  36.514  28.127   3.827
92961W        W65221   6.771   2.229   3.314
92962W        W65222  36.857  19.706   3.355
92963W        W65223  21.239  20.183   5.108
92964W        W65224  11.198  37.404  12.533
92965W        W65225  42.449  32.111  11.982
92966W        W65226  21.743   2.773   1.840
92967W        W65227  44.313   6.677   4.693
92968W        W65228  29.166  10.191   1.436
92969W        W65229  28.476  41.532  11.880
92970W        W65230  13.654   4.928   1.712
92971W        W65231  19.165  13.768  14.292
92972W        W65232   3.819   7.267   4.825
92973W        W65233   2.450  31.572  14.301
92974W        W65234  18.140   5.888   3.167
92975W        W65235  23.088  43.484   3.859
92976W        W65236  37.573  41.401  12.830
92977W        W65237   1.739   9.651  14.788
92978W        W65238  22.053  36.083   2.896
92979W        W65239  26.017  22.046   2.226
92980W        W65240  36.392   1.879   0.432
92981W        W65241  30.642  24.698   1.794
92982W        W65242  33.506  20.732  13.934
92983W        W65243  15.736  15.659  13.466
92984W        W65244  35.376  29.133   0.277
92985W        W65245  17.068  25.532   2.186
92986W        W65246  42.780  16.211   4.763
92987W        W65247  34.938  15.146   2.738
92988W        W65248   7.185  38.978   1.753
92989W        W65249  26.114  28.470  10.615
92990W        W65250   3.298  25.481   4.159
92991W        W65251  25.990  36.091   0.390
92992W        W65252   2.770   0.933   1.276
92993W        W65253  43.437  37.507  12.502
92994W        W65254  13.166  26.525  13.008
92995W        W65255   5.432  15.709   0.263
92996W        W65256  36.014  25.673   3.751
92997W        W65257   0.911  14.203  13.386
92998W        W65258  21.701  21.526   4.217
92999W        W65259  39.451  11.131  14.913
93000W        W65260  35.980  22.546   4.308
93001W        W65261  37.429   5.778  14.894
93002W        W65262  41.348  34.443   0.383
93003W        W65263   6.733   0.271  11.863
93004W        W65264   7.215  12.135  12.984
93005W        W65265   7.908  16.700   1.836
93006W        W65266  23.516  23.659  13.379
93007W        W65267   1.852  39.544   2.823
93008W        W65268  20.526  16.136   4.715
93009W        W65269  14.211  21.042   3.862
93010W        W65270  12.156  43.946  11.901
93011W        W65271  30.143  31.570   4.746
93012W        W65272  28.619  36.873   3.670
93013W        W65273  16.176  35.404   1.694
93014W        W65274  29.104   9.378   2.813
93015W        W65275  28.165  17.305   5.122
93016W        W65276   5.279   4.298   2.365
93017W        W65277  32.427  41.389  14.953
93018W        W65278  19.175  14.722  14.013
93019W        W65279  32.611  14.251  12.551
93020W        W65280  41.029   2.941  13.478
93021W        W65281  33.061   7.386   2.326
93022W        W65282  12.180  27.643   5.714
93023W        W65283  31.405  24.509   1.356
93024W        W65284  19.045   9.316   2.191
93025W        W65285  23.686   8.755   1.891
93026W        W65286  15.086   1.929   0.361
93027W        W65287   6.294  22.666   2.790
93028W        W65288  23.040   8.665  13.836
93029W        W65289   2.956  41.305  14.855
93030W        W65290  31.613  18.216  12.853
93031W        W65291  40.536   7.741   3.698
93032W        W65292  33.607   2.933   3.372
93033W        W65293  13.196  32.573   4.805
93034W        W65294  23.185  43.416  12.014
93035W        W65295  38.845  43.318  14.888
93036W        W65296  13.216  35.904  14.800
93037W        W65297  18.135  21.259  10.929
93038W        W65298  13.790  39.952  11.454
93039W        W65299  41.529  14.171   4.214
93040W        W65300  18.236  35.507   4.155
93041W        W65301  16.656   4.412  12.923
93042W        W65302   1.258  25.512   4.725
93043W        W65303  38.986   4.267  12.436
93044W        W65304  40.398  39.902  12.366
93045W        W65305   1.286   6.400  12.462
93046W        W65306   3.816   9.194  13.522
93047W        W65307   0.958  44.830  12.397
93048W        W65308   1.349  43.794  13.478
93049W        W65309  20.731  11.808   1.344
93050W        W65310  44.314  17.061   4.129
93051W        W65311   5.748  35.960   0.306
93052W        W65312  28.013  17.759   4.296
93053W        W65313   3.459  32.985   0.766
93054W        W65314  12.838   7.888  14.374
93055W        W65315   8.752  40.860  11.570
93056W        W65316  35.511  28.626   3.757
93057W        W65317   1.364  27.964   1.449
93058W        W65318  15.692   5.711   4.806
93059W        W65319  28.065  19.213   0.435
93060W        W65320  11.200   1.425  11.403
93061W        W65321  19.170  15.731  14.846
93062W        W65322  34.078   6.887   4.666
93063W        W65323  19.063  11.290   1.699
93064W        W65324  38.866  42.992  11.083
93065W        W65325  33.585  39.937  13.035
93066W        W65326  28.024  16.680   1.432
93067W        W65327  27.451  35.372   4.718
93068W        W65328  30.089  32.519   1.346
93069W        W65329  12.627  16.679   2.805
93070W        W65330  27.672  43.822   0.266
93071W        W65331  36.388  10.314   4.754
93072W        W65332  42.792   9.776  12.934
93073W        W65333  32.074  26.586  14.948
93074W        W65334  42.459   2.397   1.309
93075W        W65335   1.293  31.555  11.889
93076W        W65336  11.731  33.515   5.275
93077W        W65337  17.582  27.630  12.849
93078W        W65338  42.809  15.251  12.955
93079W        W65339  22.138  22.048   3.775
93080W        W65340  25.165   8.810  11.015
93081W        W65341  10.200  17.616  14.758
93082W        W65342  40.345   2.287   0.905
93083W        W65343  33.976  25.607   2.762
93084W        W65344  31.101  20.267  12.521
93085W        W65345  16.765  44.913   3.326
93086W        W65346  20.738   4.419  12.563
93087W        W65347  11.192  13.680   0.961
93088W        W65348  10.348  21.543   4.319
93089W        W65349   3.861  13.700  13.511
93090W        W65350  29.130  19.649   4.128
93091W        W65351  38.995  13.681   4.612
93092W        W65352  13.211  30.063   2.725
93093W        W65353  30.607  11.307  13.056
93094W        W65354  39.466  30.158  11.883
93095W        W65355  27.191  18.609  13.027
93096W        W65356  44.976  21.067   0.967
93097W        W65357  41.872  44.835  11.609
93098W        W65358   3.453  34.486   4.271
93099W        W65359  30.437   7.880  14.311
93100W        W65360  31.124  23.158   2.268
93101W        W65361   3.380  42.912  10.952
93102W        W65362  23.712  36.462   1.780
93103W        W65363   8.859  17.566  12.504
93104W        W65364  34.566  36.496  11.433
93105W        W65365  24.517   2.377   0.469
93106W        W65366  21.531  43.911  13.914
93107W        W65367   8.251  35.072   0.459
93108W        W65368  40.543   9.260  11.083
93109W        W65369  37.545   4.773  14.282
93110W        W65370   3.388  17.095  14.389
93111W        W65371   9.735  18.789   4.711
93112W        W65372  25.517  38.479   3.378
93113W        W65373  31.589   5.316  12.476
93114W        W65374  24.721  42.381  14.296
93115W        W65375  41.007  33.006   0.362
93116W        W65376   8.389  31.646  13.314
93117W        W65377  27.570  23.699   2.270
93118W        W65378   6.194  15.228  10.970
93119W        W65379  25.100  16.738  13.438
93120W        W65380   3.928  35.455   0.269
93121W        W65381  37.979  35.452  14.989
93122W        W65382  20.529  18.197   0.951
93123W        W65383  44.913   2.293  14.351
93124W        W65384  40.810  43.391   0.457
93125W        W65385  18.568  20.762  13.391
93126W        W65386  37.919  43.398  13.845
93127W        W65387  24.504  34.411   1.431
93128W        W65388   6.845  12.770   4.330
93129W        W65389  19.739  30.924  13.827
93130W        W65390  30.609  33.425   3.798
93131W        W65391   0.464  29.595  11.488
93132W        W65392  42.982   2.299   0.928
93133W        W65393  25.146  20.563  10.975
93134W        W65394   6.342  13.325   4.603
93135W        W65395  44.898  38.561   2.681
93136W        W65396  26.071  19.754   2.828
93137W        W65397  26.981  24.632  11.498
93138W        W65398  44.955  29.034  10.575
93139W        W65399   1.949  13.816  11.048
93140W        W65400  24.094  12.784   2.762
93141W        W65401  39.559  44.321  13.430
93142W        W65402   2.235   0.889   5.117
93143W        W65403  13.154  31.571   2.744
93144W        W65404  11.856  42.375  14.362
93145W        W65405  24.015  12.622  12.968
93146W        W65406  19.758   4.239  10.415
93147W        W65407  28.982  14.693  12.953
93148W        W65408  16.610   6.367  11.932
93149W        W65409  34.085  41.829  11.591
93150W        W65410   7.352  35.410  12.415
93151W        W65411  29.132  18.614   4.828
93152W        W65412  21.249  38.962   4.834
93153W        W65413  37.025  15.082   3.662
93154W        W65414  29.981  21.559   0.880
93155W        W65415  30.621  14.299  12.385
93156W        W65416  21.225   4.284  10.451
93157W        W65417  41.940  36.847   2.359
93158W        W65418  11.684   9.239  11.472
93159W        W65419   4.855  14.224   5.110
93160W        W65420  40.860  12.295  12.938
93161W        W65421  30.623  34.982  13.906
93162W        W65422  40.307   9.293   0.349
93163W        W65423  44.350  12.198  13.052
93164W        W65424  14.248  21.520  11.856
93165W        W65425   1.238  32.467  14.962
93166W        W65426  20.062   2.908   1.714
93167W        W65427   3.799  44.885   0.768
93168W        W65428  28.636  20.655  13.540
93169W        W65429   5.801   9.256   3.221
93170W        W65430  20.036  38.868  14.015
93171W        W65431  16.292  26.151   0.802
93172W        W65432  14.697   6.410   2.793
93173W        W65433   3.952  31.150  14.898
93174W        W65434  18.098  24.976  11.093
93175W        W65435  33.609  29.453  13.388
93176W        W65436  35.102  36.441  12.986
93177W        W65437  31.069   0.457  14.890
93178W        W65438  16.701  38.476   2.821
93179W        W65439  23.064  22.685   2.323
93180W        W65440  32.027  26.667  10.532
93181W        W65441  11.332  41.378  12.912
93182W        W65442   5.360   0.890   3.684
93183W        W65443  40.822   3.453  12.566
93184W        W65444  37.472  36.473  13.945
93185W        W65445  29.918  12.210  10.546
93186W        W65446  40.416  40.348  14.418
93187W        W65447  23.211  19.548  10.592
93188W        W65448  11.359  38.410   3.720
93189W        W65449  37.522  44.938  12.859
93190W        W65450   2.268  36.388   0.787
93191W        W65451  44.924  24.071   4.700
93192W        W65452   8.885  44.820  11.398
93193W        W65453   0.977   4.744  11.534
93194W        W65454   8.776  34.946  12.028
93195W        W65455  13.156  35.370  10.414
93196W        W65456   7.855  41.403   2.857
93197W        W65457  21.689  28.973   4.312
93198W        W65458  22.742  36.408  14.348
93199W        W65459  18.167   8.214  14.317
93200W        W65460  21.063  12.186   5.108
93201W        W65461  15.255  36.372  14.971
93202W        W65462  13.747  11.632  11.092
93203W        W65463  13.769   8.783   0.287
93204W        W65464  28.018   4.312   1.318
93205W        W65465  15.753  18.283   1.912
93206W        W65466  24.654  27.171   4.229
93207W        W65467  29.520   7.703  12.362
93208W        W65468   2.314   8.879   2.399
93209W        W65469  43.373  34.053   4.669
93210W        W65470  11.838  32.078  11.897
93211W        W65471   6.868   9.359   1.745
93212W        W65472   1.390  12.323   0.473
93213W        W65473  43.837  28.661   3.328
93214W        W65474   1.800  33.066   2.852
93215W        W65475  12.780   2.254   3.632
93216W        W65476  22.668  17.240   0.754
93217W        W65477  14.169  41.479  11.014
93218W        W65478   9.176   3.921  12.448
93219W        W65479  38.951  39.012  12.526
93220W        W65480  21.203  14.781   0.764
93221W        W65481  17.297  18.054   2.705
93222W        W65482  36.928  37.411  12.571
93223W        W65483  27.553  38.896   4.628
93224W        W65484   3.234  28.463  11.936
93225W        W65485  13.794  26.135  12.514
93226W        W65486  43.336   2.326   3.852
93227W        W65487  24.212  27.622   3.182
93228W        W65488  20.114  30.918   3.200
93229W        W65489  21.712   7.259  14.451
93230W        W65490  42.918  31.572  13.410
93231W        W65491  25.607  38.900  10.442
93232W        W65492  21.083  29.157   4.184
93233W        W65493  44.831  25.657   0.769
93234W        W65494  36.084  29.052  11.014
93235W        W65495  24.008   8.229   1.716
93236W        W65496   7.806  22.668  12.029
93237W        W65497  32.089  18.584  10.908
93238W        W65498  30.135  34.460  11.425
93239W        W65499   6.358  24.670   1.867
93240W        W65500  39.386  21.748   1.757
93241W        W65501  26.160  43.979   3.377
93242W        W65502  44.412   9.225   3.639
93243W        W65503  41.337  11.646  12.369
93244W        W65504   5.829   4.256  14.455
93245W        W65505  28.665  16.247  12.943
93246W        W65506   9.827  14.618  12.407
93247W        W65507   6.735  22.660   3.349
93248W        W65508   3.810  29.104   5.269
93249W        W65509  20.111  39.838   0.253
93250W        W65510  41.312  43.282  12.414
93251W        W65511   2.390  26.624   1.383
93252W        W65512  31.149   9.254   1.731
93253W        W65513   2.278   5.412  12.087
93254W        W65514  42.474  11.264  10.529
93255W        W65515  42.776  28.654  10.602
93256W        W65516  18.729  27.485  11.546
93257W        W65517  43.911  19.649   0.830
93258W        W65518  31.482  14.286  12.405
93259W        W65519   0.896  28.944  11.561
93260W        W65520  43.897  27.149  14.918
93261W        W65521  32.032  36.009   9.985
93262W        W65522  32.400  23.540   2.333
93263W        W65523  23.715  12.339   4.315
93264W        W65524  28.607  42.448   3.184
93265W        W65525  22.730  27.659   3.238
93266W        W65526   8.386  15.751  12.494
93267W        W65527  23.060  27.672   2.308
93268W        W65528  42.011  19.170  11.040
93269W        W65529  27.029  28.070   1.256
93270W        W65530   6.259  41.968   4.686
93271W        W65531  38.861   6.841  11.437
93272W        W65532   6.919  18.140   1.229
93273W        W65533  32.071  21.535  12.454
93274W        W65534  27.941  30.155   3.205
93275W        W65535   3.872   4.273  11.577
93276W        W65536  39.963  40.348   4.129
93277W        W65537   0.757  13.327   2.330
93278W        W65538  44.265  37.061   4.709
93279W        W65539  37.580  17.067   2.842
93280W        W65540  36.034  16.647  14.451
93281W        W65541   0.329   7.693  12.047
93282W        W65542  43.361  16.299  12.021
93283W        W65543  23.699  21.048  11.390
93284W        W65544  32.096  26.164   2.706
93285W        W65545  36.036  38.849   4.353
93286W        W65546  25.135  10.804   2.873
93287W        W65547   6.843  34.001   3.819
93288W        W65548  41.821   4.708  11.033
93289W        W65549  26.576  13.344  14.029
93290W        W65550  32.942  31.566  12.019
93291W        W65551  19.637  14.758  14.330
93292W        W65552  44.394  24.224   4.679
93293W        W65553   1.884   4.439  12.871
93294W        W65554  17.240  37.436  14.994
93295W        W65555  44.264  40.020  11.604
93296W        W65556  13.638  29.528  11.913
93297W        W65557  32.118  19.058  13.901
93298W        W65558  25.495  39.319  12.554
93299W        W65559   5.214   0.802   2.383
93300W        W65560  31.086  40.405   4.322
93301W        W65561  23.713  43.412  13.841
93302W        W65562  36.976  15.086  11.018
93303W        W65563  28.186  10.879   3.355
93304W        W65564  21.155  36.587   4.635
93305W        W65565   9.259  22.529   4.806
93306W        W65566  30.047  30.416  13.477
93307W        W65567   7.701  37.842  13.854
93308W        W65568   9.320  18.620   2.246
93309W        W65569  28.982   9.721  11.912
93310W        W65570   0.275  29.003  13.959
93311W        W65571   2.777  34.936   0.416
93312W        W65572  22.147  27.607   4.249
93313W        W65573  39.976  33.527  13.423
93314W        W65574  15.613  13.800   3.867
93315W        W65575  37.581  32.109  10.406
93316W        W65576  35.857  21.251  13.443
93317W        W65577  19.601  17.216  14.370
93318W        W65578  12.147  40.849  13.927
93319W        W65579   2.226  35.359  11.573
93320W        W65580  20.181   4.443  11.106
93321W        W65581  10.178   3.934   3.322
93322W        W65582  34.464  43.394   2.371
93323W        W65583  44.905   8.390  14.448
93324W        W65584  18.574  18.089  13.055
93325W        W65585  33.418  17.580   4.258
93326W        W65586  44.428  13.628   1.854
93327W        W65587  20.104  20.175  13.994
93328W        W65588  38.383  27.135  11.559
93329W        W65589  34.968  17.633  14.458
93330W        W65590  22.598   6.809   0.420
93331W        W65591   6.869  29.626  13.918
93332W        W65592  34.530  12.690  11.016
93333W        W65593  13.168  42.423   1.300
93334W        W65594  16.637  32.447  13.348
93335W        W65595   9.221  31.024  12.898
93336W        W65596  31.500   2.865  14.376
93337W        W65597  39.031   2.944   3.690
93338W        W65598  24.984  39.002   2.380
93339W        W65599  26.481   8.343   4.209
93340W        W65600  36.047  10.145  12.859
93341W        W65601  32.590   0.369   3.282
93342W        W65602  40.831  36.381  13.475
93343W        W65603  38.939  16.757  11.539
93344W        W65604  34.538  19.138  10.977
93345W        W65605  29.665  20.537   0.952
93346W        W65606  21.594   2.347   1.795
93347W        W65607  36.365  41.525   9.997
93348W        W65608  16.154  22.565  10.112
93349W        W65609   8.788   6.406  11.553
93350W        W65610  29.622  25.001   0.360
93351W        W65611  17.151  33.876  13.535
93352W        W65612  26.594  37.021  12.501
93353W        W65613  31.085  31.531  13.513
93354W        W65614  32.138  13.326   2.308
93355W        W65615  24.055  11.839  12.023
93356W        W65616  32.004  25.062  11.001
93357W        W65617   3.298  16.569  11.870
93358W        W65618  20.745  30.589   4.804
93359W        W65619  34.420   9.394  10.472
93360W        W65620  20.582  22.657  11.608
93361W        W65621  41.301   9.349   2.344
93362W        W65622  20.227   8.786   3.221
93363W        W65623   5.874  37.383   4.311
93364W        W65624  23.042   9.726  13.000
93365W        W65625  24.708  31.598   1.303
93366W        W65626  43.396  19.584   2.789
93367W        W65627  39.496  44.416  11.430
93368W        W65628   6.710  38.886   0.756
93369W        W65629  15.201   5.787  11.446
93370W        W65630  28.054  35.462   3.833
93371W        W65631  41.372  39.955   1.373
93372W        W65632  37.338  42.285  12.361
93373W        W65633  19.085  40.834  13.500
93374W        W65634  10.240  24.637   1.807
93375W        W65635  11.655  37.881  13.413
93376W        W65636  16.112   0.393   3.292
93377W        W65637  43.331  28.131   2.213
93378W        W65638  12.156  34.071   0.919
93379W        W65639  37.032   9.664   3.292
93380W        W65640   4.262  24.169   1.781
93381W        W65641  29.025  27.947   1.322
93382W        W65642  24.211  28.675  14.786
93383W        W65643  42.811  35.885   1.764
93384W        W65644  19.673  39.522   2.359
93385W        W65645  22.678  24.068  14.280
93386W        W65646  16.626  23.519   4.119
93387W        W65647  31.561  20.218  10.889
93388W        W65648  36.540  29.447   1.701
93389W        W65649  24.499  25.965   5.570
93390W        W65650   0.755   3.765  14.337
93391W        W65651  13.690   5.806   0.251
93392W        W65652  22.680  43.304  11.995
93393W        W65653  10.715   3.286  14.985
93394W        W65654  18.622   2.888   0.876
93395W        W65655  29.593  13.296   0.952
93396W        W65656   5.783  37.557   0.904
93397W        W65657   8.740  28.532  14.885
93398W        W65658   5.308  31.514   1.276
93399W        W65659  32.540  22.211   1.352
93400W        W65660  36.052   7.726  12.390
93401W        W65661  43.774  23.178   4.752
93402W        W65662  33.036  18.616   3.868
93403W        W65663   5.321  16.622   4.765
93404W        W65664  36.421  17.718   1.810
93405W        W65665  39.001  23.013   0.272
93406W        W65666  44.280  13.773   2.204
93407W        W65667  36.967  33.585   1.735
93408W        W65668  38.326  13.166  11.496
93409W        W65669   7.670   8.343  12.579
93410W        W65670  37.888  26.689   1.761
93411W        W65671  44.889  24.678   4.838
93412W        W65672  27.160  28.538   3.224
93413W        W65673  14.659  10.169   1.345
93414W        W65674  38.343  35.527   4.319
93415W        W65675  29.633  35.013  13.376
93416W        W65676   7.885  22.620   0.908
93417W        W65677   9.856  14.631  11.404
93418W        W65678   1.787  39.854   2.875
93419W        W65679  43.508  25.121   0.285
93420W        W65680  32.912  17.199  12.401
93421W        W65681  40.450  34.002  12.494
93422W        W65682  35.988  33.102  12.924
93423W        W65683  22.245  21.090  14.303
93424W        W65684   4.321  39.366   0.865
93425W        W65685  30.446  39.981   1.731
93426W        W65686  33.512  32.010  14.959
93427W        W65687  35.569  14.140   1.806
93428W        W65688  27.133  30.621   4.705
93429W        W65689  32.456   5.788   2.413
93430W        W65690  41.868  20.670   2.890
93431W        W65691  32.886  36.516   3.283
93432W        W65692  11.159  42.930  11.881
93433W        W65693  23.087  20.224   2.409
93434W        W65694  13.775  29.613   0.783
93435W        W65695  10.779  22.650  11.032
93436W        W65696   2.966  32.937   3.757
93437W        W65697  35.397  27.629  12.095
93438W        W65698   1.242  15.103  11.959
93439W        W65699  26.003  31.518   1.893
93440W        W65700  41.947   5.267  12.363
93441W        W65701  22.574   6.213  11.505
93442W        W65702  11.810  10.142  13.957
93443W        W65703  28.627  24.534  14.385
93444W        W65704   6.412   5.887  11.570
93445W        W65705  22.024   8.822   4.666
93446W        W65706  14.667  12.189   4.789
93447W        W65707  43.473  38.342  12.024
93448W        W65708  30.468  28.065  12.432
93449W        W65709  44.395  33.487  11.965
93450W        W65710  32.545  24.054  10.933
93451W        W65711   1.339   9.310  10.429
93452W        W65712  44.897  38.426  11.857
93453W        W65713  25.012  27.575   1.295
93454W        W65714  20.672  23.060   0.867
93455W        W65715  41.838  39.014   4.691
93456W        W65716  29.980  37.509  12.019
93457W        W65717  43.331   6.370   1.438
93458W        W65718  35.100   0.479  12.948
93459W        W65719   7.328  22.615  12.387
93460W        W65720  35.554  20.663   0.347
93461W        W65721  36.423   6.340   2.894
93462W        W65722  25.538   9.737  12.931
93463W        W65723  31.931  20.695   2.271
93464W        W65724   2.884  28.444  13.993
93465W        W65725  23.520  14.673   2.417
93466W        W65726  30.131  38.050  13.432
93467W        W65727  10.680   2.413   4.136
93468W        W65728   9.387   1.967   2.408
93469W        W65729  39.009   5.374  14.408
93470W        W65730   1.946  19.653  14.352
93471W        W65731  20.742   2.343   2.893
93472W        W65732   1.379   7.201   2.791
93473W        W65733  43.016   1.877  11.972
93474W        W65734   1.762  10.229  13.918
93475W        W65735   3.753  30.004   2.809
93476W        W65736  13.605  41.420  13.424
93477W        W65737  11.727  30.582  14.506
93478W        W65738  41.968  33.025  11.890
93479W        W65739  25.485   0.258  13.854
93480W        W65740  26.200  15.759  10.482
93481W        W65741   7.330  44.886   1.869
93482W        W65742   2.308  18.637  11.029
93483W        W65743  37.527  28.992   0.779
93484W        W65744  41.795   4.445   1.904
93485W        W65745  27.083  44.261  14.385
93486W        W65746  36.483   2.273   1.916
93487W        W65747  16.768   9.794  12.442
93488W        W65748   6.812   7.803   3.696
93489W        W65749   8.312  34.504   1.438
93490W        W65750  38.565   0.492   3.264
93491W        W65751  16.607   1.834   1.926
93492W        W65752   3.944  10.826  14.968
93493W        W65753  43.335  32.028   1.872
93494W        W65754  23.113  31.586   0.273
93495W        W65755   2.797   7.868   1.902
93496W        W65756  27.128  23.158   3.378
93497W        W65757  42.021  18.272  14.332
93498W        W65758  34.980   3.387  10.519
93499W        W65759  19.657  13.743  10.958
93500W        W65760  43.397  21.121  10.601
93501W        W65761   3.813  37.474   9.933
93502W        W65762   4.942  26.528  14.349
93503W        W65763  32.397  33.592   3.206
93504W        W65764  10.864  14.670   2.325
93505W        W65765   8.248  43.504   0.312
93506W        W65766  13.290  10.319  13.863
93507W        W65767   8.677  36.588  14.017
93508W        W65768  24.086   3.336  13.962
93509W        W65769  37.070   3.360   1.260
93510W        W65770   4.903  24.192   3.694
93511W        W65771  30.434  34.545  12.386
93512W        W65772  20.266  36.386   2.311
93513W        W65773  35.572  21.109  10.580
93514W        W65774  42.977  26.672  10.910
93515W        W65775   7.886  41.937  10.488
93516W        W65776  36.384  32.139   1.737
93517W        W65777  39.873   1.343  12.525
93518W        W65778  10.173  30.944   1.710
93519W        W65779  38.972  15.721  12.442
93520W        W65780   7.860  25.110   0.785
93521W        W65781  30.626  14.252   2.419
93522W        W65782  41.860  42.357  13.395
93523W        W65783  12.642   2.276   4.151
93524W        W65784  31.596   6.887   1.445
93525W        W65785  38.447   5.858   0.901
93526W        W65786  25.708   7.814  12.470
93527W        W65787  34.430   8.290   4.198
93528W        W65788  29.141  37.475  11.561
93529W        W65789   6.870  40.864   4.687
93530W        W65790  13.632  23.532  13.953
93531W        W65791  29.655   8.683  12.437
93532W        W65792   0.287  40.934  14.280
93533W        W65793  27.139   2.271  11.861
93534W        W65794   1.789  36.447   3.833
93535W        W65795  24.060   9.380  12.048
93536W        W65796  11.705   6.779   3.644
93537W        W65797   2.465  21.192  12.930
93538W        W65798  12.201  24.587   1.381
93539W        W65799   0.398   0.428   1.780
93540W        W65800   4.736  21.128   0.365
93541W        W65801  42.018  27.631  14.479
93542W        W65802  31.410  40.494  13.529
93543W        W65803  15.602  27.108  13.886
93544W        W65804  16.203  10.830   2.699
93545W        W65805  38.510   0.968   4.252
93546W        W65806  43.303   5.888  14.438
93547W        W65807  27.087  44.903  11.558
93548W        W65808  36.530  38.478   2.387
93549W        W65809  24.973   7.893   5.171
93550W        W65810   5.201  19.729  14.778
93551W        W65811  29.938  10.367  12.441
93552W        W65812  10.703  38.351   3.322
93553W        W65813   3.949  32.397   0.354
93554W        W65814  30.576  27.502  14.901
93555W        W65815  11.806  20.097   3.276
93556W        W65816   4.229  21.560  13.898
93557W        W65817  24.144  39.987   0.470
93558W        W65818   8.805  40.534   1.379
93559W        W65819  42.332   7.855   2.723
93560W        W65820   0.284  27.986   2.734
93561W        W65821  42.422  38.865  11.038
93562W        W65822   1.873   5.917  11.009
93563W        W65823  20.749   5.838   4.239
93564W        W65824  11.171  25.133   0.828
93565W        W65825   8.204  26.141   3.655
93566W        W65826   1.923  32.951  13.536
93567W        W65827  27.165  39.459   3.176
93568W        W65828  39.857   3.381   4.802
93569W        W65829  40.459  28.597  12.847
93570W        W65830  21.682  37.838  14.404
93571W        W65831  41.799   3.725   1.894
93572W        W65832  12.177  41.795   0.364
93573W        W65833  32.423  10.273  14.298
93574W        W65834  11.134  41.951   1.833
93575W        W65835  25.970  35.442   0.785
93576W        W65836  34.594  32.086  14.028
93577W        W65837  24.528  19.694  12.892
93578W        W65838   4.863   7.777   2.349
93579W        W65839  36.434   3.303  11.878
93580W        W65840  15.710  39.549   1.398
93581W        W65841  38.933  38.398  14.480
93582W        W65842  28.032   4.220  11.521
93583W        W65843   6.382  22.677  12.491
93584W        W65844  20.273  34.482  13.442
93585W        W65845  40.840  31.048   1.362
93586W        W65846  32.602  19.190  13.511
93587W        W65847  32.920  11.733  11.443
93588W        W65848  25.514  14.798   4.640
93589W        W65849  13.324   4.325   0.435
93590W        W65850  43.778   5.886  13.025
93591W        W65851  42.314   2.235   3.773
93592W        W65852  37.831  19.594   2.417
93593W        W65853   0.295   2.427   1.361
93594W        W65854  12.148   4.372   3.376
93595W        W65855   5.227  33.055   4.231
93596W        W65856  25.983  26.578  11.432
93597W        W65857   5.687  35.383  13.361
93598W        W65858  16.754  20.723   4.687
93599W        W65859  24.537  28.118   3.641
93600W        W65860  11.205  16.101   2.714
93601W        W65861  35.574  22.501  13.525
93602W        W65862  39.368  26.695   4.244
93603W        W65863  20.582  25.501   3.647
93604W        W65864  41.421  31.549   2.314
93605W        W65865  20.550   0.313  14.878
93606W        W65866  39.938  38.053   0.430
93607W        W65867  21.196  14.257  14.319
93608W        W65868  42.969  18.137   0.293
93609W        W65869  32.505  27.177  10.960
93610W        W65870  20.649  16.806  13.960
93611W        W65871   2.263  41.923   3.230
93612W        W65872  37.955  18.663  11.475
93613W        W65873  30.654  39.479  12.441
93614W        W65874  13.664  39.047  13.005
93615W        W65875   2.412   5.911  14.938
93616W        W65876   3.733  33.009   4.745
93617W        W65877  22.236   4.385   1.308
93618W        W65878   3.374  27.627   2.354
93619W        W65879   0.443  28.180   1.284
93620W        W65880  20.211  39.860  13.001
93621W        W65881  33.993  35.077   0.440
93622W        W65882  13.278  38.925   1.245
93623W        W65883  28.951  32.000   9.516
93624W        W65884   3.447   1.378   1.742
93625W        W65885  32.437  31.910   3.164
93626W        W65886  25.996  31.050  14.438
93627W        W65887  13.120  39.059  12.040
93628W        W65888  14.647   5.906  10.544
93629W        W65889  22.621  37.350   4.234
93630W        W65890   0.331  43.394   1.296
93631W        W65891  16.755  26.520   0.411
93632W        W65892  28.587   0.300  11.107
93633W        W65893  22.652  43.921   2.359
93634W        W65894  37.834  14.112   3.775
93635W        W65895  11.797  17.247  10.572
93636W        W65896  15.124  34.117  10.932
93637W        W65897   7.284   5.781  11.885
93638W        W65898  28.952  10.371  13.854
93639W        W65899  41.460  21.241   5.298
93640W        W65900  18.685  21.104   1.880
93641W        W65901  37.468  37.087  10.455
93642W        W65902  13.238  27.505   3.698
93643W        W65903  33.941   6.278   1.809
93644W        W65904   2.828  10.316  11.908
93645W        W65905  15.765  13.315   0.466
93646W        W65906  27.610  13.657  10.601
93647W        W65907  35.933  44.949   1.406
93648W        W65908  35.519  43.931   2.279
93649W        W65909   2.882   4.333  11.109
93650W        W65910   9.306  21.196  12.925
93651W        W65911   6.293  42.471   4.662
93652W        W65912   8.185  16.664   4.733
93653W        W65913   1.246  24.540  10.482
93654W        W65914   8.706  26.017  13.795
93655W        W65915  24.223  30.542   5.256
93656W        W65916  35.985  42.373  13.429
93657W        W65917  42.836  42.328  10.547
93658W        W65918  12.718  43.816  12.416
93659W        W65919  13.212  36.469   4.127
93660W        W65920  27.943  24.527   0.875
93661W        W65921  28.636  43.944  11.936
93662W        W65922  25.043  32.951   3.269
93663W        W65923  13.657  40.865  10.602
93664W        W65924   0.859  30.503  13.058
93665W        W65925  10.380  39.482  14.843
93666W        W65926   0.271  35.886   1.850
93667W        W65927  42.378  35.458  10.969
93668W        W65928   2.772  43.916  14.347
93669W        W65929  18.695  40.802  11.405
93670W        W65930  43.395  43.773  13.902
93671W        W65931  24.034  10.296  11.045
93672W        W65932  30.627  13.826   1.249
93673W        W65933  17.752  38.334   0.890
93674W        W65934  41.466   6.340  14.835
93675W        W65935   5.345  44.808  11.519
93676W        W65936   1.374  21.623  12.367
93677W        W65937  14.728  44.311   1.258
93678W        W65938  16.204  24.614  14.884
93679W        W65939   5.431  10.846   2.844
93680W        W65940  35.980  17.226   0.276
93681W        W65941  16.224  16.623   2.779
93682W        W65942   0.391  25.021   4.621
93683W        W65943   0.388  32.442  14.934
93684W        W65944  37.008   4.288   4.332
93685W        W65945  21.695   7.295   3.378
93686W        W65946  32.982  11.303  14.780
93687W        W65947  44.908   9.745   1.270
93688W        W65948  22.139  30.959  14.471
93689W        W65949  44.899  23.134  14.796
93690W        W65950  15.800  37.951   3.755
93691W        W65951  42.793   5.216   2.202
93692W        W65952  28.513  38.823   1.876
93693W        W65953  35.532  16.580  12.006
93694W        W65954   7.878  18.184   3.858
93695W        W65955  31.470  33.954   4.267
93696W        W65956   7.809  10.673   1.217
93697W        W65957  39.813  43.384   2.249
93698W        W65958   1.251  31.009   2.410
93699W        W65959  11.142  37.072  12.469
93700W        W65960   2.863  33.117   0.376
93701W        W65961  43.312  19.608  12.074
93702W        W65962  37.534   0.465   0.440
93703W        W65963  17.646  39.465   3.763
93704W        W65964  18.208   7.751  14.917
93705W        W65965  28.037  22.703  12.536
93706W        W65966   5.745  18.579  13.367
93707W        W65967  28.508   3.898   1.342
93708W        W65968  34.960  39.809   3.369
93709W        W65969  11.718  19.239  10.973
93710W        W65970  14.790  38.535   3.853
93711W        W65971  42.814  16.669  12.857
93712W        W65972  43.471  20.590  12.531
93713W        W65973  34.117  14.116   3.826
93714W        W65974  20.556   7.400   1.427
93715W        W65975  36.411  40.443  13.938
93716W        W65976  42.328  32.618  12.844
93717W        W65977  11.746   2.316  10.056
93718W        W65978  13.675  26.686   2.205
93719W        W65979  21.580  41.791  11.451
93720W        W65980  11.721  21.061   0.339
93721W        W65981  15.220  17.592   5.633
93722W        W65982  20.758  15.296   0.420
93723W        W65983  28.566  26.111   1.905
93724W        W65984  13.793   7.205  13.417
93725W        W65985  26.019  12.709   3.315
93726W        W65986   3.330   6.184  12.369
93727W        W65987  18.111  25.642  11.533
93728W        W65988  19.612  32.122  13.532
93729W        W65989  34.877  22.628   2.358
93730W        W65990  38.481   6.357  13.944
93731W        W65991   5.360  12.698  11.400
93732W        W65992  20.548  31.152  12.350
93733W        W65993  39.437   2.721  13.062
93734W        W65994  18.144  23.073  14.880
93735W        W65995  33.069  15.323  14.361
93736W        W65996  31.520  35.529  11.965
93737W        W65997   3.461  23.660  14.438
93738W        W65998  41.421  19.721  12.389
93739W        W65999  15.591   7.696  12.497
93740W        W66000  31.454  34.428  14.454
93741W        W66001   5.430  29.096   3.256
93742W        W66002  20.146   7.835   0.326
93743W        W66003  33.893  44.845   3.792
93744W        W66004  18.642  31.118   2.313
93745W        W66005  22.028  28.136  11.568
93746W        W66006   2.413  35.068  14.964
93747W        W66007   1.242  31.937  10.954
93748W        W66008  43.904  17.618  14.939
93749W        W66009  15.311  26.661  11.994
93750W        W66010  31.482  43.940  12.994
93751W        W66011  21.034  19.221  11.383
93752W        W66012  41.965   4.936  10.483
93753W        W66013  19.127  29.583   0.821
93754W        W66014   0.311  10.833   0.936
93755W        W66015   7.388   6.904   1.827
93756W        W66016  22.011  15.172  10.555
93757W        W66017  35.885  38.058   0.839
93758W        W66018   6.318  21.209  12.457
93759W        W66019  35.515  40.992   4.145
93760W        W66020   1.460   1.325   1.232
93761W        W66021  15.286  16.700  14.430
93762W        W66022  35.959  30.644   1.238
93763W        W66023  20.052   8.660  14.415
93764W        W66024  18.657  13.144   3.711
93765W        W66025  36.510  33.431   4.757
93766W        W66026  44.964  42.775  12.064
93767W        W66027   3.292  15.718   3.755
93768W        W66028  31.495  42.807   0.922
93769W        W66029  22.726  32.608   3.146
93770W        W66030  20.274  17.619   1.815
93771W        W66031  19.558  17.795  14.348
93772W        W66032  23.528  25.180  13.036
93773W        W66033   1.238  36.948   2.700
93774W        W66034  10.834  33.513   0.864
93775W        W66035  40.978  43.374   4.157
93776W        W66036  30.048  19.672   4.302
93777W        W66037  43.897   8.879   0.347
93778W        W66038  17.240  41.930   0.484
93779W        W66039  25.117  43.346   0.759
93780W        W66040  16.675   4.409   4.191
93781W        W66041  15.702  12.268  12.422
93782W        W66042   3.856  38.066  14.483
93783W        W66043  27.671  23.051   3.691
93784W        W66044  17.593   5.835  12.481
93785W        W66045  29.484  14.275  11.397
93786W        W66046  31.027   7.768  13.331
93787W        W66047  15.267  28.163   3.734
93788W        W66048  32.904  18.592  14.381
93789W        W66049   9.745  39.376   4.738
93790W        W66050  37.474   0.442   4.342
93791W        W66051   4.846  39.988  12.035
93792W        W66052  28.123  40.984   0.955
93793W        W66053  12.239  40.462  10.537
93794W        W66054  31.541  28.648  10.898
93795W        W66055  19.545   5.889   5.794
93796W        W66056  21.518  40.494  11.953
93797W        W66057  36.492  44.280   2.781
93798W        W66058   2.328  19.089  13.319
93799W        W66059  21.513  39.970   2.206
93800W        W66060  10.204  18.091   2.816
93801W        W66061  23.112   8.727  12.374
93802W        W66062  23.498   5.372  14.789
93803W        W66063  40.468   6.678  10.417
93804W        W66064  26.499  35.382  12.001
93805W        W66065  37.468  41.432  12.397
93806W        W66066  16.614  28.571  14.935
93807W        W66067  13.310  36.900   0.902
93808W        W66068  11.681  25.546   3.684
93809W        W66069  31.150  24.191   2.701
93810W        W66070   5.396   3.739   0.338
93811W        W66071  16.680  21.587  11.039
93812W        W66072  40.826  19.057   0.348
93813W        W66073  43.912   2.310   4.647
93814W        W66074  13.809  17.559   2.810
93815W        W66075  24.704  17.750  12.844
93816W        W66076  18.680  29.425   0.474
93817W        W66077  29.494  29.056   0.266
93818W        W66078  33.121   1.280   1.448
93819W        W66079  19.256  20.113  14.983
93820W        W66080   9.393  17.755   0.780
93821W        W66081   9.267  14.633  12.043
93822W        W66082   8.683  44.272   2.367
93823W        W66083  20.076  23.164  10.527
93824W        W66084  36.973  22.137  11.956
93825W        W66085  35.027  18.786   3.282
93826W        W66086  15.649  32.567   0.352
93827W        W66087  29.940  37.417  12.946
93828W        W66088  28.032  41.788   0.446
93829W        W66089  13.302  17.577   0.759
93830W        W66090   5.920  15.712   2.702
93831W        W66091  35.901  10.345   0.260
93832W        W66092  11.844  39.546   4.310
93833W        W66093  39.906  12.255   4.341
93834W        W66094  40.875   3.284  10.981
93835W        W66095   4.871  34.924   4.129
93836W        W66096  30.521  29.957   3.358
93837W        W66097  14.301  23.238   0.478
93838W        W66098   8.656  41.983   0.814
93839W        W66099  34.086  43.954   0.805
93840W        W66100   7.343  41.988  13.366
93841W        W66101  11.270  17.113   3.864
93842W        W66102  15.303  42.496   1.222
93843W        W66103  29.431  14.708  13.011
93844W        W66104  20.737  32.126  12.883
93845W        W66105  18.284  16.318  13.794
93846W        W66106  36.575   1.263   1.863
93847W        W66107  10.749   8.360   4.241
93848W        W66108  34.416  35.390   2.865
93849W        W66109  39.961   4.253  10.935
93850W        W66110  33.911  33.928   3.372
93851W        W66111  39.883   4.363  14.350
93852W        W66112  23.681  30.569   2.690
93853W        W66113  42.984   7.206   2.180
93854W        W66114  37.346   1.765  12.040
93855W        W66115  22.248   1.470   2.292
93856W        W66116   3.292   7.769   3.684
93857W        W66117   2.844  31.036  10.524
93858W        W66118   3.444  24.664   3.158
93859W        W66119  25.216  28.133  10.970
93860W        W66120   7.827  13.618  13.895
93861W        W66121  18.673  27.077  12.422
93862W        W66122  37.053  44.308  14.318
93863W        W66123  26.492   0.851   3.258
93864W        W66124  10.279  40.416  13.988
93865W        W66125   7.825  17.182  11.088
93866W        W66126   9.803  42.951   1.291
93867W        W66127  11.749  11.231  14.456
93868W        W66128  19.253   8.238   3.733
93869W        W66129  17.756  37.355  11.865
93870W        W66130  19.085  35.924  12.375
93871W        W66131  10.308  13.755   1.368
93872W        W66132   1.408  32.928   4.113
93873W        W66133  12.237  31.107   3.273
93874W        W66134  19.125  33.887  14.871
93875W        W66135  12.152   6.850   2.216
93876W        W66136   1.740  16.749   2.264
93877W        W66137  18.097   1.378  13.808
93878W        W66138   6.707  39.937   4.809
93879W        W66139  37.931  15.672  10.485
93880W        W66140  28.985  42.892  12.450
93881W        W66141   2.949  25.679  12.898
93882W        W66142   6.717  23.603  14.766
93883W        W66143  27.480  39.487   0.291
93884W        W66144  30.457  15.712   4.213
93885W        W66145  35.014  28.035  12.034
93886W        W66146  16.134   6.816  14.788
93887W        W66147  42.355  23.608   4.231
93888W        W66148  40.512  28.480   2.886
93889W        W66149  18.229  23.118  13.042
93890W        W66150   6.826  26.680   1.705
93891W        W66151   8.766   8.839  12.552
93892W        W66152  18.109  21.707   4.327
93893W        W66153   3.948  26.611   3.171
93894W        W66154  42.320  44.770   3.212
93895W        W66155   0.282   4.427  10.470
93896W        W66156  33.623  39.319  11.094
93897W        W66157  14.287  43.280  11.602
93898W        W66158  14.221  21.609  11.434
93899W        W66159  26.618  18.692  14.793
93900W        W66160  21.213  44.801  12.373
93901W        W66161  13.830  18.618   0.459
93902W        W66162  35.585  12.136  13.441
93903W        W66163   0.282   1.802   3.318
93904W        W66164  44.866  44.848  14.302
93905W        W66165  40.825  35.936  10.959
93906W        W66166  26.147  31.444  10.628
93907W        W66167  15.677  34.879  10.428
93908W        W66168  11.715  16.176   0.441
93909W        W66169  34.557  43.968   3.837
93910W        W66170  28.082  10.152  10.155
93911W        W66171  29.565  31.921   3.636
93912W        W66172  26.085  30.049  12.836
93913W        W66173  29.632  11.314  13.020
93914W        W66174  22.232   8.887  10.556
93915W        W66175  21.703   8.776  14.446
93916W        W66176  35.517  31.019   0.892
93917W        W66177  14.691   8.768  10.421
93918W        W66178  36.462  38.961  13.008
93919W        W66179   4.760  34.451  10.014
93920W        W66180  43.783  29.025  11.102
93921W        W66181  24.112  32.483   2.248
93922W        W66182  20.032  13.820  13.842
93923W        W66183  25.086  36.355  13.394
93924W        W66184  41.029  33.490  10.409
93925W        W66185  16.651  10.278   0.248
93926W        W66186  11.754  44.921  10.483
93927W        W66187  29.107  21.083   1.217
93928W        W66188   7.905   0.813  10.483
93929W        W66189  44.772  11.638   4.805
93930W        W66190  30.942   5.845  13.918
93931W        W66191  27.122  36.067   1.871
93932W        W66192   3.757   3.442   1.735
93933W        W66193  12.206  40.410  11.992
93934W        W66194  28.013  22.145   1.902
93935W        W66195  14.710  19.697  11.055
93936W        W66196  30.993  26.558  13.364
93937W        W66197  36.413  42.359   0.960
93938W        W66198  34.463   0.815  11.056
93939W        W66199  41.013  33.462  12.850
93940W        W66200  40.483  25.217   1.755
93941W        W66201  21.022  33.581   0.838
93942W        W66202  40.305   3.843  13.324
93943W        W66203  35.595  12.166  14.999
93944W        W66204  30.104   6.427   2.667
93945W        W66205  44.954  37.992  13.939
93946W        W66206  24.128  16.769   1.328
93947W        W66207  24.110  43.938   1.697
93948W        W66208  17.579  30.997   2.258
93949W        W66209  18.075  41.974   4.224
93950W        W66210  31.923  10.198  13.461
93951W        W66211  14.119  27.467   9.948
93952W        W66212  34.572  29.065  14.496
93953W        W66213   5.770  22.219  11.026
93954W        W66214  33.594  24.200   3.800
93955W        W66215  32.618  20.090  14.840
93956W        W66216  22.231  21.227   4.747
93957W        W66217  36.534  40.516   1.374
93958W        W66218  19.052  34.892   1.770
93959W        W66219   0.449  33.965  12.013
93960W        W66220   1.342  22.189  11.442
93961W        W66221  22.016  17.671   2.813
93962W        W66222  10.364  33.969  12.045
93963W        W66223   3.386  37.486   2.241
93964W        W66224  42.883   3.739  14.473
93965W        W66225  24.156  33.941   1.804
93966W        W66226  37.559  41.364  14.026
93967W        W66227  23.518  33.903   2.830
93968W        W66228  37.513  36.433  10.954
93969W        W66229  36.571  29.961   0.810
93970W        W66230   2.920  37.450   0.373
93971W        W66231  32.955  20.676   3.186
93972W        W66232  22.088  37.391  11.945
93973W        W66233  23.996  31.053   3.364
93974W        W66234  44.393  22.187   3.237
93975W        W66235   8.895  35.500   1.866
93976W        W66236  41.300   1.817  12.479
93977W        W66237  34.018  26.652   4.736
93978W        W66238  18.734   4.296   0.307
93979W        W66239  37.431  24.044   4.136
93980W        W66240   5.381  17.231   4.130
93981W        W66241   6.258  31.009   4.324
93982W        W66242  43.855  15.587  12.015
93983W        W66243  19.566  32.434   0.478
93984W        W66244  27.567   7.903  14.456
93985W        W66245   1.309  12.614   3.834
93986W        W66246   5.782   3.355   2.729
93987W        W66247  37.430   3.882  14.350
93988W        W66248  44.852  23.679   2.753
93989W        W66249  38.908  44.345   3.732
93990W        W66250  12.175  23.223  13.875
93991W        W66251  14.729  30.490   2.667
93992W        W66252   9.192   7.264  11.932
93993W        W66253  11.224   4.442  11.536
93994W        W66254   3.847  17.170   9.982
93995W        W66255   6.915  32.551  11.579
93996W        W66256   5.904  29.439   3.636
93997W        W66257   8.671  31.532   2.689
93998W        W66258  14.791  30.007   2.352
93999W        W66259  22.627  21.628  13.039
94000W        W66260  38.028   2.834   4.270
94001W        W66261   6.790   2.813   0.427
94002W        W66262  33.605   2.917  11.573
94003W        W66263  25.588  35.924   5.243
94004W        W66264  39.439  44.936  14.912
94005W        W66265  39.058  27.494  12.452
94006W        W66266   9.155  32.041  12.464
94007W        W66267   5.794  34.979  13.970
94008W        W66268  38.554  42.781   4.609
94009W        W66269  18.777  40.866  10.491
94010W        W66270  34.994   3.757   1.878
94011W        W66271  22.703  12.228  13.328
94012W        W66272  22.675  18.104  11.071
94013W        W66273  19.087  34.951  13.876
94014W        W66274  34.585  25.069   0.953
94015W        W66275   0.816  30.434  14.447
94016W        W66276  19.649  12.121  12.942
94017W        W66277   1.389   0.264  10.904
94018W        W66278  19.044  24.492  11.022
94019W        W66279  38.061  17.066   4.725
94020W        W66280  16.695  41.786  14.954
94021W        W66281  39.471   9.259   4.813
94022W        W66282  13.624   0.406  12.060
94023W        W66283  40.445  21.580  14.325
94024W        W66284  24.155  14.215  14.385
94025W        W66285  17.570   0.369  11.501
94026W        W66286   5.690  13.209  14.027
94027W        W66287  12.122   5.705  12.470
94028W        W66288  14.634   7.263   4.344
94029W        W66289  37.403  27.048   1.804
94030W        W66290  30.426  32.022  11.875
94031W        W66291  20.678  21.260  11.559
94032W        W66292  26.518  34.952  10.422
94033W        W66293  27.447  36.038   0.781
94034W        W66294  16.569  25.094   0.292
94035W        W66295  15.784  30.504  11.900
94036W        W66296   4.416   2.813  12.838
94037W        W66297   3.752  34.418  13.032
94038W        W66298   2.451   2.883  13.321
94039W        W66299  21.253  19.713  14.498
94040W        W66300  14.795   4.270   2.341
94041W        W66301  30.053  29.569  14.982
94042W        W66302  20.171   4.390   1.357
94043W        W66303  41.525  38.935  14.282
94044W        W66304  36.396  12.789  11.097
94045W        W66305  33.951  15.811  11.939
94046W        W66306   3.794  33.554   3.360
94047W        W66307   0.405  11.851  10.896
94048W        W66308  13.678  17.559  13.420
94049W        W66309   4.805  12.266   0.286
94050W        W66310   3.923   0.313   1.360
94051W        W66311  34.937  19.635   2.896
94052W        W66312  11.668  11.362   4.173
94053W        W66313  28.957  24.645  13.859
94054W        W66314   7.900  10.695   3.317
94055W        W66315   9.841  22.559  11.453
94056W        W66316  31.473  22.592   1.736
94057W        W66317  18.197  22.587  13.884
94058W        W66318  10.208  11.648   2.836
94059W        W66319  43.501  31.978  13.857
94060W        W66320  36.025   3.892  10.571
94061W        W66321  17.287  37.576  11.959
94062W        W66322  38.068  31.575  14.858
94063W        W66323   2.794  30.024   0.387
94064W        W66324   2.297  42.372   0.464
94065W        W66325   2.470  10.720   4.278
94066W        W66326  17.192  24.047   2.691
94067W        W66327   4.392  23.091   0.784
94068W        W66328  42.838  30.466   1.317
94069W        W66329   8.263  20.635   2.854
94070W        W66330  39.972  18.170   0.841
94071W        W66331   0.447  41.521  10.599
94072W        W66332  43.925   1.969   3.229
94073W        W66333  29.574  30.928  14.871
94074W        W66334  26.616   1.343   0.367
94075W        W66335  38.391   8.869   2.356
94076W        W66336   9.337  37.350  13.336
94077W        W66337  22.715  40.974  11.978
94078W        W66338  32.547  29.109   3.717
94079W        W66339  18.079  17.270  11.948
94080W        W66340  42.298  18.290  12.559
94081W        W66341  31.973   6.677  11.389
94082W        W66342  31.622  17.664  14.797
94083W        W66343  28.130  15.264   0.446
94084W        W66344   6.357  43.801   3.221
94085W        W66345  40.019  38.474  11.578
94086W        W66346  33.495  29.470   2.331
94087W        W66347  23.165  43.383   0.913
94088W        W66348  23.621   6.797  12.360
94089W        W66349  10.238  44.947  14.026
94090W        W66350   6.809  30.985   3.785
94091W        W66351  14.138  11.311  11.510
94092W        W66352  21.263  43.893   2.215
94093W        W66353  29.135  36.075  10.421
94094W        W66354  34.000  42.399   0.731
94095W        W66355  33.439  15.263  12.029
94096W        W66356  18.052  20.577  12.932
94097W        W66357   7.300  33.052   4.211
94098W        W66358   4.430  26.701  11.009
94099W        W66359   0.464   9.304  11.993
94100W        W66360  31.006  41.412  11.124
94101W        W66361  39.544  40.370   0.928
94102W        W66362  36.870   0.984   4.226
94103W        W66363  28.584  20.672  14.855
94104W        W66364  37.046   4.723  11.527
94105W        W66365   4.818  29.044   1.822
94106W        W66366  26.067  17.643   3.739
94107W        W66367   2.400  32.555   4.786
94108W        W66368  15.326  24.657   1.332
94109W        W66369  15.588  42.819  14.974
94110W        W66370  13.136  11.310   3.800
94111W        W66371   8.215  26.533   0.880
94112W        W66372  17.076   7.319   0.827
94113W        W66373  42.811  18.103  10.954
94114W        W66374  17.619  19.131  10.502
94115W        W66375  41.015   7.387  11.578
94116W        W66376  13.292  10.181  11.515
94117W        W66377  41.986  12.155   0.787
94118W        W66378  10.166  42.966  10.405
94119W        W66379  17.642  22.113   2.217
94120W        W66380  34.060  25.121   4.213
94121W        W66381  26.605   6.876  13.518
94122W        W66382  32.424  14.144   4.274
94123W        W66383  20.665  35.950  12.046
94124W        W66384   4.757  43.975  10.102
94125W        W66385   4.413  21.019   0.260
94126W        W66386  37.834  37.511  12.382
94127W        W66387  24.508  30.957   1.852
94128W        W66388  33.506  29.042  13.498
94129W        W66389  27.137  26.085  14.406
94130W        W66390  16.743  37.468   2.759
94131W        W66391  29.512   1.267   1.790
94132W        W66392  29.115  30.562   9.965
94133W        W66393  30.414   4.704  12.430
94134W        W66394  19.181  28.044   0.742
94135W        W66395  10.297  34.434  10.095
94136W        W66396  15.113  35.506  11.420
94137W        W66397  23.149   2.353   4.720
94138W        W66398  30.580  30.511  14.390
94139W        W66399   6.765  40.900  12.515
94140W        W66400  38.480   3.772  13.401
94141W        W66401  30.919  21.262   4.810
94142W        W66402  29.504  16.242   1.375
94143W        W66403   7.792  13.215  12.391
94144W        W66404  21.133  31.040   0.428
94145W        W66405  31.572   3.883  10.415
94146W        W66406   2.842  34.429   0.735
94147W        W66407  27.049  41.497  14.356
94148W        W66408  42.781  44.782   2.419
94149W        W66409  32.959   7.902   1.259
94150W        W66410   0.268  19.183   4.241
94151W        W66411  35.859  30.462   4.701
94152W        W66412  43.821  33.078   2.856
94153W        W66413  27.546  18.234   3.720
94154W        W66414  27.616  12.308  11.962
94155W        W66415  16.771  19.203  14.453
94156W        W66416  10.243  20.226   2.903
94157W        W66417  30.033   7.385  12.903
94158W        W66418   8.767  33.612  14.440
94159W        W66419  26.951  20.080   1.745
94160W        W66420  15.726  19.621   4.158
94161W        W66421  31.936  28.462  10.630
94162W        W66422  32.559  44.501   1.860
94163W        W66423  15.814  35.030   0.788
94164W        W66424  43.891  32.571   3.793
94165W        W66425  26.123  28.585   2.412
94166W        W66426  26.603  12.717  12.365
94167W        W66427  28.070   2.816  14.960
94168W        W66428  43.342   4.708  12.955
94169W        W66429  38.413   9.380   3.295
94170W        W66430   3.253  19.100   0.783
94171W        W66431  20.704  35.936   2.294
94172W        W66432  18.179   4.278   3.790
94173W        W66433  39.964  40.407   1.428
94174W        W66434  44.294   4.896   4.183
94175W        W66435   2.244   4.911  13.815
94176W        W66436  19.285  42.865  10.979
94177W        W66437  40.389   0.273  12.977
94178W        W66438  37.866   5.777  11.125
94179W        W66439  39.330  37.357   4.322
94180W        W66440  31.997  37.364   2.328
94181W        W66441  36.439   3.265  10.456
94182W        W66442  28.037  41.434   2.711
94183W        W66443  19.622  24.048  12.853
94184W        W66444  17.269  34.114   1.225
94185W        W66445  19.608  31.576   3.215
94186W        W66446  24.558  36.480  12.024
94187W        W66447  29.440  15.677   1.761
94188W        W66448   2.803  30.947   1.705
94189W        W66449  39.385  26.083  11.608
94190W        W66450  17.654  23.535   2.198
94191W        W66451  11.353  18.560   1.256
94192W        W66452  38.437  29.158  12.943
94193W        W66453  29.059  34.055   1.724
94194W        W66454   1.943  20.186  14.882
94195W        W66455  18.695  24.154   3.740
94196W        W66456  41.798  19.647   3.721
94197W        W66457   4.229  28.950   1.758
94198W        W66458  34.429  22.115  11.537
94199W        W66459  28.034  37.835   3.298
94200W        W66460  39.477   3.265  12.473
94201W        W66461  37.831  42.524  14.319
94202W        W66462  13.717   8.293   2.310
94203W        W66463  32.964  36.540  11.046
94204W        W66464  39.047  32.918  13.457
94205W        W66465  11.816  32.057   4.625
94206W        W66466  19.767  24.062   1.357
94207W        W66467  33.387  42.487  11.051
94208W        W66468  11.161  19.663  12.443
94209W        W66469  22.744   0.462   0.922
94210W        W66470   8.175  19.701  11.053
94211W        W66471   9.311  29.994   2.386
94212W        W66472  35.377  21.263   3.716
94213W        W66473  10.694  38.444  11.511
94214W        W66474  16.684  26.490  13.934
94215W        W66475  20.170  32.957   0.965
94216W        W66476  36.902   3.880   1.266
94217W        W66477  17.117  25.582  10.008
94218W        W66478  13.676  21.081   4.621
94219W        W66479  42.843  16.712  10.406
94220W        W66480  27.158  11.300  14.441
94221W        W66481  28.063  23.985  12.471
94222W        W66482  23.691   7.740  14.468
94223W        W66483  10.346  30.616   4.747
94224W        W66484  33.948  29.591   3.687
94225W        W66485   5.271  43.271  10.562
94226W        W66486  33.524  15.731  12.515
94227W        W66487   7.213  28.940   4.313
94228W        W66488  24.622  25.595   1.934
94229W        W66489  29.469  17.092  13.821
94230W        W66490  25.201  36.047   3.209
94231W        W66491  36.479  24.131  13.530
94232W        W66492  31.149  20.763   3.846
94233W        W66493  33.490  36.855  14.995
94234W        W66494  12.194  22.136  14.497
94235W        W66495   7.227  22.231  10.405
94236W        W66496  36.873  16.274   3.781
94237W        W66497  26.543  14.107  10.148
94238W        W66498  32.107  13.633   1.836
94239W        W66499   7.755  19.268  14.778
94240W        W66500   8.269  22.127   2.664
94241W        W66501  37.354  41.806  12.010
94242W        W66502  43.487  38.428  13.482
94243W        W66503  26.515  13.239   3.297
94244W        W66504  11.630  21.199   9.941
94245W        W66505   0.283  34.531   2.816
94246W        W66506  19.663   2.931   2.277
94247W        W66507  40.024  29.042  12.033
94248W        W66508  24.029  11.207  10.895
94249W        W66509  20.056  30.157  12.427
94250W        W66510  41.901  19.230   2.309
94251W        W66511  25.193  15.640   4.694
94252W        W66512  10.286  36.932  14.347
94253W        W66513   3.725   2.811   2.255
94254W        W66514   6.240  15.593  12.508
94255W        W66515  17.790   7.332   5.610
94256W        W66516  30.437  21.543  12.091
94257W        W66517  42.921   7.357  12.355
94258W        W66518  19.742   7.712  10.151
94259W        W66519  40.886  41.437  13.458
94260W        W66520  27.006  43.490  14.398
94261W        W66521   1.789  29.497   1.825
94262W        W66522  29.054   5.228  12.356
94263W        W66523  43.766  15.313  11.601
94264W        W66524  18.188   3.883  12.536
94265W        W66525  11.337  20.121   4.174
94266W        W66526   4.807  27.023   2.785
94267W        W66527  35.577  39.331  13.896
94268W        W66528   9.702  23.219   4.636
94269W        W66529  36.999  18.566   4.298
94270W        W66530   1.931  22.568  12.048
94271W        W66531  22.564  20.129  12.419
94272W        W66532   2.427  27.138  12.416
94273W        W66533  43.016  13.142  13.055
94274W        W66534  19.221  42.454  10.446
94275W        W66535  42.910  40.873   3.660
94276W        W66536  25.091  32.583  13.314
94277W        W66537  43.999   0.340   3.668
94278W        W66538  11.299   3.768   1.714
94279W        W66539  26.659  20.612   2.316
94280W        W66540   5.319  21.533  11.496
94281W        W66541  22.700   7.764  10.963
94282W        W66542  11.211  14.618   3.790
94283W        W66543  18.248   6.894   0.454
94284W        W66544   5.333  27.113  11.026
94285W        W66545  11.721   8.818  12.905
94286W        W66546  15.583   7.693  10.432
94287W        W66547  29.596   7.240   2.662
94288W        W66548  37.872  34.396  12.885
94289W        W66549   0.333  39.997   3.189
94290W        W66550  23.199  23.196   2.899
94291W        W66551   8.844  34.534   3.638
94292W        W66552  18.786   1.792   4.625
94293W        W66553  38.327  11.778  14.501
94294W        W66554  20.069  25.988   4.612
94295W        W66555  43.325  10.237  12.418
94296W        W66556  24.973  12.760  11.557
94297W        W66557   9.311   6.321   0.771
94298W        W66558  39.417  29.130   3.657
94299W        W66559  32.075   2.904  14.515
94300W        W66560  13.739  24.075  12.370
94301W        W66561  10.779  25.648  14.478
94302W        W66562   3.903  18.648  13.502
94303W        W66563   7.719  42.880   4.692
94304W        W66564  13.631  31.006   0.732
94305W        W66565  40.840  39.374  13.939
94306W        W66566  32.104  28.472   1.377
94307W        W66567  16.625  29.536   2.883
94308W        W66568  19.092  17.636   3.665
94309W        W66569  35.045  40.905   2.709
94310W        W66570  12.643  11.349  13.328
94311W        W66571  17.747   9.213  12.396
94312W        W66572  42.850   1.363  14.505
94313W        W66573  20.666  29.053   1.795
94314W        W66574   0.858   1.421  12.010
94315W        W66575  20.680  38.565  13.456
94316W        W66576   1.353  24.595  14.032
94317W        W66577  38.394  33.040  12.477
94318W        W66578  15.756   3.722   2.799
94319W        W66579  32.589  14.703   4.608
94320W        W66580  14.329  11.310  12.544
94321W        W66581  12.646  38.053   3.367
94322W        W66582  17.558   2.463  10.563
94323W        W66583   4.412  27.660   3.331
94324W        W66584  21.143  20.575   5.140
94325W        W66585  22.570  42.855  10.005
94326W        W66586  26.566  37.441   3.814
94327W        W66587  10.853  22.746   4.617
94328W        W66588  33.424   7.669   3.828
94329W        W66589  18.178  10.288  12.095
94330W        W66590  28.466   2.762   2.200
94331W        W66591  41.857  12.145  12.918
94332W        W66592  37.539  14.760  12.448
94333W        W66593   1.755  13.612  11.403
94334W        W66594  11.267  25.622  13.031
94335W        W66595  20.630  28.460   4.635
94336W        W66596  43.305  15.703  12.893
94337W        W66597   8.300  40.978   2.408
94338W        W66598   1.270  19.712   2.667
94339W        W66599   7.906  25.968  10.921
94340W        W66600  30.908  13.238  13.501
94341W        W66601  34.488  26.459  14.821
94342W        W66602  29.561  33.978   2.302
94343W        W66603  17.188  33.566  13.959
94344W        W66604  31.100  36.947  14.896
94345W        W66605  24.035  15.661  11.070
94346W        W66606  42.403   1.422   4.699
94347W        W66607  11.235  28.033   3.713
94348W        W66608  18.586  29.115   4.127
94349W        W66609  29.652   6.208   4.201
94350W        W66610  33.946  12.722   0.462
94351W        W66611  24.614  21.208   3.230
94352W        W66612  44.809  16.589   2.733
94353W        W66613  35.432   5.317  12.357
94354W        W66614  14.626  26.699  14.366
94355W        W66615  28.947  33.015  12.515
94356W        W66616  41.844  19.699   3.256
94357W        W66617   0.271   8.864  12.991
94358W        W66618  35.927  12.265  11.556
94359W        W66619  41.334  32.572  12.029
94360W        W66620  23.017  34.539  13.410
94361W        W66621  34.000   1.965  13.908
94362W        W66622   4.342  28.978   4.747
94363W        W66623  44.931  22.621   0.246
94364W        W66624  25.022  11.325  12.053
94365W        W66625  35.962  33.550   5.216
94366W        W66626  41.898  23.547   2.677
94367W        W66627   5.408  12.182  14.931
94368W        W66628  26.018   1.782   1.714
94369W        W66629  32.931  33.560  12.067
94370W        W66630   5.416  15.218   4.710
94371W        W66631  20.257  42.872   5.256
94372W        W66632  38.348  29.919   4.674
94373W        W66633  40.819  28.646   1.368
94374W        W66634  37.538  12.175  12.927
94375W        W66635  37.847  21.260  12.471
94376W        W66636  22.197  17.654   1.849
94377W        W66637  16.730  19.084  11.372
94378W        W66638  29.529  23.504  11.923
94379W        W66639  24.692  38.334  14.359
94380W        W66640  41.942  24.087  10.580
94381W        W66641   3.781  39.515  10.520
94382W        W66642  13.777  16.773   5.171
94383W        W66643  11.782  37.502  11.928
94384W        W66644  26.127  24.061  13.032
94385W        W66645  44.829   0.780   1.344
94386W        W66646  40.517  21.592   4.605
94387W        W66647   4.274  19.083  10.470
94388W        W66648  30.935  30.514   0.336
94389W        W66649  16.694  32.403  13.985
94390W        W66650   0.457  41.463   1.917
94391W        W66651  41.426  32.503   3.661
94392W        W66652  15.764  21.743  13.370
94393W        W66653  22.566  31.999  13.395
94394W        W66654  26.514   2.923  11.482
94395W        W66655  40.038  38.463   4.138
94396W        W66656  34.421   1.481   4.341
94397W        W66657  10.802  19.223   0.870
94398W        W66658  24.479  22.652  11.533
94399W        W66659  13.774  37.008  11.465
94400W        W66660   7.744  28.664  13.019
94401W        W66661  32.503  38.037   4.729
94402W        W66662   7.830   8.658  10.973
94403W        W66663  14.141  26.598   2.850
94404W        W66664   3.946  26.660   0.821
94405W        W66665  43.403   0.298  10.528
94406W        W66666  21.555   6.357   3.669
94407W        W66667  30.564   0.859   4.179
94408W        W66668  32.136  33.883   3.688
94409W        W66669   6.915  37.078  12.516
94410W        W66670  38.033  15.117   1.737
94411W        W66671   3.273  36.454   0.469
94412W        W66672  14.150  38.008   1.781
94413W        W66673  15.752  31.037  10.924
94414W        W66674  19.558  23.546   1.739
94415W        W66675  44.381  35.038   2.712
94416W        W66676   5.702  15.587  12.890
94417W        W66677   2.828   3.792   4.631
94418W        W66678  24.654   0.835  11.009
94419W        W66679  19.195  29.447   1.241
94420W        W66680  35.869  23.117  14.014
94421W        W66681  37.987  21.546   2.829
94422W        W66682  12.629  16.258   1.297
94423W        W66683  43.301  26.175   3.692
94424W        W66684  39.336  19.050  11.953
94425W        W66685  35.550   2.923   4.609
94426W        W66686   4.311  39.541   2.274
94427W        W66687  10.695   8.724   1.747
94428W        W66688  33.552   2.728  10.458
94429W        W66689  44.900  13.606   0.461
94430W        W66690  20.597  42.485   3.155
94431W        W66691  13.273  25.509  14.394
94432W        W66692  40.402   6.894   3.333
94433W        W66693  32.465  29.627  10.590
94434W        W66694  22.117  29.509   1.361
94435W        W66695   3.782  35.976  13.407
94436W        W66696  24.035  34.050  13.004
94437W        W66697   5.344  26.464   3.377
94438W        W66698  44.810  17.127   2.812
94439W        W66699   6.340  21.650  13.406
94440W        W66700  10.659  15.790  13.504
94441W        W66701  20.532  43.906   3.714
94442W        W66702   0.360  19.175  14.856
94443W        W66703  26.476   0.308  13.441
94444W        W66704  18.143   1.390   3.188
94445W        W66705  12.349  42.517   0.955
94446W        W66706  31.627  33.611   2.256
94447W        W66707  34.957  18.285   0.894
94448W        W66708  31.507  31.498   4.166
94449W        W66709  21.138  16.813   2.872
94450W        W66710   2.906   7.761  14.373
94451W        W66711  21.747  29.491   4.815
94452W        W66712  35.435  24.083  11.101
94453W        W66713  28.995   8.877   3.171
94454W        W66714  28.681   2.404   1.224
94455W        W66715  26.954  25.202   2.711
94456W        W66716  36.058  44.441  12.846
94457W        W66717  35.016   0.294   3.638
94458W        W66718  32.908  34.548   2.717
94459W        W66719   4.354  14.322  14.399
94460W        W66720  31.111  10.859   0.393
94461W        W66721   7.699   7.306   3.170
94462W        W66722  16.223  18.561   0.366
94463W        W66723  33.456   4.228   1.301
94464W        W66724  25.982  14.683  12.864
94465W        W66725  15.163  31.137   2.235
94466W        W66726  26.512  20.538   0.804
94467W        W66727  26.049   5.805  11.098
94468W        W66728  30.990  19.198   3.765
94469W        W66729  13.230   5.827   1.435
94470W        W66730  21.197  26.180  11.868
94471W        W66731  34.453  42.507  12.343
94472W        W66732  26.094  40.844  11.973
94473W        W66733  23.597   2.447   0.951
94474W        W66734  36.903   9.729   2.255
94475W        W66735  41.350  35.471   2.354
94476W        W66736  23.583  42.333   2.325
94477W        W66737   6.250  23.525  14.936
94478W        W66738  13.618  25.484   4.259
94479W        W66739   4.380  43.858   2.835
94480W        W66740   1.294  15.298   4.674
94481W        W66741  23.681  43.998  14.998
94482W        W66742  41.808  10.756  14.307
94483W        W66743  31.134  20.713  12.052
94484W        W66744  31.438  13.212   3.736
94485W        W66745  18.197  10.276   3.671
94486W        W66746  28.008   8.358  14.030
94487W        W66747  12.200   7.678   2.746
94488W        W66748  33.894   5.864   0.281
94489W        W66749  25.102   0.251  10.589
94490W        W66750  24.046  12.265  11.075
94491W        W66751  27.463  39.050  12.504
94492W        W66752  28.133   3.721  13.953
94493W        W66753   1.408  37.552   0.258
94494W        W66754   6.376   0.855  11.470
94495W        W66755  28.959   7.217   0.754
94496W        W66756  21.634  38.014   1.299
94497W        W66757  41.386  13.625  13.049
94498W        W66758  21.258  43.862   1.324
94499W        W66759  23.582  11.687   3.868
94500W        W66760  38.931  25.049   2.689
94501W        W66761   0.312  44.755   4.236
94502W        W66762  14.694   4.790   1.858
94503W        W66763  28.141  27.630   3.740
94504W        W66764  14.129  26.576  12.545
94505W        W66765  39.956  34.978   4.673
94506W        W66766  32.481  30.449  13.410
94507W        W66767  39.843   2.458  13.324
94508W        W66768  43.430  13.274  13.985
94509W        W66769  27.602  40.977  11.123
94510W        W66770  26.657  29.424   1.353
94511W        W66771  22.064  39.419   2.781
94512W        W66772  30.487  37.458   2.665
94513W        W66773  29.962   6.342   2.375
94514W        W66774  25.184  35.482  10.445
94515W        W66775  26.204  35.094   3.175
94516W        W66776  15.117  38.476   3.663
94517W        W66777  43.932  28.014  13.810
94518W        W66778  44.935  44.986  10.908
94519W        W66779   6.835  32.125   4.682
94520W        W66780  44.787  13.117   0.961
94521W        W66781  10.796  40.857   1.408
94522W        W66782  20.678  11.685   3.824
94523W        W66783  25.614   4.228   0.904
94524W        W66784  15.644  38.377  12.383
94525W        W66785   6.870   8.868  13.954
94526W        W66786  38.915  23.727   2.222
94527W        W66787  21.630  41.945   2.788
94528W        W66788  34.593  30.629  14.867
94529W        W66789   3.749  18.775   1.339
94530W        W66790  43.372   3.415   2.689
94531W        W66791  44.265  40.373   2.410
94532W        W66792  24.489  34.452  12.847
94533W        W66793  40.356   2.769   0.801
94534W        W66794  42.014  34.585   0.821
94535W        W66795  26.684   5.307  13.447
94536W        W66796  23.009  23.042  14.416
94537W        W66797  39.844  11.858  12.850
94538W        W66798  26.664  36.045   0.284
94539W        W66799  13.184  10.306   4.144
94540W        W66800  40.968  21.228   2.224
94541W        W66801  43.830  36.006   1.416
94542W        W66802  32.936  25.534   3.298
94543W        W66803   7.207  24.168   0.794
94544W        W66804  25.644  14.654   3.780
94545W        W66805  22.608  12.629  12.855
94546W        W66806  17.587  37.340  10.595
94547W        W66807  19.085  20.210   0.832
94548W        W66808  38.384   5.198   2.881
94549W        W66809   9.292  36.070  12.378
94550W        W66810  36.912  17.061   1.219
94551W        W66811  31.968  41.485  10.513
94552W        W66812  33.407  24.671   4.272
94553W        W66813  13.249  22.066  10.498
94554W        W66814   7.255  15.106  11.113
94555W        W66815  40.503   7.886   3.184
94556W        W66816  15.088  22.655   2.266
94557W        W66817  31.599  29.660   2.345
94558W        W66818  27.492  20.728   1.231
94559W        W66819  19.161  19.149  12.497
94560W        W66820   4.336  19.103   2.901
94561W        W66821  39.990  10.657   4.599
94562W        W66822   7.870  10.148   4.651
94563W        W66823  26.514  41.897  12.362
94564W        W66824  18.275   0.920  12.990
94565W        W66825   7.372  43.007  12.039
94566W        W66826   0.329  19.763  12.040
94567W        W66827  31.577  39.019  12.962
94568W        W66828  25.983  10.216  12.454
94569W        W66829  41.039  32.091  11.389
94570W        W66830  16.669  22.621   4.677
94571W        W66831  36.893  34.918   4.641
94572W        W66832   0.459   4.390   4.355
94573W        W66833   0.483   7.726   0.734
94574W        W66834  31.630   8.342   0.411
94575W        W66835  31.633  18.133  11.447
94576W        W66836  40.408  32.935   2.681
94577W        W66837  44.314  11.336   3.379
94578W        W66838  37.387  37.929  12.082
94579W        W66839  42.307   1.929  12.477
94580W        W66840  26.617  41.803   2.818
94581W        W66841  40.805  26.145  12.534
94582W        W66842   7.773  16.220  13.885
94583W        W66843  40.995   2.287   4.629
94584W        W66844  42.782   1.424   0.330
94585W        W66845  38.045  14.283  13.954
94586W        W66846  32.132  35.401   3.220
94587W        W66847  40.329   3.272   5.276
94588W        W66848  42.463  12.318   1.852
94589W        W66849   4.327  27.077  10.023
94590W        W66850  27.158   4.208  12.481
94591W        W66851  26.471  36.464  10.585
94592W        W66852  11.347   0.953  13.815
94593W        W66853  13.122  28.518  10.572
94594W        W66854  22.520  22.742   1.396
94595W        W66855  37.004   5.423   1.845
94596W        W66856  37.461   0.745  14.778
94597W        W66857  41.967  36.841  13.982
94598W        W66858  11.346  13.839  10.576
94599W        W66859  12.758  23.145  13.341
94600W        W66860  35.930  21.611  10.919
94601W        W66861   7.365  39.419   4.262
94602W        W66862   0.475  44.272  11.940
94603W        W66863  32.607  11.361  11.118
94604W        W66864  14.623  29.109  12.952
94605W        W66865  35.582  23.735  10.516
94606W        W66866   3.863  23.142  12.036
94607W        W66867   4.341   2.463  14.426
94608W        W66868  37.371  32.950  12.827
94609W        W66869  43.771  41.459  13.466
94610W        W66870  10.858  18.285  14.968
94611W        W66871  18.177   8.356   9.462
94612W        W66872  10.249  34.408   0.960
94613W        W66873   4.797   9.149   3.700
94614W        W66874  29.967   8.871   2.360
94615W        W66875   4.785   8.674   1.892
94616W        W66876  42.887  11.257  14.784
94617W        W66877  30.919  36.436  14.323
94618W        W66878  11.776  35.901  14.312
94619W        W66879  28.068  12.130  14.396
94620W        W66880  24.217   3.226  13.506
94621W        W66881  28.161  25.026   4.202
94622W        W66882   3.922  28.038  14.020
94623W        W66883  27.056  42.396   4.312
94624W        W66884  28.606  17.778   2.211
94625W        W66885  27.595   3.900  13.924
94626W        W66886  16.075  31.941   2.400
94627W        W66887   3.337  19.545   3.316
94628W        W66888  20.750  33.536   0.841
94629W        W66889  18.766  11.137   4.809
94630W        W66890  41.858   1.822  14.344
94631W        W66891  40.451  38.997  14.432
94632W        W66892   4.362  41.503   4.816
94633W        W66893   2.956  38.044   0.357
94634W        W66894  27.111   8.316  14.007
94635W        W66895   4.366  28.066  11.405
94636W        W66896  21.521  42.327   4.606
94637W        W66897  13.269  27.153   3.648
94638W        W66898  23.631  25.687   3.741
94639W        W66899  12.161  23.501   0.444
94640W        W66900   4.760  43.868   0.763
94641W        W66901  42.884  23.051  14.381
94642W        W66902  32.964   5.924  12.427
94643W        W66903  30.582  24.145   3.381
94644W        W66904  12.843  41.355  14.942
94645W        W66905  18.197  20.717  11.444
94646W        W66906  44.391  17.070  11.514
94647W        W66907  41.851  36.398  10.619
94648W        W66908   2.232  32.575   1.723
94649W        W66909   9.816  13.339   3.217
94650W        W66910  18.291  38.839   0.408
94651W        W66911  40.021   9.351  12.546
94652W        W66912  22.582  13.772   4.305
94653W        W66913  31.528  31.456   5.610
94654W        W66914  39.054  36.023   0.842
94655W        W66915  31.533  13.742   1.828
94656W        W66916  44.439   3.420  12.388
94657W        W66917  29.024  11.756  12.877
94658W        W66918  26.469   3.876   0.309
94659W        W66919   7.748  43.472   3.847
94660W        W66920  29.586  19.116   2.263
94661W        W66921  32.994  16.780  14.497
94662W        W66922  31.917  39.969   2.214
94663W        W66923  19.710  42.786  11.090
94664W        W66924  41.971  44.908   2.354
94665W        W66925  15.589  40.876   0.421
94666W        W66926  11.372   4.256  12.903
94667W        W66927  36.872  12.625   3.187
94668W        W66928  23.547  36.032  11.904
94669W        W66929  35.096  18.230  12.971
94670W        W66930  16.223  43.387   3.250
94671W        W66931  27.677  27.097  11.932
94672W        W66932  37.439  39.913   1.258
94673W        W66933   2.852  36.902   2.676
94674W        W66934  21.056  29.158  11.456
94675W        W66935  22.154  27.192   3.672
94676W        W66936  39.838  41.980   3.776
94677W        W66937  41.483  32.035   4.340
94678W        W66938  16.298  31.930  13.922
94679W        W66939  27.530   1.885   3.644
94680W        W66940  44.756  12.854   1.815
94681W        W66941  27.967  33.955   3.318
94682W        W66942   2.729  43.016  11.037
94683W        W66943  44.823  13.691   2.337
94684W        W66944   2.236   3.299  12.456
94685W        W66945  30.001  21.615   4.283
94686W        W66946  20.723   3.863   0.745
94687W        W66947   3.269  17.077  14.030
94688W        W66948  32.952   9.844  11.030
94689W        W66949  34.533  12.668   0.855
94690W        W66950  24.085   5.357   0.321
94691W        W66951  28.477  38.036  11.586
94692W        W66952  43.768   7.680  12.465
94693W        W66953  24.115  14.306  13.008
94694W        W66954  23.515  29.130  13.024
94695W        W66955  10.291  40.945   3.706
94696W        W66956  29.011  10.796  14.877
94697W        W66957  10.823   3.300  12.494
94698W        W66958  35.551  36.350  14.925
94699W        W66959   6.323  12.692   3.753
94700W        W66960  28.551  29.144   2.671
94701W        W66961  22.111  38.450   2.300
94702W        W66962  37.357  14.104  14.497
94703W        W66963  18.148  27.021  14.833
94704W        W66964  11.158  18.146   4.203
94705W        W66965  42.839  30.105  13.030
94706W        W66966  29.542  24.532   4.216
94707W        W66967   6.776  10.267   3.277
94708W        W66968  23.663   5.719  10.588
94709W        W66969  26.566  16.638   1.382
94710W        W66970  30.645  28.127   3.851
94711W        W66971  24.222  16.260   1.442
94712W        W66972  16.081  15.191  10.046
94713W        W66973  10.250  11.641   4.341
94714W        W66974  36.997   9.220   5.222
94715W        W66975  19.654  10.648   0.433
94716W        W66976  42.832  14.708  13.818
94717W        W66977  13.772  21.747   2.861
94718W        W66978  34.072  39.388   1.328
94719W        W66979   5.316  30.529   1.390
94720W        W66980  30.431   0.261   1.881
94721W        W66981   0.464  26.637   1.271
94722W        W66982   4.259  26.487   0.407
94723W        W66983  26.158  17.734   4.208
94724W        W66984   6.691  26.588   2.694
94725W        W66985  21.513  36.517  12.477
94726W        W66986  37.552  15.245  12.519
94727W        W66987  17.155  15.157  11.373
94728W        W66988   7.757  44.472  13.540
94729W        W66989  21.251  15.163   2.180
94730W        W66990  29.022  31.465   2.256
94731W        W66991   5.689  25.047  14.835
94732W        W66992   7.848  18.106   5.257
94733W        W66993   5.844   6.324   3.804
94734W        W66994  41.941  32.889   1.717
94735W        W66995  21.188  11.169  14.811
94736W        W66996  36.080  17.739  14.396
94737W        W66997  32.024  27.008   2.870
94738W        W66998   6.272  36.031   1.375
94739W        W66999  18.647  22.562   2.795
94740W        W67000  44.810  28.436   0.442
94741W        W67001   5.797  24.130  10.461
94742W        W67002  35.987  18.192  12.897
94743W        W67003  21.744  31.602   0.397
94744W        W67004  44.328  19.690  13.366
94745W        W67005  25.985   3.754  10.526
94746W        W67006  41.505  14.661   0.246
94747W        W67007  44.438  36.370  12.903
94748W        W67008  14.338  39.946   2.312
94749W        W67009  37.048  26.163   3.764
94750W        W67010  27.016  41.444   0.350
94751W        W67011  33.979  41.447  14.456
94752W        W67012  19.208  35.987   4.696
94753W        W67013   5.826  31.564  13.039
94754W        W67014  39.333  17.306  12.988
94755W        W67015  22.631  12.818   0.763
94756W        W67016   0.437  16.621  13.013
94757W        W67017  30.101  18.754  12.967
94758W        W67018  33.091  38.004   0.965
94759W        W67019  15.227  20.764   0.783
94760W        W67020   4.423  40.336  11.935
94761W        W67021   8.291  34.476  14.407
94762W        W67022  17.279   0.950  11.390
94763W        W67023  22.732  21.592  10.076
94764W        W67024   5.210  10.348  12.552
94765W        W67025  35.994   3.390   3.156
94766W        W67026   2.930   3.429  13.808
94767W        W67027   3.234  26.057   0.959
94768W        W67028   2.346  26.144   4.832
94769W        W67029  11.311  40.997   2.200
94770W        W67030  13.204  17.230  11.068
94771W        W67031   8.755  43.806  13.885
94772W        W67032  14.650   9.166   2.733
94773W        W67033  29.512  27.523   2.254
94774W        W67034  23.523  32.135   0.243
94775W        W67035   1.366   1.395  12.352
94776W        W67036  28.056  26.620  11.491
94777W        W67037   2.273   3.845   2.263
94778W        W67038  37.386  36.529  11.892
94779W        W67039  26.084  30.600  14.797
94780W        W67040  28.078   3.735  12.007
94781W        W67041  16.805  16.249  11.588
94782W        W67042  40.443   0.284   9.926
94783W        W67043  29.140  20.252  14.481
94784W        W67044   4.824  18.556  12.505
94785W        W67045   0.771   3.378  13.339
94786W        W67046  25.626  23.188  12.496
94787W        W67047  11.275  23.989   2.791
94788W        W67048  37.450  32.629  11.931
94789W        W67049  14.164  11.865  11.085
94790W        W67050  27.073   6.273   0.321
94791W        W67051  12.732  31.499  14.982
94792W        W67052   7.260   0.894   3.808
94793W        W67053  15.779   2.422   3.858
94794W        W67054  42.794  37.896  10.438
94795W        W67055   9.728  41.517   3.857
94796W        W67056  35.916   3.882   2.320
94797W        W67057   4.925  15.128  12.443
94798W        W67058  13.664  11.621  10.527
94799W        W67059  30.625  21.729   1.875
94800W        W67060  32.114  27.188  11.419
94801W        W67061   2.431  27.614   2.188
94802W        W67062   7.789  29.173   1.332
94803W        W67063  20.569  42.499   1.285
94804W        W67064  13.162  18.659   4.708
94805W        W67065  38.538   8.735   0.433
94806W        W67066   6.390  25.690  13.970
94807W        W67067   8.241  30.658  13.947
94808W        W67068  32.928  20.102   3.843
94809W        W67069  15.275  15.313  12.904
94810W        W67070  40.989   4.743  12.983
94811W        W67071   6.815  15.769   4.821
94812W        W67072  14.738  32.599   2.178
94813W        W67073   8.892  16.221  11.509
94814W        W67074  22.716   0.969  11.450
94815W        W67075   9.697  20.731  14.020
94816W        W67076  12.678   7.879  12.443
94817W        W67077  37.958  17.244  12.565
94818W        W67078  30.435  20.639   1.771
94819W        W67079  17.625  20.653   3.771
94820W        W67080  36.371   3.728  14.775
94821W        W67081   2.934   9.797  12.498
94822W        W67082  31.905  14.792  13.332
94823W        W67083  17.576  29.143   3.674
94824W        W67084   4.251  19.629   4.350
94825W        W67085  30.938  10.743   0.769
94826W        W67086  33.550  29.164   3.650
94827W        W67087  18.204  24.664  11.581
94828W        W67088  19.765  18.762   1.914
94829W        W67089   2.847  15.626  12.574
94830W        W67090  29.543  14.783   4.647
94831W        W67091  18.723   8.222   2.717
94832W        W67092   3.933  42.879  14.945
94833W        W67093  19.554   4.779  11.857
94834W        W67094  40.008  22.550  14.779
94835W        W67095  22.137  30.440  14.498
94836W        W67096   8.182  13.790  11.569
94837W        W67097  43.470  29.578   3.739
94838W        W67098  44.955   4.840  12.030
94839W        W67099  33.543  12.804  12.346
94840W        W67100  31.096  24.534   4.220
94841W        W67101   8.666  16.139  12.413
94842W        W67102  13.632  20.540   0.278
94843W        W67103  27.170  20.192   3.157
94844W        W67104  39.388  18.079  12.389
94845W        W67105  15.107  39.369  14.019
94846W        W67106  40.021   1.450   2.799
94847W        W67107  27.548   2.784   3.631
94848W        W67108  32.974  24.137  14.759
94849W        W67109   1.831  11.371  12.454
94850W        W67110  41.516  40.868   1.349
94851W        W67111  25.213   7.281   1.763
94852W        W67112  28.963   8.190   0.251
94853W        W67113  34.424  37.531  11.593
94854W        W67114  29.069  20.623   3.697
94855W        W67115  37.352   0.484  13.321
94856W        W67116  20.698   3.441  11.875
94857W        W67117  35.473  16.083   1.392
94858W        W67118  24.675   8.856   2.417
94859W        W67119  20.696  26.175   2.348
94860W        W67120  24.564  10.300   4.188
94861W        W67121  20.694  29.018   3.644
94862W        W67122  40.453   4.223  11.592
94863W        W67123  36.392  18.565  12.352
94864W        W67124   6.780  10.308  13.361
94865W        W67125  21.229  11.784  14.030
94866W        W67126  23.686  33.889   3.818
94867W        W67127  18.222  16.764   3.833
94868W        W67128  31.540  11.791   4.743
94869W        W67129  34.584  22.637  12.569
94870W        W67130  41.905  29.160   4.133
94871W        W67131  44.853  24.018  12.938
94872W        W67132  27.982  23.493  12.918
94873W        W67133  40.374   7.690  12.436
94874W        W67134  16.648  15.692   0.298
94875W        W67135  33.381   8.850  11.611
94876W        W67136   1.452  29.532  12.860
94877W        W67137  40.845  36.353   3.680
94878W        W67138   1.341   9.873   0.938
94879W        W67139  19.738   1.408   2.254
94880W        W67140  11.784  19.617  12.016
94881W        W67141  30.115  17.154   0.890
94882W        W67142  34.391  25.539  13.920
94883W        W67143  37.968  18.196  14.904
94884W        W67144  14.105  17.136   9.442
94885W        W67145  12.812  22.537   2.416
94886W        W67146  19.232  19.187   4.303
94887W        W67147   6.308  13.155   3.157
94888W        W67148  19.547  26.590  11.974
94889W        W67149  19.623   6.402   5.142
94890W        W67150  13.186  43.373  12.553
94891W        W67151  39.921  41.430  13.332
94892W        W67152  12.842  43.453  12.530
94893W        W67153  12.173  21.152   3.862
94894W        W67154  33.021  20.265   4.210
94895W        W67155  15.291  43.799  14.773
94896W        W67156  37.374  25.526   5.162
94897W        W67157  13.808  11.818  11.553
94898W        W67158   0.355   6.393   0.326
94899W        W67159   7.273  25.103   2.875
94900W        W67160   0.798  26.061  13.868
94901W        W67161  41.991  44.258   9.962
94902W        W67162  13.277   5.203  12.906
94903W        W67163  44.261  13.727  13.043
94904W        W67164  28.105   3.761  11.000
94905W        W67165  39.474  25.098  11.009
94906W        W67166  14.221  19.681  13.436
94907W        W67167  30.601  13.797   2.878
94908W        W67168  17.117  15.153  12.047
94909W        W67169  25.619  41.472  14.935
94910W        W67170   6.250  31.633   3.380
94911W        W67171   6.366  31.629  11.905
94912W        W67172  44.475  34.520  11.027
94913W        W67173  39.416   1.482  11.380
94914W        W67174  15.275  42.902  13.447
94915W        W67175  25.521  27.667   0.732
94916W        W67176  37.542  35.488   1.703
94917W        W67177  35.945  36.935   1.325
94918W        W67178  42.520  33.942   2.233
94919W        W67179  13.221  13.834   1.700
94920W        W67180   6.838  16.737   4.692
94921W        W67181   2.459  32.916   2.735
94922W        W67182  36.086  34.902   3.703
94923W        W67183  32.996  38.894   3.705
94924W        W67184   7.831  23.984   1.269
94925W        W67185  20.248  34.873   3.678
94926W        W67186  32.997  28.933   4.758
94927W        W67187  21.587   4.434   0.353
94928W        W67188   4.444   4.349  13.805
94929W        W67189  27.952  39.368   1.342
94930W        W67190  32.973  32.042   3.212
94931W        W67191   5.405   4.435   1.714
94932W        W67192  39.507  18.074   3.754
94933W        W67193  40.486  30.085  11.865
94934W        W67194   5.692  25.109  12.893
94935W        W67195  22.125  31.450  12.471
94936W        W67196   9.800  25.581   1.330
94937W        W67197  24.656  36.484   0.246
94938W        W67198  14.202  22.544   3.255
94939W        W67199  34.918  41.361  10.433
94940W        W67200  32.464  39.546  12.452
94941W        W67201  44.472   9.244   4.764
94942W        W67202  39.518  42.937   4.140
94943W        W67203  27.689  21.250  11.543
94944W        W67204  18.107  38.544   3.365
94945W        W67205   6.198   3.899   3.672
94946W        W67206  15.661  15.689   4.746
94947W        W67207  28.013  26.606  14.854
94948W        W67208   9.831  24.593   2.324
94949W        W67209  13.278  33.521   1.347
94950W        W67210  30.138  16.749  11.378
94951W        W67211  32.627  25.190  10.601
94952W        W67212  37.344  30.950   4.347
94953W        W67213  16.665  24.991  12.076
94954W        W67214  33.929   4.368   3.764
94955W        W67215  44.303  38.843   2.843
94956W        W67216  13.290  29.604  10.110
94957W        W67217  18.544   5.251  11.088
94958W        W67218  21.693  29.448  13.055
94959W        W67219   9.368  37.414   3.733
94960W        W67220  36.512  36.545  12.958
94961W        W67221  44.774  36.512  10.985
94962W        W67222  39.320  26.701  14.312
94963W        W67223  40.324   9.156   5.181
94964W        W67224   7.861  34.950  11.580
94965W        W67225  10.750   5.423  10.506
94966W        W67226   6.844  43.489   0.301
94967W        W67227   4.330  27.622  13.441
94968W        W67228  19.761  23.681  12.555
94969W        W67229  22.201  27.599   0.453
94970W        W67230   0.415  42.927  12.445
94971W        W67231  14.682  11.622  12.513
94972W        W67232  16.128  15.185  12.895
94973W        W67233  15.638  16.120  11.863
94974W        W67234  35.905  23.646  14.775
94975W        W67235  12.850   2.243  14.404
94976W        W67236  33.425  14.107  13.005
94977W        W67237  33.907  41.840   1.266
94978W        W67238  29.148  30.457   1.792
94979W        W67239  42.848   8.782   3.777
94980W        W67240  16.755   3.891  11.902
94981W        W67241  13.839  36.099   3.382
94982W        W67242   5.916  16.147   0.470
94983W        W67243  43.463   8.758  11.589
94984W        W67244   6.334   2.758   0.878
94985W        W67245  25.609  25.042  10.443
94986W        W67246  11.677  33.545   2.181
94987W        W67247   6.836  43.944   4.712
94988W        W67248   4.234  41.361   4.258
94989W        W67249  25.145   4.357   0.381
94990W        W67250   9.810  24.584   3.285
94991W        W67251  14.637  29.424   3.255
94992W        W67252  19.233  20.139  12.511
94993W        W67253  16.598  18.613  13.320
94994W        W67254  15.703  22.032   3.696
94995W        W67255  40.809  12.213  12.023
94996W        W67256   3.350  32.112   2.671
94997W        W67257  41.415  10.740   0.919
94998W        W67258  42.473  29.084   1.445
94999W        W67259  32.047   0.290  12.551
95000W        W67260  38.423  23.551  13.495
95001W        W67261  39.436  37.384   2.312
95002W        W67262  34.116  30.033   1.811
95003W        W67263  22.159  15.619  12.842
95004W        W67264   7.804   1.925   9.969
95005W        W67265  21.095   7.754   4.170
95006W        W67266  43.499   7.713   4.760
95007W        W67267  35.012  29.528  12.076
95008W        W67268  18.188  29.654  12.838
95009W        W67269  41.942  33.505  10.590
95010W        W67270  40.815   7.331  12.982
95011W        W67271  43.365  25.654   2.196
95012W        W67272  40.530   4.718  13.841
95013W        W67273  33.466  20.246  11.095
95014W        W67274   8.362  38.545   1.284
95015W        W67275   2.863  24.099   4.643
95016W        W67276  34.878  27.008  11.531
95017W        W67277   1.760  34.485   4.236
95018W        W67278  16.784  10.381  13.828
95019W        W67279  30.522  11.644  14.317
95020W        W67280  43.431  24.553   0.425
95021W        W67281  33.048  38.559   4.754
95022W        W67282  23.686  13.652   0.758
95023W        W67283  26.990   6.197  14.476
95024W        W67284  17.213   9.736  14.986
95025W        W67285  31.607   1.953   4.133
95026W        W67286  30.610  42.879  13.835
95027W        W67287  11.188  24.542   1.308
95028W        W67288  18.091  11.666  12.928
95029W        W67289  21.531  23.017   3.662
95030W        W67290  41.891  37.405   1.334
95031W        W67291  40.841  35.969   3.853
95032W        W67292   7.679  39.819   1.285
95033W        W67293  17.172   4.827   5.164
95034W        W67294  23.143   7.407   2.377
95035W        W67295  42.877  10.312  10.980
95036W        W67296   2.401  25.040   3.339
95037W        W67297   7.762   9.673  13.476
95038W        W67298  23.191  15.797   1.256
95039W        W67299  26.011  23.581  14.902
95040W        W67300  12.684  22.632  10.519
95041W        W67301  12.299   7.710   4.668
95042W        W67302   7.910  16.133  14.332
95043W        W67303   7.690   7.748  10.600
95044W        W67304  25.056   9.850  11.400
95045W        W67305   4.823  24.974   3.817
95046W        W67306  43.324  28.944   0.286
95047W        W67307  22.696  35.088   1.795
95048W        W67308  15.748   0.772   1.298
95049W        W67309  12.229  28.077  13.843
95050W        W67310  22.641  17.082   2.233
95051W        W67311  43.930  22.514  11.056
95052W        W67312  29.985  32.615   2.295
95053W        W67313  16.745  13.654   3.740
95054W        W67314  25.560  34.554  12.009
95055W        W67315  40.919  34.585   4.750
95056W        W67316   6.899  37.559   2.774
95057W        W67317   2.947  38.364   0.446
95058W        W67318  15.193   2.234   3.821
95059W        W67319  26.677   3.796  10.554
95060W        W67320  42.786  20.763  14.869
95061W        W67321  16.646  19.642   0.423
95062W        W67322  30.468  26.682   0.815
95063W        W67323  38.383  44.433  13.947
95064W        W67324  32.936   1.752  11.924
95065W        W67325   7.721  10.310   4.136
95066W        W67326  44.964  29.107  14.373
95067W        W67327  25.524  21.653   4.682
95068W        W67328  44.976  36.523  11.912
95069W        W67329  16.122  36.957  11.506
95070W        W67330  42.796  42.524  14.998
95071W        W67331   2.956  15.802  13.341
95072W        W67332  40.533  38.968   0.331
95073W        W67333  36.982  33.485   4.143
95074W        W67334  36.563  33.546  11.518
95075W        W67335  32.542  21.616   3.837
95076W        W67336   8.733   7.786  14.445
95077W        W67337  19.707  34.907   0.776
95078W        W67338  18.296  27.654   1.409
95079W        W67339  31.517  42.379  13.320
95080W        W67340  12.705  29.146  10.643
95081W        W67341  43.867  37.864  12.364
95082W        W67342  27.570  11.826  11.079
95083W        W67343   8.391  41.303  12.940
95084W        W67344   0.385  19.167  13.489
95085W        W67345  12.709  11.723  14.931
95086W        W67346   2.869   5.317   0.866
95087W        W67347  21.050  10.832  10.599
95088W        W67348  40.980  15.588  10.493
95089W        W67349  28.110  18.598  13.056
95090W        W67350  28.023  10.821  11.014
95091W        W67351  13.750  22.029   0.891
95092W        W67352   7.183  28.104  12.052
95093W        W67353  18.275   3.752  13.809
95094W        W67354   1.261  41.392   3.748
95095W        W67355  19.259  13.213  13.061
95096W        W67356  10.705  16.182   1.434
95097W        W67357  25.627  25.534   4.672
95098W        W67358  23.589   9.674   4.288
95099W        W67359  32.475  29.639   1.920
95100W        W67360   7.174  16.600   4.712
95101W        W67361  14.833   9.339   4.836
95102W        W67362  22.556  27.516   1.321
95103W        W67363   4.796  21.625  10.634
95104W        W67364  29.979  33.545   4.320
95105W        W67365  29.981  37.963   4.642
95106W        W67366  34.522   9.716  11.001
95107W        W67367  44.367  11.837  13.480
95108W        W67368  16.311  42.466   3.737
95109W        W67369  11.212  26.604  14.506
95110W        W67370  11.736  12.725   3.303
95111W        W67371  44.808  16.230  14.506
95112W        W67372  36.093  28.535   3.374
95113W        W67373   7.825   8.747   3.685
95114W        W67374  15.132  21.197   0.877
95115W        W67375   5.435  19.190   4.279
95116W        W67376  28.931  15.698  12.558
95117W        W67377   5.830   5.212   3.860
95118W        W67378  38.039  31.968   3.371
95119W        W67379  35.862  39.485   0.249
95120W        W67380  25.692  41.444  14.507
95121W        W67381  32.470  10.841  12.378
95122W        W67382  18.277  38.554  10.491
95123W        W67383  30.518  38.430   0.766
95124W        W67384  10.799  19.654  14.770
95125W        W67385  41.419  16.087  13.384
95126W        W67386  43.889  30.004   3.283
95127W        W67387   8.266  17.674   3.325
95128W        W67388   3.436   7.874   0.434
95129W        W67389  16.753   6.409  11.090
95130W        W67390  42.299   1.317  12.984
95131W        W67391  42.845   6.342  11.968
95132W        W67392   8.830  29.023   3.222
95133W        W67393  21.685   2.300  11.491
95134W        W67394  14.332  21.216  14.431
95135W        W67395  16.804  40.985  10.974
95136W        W67396  39.428  21.140  11.026
95137W        W67397  21.155  27.093   3.822
95138W        W67398  12.851  43.833   3.802
95139W        W67399  28.175   4.380  13.999
95140W        W67400   5.880   7.677  12.045
95141W        W67401  17.150  11.742  10.133
95142W        W67402   4.829  36.928   9.933
95143W        W67403   6.302  37.080   1.895
95144W        W67404  14.171   4.347  10.590
95145W        W67405  26.152  11.232   3.630
95146W        W67406  35.872  23.574  10.606
95147W        W67407  42.293  32.126  13.063
95148W        W67408  12.815  33.006   0.283
95149W        W67409  43.866   9.834  12.836
95150W        W67410  25.165  30.524  14.793
95151W        W67411  26.048  41.961   4.684
95152W        W67412   4.939  31.448  14.911
95153W        W67413   1.311  18.619   2.782
95154W        W67414  15.315  44.994  10.925
95155W        W67415  22.056  31.547   4.226
95156W        W67416  37.498  21.155  14.375
95157W        W67417  35.430  35.565  11.604
95158W        W67418  44.832  12.751   2.798
95159W        W67419  22.681   4.295  10.625
95160W        W67420  32.463  25.705  12.374
95161W        W67421   5.774  37.415   1.702
95162W        W67422  19.652  21.640   3.290
95163W        W67423   6.840  30.093  14.406
95164W        W67424  26.598  34.879  14.426
95165W        W67425  13.779  18.742  11.857
95166W        W67426  16.126  26.066   3.745
95167W        W67427   3.777  36.440   2.691
95168W        W67428   7.380  20.588   4.290
95169W        W67429  26.603  29.585   0.312
95170W        W67430   3.853  38.015   3.195
95171W        W67431  37.044   4.247   0.765
95172W        W67432  37.903   2.329  14.970
95173W        W67433  12.693  14.617  12.390
95174W        W67434  39.398  35.522  13.045
95175W        W67435   3.309  36.372  11.114
95176W        W67436  26.687  36.354   0.431
95177W        W67437  35.868  34.458  13.497
95178W        W67438  14.812   0.248  10.635
95179W        W67439  29.627  35.377  11.515
95180W        W67440   5.281   4.750  11.998
95181W        W67441   6.299  14.715  11.403
95182W        W67442  11.818  21.717  11.554
95183W        W67443  13.112  24.590  13.911
95184W        W67444  36.578  17.234  11.489
95185W        W67445  11.162  41.943   4.269
95186W        W67446  36.440  15.655  10.978
95187W        W67447  42.789   5.790  13.061
95188W        W67448   7.327  31.100  14.413
95189W        W67449  33.038  39.940   3.355
95190W        W67450  39.926  39.930   2.271
95191W        W67451  30.963  12.768   0.459
95192W        W67452  30.485  42.835  13.452
95193W        W67453  33.445  17.074   3.679
95194W        W67454  15.694  22.594  14.294
95195W        W67455   3.788  15.730   1.725
95196W        W67456  41.859   7.221   4.828
95197W        W67457  14.175  18.682  12.493
95198W        W67458  42.385  32.603   1.813
95199W        W67459  11.733  19.619  13.879
95200W        W67460  25.543   1.870   4.632
95201W        W67461  19.225  27.997   2.842
95202W        W67462  21.578  26.609   4.158
95203W        W67463  28.454   9.866   4.689
95204W        W67464   5.313  27.124   1.789
95205W        W67465  44.364  28.969  14.904
95206W        W67466   1.794  37.976   2.721
95207W        W67467  20.034   1.385  14.959
95208W        W67468  40.333   1.805   3.798
95209W        W67469   1.422  26.534   2.879
95210W        W67470  22.671   8.268  10.161
95211W        W67471   2.956   6.352   0.735
95212W        W67472   5.388  42.958   1.449
95213W        W67473   3.763  16.155  14.031
95214W        W67474  13.816  28.154  14.375
95215W        W67475   5.711  35.532   0.859
95216W        W67476   6.338   7.686   1.698
95217W        W67477  34.614   5.379   0.406
95218W        W67478  14.112  42.294  12.003
95219W        W67479   9.838  19.158  10.518
95220W        W67480  34.099  20.644  10.091
95221W        W67481  37.979   5.402  12.349
95222W        W67482  20.549  20.205  11.001
95223W        W67483  41.385  11.312  10.596
95224W        W67484  32.524  25.115   2.725
95225W        W67485  16.158  27.565   4.784
95226W        W67486   5.894   5.867  13.497
95227W        W67487  24.577  17.145   2.375
95228W        W67488  29.975   4.389  14.286
95229W        W67489  23.552  37.514   1.217
95230W        W67490  32.629  28.678   2.287
95231W        W67491  38.885  26.090   3.383
95232W        W67492  34.073  12.732  12.066
95233W        W67493  15.322   4.931  11.377
95234W        W67494   0.763   2.932   2.186
95235W        W67495  26.676  21.070  14.792
95236W        W67496   6.842  42.917   1.918
95237W        W67497   6.248   9.198   2.755
95238W        W67498  37.361  15.664   0.824
95239W        W67499  44.929   3.355   0.397
95240W        W67500  15.741  41.530  13.499
95241W        W67501  30.910  27.956  14.311
95242W        W67502  38.440  34.019  14.412
95243W        W67503  36.845  30.419  12.392
95244W        W67504  13.205  16.603  12.381
95245W        W67505  42.438   0.269  11.528
95246W        W67506  12.734  24.096   2.409
95247W        W67507  25.702  43.782  13.983
95248W        W67508  12.263  43.910   4.265
95249W        W67509   9.373  16.591   1.329
95250W        W67510   2.819  29.427   3.710
95251W        W67511  38.865  32.999  10.505
95252W        W67512   9.886   5.793  14.004
95253W        W67513   5.893  43.478  13.390
95254W        W67514  13.797  30.050   2.330
95255W        W67515  39.936   8.374  14.347
95256W        W67516  36.512  17.070   2.357
95257W        W67517  14.165   1.333   3.692
95258W        W67518  22.139  17.700   4.667
95259W        W67519  10.329  23.595  11.506
95260W        W67520  30.540  41.475   4.220
95261W        W67521  43.377   1.819   2.886
95262W        W67522  13.271  12.834   4.740
95263W        W67523  41.330  11.658  11.604
95264W        W67524  15.122  22.615  11.858
95265W        W67525  15.235  42.406   4.655
95266W        W67526  25.096  24.996   4.224
95267W        W67527  26.006  39.025  13.307
95268W        W67528  26.975   6.277  13.341
95269W        W67529  40.845  28.170   3.754
95270W        W67530  32.972  17.188   1.347
95271W        W67531  32.536   4.924  13.913
95272W        W67532  18.245  37.042   0.968
95273W        W67533  20.533  23.669   0.775
95274W        W67534  41.439  44.343   1.257
95275W        W67535  39.316   9.189  13.058
95276W        W67536  43.998  35.034  10.532
95277W        W67537  43.825  38.481  14.834
95278W        W67538  23.530  14.129   3.773
95279W        W67539  43.465  42.376  13.034
95280W        W67540  23.595   5.797   0.747
95281W        W67541  44.295   3.844   2.755
95282W        W67542   9.178  21.668   2.311
95283W        W67543  26.132  38.512  14.449
95284W        W67544  16.160   2.316  13.893
95285W        W67545  23.730  31.498   1.394
95286W        W67546   1.461  41.317  12.906
95287W        W67547  40.417  10.730  12.036
95288W        W67548  27.469  17.148   4.834
95289W        W67549  32.944  16.701  12.889
95290W        W67550  39.000  29.669   9.980
95291W        W67551  19.089   7.819  10.100
95292W        W67552  19.651  39.429  12.967
95293W        W67553  39.341  35.912  13.039
95294W        W67554   7.684  24.592   4.751
95295W        W67555  14.098  13.202   2.309
95296W        W67556   0.938  33.424   4.151
95297W        W67557   7.688   0.434  14.393
95298W        W67558  44.970  17.585  12.897
95299W        W67559  13.736  37.879   4.773
95300W        W67560  39.316  37.952  11.510
95301W        W67561  35.556  25.969  14.457
95302W        W67562   1.745  43.889   2.278
95303W        W67563  10.795   5.765  13.470
95304W        W67564  42.408   5.917  12.872
95305W        W67565  32.582  43.833   1.409
95306W        W67566  36.353  35.404  14.297
95307W        W67567  13.140   4.808   5.239
95308W        W67568   9.672  32.622   3.765
95309W        W67569  16.751   5.916  14.479
95310W        W67570  10.851   0.422   0.316
95311W        W67571  10.378   3.847   1.894
95312W        W67572  28.929  21.719   0.849
95313W        W67573   0.987  16.207  12.946
95314W        W67574  38.950  41.301  14.954
95315W        W67575  43.300  41.502  14.799
95316W        W67576  23.023  12.282  10.417
95317W        W67577  37.480  33.019   4.797
95318W        W67578  22.684   9.811  14.776
95319W        W67579  28.658  27.581  12.357
95320W        W67580  10.362  42.314   2.392
95321W        W67581  24.095  15.787  14.018
95322W        W67582  24.602  44.495   3.312
95323W        W67583  33.602  11.755  14.455
95324W        W67584  28.013  12.725  13.994
95325W        W67585  20.680  28.556  12.879
95326W        W67586  20.124  25.593  11.912
95327W        W67587   9.651   3.896  11.483
95328W        W67588  38.369  39.842   0.341
95329W        W67589  35.466  28.953  10.584
95330W        W67590  17.200   6.857  14.797
95331W        W67591  18.214   5.786  14.939
95332W        W67592   7.793  27.150   0.357
95333W        W67593  44.398  20.163   1.867
95334W        W67594  39.957  37.478   2.852
95335W        W67595  43.002  12.833   4.171
95336W        W67596  25.632  44.951  11.575
95337W        W67597  26.070  40.846   4.784
95338W        W67598  16.702  38.951  10.474
95339W        W67599  20.670  25.972   5.188
95340W        W67600   0.793  21.212   4.205
95341W        W67601  11.166  26.605  10.995
95342W        W67602  15.617  15.816   1.261
95343W        W67603   4.268  19.180   1.843
95344W        W67604  38.402  36.014   3.772
95345W        W67605  18.296   3.358  12.526
95346W        W67606  12.852  13.762  14.998
95347W        W67607  37.447  10.174   3.318
95348W        W67608  24.981  18.082  14.885
95349W        W67609   8.246   0.784   2.708
95350W        W67610  19.092  10.757   0.763
95351W        W67611  43.300   5.757   4.219
95352W        W67612  37.419   5.792  13.881
95353W        W67613   8.765  22.725   0.388
95354W        W67614  37.085  25.987  13.970
95355W        W67615   9.648  41.349   1.877
95356W        W67616  17.296  20.195  10.582
95357W        W67617   1.914  40.051   1.415
95358W        W67618   2.425  40.474  14.014
95359W        W67619  35.437  28.135   4.127
95360W        W67620  14.266  31.514  12.056
95361W        W67621  39.849  29.130   2.813
95362W        W67622  21.068  28.122   5.263
95363W        W67623  26.472   4.925   4.601
95364W        W67624  18.062  20.696   1.399
95365W        W67625  28.054  31.554  13.802
95366W        W67626   0.405  11.673  10.588
95367W        W67627  23.028  33.089  11.037
95368W        W67628   8.384  24.639   1.448
95369W        W67629  32.602  16.568  14.850
95370W        W67630  37.473  28.170  14.015
95371W        W67631   1.247  17.125  13.383
95372W        W67632  40.997  14.149  11.557
95373W        W67633  14.777  27.987   1.212
95374W        W67634  27.598  12.312   1.389
95375W        W67635  27.987  14.203   3.354
95376W        W67636   4.866   6.269   1.328
95377W        W67637  30.927   4.921  12.924
95378W        W67638   4.334  23.496   3.262
95379W        W67639  15.118  42.369  14.971
95380W        W67640   1.744   6.718   0.821
95381W        W67641  13.137  33.130  10.952
95382W        W67642  17.800  36.008  13.974
95383W        W67643  25.204  31.644  13.917
95384W        W67644   6.391  14.625   3.727
95385W        W67645  29.626   6.414  13.512
95386W        W67646  19.533   6.725  13.966
95387W        W67647  37.941  39.447   2.294
95388W        W67648  35.598  27.667   2.834
95389W        W67649  34.932  41.364   1.776
95390W        W67650  42.398   0.787   4.341
95391W        W67651   2.349  35.453  12.487
95392W        W67652   6.774  16.316   2.336
95393W        W67653  43.892  14.756   1.445
95394W        W67654  32.627  15.274   0.481
95395W        W67655   5.783  23.703  12.540
95396W        W67656  17.156   4.220   1.720
95397W        W67657  17.274  23.615   4.293
95398W        W67658  26.167  37.535   4.817
95399W        W67659  22.050  33.096   3.838
95400W        W67660  24.216  36.557   2.409
95401W        W67661  36.507  30.553   3.704
95402W        W67662  28.010  37.526   3.173
95403W        W67663   6.753  31.933  13.348
95404W        W67664  37.893  40.017   1.260
95405W        W67665  25.511  28.537  14.447
95406W        W67666  14.663  34.414   1.371
95407W        W67667  25.013  32.531   2.746
95408W        W67668  44.760  18.734   4.725
95409W        W67669  32.417  14.592   3.190
95410W        W67670  29.112   4.252  12.890
95411W        W67671  37.395  25.620   1.747
95412W        W67672  41.465  36.516  14.342
95413W        W67673  39.359  17.174  12.492
95414W        W67674   8.747  42.789  12.556
95415W        W67675  34.020  38.962  14.948
95416W        W67676  14.606  43.869   1.719
95417W        W67677  28.984  33.588   1.866
95418W        W67678  22.539   4.810   4.210
95419W        W67679  33.050   9.217  14.896
95420W        W67680  44.303  22.199   1.822
95421W        W67681  25.114   4.884   1.378
95422W        W67682  35.388  14.098   0.284
95423W        W67683  14.301  24.132   2.830
95424W        W67684  43.351  32.025   0.959
95425W        W67685  10.805  14.807   1.296
95426W        W67686  40.015   7.731   0.466
95427W        W67687  41.457   5.729   0.849
95428W        W67688  32.896   8.768  12.063
95429W        W67689   7.283  33.443  11.562
95430W        W67690  13.233  16.179   2.188
95431W        W67691  35.507  43.811  12.936
95432W        W67692   0.776   1.748   0.803
95433W        W67693  44.958  43.332  14.028
95434W        W67694  43.474  22.680  10.558
95435W        W67695  20.093   0.942   1.847
95436W        W67696   5.214   2.885   2.692
95437W        W67697  26.605   7.784  14.789
95438W        W67698  26.009  24.193  14.776
95439W        W67699  18.294  43.003  13.989
95440W        W67700  32.954   8.161   2.343
95441W        W67701   8.667   9.723   3.658
95442W        W67702   1.418  32.408   0.916
95443W        W67703  37.014  12.803   0.258
95444W        W67704  18.180  19.665   0.955
95445W        W67705  44.959   5.736  14.409
95446W        W67706  28.614  38.539  12.443
95447W        W67707  18.139  40.454   2.675
95448W        W67708  20.603  42.874   0.263
95449W        W67709  19.187  24.530  14.766
95450W        W67710  28.937  16.073   0.418
95451W        W67711  21.681  21.588  12.865
95452W        W67712  14.245  21.185  12.088
95453W        W67713   4.736  17.613   1.750
95454W        W67714   9.248  16.783  13.538
95455W        W67715  18.118  34.559  11.958
95456W        W67716  38.954  25.045  11.449
95457W        W67717   2.790  17.266   3.804
95458W        W67718   2.886  33.954  14.014
95459W        W67719  35.580  32.563  12.429
95460W        W67720  32.584   8.314  14.473
95461W        W67721   8.198  25.615   4.690
95462W        W67722  32.944  27.099   4.226
95463W        W67723  39.469  42.460   1.841
95464W        W67724  33.119  14.240  11.412
95465W        W67725  37.053  26.678  11.588
95466W        W67726  41.872  35.552   4.762
95467W        W67727  19.283  35.099  12.487
95468W        W67728  12.824   1.968   3.260
95469W        W67729   2.422  34.079   1.371
95470W        W67730   9.185  10.215  11.505
95471W        W67731  21.114  37.845  10.600
95472W        W67732  22.572  16.302   0.863
95473W        W67733  26.539  12.779   1.746
95474W        W67734  14.601  33.380   3.339
95475W        W67735   3.953   7.379   2.897
95476W        W67736  22.063  41.032   0.738
95477W        W67737  33.517  31.060   0.417
95478W        W67738  30.493  25.562   3.264
95479W        W67739  22.616  29.472   2.242
95480W        W67740  35.906  43.293   1.794
95481W        W67741  44.971   3.905  10.502
95482W        W67742  10.690   8.254  14.285
95483W        W67743  16.808  12.668  14.462
95484W        W67744   6.336   5.310   1.423
95485W        W67745  17.707  28.563   2.902
95486W        W67746  43.465  31.430  14.312
95487W        W67747  18.134   6.893  14.356
95488W        W67748  15.149  16.192   4.173
95489W        W67749  32.048  25.585   4.770
95490W        W67750  19.569  43.325   0.747
95491W        W67751  32.090   1.764  12.990
95492W        W67752  41.488  17.302  10.948
95493W        W67753  21.584  19.166   0.296
95494W        W67754  14.629  31.547   2.824
95495W        W67755  40.313   7.367  10.105
95496W        W67756  16.627  23.189   0.470
95497W        W67757  29.602  39.555   3.378
95498W        W67758   2.741  44.843   3.265
95499W        W67759  38.391   7.763  10.481
95500W        W67760  11.171  40.471  13.425
95501W        W67761  28.167   1.482  13.527
95502W        W67762   0.274  17.563  12.029
95503W        W67763  22.249   4.259  13.380
95504W        W67764  41.968  15.261   4.275
95505W        W67765  16.130  19.726   2.861
95506W        W67766  11.296  20.752  14.888
95507W        W67767  23.152  12.768   4.261
95508W        W67768  25.537  11.778   3.741
95509W        W67769   7.253  24.985  13.473
95510W        W67770   9.798  17.063   1.744
95511W        W67771  10.768  28.033  12.354
95512W        W67772   3.760   9.191   3.211
95513W        W67773  35.986  29.608   0.249
95514W        W67774  19.644  39.008  10.408
95515W        W67775  20.617   6.411  14.026
95516W        W67776  26.047  39.469   1.702
95517W        W67777  42.445  22.999  11.893
95518W        W67778  24.645   3.322  10.602
95519W        W67779  21.693   1.333   0.813
95520W        W67780  44.365  33.469  12.929
95521W        W67781  14.136  15.591  12.457
95522W        W67782  30.547  10.691   2.851
95523W        W67783   2.258   1.246  11.589
95524W        W67784  23.068  32.538   4.708
95525W        W67785  18.120  37.363   4.200
95526W        W67786  20.194  35.416   1.317
95527W        W67787  17.100  44.276   2.249
95528W        W67788  30.129  35.459   2.243
95529W        W67789  27.593  18.689   0.916
95530W        W67790  44.432   1.343   3.789
95531W        W67791  11.197  42.847   3.652
95532W        W67792  24.678  13.243   1.349
95533W        W67793   2.735  11.313  13.871
95534W        W67794  36.390  44.382   4.216
95535W        W67795  19.133  41.935   1.873
95536W        W67796   0.765  43.343  14.981
95537W        W67797  34.058   5.889   4.781
95538W        W67798  22.579  34.394   5.120
95539W        W67799  16.779  26.033   4.817
95540W        W67800  24.501  28.006   0.357
95541W        W67801  39.407  25.558   3.726
95542W        W67802   9.827  44.989   2.840
95543W        W67803  21.516  17.594  14.896
95544W        W67804   7.905  16.663  12.520
95545W        W67805   2.360   1.975   0.737
95546W        W67806  20.626  30.592  14.765
95547W        W67807  15.316   8.814  12.003
95548W        W67808   9.841  35.108   1.379
95549W        W67809   1.951  14.277   1.362
95550W        W67810  43.969  11.356   3.195
95551W        W67811  44.769  18.244   1.271
95552W        W67812   9.210   6.303   4.182
95553W        W67813  25.138  33.987   0.763
95554W        W67814  36.850  26.195   2.362
95555W        W67815  32.522   8.261  11.404
95556W        W67816   6.299  33.481   1.369
95557W        W67817  25.508  36.426  11.007
95558W        W67818   2.303  24.629   0.422
95559W        W67819  31.504   3.719  13.448
95560W        W67820  42.804   1.344  13.482
95561W        W67821  15.131   9.749   3.311
95562W        W67822  16.278   8.187  13.023
95563W        W67823  36.402   4.715  11.068
95564W        W67824   9.283  41.967   1.397
95565W        W67825  17.626  14.823   4.345
95566W        W67826  37.901   5.276  11.972
95567W        W67827  16.636  26.098   4.252
95568W        W67828  38.945  34.515   3.308
95569W        W67829  40.939  15.598   4.313
95570W        W67830  32.414  22.590  10.479
95571W        W67831  40.535  12.627   3.679
95572W        W67832   3.815   7.373  10.588
95573W        W67833  34.886  22.737  14.923
95574W        W67834  39.910  21.718   2.390
95575W        W67835  40.905   6.387   4.163
95576W        W67836  35.103  37.372  12.029
95577W        W67837  35.877   2.226  14.294
95578W        W67838  30.464  19.168   2.277
95579W        W67839  11.763  21.723   4.701
95580W        W67840  18.761   5.243   2.758
95581W        W67841   7.370  42.290   0.371
95582W        W67842  17.180  19.240  14.856
95583W        W67843   6.868  17.767   4.131
95584W        W67844  42.918  32.438   0.957
95585W        W67845  14.772  44.466   3.232
95586W        W67846   0.320  30.996  11.112
95587W        W67847  39.053  10.713   3.639
95588W        W67848  27.475  27.629  13.499
95589W        W67849   4.745   5.220   0.341
95590W        W67850  42.500  41.881   0.899
95591W        W67851  24.613  34.006   2.407
95592W        W67852  37.375  14.131   0.747
95593W        W67853  25.600   7.896  11.106
95594W        W67854  33.553  42.012  10.571
95595W        W67855  27.477  39.958   3.350
95596W        W67856  16.169  13.143  12.361
95597W        W67857  29.152   8.843   1.843
95598W        W67858  31.402   7.907   2.688
95599W        W67859  40.914  31.522   0.853
95600W        W67860  39.900   8.363   3.785
95601W        W67861   8.657  22.564  13.406
95602W        W67862  19.682  19.251  12.935
95603W        W67863  44.881  39.023  10.537
95604W        W67864  13.245  26.985   0.368
95605W        W67865  22.563  19.091  10.936
95606W        W67866  17.223  29.591  12.411
95607W        W67867  17.080  14.144   0.966
95608W        W67868  39.960  41.974  14.498
95609W        W67869  30.130  26.479   2.872
95610W        W67870  16.078  19.278  13.490
95611W        W67871  36.084  31.640   2.805
95612W        W67872  25.706  15.708  11.105
95613W        W67873  15.148  29.967   3.817
95614W        W67874   8.831  34.107   2.761
95615W        W67875  21.605  24.676  11.878
95616W        W67876  22.604   9.349  13.016
95617W        W67877   9.672  11.352   1.821
95618W        W67878  12.679  25.689   4.271
95619W        W67879  42.890  19.244  13.548
95620W        W67880  43.825  32.463  11.891
95621W        W67881  16.099  40.386   3.169
95622W        W67882  44.847  37.868  13.469
95623W        W67883  33.019   9.763  11.517
95624W        W67884  27.102  23.205   1.802
95625W        W67885  39.812  18.294  12.449
95626W        W67886   7.303  32.394  10.951
95627W        W67887  12.316  10.754   0.442
95628W        W67888  23.615  41.869   4.724
95629W        W67889   4.863  36.885   3.642
95630W        W67890   7.386  39.823   1.807
95631W        W67891   4.817  30.542   1.783
95632W        W67892  42.787   7.254   4.815
95633W        W67893  21.585  37.522   2.807
95634W        W67894  38.904   8.662  10.045
95635W        W67895  16.139  23.520  12.437
95636W        W67896  26.692  25.579   2.889
95637W        W67897  43.981  18.063  14.958
95638W        W67898  17.076   5.229  12.376
95639W        W67899  30.131  32.026  10.482
95640W        W67900  15.193  29.610   1.260
95641W        W67901  29.071  41.790  10.431
95642W        W67902  32.138  44.404  10.939
95643W        W67903  44.477  43.445   4.713
95644W        W67904  43.366   0.942   2.864
95645W        W67905  33.880  20.093  13.318
95646W        W67906  38.865   9.342   0.460
95647W        W67907  20.269  16.618   2.198
95648W        W67908  12.184  17.579   2.824
95649W        W67909  25.190   1.926   3.345
95650W        W67910  15.325  44.351  10.406
95651W        W67911  25.651  37.072  10.486
95652W        W67912   4.395  16.127   0.814
95653W        W67913  13.838  42.360   0.757
95654W        W67914  30.615  35.889  12.462
95655W        W67915  43.798  30.524   4.268
95656W        W67916   3.277  38.569  12.395
95657W        W67917  27.959  34.987   2.837
95658W        W67918  42.359   5.748   2.807
95659W        W67919  32.891   7.202   0.756
95660W        W67920   2.301  43.809   2.819
95661W        W67921   2.780  20.160  10.421
95662W        W67922  39.545  41.913  10.914
95663W        W67923  11.290  31.949   4.691
95664W        W67924  36.504  22.139   3.646
95665W        W67925  44.486  17.073  10.539
95666W        W67926   4.303  11.191   2.789
95667W        W67927  23.097   8.841   2.275
95668W        W67928  28.155  13.123  12.954
95669W        W67929   2.793  37.534  14.288
95670W        W67930  10.710  22.660  11.406
95671W        W67931  27.636   6.392  13.029
95672W        W67932  16.106   4.818   2.382
95673W        W67933  19.219  22.127  12.561
95674W        W67934  39.361  13.254   1.810
95675W        W67935  36.051   7.763   3.381
95676W        W67936  25.131   9.839  12.928
95677W        W67937  30.088  36.860  14.015
95678W        W67938  21.180  15.305  14.292
95679W        W67939  29.040  10.366  11.950
95680W        W67940  41.530  30.008   2.892
95681W        W67941  40.351  18.666  14.903
95682W        W67942  27.093  29.956  11.121
95683W        W67943  22.709  12.628  11.093
95684W        W67944  40.979   8.202  11.002
95685W        W67945  35.052  30.067   0.291
95686W        W67946  26.967  35.961   4.650
95687W        W67947   9.717  23.058  12.398
95688W        W67948  28.167  16.216   3.315
95689W        W67949  37.002  37.433  13.026
95690W        W67950  22.557  22.529   5.160
95691W        W67951  22.556  28.014   9.592
95692W        W67952  32.404   2.283   3.694
95693W        W67953  19.122  19.167  10.530
95694W        W67954  40.940  23.625  13.059
95695W        W67955  30.430  12.294  13.015
95696W        W67956  13.817   5.835  11.884
95697W        W67957  41.473  27.072  12.851
95698W        W67958  35.065  22.592  12.044
95699W        W67959  32.901  13.281   3.313
95700W        W67960  18.165  35.034  10.477
95701W        W67961  22.548   7.220  14.891
95702W        W67962  22.630   2.287  11.939
95703W        W67963  13.734   7.343  12.546
95704W        W67964  28.123  16.756  12.872
95705W        W67965  42.290   1.782   1.770
95706W        W67966  15.635  15.799   3.241
95707W        W67967  26.565  34.082  10.612
95708W        W67968  19.041  26.993   2.239
95709W        W67969  20.598  27.548   1.780
95710W        W67970  14.103  35.574   0.778
95711W        W67971  12.310  16.223   4.117
95712W        W67972  23.205  35.082   2.355
95713W        W67973  20.222   6.712  12.424
95714W        W67974  43.485   0.335  11.993
95715W        W67975   1.780  13.806   4.774
95716W        W67976  36.537  24.117  13.886
95717W        W67977  17.711  19.051   3.768
95718W        W67978   8.674  11.238   4.231
95719W        W67979  21.549  13.296  14.453
95720W        W67980  39.355  39.479   2.383
95721W        W67981  17.156  43.020  13.448
95722W        W67982  10.811  23.736   2.878
95723W        W67983  30.540  31.948  14.761
95724W        W67984  25.218  10.779  14.425
95725W        W67985  11.828   1.395  11.940
95726W        W67986   1.968  11.318   2.874
95727W        W67987  40.920  30.414   4.136
95728W        W67988  24.528  40.410  10.000
95729W        W67989  42.305  37.946  12.055
95730W        W67990  44.790   7.738   2.416
95731W        W67991  35.897  27.047   0.759
95732W        W67992  26.586  35.477  14.303
95733W        W67993  22.058  44.825  12.999
95734W        W67994  23.583   1.482   3.728
95735W        W67995  28.980  30.436   3.167
95736W        W67996  30.584  19.040   1.763
95737W        W67997  23.586   7.831  14.982
95738W        W67998  29.463  31.018  12.042
95739W        W67999  38.458  13.113  12.493
95740W        W68000  15.631  32.959   0.936
95741W        W68001  22.090  33.549  12.993
95742W        W68002   3.873  19.722  13.861
95743W        W68003  29.095  11.252  10.515
95744W        W68004  23.058  39.873  12.527
95745W        W68005  11.302  34.930  14.386
95746W        W68006  29.953  37.496   2.337
95747W        W68007   1.246  14.158  14.434
95748W        W68008   3.318  28.676   1.705
95749W        W68009  28.541  29.941   3.661
95750W        W68010  40.420  31.953   1.858
95751W        W68011  43.419   0.875  12.958
95752W        W68012  13.226  38.521   0.770
95753W        W68013  12.290  32.558  11.949
95754W        W68014   6.748   1.964   1.766
95755W        W68015  33.990  42.981   2.241
95756W        W68016   9.313  38.974   2.899
95757W        W68017   5.792  28.658   2.377
95758W        W68018  26.612  37.042   1.413
95759W        W68019  11.270   7.752   1.241
95760W        W68020  27.074  20.764  14.309
95761W        W68021   9.330  33.976   3.855
95762W        W68022  41.982  38.329  10.960
95763W        W68023   8.327   6.760   4.214
95764W        W68024  29.555  15.638   3.864
95765W        W68025  43.789  18.149  14.025
95766W        W68026  15.604  38.034   0.391
95767W        W68027   7.388  27.065  12.977
95768W        W68028  20.200  22.602  14.015
95769W        W68029  29.613  32.903   4.335
95770W        W68030  22.208  12.820   3.278
95771W        W68031  42.847  30.515   2.723
95772W        W68032   7.845   7.703   4.799
95773W        W68033  43.980  31.528   4.789
95774W        W68034   5.345  27.536  11.988
95775W        W68035  13.271  22.180   3.218
95776W        W68036  43.401  17.222   4.129
95777W        W68037   1.790  13.216  12.940
95778W        W68038  23.564  23.097   3.718
95779W        W68039   5.216   4.404  13.495
95780W        W68040  33.435  28.565  11.428
95781W        W68041   3.280  28.638  13.962
95782W        W68042  19.561   2.381  11.091
95783W        W68043  19.075   0.986   0.447
95784W        W68044   2.418  41.029  13.988
95785W        W68045  20.539  14.320   2.299
95786W        W68046  22.053  21.558   5.675
95787W        W68047   4.707  18.255  14.381
95788W        W68048   5.307  34.514  14.435
95789W        W68049  15.582  17.091  13.023
95790W        W68050  12.809  12.750   3.152
95791W        W68051  39.995  21.546   0.285
95792W        W68052  17.180  40.328   3.266
95793W        W68053   2.765  43.868  11.989
95794W        W68054   2.810  27.971  13.537
95795W        W68055  30.020  28.581   0.432
95796W        W68056  41.399   4.866  14.501
95797W        W68057  25.047   4.744  14.780
95798W        W68058  21.653  42.385   0.249
95799W        W68059   5.719   5.713  11.465
95800W        W68060  17.684  11.194   1.300
95801W        W68061  18.209  18.084   4.195
95802W        W68062  36.464  22.221  13.871
95803W        W68063  36.961  25.612   3.346
95804W        W68064  43.283   0.300  14.996
95805W        W68065   2.450  24.059  12.993
95806W        W68066  15.649  30.476  11.016
95807W        W68067   4.220  42.889  14.344
95808W        W68068  33.042  21.238   0.808
95809W        W68069  38.972   7.736   4.767
95810W        W68070  18.141   4.363   4.738
95811W        W68071  19.712  27.945   3.316
95812W        W68072  29.431  41.936   3.309
95813W        W68073  38.515   4.907  12.363
95814W        W68074   8.177  18.149   4.687
95815W        W68075   4.726  31.611  13.913
95816W        W68076  14.308  40.441   1.385
95817W        W68077   1.800  43.396   2.276
95818W        W68078  25.174  20.602   2.208
95819W        W68079  23.685  34.531  12.875
95820W        W68080  26.648  37.545  12.832
95821W        W68081  32.403  37.884  14.366
95822W        W68082  15.699  42.822  11.874
95823W        W68083  41.503  33.610   1.310
95824W        W68084  25.173   1.419   1.849
95825W        W68085  44.968  19.112  11.039
95826W        W68086  19.707  34.079   0.455
95827W        W68087  33.940  37.057  12.512
95828W        W68088   1.771  28.933  13.000
95829W        W68089   9.193   8.253  12.823
95830W        W68090  27.513  40.939   3.842
95831W        W68091  25.122  20.653  13.049
95832W        W68092  18.237  15.711   2.202
95833W        W68093   3.372   4.238  11.413
95834W        W68094  30.020  24.062  11.507
95835W        W68095  43.902  44.822  14.970
95836W        W68096   2.287  21.253   0.790
95837W        W68097  21.256  41.376  14.310
95838W        W68098  19.630  23.136  14.379
95839W        W68099  12.308  32.614  13.820
95840W        W68100  26.559   3.867   3.701
95841W        W68101  31.519  14.665  14.356
95842W        W68102  35.109   5.697  13.405
95843W        W68103   6.235  29.508   4.349
95844W        W68104  43.875  40.833   0.414
95845W        W68105  17.666  21.719  14.913
95846W        W68106  42.032  41.951   0.459
95847W        W68107  12.143  32.915   1.310
95848W        W68108  23.074  21.072   4.159
95849W        W68109   2.284  10.316  10.890
95850W        W68110  40.828  38.847   0.446
95851W        W68111  11.754  24.616  12.075
95852W        W68112  35.899  35.577  14.946
95853W        W68113  37.483  11.198   0.458
95854W        W68114   5.712  25.166  10.473
95855W        W68115  15.808  35.542  13.964
95856W        W68116  27.539  11.151  13.798
95857W        W68117  37.913  34.370   1.267
95858W        W68118  41.344  30.649   0.259
95859W        W68119  33.095  31.508   3.856
95860W        W68120  33.942   8.852   3.674
95861W        W68121  24.611   9.739   0.477
95862W        W68122   7.276  16.242  12.518
95863W        W68123  41.365  23.713   2.283
95864W        W68124   3.766  33.103  13.032
95865W        W68125   3.321   1.304   3.255
95866W        W68126  18.148  39.424   4.716
95867W        W68127  37.459   3.351   3.328
95868W        W68128  16.574  25.688   2.860
95869W        W68129  43.816  29.470  13.310
95870W        W68130  23.085  15.222   0.835
95871W        W68131  38.825  33.018   2.352
95872W        W68132   2.793  27.684   4.267
95873W        W68133  39.338  26.558   2.715
95874W        W68134  44.861  38.363   1.802
95875W        W68135   5.217  39.420   4.649
95876W        W68136  37.401   5.216  10.956
95877W        W68137  39.842  37.054  11.466
95878W        W68138   1.744  12.187  11.407
95879W        W68139  30.940  17.176  11.970
95880W        W68140  34.427  32.474   4.736
95881W        W68141  30.652   5.201  11.479
95882W        W68142   8.811  28.511   0.885
95883W        W68143  17.276  23.230   0.843
95884W        W68144  22.995  36.432   0.447
95885W        W68145   1.831   6.901   2.776
95886W        W68146  23.520  21.057  13.953
95887W        W68147  43.454  43.859   3.668
95888W        W68148  35.414  21.612   0.364
95889W        W68149  29.573   6.350   3.370
95890W        W68150  24.664  29.052  14.321
95891W        W68151   3.310  25.584  12.525
95892W        W68152  21.661  26.622  13.460
95893W        W68153   1.842  11.732   1.300
95894W        W68154   9.353  10.297  13.003
95895W        W68155  34.971   8.846  13.980
95896W        W68156  22.999  22.013   4.819
95897W        W68157  11.771   9.269  12.988
95898W        W68158  41.963  36.094  11.957
95899W        W68159  17.212  32.981   2.316
95900W        W68160  33.471  39.051  13.982
95901W        W68161  21.540   1.378   0.388
95902W        W68162  26.586  20.681  14.409
95903W        W68163  25.007  37.411   2.708
95904W        W68164  29.515  28.681  11.413
95905W        W68165  16.198  26.483   2.762
95906W        W68166   3.393   1.953   2.217
95907W        W68167  43.772  12.283   2.293
95908W        W68168  18.235  31.509  14.301
95909W        W68169  23.035  33.604   2.387
95910W        W68170  12.635   3.379   1.378
95911W        W68171  36.563  23.665   3.320
95912W        W68172   8.217  29.581   2.772
95913W        W68173  17.300  24.116  11.874
95914W        W68174  18.072  26.526   0.768
95915W        W68175   9.649  36.378   1.800
95916W        W68176  27.963   8.203   1.316
95917W        W68177   3.288  27.128   2.208
95918W        W68178  37.036  13.208  13.444
95919W        W68179  39.962  19.680  13.009
95920W        W68180  43.275  37.524  13.812
95921W        W68181  42.516   0.252  13.890
95922W        W68182  17.558  31.567  11.933
95923W        W68183  15.149  39.997  11.890
95924W        W68184   3.302  13.711   4.692
95925W        W68185  24.136  38.035   1.907
95926W        W68186  34.430  41.484   4.603
95927W        W68187  20.563  27.050  13.885
95928W        W68188   9.754  10.189  13.808
95929W        W68189   3.224  23.702   0.378
95930W        W68190   8.290  36.078   4.220
95931W        W68191  37.850   4.826  14.452
95932W        W68192  19.606   1.855  13.526
95933W        W68193  28.138  18.133   0.413
95934W        W68194  27.964  28.104  13.466
95935W        W68195  19.570   9.364   2.820
95936W        W68196   8.846  10.857   4.821
95937W        W68197  26.539   0.280  12.874
95938W        W68198  20.710  11.196  14.962
95939W        W68199   2.780  28.641   0.402
95940W        W68200  30.970   9.712   3.253
95941W        W68201  20.117  10.827  13.921
95942W        W68202  39.396  10.326  13.538
95943W        W68203  26.691  12.131  10.946
95944W        W68204  38.826  26.659  10.985
95945W        W68205  26.649  17.197   4.786
95946W        W68206  35.031  21.723   1.792
95947W        W68207  36.472  43.338  14.296
95948W        W68208   3.815  28.618  14.931
95949W        W68209   9.161  17.224  12.992
95950W        W68210  16.085  35.571   3.757
95951W        W68211  21.626  37.841  12.008
95952W        W68212  22.745  36.579  12.014
95953W        W68213  10.223   9.655   2.702
95954W        W68214  44.414  31.544  13.514
95955W        W68215  43.418  41.400  12.477
95956W        W68216   7.754  42.521   1.437
95957W        W68217  41.296  28.507  10.609
95958W        W68218  20.074   4.346   2.779
95959W        W68219  28.133  22.198   4.615
95960W        W68220  27.565   1.946  13.418
95961W        W68221  14.831  31.057  10.915
95962W        W68222  21.585  30.984   4.212
95963W        W68223  12.203  35.024   4.742
95964W        W68224  33.439  27.599   4.642
95965W        W68225   8.219  36.350  10.542
95966W        W68226  12.734   3.844  13.469
95967W        W68227  39.816  36.068  10.551
95968W        W68228   3.374  26.089   2.278
95969W        W68229  21.207  27.475  14.495
95970W        W68230  34.531  43.343  12.435
95971W        W68231  28.108  20.145  11.610
95972W        W68232  17.253  39.947   4.274
95973W        W68233  42.466  19.551   4.721
95974W        W68234  15.583  35.981  11.484
95975W        W68235  15.096  23.582   2.386
95976W        W68236  35.868  17.792   3.707
95977W        W68237   6.264  23.644   1.224
95978W        W68238  31.537  41.000   2.204
95979W        W68239  23.030  31.098   2.368
95980W        W68240   1.475  13.845  14.488
95981W        W68241  29.512  29.487   4.836
95982W        W68242  40.938  33.009  12.841
95983W        W68243   1.325  40.860  13.048
95984W        W68244  27.527  26.079   3.849
95985W        W68245  21.073  11.280  12.033
95986W        W68246  26.585  26.578   1.370
95987W        W68247  33.496  33.926  11.441
95988W        W68248  41.414   3.222  14.379
95989W        W68249  26.634  38.476   2.213
95990W        W68250  25.704  38.950   9.644
95991W        W68251  19.660  30.607  11.937
95992W        W68252  14.796   9.769  10.954
95993W        W68253   5.203  15.578  10.459
95994W        W68254  13.306  35.909   4.705
95995W        W68255  19.074   3.449  12.497
95996W        W68256  21.746  40.962  13.477
95997W        W68257  13.737  28.500   3.835
95998W        W68258   1.971  36.421  10.940
95999W        W68259  26.130  14.806   0.400
96000W        W68260  21.591  35.602  14.305
96001W        W68261  27.000  22.210   2.370
96002W        W68262  21.188   0.920   2.301
96003W        W68263  41.371  11.735   5.109
96004W        W68264   7.739  44.272  11.000
96005W        W68265  40.958   4.853   0.832
96006W        W68266  36.419  38.360  13.798
96007W        W68267  38.063   2.755   2.397
96008W        W68268  15.163  32.541  14.967
96009W        W68269   3.783  26.180   2.414
96010W        W68270  36.918  19.742  10.105
96011W        W68271   1.384  15.142  12.860
96012W        W68272  30.047   1.901  14.345
96013W        W68273  27.175  30.559  14.333
96014W        W68274  29.576  30.991   0.950
96015W        W68275  14.259   8.666   1.801
96016W        W68276  10.277   9.663  12.473
96017W        W68277  37.529  34.978  14.363
96018W        W68278  28.054  35.006   3.822
96019W        W68279  14.754  23.663  12.871
96020W        W68280   7.765  21.051   2.242
96021W        W68281  28.601  33.490  11.435
96022W        W68282   4.944  28.443  12.952
96023W        W68283  19.628   1.389   2.898
96024W        W68284  34.018   2.909   2.205
96025W        W68285  17.119  29.568  11.567
96026W        W68286   3.711  12.717   0.926
96027W        W68287  10.675  13.842  12.456
96028W        W68288   4.446   7.863   0.373
96029W        W68289  29.514  15.814  14.436
96030W        W68290  37.505   9.664   1.829
96031W        W68291  29.562  43.017   2.197
96032W        W68292  29.522   2.445  14.933
96033W        W68293  44.455  36.009   0.903
96034W        W68294  10.254  16.200  14.807
96035W        W68295   0.455  32.625  13.535
96036W        W68296  35.477  28.512   0.775
96037W        W68297   6.677  10.149  14.984
96038W        W68298  13.777  26.093   4.611
96039W        W68299  27.029   9.753  12.901
96040W        W68300  33.467  33.427  12.395
96041W        W68301  20.702  44.408   3.234
96042W        W68302  23.701  13.669  13.899
96043W        W68303  41.007  14.753   0.831
96044W        W68304   7.411  22.522  11.554
96045W        W68305  38.360   6.899  14.982
96046W        W68306  39.322  12.805   2.726
96047W        W68307  25.632  21.091  13.340
96048W        W68308  34.990  24.026  12.001
96049W        W68309  11.343  43.374   4.666
96050W        W68310  27.523  40.368   5.156
96051W        W68311  42.310  23.218   0.274
96052W        W68312  33.563  35.535  11.471
96053W        W68313  36.045  23.198   3.216
96054W        W68314  44.861  36.395   4.706
96055W        W68315  17.204   8.312  11.482
96056W        W68316  38.560  14.322  10.612
96057W        W68317  13.223   7.387  10.505
96058W        W68318  40.051  41.495  12.905
96059W        W68319  28.963   5.438  11.593
96060W        W68320  39.480  27.054  13.866
96061W        W68321  11.833   4.860   0.265
96062W        W68322  36.561  29.647  11.478
96063W        W68323   9.148   4.287  14.810
96064W        W68324  20.649  24.580   4.757
96065W        W68325   8.745  24.985   1.935
96066W        W68326  10.834  24.123   2.778
96067W        W68327  27.571  26.689   5.234
96068W        W68328  22.174   3.224   3.302
96069W        W68329  39.966  27.177   2.384
96070W        W68330  40.478  32.437   3.214
96071W        W68331  29.440   2.770   3.676
96072W        W68332  21.133  43.457   0.402
96073W        W68333   3.901  36.456  12.577
96074W        W68334  15.798   4.909   5.093
96075W        W68335  43.348  13.141   2.873
96076W        W68336   2.768   2.242   0.797
96077W        W68337   6.361  17.130   3.214
96078W        W68338  13.615  44.931  12.010
96079W        W68339  40.434  11.313   4.285
96080W        W68340   5.210  40.823   1.723
96081W        W68341   3.420   1.809  11.070
96082W        W68342  10.712  27.167  14.341
96083W        W68343  12.814  34.579   3.305
96084W        W68344  22.507  28.567  12.949
96085W        W68345  27.533  22.037  12.474
96086W        W68346  29.519  17.749  10.595
96087W        W68347   6.211   6.299  11.576
96088W        W68348  38.864  11.367   2.305
96089W        W68349  14.589   5.741   4.750
96090W        W68350  33.388  34.020  12.982
96091W        W68351  44.457  19.643   2.789
96092W        W68352  35.910  23.106  11.054
96093W        W68353  14.120  22.251  14.948
96094W        W68354  14.703  21.673   3.772
96095W        W68355   9.798  26.592   3.235
96096W        W68356  40.502  29.043  13.429
96097W        W68357   9.371  14.801   0.396
96098W        W68358  13.217   4.775  12.036
96099W        W68359  39.551  42.916  11.089
96100W        W68360  27.523   7.777  12.429
96101W        W68361  38.013   2.846  14.966
96102W        W68362  35.478  18.586   3.815
96103W        W68363  20.676  39.030   2.685
96104W        W68364  24.044  39.905   4.132
96105W        W68365  25.602  42.390   1.392
96106W        W68366   2.953  12.159   4.705
96107W        W68367  24.508  41.460   2.414
96108W        W68368  33.443  32.503   3.829
96109W        W68369  17.263   0.790   2.806
96110W        W68370   9.201  20.727  14.869
96111W        W68371   7.670  26.974  11.500
96112W        W68372  14.775  21.720  12.014
96113W        W68373  22.694   3.428  13.878
96114W        W68374   4.807  27.620  11.604
96115W        W68375  20.186  21.032  13.455
96116W        W68376  42.320   9.858  14.964
96117W        W68377   2.342  29.427   1.871
96118W        W68378  11.226  34.017   2.668
96119W        W68379   6.911   6.220   3.849
96120W        W68380  44.420  23.118   4.796
96121W        W68381  37.966  32.941   0.475
96122W        W68382  40.953  22.555   0.941
96123W        W68383  33.124  31.941  10.441
96124W        W68384  22.180  26.987   0.333
96125W        W68385  44.467  23.064  13.475
96126W        W68386  11.361  29.161   0.960
96127W        W68387  13.822  29.002   0.457
96128W        W68388  14.740  22.094   4.289
96129W        W68389  26.187  29.096   3.680
96130W        W68390  28.972  15.139  14.794
96131W        W68391  14.764  15.595  12.551
96132W        W68392  44.756  14.739   1.418
96133W        W68393   1.773  42.413   1.824
96134W        W68394  33.475  30.572  14.439
96135W        W68395  20.210  17.652   2.763
96136W        W68396  41.533  15.703  13.933
96137W        W68397  28.985  44.948   2.178
96138W        W68398  17.262   1.331   4.257
96139W        W68399  32.608  16.085  13.058
96140W        W68400  43.410  18.697   4.280
96141W        W68401  24.074   0.837  12.089
96142W        W68402  36.868   0.455  10.524
96143W        W68403   1.317  25.007  11.895
96144W        W68404  34.554  19.162  12.052
96145W        W68405   2.293  39.938   3.341
96146W        W68406  36.090  27.073   3.793
96147W        W68407  20.251  17.196  10.988
96148W        W68408  20.116   8.851  10.157
96149W        W68409  12.118  22.614   4.677
96150W        W68410  41.402  21.224   0.893
96151W        W68411  23.561  31.532  14.417
96152W        W68412   3.950  40.522   4.607
96153W        W68413  38.896   5.898   4.807
96154W        W68414  36.506   8.862  11.489
96155W        W68415   9.741  34.426  12.417
96156W        W68416   0.853  26.062  11.921
96157W        W68417  40.385  28.013   3.193
96158W        W68418  18.767  26.502   5.264
96159W        W68419  36.963   6.767  14.984
96160W        W68420  12.275   4.909   4.729
96161W        W68421   8.395  13.338   1.892
96162W        W68422  11.371  27.529  10.534
96163W        W68423  14.124  27.545  13.479
96164W        W68424  37.913   6.223  10.456
96165W        W68425  35.000  35.031   4.663
96166W        W68426  31.477  35.935  12.069
96167W        W68427   6.786  39.522   0.885
96168W        W68428  19.215  12.800   0.423
96169W        W68429  11.259  42.933   2.319
96170W        W68430   1.780   8.260   3.327
96171W        W68431   0.826  32.454   1.815
96172W        W68432  33.445  10.204   1.420
96173W        W68433   8.794  33.105   0.848
96174W        W68434  17.080  18.640  10.030
96175W        W68435   9.387  43.929   4.287
96176W        W68436  38.914   3.356   0.821
96177W        W68437  39.065  37.340  14.303
96178W        W68438  39.489  35.484   4.266
96179W        W68439  39.538  20.532   0.338
96180W        W68440  15.118  19.070  14.477
96181W        W68441  34.094   8.405  14.836
96182W        W68442  21.554  44.003  11.429
96183W        W68443  32.474   7.348   2.796
96184W        W68444  31.131   5.687  11.039
96185W        W68445  40.888  37.506   3.786
96186W        W68446  41.485   3.397  13.336
96187W        W68447   7.827  30.561   0.953
96188W        W68448  20.253  16.675  14.299
96189W        W68449  39.895  10.719  14.909
96190W        W68450   8.800   0.807   3.240
96191W        W68451  14.624   1.793  13.528
96192W        W68452  19.225  31.534   3.829
96193W        W68453  27.125  28.055  12.032
96194W        W68454  27.025  44.371   1.388
96195W        W68455  14.735  41.821  14.947
96196W        W68456   9.754  38.994  13.480
96197W        W68457  16.080   5.926  14.419
96198W        W68458  27.173  12.268  10.460
96199W        W68459  10.686  14.322  11.892
96200W        W68460  15.760  42.916   1.369
96201W        W68461  44.296  17.645   0.914
96202W        W68462  41.917  42.443  10.531
96203W        W68463  24.217  38.466   3.340
96204W        W68464  16.159   4.427  11.073
96205W        W68465  43.987   4.835   1.223
96206W        W68466  34.994  22.648  13.953
96207W        W68467  12.819   0.989   4.645
96208W        W68468   1.817  22.144   0.845
96209W        W68469   7.190   5.698  14.457
96210W        W68470   2.943   0.839  14.369
96211W        W68471  37.351  28.137   3.743
96212W        W68472   3.893  14.653   1.433
96213W        W68473  30.625  31.943  12.505
96214W        W68474  12.767  30.068  13.511
96215W        W68475  14.266  15.223  10.111
96216W        W68476   8.371  34.608  11.927
96217W        W68477  31.448  20.231   4.298
96218W        W68478  14.617  44.773  10.466
96219W        W68479   1.850  30.425   2.715
96220W        W68480  22.154  18.740  12.430
96221W        W68481   3.855  31.011   4.745
96222W        W68482   9.394  20.038   2.686
96223W        W68483  43.816   7.874  14.758
96224W        W68484  33.883   5.874   3.198
96225W        W68485  10.686  38.433   1.272
96226W        W68486  18.090  23.703  11.006
96227W        W68487  19.217   2.774   0.944
96228W        W68488  40.482  35.922   4.229
96229W        W68489   8.829   1.778  13.812
96230W        W68490  26.587   8.685   4.702
96231W        W68491  13.610  28.156   4.202
96232W        W68492  16.253  30.430   2.864
96233W        W68493  25.000   0.272  14.416
96234W        W68494  15.126  18.072   0.333
96235W        W68495  40.466  23.662   1.309
96236W        W68496   4.857  14.325  13.988
96237W        W68497  10.322  13.159   0.379
96238W        W68498  42.821  34.411   0.474
96239W        W68499  37.481  32.425  14.796
96240W        W68500  16.760  37.455   3.177
96241W        W68501  10.240  24.202   0.894
96242W        W68502   7.202   7.834  14.470
96243W        W68503   9.849  28.624  10.416
96244W        W68504   9.885  35.863   2.416
96245W        W68505  36.012  10.209   1.289
96246W        W68506   9.824  17.609  12.051
96247W        W68507  37.361  28.992   3.706
96248W        W68508  38.428  42.298   3.742
96249W        W68509  31.540  40.004   2.217
96250W        W68510  40.466   5.690  13.011
96251W        W68511  44.859   9.377   3.279
96252W        W68512  21.657   1.426   3.696
96253W        W68513  35.411   7.889   1.719
96254W        W68514   3.418  25.149   3.640
96255W        W68515  44.972  12.628  11.990
96256W        W68516   5.739  10.665  14.386
96257W        W68517  30.588  42.016  11.022
96258W        W68518  41.908   2.764   1.358
96259W        W68519  14.595  31.947  12.088
96260W        W68520  14.172   0.760   1.841
96261W        W68521  38.967  12.251  10.491
96262W        W68522  22.548  14.601  13.935
96263W        W68523   3.364  24.660   4.145
96264W        W68524  32.475   5.217  10.972
96265W        W68525   9.736  16.074  11.414
96266W        W68526   5.811  32.570   0.432
96267W        W68527  41.027   4.367   0.738
96268W        W68528  12.646   2.304   2.785
96269W        W68529  43.356  23.522  14.847
96270W        W68530  40.809  29.029   0.430
96271W        W68531  10.742  35.552  12.440
96272W        W68532  24.636  43.443  13.889
96273W        W68533  29.548  37.384  11.953
96274W        W68534  29.150  43.879   0.244
96275W        W68535   4.745  30.640  12.952
96276W        W68536  22.184  10.302  11.460
96277W        W68537   4.823  39.026   0.443
96278W        W68538  35.029   9.179  10.464
96279W        W68539  35.852  34.457  13.006
96280W        W68540   2.965   3.253  12.080
96281W        W68541  17.160   7.220   2.191
96282W        W68542  19.677  35.933  11.434
96283W        W68543  18.105  35.919  13.025
96284W        W68544  28.135  26.143   4.711
96285W        W68545  17.267   0.830  14.964
96286W        W68546  40.976   6.334   4.725
96287W        W68547  12.246   7.713   0.258
96288W        W68548  31.556  38.424   0.738
96289W        W68549   7.870  10.786  14.364
96290W        W68550  28.003   1.964  13.443
96291W        W68551  25.600  13.699   0.818
96292W        W68552  15.312  37.577   3.283
96293W        W68553   6.769  16.159   0.385
96294W        W68554  38.928  18.272  12.573
96295W        W68555  26.196  31.141  11.123
96296W        W68556  40.849  31.617  11.000
96297W        W68557  21.203  13.271  12.374
96298W        W68558  20.719  39.524   1.430
96299W        W68559  44.357  16.254   2.184
96300W        W68560  14.329   0.321  13.393
96301W        W68561  17.120  30.036  13.478
96302W        W68562   9.790  29.062  12.378
96303W        W68563   1.322  19.701  14.439
96304W        W68564  29.635  12.302   4.793
96305W        W68565  34.040   1.237   2.392
96306W        W68566  39.984   1.771  14.912
96307W        W68567  39.378   7.248  14.291
96308W        W68568   3.745  41.926   1.318
96309W        W68569  14.818   5.690   4.327
96310W        W68570  41.398  12.163   3.205
96311W        W68571  34.916  34.570  10.107
96312W        W68572  20.615  31.606   1.316
96313W        W68573  24.523   7.214   1.935
96314W        W68574  42.311   5.795   0.434
96315W        W68575  24.481  10.646   2.903
96316W        W68576  32.513  39.541  14.976
96317W        W68577  44.004  39.488   2.757
96318W        W68578  16.663  11.140  13.997
96319W        W68579  25.709  41.893  11.384
96320W        W68580   2.896  34.021  13.512
96321W        W68581  29.491   5.721  12.402
96322W        W68582  13.623  17.081  11.949
96323W        W68583  13.161   0.985   4.755
96324W        W68584   1.362  30.943  13.399
96325W        W68585  12.243  33.421   4.155
96326W        W68586   2.286  32.090  11.950
96327W        W68587  29.569  44.496  13.338
96328W        W68588  31.440   5.429   2.370
96329W        W68589  38.527  39.061  10.990
96330W        W68590  41.320   8.302   3.770
96331W        W68591  13.235  43.356   1.917
96332W        W68592  29.067  13.127  12.070
96333W        W68593  41.937  24.168  14.409
96334W        W68594   3.259  11.206   9.933
96335W        W68595   8.801  35.393   4.162
96336W        W68596   7.356  35.518   4.262
96337W        W68597  36.849  20.231  12.363
96338W        W68598  37.029  35.038  13.536
96339W        W68599  15.325  32.112   0.312
96340W        W68600  13.114  27.194   3.260
96341W        W68601  18.154  22.693   3.839
96342W        W68602  23.635  20.233   0.306
96343W        W68603   2.743  22.136   1.236
96344W        W68604  30.564   1.474   0.771
96345W        W68605  39.934   6.324   4.296
96346W        W68606  35.858   9.810  12.404
96347W        W68607   4.884  42.403  13.895
96348W        W68608  18.120  14.683   1.737
96349W        W68609   9.206  31.001   0.850
96350W        W68610  25.205  18.725  12.033
96351W        W68611  24.536  22.049  12.031
96352W        W68612  12.634  32.497   3.203
96353W        W68613  43.298   7.336   5.131
96354W        W68614  26.682   4.349  10.530
96355W        W68615  18.742  15.803   2.240
96356W        W68616   1.381  40.423  11.048
96357W        W68617  15.666  14.753   9.445
96358W        W68618  44.810  39.046  13.855
96359W        W68619  25.544  35.861  10.023
96360W        W68620  21.553  19.633  12.449
96361W        W68621  38.826  13.759   0.360
96362W        W68622  15.615  37.383   2.232
96363W        W68623  25.708   3.902  10.449
96364W        W68624  34.404  37.835   1.762
96365W        W68625   9.821  35.458   3.736
96366W        W68626  12.801   9.853  12.093
96367W        W68627  27.037  38.343   1.894
96368W        W68628  38.538  22.174  14.831
96369W        W68629  41.795  22.563  12.530
96370W        W68630  29.454  19.713   2.406
96371W        W68631  22.188  18.564   2.685
96372W        W68632  37.887  25.679   2.329
96373W        W68633   3.761  33.901   0.880
96374W        W68634  10.384  32.104   2.320
96375W        W68635  38.344  35.080  13.956
96376W        W68636  23.584  19.232   0.901
96377W        W68637  10.262  42.874  10.128
96378W        W68638  33.563   9.152   3.836
96379W        W68639  24.211  35.064  12.354
96380W        W68640   5.827  14.296   0.887
96381W        W68641  37.532  28.671  11.560
96382W        W68642  42.349  17.657  13.434
96383W        W68643  37.439   4.432  12.997
96384W        W68644  42.323   7.716   3.659
96385W        W68645   9.870  20.535  12.550
96386W        W68646  10.696  16.674   2.370
96387W        W68647   1.281  30.023   2.672
96388W        W68648   3.310  31.447   0.766
96389W        W68649  17.290   3.253  12.843
96390W        W68650  34.595   1.341  12.496
96391W        W68651  41.844  17.087  12.052
96392W        W68652  16.161  27.996   3.782
96393W        W68653  44.268  21.519   2.337
96394W        W68654  11.150  10.275   1.263
96395W        W68655  12.669   9.836  14.866
96396W        W68656  25.584   8.342  13.503
96397W        W68657   5.247  44.348  12.405
96398W        W68658  20.045   8.801   1.268
96399W        W68659  23.145  17.633   2.399
96400W        W68660   9.162   8.687  14.911
96401W        W68661  16.240  17.699  11.426
96402W        W68662  31.045   9.256  14.893
96403W        W68663  26.152   7.349  11.533
96404W        W68664   8.350   3.241   3.736
96405W        W68665  27.194  42.830  11.523
96406W        W68666  21.220  41.816   4.602
96407W        W68667  10.784  33.884  13.012
96408W        W68668   2.928  17.797  12.839
96409W        W68669   7.229  19.071   2.689
96410W        W68670  35.938  37.387   2.836
96411W        W68671  38.542  40.920  13.020
96412W        W68672   0.293   3.355   3.307
96413W        W68673  29.169   7.344  11.959
96414W        W68674  36.029   5.428  11.885
96415W        W68675   4.813  22.035  14.443
96416W        W68676   4.745   5.227  10.953
96417W        W68677   8.830  17.742  13.378
96418W        W68678  34.039  14.690   4.274
96419W        W68679  41.968  27.107  12.057
96420W        W68680  27.491  35.068  11.565
96421W        W68681  18.059  18.731   4.681
96422W        W68682  26.119  15.316  10.457
96423W        W68683  10.737  13.668  13.952
96424W        W68684  12.679  15.176   1.401
96425W        W68685   4.263  33.417  13.906
96426W        W68686  13.169   9.828   4.264
96427W        W68687   2.399   7.824  11.091
96428W        W68688   1.429  30.038   4.686
96429W        W68689   6.802  23.546   3.653
96430W        W68690  13.146  15.120   3.801
96431W        W68691  17.603  14.730  13.468
96432W        W68692  41.314  36.087   2.878
96433W        W68693   8.674   1.777   2.895
96434W        W68694  30.506  16.746   1.235
96435W        W68695  12.240  42.837   0.962
96436W        W68696  30.519  23.649  12.022
96437W        W68697  28.071   6.222  12.974
96438W        W68698   0.808  22.725  14.400
96439W        W68699  36.041  37.432  11.607
96440W        W68700  39.023  13.727   4.308
96441W        W68701   5.347  25.965  10.552
96442W        W68702  43.270  37.044   2.259
96443W        W68703  30.969   2.257   2.674
96444W        W68704  39.060  21.646   1.891
96445W        W68705  17.243   9.195  14.515
96446W        W68706  13.222  12.798  12.566
96447W        W68707   6.734  25.492  10.528
96448W        W68708  28.014  33.110  10.113
96449W        W68709  29.031  32.458  14.309
96450W        W68710   8.811  15.264  11.578
96451W        W68711  26.557  40.309  14.012
96452W        W68712  17.725   5.796  13.325
96453W        W68713  27.952  23.559  12.006
96454W        W68714  21.711  34.581   4.600
96455W        W68715  34.085  30.037   2.721
96456W        W68716  14.307  34.385   1.298
96457W        W68717  40.996  19.570  13.390
96458W        W68718  14.195   2.722   2.353
96459W        W68719  15.170  17.598   4.317
96460W        W68720   4.402  16.627   3.373
96461W        W68721  41.902  11.631   0.766
96462W        W68722  12.742  19.692   2.834
96463W        W68723  14.662  30.600  13.946
96464W        W68724   2.745  14.259  11.934
96465W        W68725  22.742   4.388  12.838
96466W        W68726  37.927  27.550  12.441
96467W        W68727  32.041  36.478   5.237
96468W        W68728  27.451  33.991   1.764
96469W        W68729  17.100   4.228   3.196
96470W        W68730  42.390  11.232   0.885
96471W        W68731  15.760  39.055  10.917
96472W        W68732  33.400  22.107  13.843
96473W        W68733  38.840  44.872   0.463
96474W        W68734  43.911  24.188  14.494
96475W        W68735  12.300  21.077   1.350
96476W        W68736  23.157  28.107  13.838
96477W        W68737  33.875  43.287  10.975
96478W        W68738   4.854  39.519  14.401
96479W        W68739  35.979  33.888   4.212
96480W        W68740  34.389  38.352   2.855
96481W        W68741  14.648   3.912   0.295
96482W        W68742  36.043   1.856   4.292
96483W        W68743  36.029   2.936   1.911
96484W        W68744  11.775  22.591  14.851
96485W        W68745  44.968   3.336  14.379
96486W        W68746  30.630  44.432  14.509
96487W        W68747  14.251  24.018  12.360
96488W        W68748  43.380   1.345   2.781
96489W        W68749  25.146   9.753  14.830
96490W        W68750  32.578  30.959   2.752
96491W        W68751   0.290  37.560  10.550
96492W        W68752  31.975  29.943  13.450
96493W        W68753  25.543   2.766  13.345
96494W        W68754  32.556  25.533   2.668
96495W        W68755  32.112  25.155   1.238
96496W        W68756  18.732  12.688  13.367
96497W        W68757  30.544  11.330   3.303
96498W        W68758  20.555  36.393  13.447
96499W        W68759  20.161  12.663   3.215
96500W        W68760  18.774  36.888   0.415
96501W        W68761  33.617  42.312  14.379
96502W        W68762  19.592  10.197   2.700
96503W        W68763  22.599  20.168   2.280
96504W        W68764  31.009  10.821  11.016
96505W        W68765  26.121  23.234   4.312
96506W        W68766  30.027   2.822   1.342
96507W        W68767  17.601  17.655   4.826
96508W        W68768  39.954  21.046  10.624
96509W        W68769  11.791  11.626  10.504
96510W        W68770  44.395  28.119  13.977
96511W        W68771  34.928  42.978  12.003
96512W        W68772  43.408   4.912   4.705
96513W        W68773  16.659  30.455   1.711
96514W        W68774  26.041  34.867  11.016
96515W        W68775  35.027  34.556  14.274
96516W        W68776  33.041   2.787   4.291
96517W        W68777  24.612  29.619   0.427
96518W        W68778  16.737  16.118   5.134
96519W        W68779  24.657   9.708   4.201
96520W        W68780  28.017  37.541   9.950
96521W        W68781   1.797   9.659  12.485
96522W        W68782  42.493  12.662   3.208
96523W        W68783   9.773  38.032  10.493
96524W        W68784  20.727  31.639  14.936
96525W        W68785   3.824  30.584  14.004
96526W        W68786  13.141   4.250   3.177
96527W        W68787  32.955  11.778  14.912
96528W        W68788  34.569  42.507  14.927
96529W        W68789  11.191  32.611   1.227
96530W        W68790   3.230  30.098  13.403
96531W        W68791   9.154  41.472   3.150
96532W        W68792  10.706  14.776   3.792
96533W        W68793  43.908  30.607   1.796
96534W        W68794  42.446   8.362  11.423
96535W        W68795  17.649  44.313  13.832
96536W        W68796  35.541  25.012  12.511
96537W        W68797  32.577  30.029   1.442
96538W        W68798  22.236  41.397   4.176
96539W        W68799  31.930   2.766  11.968
96540W        W68800  18.640  10.280   3.156
96541W        W68801  18.713   4.790   5.121
96542W        W68802  27.164  24.547  14.897
96543W        W68803  28.678  27.171  12.503
96544W        W68804  19.262  39.919  12.569
96545W        W68805   9.697   0.366   4.122
96546W        W68806  44.816  37.501  12.518
96547W        W68807  10.236  35.515  11.520
96548W        W68808  16.095   8.374  13.445
96549W        W68809  25.667  30.470  12.992
96550W        W68810  15.643  31.983  10.618
96551W        W68811  39.855  13.686   4.163
96552W        W68812  16.288  11.768  12.461
96553W        W68813   1.791  22.725  10.600
96554W        W68814  41.430  23.092   3.361
96555W        W68815   3.448  25.174   5.153
96556W        W68816  17.653  27.185  12.038
96557W        W68817   2.379  32.393   2.826
96558W        W68818   0.326  16.778  10.480
96559W        W68819  32.620  21.645  11.862
96560W        W68820  24.988  41.812   5.160
96561W        W68821   2.928  23.195   3.197
96562W        W68822  36.016  34.957   0.962
96563W        W68823  37.008  17.594   4.127
96564W        W68824  16.627   2.907   3.188
96565W        W68825  31.975   9.796  13.830
96566W        W68826  38.946  30.640   3.694
96567W        W68827  30.510  25.682  12.981
96568W        W68828   7.265  13.795  10.934
96569W        W68829   9.390  13.263  12.473
96570W        W68830  18.211  25.098   0.244
96571W        W68831  12.765  15.152  13.883
96572W        W68832  29.438  42.843   2.832
96573W        W68833   3.331  17.121   4.614
96574W        W68834  29.086   8.377  12.843
96575W        W68835   2.916  34.613   3.271
96576W        W68836  30.548   8.673  12.021
96577W        W68837   6.306  34.900   4.299
96578W        W68838  23.044  18.617   5.151
96579W        W68839  23.016  13.777   0.932
96580W        W68840  10.694  11.129  11.023
96581W        W68841   6.296   2.247   0.337
96582W        W68842  40.860  24.077   2.352
96583W        W68843  17.575   4.245   0.806
96584W        W68844  19.652  27.975  13.443
96585W        W68845  27.542  11.216  11.981
96586W        W68846  30.468  42.524  11.959
96587W        W68847  33.962  34.876   2.410
96588W        W68848  19.665  20.612  14.938
96589W        W68849  29.102  33.527  10.035
96590W        W68850  10.223  14.808   3.343
96591W        W68851  38.891  18.189  10.890
96592W        W68852  34.464  34.014  14.803
96593W        W68853  24.994  14.732   3.377
96594W        W68854  30.990  41.938   3.730
96595W        W68855  18.582  27.446   3.250
96596W        W68856  18.573  15.245  13.448
96597W        W68857   3.235  34.006  10.929
96598W        W68858  21.740  41.931  10.567
96599W        W68859   8.382  44.993  11.873
96600W        W68860  21.610   3.275  12.473
96601W        W68861   7.341  40.305  14.318
96602W        W68862  38.487  31.512   0.321
96603W        W68863  15.196  13.622  14.832
96604W        W68864  16.572   6.322   3.383
96605W        W68865  14.751  21.225   4.341
96606W        W68866  22.721  12.820  13.326
96607W        W68867  27.649   5.740  14.327
96608W        W68868  33.608   6.797  13.825
96609W        W68869  17.235   2.802  13.933
96610W        W68870  15.688  27.131   4.125
96611W        W68871  43.346  35.868   1.339
96612W        W68872  29.967  21.557  12.886
96613W        W68873  11.306  22.227  13.980
96614W        W68874  28.030  23.019   3.377
96615W        W68875   2.345  16.193   0.339
96616W        W68876  20.711  11.837  11.013
96617W        W68877  10.225  38.828  12.906
96618W        W68878   9.356  10.293   2.248
96619W        W68879   5.356   7.714  12.928
96620W        W68880  42.824  14.330   2.743
96621W        W68881  10.767  20.168   3.237
96622W        W68882  17.076  36.501   1.859
96623W        W68883  26.001   6.889   1.355
96624W        W68884   3.799  11.627  13.500
96625W        W68885  42.823  35.109   2.384
96626W        W68886  14.662   3.349   3.742
96627W        W68887   7.394  25.145   1.828
96628W        W68888   5.869  43.349  11.906
96629W        W68889  16.172  24.724   1.743
96630W        W68890  38.856   3.762   4.310
96631W        W68891  18.214  28.677   2.251
96632W        W68892  40.342   3.265  13.987
96633W        W68893  12.626  25.637   3.386
96634W        W68894   0.802  36.964  13.002
96635W        W68895  41.820   8.781  11.452
96636W        W68896  16.222  16.581  11.022
96637W        W68897  27.111   7.882  12.838
96638W        W68898  15.308  11.363  14.383
96639W        W68899  34.405   7.356   4.617
96640W        W68900  32.537  13.739  14.289
96641W        W68901  13.746  32.082  13.388
96642W        W68902  41.821  30.073   3.847
96643W        W68903  43.857  18.571   3.320
96644W        W68904  21.569  43.844  12.859
96645W        W68905  33.410   8.390   3.202
96646W        W68906  28.649  38.431  13.798
96647W        W68907   6.862  29.651   1.899
96648W        W68908  28.956  23.660  12.089
96649W        W68909   9.804  14.617  14.340
96650W        W68910  39.906  41.935   2.677
96651W        W68911   2.797  43.292  11.553
96652W        W68912  18.097  41.470  12.358
96653W        W68913   8.195  26.956  13.359
96654W        W68914   3.438  27.539  11.025
96655W        W68915  30.032  14.769   4.682
96656W        W68916  18.582  41.534   0.814
96657W        W68917   9.708  33.551   0.828
96658W        W68918  35.378  37.574  13.887
96659W        W68919  17.749  26.092   1.442
96660W        W68920  24.030   3.720   1.907
96661W        W68921   4.887  39.330  13.890
96662W        W68922  17.293  32.024   3.225
96663W        W68923  36.983   8.891  12.566
96664W        W68924   4.859  16.625  12.860
96665W        W68925  21.616   0.377  11.983
96666W        W68926  20.661   5.417  11.014
96667W        W68927  21.160  35.404   2.295
96668W        W68928  16.138  25.113   1.329
96669W        W68929  10.172  33.898   4.702
96670W        W68930  43.391  36.556  12.504
96671W        W68931   5.268  32.981   2.373
96672W        W68932  22.612   6.193   0.747
96673W        W68933  30.451  28.484  10.991
96674W        W68934  29.659  41.385   2.189
96675W        W68935  12.657  14.288  11.487
96676W        W68936  15.729  34.914   1.897
96677W        W68937  32.946  32.561  14.008
96678W        W68938   8.272  10.177  14.004
96679W        W68939  40.332   2.347   4.305
96680W        W68940  11.622  39.999   4.833
96681W        W68941  35.511  33.456  11.384
96682W        W68942   3.432  12.205  13.885
96683W        W68943  12.742   9.320  14.927
96684W        W68944   8.328  26.603   2.785
96685W        W68945  22.111   3.882  13.474
96686W        W68946  20.679  10.371   3.307
96687W        W68947  32.599  26.640  11.542
96688W        W68948  31.070  37.997   3.323
96689W        W68949  17.091   5.816  11.449
96690W        W68950  41.033  12.681  13.963
96691W        W68951  20.261  41.429  10.499
96692W        W68952   9.308  33.612   1.862
96693W        W68953  34.920  11.253   3.673
96694W        W68954   5.318  28.466   1.933
96695W        W68955  42.310  25.694  13.841
96696W        W68956   8.368   1.422   2.367
96697W        W68957  32.408  19.608  14.845
96698W        W68958  14.797   6.190   1.317
96699W        W68959  43.351  38.922   1.292
96700W        W68960   9.697  24.982  11.495
96701W        W68961   5.698  40.441   2.263
96702W        W68962  17.136   3.378   4.280
96703W        W68963  33.520  16.743  14.309
96704W        W68964  29.432   8.687  14.485
96705W        W68965  19.610  10.337  14.380
96706W        W68966  36.058  22.611   4.724
96707W        W68967  36.483  22.644   0.242
96708W        W68968  24.204  34.059  12.518
96709W        W68969  40.034  41.496   2.286
96710W        W68970  35.384   2.925   4.237
96711W        W68971  39.883  14.656   2.394
96712W        W68972  19.765  18.116   3.327
96713W        W68973  43.457  36.948   1.894
96714W        W68974  18.133  32.142  14.385
96715W        W68975   8.286  15.088   1.896
96716W        W68976  12.128  25.170   2.668
96717W        W68977  37.918  42.030  13.523
96718W        W68978  19.754  44.930  14.477
96719W        W68979   8.279   5.730  11.083
96720W        W68980  44.769  24.136  14.763
96721W        W68981  21.153  40.444  11.445
96722W        W68982  33.495  21.217   0.440
96723W        W68983  43.508  18.591   0.736
96724W        W68984  32.899  17.795  12.925
96725W        W68985  29.125  14.643  13.392
96726W        W68986  25.584  39.519   9.447
96727W        W68987  23.651  14.302   3.323
96728W        W68988  12.802  37.876  11.990
96729W        W68989  35.524  36.075  13.544
96730W        W68990  42.508  16.230  10.446
96731W        W68991  18.245   2.720   2.218
96732W        W68992  22.124  22.711   1.381
96733W        W68993  23.684  26.553   1.733
96734W        W68994  11.708  23.588   1.385
96735W        W68995  41.043  27.484  11.520
96736W        W68996  26.186  38.850   5.584
96737W        W68997  35.541   6.913  12.016
96738W        W68998   1.271  43.995   4.348
96739W        W68999  26.615  23.733   3.194
96740W        W69000  41.475  27.085  12.518
96741W        W69001   3.811   5.774  14.913
96742W        W69002  26.554   1.350   2.779
96743W        W69003   2.262  37.504  10.441
96744W        W69004  34.416  12.251  11.916
96745W        W69005  29.523  20.226   1.436
96746W        W69006  20.691  22.245   2.850
96747W        W69007  32.423  38.409   1.393
96748W        W69008  26.672  17.748  11.906
96749W        W69009  20.735  39.541  14.793
96750W        W69010  44.285  17.067  12.868
96751W        W69011   8.337   6.887   2.724
96752W        W69012  22.538  21.138   5.742
96753W        W69013  36.525   9.211   3.863
96754W        W69014   0.786  31.978   4.678
96755W        W69015  31.011  30.162  14.332
96756W        W69016  25.123  35.001   0.432
96757W        W69017  25.071  29.516   2.878
96758W        W69018  34.437  16.283  13.441
96759W        W69019  24.084  33.559  13.498
96760W        W69020  38.436   7.714   2.286
96761W        W69021  38.038  21.670  10.571
96762W        W69022   6.392   8.859   2.252
96763W        W69023  13.604   5.329  10.421
96764W        W69024   4.346   3.264   2.283
96765W        W69025  25.205   4.260   0.967
96766W        W69026  38.556  16.778  13.317
96767W        W69027  15.605  33.405  12.869
96768W        W69028  32.136   3.799  11.528
96769W        W69029  16.667  17.098   4.723
96770W        W69030  16.106  13.106   4.230
96771W        W69031   2.953  26.689   0.873
96772W        W69032   9.283  27.670   0.927
96773W        W69033  39.367   1.864  14.847
96774W        W69034  30.456  29.445   3.247
96775W        W69035  35.957  13.810  13.438
96776W        W69036   9.692  12.792   1.290
96777W        W69037   0.375  35.602   2.400
96778W        W69038  39.958  36.965   1.779
96779W        W69039  13.153  31.145  11.403
96780W        W69040  39.321  24.601   0.263
96781W        W69041  44.805  39.444   3.791
96782W        W69042  33.908   0.370  14.381
96783W        W69043   1.358   2.415   4.620
96784W        W69044  36.896  21.511   2.326
96785W        W69045  38.954  18.090  10.160
96786W        W69046  19.625  29.084  13.471
96787W        W69047  41.007  33.989  10.959
96788W        W69048  35.860   6.186   2.244
96789W        W69049  12.790  38.551   4.348
96790W        W69050  43.347  14.117  11.079
96791W        W69051  15.189  39.426  10.946
96792W        W69052  31.077   6.776   1.883
96793W        W69053  37.413  36.917  11.108
96794W        W69054   8.790  20.629   0.899
96795W        W69055  12.796   3.846   4.750
96796W        W69056   4.307  32.478  11.456
96797W        W69057  39.384  21.060  14.467
96798W        W69058   7.240  31.125   0.346
96799W        W69059  30.124  28.965   4.712
96800W        W69060  26.517   4.314  13.319
96801W        W69061  28.093   9.806  11.580
96802W        W69062  26.202  12.271   0.468
96803W        W69063  22.745  11.791  14.380
96804W        W69064   1.840  13.762   2.891
96805W        W69065   3.823  34.053   3.221
96806W        W69066   9.763  28.630   1.426
96807W        W69067  39.053  41.440   3.696
96808W        W69068  41.480   3.761   3.641
96809W        W69069  40.304   3.399   2.841
96810W        W69070   7.670  38.013   4.253
96811W        W69071  36.885  23.682   4.730
96812W        W69072  37.975  38.356  14.850
96813W        W69073  32.442  39.958  13.508
96814W        W69074  16.806   9.172  10.471
96815W        W69075  44.391  27.596   1.881
96816W        W69076  15.216   5.347   4.794
96817W        W69077  40.040  11.169  14.981
96818W        W69078  17.165  11.659   2.273
96819W        W69079  18.765   6.208   5.266
96820W        W69080  44.471  23.564   2.366
96821W        W69081  43.853  21.026  14.509
96822W        W69082  32.956  39.021   1.865
96823W        W69083  41.842  10.877   1.823
96824W        W69084  25.565  38.534  11.094
96825W        W69085  15.629   1.852   1.327
96826W        W69086  18.616   0.447   1.876
96827W        W69087   1.281  17.156  12.049
96828W        W69088  26.611  28.083  13.314
96829W        W69089   8.272  38.349   4.132
96830W        W69090   3.335  18.555  13.969
96831W        W69091  38.836  30.056   4.833
96832W        W69092  14.785  22.531  10.537
96833W        W69093  23.623  11.692  12.907
96834W        W69094  22.030  25.086  12.431
96835W        W69095  37.037  22.604   0.251
96836W        W69096  14.807  37.874   1.728
96837W        W69097  29.176  35.404  14.960
96838W        W69098  39.812  20.709  11.911
96839W        W69099  32.971  34.456   0.740
96840W        W69100  20.566   2.263  13.931
96841W        W69101  25.529  34.483   4.732
96842W        W69102  15.122  41.461  12.516
96843W        W69103  35.370  10.336   1.391
96844W        W69104  24.677  31.100   2.388
96845W        W69105  26.084  23.138  13.969
96846W        W69106   1.875   6.350   2.394
96847W        W69107   1.444  32.565   4.727
96848W        W69108   5.878  32.950  10.551
96849W        W69109  39.471  40.384  13.510
96850W        W69110   5.193  35.562  12.482
96851W        W69111   3.344  21.552  10.509
96852W        W69112  36.991   4.298   1.423
96853W        W69113  41.352  40.493  12.421
96854W        W69114   7.253  29.515   4.752
96855W        W69115  26.475  40.458   0.284
96856W        W69116   8.354  13.790  11.090
96857W        W69117  31.007   3.352  12.889
96858W        W69118  36.951   0.744  13.311
96859W        W69119  30.995   8.811  10.584
96860W        W69120   1.315  24.615   4.673
96861W        W69121  20.698  39.881   4.652
96862W        W69122  19.660  17.176   2.841
96863W        W69123  27.137   1.824  14.029
96864W        W69124  27.007  15.817  14.010
96865W        W69125  37.945  43.820   4.706
96866W        W69126  42.854  43.013  13.902
96867W        W69127  18.575  28.648  12.531
96868W        W69128  36.378  39.021  10.030
96869W        W69129   8.825   6.217   0.961
96870W        W69130  32.116  41.940   0.476
96871W        W69131  12.616  43.273  13.886
96872W        W69132  14.296  17.248   2.663
96873W        W69133  38.348  33.466  11.984
96874W        W69134  42.474  39.030   0.834
96875W        W69135  44.781  34.092  14.029
96876W        W69136  29.567   9.650   3.245
96877W        W69137   5.438  36.574  13.857
96878W        W69138  35.461  26.482  14.953
96879W        W69139  25.557  44.332   9.964
96880W        W69140  39.926  24.716   3.195
96881W        W69141  28.578  37.415  13.321
96882W        W69142  18.725  31.636  13.873
96883W        W69143  29.560   7.698   3.757
96884W        W69144   8.712  38.022   1.798
96885W        W69145  22.065  16.793   4.720
96886W        W69146  10.837   2.723   4.657
96887W        W69147  23.216  39.025   3.674
96888W        W69148   7.261  15.276  11.900
96889W        W69149   9.882  30.574  11.465
96890W        W69150  43.302  42.443  14.515
96891W        W69151  38.949  43.801   4.214
96892W        W69152  29.919  30.165   0.372
96893W        W69153   0.748   2.800   4.304
96894W        W69154  10.875  19.061   2.350
96895W        W69155  27.592  34.987   2.319
96896W        W69156  17.591   3.881   4.812
96897W        W69157  34.074  29.426  10.433
96898W        W69158  32.577  10.243  13.820
96899W        W69159   1.808   3.237  12.081
96900W        W69160  40.998   5.918   2.253
96901W        W69161  24.607  34.570   3.276
96902W        W69162  41.368  23.581   0.244
96903W        W69163  25.586  19.651   1.877
96904W        W69164   4.746  18.203   3.838
96905W        W69165  39.519  30.989  12.939
96906W        W69166  35.450   7.340  13.361
96907W        W69167  15.296   7.312  11.550
96908W        W69168  32.015  29.001   3.714
96909W        W69169  41.029  30.576   0.920
96910W        W69170  16.072  31.105   1.387
96911W        W69171  34.609  27.183  13.864
96912W        W69172   6.784   8.174   1.405
96913W        W69173   2.412  10.735  12.521
96914W        W69174  13.617  25.081   0.348
96915W        W69175  12.300   6.713  14.418
96916W        W69176  35.532   1.902   0.880
96917W        W69177  41.801  23.568   4.272
96918W        W69178  33.079  37.981  11.569
96919W        W69179  16.577   9.245   2.218
96920W        W69180  31.624  13.152   2.194
96921W        W69181   0.773  37.536   3.154
96922W        W69182  40.873   0.307  12.430
96923W        W69183  18.096  11.333   2.779
96924W        W69184  12.293  14.145   3.710
96925W        W69185   5.741  37.882   0.791
96926W        W69186  39.401  11.214  11.006
96927W        W69187   1.783  31.565   4.800
96928W        W69188   4.710  34.020  10.410
96929W        W69189   3.870  13.614  14.859
96930W        W69190   5.264   3.902   1.739
96931W        W69191  27.446  25.125  12.860
96932W        W69192  21.645  14.097   3.311
96933W        W69193  13.319  41.907   2.364
96934W        W69194  28.078  12.659  12.417
96935W        W69195  18.574   8.330  11.988
96936W        W69196  39.817  32.036   2.398
96937W        W69197  13.340  25.036  12.908
96938W        W69198  19.710  38.881  14.278
96939W        W69199  34.497  14.770   2.681
96940W        W69200  28.052   8.836  11.413
96941W        W69201  41.955  28.974  11.511
96942W        W69202  11.827  34.095  11.374
96943W        W69203  37.931   2.233   2.680
96944W        W69204  17.198   2.391   1.858
96945W        W69205  27.462  31.556  12.374
96946W        W69206  20.710  27.069  12.832
96947W        W69207  30.541  24.605  11.060
96948W        W69208  25.560  43.459  14.984
96949W        W69209  34.559  36.572   3.631
96950W        W69210  27.674   4.255  14.851
96951W        W69211  37.884   5.250   2.256
96952W        W69212   9.697   2.466   3.711
96953W        W69213  30.031  20.575   1.216
96954W        W69214  42.405  30.645  12.020
96955W        W69215  22.194  12.663  12.951
96956W        W69216   9.775  33.559   1.428
96957W        W69217  38.401  24.047   0.426
96958W        W69218   7.858  11.856  10.557
96959W        W69219  25.202  17.172  10.473
96960W        W69220  30.071  30.608  12.350
96961W        W69221  18.245  16.699  10.961
96962W        W69222  23.541  15.083  14.866
96963W        W69223  17.200  10.266   4.803
96964W        W69224  30.917  38.846  12.859
96965W        W69225  39.809  15.321  11.588
96966W        W69226  27.080  33.979   3.762
96967W        W69227  39.533  31.128  10.424
96968W        W69228  20.761  10.871   4.228
96969W        W69229  31.002  26.022  10.463
96970W        W69230  12.625  17.730  12.394
96971W        W69231  44.468   5.324  14.016
96972W        W69232  22.136  13.725   3.221
96973W        W69233  21.683   1.873  10.640
96974W        W69234  26.608  26.663   0.958
96975W        W69235   2.417  20.246  10.523
96976W        W69236   0.418  41.984  14.987
96977W        W69237  39.957  42.294  11.871
96978W        W69238  28.968   0.967  14.482
96979W        W69239   7.310  20.552   3.297
96980W        W69240   0.358  15.584  11.929
96981W        W69241  18.727  26.124   2.892
96982W        W69242  12.184  35.886  11.954
96983W        W69243  29.069  24.674  14.952
96984W        W69244  34.602  29.435   3.653
96985W        W69245  44.935   1.738   4.693
96986W        W69246  19.677  25.182  14.962
96987W        W69247  28.185   2.315  11.373
96988W        W69248  17.155  15.720   4.262
96989W        W69249  16.081  38.014  13.918
96990W        W69250  38.866  38.570   0.796
96991W        W69251  12.283  33.112  12.351
96992W        W69252  15.653  33.445  12.507
96993W        W69253  12.358  19.055  10.581
96994W        W69254   3.954  27.579   3.210
96995W        W69255  24.685   1.786  11.101
96996W        W69256  25.516  28.986   4.731
96997W        W69257  33.080  23.069   0.800
96998W        W69258  26.963  44.369   4.134
96999W        W69259  42.514  43.019   0.448
97000W        W69260  23.533  12.714  10.432
97001W        W69261  10.215   6.856   3.312
97002W        W69262  40.984  28.165  13.468
97003W        W69263  20.151  21.657   3.848
97004W        W69264  21.179  30.460   2.844
97005W        W69265  29.125  21.584   1.897
97006W        W69266  11.147  44.932   3.719
97007W        W69267  37.434   4.888   2.278
97008W        W69268   2.946  34.054   4.161
97009W        W69269  33.044  31.555   2.191
97010W        W69270   7.416  32.924  13.369
97011W        W69271  23.150   4.702  13.448
97012W        W69272  19.618  15.702  11.382
97013W        W69273   2.244  18.554  11.986
97014W        W69274  37.582  11.745  14.909
97015W        W69275   6.882   9.270  10.929
97016W        W69276  19.185  15.712  11.037
97017W        W69277  28.608   4.294  11.914
97018W        W69278  36.054  20.696  12.400
97019W        W69279  30.657   9.284   5.289
97020W        W69280   3.786   8.276   2.734
97021W        W69281   8.310   6.818   1.290
97022W        W69282  41.511  26.652  14.286
97023W        W69283   0.867  44.952  10.451
97024W        W69284  16.098  25.004   4.692
97025W        W69285  14.685  25.028   3.260
97026W        W69286  14.139  37.004  12.027
97027W        W69287  14.742  28.659   1.287
97028W        W69288  30.503   5.289  14.860
97029W        W69289  14.625  38.032  12.859
97030W        W69290  17.063  21.753   0.253
97031W        W69291   2.946  41.485   3.361
97032W        W69292  33.042  38.457  13.028
97033W        W69293  29.163   6.907   3.662
97034W        W69294  40.350  20.036   1.258
97035W        W69295  41.835  11.139   4.218
97036W        W69296   5.252  20.672   3.672
97037W        W69297  36.020  15.242   3.785
97038W        W69298  22.020  35.865  12.896
97039W        W69299  42.894  37.508   3.805
97040W        W69300  18.193  11.154  13.376
97041W        W69301  29.499  41.512  13.491
97042W        W69302  10.704  34.598   2.289
97043W        W69303  14.188  23.713  12.842
97044W        W69304  30.646   9.686   3.327
97045W        W69305   8.169   0.371   3.263
97046W        W69306  18.648  43.461   3.792
97047W        W69307  19.662  19.753  13.401
97048W        W69308   9.829  22.688  12.077
97049W        W69309  36.448  13.671   2.260
97050W        W69310  35.501   9.237   0.892
97051W        W69311  40.902  27.100   1.864
97052W        W69312  24.092  16.230   3.651
97053W        W69313   1.812   8.276  11.386
97054W        W69314  42.787   8.245  10.459
97055W        W69315   8.262  40.921   0.259
97056W        W69316   2.880  18.204   4.713
97057W        W69317   8.846  14.637   3.653
97058W        W69318  19.743   9.871   2.253
97059W        W69319  15.139  22.100  12.472
97060W        W69320  29.026  18.722   3.673
97061W        W69321  43.974  35.371  12.905
97062W        W69322  25.560   1.818   3.253
97063W        W69323   1.323  33.926   0.832
97064W        W69324  44.283  24.492   3.333
97065W        W69325  21.577  38.890   2.771
97066W        W69326   3.928  30.504   2.696
97067W        W69327  13.335  32.127  13.514
97068W        W69328   7.372  14.640   3.850
97069W        W69329   3.251   2.257   5.148
97070W        W69330  43.765  16.779  14.422
97071W        W69331  25.054  10.382  14.482
97072W        W69332   2.753  24.007   1.438
97073W        W69333  30.083  36.434  14.471
97074W        W69334  17.297   8.404  10.994
97075W        W69335  23.604   5.865  12.039
97076W        W69336  17.199  37.431  12.998
97077W        W69337  20.206  15.194   1.802
97078W        W69338  11.683  32.895  13.438
97079W        W69339  36.098  14.773   1.414
97080W        W69340  42.431  25.703  13.334
97081W        W69341   9.389  16.203   1.760
97082W        W69342  30.569  32.513  12.076
97083W        W69343  13.662  44.478   1.309
97084W        W69344  28.580  12.787  10.639
97085W        W69345  39.875   8.886   4.644
97086W        W69346  30.589  20.214   1.845
97087W        W69347  13.290  14.657   2.288
97088W        W69348  27.687   7.236  14.480
97089W        W69349  14.766  22.020  13.360
97090W        W69350  22.746   8.678   5.320
97091W        W69351  12.822  35.521   2.767
97092W        W69352  27.690  13.192  14.848
97093W        W69353  27.624  17.640  10.517
97094W        W69354  22.161   4.799   0.410
97095W        W69355   4.943  21.714  12.522
97096W        W69356  19.714  22.015   4.188
97097W        W69357  31.023  28.434  12.441
97098W        W69358  13.673  15.202  13.050
97099W        W69359  17.122  39.460  12.461
97100W        W69360  27.615  29.038  12.358
97101W        W69361   7.781  38.542   0.426
97102W        W69362  41.400  19.192   0.795
97103W        W69363   7.303   3.278  13.062
97104W        W69364   6.820  18.643   2.343
97105W        W69365  28.134   8.398   0.805
97106W        W69366   9.724  37.369   2.817
97107W        W69367  34.984  37.474   2.801
97108W        W69368  26.672   1.853  10.031
97109W        W69369   2.246  25.585   2.399
97110W        W69370  23.643  35.491   0.814
97111W        W69371  42.785   9.150   3.790
97112W        W69372  13.345  14.269   1.762
97113W        W69373  11.168  31.622   0.780
97114W        W69374  13.610  18.663   1.413
97115W        W69375   8.662   2.870   3.156
97116W        W69376  19.762  42.999  13.979
97117W        W69377  13.312   0.770  12.524
97118W        W69378  35.452   5.237  13.414
97119W        W69379  24.660  24.049  10.976
97120W        W69380  31.151  14.802   0.446
97121W        W69381  39.816  26.998  12.977
97122W        W69382  33.610  31.994  12.019
97123W        W69383  29.971   2.409   3.178
97124W        W69384  34.979  36.922   1.848
97125W        W69385   6.412   0.799  14.943
97126W        W69386   8.784  26.699   0.815
97127W        W69387   7.778  41.986  12.428
97128W        W69388   4.236  15.583  12.921
97129W        W69389  11.731  33.594   3.247
97130W        W69390   6.760   0.921   1.375
97131W        W69391  37.424  36.374   3.827
97132W        W69392  44.792  42.513   1.709
97133W        W69393  10.203  29.011   1.703
97134W        W69394  16.192  23.501  10.484
97135W        W69395  27.462  14.135   4.804
97136W        W69396  41.422  30.134  11.564
97137W        W69397  27.152  18.262   4.238
97138W        W69398   2.368  28.559  11.571
97139W        W69399  21.592  24.069   0.928
97140W        W69400  37.951  36.018   3.338
97141W        W69401  42.443  32.444   2.856
97142W        W69402  38.441  36.383  11.126
97143W        W69403  12.635  20.659  12.546
97144W        W69404  38.444  10.209   0.858
97145W        W69405  40.327  16.574  11.587
97146W        W69406  44.291  25.490   4.836
97147W        W69407  12.304  41.791   3.855
97148W        W69408   7.727  20.705  14.397
97149W        W69409  29.469  10.245   4.223
97150W        W69410  21.240  32.058  13.499
97151W        W69411   7.277  21.661   4.218
97152W        W69412  24.090   0.482  11.007
97153W        W69413  22.612   5.778   0.421
97154W        W69414  28.576  15.171  10.592
97155W        W69415  11.752  38.371   3.306
97156W        W69416  42.393  42.360   0.246
97157W        W69417  28.129  21.136  12.009
97158W        W69418  17.185  37.893  12.892
97159W        W69419  33.911   4.731  10.493
97160W        W69420  25.609  33.062   0.844
97161W        W69421  17.738  18.117   1.739
97162W        W69422  11.157  11.370   1.291
97163W        W69423  23.522  42.281  13.996
97164W        W69424  10.172   5.831  12.399
97165W        W69425  37.908  35.081   3.342
97166W        W69426  31.041  18.650  13.530
97167W        W69427  22.536  22.064   4.604
97168W        W69428  14.643  44.835   4.649
97169W        W69429  12.641  24.533  12.021
97170W        W69430   1.804   5.345   0.287
97171W        W69431  13.269  19.549  11.946
97172W        W69432  12.185  44.924   4.813
97173W        W69433  41.909  34.508   2.804
97174W        W69434  10.214   8.384  13.842
97175W        W69435  37.087  23.518  14.416
97176W        W69436  11.859  19.632  13.470
97177W        W69437   9.188  34.105  11.965
97178W        W69438  26.653  19.704  11.953
97179W        W69439  25.495   8.364   1.281
97180W        W69440  31.976  35.513   0.275
97181W        W69441   2.361  25.710  11.979
97182W        W69442   2.284  35.526   0.921
97183W        W69443   2.905  25.487  11.023
97184W        W69444  14.762   1.850  11.593
97185W        W69445  29.019  30.022  14.290
97186W        W69446  32.899  32.459   2.781
97187W        W69447  12.126   3.438   0.899
97188W        W69448  35.946  37.932  11.497
97189W        W69449  41.936  10.279   2.409
97190W        W69450   1.737  31.510  10.902
97191W        W69451  25.565  11.309   4.181
97192W        W69452  26.951  20.741   3.166
97193W        W69453  18.110  11.134  12.385
97194W        W69454   6.773  31.632  14.304
97195W        W69455   1.857   8.391   2.274
97196W        W69456  10.847  43.317  12.545
97197W        W69457  37.480   2.414   3.860
97198W        W69458   9.696  30.501  12.880
97199W        W69459  16.244   3.732  12.973
97200W        W69460  30.466   4.385   3.668
97201W        W69461   2.384  30.578   0.794
97202W        W69462   1.271  22.209  10.430
97203W        W69463  18.725  39.934   2.246
97204W        W69464  23.011  36.552   1.411
97205W        W69465  17.159  31.454  12.048
97206W        W69466  31.950   7.791  13.798
97207W        W69467  43.505  12.733  10.536
97208W        W69468  16.797   7.232   3.146
97209W        W69469  15.707  34.001  14.886
97210W        W69470  10.254  34.105   0.828
97211W        W69471  43.014   4.781  14.306
97212W        W69472   9.355  44.378   2.884
97213W        W69473   6.811   7.818   4.667
97214W        W69474  25.547  21.220  14.028
97215W        W69475   2.864  36.415  10.444
97216W        W69476   2.359  18.174  11.878
97217W        W69477   7.813  13.828   1.758
97218W        W69478  32.991  25.514  13.533
97219W        W69479  17.231  42.977  10.147
97220W        W69480  25.668  42.995   2.247
97221W        W69481  35.063  31.087   0.742
97222W        W69482   7.806  14.130  10.102
97223W        W69483  37.991  27.568   0.782
97224W        W69484   9.191   4.861  14.438
97225W        W69485  20.550  29.103  11.606
97226W        W69486  43.882  12.237   1.247
97227W        W69487  25.484  13.701  11.439
97228W        W69488  38.979  16.736   1.867
97229W        W69489  16.710  43.342  10.465
97230W        W69490   4.425  22.673  13.366
97231W        W69491  17.700  16.214  11.002
97232W        W69492   6.762  31.132   1.444
97233W        W69493  24.990  43.288  11.880
97234W        W69494  23.149  15.732   0.439
97235W        W69495  26.053   7.244  14.814
97236W        W69496  37.528   6.896   2.360
97237W        W69497  39.997  26.504  14.981
97238W        W69498   4.744  34.955   3.776
97239W        W69499  43.367  24.096   3.728
97240W        W69500   8.382  40.470  13.432
97241W        W69501  11.634  34.494   1.870
97242W        W69502  37.078   2.896  14.011
97243W        W69503  10.816  40.387  12.947
97244W        W69504  31.515  30.928  11.377
97245W        W69505  40.910  30.631  12.885
97246W        W69506  10.639   2.741  13.422
97247W        W69507   2.894  27.611  11.054
97248W        W69508   3.911  39.423   2.864
97249W        W69509  28.000  17.632  10.406
97250W        W69510   6.331  19.633  11.530
97251W        W69511   6.798  30.644  14.346
97252W        W69512   0.463   2.266   3.832
97253W        W69513   7.334  11.661   1.742
97254W        W69514   9.352  11.673  11.858
97255W        W69515  31.041  23.037   4.782
97256W        W69516  22.563   6.917   1.271
97257W        W69517  18.166  17.199  12.346
97258W        W69518  32.435  24.532  11.441
97259W        W69519  42.887  34.106   1.244
97260W        W69520  42.507  41.871  13.829
97261W        W69521  33.923  22.086   3.803
97262W        W69522  31.569  41.952   2.263
97263W        W69523  36.973  32.005   3.194
97264W        W69524  30.926  43.365  10.890
97265W        W69525  34.019  19.598   3.830
97266W        W69526  17.691  11.315   0.437
97267W        W69527  21.238  26.105  14.298
97268W        W69528  15.739  41.308  14.950
97269W        W69529   6.852   2.366  14.407
97270W        W69530  23.608   4.368   3.744
97271W        W69531  13.821  10.831  10.592
97272W        W69532  26.605  30.065   0.245
97273W        W69533  25.008   8.669  14.387
97274W        W69534  25.181  41.836   4.618
97275W        W69535   2.900  25.161   3.679
97276W        W69536   8.284  18.699  10.560
97277W        W69537  33.882  34.047   1.880
97278W        W69538  39.877  39.369  13.816
97279W        W69539  15.223  12.653   2.705
97280W        W69540  29.625  37.559   3.796
97281W        W69541   9.394  20.608   1.429
97282W        W69542  37.896   6.697   1.754
97283W        W69543   2.259  40.044  11.121
97284W        W69544  23.196  32.064  12.996
97285W        W69545  34.423  44.928  13.962
97286W        W69546  41.527   5.747   1.706
97287W        W69547  43.453  27.479   4.118
97288W        W69548   1.305   9.733  14.777
97289W        W69549   4.253   0.260   0.933
97290W        W69550   7.295  16.679   0.273
97291W        W69551  41.317  37.418   0.864
97292W        W69552  19.614  11.631  10.517
97293W        W69553  24.695  28.469  10.141
97294W        W69554  24.604  18.244   2.312
97295W        W69555  10.170  27.970   1.917
97296W        W69556  21.732  10.331  11.965
97297W        W69557  26.136  15.200  11.443
97298W        W69558  12.742  40.841  13.864
97299W        W69559  38.842  35.944  13.978
97300W        W69560  43.455  21.710  11.905
97301W        W69561  23.675  39.834   9.922
97302W        W69562  25.186  33.384  10.446
97303W        W69563  27.059  25.521   3.346
97304W        W69564  34.399  14.661  11.565
97305W        W69565  15.197  25.084  13.379
97306W        W69566  43.326  12.680   5.139
97307W        W69567  43.899  22.529   2.292
97308W        W69568  14.136  16.277   0.934
97309W        W69569  37.361  32.544   1.273
97310W        W69570   4.917  41.975  13.010
97311W        W69571  38.823   2.736  12.358
97312W        W69572  38.562  30.040   3.256
97313W        W69573  11.353  42.798  14.889
97314W        W69574   9.800  37.074  10.425
97315W        W69575  40.814  22.558  10.507
97316W        W69576  29.166  37.421   1.767
97317W        W69577  34.054  32.581   2.254
97318W        W69578  10.799  26.021  12.965
97319W        W69579   7.339  15.807   1.293
97320W        W69580  33.900   7.866   3.256
97321W        W69581  25.477   4.216   3.322
97322W        W69582  10.138  30.030  12.572
97323W        W69583  25.615  38.052   3.818
97324W        W69584  39.313  40.358   3.347
97325W        W69585  42.876   9.394  13.396
97326W        W69586   0.367   5.238  13.350
97327W        W69587  23.133  24.489  12.895
97328W        W69588  27.542   4.401  12.025
97329W        W69589  22.034  28.470   4.114
97330W        W69590  24.499  11.218   0.935
97331W        W69591  26.548  23.692  12.449
97332W        W69592   1.895  43.869   4.776
97333W        W69593  22.742   6.277   1.241
97334W        W69594  24.563  43.982  10.934
97335W        W69595  12.271  34.894  12.514
97336W        W69596  11.264  15.734  12.895
97337W        W69597   5.346  30.499   5.107
97338W        W69598   0.807  33.890  11.446
97339W        W69599  21.257  25.149   0.899
97340W        W69600   9.163  29.511  12.894
97341W        W69601  38.901  36.564  13.838
97342W        W69602  41.976  29.628  10.565
97343W        W69603   1.284  28.002  13.889
97344W        W69604   4.723  38.924  10.504
97345W        W69605  29.117  25.607  14.440
97346W        W69606  38.910  24.615  14.013
97347W        W69607   5.248  13.290  11.596
97348W        W69608  20.740  27.133   1.401
97349W        W69609   6.877  21.653  11.452
97350W        W69610  42.837  22.572  14.405
97351W        W69611   1.267   8.264  12.441
97352W        W69612  23.200  43.437  13.925
97353W        W69613  20.232   1.442  14.411
97354W        W69614  33.551  12.129  10.487
97355W        W69615  17.295  40.549   0.416
97356W        W69616  27.186   8.852   1.742
97357W        W69617   4.326  39.462  12.458
97358W        W69618  25.963  40.520  11.933
97359W        W69619  36.915  26.472  12.055
97360W        W69620  26.480  38.422  12.568
97361W        W69621  18.267  18.093   2.886
97362W        W69622  10.260  15.764  11.061
97363W        W69623  13.793  42.949  14.911
97364W        W69624  20.116  39.377  11.084
97365W        W69625   9.275  40.973   2.718
97366W        W69626  18.076  44.813  12.035
97367W        W69627  29.465   3.358  11.378
97368W        W69628  37.341  42.962  12.912
97369W        W69629   1.250  22.605  14.973
97370W        W69630   3.912  31.412   3.261
97371W        W69631  35.493  28.051   1.239
97372W        W69632  38.519   4.430   3.674
97373W        W69633  17.152  35.951  13.929
97374W        W69634  33.442  25.713  13.966
97375W        W69635  31.087  25.085   4.772
97376W        W69636  44.404   0.315  11.989
97377W        W69637  43.337  34.059  13.968
97378W        W69638  17.688  43.457  11.525
97379W        W69639  12.303  11.725   0.958
97380W        W69640   2.884   7.843  13.407
97381W        W69641  20.077  25.094   4.169
97382W        W69642  22.126  39.912  14.842
97383W        W69643   8.391  25.068   3.367
97384W        W69644  12.831  32.581   2.730
97385W        W69645   6.348   3.954  10.920
97386W        W69646  44.854  36.406  12.893
97387W        W69647  24.645  24.568   2.362
97388W        W69648  20.741  23.586   4.603
97389W        W69649  41.987  14.619  13.944
97390W        W69650  35.375  22.580  11.556
97391W        W69651  33.041  36.425   2.418
97392W        W69652  17.714   8.269  10.995
97393W        W69653  32.000  11.180   4.113
97394W        W69654  23.563   2.902  11.456
97395W        W69655   8.754   6.796   4.673
97396W        W69656   4.945  27.003   3.322
97397W        W69657   7.901  37.067  12.087
97398W        W69658  28.090  39.395   2.698
97399W        W69659  15.286  15.320   3.264
97400W        W69660  13.190  41.500  13.992
97401W        W69661   4.717  38.018  10.509
97402W        W69662  12.233  24.115   2.742
97403W        W69663  30.121  11.628   4.716
97404W        W69664  32.905   9.864   4.180
97405W        W69665   3.302  22.533  10.437
97406W        W69666  10.229  14.252  14.336
97407W        W69667  39.905  40.351   0.409
97408W        W69668  13.678  13.727  13.432
97409W        W69669  30.638  10.228  12.976
97410W        W69670  38.821  34.584   0.291
97411W        W69671   2.341   2.943   1.324
97412W        W69672  14.288  24.498  13.953
97413W        W69673  26.167  17.613   3.212
97414W        W69674  19.764   2.742   1.371
97415W        W69675   6.863  40.970   0.939
97416W        W69676  22.667  22.542  10.014
97417W        W69677  27.030   8.861  10.119
97418W        W69678  13.315  41.483  13.364
97419W        W69679  39.315  11.820   4.803
97420W        W69680   3.859  21.746  13.342
97421W        W69681  21.047  30.025   2.831
97422W        W69682   7.300  24.721   2.330
97423W        W69683  42.928  25.517   4.813
97424W        W69684  37.010   6.900  11.452
97425W        W69685   5.752  44.879   1.898
97426W        W69686  26.699  44.983  14.312
97427W        W69687  27.114  37.472  14.368
97428W        W69688  35.499  29.933  11.973
97429W        W69689  31.122  29.046  10.995
97430W        W69690  19.218  42.367   4.651
97431W        W69691  40.952  12.679   1.878
97432W        W69692  30.637   0.956   0.470
97433W        W69693   8.390  31.625   1.324
97434W        W69694  31.093   9.768   1.734
97435W        W69695  44.499  20.218   2.737
97436W        W69696   0.334  39.033  14.394
97437W        W69697  12.277  27.098  13.900
97438W        W69698  18.722   0.419   0.430
97439W        W69699   9.772  36.495  10.481
97440W        W69700   4.927  31.085   1.305
97441W        W69701   6.709  13.765   1.779
97442W        W69702  38.334  14.297  14.309
97443W        W69703  18.193  32.965  14.333
97444W        W69704   3.833  20.569   3.805
97445W        W69705  16.204  42.441  14.301
97446W        W69706   7.296  11.698   3.702
97447W        W69707  41.980  20.099   4.138
97448W        W69708  44.262  40.455  10.505
97449W        W69709  42.879  18.714  13.369
97450W        W69710  15.196  27.523   3.329
97451W        W69711  38.007   2.781  11.551
97452W        W69712  42.377  18.621   1.837
97453W        W69713  36.445  30.927  14.887
97454W        W69714   2.282  16.702  12.939
97455W        W69715  13.300  21.060   2.389
97456W        W69716  33.616  33.527   0.307
97457W        W69717  16.730  24.650   4.712
97458W        W69718  23.050  28.097  12.929
97459W        W69719   4.940  24.099   0.919
97460W        W69720  16.805  36.913   2.191
97461W        W69721  16.178  26.577   4.276
97462W        W69722  31.993  26.698  12.915
97463W        W69723  25.685  44.277   1.897
97464W        W69724  15.277  11.736   2.819
97465W        W69725  33.571   9.394  11.872
97466W        W69726  21.671  23.570  14.503
97467W        W69727   3.246  34.059  14.280
97468W        W69728   3.881   0.392  11.043
97469W        W69729  16.735  30.990   1.243
97470W        W69730  10.873  23.613   1.861
97471W        W69731  20.109   0.474   1.323
97472W        W69732  31.900   0.401   4.193
97473W        W69733  39.889  13.846   0.908
97474W        W69734  15.591  24.705   0.272
97475W        W69735  31.937  25.094  14.301
97476W        W69736  12.695  41.914  11.935
97477W        W69737  38.329   5.195  11.005
97478W        W69738  29.022  39.354  12.508
97479W        W69739  32.525  43.391  11.862
97480W        W69740  42.857  15.661  12.415
97481W        W69741  22.582  36.883   4.229
97482W        W69742  29.053  39.037   2.323
97483W        W69743   5.312  14.306   0.940
97484W        W69744  37.966   4.913   2.407
97485W        W69745  10.673  12.623  12.846
97486W        W69746   3.738   6.381  10.562
97487W        W69747  40.391  12.317  13.822
97488W        W69748  18.774  32.130   4.201
97489W        W69749  24.673  24.985  12.364
97490W        W69750  23.167  30.539   1.799
97491W        W69751   1.827  19.627   4.233
97492W        W69752  10.686  40.968  11.906
97493W        W69753   0.256   4.760   3.252
97494W        W69754  40.451  34.443   3.217
97495W        W69755  17.195  21.566   2.686
97496W        W69756  11.790   3.352   3.792
97497W        W69757  29.575  24.627  14.398
97498W        W69758   1.803  31.148   2.409
97499W        W69759  21.175   3.906   4.647
97500W        W69760  36.877   5.211   3.709
97501W        W69761  34.871  11.715   0.266
97502W        W69762  30.491   3.855   4.207
97503W        W69763  24.602  21.185   3.753
97504W        W69764   6.326  16.148   2.211
97505W        W69765  20.116   4.831  13.890
97506W        W69766  42.507  13.256  14.388
97507W        W69767  17.202  38.398  11.884
97508W        W69768  37.503  16.707   9.971
97509W        W69769   5.863  13.309   3.205
97510W        W69770  25.684   6.344   1.347
97511W        W69771  28.929  24.590   0.369
97512W        W69772  27.488   8.348   1.722
97513W        W69773  18.208  33.425  13.473
97514W        W69774  19.141  38.864  11.991
97515W        W69775  33.096  37.362   1.401
97516W        W69776  37.961  16.254  14.387
97517W        W69777   3.358  36.549  11.972
97518W        W69778   3.858  20.232  12.829
97519W        W69779   2.315  39.444  10.470
97520W        W69780  32.603  17.666   4.345
97521W        W69781  24.091  40.493  11.050
97522W        W69782  29.065  14.807  14.787
97523W        W69783  30.094   3.952   1.316
97524W        W69784  36.546  40.833  13.059
97525W        W69785   5.416  19.222  11.025
97526W        W69786  28.157  40.394  14.475
97527W        W69787  25.120  15.303  13.970
97528W        W69788   0.298  37.916   0.852
97529W        W69789  16.124   4.888  11.438
97530W        W69790  12.843   6.747   4.219
97531W        W69791  31.909  32.546   1.761
97532W        W69792  13.255   9.387   2.345
97533W        W69793   0.418   0.294   2.800
97534W        W69794  14.196  10.706  13.325
97535W        W69795   3.719  33.610   2.721
97536W        W69796   5.395  12.668   4.781
97537W        W69797   7.710   8.856   2.235
97538W        W69798  25.962  41.371   1.759
97539W        W69799  34.391  35.109  12.980
97540W        W69800  19.603  23.030   1.920
97541W        W69801   4.427  32.991  10.998
97542W        W69802  18.584   6.727   1.896
97543W        W69803  35.375  14.757   4.769
97544W        W69804  36.586  29.583  13.436
97545W        W69805   2.410  26.703   4.312
97546W        W69806  13.260  31.997  10.490
97547W        W69807   3.739   5.840  10.156
97548W        W69808  36.914  27.625  12.544
97549W        W69809  33.574   6.231   5.131
97550W        W69810  28.046  25.216   0.871
97551W        W69811  44.839   3.855  11.585
97552W        W69812  36.413  12.651  12.486
97553W        W69813  11.719  29.169   5.610
97554W        W69814  11.218  22.599   4.830
97555W        W69815  10.269  29.975  11.040
97556W        W69816  42.989  31.511   1.843
97557W        W69817  12.855  19.140  14.809
97558W        W69818  43.866   6.265   0.786
97559W        W69819  17.758  22.170   0.885
97560W        W69820  33.058   8.361  10.583
97561W        W69821  27.016  23.599  14.869
97562W        W69822   8.890   1.774  11.873
97563W        W69823  15.133  16.750  13.982
97564W        W69824  11.727  28.032  11.507
97565W        W69825  34.115   2.735  14.373
97566W        W69826  43.326  36.570  11.476
97567W        W69827  27.171  26.177  12.006
97568W        W69828   0.278  20.248  14.794
97569W        W69829   6.820  29.514  11.965
97570W        W69830  15.186  24.174   4.630
97571W        W69831  30.435  24.117   5.173
97572W        W69832  42.969  30.148   4.159
97573W        W69833  37.481   5.690  13.018
97574W        W69834  13.708  12.805  11.988
97575W        W69835  32.487  30.010   2.737
97576W        W69836  26.537  19.271  12.866
97577W        W69837  14.200  40.888  10.561
97578W        W69838  11.217  38.458  12.473
97579W        W69839   9.175  42.472   0.892
97580W        W69840  39.461  33.426  10.131
97581W        W69841  37.425  16.220  13.486
97582W        W69842  21.677  15.615  10.442
97583W        W69843  32.051  23.095  10.632
97584W        W69844  19.603  38.555  10.538
97585W        W69845  21.216  26.028   2.664
97586W        W69846  24.532   0.831   0.463
97587W        W69847   6.188  30.144  14.874
97588W        W69848  31.631  21.600   4.683
97589W        W69849   3.816  35.968   3.339
97590W        W69850  17.071  37.988   4.309
97591W        W69851  37.394   5.268  14.980
97592W        W69852  31.999   1.416   4.822
97593W        W69853   8.235   8.319   3.229
97594W        W69854   0.328  23.195  12.015
97595W        W69855   6.769  27.592  10.442
97596W        W69856  16.180  30.964   4.668
97597W        W69857  28.466  10.320   4.274
97598W        W69858   0.892   0.819   0.319
97599W        W69859  11.649  35.402   3.860
97600W        W69860   5.872  30.125  13.897
97601W        W69861  15.811  11.200   0.370
97602W        W69862  20.531  23.677   4.308
97603W        W69863   9.817  11.654  12.492
97604W        W69864  28.556  39.997  13.432
97605W        W69865  25.524  12.236   0.938
97606W        W69866  34.474   4.425  12.925
97607W        W69867  42.480  30.951  11.931
97608W        W69868  35.103  21.121   0.832
97609W        W69869  10.224   6.417  14.456
97610W        W69870  43.940  19.039  13.435
97611W        W69871  15.103  18.600   4.151
97612W        W69872  16.081  21.231   2.829
97613W        W69873   5.703  19.116   1.751
97614W        W69874  37.850  36.954   3.211
97615W        W69875  15.089  36.362  13.465
97616W        W69876   4.390  27.146  12.443
97617W        W69877   6.205  42.821  11.984
97618W        W69878   3.390  42.314   3.701
97619W        W69879  28.050   5.785   4.202
97620W        W69880  11.354  42.295  13.438
97621W        W69881  32.630   7.668  12.438
97622W        W69882  34.454  38.509  11.612
97623W        W69883  41.798  44.938  14.399
97624W        W69884  18.108  20.732   4.796
97625W        W69885  20.604   5.238   3.640
97626W        W69886  43.963  17.672   2.242
97627W        W69887  18.788  24.550   1.767
97628W        W69888  32.568  39.419  10.422
97629W        W69889  37.975   3.242   1.749
97630W        W69890  44.755   6.811  11.915
97631W        W69891  36.353  22.640   2.247
97632W        W69892  35.895   5.422   2.264
97633W        W69893  17.296  20.558  12.560
97634W        W69894  41.854  28.088  10.101
97635W        W69895  10.858  15.178   1.795
97636W        W69896   7.906   1.474   3.285
97637W        W69897  19.138  30.600   1.736
97638W        W69898  18.662  17.150  11.897
97639W        W69899  21.240  16.129  10.514
97640W        W69900  22.167  37.916   4.745
97641W        W69901  34.912  21.220   4.626
97642W        W69902  19.220  20.029   2.830
97643W        W69903  30.136  42.313  12.035
97644W        W69904  35.369  43.514  11.445
97645W        W69905  20.139   3.815   3.741
97646W        W69906  35.546  43.368  10.888
97647W        W69907  40.962  28.127   4.752
97648W        W69908  15.680   8.851   5.234
97649W        W69909  13.777   9.341   2.860
97650W        W69910  32.610   6.270   1.817
97651W        W69911   8.801  42.908  12.993
97652W        W69912  32.527  33.890  12.901
97653W        W69913  22.042  22.007   3.257
97654W        W69914  22.108  23.618   3.362
97655W        W69915  24.635  19.744  12.454
97656W        W69916   8.371  38.961   2.182
97657W        W69917  34.864   2.757  11.940
97658W        W69918  31.461  21.642   3.801
97659W        W69919  14.594  39.948  10.634
97660W        W69920   8.717   1.312  13.985
97661W        W69921  10.810  44.886   1.229
97662W        W69922  31.601  44.285   3.312
97663W        W69923   4.817  26.035  12.453
97664W        W69924  31.946  25.066   4.151
97665W        W69925  20.086   4.260   0.274
97666W        W69926  21.232  27.186  10.085
97667W        W69927  29.140   4.360   4.695
97668W        W69928  28.004  18.625   0.425
97669W        W69929  39.030  15.108  11.001
97670W        W69930  31.015  41.510  10.476
97671W        W69931  13.162  41.877  11.599
97672W        W69932   9.351  32.487  14.343
97673W        W69933  44.841  32.943   1.215
97674W        W69934  43.362  39.560  13.829
97675W        W69935  23.213  33.557  13.514
97676W        W69936  13.318  23.706  13.414
97677W        W69937  34.921  31.033   3.779
97678W        W69938  36.548  32.071  10.974
97679W        W69939  42.975  15.635   2.812
97680W        W69940  38.359  19.648   4.144
97681W        W69941  35.055  23.055  13.957
97682W        W69942  43.794  19.106   2.797
97683W        W69943  38.439   7.352   0.352
97684W        W69944  13.644   9.343   0.324
97685W        W69945  26.651  37.513   2.850
97686W        W69946  36.058  39.903   4.769
97687W        W69947  22.536  42.818   3.200
97688W        W69948  39.975  34.038  12.354
97689W        W69949  43.782  42.334  11.402
97690W        W69950  24.012  18.740  14.030
97691W        W69951  11.306  39.848   4.768
97692W        W69952   6.236  33.955   0.841
97693W        W69953   7.765  18.777   0.286
97694W        W69954  35.908  21.105   0.364
97695W        W69955  23.533  14.300   0.805
97696W        W69956  26.203  15.675   3.370
97697W        W69957  25.995  37.389  13.840
97698W        W69958   6.244  29.452  12.004
97699W        W69959  36.593   0.464  12.559
97700W        W69960  19.620  16.793  13.454
97701W        W69961  33.589  42.458   3.787
97702W        W69962  10.156  27.055  11.418
97703W        W69963  17.775  36.012  14.776
97704W        W69964  35.552  17.250  10.525
97705W        W69965  25.596  12.673   0.323
97706W        W69966  37.918  22.250   1.355
97707W        W69967  42.894   7.307   3.695
97708W        W69968  11.168   2.766   1.413
97709W        W69969  40.920  22.073   2.852
97710W        W69970  11.248  35.979   2.327
97711W        W69971  32.416   9.650  14.342
97712W        W69972  38.439  10.833   1.429
97713W        W69973  17.597  34.056   3.307
97714W        W69974  44.319  15.761  14.022
97715W        W69975   0.461  20.721  14.413
97716W        W69976  35.400  39.472   2.314
97717W        W69977  23.506  40.477  13.392
97718W        W69978  20.091  16.709  11.986
97719W        W69979   8.895  40.948   4.676
97720W        W69980  23.002  39.888   1.884
97721W        W69981  26.084   3.373   3.714
97722W        W69982   2.919  32.636  12.936
97723W        W69983  30.624  26.573   1.291
97724W        W69984   4.863  30.081  13.022
97725W        W69985  41.839   5.265  14.470
97726W        W69986   6.711   2.409   3.842
97727W        W69987   0.462  10.859  10.461
97728W        W69988  43.486  34.604   1.892
97729W        W69989  33.531  40.995  10.975
97730W        W69990  28.509  27.536   3.164
97731W        W69991  20.676  36.533   4.600
97732W        W69992  25.503  41.909  14.492
97733W        W69993  24.530  18.054   3.859
97734W        W69994   3.740   3.899  11.412
97735W        W69995  13.328   1.424  14.300
97736W        W69996  22.206  17.584  14.894
97737W        W69997  26.519  39.983  13.348
97738W        W69998  22.087  40.014   4.825
97739W        W69999  43.948  35.468   2.756
97740W        W70000  36.908  38.374  14.387
97741W        W70001  20.197  36.980   0.875
97742W        W70002  35.018   1.288   0.748
97743W        W70003  33.904  31.903   2.373
97744W        W70004   6.384  40.304   0.422
97745W        W70005   1.856  32.968   1.258
97746W        W70006   0.850   4.447   0.919
97747W        W70007  41.364  43.413  11.026
97748W        W70008  24.178  16.766   2.735
97749W        W70009  11.649   7.243  11.393
97750W        W70010  17.299  29.445  13.534
97751W        W70011  27.459  14.325  11.019
97752W        W70012  20.230  24.977  11.876
97753W        W70013  37.921  31.556  13.429
97754W        W70014  36.028  29.059   1.379
97755W        W70015  16.175  34.454   1.349
97756W        W70016  14.590  28.135  10.429
97757W        W70017  29.976  41.799   0.341
97758W        W70018  31.141  43.967   0.425
97759W        W70019  20.152  44.973   0.439
97760W        W70020   9.161  23.546  14.784
97761W        W70021  41.041   7.707   3.729
97762W        W70022   1.881  12.244   1.890
97763W        W70023  41.014  44.844   0.328
97764W        W70024  28.443   5.831   1.436
97765W        W70025  44.936  33.103   0.369
97766W        W70026  35.505  20.204   4.319
97767W        W70027   8.802  22.016  11.086
97768W        W70028  16.746   0.750  11.954
97769W        W70029  43.002  24.019  10.945
97770W        W70030  39.440  27.596   3.849
97771W        W70031  43.963  10.218   0.742
97772W        W70032   0.318  31.082   2.863
97773W        W70033   2.911  13.709   2.328
97774W        W70034  16.178  30.650   3.361
97775W        W70035   9.169  39.382  14.911
97776W        W70036   2.786   5.195  13.414
97777W        W70037  17.209  36.419   2.732
97778W        W70038  40.856  10.799   2.677
97779W        W70039  32.075  33.896   0.726
97780W        W70040   8.875  38.044  10.619
97781W        W70041  23.538  27.090  12.440
97782W        W70042  20.159  17.077   0.868
97783W        W70043  25.511  17.663  11.878
97784W        W70044   3.357  32.514   2.818
97785W        W70045  11.238  34.424   3.358
97786W        W70046   0.331  39.017  10.420
97787W        W70047  15.085  44.807  11.899
97788W        W70048   6.746  13.264  14.831
97789W        W70049  26.655  22.129   3.807
97790W        W70050  26.629   6.281  11.506
97791W        W70051   5.336  14.779   3.787
97792W        W70052  36.511  33.935   1.395
97793W        W70053  44.407  14.293  12.541
97794W        W70054  44.989  10.297  13.007
97795W        W70055  31.508   8.879   3.814
97796W        W70056  33.969  11.352  10.517
97797W        W70057  16.770   8.709   1.890
97798W        W70058   3.908   3.812  12.084
97799W        W70059   1.269  42.779  11.083
97800W        W70060  21.223  13.280   3.680
97801W        W70061  30.977  35.505   2.700
97802W        W70062  35.089   8.894  11.956
97803W        W70063   6.694  22.165   2.346
97804W        W70064  36.966   5.790  12.005
97805W        W70065  40.336   1.246   0.810
97806W        W70066  35.449  18.739   2.274
97807W        W70067   2.348  26.498   0.771
97808W        W70068  13.265  26.612   4.785
97809W        W70069  27.561  44.378   3.661
97810W        W70070  18.754  36.862   4.817
97811W        W70071  43.469  18.183   2.375
97812W        W70072  21.608  40.371   4.274
97813W        W70073  44.893  21.018  10.640
97814W        W70074  33.609   4.927  13.034
97815W        W70075  35.912  14.659  11.489
97816W        W70076  27.601  18.202  11.093
97817W        W70077  44.938   3.755  11.919
97818W        W70078  24.011  43.869  13.411
97819W        W70079  25.096   0.815   5.263
97820W        W70080  37.006  10.339  12.061
97821W        W70081  26.474  41.518  12.542
97822W        W70082   4.295  16.300  13.495
97823W        W70083  35.104  22.246   2.368
97824W        W70084  25.091  14.317  13.493
97825W        W70085  34.526   6.201  13.323
97826W        W70086  20.681  21.616   2.273
97827W        W70087   1.916  19.622   3.681
97828W        W70088  33.613  34.577  10.040
97829W        W70089  37.346  43.825  12.082
97830W        W70090  18.661  41.854   2.313
97831W        W70091  17.159  39.875   1.216
97832W        W70092  43.381  43.469   1.232
97833W        W70093   5.917  13.621   4.663
97834W        W70094   0.832  29.949  13.388
97835W        W70095  28.544  28.129   3.272
97836W        W70096  22.597  42.281  12.562
97837W        W70097  23.059  11.661   1.710
97838W        W70098  19.603  42.954   3.824
97839W        W70099  25.676  32.540  10.917
97840W        W70100  23.109  36.915  13.045
97841W        W70101  36.075  28.489  11.872
97842W        W70102   5.363  33.994   3.174
97843W        W70103  44.304   8.774   0.263
97844W        W70104  22.169  27.475   1.404
97845W        W70105  21.054  38.046  13.958
97846W        W70106  11.665  40.853   0.807
97847W        W70107  23.239  27.543  14.936
97848W        W70108   9.365   4.839  11.883
97849W        W70109  13.272  16.141   3.660
97850W        W70110   1.871  23.733   2.273
97851W        W70111  41.353  14.272   4.649
97852W        W70112  24.702  16.759  14.328
97853W        W70113  14.218  24.661  12.916
97854W        W70114  24.101  38.515  10.936
97855W        W70115  26.164  27.183   4.607
97856W        W70116  11.201   0.956   3.149
97857W        W70117  41.034  33.515   0.796
97858W        W70118  25.507   0.971   1.262
97859W        W70119  20.724  28.501   2.330
97860W        W70120  42.968  19.261   3.328
97861W        W70121  13.708   5.858   3.853
97862W        W70122  19.698  21.073  13.519
97863W        W70123   1.861  21.598  10.497
97864W        W70124  30.427   7.349   1.389
97865W        W70125  41.858   3.850  10.449
97866W        W70126  28.945  27.059   4.225
97867W        W70127   4.786  22.678  13.318
97868W        W70128  44.788  24.580  10.469
97869W        W70129  27.014  38.837  10.085
97870W        W70130  38.536   4.252  11.476
97871W        W70131  44.905   7.674   4.206
97872W        W70132  29.038   3.803   3.335
97873W        W70133   7.828  43.786  13.882
97874W        W70134  35.062   6.679   4.137
97875W        W70135   4.902  10.187  11.555
97876W        W70136   0.285  41.300  12.049
97877W        W70137  36.905   6.814   4.616
97878W        W70138  13.600  37.515   2.230
97879W        W70139   9.297  41.412  11.543
97880W        W70140   3.832  37.573  11.599
97881W        W70141   8.754  35.080   0.913
97882W        W70142  27.609  23.657   1.817
97883W        W70143  13.165  44.760  12.885
97884W        W70144  31.111  23.623   2.325
97885W        W70145  30.955   5.867  13.470
97886W        W70146  41.415  24.531   0.828
97887W        W70147  21.617   5.342   4.147
97888W        W70148  22.575  42.790   3.685
97889W        W70149  18.098  23.573  12.090
97890W        W70150   8.322  43.975  14.840
97891W        W70151  22.653  32.601  12.008
97892W        W70152  10.138  21.696  12.453
97893W        W70153  43.904  26.677   1.309
97894W        W70154  44.341  35.369   4.703
97895W        W70155  25.142  43.493  13.993
97896W        W70156   3.426  12.631   4.286
97897W        W70157  42.951   5.924   4.746
97898W        W70158  18.093  21.737   2.348
97899W        W70159  26.113   5.436   0.790
97900W        W70160  26.653  38.010   2.210
97901W        W70161  11.276   9.269  13.447
97902W        W70162  15.298  32.558  10.525
97903W        W70163   6.810  32.018   1.307
97904W        W70164   9.710  28.021   1.324
97905W        W70165  43.484  28.677   4.649
97906W        W70166  16.727  18.293   1.394
97907W        W70167  38.838  40.468   0.946
97908W        W70168  27.109  18.776   3.821
97909W        W70169   0.320  23.210  11.595
97910W        W70170  24.080  13.281   4.145
97911W        W70171  27.677  13.795   3.805
97912W        W70172  14.172  17.717   2.728
97913W        W70173   3.276   9.235  11.022
97914W        W70174  14.649  39.515  10.985
97915W        W70175  11.319   8.281   3.299
97916W        W70176   3.848  14.681   2.339
97917W        W70177  17.566  30.061  13.911
97918W        W70178  34.432  43.348  14.292
97919W        W70179  39.342  41.507  10.512
97920W        W70180  10.679  24.101   3.779
97921W        W70181  13.756  15.130   4.196
97922W        W70182  20.109   1.804  14.285
97923W        W70183  11.796  20.082   0.963
97924W        W70184  21.256  12.844   1.264
97925W        W70185  12.668  24.110  12.414
97926W        W70186  31.981   8.361  10.421
97927W        W70187  13.759  11.134  14.318
97928W        W70188  34.428  42.851   3.803
97929W        W70189  21.163  36.567  11.948
97930W        W70190  41.368  43.314   2.367
97931W        W70191  28.984  27.042   4.627
97932W        W70192  23.193  24.040  14.912
97933W        W70193   3.889  17.268  13.357
97934W        W70194  26.695  38.514   1.448
97935W        W70195  36.866  11.826   2.874
97936W        W70196  12.323  39.504  13.536
97937W        W70197  35.970   7.180  14.307
97938W        W70198  42.289  35.405   4.319
97939W        W70199  37.410  26.001  13.829
97940W        W70200  22.118  16.170   3.184
97941W        W70201  26.659  33.463  10.984
97942W        W70202  36.384  15.679  10.412
97943W        W70203   1.326   0.767  13.316
97944W        W70204  37.471  18.758   3.153
97945W        W70205  13.155  25.181   4.172
97946W        W70206  42.455  16.281  14.335
97947W        W70207  19.050  15.618   0.911
97948W        W70208  26.989  27.111  11.513
97949W        W70209  37.846  20.572  10.478
97950W        W70210   8.731   4.383   4.664
97951W        W70211  44.762  19.609  14.870
97952W        W70212  10.336  12.234  11.491
97953W        W70213  38.068  13.209  12.947
97954W        W70214  39.541  41.362   2.889
97955W        W70215   5.285  24.169   0.951
97956W        W70216  22.216  31.988   3.847
97957W        W70217  31.473   3.267  12.954
97958W        W70218  36.546   5.689   1.339
97959W        W70219  42.429   5.315  13.445
97960W        W70220  19.200  20.028  11.973
97961W        W70221   0.898  23.008   2.375
97962W        W70222  43.476   6.348   4.822
97963W        W70223   0.879  13.114   1.245
97964W        W70224   0.251  39.923  11.075
97965W        W70225   7.760  37.912   4.742
97966W        W70226  32.505  40.527  11.885
97967W        W70227  18.641  29.986   1.389
97968W        W70228  10.159  16.154   4.210
97969W        W70229  30.080  29.579   4.337
97970W        W70230   7.703  22.702   3.342
97971W        W70231  14.680  17.281   1.334
97972W        W70232  27.100   7.268  13.321
97973W        W70233  10.790  21.705   0.776
97974W        W70234  16.252  23.631   0.329
97975W        W70235  11.364   2.798  14.006
97976W        W70236  42.516  41.815   4.159
97977W        W70237  37.977   3.721  12.910
97978W        W70238  27.136  38.468   0.308
97979W        W70239  33.893  15.137  10.916
97980W        W70240   8.301   3.437   2.310
97981W        W70241  43.324  23.633   3.197
97982W        W70242   0.817  29.546  14.918
97983W        W70243   8.867   9.393   3.743
97984W        W70244  36.920  25.054   0.360
97985W        W70245   3.229  26.631  12.000
97986W        W70246  16.282  25.108  13.357
97987W        W70247  10.848  27.677  13.464
97988W        W70248  17.218   5.919   0.821
97989W        W70249  12.664  32.424   0.928
97990W        W70250   8.351   9.386   4.782
97991W        W70251   6.791  35.406   2.367
97992W        W70252  24.229   9.352   4.650
97993W        W70253  34.994  22.595   2.765
97994W        W70254  23.227   2.885   1.833
97995W        W70255  26.024  42.494  14.355
97996W        W70256  27.456  15.627   0.895
97997W        W70257  20.658  30.118  11.596
97998W        W70258  20.686  26.013  11.900
97999W        W70259  33.045  44.471   2.316
98000W        W70260  37.529   2.939  12.559
98001W        W70261  18.112  23.992  12.014
98002W        W70262  11.864  15.251   0.935
98003W        W70263  37.420  20.599   2.752
98004W        W70264  30.014  38.944   1.438
98005W        W70265  18.689   5.231   0.778
98006W        W70266   5.816  29.001  10.423
98007W        W70267  14.172   1.278  13.839
98008W        W70268  31.634   5.725   0.903
98009W        W70269  32.887  34.585   4.137
98010W        W70270  38.374  35.900  11.858
98011W        W70271  42.858  23.178   2.882
98012W        W70272  25.611  43.317   3.717
98013W        W70273  34.004  30.008   0.410
98014W        W70274  12.252   3.903  10.976
98015W        W70275  36.415  37.054  12.844
98016W        W70276  39.013  18.291   1.796
98017W        W70277  19.201  36.439  12.051
98018W        W70278  31.077  35.954  13.819
98019W        W70279  42.915  11.840  12.345
98020W        W70280  11.351   4.352  11.024
98021W        W70281   4.781  26.148   4.330
98022W        W70282  17.699   7.784   3.187
98023W        W70283  13.120  12.358   4.250
98024W        W70284  12.655  33.928   3.783
98025W        W70285   4.846  43.481  10.926
98026W        W70286   8.242  39.988  10.895
98027W        W70287   0.784  10.204  13.502
98028W        W70288  20.261  28.111  13.017
98029W        W70289  13.159  15.288   0.908
98030W        W70290  29.973   6.857   3.195
98031W        W70291  20.209  43.330   2.753
98032W        W70292  18.741  37.469   5.255
98033W        W70293  21.564   3.935  13.528
98034W        W70294  33.615  40.419  14.834
98035W        W70295  13.779  19.538  14.024
98036W        W70296  41.336  33.908  13.979
98037W        W70297   2.756  38.419  14.998
98038W        W70298  21.095  33.434  10.544
98039W        W70299   9.841  29.447   2.751
98040W        W70300  18.114  15.614   1.791
98041W        W70301  34.387   0.253  12.342
98042W        W70302   2.901  25.071  11.901
98043W        W70303   2.374  39.551   0.431
98044W        W70304  10.243   9.769   1.436
98045W        W70305  33.092  40.899   3.158
98046W        W70306  32.450  29.011   1.860
98047W        W70307  28.072  27.689   2.206
98048W        W70308  22.522  33.075  10.595
98049W        W70309   5.703  34.907   2.788
98050W        W70310  36.393  11.734   5.308
98051W        W70311  37.070   6.418   2.733
98052W        W70312   6.333  33.552  10.423
98053W        W70313   4.722  23.145  14.950
98054W        W70314  37.924  34.994  10.058
98055W        W70315  34.412  38.399   3.857
98056W        W70316  27.508  15.685   4.248
98057W        W70317   5.775  19.146   0.370
98058W        W70318  35.915  41.815   0.797
98059W        W70319  30.471  11.154   1.294
98060W        W70320   7.233  13.298  11.517
98061W        W70321  41.914  39.961  12.987
98062W        W70322  26.585  22.707  13.334
98063W        W70323  13.630   3.808  10.524
98064W        W70324  37.434   8.716  11.401
98065W        W70325   0.859  30.584  13.871
98066W        W70326  23.496   9.307   2.827
98067W        W70327  41.906  23.639  10.464
98068W        W70328  29.481  44.421   4.723
98069W        W70329  29.527  30.451  11.090
98070W        W70330  22.095  15.095   0.470
98071W        W70331  23.165  28.129  14.515
98072W        W70332  24.162  27.518   2.850
98073W        W70333  41.929  33.905  12.526
98074W        W70334  43.018   8.826  11.057
98075W        W70335   6.327  10.176  10.414
98076W        W70336  17.784  41.858  14.331
98077W        W70337  44.364   7.219   0.403
98078W        W70338  18.105   1.892   2.820
98079W        W70339  34.973   4.318  13.006
98080W        W70340  36.469  37.430   0.473
98081W        W70341   8.402   4.916  13.048
98082W        W70342  35.070  32.953  13.860
98083W        W70343  17.142  17.269   5.260
98084W        W70344  23.509  16.752   1.921
98085W        W70345  17.754   3.222   1.772
98086W        W70346  20.691  38.514   3.856
98087W        W70347  18.549  12.856  14.837
98088W        W70348  23.997   2.825   1.874
98089W        W70349   1.739  39.909   1.861
98090W        W70350  13.604  36.589  11.958
98091W        W70351  33.107   2.326  10.635
98092W        W70352  17.787  30.088   0.965
98093W        W70353   2.266  28.942   4.278
98094W        W70354  22.132  21.733  11.956
98095W        W70355  30.545  20.099  12.546
98096W        W70356  18.778  34.037   2.760
98097W        W70357  18.277  33.388   1.740
98098W        W70358  28.566   4.872  13.446
98099W        W70359   1.970  15.181   1.424
98100W        W70360   5.282   5.263  12.911
98101W        W70361   8.268  22.149   3.227
98102W        W70362   3.388  25.199   9.971
98103W        W70363  34.921  27.157   3.748
98104W        W70364  24.580   3.384   3.331
98105W        W70365  31.110  34.571   3.165
98106W        W70366  38.846   9.875  11.521
98107W        W70367  24.504   5.231   2.729
98108W        W70368  11.761  28.485  12.921
98109W        W70369  12.692   5.857   3.305
98110W        W70370   1.350  26.038   3.373
98111W        W70371  15.746  24.110   3.214
98112W        W70372  44.494   6.921  14.335
98113W        W70373  40.887   7.203  10.410
98114W        W70374  26.684  21.700   1.214
98115W        W70375  27.963  26.207  14.771
98116W        W70376  43.430  35.479   4.705
98117W        W70377  14.202  23.670   3.794
98118W        W70378  26.137  20.720  12.531
98119W        W70379   7.707   0.978   9.931
98120W        W70380   2.780  30.615  13.938
98121W        W70381   1.305   7.231   2.367
98122W        W70382  42.287  21.026  13.446
98123W        W70383  44.494   5.779   3.866
98124W        W70384   4.320  15.727   2.776
98125W        W70385  13.140  35.961   3.728
98126W        W70386   8.658  18.107   3.183
98127W        W70387  26.646  21.514  14.014
98128W        W70388   1.737   3.846  13.341
98129W        W70389  32.490  29.114   2.278
98130W        W70390  33.989  23.644  13.368
98131W        W70391  34.520  19.653   1.319
98132W        W70392  22.998  40.507   4.137
98133W        W70393  27.496  18.636   1.297
98134W        W70394   5.275   9.828  12.915
98135W        W70395  33.888  17.148  14.375
98136W        W70396  40.819   5.243  12.535
98137W        W70397   9.666  32.995  13.327
98138W        W70398   9.710  33.041   3.682
98139W        W70399  38.391  11.285  14.293
98140W        W70400  34.468  23.726  11.899
98141W        W70401  14.588  32.983   0.468
98142W        W70402   2.317  20.144  13.326
98143W        W70403   5.862  10.207   3.825
98144W        W70404  44.502  40.457   0.432
98145W        W70405   2.893  27.152   1.276
98146W        W70406  28.113  43.383  13.048
98147W        W70407  30.988  29.099  14.955
98148W        W70408   1.470   5.344   0.959
98149W        W70409   8.758  10.675   1.784
98150W        W70410  25.495  39.851   0.296
98151W        W70411   1.325   5.398  12.053
98152W        W70412  44.910  40.518   3.785
98153W        W70413  37.854  44.316   3.256
98154W        W70414   2.958  35.990   3.256
98155W        W70415  34.572  18.589  11.997
98156W        W70416  37.581  11.829  12.345
98157W        W70417   7.726  21.057   3.155
98158W        W70418  13.703   4.423   2.702
98159W        W70419  42.923  29.160  10.523
98160W        W70420  33.472  10.788  11.947
98161W        W70421  25.647   2.323  13.448
98162W        W70422  41.995  40.883  12.374
98163W        W70423   9.268  25.203  12.993
98164W        W70424  36.004  42.776   1.313
98165W        W70425  14.832  36.015   4.780
98166W        W70426   8.812  31.550  12.052
98167W        W70427  43.832  15.729   3.184
98168W        W70428  32.484  29.087  14.832
98169W        W70429  21.094   6.917  14.955
98170W        W70430  27.565  20.667  13.315
98171W        W70431   0.335  39.422   2.331
98172W        W70432   9.785   2.452   2.826
98173W        W70433  14.115  15.124  11.570
98174W        W70434  18.649   2.309   0.267
98175W        W70435  24.556   9.299   0.954
98176W        W70436  32.074  30.602  13.879
98177W        W70437  28.529  29.552  12.026
98178W        W70438  29.929  25.062   4.145
98179W        W70439   9.692  34.981  14.809
98180W        W70440  34.528  29.513  12.967
98181W        W70441  20.095  22.163  11.954
98182W        W70442  24.993  33.567  10.913
98183W        W70443   8.193  41.994   3.793
98184W        W70444  24.099   7.702  12.518
98185W        W70445  15.802  38.073  11.879
98186W        W70446  17.789  34.079   0.746
98187W        W70447  25.092   3.808   0.358
98188W        W70448  11.851  36.527   3.246
98189W        W70449  17.230   3.405  13.916
98190W        W70450  29.107  19.767  10.538
98191W        W70451  13.267   7.344  12.455
98192W        W70452  19.687  10.266   2.229
98193W        W70453   8.658  38.550  14.458
98194W        W70454  25.148  11.671  12.864
98195W        W70455  36.957  34.111   1.840
98196W        W70456  37.835  40.852   4.720
98197W        W70457  40.541  19.167  13.515
98198W        W70458  24.141  22.123  12.976
98199W        W70459   3.875  44.981   1.770
98200W        W70460  31.551  33.921  13.446
98201W        W70461  29.649  35.552  12.380
98202W        W70462  29.523  35.868   9.929
98203W        W70463  17.168  24.024  13.872
98204W        W70464  30.011   1.863  10.946
98205W        W70465  19.771   0.957   4.347
98206W        W70466  28.605  33.944  12.947
98207W        W70467  44.284  33.954  12.037
98208W        W70468  20.624  25.547  12.935
98209W        W70469  27.149  42.933  14.356
98210W        W70470   1.279  11.148   3.217
98211W        W70471   4.297   8.354  10.563
98212W        W70472   0.922  33.020   0.461
98213W        W70473  42.518  27.146   2.848
98214W        W70474  41.384  38.970  13.933
98215W        W70475  13.304  24.084  14.414
98216W        W70476  23.648  15.143  13.791
98217W        W70477  20.766  12.258  11.928
98218W        W70478   2.309   5.690   2.777
98219W        W70479  32.887  15.194  14.002
98220W        W70480  17.663   4.230   0.365
98221W        W70481  21.117  37.004   0.425
98222W        W70482  17.567  35.056  10.492
98223W        W70483  11.278  28.102  14.436
98224W        W70484  36.534  36.557   1.275
98225W        W70485  17.687   2.722   2.344
98226W        W70486  32.961  30.491  14.472
98227W        W70487   1.352   4.920  11.895
98228W        W70488  15.771  43.357   2.778
98229W        W70489  18.778  18.146  13.824
98230W        W70490   9.265   7.390   0.794
98231W        W70491  12.631   8.832  12.953
98232W        W70492  39.934  41.998  10.428
98233W        W70493  30.548  16.764   2.252
98234W        W70494  29.611   0.877   4.158
98235W        W70495  31.018  25.008  11.486
98236W        W70496  29.067  11.642   0.389
98237W        W70497  38.361  17.563   1.746
98238W        W70498  11.278  28.579  10.423
98239W        W70499  37.085  40.990  14.483
98240W        W70500   9.163  17.182  14.481
98241W        W70501  10.365  25.538   1.859
98242W        W70502  20.644   8.816   2.708
98243W        W70503  15.213   6.251  13.939
98244W        W70504  41.464  38.350  11.049
98245W        W70505  40.418  31.988   0.433
98246W        W70506  35.415  24.020   3.279
98247W        W70507  22.515  37.500   5.257
98248W        W70508  14.197   3.791   4.186
98249W        W70509  32.008   9.208   4.673
98250W        W70510   6.728  44.811   2.218
98251W        W70511  16.085  31.143  12.452
98252W        W70512  30.456  35.456  14.930
98253W        W70513  10.366  27.582  13.421
98254W        W70514   0.819  13.108   0.426
98255W        W70515  15.577  44.295   1.331
98256W        W70516  11.303  37.358   4.176
98257W        W70517  37.533  22.028   3.672
98258W        W70518  13.802  20.068   3.165
98259W        W70519  14.822  40.462  13.334
98260W        W70520  24.512  17.736  11.009
98261W        W70521  25.990   6.902  10.503
98262W        W70522   4.361  21.078   2.299
98263W        W70523  35.363  29.145   4.709
98264W        W70524  14.197   5.698  12.096
98265W        W70525  26.522  14.134  13.987
98266W        W70526  40.019  33.080   0.355
98267W        W70527  25.689   1.732   0.824
98268W        W70528  12.803  21.223  10.639
98269W        W70529  32.131  26.482   5.185
98270W        W70530   0.893   3.782   1.336
98271W        W70531   3.339  37.889   1.800
98272W        W70532  40.020  19.574   3.851
98273W        W70533  43.911   8.833  11.398
98274W        W70534  13.170  16.147   0.262
98275W        W70535   7.850   9.327   2.791
98276W        W70536  28.056  17.078   0.465
98277W        W70537  39.432   2.833  13.462
98278W        W70538  41.014  27.626  13.392
98279W        W70539  27.169  31.999  11.108
98280W        W70540   8.340  28.995  12.408
98281W        W70541  21.646   4.932  13.369
98282W        W70542  36.842  20.687  13.819
98283W        W70543   8.393   6.359  11.435
98284W        W70544   6.788   4.302   2.896
98285W        W70545  25.140  27.021  14.773
98286W        W70546  16.270  15.775   1.702
98287W        W70547  14.137  41.866  13.000
98288W        W70548  39.850  22.733   0.883
98289W        W70549  43.425  44.366  11.372
98290W        W70550  33.397   9.162   2.897
98291W        W70551  44.494   1.438  10.587
98292W        W70552  28.146  21.558  11.913
98293W        W70553   3.740   8.667   4.783
98294W        W70554  10.778  30.567   5.088
98295W        W70555  29.116  10.347  13.058
98296W        W70556  13.255   3.334   0.831
98297W        W70557  17.597  36.373   0.726
98298W        W70558  34.521  37.576  10.954
98299W        W70559  29.119   0.935   2.743
98300W        W70560  22.123   6.738   3.156
98301W        W70561   4.930  21.264  11.909
98302W        W70562  10.775  14.772   4.133
98303W        W70563  40.912  41.967  10.459
98304W        W70564   7.252  27.066   3.675
98305W        W70565  11.726   3.921   0.932
98306W        W70566   8.774  33.912   0.832
98307W        W70567  28.656   2.868   1.916
98308W        W70568  35.430  27.068  11.470
98309W        W70569   3.329  27.051   3.369
98310W        W70570  39.844  16.228   2.818
98311W        W70571  44.432   8.758  10.541
98312W        W70572  44.932   7.227   0.365
98313W        W70573  14.611  21.208   5.116
98314W        W70574  35.528  11.733  10.988
98315W        W70575  13.326   7.788  11.574
98316W        W70576   6.188  37.852   0.903
98317W        W70577  39.982  32.016  10.037
98318W        W70578  44.980  19.747   4.656
98319W        W70579  37.363  19.590   3.263
98320W        W70580   8.757  37.505  10.897
98321W        W70581   6.325  32.410   3.801
98322W        W70582  17.202  43.290  11.996
98323W        W70583  23.182  44.949   0.762
98324W        W70584  20.099  38.897   1.224
98325W        W70585   0.482  32.532  11.863
98326W        W70586   6.803  38.370   2.328
98327W        W70587   5.233  39.459   0.787
98328W        W70588  15.645  18.129   4.181
98329W        W70589  37.038  34.537   1.340
98330W        W70590  14.770  43.294   4.305
98331W        W70591  36.401   0.466   4.721
98332W        W70592  32.494  12.792  11.497
98333W        W70593  22.014  19.195   1.897
98334W        W70594  15.719   7.263  14.447
98335W        W70595  25.633   5.365   0.252
98336W        W70596  20.547   2.348  13.060
98337W        W70597  19.089   4.818   4.723
98338W        W70598  21.513   3.442  13.888
98339W        W70599  43.425   0.295  11.540
98340W        W70600  20.743  28.450   0.857
98341W        W70601  23.021   1.340   4.321
98342W        W70602  40.835   0.771   2.831
98343W        W70603  18.131  29.062  12.543
98344W        W70604  10.233  38.986  11.394
98345W        W70605  24.682  30.544  11.982
98346W        W70606  16.718  31.492   2.271
98347W        W70607  39.556  25.568  12.395
98348W        W70608  41.514   8.369  12.835
98349W        W70609  16.672   2.307   3.710
98350W        W70610  21.567  11.831  10.898
98351W        W70611   4.840   3.893   0.927
98352W        W70612   6.701  19.768  14.828
98353W        W70613  20.685  32.976  10.442
98354W        W70614   1.410  25.539  10.571
98355W        W70615  10.331  13.798   4.197
98356W        W70616  23.731  11.701   0.729
98357W        W70617  10.863   7.838   0.871
98358W        W70618  12.636  23.572   0.289
98359W        W70619   3.363   6.415   2.858
98360W        W70620   2.912  17.115   1.297
98361W        W70621  23.023  41.299  12.913
98362W        W70622  43.347  12.709  14.352
98363W        W70623   3.822   1.322   1.775
98364W        W70624  26.033  41.297   2.373
98365W        W70625  40.308  43.292   4.329
98366W        W70626  13.717   4.229   3.704
98367W        W70627  21.170  33.612   5.245
98368W        W70628   5.772  29.059   3.257
98369W        W70629  35.046   9.203  14.361
98370W        W70630  44.460  27.165  11.446
98371W        W70631  42.337  18.714   2.834
98372W        W70632  26.588   1.937  13.927
98373W        W70633  44.845  35.925   3.635
98374W        W70634  11.761  16.191   2.252
98375W        W70635  15.137  34.491   2.325
98376W        W70636  25.617  15.109   2.255
98377W        W70637  18.629  36.906   2.726
98378W        W70638   2.956  16.125   2.180
98379W        W70639  32.442  32.463   3.698
98380W        W70640  26.609  41.821  11.944
98381W        W70641   0.868  24.167   4.353
98382W        W70642   0.859  37.469   0.784
98383W        W70643  32.994  13.735   1.334
98384W        W70644  38.009  19.732   1.273
98385W        W70645  21.065  37.442  14.023
98386W        W70646   5.403   3.274  10.456
98387W        W70647  16.622  16.667  12.890
98388W        W70648  32.090  35.398   2.750
98389W        W70649  14.628  31.500   4.246
98390W        W70650   0.320  14.792   1.419
98391W        W70651  16.694  44.400   2.803
98392W        W70652  15.258  26.002  14.312
98393W        W70653  36.559  23.151  12.911
98394W        W70654  31.917  13.302  11.925
98395W        W70655  34.060  30.641  12.567
98396W        W70656  19.063  29.461   1.883
98397W        W70657  40.476  36.089   5.266
98398W        W70658   3.432  42.814   0.768
98399W        W70659   6.260  40.033   4.691
98400W        W70660  24.077  44.868   4.646
98401W        W70661   0.302  42.004  14.482
98402W        W70662  35.507   6.824   3.304
98403W        W70663   3.360  17.633   2.260
98404W        W70664  11.255  29.506   2.313
98405W        W70665  41.441  19.121  11.102
98406W        W70666   7.352  31.918   2.665
98407W        W70667  36.575   0.292   4.272
98408W        W70668  34.935  13.133  14.963
98409W        W70669  10.360  36.352  13.832
98410W        W70670  21.606  30.159  13.470
98411W        W70671  43.414  35.930   4.832
98412W        W70672  37.058  14.116  11.402
98413W        W70673  14.751   6.333   4.838
98414W        W70674  15.755  21.239   4.718
98415W        W70675  22.059  20.110   0.415
98416W        W70676   0.936  24.077  13.468
98417W        W70677  25.685  29.078   3.193
98418W        W70678  16.692  37.001  14.322
98419W        W70679  13.637  34.889   0.866
98420W        W70680  16.178  24.191   1.312
98421W        W70681  29.436  14.736  14.978
98422W        W70682  24.193  39.404   1.866
98423W        W70683  34.570  21.682  10.532
98424W        W70684  34.589  17.749   3.797
98425W        W70685  44.984  34.375   3.215
98426W        W70686  25.708  18.628  10.474
98427W        W70687  18.062  29.987   0.890
98428W        W70688  13.845  42.443  13.461
98429W        W70689  29.626  10.649  11.966
98430W        W70690  33.083  14.797   3.717
98431W        W70691  10.264  34.866  13.027
98432W        W70692  31.100  18.624  13.894
98433W        W70693  19.558  38.942  11.908
98434W        W70694   9.867  26.016  11.065
98435W        W70695   2.873   5.778  14.923
98436W        W70696  34.011  24.042   2.888
98437W        W70697  28.573  11.727   1.366
98438W        W70698  29.077   6.240  12.528
98439W        W70699  32.582  35.517   2.684
98440W        W70700  15.747   4.922  13.955
98441W        W70701  18.772  24.199  14.008
98442W        W70702  37.389   7.899  14.029
98443W        W70703  19.069  41.041  13.995
98444W        W70704   2.283  14.221  13.000
98445W        W70705  24.576  22.539   1.845
98446W        W70706  35.949  39.040   4.752
98447W        W70707  25.128   3.372  13.477
98448W        W70708  41.407  41.848   0.313
98449W        W70709  42.527   5.230   2.879
98450W        W70710   5.437   9.203   3.814
98451W        W70711  25.485  32.410   3.684
98452W        W70712  10.202   6.840  11.998
98453W        W70713  44.852  10.378   3.246
98454W        W70714  26.081  37.002   3.215
98455W        W70715  36.433  39.810  11.897
98456W        W70716  34.612  33.387   4.253
98457W        W70717   8.735  32.909   2.397
98458W        W70718   9.792  23.731   4.819
98459W        W70719   8.822  19.560  11.511
98460W        W70720  15.317   5.265  13.969
98461W        W70721  41.481  25.469  11.950
98462W        W70722  33.015  11.857  10.987
98463W        W70723   1.790   1.788   1.805
98464W        W70724  41.410   4.813  12.053
98465W        W70725  20.207  12.203  12.399
98466W        W70726   2.895  21.645   4.706
98467W        W70727   9.886  40.988   4.314
98468W        W70728  41.398  20.673  14.952
98469W        W70729  18.740  12.855   3.146
98470W        W70730   3.779  32.022   3.274
98471W        W70731  42.287   3.337   2.703
98472W        W70732  11.798  28.435  14.344
98473W        W70733   4.898  30.559   3.350
98474W        W70734  16.221   9.309  11.402
98475W        W70735  26.652   8.697  13.827
98476W        W70736  31.970  18.098   3.838
98477W        W70737  14.721   7.700   1.326
98478W        W70738  27.540  26.056  11.027
98479W        W70739  23.580   6.239  14.991
98480W        W70740   7.884  34.894  12.962
98481W        W70741  36.461  42.801  13.318
98482W        W70742  16.765  37.909  14.375
98483W        W70743   3.338   8.187   0.405
98484W        W70744  39.433  14.631   3.843
98485W        W70745  44.926  14.312   4.241
98486W        W70746   0.895  24.608  14.440
98487W        W70747  15.682   8.376  14.458
98488W        W70748  37.065  41.336   1.701
98489W        W70749   1.747  14.605   2.789
98490W        W70750   8.385  18.665  12.381
98491W        W70751  19.692  17.587  11.062
98492W        W70752  43.488  33.475  14.464
98493W        W70753  43.838  41.459  14.016
98494W        W70754  40.457   0.777   1.913
98495W        W70755   9.252   3.911  12.085
98496W        W70756  18.181  18.230  10.445
98497W        W70757  21.626  11.373   1.762
98498W        W70758  13.224  37.880  11.896
98499W        W70759  29.024  20.633   4.744
98500W        W70760  19.745  36.028  10.908
98501W        W70761  27.465  19.253  12.858
98502W        W70762   6.356  40.316  12.482
98503W        W70763  10.814   2.930  14.760
98504W        W70764  25.984  12.249   4.206
98505W        W70765   3.291  35.928   1.412
98506W        W70766  14.789  38.908  11.480
98507W        W70767  39.810   5.693  11.395
98508W        W70768   0.822   1.975  13.336
98509W        W70769  10.185   4.300  11.560
98510W        W70770   3.457  15.681   0.437
98511W        W70771  43.296   4.918   3.788
98512W        W70772   1.402  30.476   4.212
98513W        W70773  20.759  20.658   0.254
98514W        W70774  20.561  33.076   2.360
98515W        W70775  34.603  41.298  14.432
98516W        W70776  11.765  41.344   2.382
98517W        W70777   7.780  22.136  12.453
98518W        W70778  32.972  29.113  14.420
98519W        W70779  11.645  43.499  13.406
98520W        W70780  38.555  23.506  12.482
98521W        W70781  27.080   2.295   0.911
98522W        W70782  39.967   5.857   1.234
98523W        W70783  42.429   1.790  13.912
98524W        W70784  25.215   1.819   0.961
98525W        W70785  32.631   6.249   3.175
98526W        W70786  29.664  16.769   4.813
98527W        W70787   8.308  37.981   1.729
98528W        W70788  24.136  27.144  12.064
98529W        W70789  35.885  31.622  12.088
98530W        W70790  40.502  14.151   0.949
98531W        W70791  14.221  31.036  14.953
98532W        W70792  17.688  18.267  12.463
98533W        W70793  12.269  24.108   3.329
98534W        W70794  12.681  15.224  13.314
98535W        W70795  39.889  37.892  13.954
98536W        W70796   4.924  12.689   3.260
98537W        W70797  37.023   1.771  11.388
98538W        W70798   4.702  33.063   4.223
98539W        W70799  41.864   3.858  14.379
98540W        W70800  28.073  32.047  13.858
98541W        W70801   7.882  10.231   3.838
98542W        W70802  33.625  38.906   0.290
98543W        W70803  13.231  38.935  14.383
98544W        W70804  36.076  25.202   2.741
98545W        W70805   0.422  27.106  14.434
98546W        W70806   7.172  12.783   0.455
98547W        W70807  23.040  31.030  13.499
98548W        W70808   8.876  30.115  12.502
98549W        W70809   8.703  32.619  13.385
98550W        W70810  33.580  16.265  12.503
98551W        W70811   9.781   8.887   1.275
98552W        W70812  41.345  11.694   2.265
98553W        W70813  25.163  19.261   2.402
98554W        W70814  10.765  11.707  14.829
98555W        W70815  28.137  25.540   1.729
98556W        W70816  24.207  37.582   3.347
98557W        W70817  14.658  27.552  12.061
98558W        W70818  24.034  28.568   9.624
98559W        W70819  41.938   5.867   3.247
98560W        W70820  43.819  10.769   0.285
98561W        W70821  15.295   4.717   3.715
98562W        W70822  29.457  17.248   3.280
98563W        W70823   4.374   8.690   5.219
98564W        W70824   6.682  27.668   4.766
98565W        W70825  39.428  38.534   3.326
98566W        W70826  19.537  39.932  10.905
98567W        W70827   0.491  13.308   4.238
98568W        W70828   5.913   3.745  13.423
98569W        W70829  12.292  22.669  12.467
98570W        W70830   0.832  26.142  11.112
98571W        W70831  33.618  37.007   3.758
98572W        W70832   8.876  22.550   0.776
98573W        W70833  27.597   7.834  14.937
98574W        W70834   8.311   1.377   3.280
98575W        W70835  21.711   0.949   0.281
98576W        W70836  31.945   3.400   1.438
98577W        W70837   8.876  23.733  11.421
98578W        W70838  30.137  35.882   2.720
98579W        W70839   7.192  41.453   1.282
98580W        W70840  16.768   1.444   1.831
98581W        W70841  35.576  33.086   0.425
98582W        W70842  23.613   5.440  14.426
98583W        W70843  25.625  38.412   4.829
98584W        W70844  32.908  32.520   2.230
98585W        W70845  29.449  34.902   9.928
98586W        W70846   0.920   2.906  13.004
98587W        W70847  35.886  10.319  13.934
98588W        W70848  25.157  43.832   2.417
98589W        W70849  20.125   0.861   3.219
98590W        W70850  30.611  25.141  14.516
98591W        W70851  38.891   6.351  14.500
98592W        W70852   8.655  35.573   2.370
98593W        W70853  42.889  11.644  12.017
98594W        W70854  13.272  10.854  14.376
98595W        W70855  30.996  20.256  10.488
98596W        W70856  44.426  17.569  12.076
98597W        W70857   3.379  37.892   1.319
98598W        W70858   3.339  20.767  13.026
98599W        W70859  13.224  25.218   2.662
98600W        W70860   4.326  30.082  10.454
98601W        W70861  14.797   5.207   1.391
98602W        W70862  42.778  28.967   0.871
98603W        W70863  22.112   1.239   3.668
98604W        W70864   4.702  13.833  10.508
98605W        W70865  34.494  13.291  12.096
98606W        W70866   8.868  11.740   4.721
98607W        W70867  11.193   7.352  13.877
98608W        W70868   4.699  28.177   5.320
98609W        W70869   8.375  18.596  13.815
98610W        W70870  33.488  10.755   4.627
98611W        W70871  13.270  22.621  13.487
98612W        W70872   1.379  33.557  13.871
98613W        W70873  19.562  30.163  14.890
98614W        W70874  43.398   3.378  11.551
98615W        W70875  13.735  41.872   2.858
98616W        W70876  40.433   6.259   2.283
98617W        W70877  25.519   8.887  13.310
98618W        W70878  41.370   8.398  11.445
98619W        W70879  15.181   0.267   4.697
98620W        W70880   8.208  25.624   1.728
98621W        W70881  44.829  31.124  11.507
98622W        W70882  43.910  25.183   4.319
98623W        W70883   3.248  30.597  14.769
98624W        W70884  16.299  33.543   3.178
98625W        W70885  42.935  26.185   2.185
98626W        W70886  17.063  31.462   1.418
98627W        W70887  13.842   2.347   0.365
98628W        W70888  11.280  18.160   0.886
98629W        W70889   2.413  18.069   4.213
98630W        W70890  24.012  37.575   1.394
98631W        W70891  13.785   3.377  14.897
98632W        W70892  14.203  31.570   1.934
98633W        W70893   0.964  24.035   5.245
98634W        W70894   1.331  44.938   3.672
98635W        W70895   3.927  29.961  10.975
98636W        W70896  14.805  32.619   4.156
98637W        W70897   0.340  10.164  13.452
98638W        W70898  23.522  39.397  11.386
98639W        W70899  39.055  43.364   3.778
98640W        W70900  21.161  15.704   5.104
98641W        W70901   6.696  17.785  12.569
98642W        W70902   3.360   4.884   1.830
98643W        W70903  17.666  44.358   3.191
98644W        W70904  14.277  33.408   1.229
98645W        W70905  36.939  30.980  11.087
98646W        W70906   7.191  12.324  12.508
98647W        W70907  38.830  15.240  13.384
98648W        W70908  42.465  32.911  11.995
98649W        W70909  10.145   2.835   3.190
98650W        W70910   5.432  28.948   4.600
98651W        W70911  15.585  39.884   2.741
98652W        W70912  14.241  30.458   1.387
98653W        W70913  42.829  37.862  14.965
98654W        W70914  27.945   3.395   2.715
98655W        W70915   9.262  16.182  12.578
98656W        W70916  15.206  19.066  11.384
98657W        W70917  31.074  35.993   1.217
98658W        W70918  18.219  35.549  13.394
98659W        W70919  22.652  21.254  10.007
98660W        W70920  20.609  37.835   2.793
98661W        W70921   8.325  40.911   3.301
98662W        W70922  34.584  40.468   2.179
98663W        W70923  13.183  31.116  13.052
98664W        W70924   4.270  28.044   1.912
98665W        W70925  13.344  30.412   2.398
98666W        W70926  12.766  17.083  11.038
98667W        W70927  12.641  21.556  10.601
98668W        W70928  36.557   8.288   1.829
98669W        W70929  40.395  40.034  13.038
98670W        W70930   0.856   1.755   5.316
98671W        W70931   4.835  16.718   3.170
98672W        W70932  32.575  38.943  10.051
98673W        W70933  21.246  43.504   2.200
98674W        W70934  26.054  23.649  14.499
98675W        W70935  25.493  13.764  14.286
98676W        W70936  28.503  35.388   4.660
98677W        W70937  42.957  16.698   0.810
98678W        W70938  10.207  17.154  11.420
98679W        W70939  13.190  42.283  11.457
98680W        W70940   0.342  11.139   0.343
98681W        W70941  23.568  16.790   2.293
98682W        W70942  29.132  12.637  10.542
98683W        W70943  31.014  16.194   3.636
98684W        W70944  38.843   9.167   0.815
98685W        W70945  37.022  20.724  10.528
98686W        W70946  11.790  44.306  12.483
98687W        W70947  16.796  40.941   1.762
98688W        W70948  43.882  10.232   3.336
98689W        W70949  42.813  26.668   3.363
98690W        W70950  29.116  40.485   3.369
98691W        W70951  40.413   7.212   4.660
98692W        W70952  30.973  38.408   1.329
98693W        W70953  24.202  21.626  12.006
98694W        W70954   1.301  29.076  14.994
98695W        W70955   9.727   4.917   0.814
98696W        W70956   7.824   3.804  14.016
98697W        W70957  40.485  39.538  14.948
98698W        W70958  32.001  15.324  12.025
98699W        W70959  27.031  24.581  13.997
98700W        W70960  36.066  10.733  12.921
98701W        W70961  12.161  26.514  11.523
98702W        W70962   7.822  21.575  12.926
98703W        W70963   6.826  28.610  10.952
98704W        W70964  44.271   4.915   2.215
98705W        W70965  33.409   1.935   4.621
98706W        W70966   2.230   5.761   0.780
98707W        W70967  35.897  21.582   2.271
98708W        W70968  17.118  44.886  12.576
98709W        W70969  42.776  16.181   0.389
98710W        W70970  43.932   8.710  14.417
98711W        W70971   4.821  11.182  14.017
98712W        W70972   1.827  36.010   2.892
98713W        W70973  31.897  16.728   3.757
98714W        W70974  28.131   0.266   2.238
98715W        W70975  24.682  44.912  13.796
98716W        W70976   7.253  17.686   3.150
98717W        W70977  36.892  12.762  14.435
98718W        W70978   6.208  27.470  11.606
98719W        W70979  19.598  32.069  12.427
98720W        W70980  36.507  44.909   0.882
98721W        W70981  15.184  10.679  12.011
98722W        W70982  23.038  32.626   2.398
98723W        W70983  28.489  38.013  13.516
98724W        W70984  39.348  18.559   3.630
98725W        W70985  38.895  33.990   3.798
98726W        W70986  24.011  29.604  12.472
98727W        W70987  27.133  43.503   0.883
98728W        W70988  40.927  10.381   2.249
98729W        W70989  30.413  37.360  13.960
98730W        W70990   4.743  14.208   3.354
98731W        W70991  20.045  17.745   4.685
98732W        W70992  26.692  41.948   5.265
98733W        W70993  27.490  44.806   4.627
98734W        W70994  28.489  21.017   1.901
98735W        W70995   5.793  13.649  11.089
98736W        W70996  12.135   5.354  14.905
98737W        W70997  20.625  42.480  14.942
98738W        W70998  24.519  23.528  10.509
98739W        W70999  42.479  27.103   0.472
98740W        W71000   1.467  36.452   1.722
98741W        W71001   9.355   4.294  10.506
98742W        W71002   8.888  38.011   0.753
98743W        W71003   6.702  44.973   0.747
98744W        W71004  33.433   8.295   0.836
98745W        W71005  44.499  37.907  14.810
98746W        W71006  44.307  20.697   2.284
98747W        W71007  15.164  15.124   1.278
98748W        W71008  43.864  44.852   2.737
98749W        W71009  10.190  37.867   2.213
98750W        W71010  18.668  30.050   2.860
98751W        W71011  35.389  15.181  14.804
98752W        W71012  12.339  11.626   4.347
98753W        W71013  39.449  27.594  14.029
98754W        W71014  43.927  17.781  10.571
98755W        W71015  27.521   5.242  13.847
98756W        W71016  15.301  10.699   3.196
98757W        W71017  25.089  16.216   3.340
98758W        W71018  38.841  38.842  13.811
98759W        W71019  30.571   1.408   3.821
98760W        W71020  37.847  23.044  10.960
98761W        W71021  21.216  26.572   1.863
98762W        W71022  17.716   8.200  13.381
98763W        W71023  31.054  30.429  12.486
98764W        W71024  17.610   4.295  14.430
98765W        W71025  11.696  39.853  12.859
98766W        W71026  15.744   6.721   0.828
98767W        W71027  44.769  27.459  11.881
98768W        W71028  32.435   0.279  14.913
98769W        W71029  18.225   8.860   5.142
98770W        W71030   2.874  16.181  11.079
98771W        W71031  25.045  31.150  14.798
98772W        W71032  26.599  28.945  13.057
98773W        W71033  12.619  23.506  14.827
98774W        W71034  30.476  43.900  12.355
98775W        W71035  30.100   7.216   1.892
98776W        W71036  28.436  18.210   1.729
98777W        W71037  18.570   2.323   3.320
98778W        W71038  33.034  34.103   2.209
98779W        W71039  20.733  38.496   1.248
98780W        W71040  29.059  41.959   1.433
98781W        W71041  11.158  36.374  10.495
98782W        W71042  14.228  34.487   3.168
98783W        W71043  44.860  37.838   0.818
98784W        W71044   2.468  10.731   0.803
98785W        W71045  25.666   9.303  12.882
98786W        W71046  37.899  18.124  13.356
98787W        W71047   6.327  27.990   2.662
98788W        W71048   3.787  11.738   1.315
98789W        W71049   0.764  35.046   3.764
98790W        W71050  17.242  28.648  11.552
98791W        W71051  18.141  29.449   0.739
98792W        W71052  10.784  19.286   1.696
98793W        W71053  35.597   3.431   0.957
98794W        W71054  37.426  39.381   0.277
98795W        W71055  23.112   8.196  13.434
98796W        W71056  38.854  43.510   4.217
98797W        W71057  35.891  39.053   5.127
98798W        W71058  28.681  42.281   2.401
98799W        W71059  41.324  17.724   1.775
98800W        W71060   6.833  19.041  10.468
98801W        W71061   0.765  13.132  13.353
98802W        W71062  40.895  28.507   4.776
98803W        W71063  38.026   2.325  11.544
98804W        W71064   7.294  26.108   0.775
98805W        W71065  26.075  27.631   1.868
98806W        W71066  35.416  26.618   4.243
98807W        W71067  28.117  36.915  14.948
98808W        W71068  26.562  11.625  14.015
98809W        W71069  36.404  41.518   4.330
98810W        W71070   9.732  43.475  14.496
98811W        W71071  33.501  41.953   4.281
98812W        W71072   5.735  13.789   1.770
98813W        W71073  32.474  25.633   4.269
98814W        W71074  34.539  11.143  10.460
98815W        W71075   6.405  38.519   4.719
98816W        W71076  35.470  37.996   1.309
98817W        W71077   8.712  14.203   1.313
98818W        W71078  12.642  10.745  14.373
98819W        W71079  28.124  13.612  10.460
98820W        W71080  18.138   2.384   4.323
98821W        W71081  32.510  18.065   2.306
98822W        W71082  19.720   9.359  11.107
98823W        W71083  26.475  41.442   5.163
98824W        W71084  32.525  10.783   0.757
98825W        W71085  18.209   4.266   1.847
98826W        W71086   9.366  24.649   4.832
98827W        W71087   1.948  40.046   2.225
98828W        W71088  28.557   8.836  14.000
98829W        W71089  42.493  13.195   4.259
98830W        W71090  12.321  10.866   0.782
98831W        W71091  27.078   1.797  10.413
98832W        W71092  17.597   0.759  13.408
98833W        W71093   9.258   1.923  10.617
98834W        W71094  42.524  43.456   2.382
98835W        W71095  36.490  17.187  10.435
98836W        W71096  18.746  26.645  10.485
98837W        W71097   8.875  28.049  14.983
98838W        W71098  23.673   7.210   4.799
98839W        W71099  36.388  37.432   3.316
98840W        W71100  24.678  24.662   3.184
98841W        W71101  43.880  43.458   0.359
98842W        W71102  21.629  41.791   3.367
98843W        W71103  34.517  10.683   1.342
98844W        W71104  14.155  41.028   4.327
98845W        W71105  29.666   6.366  11.035
98846W        W71106  28.183  21.208  13.933
98847W        W71107  24.640  35.961  14.788
98848W        W71108  39.443   7.215   2.343
98849W        W71109  34.540  42.917  10.922
98850W        W71110  24.612   1.476   3.234
98851W        W71111  35.864   8.703  13.061
98852W        W71112  12.633  44.989  13.421
98853W        W71113  13.644  25.116  10.425
98854W        W71114  11.835  14.326   3.291
98855W        W71115  20.576  35.387   2.821
98856W        W71116   4.916  22.508  11.482
98857W        W71117   0.801  42.887   3.381
98858W        W71118   9.312   3.387  11.572
98859W        W71119  30.526  35.864  14.947
98860W        W71120  30.929   4.296  12.496
98861W        W71121  34.413  34.865  14.321
98862W        W71122  18.722  14.108   1.704
98863W        W71123   6.296   6.388  14.324
98864W        W71124  22.739  39.044   0.923
98865W        W71125  35.093  23.659   2.705
98866W        W71126  10.180  40.382   2.825
98867W        W71127  28.441  17.658  11.958
98868W        W71128  12.716  25.047   3.360
98869W        W71129  20.526  14.316  10.624
98870W        W71130   6.405  18.580  12.357
98871W        W71131  25.150  39.431   2.763
98872W        W71132  31.613  18.270  13.385
98873W        W71133  17.689  42.823   4.293
98874W        W71134   9.360  15.244  13.425
98875W        W71135   5.767  31.958   0.797
98876W        W71136   5.375  13.838   0.412
98877W        W71137  40.978  19.168  14.302
98878W        W71138  19.635  36.367  13.519
98879W        W71139  15.789  11.723   5.220
98880W        W71140  26.591  22.728  11.887
98881W        W71141  17.720   9.204   0.809
98882W        W71142  22.161  35.094  12.400
98883W        W71143  28.182  20.661  13.976
98884W        W71144  16.125  13.633  12.028
98885W        W71145  42.509   4.888  12.552
98886W        W71146  40.381   1.739  11.878
98887W        W71147  37.520  18.757  11.025
98888W        W71148  20.251   8.242  12.496
98889W        W71149  40.351   6.688   1.423
98890W        W71150   3.455  15.327   3.269
98891W        W71151  21.132  34.611  14.774
98892W        W71152  40.326   2.374  10.899
98893W        W71153  39.552  39.828  12.374
98894W        W71154  24.975   8.739   3.194
98895W        W71155  36.526  42.825  14.883
98896W        W71156  31.065  25.611  12.522
98897W        W71157  25.586  40.410   1.773
98898W        W71158   4.940  25.607   3.198
98899W        W71159  15.124  23.649  10.614
98900W        W71160   3.361  29.639  11.478
98901W        W71161  21.725  35.859   1.363
98902W        W71162  44.271  18.734   3.242
98903W        W71163  23.018  38.419  14.014
98904W        W71164  25.474  17.586   0.312
98905W        W71165  23.011  26.546  11.430
98906W        W71166  41.486  15.275  13.046
98907W        W71167  40.939  21.055  14.490
98908W        W71168   4.258  34.016   0.274
98909W        W71169  40.999  31.993   2.262
98910W        W71170  28.969  41.375  12.454
98911W        W71171  30.155  33.544   0.797
98912W        W71172  21.575  43.406   4.256
98913W        W71173  40.336  29.623   3.319
98914W        W71174  14.755  13.775  11.921
98915W        W71175  20.741  21.535   5.151
98916W        W71176  17.683  12.612   4.126
98917W        W71177  10.707  27.075  11.089
98918W        W71178  39.555  41.439   2.410
98919W        W71179  14.668  31.055  12.830
98920W        W71180  16.726  32.904   1.338
98921W        W71181  37.376  31.024   3.215
98922W        W71182   1.283   7.219  13.350
98923W        W71183  35.379  40.046  12.517
98924W        W71184  19.635  35.592   3.866
98925W        W71185  26.519  15.697  10.459
98926W        W71186  24.612  24.191   3.360
98927W        W71187  34.886  36.513  12.458
98928W        W71188  36.917  20.057  11.411
98929W        W71189   5.310  40.336   3.649
98930W        W71190   5.864   0.299  12.972
98931W        W71191  20.724   3.307   0.293
98932W        W71192  39.374   7.825  12.453
98933W        W71193   1.845   8.213  13.938
98934W        W71194  37.885  38.894   2.246
98935W        W71195  40.549  13.211  12.417
98936W        W71196  37.575  27.555   0.901
98937W        W71197  31.132  30.538   9.498
98938W        W71198  35.872  32.586   3.151
98939W        W71199  21.194  29.489   2.875
98940W        W71200  18.626  20.190  13.043
98941W        W71201  37.357  39.474  13.005
98942W        W71202  32.074  14.767  10.894
98943W        W71203  29.035   6.747   4.681
98944W        W71204  13.275  15.819   2.241
98945W        W71205  26.514  36.041  10.641
98946W        W71206   1.426  23.723  14.500
98947W        W71207   4.333  27.985  13.342
98948W        W71208  20.042   2.928   2.823
98949W        W71209  33.015  35.448  13.414
98950W        W71210   8.310  32.530   2.841
98951W        W71211  27.949  33.054   2.203
98952W        W71212  15.766  23.041   3.674
98953W        W71213  14.623  29.532   2.729
98954W        W71214  17.094  27.536   0.844
98955W        W71215  34.528  36.350   1.774
98956W        W71216   2.726  39.976   4.818
98957W        W71217  33.119   8.179  13.993
98958W        W71218  24.129  20.630   0.889
98959W        W71219  43.797  20.260  11.966
98960W        W71220  29.957   0.353   4.633
98961W        W71221  25.483  28.547  12.870
98962W        W71222   9.308  26.094  13.362
98963W        W71223  44.402  40.813   3.347
98964W        W71224  16.574  44.816   4.187
98965W        W71225  14.702  10.294   5.286
98966W        W71226  13.722   5.729  13.454
98967W        W71227  20.638  23.719  13.030
98968W        W71228  38.022   1.422   2.369
98969W        W71229  25.631  27.668   4.318
98970W        W71230  28.602  18.078  14.293
98971W        W71231  27.637  34.001  13.384
98972W        W71232  17.712  11.141  10.621
98973W        W71233   8.257   5.229   0.348
98974W        W71234  37.967   8.657   1.401
98975W        W71235  32.015  14.213  13.503
98976W        W71236  32.406  38.846  14.410
98977W        W71237  38.526  16.265  10.469
98978W        W71238  37.000   4.716   2.250
98979W        W71239   0.778  34.971  11.918
98980W        W71240  41.315  23.005  11.874
98981W        W71241  42.454   2.413  12.824
98982W        W71242  10.745   8.774  14.346
98983W        W71243  42.790  29.075  11.025
98984W        W71244   3.736  33.069   4.330
98985W        W71245  40.039  29.944  12.864
98986W        W71246  21.258   1.381  13.351
98987W        W71247  44.494  27.572  11.023
98988W        W71248  26.611  29.485  12.862
98989W        W71249  23.576  26.069  13.867
98990W        W71250   0.767  18.236   2.381
98991W        W71251  20.138  43.998  12.030
98992W        W71252   8.898  24.539  11.033
98993W        W71253   9.265  36.397   0.402
98994W        W71254  30.913  38.866  11.098
98995W        W71255  27.106  41.909  12.034
98996W        W71256   5.227   2.290  12.959
98997W        W71257  35.096  22.508   0.763
98998W        W71258  41.296   6.742  14.420
98999W        W71259  19.205  39.521   1.270
99000W        W71260  33.065   4.385  14.386
99001W        W71261  36.960  27.184  11.469
99002W        W71262   8.238  15.150  14.365
99003W        W71263  17.689  29.993  10.925
99004W        W71264  14.138  10.834  12.364
99005W        W71265  16.754  13.763   0.797
99006W        W71266  19.628  29.593  12.836
99007W        W71267   0.841  11.865  12.018
99008W        W71268   0.316  35.393   0.836
99009W        W71269  38.832  11.825   3.772
99010W        W71270  32.507  40.525   2.347
99011W        W71271  29.076  27.173   3.227
99012W        W71272  34.037  25.535  13.431
99013W        W71273   3.360  30.147   3.200
99014W        W71274  13.192  37.535  13.500
99015W        W71275   5.759  26.099   0.938
99016W        W71276  12.279   3.228  12.470
99017W        W71277  25.153  35.059   1.280
99018W        W71278  29.486  41.862   0.476
99019W        W71279  44.305  15.129   0.950
99020W        W71280  42.448  22.539   0.836
99021W        W71281  25.131  17.673  12.370
99022W        W71282  32.520  20.575   1.305
99023W        W71283   6.305  30.008  11.534
99024W        W71284   4.410  10.790   0.319
99025W        W71285  24.103  36.555   0.395
99026W        W71286  11.242   1.875   2.272
99027W        W71287  26.048   0.883   4.663
99028W        W71288  33.040  33.399  14.481
99029W        W71289   6.757  43.969   1.698
99030W        W71290  43.006  33.026  11.866
99031W        W71291  26.680  34.582  13.035
99032W        W71292  14.823  26.562  13.373
99033W        W71293  11.673  33.016  14.391
99034W        W71294  39.547  31.426  11.006
99035W        W71295  28.064  15.229  14.344
99036W        W71296  38.073   8.252  12.403
99037W        W71297  43.817   2.938   2.351
99038W        W71298  12.340  20.066   3.153
99039W        W71299  37.504   4.911  13.826
99040W        W71300  44.369  39.488  11.903
99041W        W71301   4.445  38.995  12.000
99042W        W71302  39.853  27.474  13.969
99043W        W71303  41.926   9.745   1.923
99044W        W71304  21.188  19.669   1.341
99045W        W71305  32.917  21.219  14.496
99046W        W71306  18.764  19.239  11.531
99047W        W71307  22.568  18.773   5.742
99048W        W71308   1.866   6.920  12.485
99049W        W71309  19.194  11.639  13.815
99050W        W71310  44.758  30.574  14.802
99051W        W71311  40.022   6.288  12.035
99052W        W71312   6.316  15.273   0.765
99053W        W71313  12.233  26.058  11.549
99054W        W71314   2.256   4.370  11.937
99055W        W71315   1.913   6.738   2.264
99056W        W71316  13.137   8.849  14.874
99057W        W71317  28.646   0.287   1.853
99058W        W71318  16.124  38.981  13.846
99059W        W71319  39.334  43.322   0.802
99060W        W71320  13.785   9.378   1.288
99061W        W71321  30.507  26.512  13.012
99062W        W71322   8.350  11.625   2.760
99063W        W71323   0.299  18.715  11.576
99064W        W71324   3.777  15.215   3.321
99065W        W71325  24.176  40.890   2.283
99066W        W71326  20.168  42.365  13.443
99067W        W71327  10.191  23.729  11.876
99068W        W71328  42.829   2.810   2.393
99069W        W71329  11.238  30.460  13.054
99070W        W71330  27.056  14.769   2.181
99071W        W71331   2.291  20.666  14.934
99072W        W71332   9.185  36.495   4.699
99073W        W71333  27.470  38.462   4.658
99074W        W71334  25.688  22.144   4.191
99075W        W71335  32.428  19.549   1.757
99076W        W71336  11.260  22.178  10.527
99077W        W71337  21.512  40.317   3.188
99078W        W71338  21.576  33.490  12.530
99079W        W71339  18.143  38.338  10.962
99080W        W71340  24.577  40.998  13.864
99081W        W71341  40.924  30.519   3.333
99082W        W71342  37.398  31.107   4.679
99083W        W71343  25.574   9.692  10.476
99084W        W71344  17.629  14.807   4.622
99085W        W71345  19.725  40.542  10.911
99086W        W71346  24.118  44.843  11.379
99087W        W71347  34.547  35.547   3.357
99088W        W71348  28.082  24.687   1.415
99089W        W71349   2.377  30.439  10.427
99090W        W71350  10.720  29.076   3.386
99091W        W71351  40.535  33.935   0.451
99092W        W71352   6.316   9.653  12.841
99093W        W71353   8.869  18.179  11.495
99094W        W71354   2.790  32.534   0.391
99095W        W71355   6.709  36.387   4.223
99096W        W71356  36.426  37.966  12.490
99097W        W71357   8.347  19.578  12.986
99098W        W71358   9.166  34.004  13.540
99099W        W71359   0.856  10.297   1.213
99100W        W71360  35.931   9.244   2.361
99101W        W71361  39.846  37.853  10.902
99102W        W71362  23.599  29.117   1.772
99103W        W71363  24.528  17.716  13.837
99104W        W71364  41.903  17.680   3.248
99105W        W71365  32.066  20.243   4.133
99106W        W71366  41.404  16.586  13.896
99107W        W71367  30.993  13.761   0.922
99108W        W71368   1.785  14.099  14.487
99109W        W71369  44.832  10.383  12.561
99110W        W71370  18.714  34.924   3.641
99111W        W71371  28.600  42.999  11.863
99112W        W71372   0.358  14.736   0.398
99113W        W71373  21.621  29.050   1.266
99114W        W71374  27.592  25.090   1.380
99115W        W71375  17.194   2.905  10.461
99116W        W71376  36.968   2.906   2.896
99117W        W71377   1.831  28.972  14.761
99118W        W71378  41.944   0.765  14.446
99119W        W71379  28.484  32.968  10.986
99120W        W71380  32.918  34.983   3.190
99121W        W71381   8.366  39.946  13.951
99122W        W71382   5.213   3.892   2.748
99123W        W71383  24.197  30.042  13.374
99124W        W71384   0.293  44.499   4.309
99125W        W71385  24.164  26.597  13.878
99126W        W71386  36.397  43.852  10.471
99127W        W71387  26.046  20.229   3.831
99128W        W71388  35.852  18.679   4.210
99129W        W71389  27.629  15.239  11.034
99130W        W71390  41.937  33.993   2.277
99131W        W71391  18.727  23.121   2.678
99132W        W71392  35.991  26.003  13.842
99133W        W71393  24.194  24.569  14.884
99134W        W71394   9.740  33.459  10.607
99135W        W71395   9.323  16.668  11.099
99136W        W71396  42.281  34.548   0.890
99137W        W71397  41.428   3.382   2.244
99138W        W71398  29.990   0.887   3.229
99139W        W71399  40.871   2.878   0.305
99140W        W71400  20.704   4.827   2.870
99141W        W71401   8.762  15.123  13.396
99142W        W71402  25.044  24.559   1.865
99143W        W71403  24.214  33.887  14.956
99144W        W71404  31.987  38.368  11.418
99145W        W71405  41.982  34.463  13.894
99146W        W71406   6.849  12.709   3.278
99147W        W71407   3.370  26.657   0.265
99148W        W71408  28.618   5.335   4.266
99149W        W71409  32.897  10.156   4.321
99150W        W71410  44.761  24.198  11.470
99151W        W71411  12.153  31.126  10.964
99152W        W71412  38.498  40.309   1.323
99153W        W71413  33.055   9.195   3.750
99154W        W71414  16.790   0.277   2.212
99155W        W71415   8.233  15.717   0.271
99156W        W71416  30.009  31.486  11.000
99157W        W71417  13.825   3.254   3.739
99158W        W71418  11.304  31.924  13.971
99159W        W71419  18.567  34.085   3.329
99160W        W71420  30.926  27.114  13.339
99161W        W71421  26.534  18.161  13.814
99162W        W71422   6.773  29.162  14.811
99163W        W71423  20.250   1.776   2.378
99164W        W71424  25.562  44.439   3.823
99165W        W71425  41.031   5.822   4.607
99166W        W71426  33.483  36.879   2.371
99167W        W71427  29.647  20.253  12.910
99168W        W71428   9.207   3.315   5.200
99169W        W71429  16.118  28.184  14.279
99170W        W71430  11.206   4.907  13.339
99171W        W71431  19.176  17.139   1.424
99172W        W71432  16.208  43.774   1.451
99173W        W71433  23.163  27.953  12.383
99174W        W71434  22.147  44.305   1.333
99175W        W71435  21.210  21.163   3.258
99176W        W71436  32.457  16.304   4.801
99177W        W71437   3.394  10.762  13.537
99178W        W71438  16.575  31.135   4.722
99179W        W71439  20.617  44.799  11.387
99180W        W71440  17.148  11.203  13.046
99181W        W71441  33.102  10.712  13.308
99182W        W71442  39.519  37.060   2.691
99183W        W71443   7.269  26.559  10.977
99184W        W71444  44.470   2.256  11.444
99185W        W71445  33.607   1.915  10.640
99186W        W71446  20.740   7.295  10.536
99187W        W71447   7.827  34.002   3.360
99188W        W71448   1.739  18.079  12.978
99189W        W71449   9.297  44.409  12.042
99190W        W71450  31.109  35.964  13.424
99191W        W71451   2.404  37.890   4.617
99192W        W71452  41.510  11.293  12.554
99193W        W71453  35.357  38.826  11.976
99194W        W71454  35.475  25.636  12.964
99195W        W71455  11.736   2.757   2.677
99196W        W71456  24.986  23.653   0.440
99197W        W71457  21.030   5.408   2.308
99198W        W71458  17.763  41.402   4.792
99199W        W71459  31.451   9.202   0.907
99200W        W71460   0.827   4.777  14.793
99201W        W71461  19.098  30.024  13.798
99202W        W71462   9.846  32.515   0.821
99203W        W71463  44.363  44.786  12.890
99204W        W71464  29.976  33.611  13.837
99205W        W71465   7.381  12.147   0.252
99206W        W71466  35.013  18.259  10.567
99207W        W71467   2.327  16.581   0.930
99208W        W71468  18.777  27.084  11.113
99209W        W71469   2.884  34.538   1.443
99210W        W71470   5.385  11.206  13.431
99211W        W71471   2.374  16.179   2.212
99212W        W71472  26.683  29.616   4.801
99213W        W71473  27.066  10.655  14.809
99214W        W71474  20.628  37.346   4.226
99215W        W71475  34.507  37.347  13.391
99216W        W71476  41.412  29.064  10.628
99217W        W71477  22.710   9.691  12.375
99218W        W71478   5.359  32.512   3.679
99219W        W71479  21.526  34.873  10.907
99220W        W71480  14.095   1.848  10.423
99221W        W71481  30.623   0.895  11.449
99222W        W71482   6.848   3.218  13.343
99223W        W71483  23.078   1.417   3.172
99224W        W71484   0.299  33.403   1.714
99225W        W71485  10.332  29.618   1.910
99226W        W71486  19.120   6.912  14.377
99227W        W71487  17.287  26.171  13.907
99228W        W71488   8.399   5.720   0.849
99229W        W71489  14.217  30.445  11.547
99230W        W71490  30.958  20.581   4.140
99231W        W71491   3.761   2.910  13.813
99232W        W71492   7.181   7.907   4.250
99233W        W71493  22.229  12.162  12.842
99234W        W71494  38.917  34.542   4.603
99235W        W71495  18.173  44.439   4.208
99236W        W71496  43.929  19.770  10.633
99237W        W71497  33.078  22.512  14.319
99238W        W71498   1.481   6.731   4.625
99239W        W71499  40.311  30.983  13.945
99240W        W71500  20.593   6.388  12.071
99241W        W71501  39.493  33.911   0.867
99242W        W71502  25.546  39.931   3.782
99243W        W71503  44.884  12.326   3.348
99244W        W71504  37.057  36.363   1.287
99245W        W71505   1.360   8.387  13.310
99246W        W71506  41.324   6.744  11.414
99247W        W71507  26.146  40.311   9.950
99248W        W71508  11.763   6.876  13.545
99249W        W71509  31.513  29.118   4.603
99250W        W71510  36.010  23.988  13.899
99251W        W71511  40.518  12.717   1.794
99252W        W71512  22.675  36.985  10.922
99253W        W71513   8.894  22.640  12.964
99254W        W71514  39.357   1.742   3.865
99255W        W71515  33.037  39.360  13.820
99256W        W71516   4.731  14.834   1.228
99257W        W71517  25.709  30.435  11.966
99258W        W71518  21.676  42.858   4.188
99259W        W71519  31.542  42.467  11.887
99260W        W71520  26.698  12.765  10.899
99261W        W71521  35.931   8.671   2.390
99262W        W71522  37.958  43.791  11.053
99263W        W71523   3.911  33.030   1.723
99264W        W71524  35.385  44.922   4.308
99265W        W71525  40.428  37.540  10.905
99266W        W71526  37.030  33.124  12.503
99267W        W71527  20.580  14.702  12.569
99268W        W71528  32.630  42.405   4.244
99269W        W71529  17.569   4.924   2.835
99270W        W71530  33.604   7.413  11.498
99271W        W71531  10.262  39.404  12.048
99272W        W71532  24.603  21.187   0.947
99273W        W71533   4.717  29.607   4.755
99274W        W71534   6.272  37.890  14.980
99275W        W71535  43.914  41.799   4.618
99276W        W71536   6.900  24.023  10.602
99277W        W71537  12.257  17.745  13.819
99278W        W71538  25.013   4.925   4.619
99279W        W71539  31.450  26.017  14.898
99280W        W71540  41.398  12.771  12.091
99281W        W71541  17.708   6.252  10.073
99282W        W71542  14.761   6.743   3.274
99283W        W71543  30.982  13.338   4.812
99284W        W71544  36.539  34.572  14.436
99285W        W71545  16.092   7.681  11.407
99286W        W71546  21.514  42.441   3.351
99287W        W71547   3.782   1.300  12.006
99288W        W71548  31.409  19.683   0.423
99289W        W71549  43.339  21.679   1.278
99290W        W71550  21.060  21.608   1.347
99291W        W71551   9.371   3.956   4.609
99292W        W71552  37.879   8.376  11.092
99293W        W71553  23.049  28.157  11.965
99294W        W71554  32.064   8.207   0.756
99295W        W71555  44.991  28.495   2.202
99296W        W71556  36.383  38.501   3.728
99297W        W71557  39.336  35.925  12.077
99298W        W71558   4.239  18.552  10.924
99299W        W71559   9.802   5.393   0.918
99300W        W71560  43.348   7.774   2.306
99301W        W71561  21.572   8.385   1.396
99302W        W71562  26.060  39.918   0.253
99303W        W71563   2.799  10.637   1.756
99304W        W71564   4.788   5.860  13.053
99305W        W71565  19.061   3.806  14.847
99306W        W71566  16.160  35.582  11.036
99307W        W71567  20.584  34.944  14.857
99308W        W71568  16.206  30.040  10.622
99309W        W71569  23.507  43.492   3.367
99310W        W71570   1.884   4.310   2.292
99311W        W71571  17.566  15.250   0.376
99312W        W71572  26.179  29.442   1.764
99313W        W71573  38.003   0.461   4.144
99314W        W71574  38.943  43.412  10.505
99315W        W71575   7.401   9.698  13.422
99316W        W71576  37.492  16.704  12.478
99317W        W71577  16.289   8.293   2.801
99318W        W71578  38.900  24.550  13.013
99319W        W71579  26.659   1.798  11.470
99320W        W71580   8.356  18.261  14.821
99321W        W71581  28.460   1.419   2.898
99322W        W71582  39.535  38.926  11.528
99323W        W71583  28.059  22.556  11.532
99324W        W71584  12.205  41.365  14.854
99325W        W71585  22.643   9.269  14.364
99326W        W71586   3.237   1.363  14.381
99327W        W71587  19.780  33.024  12.828
99328W        W71588   6.860   6.877   3.281
99329W        W71589  25.970   8.339  12.341
99330W        W71590  43.021  37.564   1.885
99331W        W71591  13.824  43.351  13.477
99332W        W71592  10.761  13.228   4.281
99333W        W71593  44.920  29.470  11.573
99334W        W71594  18.059  11.147   3.782
99335W        W71595  40.046   8.368  11.903
99336W        W71596   1.435  22.166   1.357
99337W        W71597  17.079  34.917   1.768
99338W        W71598   7.828   1.328   1.720
99339W        W71599  22.601  32.533  12.347
99340W        W71600  26.098  33.116  11.089
99341W        W71601  38.476   8.206  12.542
99342W        W71602  21.186  23.698   3.195
99343W        W71603  17.128  30.437  12.855
99344W        W71604  31.026  31.576  14.451
99345W        W71605  23.665  40.967   0.900
99346W        W71606  33.925  23.508   3.825
99347W        W71607  31.052  32.517   2.406
99348W        W71608  44.265  28.482  11.097
99349W        W71609  39.953  18.286   2.820
99350W        W71610  41.818  14.680   4.179
99351W        W71611  27.566  38.337  14.966
99352W        W71612  36.892  19.629   3.699
99353W        W71613  14.719  27.465   0.302
99354W        W71614  43.000  11.714   1.298
99355W        W71615   0.445  20.076   3.365
99356W        W71616   1.934  12.723  13.963
99357W        W71617  15.306  30.631  14.389
99358W        W71618  36.481   4.281  12.971
99359W        W71619  26.036  25.983   1.764
99360W        W71620  16.128  41.487   3.353
99361W        W71621  10.766   4.275  13.053
99362W        W71622  37.411   0.325   2.672
99363W        W71623  44.429  34.379  13.004
99364W        W71624  35.058  16.119   4.198
99365W        W71625  17.670  27.958  13.493
99366W        W71626   1.453  10.171  13.896
99367W        W71627  22.180  34.535   3.656
99368W        W71628  37.020  20.100  10.641
99369W        W71629  35.995  24.076  12.870
99370W        W71630  32.459  30.565  14.844
99371W        W71631  19.065  22.089   4.280
99372W        W71632  34.108   7.285   3.727
99373W        W71633  30.919  11.663   0.363
99374W        W71634   3.344  26.990  12.031
99375W        W71635   4.721   3.380  11.379
99376W        W71636  34.423  42.803   3.343
99377W        W71637  35.967  37.925  11.007
99378W        W71638  40.854   2.383  14.940
99379W        W71639   3.306  35.499   3.743
99380W        W71640  29.480   1.791  10.575
99381W        W71641  18.748  40.489   0.824
99382W        W71642  42.833   0.857  12.523
99383W        W71643  16.295  35.987   2.881
99384W        W71644  22.675  30.109   3.748
99385W        W71645  13.607   5.236  11.995
99386W        W71646  44.839  35.567  13.431
99387W        W71647  20.720  42.299   0.922
99388W        W71648  25.596  36.868  13.982
99389W        W71649  39.896  34.430  12.557
99390W        W71650  33.617  24.022  14.988
99391W        W71651  19.649  31.493   4.604
99392W        W71652  33.424  32.479  10.426
99393W        W71653  21.654   5.355  14.821
99394W        W71654  32.016  11.743   4.350
99395W        W71655   0.463   4.374  12.050
99396W        W71656  17.577  23.670   2.699
99397W        W71657  19.604  23.575   0.950
99398W        W71658  36.585  38.932   1.861
99399W        W71659  22.120  23.184  11.961
99400W        W71660  34.579  20.730   1.441
99401W        W71661   8.880   7.348  12.533
99402W        W71662  34.499  24.620  11.406
99403W        W71663   7.371  43.327  14.845
99404W        W71664  27.992  20.730  11.487
99405W        W71665   4.292  20.732  12.010
99406W        W71666  17.139   9.294   1.873
99407W        W71667  37.036  16.731   3.714
99408W        W71668  10.361  39.917  14.984
99409W        W71669  14.144  28.612  11.487
99410W        W71670   0.904  40.541   3.656
99411W        W71671  38.428  31.963  14.335
99412W        W71672  40.373  29.174   1.886
99413W        W71673   4.390  16.200  11.001
99414W        W71674   4.710  34.988  13.891
99415W        W71675  27.117  34.074   0.853
99416W        W71676   7.737   6.907   4.257
99417W        W71677  37.029  34.591  12.486
99418W        W71678  13.701  26.587   4.711
99419W        W71679  34.989  37.025  14.477
99420W        W71680  21.098  32.102   1.892
99421W        W71681  22.629  30.932  11.605
99422W        W71682  36.469  38.974  13.339
99423W        W71683  41.500  24.583   3.714
99424W        W71684   8.213  29.943   3.328
99425W        W71685   5.790   2.953   2.737
99426W        W71686  29.488  40.368   0.958
99427W        W71687  44.866  41.361   2.807
99428W        W71688  14.596  23.572   3.261
99429W        W71689  31.110   1.826  11.522
99430W        W71690  33.894  18.271   1.769
99431W        W71691  29.949   7.789   4.193
99432W        W71692  20.158  41.841  12.845
99433W        W71693  10.343   6.191  11.055
99434W        W71694  25.998  24.007  11.094
99435W        W71695  21.603  31.463  10.511
99436W        W71696  20.172  32.490  11.113
99437W        W71697   0.263   1.819   3.869
99438W        W71698  29.518  35.951   0.859
99439W        W71699  31.432  27.179   3.824
99440W        W71700  20.090  42.403  12.475
99441W        W71701  32.445  18.633  11.110
99442W        W71702  39.380  24.105   4.727
99443W        W71703   3.742   9.158  12.984
99444W        W71704  43.366   4.245   1.722
99445W        W71705  27.991  40.940  14.429
99446W        W71706  35.412  28.662   1.870
99447W        W71707   8.685   0.463   1.764
99448W        W71708  37.339   6.360   2.847
99449W        W71709   0.265  13.190  14.452
99450W        W71710   3.394  36.971  10.889
99451W        W71711  34.059  43.305  14.369
99452W        W71712   4.806  39.368   2.384
99453W        W71713  33.427  27.522   4.135
99454W        W71714  18.073  37.526   2.752
99455W        W71715  30.019  30.417   4.789
99456W        W71716   6.352   8.365   2.815
99457W        W71717   4.897  25.024   4.714
99458W        W71718  25.124  13.188   3.298
99459W        W71719  36.437  44.451   1.729
99460W        W71720  32.566  39.471   3.274
99461W        W71721  16.792  27.483  14.990
99462W        W71722  11.325   2.818  13.330
99463W        W71723  17.601  31.151   0.322
99464W        W71724  42.526  32.464  12.547
99465W        W71725  37.435  23.127   1.700
99466W        W71726  10.335  32.035  11.596
99467W        W71727  27.683  18.095  10.426
99468W        W71728  24.585  34.964  13.347
99469W        W71729   0.406  40.473   2.355
99470W        W71730   6.769   3.725  12.451
99471W        W71731  24.196  43.780   0.964
99472W        W71732  36.511   9.882  14.483
99473W        W71733   6.711  35.495   2.823
99474W        W71734  41.953  35.590  11.950
99475W        W71735  15.225  13.274   0.308
99476W        W71736  12.315  35.570  10.979
99477W        W71737  23.182  43.936  12.381
99478W        W71738  34.508  13.677  12.431
99479W        W71739  24.179  14.215   0.340
99480W        W71740  15.738   0.818   1.868
99481W        W71741  27.581  12.737   3.289
99482W        W71742  38.050  22.162  12.464
99483W        W71743  35.601   0.862   2.836
99484W        W71744  15.646  35.397   4.313
99485W        W71745  42.976  20.130   1.354
99486W        W71746  42.360  13.348  11.084
99487W        W71747  31.532  39.375  12.067
99488W        W71748   6.767  13.168  10.590
99489W        W71749  29.120  15.185  12.841
99490W        W71750  41.312   6.875  11.855
99491W        W71751  43.840  25.577   0.757
99492W        W71752  29.947  17.113  11.613
99493W        W71753   2.244  40.416   1.793
99494W        W71754  26.110  13.303   0.286
99495W        W71755  25.708  24.595   1.820
99496W        W71756  39.453  26.056   1.788
99497W        W71757  11.160  17.684   1.322
99498W        W71758  22.561  33.595   4.782
99499W        W71759  27.529  17.233  11.897
99500W        W71760   9.343  19.764  10.950
99501W        W71761  27.540  40.032  13.428
99502W        W71762  38.044  36.398  11.402
99503W        W71763   5.720  12.187   3.280
99504W        W71764   0.913  19.687   5.216
99505W        W71765  15.176  24.600  14.946
99506W        W71766   4.285  37.943   2.756
99507W        W71767  18.072  33.387  10.593
99508W        W71768  19.555   0.257   2.781
99509W        W71769  11.867  10.175   0.924
99510W        W71770  40.911  27.051  11.579
99511W        W71771   4.318   0.307  13.336
99512W        W71772  20.591   0.474  12.565
99513W        W71773  29.448  40.310   2.705
99514W        W71774   4.887  13.187   2.705
99515W        W71775  26.696  38.527   1.727
99516W        W71776  37.983   7.374   3.266
99517W        W71777  44.793  20.765  11.085
99518W        W71778  34.417  38.928   2.297
99519W        W71779  41.406  24.639  14.486
99520W        W71780   6.715  31.556   4.771
99521W        W71781   8.748  39.519  13.540
99522W        W71782   2.796  30.023  10.636
99523W        W71783  28.498  44.464   3.242
99524W        W71784  11.677  28.551  10.537
99525W        W71785  15.598  14.191  14.315
99526W        W71786   1.399  40.478   0.348
99527W        W71787  10.329  19.135  11.564
99528W        W71788  26.478  44.941   4.337
99529W        W71789  41.859   7.408  13.395
99530W        W71790  44.466  25.555   1.293
99531W        W71791  40.346  39.021  14.951
99532W        W71792  43.882   4.760   2.277
99533W        W71793  23.640  33.980  13.413
99534W        W71794  32.421  21.624  14.310
99535W        W71795  14.290  39.026   3.677
99536W        W71796  11.147  33.986  11.529
99537W        W71797  32.521  37.504  11.970
99538W        W71798  27.055  35.941  13.334
99539W        W71799  29.089  38.819  11.483
99540W        W71800  38.411  24.983   4.165
99541W        W71801  28.066  44.856   0.790
99542W        W71802   3.952  24.579   1.228
99543W        W71803  23.726  43.480   2.182
99544W        W71804  24.212  24.975  14.479
99545W        W71805  26.552  20.677  14.785
99546W        W71806  38.910  29.085  10.447
99547W        W71807   2.824  21.554   1.308
99548W        W71808  33.921  41.948  10.952
99549W        W71809  29.500  41.401  11.432
99550W        W71810  42.405  35.955   4.141
99551W        W71811  25.069   3.341   2.776
99552W        W71812  37.913  35.091  11.970
99553W        W71813   6.865  17.582  14.383
99554W        W71814   1.910  13.762   1.411
99555W        W71815  21.049  24.024  13.529
99556W        W71816  41.922   0.814   0.831
99557W        W71817  32.988  29.928  12.356
99558W        W71818  36.920  19.686  12.954
99559W        W71819  35.468  22.532  11.072
99560W        W71820  38.960  17.193  13.419
99561W        W71821  42.975   2.765   0.416
99562W        W71822   1.950  33.510   2.691
99563W        W71823  41.298  12.774   4.322
99564W        W71824  11.327  25.603   3.272
99565W        W71825  38.921   6.806   5.218
99566W        W71826   2.451  21.109  11.878
99567W        W71827  31.535   3.790   4.781
99568W        W71828  20.538  33.612   0.444
99569W        W71829  18.753   5.251   9.550
99570W        W71830  19.635  18.068   4.290
99571W        W71831   2.355  34.585   2.850
99572W        W71832  24.222   7.241   5.225
99573W        W71833  40.410   2.312  14.515
99574W        W71834   0.980  27.146   0.293
99575W        W71835  36.847  38.027  13.495
99576W        W71836  24.497  35.411   0.351
99577W        W71837  35.932   8.810  11.876
99578W        W71838   8.382  33.507   1.815
99579W        W71839  34.107  36.944   3.803
99580W        W71840  41.835  12.615  10.492
99581W        W71841  30.630  37.988  13.011
99582W        W71842  28.551  20.718  12.009
99583W        W71843  27.000  21.699   0.922
99584W        W71844  43.405  35.515   0.943
99585W        W71845  10.255  40.428   0.386
99586W        W71846  12.295  11.368  10.553
99587W        W71847  18.250  42.843  13.510
99588W        W71848  35.946  14.106   0.731
99589W        W71849  38.916  17.775  13.321
99590W        W71850  39.864  16.211  11.435
99591W        W71851  29.529  31.972   2.355
99592W        W71852  20.125  30.462   0.313
99593W        W71853  16.583  27.597   3.175
99594W        W71854  14.292  16.244   3.220
99595W        W71855  12.275  39.948   3.778
99596W        W71856  13.687  26.151   3.675
99597W        W71857  10.313  24.160   1.409
99598W        W71858  30.941  39.417  10.928
99599W        W71859   9.738  12.200  10.545
99600W        W71860  40.317  36.451   3.376
99601W        W71861   1.480  29.053  12.975
99602W        W71862   1.968  12.127  14.419
99603W        W71863  27.136  29.533   0.408
99604W        W71864  26.152   1.253  14.487
99605W        W71865  31.479  12.236   1.393
99606W        W71866  40.373   3.312   0.840
99607W        W71867  11.740  39.060   0.255
99608W        W71868  30.919   4.398  10.534
99609W        W71869  18.288  18.577   4.127
99610W        W71870  37.032   9.214  12.997
99611W        W71871  11.182  25.612   1.379
99612W        W71872   2.303  18.234   0.929
99613W        W71873  32.555   1.339   1.390
99614W        W71874  44.259   1.852   0.794
99615W        W71875  33.051  26.626   0.965
99616W        W71876  18.701   1.393   0.266
99617W        W71877  41.438   5.716   4.306
99618W        W71878  11.704  30.134  14.884
99619W        W71879   1.390   0.982   3.796
99620W        W71880  16.316  42.366  13.461
99621W        W71881   4.882   1.850   4.603
99622W        W71882  37.491   4.401  12.410
99623W        W71883  16.609  36.582  11.949
99624W        W71884  28.180   7.287  11.089
99625W        W71885  15.604  16.232   3.714
99626W        W71886  22.137   4.703   3.160
99627W        W71887  17.663  28.939  12.448
99628W        W71888  10.701   6.901   0.815
99629W        W71889   2.226   9.660   4.738
99630W        W71890  20.160  38.533  14.450
99631W        W71891  10.865  25.047   0.735
99632W        W71892  38.951  18.717  12.914
99633W        W71893  13.765   8.723   4.722
99634W        W71894  24.141  25.714  10.913
99635W        W71895  16.136  33.951   0.243
99636W        W71896  34.084  16.156  12.451
99637W        W71897  42.488   7.364   1.730
99638W        W71898   4.309  18.069  14.488
99639W        W71899  31.929  13.629  10.513
99640W        W71900  23.136  24.208  10.618
99641W        W71901  29.167  18.058   4.140
99642W        W71902   6.858   0.807   2.893
99643W        W71903  17.248  43.820   2.337
99644W        W71904   0.954  26.077   3.258
99645W        W71905  13.201  32.628  13.372
99646W        W71906   1.737  20.036   2.277
99647W        W71907  34.911  32.103   3.270
99648W        W71908  24.572  23.995  14.783
99649W        W71909  32.390  25.117  13.400
99650W        W71910  28.435   7.232  14.447
99651W        W71911  34.596  18.071   5.224
99652W        W71912  30.619   7.341  13.835
99653W        W71913  39.862   7.411  13.492
99654W        W71914  19.182  22.249  11.045
99655W        W71915  22.533   8.720  10.533
99656W        W71916  11.261  14.287   3.344
99657W        W71917  11.660   1.757   0.941
99658W        W71918  41.028  20.684  14.879
99659W        W71919  33.566  14.743   1.373
99660W        W71920  18.567  42.308   1.801
99661W        W71921   1.740  36.994   3.188
99662W        W71922  36.937  35.027  14.448
99663W        W71923  41.881   6.252  14.468
99664W        W71924   1.914  33.109  12.063
99665W        W71925   2.230  33.946  13.459
99666W        W71926  11.213  10.251   4.208
99667W        W71927   3.244  28.996   3.308
99668W        W71928   6.195  31.927  13.900
99669W        W71929   1.869  27.104   1.427
99670W        W71930  16.309  28.131  12.905
99671W        W71931  30.125  12.239  12.477
99672W        W71932  10.169   9.278  10.600
99673W        W71933  25.594  18.202   4.796
99674W        W71934  21.169  42.009   3.145
99675W        W71935  27.094  11.793  11.082
99676W        W71936  42.520  17.683   1.853
99677W        W71937   4.226   7.327  13.834
99678W        W71938  24.505  24.521  11.575
99679W        W71939  41.910  26.507  13.819
99680W        W71940  29.516  42.946   4.794
99681W        W71941   2.449  37.368   1.328
99682W        W71942  35.039  32.601   4.310
99683W        W71943   5.717  27.567   3.217
99684W        W71944  12.327  37.382  12.359
99685W        W71945  13.299   7.732  12.462
99686W        W71946  37.491  36.070   4.294
99687W        W71947  12.649   8.256   0.323
99688W        W71948  23.733  34.072  12.350
99689W        W71949  24.201  38.945   4.604
99690W        W71950   8.755  30.567  13.831
99691W        W71951  21.240  26.125   4.692
99692W        W71952  29.936  27.505   0.928
99693W        W71953  28.530  28.977   0.260
99694W        W71954   9.861   5.423  11.573
99695W        W71955  14.101  29.088  11.580
99696W        W71956  13.790  19.542  14.967
99697W        W71957  37.053   7.793  11.905
99698W        W71958  30.916   4.350   4.308
99699W        W71959  25.513  44.978   3.159
99700W        W71960  26.540  28.543   1.723
99701W        W71961   6.300  23.137   2.317
99702W        W71962  22.010  33.470  14.284
99703W        W71963  29.610   7.756   4.717
99704W        W71964  23.694  29.529   0.292
99705W        W71965  31.628  35.001  10.632
99706W        W71966  31.990  26.158   5.277
99707W        W71967   3.717  34.894  12.856
99708W        W71968  11.812  20.116   0.347
99709W        W71969   3.851  36.006   1.916
99710W        W71970  17.662  38.458  12.554
99711W        W71971  41.372  27.530  12.001
99712W        W71972  37.360  21.218   3.855
99713W        W71973  43.948  40.495  13.813
99714W        W71974  33.618  28.625   0.930
99715W        W71975  14.752  37.864  10.633
99716W        W71976  22.150   8.792  14.336
99717W        W71977   2.762  33.104   4.154
99718W        W71978  22.137  24.005   3.350
99719W        W71979   1.315  36.095  10.454
99720W        W71980  32.113  23.191  12.028
99721W        W71981  41.018  44.467  12.349
99722W        W71982  20.602  24.168   3.369
99723W        W71983  19.553  29.010  14.886
99724W        W71984  12.137  25.518   4.260
99725W        W71985   4.768   2.316  10.537
99726W        W71986  44.896   8.782  14.925
99727W        W71987   2.426  34.450   1.764
99728W        W71988   0.752   2.918  14.845
99729W        W71989   1.958  31.483   3.729
99730W        W71990  38.534  36.591   0.438
99731W        W71991  38.027  30.644  12.032
99732W        W71992  19.168  39.055  13.939
99733W        W71993   7.683  35.365  14.511
99734W        W71994  21.181   3.405   0.916
99735W        W71995  41.992  31.501   0.409
99736W        W71996  10.819  37.880  13.506
99737W        W71997  19.135  28.100   4.341
99738W        W71998  17.119  40.458   4.115
99739W        W71999   7.819  25.027   4.267
99740W        W72000  13.650   9.212  14.993
99741W        W72001  24.656  13.678  10.619
99742W        W72002   6.360  42.517   0.340
99743W        W72003   6.776  15.623   1.273
99744W        W72004  36.056  13.304  13.835
99745W        W72005   4.449  22.193  14.421
99746W        W72006  35.559  38.501  11.567
99747W        W72007  16.805  27.509  12.867
99748W        W72008  16.745  17.196  10.543
99749W        W72009  14.670   0.342  13.502
99750W        W72010  17.301  12.805  14.439
99751W        W72011  28.577  44.919   2.790
99752W        W72012  23.025  36.586  13.535
99753W        W72013  44.951  26.490  14.887
99754W        W72014  26.492  36.860   3.222
99755W        W72015  20.659  24.569   0.476
99756W        W72016   5.805   0.743   0.822
99757W        W72017  38.453  33.433  12.921
99758W        W72018  44.788   7.888   1.226
99759W        W72019  28.115   0.918  14.408
99760W        W72020  11.707  17.788  12.446
99761W        W72021  19.245  34.981   1.311
99762W        W72022  10.828  41.390   3.800
99763W        W72023  28.444   5.339  11.986
99764W        W72024   0.766   6.422  13.485
99765W        W72025   7.344  26.077   9.587
99766W        W72026  15.750   2.872   4.678
99767W        W72027  21.578   8.708  13.392
99768W        W72028  19.079   5.257   4.329
99769W        W72029  24.094   0.377   1.312
99770W        W72030   2.885   0.442   1.213
99771W        W72031   3.869  16.143  14.386
99772W        W72032  19.170  44.336  10.431
99773W        W72033  18.598   2.438  13.501
99774W        W72034  27.619  25.548   0.321
99775W        W72035   8.857  23.575   0.772
99776W        W72036   1.476  11.228   2.856
99777W        W72037   9.270  43.938   1.398
99778W        W72038   3.338  13.845  14.478
99779W        W72039   9.859  19.242  11.965
99780W        W72040  22.563  11.740   4.235
99781W        W72041  16.235   9.355   0.746
99782W        W72042   9.682  31.992  13.307
99783W        W72043  15.303   7.177   0.912
99784W        W72044  15.813  22.084   1.876
99785W        W72045  34.980  32.633  12.519
99786W        W72046  16.750  14.653  11.439
99787W        W72047  24.546  22.547  14.825
99788W        W72048  33.579   5.381   5.248
99789W        W72049  34.996   6.819  13.386
99790W        W72050  40.508   3.334  11.119
99791W        W72051   3.283   9.256   4.146
99792W        W72052  44.500   8.166  10.892
99793W        W72053  40.421  20.094  12.841
99794W        W72054   9.723  35.035  13.449
99795W        W72055   3.341  28.502  10.448
99796W        W72056  26.006   0.805  11.968
99797W        W72057  40.895  14.319   2.288
99798W        W72058  13.800  16.730  14.886
99799W        W72059  20.644  17.560  11.065
99800W        W72060   9.217  18.292   3.799
99801W        W72061  10.807  25.028  14.484
99802W        W72062  34.408  28.074   2.247
99803W        W72063  43.797  28.607   4.834
99804W        W72064  44.371  35.898  11.531
99805W        W72065  19.242   1.921   4.155
99806W        W72066  36.915  10.741  13.011
99807W        W72067  24.034  35.491  13.344
99808W        W72068   4.392  27.529   2.215
99809W        W72069  31.596   1.283  10.923
99810W        W72070  13.651  26.528  11.916
99811W        W72071  14.690  42.936   4.789
99812W        W72072  15.191  35.050  13.455
99813W        W72073  33.527  44.328   4.680
99814W        W72074  25.150  35.413  12.347
99815W        W72075   7.892  42.884  13.953
99816W        W72076  32.969  36.958  10.974
99817W        W72077  41.367  40.847  11.435
99818W        W72078  25.669  11.329  13.514
99819W        W72079  12.774   2.880   3.360
99820W        W72080  17.783  33.019   4.152
99821W        W72081  19.192   8.192   2.181
99822W        W72082  33.546  18.223  11.878
99823W        W72083  20.669  37.429   0.932
99824W        W72084  12.313  24.144  11.564
99825W        W72085  41.011  28.502  12.945
99826W        W72086   0.860  31.627   0.460
99827W        W72087  35.540  17.303  11.418
99828W        W72088  13.790  23.644   0.301
99829W        W72089   0.981   7.747  13.035
99830W        W72090   7.365   5.383  11.009
99831W        W72091  34.992  44.795   4.716
99832W        W72092  23.494  43.941  12.565
99833W        W72093  17.616  10.713  12.000
99834W        W72094  40.539  37.907   1.215
99835W        W72095  38.901   2.840  14.929
99836W        W72096  17.582  18.764  12.997
99837W        W72097   2.392  22.566   0.343
99838W        W72098   3.389   4.818  11.424
99839W        W72099  27.568  15.314   2.243
99840W        W72100  32.983  21.096   2.291
99841W        W72101  42.910   9.335  14.803
99842W        W72102   2.949  34.479  12.483
99843W        W72103   4.805  28.111   3.852
99844W        W72104  10.849   2.418  12.489
99845W        W72105  35.044   7.841  10.923
99846W        W72106   0.485  29.604  13.343
99847W        W72107  14.680  39.848   5.134
99848W        W72108  26.580  23.665  10.463
99849W        W72109  11.776  33.466   0.798
99850W        W72110  35.558  15.138   1.431
99851W        W72111  40.006  17.645  11.535
99852W        W72112  26.558  21.619   3.233
99853W        W72113   9.799  43.332   0.760
99854W        W72114  28.073   7.196  10.523
99855W        W72115  20.696  21.738   3.300
99856W        W72116  19.099  23.532  14.461
99857W        W72117  19.574  17.272  13.893
99858W        W72118  44.468  31.990  10.965
99859W        W72119  38.953  19.703  11.867
99860W        W72120  34.492  43.341   2.762
99861W        W72121  27.508  34.549  14.988
99862W        W72122  34.516   2.875  11.044
99863W        W72123  32.970  12.695  10.920
99864W        W72124  38.993   6.318   3.748
99865W        W72125   3.856  36.095  12.574
99866W        W72126  31.465   0.917   3.686
99867W        W72127  36.454  18.704  13.335
99868W        W72128  20.680  43.956  13.943
99869W        W72129  37.057  16.678  10.555
99870W        W72130  12.669  33.980  14.431
99871W        W72131  24.116  12.260   2.194
99872W        W72132  34.018  15.321   4.326
99873W        W72133  20.046  26.464  12.517
99874W        W72134  24.022  16.289   2.828
99875W        W72135  27.034  11.781   1.224
99876W        W72136  15.093  27.050  12.504
99877W        W72137  33.116  20.571   2.313
99878W        W72138  41.961  18.628   1.744
99879W        W72139  12.127  10.190  13.397
99880W        W72140  37.354  31.461  13.428
99881W        W72141  38.544  18.063   0.290
99882W        W72142   6.754  32.011  11.977
99883W        W72143  31.478  13.348  13.454
99884W        W72144  42.472  24.006   3.766
99885W        W72145  16.746  22.090   1.404
99886W        W72146  12.351  42.033   1.864
99887W        W72147   4.261  28.088   3.185
99888W        W72148   3.292   7.270   2.241
99889W        W72149  21.604  30.547  12.343
99890W        W72150  12.747  30.512   3.167
99891W        W72151  11.754  30.549  10.058
99892W        W72152  20.054   8.216  13.513
99893W        W72153   8.712  12.350   0.829
99894W        W72154  33.504  43.822  11.115
99895W        W72155  33.590  11.674   2.250
99896W        W72156  28.566  14.615  11.040
99897W        W72157  11.628  44.348  10.527
99898W        W72158   2.294  16.606  12.519
99899W        W72159  27.477  14.266  11.501
99900W        W72160   7.763  11.342   9.964
99901W        W72161   8.270  34.990   0.900
99902W        W72162  16.241  32.478   1.897
99903W        W72163  26.460  16.766   4.628
99904W        W72164   2.283   6.242   0.877
99905W        W72165   0.762  17.090  12.011
99906W        W72166   7.343  11.649  14.450
99907W        W72167  32.583  22.200  14.409
99908W        W72168  29.976  23.681   1.420
99909W        W72169  19.233  21.710   4.288
99910W        W72170  33.542  14.202  11.464
99911W        W72171  24.624  40.391   1.350
99912W        W72172   8.816  18.786  11.602
99913W        W72173  11.796  41.951   2.701
99914W        W72174  44.466  16.163  13.034
99915W        W72175  40.969  26.060  14.980
99916W        W72176   9.313  28.178   3.249
99917W        W72177  31.442  30.051   4.201
99918W        W72178   7.832  10.171   2.396
99919W        W72179   4.270  31.620  13.533
99920W        W72180  36.509  44.390  11.127
99921W        W72181  25.054  37.367  14.438
99922W        W72182  13.145  27.673   2.814
99923W        W72183  18.248  32.885  12.006
99924W        W72184  40.883   4.761   4.774
99925W        W72185  34.514  33.941  13.346
99926W        W72186  16.184  41.825   2.376
99927W        W72187  36.479  24.126   2.336
99928W        W72188   9.706  31.998   1.272
99929W        W72189  10.789  18.570  10.495
99930W        W72190   1.888  30.084   4.662
99931W        W72191   6.766  38.061   0.328
99932W        W72192  24.581   1.857   0.883
99933W        W72193  42.479  14.597   3.174
99934W        W72194  20.067  29.985  10.643
99935W        W72195  39.334  16.289  12.577
99936W        W72196  18.750  27.101   2.346
99937W        W72197  29.559  21.070   0.950
99938W        W72198  16.630   3.217  12.999
99939W        W72199  24.528  25.471   1.352
99940W        W72200   0.774  20.711  11.869
99941W        W72201   7.747  31.069  12.541
99942W        W72202  38.545   3.738   3.835
99943W        W72203  37.339   9.820   9.542
99944W        W72204   6.267  34.003  10.527
99945W        W72205   1.249  36.590   3.714
99946W        W72206  36.449  24.499   3.300
99947W        W72207  23.239  28.574   5.670
99948W        W72208   5.849  39.934   3.274
99949W        W72209  21.145  27.127   1.445
99950W        W72210  44.348  13.121   0.736
99951W        W72211   8.288  19.558   1.396
99952W        W72212  39.052  10.340   1.255
99953W        W72213  43.842  25.073  14.814
99954W        W72214  34.409  24.587  10.953
99955W        W72215   4.395  32.028   2.775
99956W        W72216  30.632   7.250  12.347
99957W        W72217  21.641  30.569   1.418
99958W        W72218  27.004  42.466   0.795
99959W        W72219  37.990  27.982  10.509
99960W        W72220  19.175  30.539  10.961
99961W        W72221  13.614   5.389  10.918
99962W        W72222  21.611  15.091  11.883
99963W        W72223  11.838  22.097  13.463
99964W        W72224  42.005  16.096   1.762
99965W        W72225   9.181  41.950   0.814
99966W        W72226  38.439  25.002  11.039
99967W        W72227   5.263   9.344   0.820
99968W        W72228  36.570   2.873  14.844
99969W        W72229   5.775  24.585  14.999
99970W        W72230  34.443  39.543   0.885
99971W        W72231  42.786   9.860   1.446
99972W        W72232  35.592  10.786  10.644
99973W        W72233  32.545  44.458  11.102
99974W        W72234  10.152  34.462   5.316
99975W        W72235  42.976  28.495  14.423
99976W        W72236  42.839  25.652  14.024
99977W        W72237   4.845  20.630  12.938
99978W        W72238  22.215  37.860  14.934
99979W        W72239  33.085  28.094   4.696
99980W        W72240   7.349  31.604  14.513
99981W        W72241   1.745  39.938  10.628
99982W        W72242  34.055  20.119  13.874
99983W        W72243  17.257  13.748   2.190
99984W        W72244  35.488   1.286  14.957
99985W        W72245  17.574  28.003   2.693
99986W        W72246   4.940   6.297   3.250
99987W        W72247  26.075   6.271  14.443
99988W        W72248  27.451  31.612   4.216
99989W        W72249  40.376  20.101  11.485
99990W        W72250  23.683   5.794  12.931
99991W        W72251  44.935  36.476  13.929
99992W        W72252  18.167   2.356  10.925
99993W        W72253  39.386   3.869   4.799
99994W        W72254   0.274  14.685   2.694
99995W        W72255  42.351  44.430  10.549
99996W        W72256  29.080  26.531   0.458
99997W        W72257  15.779   1.872   4.723
99998W        W72258   8.896  40.884  14.406
99999W        W72259  12.739  13.286  12.882
    0W        W72260   7.749  16.225   0.833
    1W        W72261  44.492  11.786  14.922
    2W        W72262  35.893  24.038   0.734
    3W        W72263  25.523  36.561   1.326
    4W        W72264   2.849  40.992   0.810
    5W        W72265  22.531  13.177   0.828
    6W        W72266  12.307   7.228   1.335
    7W        W72267  40.871   9.269   3.186
    8W        W72268  29.066   4.921  12.854
    9W        W72269   7.767  44.419   9.992
   10W        W72270  16.628   5.206  12.393
   11W        W72271   6.338  41.964   2.828
   12W        W72272  23.595   2.835  11.937
   13W        W72273   5.805  29.542   0.359
   14W        W72274  32.124  43.388   0.759
   15W        W72275  28.990  31.639  14.381
   16W        W72276  10.876  11.821   4.182
   17W        W72277  22.110  17.275  11.065
   18W        W72278  32.987  34.495  11.482
   19W        W72279  44.389  26.991   2.694
   20W        W72280  34.376  12.124  11.081
   21W        W72281  10.187  28.153  14.321
   22W        W72282  13.643  18.107   1.392
   23W        W72283  10.194   5.815   4.778
   24W        W72284   6.845  31.530  11.420
   25W        W72285  20.171  30.456   4.250
   26W        W72286  41.856  37.338  12.514
   27W        W72287  12.733  27.009   3.707
   28W        W72288  22.565  19.151   0.426
   29W        W72289  32.617  36.867   1.915
   30W        W72290   2.250  20.645   3.840
   31W        W72291  22.529  24.087   2.823
   32W        W72292  30.471  21.523  14.958
   33W        W72293  40.860  12.164   0.378
   34W        W72294  37.447  40.413   1.815
   35W        W72295   9.253  24.642  12.386
   36W        W72296  13.278  21.587   3.860
   37W        W72297  35.450  12.832   0.377
   38W        W72298  28.666  35.916   4.304
   39W        W72299  28.119   5.789  14.858
   40W        W72300   8.303  42.845   4.247
   41W        W72301  15.129  30.539   0.362
   42W        W72302  10.773  36.348  14.835
   43W        W72303  42.364  15.758  12.978
   44W        W72304   0.773  24.153  12.998
   45W        W72305   8.690   2.942   4.713
   46W        W72306  22.597  39.411   2.725
   47W        W72307   2.358  26.150   3.697
   48W        W72308  13.351  37.961  13.038
   49W        W72309  25.163  41.016   4.267
   50W        W72310  21.702  30.547   2.770
   51W        W72311  12.736  22.704   3.749
   52W        W72312  34.501  14.701  14.496
   53W        W72313  23.210  14.109  12.350
   54W        W72314  15.125   4.351  13.382
   55W        W72315  40.921   6.848  11.116
   56W        W72316  20.760  43.972  13.430
   57W        W72317  13.804   6.887   0.289
   58W        W72318   0.893  32.400  14.430
   59W        W72319  43.507  34.865  11.128
   60W        W72320   8.241  33.964   4.783
   61W        W72321  34.567   0.838   0.448
   62W        W72322   8.307  20.165   0.437
   63W        W72323  30.938  30.646   1.260
   64W        W72324  37.859  41.864   3.860
   65W        W72325   7.282  22.621   0.861
   66W        W72326   4.293  32.445  12.342
   67W        W72327  23.001  22.647   0.257
   68W        W72328  21.552   5.239   1.363
   69W        W72329   4.207  29.020   4.133
   70W        W72330  11.669  31.076  12.850
   71W        W72331  18.600  42.486  13.525
   72W        W72332  11.861  10.313  14.903
   73W        W72333  11.206  38.972  14.451
   74W        W72334  44.854  38.521  12.538
   75W        W72335   2.281  32.917  10.895
   76W        W72336  29.553   8.339  10.502
   77W        W72337  42.287   0.769  11.044
   78W        W72338  31.914  18.756   4.682
   79W        W72339  27.588  29.958  10.945
   80W        W72340  30.554  31.426   4.113
   81W        W72341  34.938  44.377   2.709
   82W        W72342   8.760  39.525   1.264
   83W        W72343   8.759  32.528  12.402
   84W        W72344  17.771   8.172  14.486
   85W        W72345   6.324  10.318  13.857
   86W        W72346  39.443  33.073  14.515
   87W        W72347  11.679  39.892  14.844
   88W        W72348  21.719  27.961   4.835
   89W        W72349  10.644  16.205   4.336
   90W        W72350  13.658  17.604  13.871
   91W        W72351  22.516  13.699  14.970
   92W        W72352  11.196  18.169   4.783
   93W        W72353  11.809  37.340  11.010
   94W        W72354  38.007  15.282  14.459
   95W        W72355  37.428   1.387   0.295
   96W        W72356   0.367  12.843  10.597
   97W        W72357  24.201  43.295  10.551
   98W        W72358  31.931  35.030  14.021
   99W        W72359  19.119   1.820   3.676
  100W        W72360  12.735  21.600   3.303
  101W        W72361  34.512  39.031  14.400
  102W        W72362  30.523  26.187   3.671
  103W        W72363  14.117  18.156   0.423
  104W        W72364  30.458  21.620   0.378
  105W        W72365  30.614  17.145  11.088
  106W        W72366  42.348   4.424   1.697
  107W        W72367  15.267   7.368  10.949
  108W        W72368   5.787  41.952   4.275
  109W        W72369   8.835   9.808  13.525
  110W        W72370  18.099  27.457   0.917
  111W        W72371  10.674  40.480  13.470
  112W        W72372  43.303   3.807   0.806
  113W        W72373  26.672  15.725  12.845
  114W        W72374  14.790  11.645   4.829
  115W        W72375  36.590   2.907  11.031
  116W        W72376  34.096  15.705  11.465
  117W        W72377  36.490  12.649   0.801
  118W        W72378  18.144  22.682  10.542
  119W        W72379  11.270  28.174  14.862
  120W        W72380  16.117  11.684   4.682
  121W        W72381  13.751  28.961  13.047
  122W        W72382  17.686  36.007  13.355
  123W        W72383  43.921   2.906  10.421
  124W        W72384   4.906  25.069   5.106
  125W        W72385  25.171  26.191  13.390
  126W        W72386  13.340   2.465  12.048
  127W        W72387  17.193  10.226  10.483
  128W        W72388  20.647   5.789  13.882
  129W        W72389   6.765   5.805  11.456
  130W        W72390  40.431  12.839  10.916
  131W        W72391  39.824  35.878   0.954
  132W        W72392   5.930  43.301  12.381
  133W        W72393  15.725  36.874   1.250
  134W        W72394  20.239   0.288  11.995
  135W        W72395  38.886  26.460  10.022
  136W        W72396  24.217  24.051   3.363
  137W        W72397   9.669  21.605  11.098
  138W        W72398   6.278   0.490   1.351
  139W        W72399  28.581  30.018  10.629
  140W        W72400  41.987  36.567  10.932
  141W        W72401  34.069  29.031   4.836
  142W        W72402  31.502  30.498   2.898
  143W        W72403   6.722  10.729   4.802
  144W        W72404  44.848  39.397  14.489
  145W        W72405  15.688  25.671   0.907
  146W        W72406   3.739  42.471  12.403
  147W        W72407   9.653  29.533   3.738
  148W        W72408  24.527  13.324  10.971
  149W        W72409  36.396  34.464   2.840
  150W        W72410  39.885  27.541   4.606
  151W        W72411   7.376  33.584  14.026
  152W        W72412  26.656   0.253  12.367
  153W        W72413  25.090   0.748   0.738
  154W        W72414  34.011  40.949  10.990
  155W        W72415  22.026  14.297  12.038
  156W        W72416  13.635   6.680  14.504
  157W        W72417  38.070  18.780   2.415
  158W        W72418   5.279  41.507   1.805
  159W        W72419   9.168  38.406  12.031
  160W        W72420  37.017   4.301  12.520
  161W        W72421  28.665  40.475   2.739
  162W        W72422  24.717  28.163  11.576
  163W        W72423   4.247   9.306  10.588
  164W        W72424  25.129  31.025   0.385
  165W        W72425   0.816   1.305   2.204
  166W        W72426  26.140  41.438  11.570
  167W        W72427  17.144  18.131  13.973
  168W        W72428   6.805  38.468  11.910
  169W        W72429  25.036   7.801  14.922
  170W        W72430  15.319  43.452  14.332
  171W        W72431  33.613  41.443  13.024
  172W        W72432  15.704  28.453   4.791
  173W        W72433  33.394  13.648  11.525
  174W        W72434  14.118  10.324   0.333
  175W        W72435  28.149  22.641   4.738
  176W        W72436  35.953   1.801   0.915
  177W        W72437   8.193  14.702  10.962
  178W        W72438  32.570  41.479  10.616
  179W        W72439   2.428  20.627  12.996
  180W        W72440  28.583  11.719  10.444
  181W        W72441  24.562  19.063   4.793
  182W        W72442  12.295   5.337   3.829
  183W        W72443  20.564   8.229  10.407
  184W        W72444  39.417  28.122   1.829
  185W        W72445   8.897  18.576  11.008
  186W        W72446  41.472  42.861   4.826
  187W        W72447  38.963  11.183   2.678
  188W        W72448   8.314  17.146   4.227
  189W        W72449   7.771  11.830   0.860
  190W        W72450  18.196  15.595   3.352
  191W        W72451   3.915  41.039   1.754
  192W        W72452  11.199  12.142   2.279
  193W        W72453   0.464  42.422  12.857
  194W        W72454  33.880  24.638  13.907
  195W        W72455  14.193  31.953   1.852
  196W        W72456   9.357  24.206  12.354
  197W        W72457  31.038  41.440  13.500
  198W        W72458  11.360  35.893   1.236
  199W        W72459  18.056   2.907  13.391
  200W        W72460  10.812  14.607   1.749
  201W        W72461  23.092  15.196  14.881
  202W        W72462  15.720  38.437   3.829
  203W        W72463   7.210   9.340   1.417
  204W        W72464  29.622  36.397   2.279
  205W        W72465   6.195  24.121  13.525
  206W        W72466  19.699  14.687  13.874
  207W        W72467  18.690  30.040   1.704
  208W        W72468  44.931  38.486  13.993
  209W        W72469  42.386  34.020   4.169
  210W        W72470  38.490   1.381   0.856
  211W        W72471  25.144  14.176   1.920
  212W        W72472  41.296  19.605   4.665
  213W        W72473  39.899   1.817  11.480
  214W        W72474  28.973  18.271  12.348
  215W        W72475  42.359  18.699   0.820
  216W        W72476  19.231   2.315  12.906
  217W        W72477  42.342  10.711   0.967
  218W        W72478  28.075  17.089  10.508
  219W        W72479   8.287  20.759   3.218
  220W        W72480  42.932   2.784  13.484
  221W        W72481  24.594   4.240   3.838
  222W        W72482  36.990   5.894   2.235
  223W        W72483   9.183  37.431  10.889
  224W        W72484  24.021   9.654  14.879
  225W        W72485  41.353  22.118   3.248
  226W        W72486  20.632  30.456  11.907
  227W        W72487  11.724  43.893   4.333
  228W        W72488  36.436  11.641  14.794
  229W        W72489  33.896  43.328   2.211
  230W        W72490  41.315  20.655   4.123
  231W        W72491  29.567  26.671  13.005
  232W        W72492   1.366   1.901  12.048
  233W        W72493   6.308  15.211  14.454
  234W        W72494  40.844   3.721  14.882
  235W        W72495  32.430  18.259  14.869
  236W        W72496  14.116   5.709   3.217
  237W        W72497  22.742  16.587  11.408
  238W        W72498  20.587  39.857  14.392
  239W        W72499  13.751   7.902  11.036
  240W        W72500  24.067  26.605   1.702
  241W        W72501   0.422  34.417  10.627
  242W        W72502  18.250   4.365   4.162
  243W        W72503  35.873  26.180   1.774
  244W        W72504  35.483  10.149  11.545
  245W        W72505  39.516  16.601   1.814
  246W        W72506  37.842  16.125  13.792
  247W        W72507  26.644  14.200   4.134
  248W        W72508  28.130  39.411  13.048
  249W        W72509  38.918   3.878   2.416
  250W        W72510   6.257  18.292   3.630
  251W        W72511   2.398  27.128   0.847
  252W        W72512  23.175   5.808  13.423
  253W        W72513  16.689  23.136   3.284
  254W        W72514  34.500  13.142   4.132
  255W        W72515   7.334  40.386   3.839
  256W        W72516   7.895  35.073  14.373
  257W        W72517  19.674  14.816  14.973
  258W        W72518  22.091  31.041   3.685
  259W        W72519  43.965  14.221   0.265
  260W        W72520  42.008  42.872  12.903
  261W        W72521   4.774   4.335  12.416
  262W        W72522   9.735  24.560   1.335
  263W        W72523  33.600  26.529  12.975
  264W        W72524  29.922  25.625   3.199
  265W        W72525  11.159  12.133  14.907
  266W        W72526   9.292   8.876  12.975
  267W        W72527  33.461  15.723  14.967
  268W        W72528  25.160  10.273  10.957
  269W        W72529  21.616  41.827  14.894
  270W        W72530  24.565  40.830   1.928
  271W        W72531  36.543  20.172  10.894
  272W        W72532  26.599  33.019  14.401
  273W        W72533  20.040  38.327   2.694
  274W        W72534   6.754  32.060   1.890
  275W        W72535  32.010  29.960  11.390
  276W        W72536  21.716  18.562   0.437
  277W        W72537  32.962   4.737  11.540
  278W        W72538  31.957  37.513   0.422
  279W        W72539  26.139  24.087   1.257
  280W        W72540  43.921  25.049  11.025
  281W        W72541  13.239  43.281  14.785
  282W        W72542  30.520  44.274   4.641
  283W        W72543  43.807  35.904  14.330
  284W        W72544  43.824  34.492  12.534
  285W        W72545  40.863   3.366  13.962
  286W        W72546   3.915  40.010  11.561
  287W        W72547   2.936  27.528   4.648
  288W        W72548  42.376   2.897   2.903
  289W        W72549  39.873  12.280  14.513
  290W        W72550  29.463   9.826  14.471
  291W        W72551   1.823  43.398   1.772
  292W        W72552  32.093  24.497  12.991
  293W        W72553  37.348  42.835  13.799
  294W        W72554  21.615  33.084  12.856
  295W        W72555  31.058   2.296   0.884
  296W        W72556  35.010  20.027   0.853
  297W        W72557  13.269   7.406   3.823
  298W        W72558  10.670  10.791  13.380
  299W        W72559  24.035  17.607  11.601
  300W        W72560   9.663   2.453   0.476
  301W        W72561  33.086  16.811  11.026
  302W        W72562   3.776  37.858   4.133
  303W        W72563   2.341   2.284   1.374
  304W        W72564  41.035   8.719  14.791
  305W        W72565  21.032  17.231   2.226
  306W        W72566  36.896  40.901   1.880
  307W        W72567  36.018  21.155  14.456
  308W        W72568  24.047  31.549  12.948
  309W        W72569  43.351  38.368  10.442
  310W        W72570  12.782  42.934   0.807
  311W        W72571  30.040  40.306   0.948
  312W        W72572  11.202   0.853  14.767
  313W        W72573  21.107  20.244   1.333
  314W        W72574   1.802  26.485  12.432
  315W        W72575  23.558   6.363   0.414
  316W        W72576  36.994  42.397  13.344
  317W        W72577  41.972  16.202   0.423
  318W        W72578  22.090  14.242   4.786
  319W        W72579  19.167   2.764   4.655
  320W        W72580  12.815  35.581   1.743
  321W        W72581   3.881  37.851  13.415
  322W        W72582   6.829  42.787   2.788
  323W        W72583  43.980   9.781  10.974
  324W        W72584  15.302  10.328  11.952
  325W        W72585  36.359  38.554   0.323
  326W        W72586  22.618  26.486  12.850
  327W        W72587  34.091  19.082  10.098
  328W        W72588  15.240  20.754   4.648
  329W        W72589  10.718  16.734   1.758
  330W        W72590  41.842  22.035   0.379
  331W        W72591  42.328  18.254   0.319
  332W        W72592  29.959  26.630   3.368
  333W        W72593   1.788  11.314  12.963
  334W        W72594  25.593  26.168   2.339
  335W        W72595  38.371  41.509   0.877
  336W        W72596  44.935   0.949  13.420
  337W        W72597  33.574  44.411   2.399
  338W        W72598  11.147   9.657  12.902
  339W        W72599  34.528   4.359  12.357
  340W        W72600  31.967   7.895   5.272
  341W        W72601   5.893  37.394  12.469
  342W        W72602  26.683  20.249  11.873
  343W        W72603  35.400  10.371  10.488
  344W        W72604   4.750   2.748   2.300
  345W        W72605   4.830  42.316   4.799
  346W        W72606  30.133  12.717  14.946
  347W        W72607   9.673  16.808   2.711
  348W        W72608  11.208  34.113   3.694
  349W        W72609  38.332   7.780  14.479
  350W        W72610  27.515  44.972  10.908
  351W        W72611  13.828   7.739   1.904
  352W        W72612  20.660  39.476   1.835
  353W        W72613  28.115  27.642  13.330
  354W        W72614  39.967  38.050   2.721
  355W        W72615  40.522  37.357   2.221
  356W        W72616  43.872  27.603   3.847
  357W        W72617  38.028  42.852  14.482
  358W        W72618  16.223   0.335   4.723
  359W        W72619   9.225  17.291  10.644
  360W        W72620  37.470  20.252  14.815
  361W        W72621  42.408   9.691  12.915
  362W        W72622  28.955  15.178  11.014
  363W        W72623  42.289   4.810  14.910
  364W        W72624  28.467  34.890  12.938
  365W        W72625  10.344  20.574  13.360
  366W        W72626  35.109  34.567   3.191
  367W        W72627   1.932   6.215   4.228
  368W        W72628  43.848  43.482  14.503
  369W        W72629   9.753   4.866   1.369
  370W        W72630  37.546  12.228  13.318
  371W        W72631  28.642   8.657  10.518
  372W        W72632   1.435  32.116   1.726
  373W        W72633  12.271   3.361  11.517
  374W        W72634  39.341  34.610  14.508
  375W        W72635   5.703   1.401   1.266
  376W        W72636  19.658  25.077  12.420
  377W        W72637  12.341  31.028   3.641
  378W        W72638  30.637  31.644   0.744
  379W        W72639   3.392  37.476   1.402
  380W        W72640  18.705  44.475  12.830
  381W        W72641  34.945   6.230  13.063
  382W        W72642  26.146  41.999   1.728
  383W        W72643  19.604   8.357   0.464
  384W        W72644  40.433  44.337   2.840
  385W        W72645  27.035   1.438   0.959
  386W        W72646  43.478  12.744  11.099
  387W        W72647  31.091  44.500   3.374
  388W        W72648   3.898   9.732  13.812
  389W        W72649  22.739  30.017   4.191
  390W        W72650  15.792  33.955   0.348
  391W        W72651  13.256  24.099   5.140
  392W        W72652  31.999  30.037   3.849
  393W        W72653  11.845  31.642   2.730
  394W        W72654  16.209  24.115  13.416
  395W        W72655  22.240  38.897  13.035
  396W        W72656  14.125  11.739   2.757
  397W        W72657   5.426  16.643  12.020
  398W        W72658  40.523  13.185  11.504
  399W        W72659  12.216  39.860  13.006
  400W        W72660   9.779   5.792   4.707
  401W        W72661  43.344  38.380   1.404
  402W        W72662   2.796  26.114   4.647
  403W        W72663  17.099   6.708  10.040
  404W        W72664  41.402  33.417  12.026
  405W        W72665  29.581   3.820  11.127
  406W        W72666  40.543  37.511   4.128
  407W        W72667  44.338  15.641  10.955
  408W        W72668   8.229  38.472  14.001
  409W        W72669  12.165  31.621   1.310
  410W        W72670  42.989  25.108  12.567
  411W        W72671  32.068   9.335  13.030
  412W        W72672  40.335  16.747  12.549
  413W        W72673  25.017  23.235  12.034
  414W        W72674   8.856  16.584   0.737
  415W        W72675  17.646  37.007  10.582
  416W        W72676   3.363   3.400   0.846
  417W        W72677  33.605  43.809  12.009
  418W        W72678  39.496  14.226  14.501
  419W        W72679  26.002   4.326   3.851
  420W        W72680  37.951  31.950  13.858
  421W        W72681   2.321   6.418  12.389
  422W        W72682  27.511   1.393  11.421
  423W        W72683  25.021  26.130  10.920
  424W        W72684  38.974   2.251   0.312
  425W        W72685  43.863  36.393  13.499
  426W        W72686  26.096  38.431   2.288
  427W        W72687  16.731  44.943   2.772
  428W        W72688  19.082  27.542  12.935
  429W        W72689  32.016  35.505  13.545
  430W        W72690  10.741  31.021  14.394
  431W        W72691  22.625   8.191   0.802
  432W        W72692  26.143  26.126   2.865
  433W        W72693  22.097   2.773   0.939
  434W        W72694   5.313   8.668  11.475
  435W        W72695   0.269  30.110   1.768
  436W        W72696  16.730  41.891   2.883
  437W        W72697  10.322  31.510  14.301
  438W        W72698   9.380  40.339   2.316
  439W        W72699  11.723  11.320  10.955
  440W        W72700   1.850   7.769   4.748
  441W        W72701  12.622  44.959   4.142
  442W        W72702  34.399   1.390   3.698
  443W        W72703  21.260  43.905   0.333
  444W        W72704  27.966  15.269   1.925
  445W        W72705  13.326  33.535  11.600
  446W        W72706   9.833  15.308  14.811
  447W        W72707   1.326   7.319   1.928
  448W        W72708  17.265  17.731   1.218
  449W        W72709  39.982  34.397  10.976
  450W        W72710  30.156  35.979  11.866
  451W        W72711   9.874  28.486  13.486
  452W        W72712  16.244  39.930   4.289
  453W        W72713  21.592   6.799   3.766
  454W        W72714   1.251  35.448   1.369
  455W        W72715  44.423  34.582  12.565
  456W        W72716  38.879  12.317   1.359
  457W        W72717  15.775  32.434   1.262
  458W        W72718  39.546   0.269  13.374
  459W        W72719   2.294   8.161   4.195
  460W        W72720  41.455   1.843   1.255
  461W        W72721  39.407  12.164  13.366
  462W        W72722  10.649  38.401  14.005
  463W        W72723  14.661   4.869  13.471
  464W        W72724  19.776   7.888   5.642
  465W        W72725  28.113  33.616   0.395
  466W        W72726  33.433  20.586   3.654
  467W        W72727  23.641  33.593  10.959
  468W        W72728  35.369  18.553   1.442
  469W        W72729  42.936  25.561  14.759
  470W        W72730  11.134  40.901   3.744
  471W        W72731  12.349  13.659   1.361
  472W        W72732  15.249  14.118  11.425
  473W        W72733  44.951  26.667   3.369
  474W        W72734  24.514  43.895  14.462
  475W        W72735   3.265  28.568   0.432
  476W        W72736  10.638  37.521  12.380
  477W        W72737  27.036  39.997   4.754
  478W        W72738  39.382  37.480  12.825
  479W        W72739  27.502  19.565  11.119
  480W        W72740  35.084   4.844  12.575
  481W        W72741   6.244  22.160   4.643
  482W        W72742  24.642  15.270  12.345
  483W        W72743  44.390  24.089  14.869
  484W        W72744  35.909  37.477   0.966
  485W        W72745  17.666   6.780  11.527
  486W        W72746  18.644  30.466  11.475
  487W        W72747  42.889  39.932  13.343
  488W        W72748  41.837   1.261   2.719
  489W        W72749  39.027  16.797   0.743
  490W        W72750  36.846  42.789  11.460
  491W        W72751   9.757  11.759  10.411
  492W        W72752  33.443  21.107  11.518
  493W        W72753  28.976  12.298   2.365
  494W        W72754  21.648  28.071   1.740
  495W        W72755  38.899  30.456  12.450
  496W        W72756  41.999  44.423   1.874
  497W        W72757  36.069   5.379   2.876
  498W        W72758  29.639   6.364  11.426
  499W        W72759  10.636  17.188  12.401
  500W        W72760  26.655  28.048   5.217
  501W        W72761  31.483  30.507  13.333
  502W        W72762  36.094  41.508   1.905
  503W        W72763  21.690  34.111   2.873
  504W        W72764  40.309  38.060  13.525
  505W        W72765   4.855  41.980  14.984
  506W        W72766  24.528  21.618   2.868
  507W        W72767   3.331  13.291   3.339
  508W        W72768   7.303   9.164  12.369
  509W        W72769  31.099  33.053  14.280
  510W        W72770  31.551  32.467   2.259
  511W        W72771  29.057  34.041   0.832
  512W        W72772  35.518  28.435  14.361
  513W        W72773  36.492   6.391   1.721
  514W        W72774  14.174   6.773   3.196
  515W        W72775  34.895  32.114  13.006
  516W        W72776  30.619  43.965   4.127
  517W        W72777   6.396  37.860   4.208
  518W        W72778  24.642   8.383   1.931
  519W        W72779  13.791  34.106   3.374
  520W        W72780  43.876  39.445  14.933
  521W        W72781  11.246  24.974   1.424
  522W        W72782  13.822  37.880   2.361
  523W        W72783  27.485  37.563  12.963
  524W        W72784  28.086  12.346  13.894
  525W        W72785   0.388  25.509  10.513
  526W        W72786  16.195  10.177   1.250
  527W        W72787   0.767   3.851  10.527
  528W        W72788  44.490  42.474  11.901
  529W        W72789   4.725  38.529  13.336
  530W        W72790   6.874   8.230   1.794
  531W        W72791  44.808  42.975  10.948
  532W        W72792  30.091   7.175  13.955
  533W        W72793  26.471   1.423  14.793
  534W        W72794   4.327  41.459   2.262
  535W        W72795   5.835  19.729   2.835
  536W        W72796   6.799   9.872  14.012
  537W        W72797  13.743  28.496   3.208
  538W        W72798  15.753   8.894   0.913
  539W        W72799  39.455  15.720   3.271
  540W        W72800  23.042  31.024   1.312
  541W        W72801  36.491   9.820   3.319
  542W        W72802  43.345  29.536   2.330
  543W        W72803  36.503  19.588   2.407
  544W        W72804  35.481   8.198  14.890
  545W        W72805  20.708  28.668  11.510
  546W        W72806   2.863  38.519  12.355
  547W        W72807  31.145   9.719  13.976
  548W        W72808   2.941  24.144   2.710
  549W        W72809  43.308  34.992   0.452
  550W        W72810  30.936  17.306   9.924
  551W        W72811  12.745  20.687   1.752
  552W        W72812  41.927  31.054   4.627
  553W        W72813  34.086  40.421   4.695
  554W        W72814  15.714  36.096  14.985
  555W        W72815  14.789   6.766   1.423
  556W        W72816  38.431  22.121   1.805
  557W        W72817  12.256  18.199  11.109
  558W        W72818  27.519   7.237  11.381
  559W        W72819  41.898   5.689   2.871
  560W        W72820  34.455  29.477   2.185
  561W        W72821   9.248   6.757   1.839
  562W        W72822  39.910  15.104  13.017
  563W        W72823  22.065  28.041   4.700
  564W        W72824  24.710  13.645   0.436
  565W        W72825  28.078   2.402   0.387
  566W        W72826   1.795  35.480  10.640
  567W        W72827   8.881  20.256  13.402
  568W        W72828  19.074  31.584   3.158
  569W        W72829  36.367  42.527   3.866
  570W        W72830   0.786  13.273   0.887
  571W        W72831  29.980  44.465   0.874
  572W        W72832  33.022  34.394  10.929
  573W        W72833   8.162  18.056  13.427
  574W        W72834  18.786  35.995   2.248
  575W        W72835  42.494  31.016  14.014
  576W        W72836  41.021  34.047   0.815
  577W        W72837  24.008   4.898  12.357
  578W        W72838   5.703  16.309  14.924
  579W        W72839  33.476   1.286  12.043
  580W        W72840   2.421  29.497   1.215
  581W        W72841  18.224   1.888  14.790
  582W        W72842  38.457  31.954  10.449
  583W        W72843   2.857  17.743   0.912
  584W        W72844  40.980  22.142  12.062
  585W        W72845  19.545  40.994  13.978
  586W        W72846  22.064  16.171  12.067
  587W        W72847  41.341   8.654  14.906
  588W        W72848   9.751  32.938  10.536
  589W        W72849  30.583  15.799   2.788
  590W        W72850  28.460  19.261  13.871
  591W        W72851  23.092   4.762   2.191
  592W        W72852  13.145  28.987   2.793
  593W        W72853  23.003  24.717   3.336
  594W        W72854  17.140   4.256  11.590
  595W        W72855  14.714   7.894  14.824
  596W        W72856   9.331   0.866  13.371
  597W        W72857  30.088  16.779   3.351
  598W        W72858  35.587  23.017   1.925
  599W        W72859  10.775  14.809   3.199
  600W        W72860   7.728   4.747   0.382
  601W        W72861  29.588  22.579   2.206
  602W        W72862  16.196  30.114  14.381
  603W        W72863  16.638  31.460  11.977
  604W        W72864  23.039  19.136  11.381
  605W        W72865   5.401  34.555  12.888
  606W        W72866  43.829  42.294  10.888
  607W        W72867   6.208  30.001  14.395
  608W        W72868  18.559  22.106  11.045
  609W        W72869  25.584  42.938  11.610
  610W        W72870  21.075   0.348   3.694
  611W        W72871  11.281   6.181   4.259
  612W        W72872  14.313   5.763  14.292
  613W        W72873  28.977  10.685  10.917
  614W        W72874  26.988  37.848   1.423
  615W        W72875  33.592  42.016  14.408
  616W        W72876  10.796  24.552   0.887
  617W        W72877  18.088  37.351  13.357
  618W        W72878  19.694   7.295  14.294
  619W        W72879  18.125  34.420   2.310
  620W        W72880  26.082  25.002   4.837
  621W        W72881  33.574  29.958   4.337
  622W        W72882  35.389  34.924  12.917
  623W        W72883  38.072  38.450  10.645
  624W        W72884  35.390   8.188  12.461
  625W        W72885  28.576  25.708  14.469
  626W        W72886  44.896   7.827   3.207
  627W        W72887  22.524  31.570  13.896
  628W        W72888  10.315  41.954   0.842
  629W        W72889   7.821  20.639  12.401
  630W        W72890   8.667  41.473  14.403
  631W        W72891  22.623  32.531   3.670
  632W        W72892  31.080   5.277   2.727
  633W        W72893  10.854   7.813  10.440
  634W        W72894   2.240  31.559   0.285
  635W        W72895  14.642  16.299   0.460
  636W        W72896   2.234   1.334  12.857
  637W        W72897  11.273  27.469   3.308
  638W        W72898  35.929  32.952   3.803
  639W        W72899  26.657  34.420  14.929
  640W        W72900  39.540   8.262  12.394
  641W        W72901  40.898  22.573   1.437
  642W        W72902   8.764   4.718  14.910
  643W        W72903  42.462  14.678  12.003
  644W        W72904  43.299  14.598   0.890
  645W        W72905  44.979  38.891   2.345
  646W        W72906  38.379  40.968   4.327
  647W        W72907  11.692  10.793  10.466
  648W        W72908  24.575   1.920  10.497
  649W        W72909  23.999  19.274   2.717
  650W        W72910  24.697   5.194  10.620
  651W        W72911  29.085   9.880  14.840
  652W        W72912  33.975  39.871   4.337
  653W        W72913   1.846  36.403  13.515
  654W        W72914  41.515  26.470  13.911
  655W        W72915  39.835  27.976  13.990
  656W        W72916  21.131  24.650  14.493
  657W        W72917  42.422  27.145  13.428
  658W        W72918  23.592  41.500  11.465
  659W        W72919  28.630  18.123  11.984
  660W        W72920  37.875  19.171   1.323
  661W        W72921   0.843  30.007  14.832
  662W        W72922  16.290  12.202   2.791
  663W        W72923  25.046  40.050  12.070
  664W        W72924  28.622  17.209  12.436
  665W        W72925  20.093   0.743   9.973
  666W        W72926  35.944  23.523   1.397
  667W        W72927  17.287  18.613  11.381
  668W        W72928  19.262  22.544   4.666
  669W        W72929  17.591  38.921  13.526
  670W        W72930  13.636   0.798   1.330
  671W        W72931  37.435  44.468   1.817
  672W        W72932  29.052  35.877  12.510
  673W        W72933  41.504  26.096  13.541
  674W        W72934  42.962  40.373  14.349
  675W        W72935  11.309  12.246   1.289
  676W        W72936  30.510   4.252   4.223
  677W        W72937  34.453  26.175  12.473
  678W        W72938  36.499   6.400   0.749
  679W        W72939   1.378  25.130  11.572
  680W        W72940  32.551   8.764   3.777
  681W        W72941   2.866  24.996   2.729
  682W        W72942  11.767  22.730   2.663
  683W        W72943  31.644   1.282   4.662
  684W        W72944  32.547  26.571  10.630
  685W        W72945  39.992  42.318   4.166
  686W        W72946  17.588  41.451  14.790
  687W        W72947  38.016   9.385  11.451
  688W        W72948  26.085  11.776  11.125
  689W        W72949  23.551  23.634   1.281
  690W        W72950   9.221   7.726   0.909
  691W        W72951  24.053  28.504  12.071
  692W        W72952  42.448  38.996  12.549
  693W        W72953  35.532  21.261   9.923
  694W        W72954  28.931  17.248  13.442
  695W        W72955  14.189  22.250   3.314
  696W        W72956  19.712  34.927   5.084
  697W        W72957  24.547  19.227   1.216
  698W        W72958   6.354  42.814  11.518
  699W        W72959  21.131  27.584   3.812
  700W        W72960   6.254   8.740   9.930
  701W        W72961  43.402  39.487  13.336
  702W        W72962  17.786  10.813   2.368
  703W        W72963  36.901  44.836  14.384
  704W        W72964  25.469  26.632   0.933
  705W        W72965  17.648  39.327  13.444
  706W        W72966  26.500  16.682   0.756
  707W        W72967  30.121  21.704   0.259
  708W        W72968  31.983  15.324  14.870
  709W        W72969   3.824  35.533  14.365
  710W        W72970  35.499   1.323   4.212
  711W        W72971  28.094  15.597   2.373
  712W        W72972  40.970  21.643   2.281
  713W        W72973  40.807  13.135   2.892
  714W        W72974  44.895  27.024  10.485
  715W        W72975   2.272  26.558   1.926
  716W        W72976  30.419  19.540   4.746
  717W        W72977  15.232  23.536   1.398
  718W        W72978  36.012  25.626  14.933
  719W        W72979   9.338  11.226   2.796
  720W        W72980   1.241  15.664  11.476
  721W        W72981   1.273  38.363   1.808
  722W        W72982  30.918  28.993   0.339
  723W        W72983  19.056   7.193  10.997
  724W        W72984  10.168  21.163  11.084
  725W        W72985   8.355  30.467   0.483
  726W        W72986  32.002  25.627   1.801
  727W        W72987   4.887  21.157   5.192
  728W        W72988  27.106  40.375   2.702
  729W        W72989   9.159  19.597   2.388
  730W        W72990  21.536  12.848   3.170
  731W        W72991  13.830  16.073   5.173
  732W        W72992  23.683  29.104   1.358
  733W        W72993  10.223  15.813   2.270
  734W        W72994   3.736   1.251  11.592
  735W        W72995  41.318  15.130  12.516
  736W        W72996   8.750  35.405  12.517
  737W        W72997  17.660   6.190  13.378
  738W        W72998   5.345  29.099   2.311
  739W        W72999  13.736  37.578   1.440
  740W        W73000  19.600  20.622  10.921
  741W        W73001  43.359  24.056  14.850
  742W        W73002  40.489  38.939  13.548
  743W        W73003  17.182  41.849   4.218
  744W        W73004   2.949  14.739   4.785
  745W        W73005  24.188   6.390   0.379
  746W        W73006  42.920  11.365   3.808
  747W        W73007  18.233   2.877   1.236
  748W        W73008  41.516  22.519   1.810
  749W        W73009  39.513  19.660  14.458
  750W        W73010   7.897  18.265  12.074
  751W        W73011  22.180  16.117   4.281
  752W        W73012  12.221  35.364  10.568
  753W        W73013  34.555  22.575  13.877
  754W        W73014  12.643  38.888  13.791
  755W        W73015  43.394  37.534   3.146
  756W        W73016  15.623  26.030  12.871
  757W        W73017  19.153   3.799   4.652
  758W        W73018  42.820  42.928  13.036
  759W        W73019   1.763   6.325   0.820
  760W        W73020  13.779  12.205  11.489
  761W        W73021  24.629  11.841   1.775
  762W        W73022  16.804  44.885  13.903
  763W        W73023  31.597  21.187  10.592
  764W        W73024  12.804  36.026   3.731
  765W        W73025  12.780  35.461  14.412
  766W        W73026  31.927   3.395  12.383
  767W        W73027   7.817   5.865  10.938
  768W        W73028  28.164   2.275   4.321
  769W        W73029  35.057  11.127  12.575
  770W        W73030   0.312  25.595  11.575
  771W        W73031  37.871  20.681  12.044
  772W        W73032  20.542   7.676   9.980
  773W        W73033  36.945  19.133   3.384
  774W        W73034  21.536  24.180   2.892
  775W        W73035  22.552  42.805   2.703
  776W        W73036  31.638  29.113  13.386
  777W        W73037  19.103  36.018  11.553
  778W        W73038  30.039  20.053  14.023
  779W        W73039   1.404  18.597  13.867
  780W        W73040  16.277   6.708   4.317
  781W        W73041  38.357   1.848  13.992
  782W        W73042   3.263  22.144  14.029
  783W        W73043  17.079  28.605  14.870
  784W        W73044  25.614   4.236  10.572
  785W        W73045  14.702  29.969  11.560
  786W        W73046  16.315  22.006   3.643
  787W        W73047  15.237  43.282  13.824
  788W        W73048  39.839  35.088  10.925
  789W        W73049   8.750  22.127   1.792
  790W        W73050  20.615  36.536   1.817
  791W        W73051  37.401  34.885   4.275
  792W        W73052  17.713  20.051  14.467
  793W        W73053   5.432  19.045   0.814
  794W        W73054   9.659  19.736   3.745
  795W        W73055   3.955  40.541   3.152
  796W        W73056  38.050  17.239   2.811
  797W        W73057  44.439  30.956  10.069
  798W        W73058   8.805  38.488  14.864
  799W        W73059  14.130  32.424   3.205
  800W        W73060  35.987  25.069  14.967
  801W        W73061  26.559  27.966   0.482
  802W        W73062  34.037  44.858  14.415
  803W        W73063  27.047  10.707  10.531
  804W        W73064   1.445  25.166   0.815
  805W        W73065  26.491  10.151  13.928
  806W        W73066  15.217   8.233  11.989
  807W        W73067  40.489   3.309   1.918
  808W        W73068   4.903  40.840  11.039
  809W        W73069  21.249   2.265  14.029
  810W        W73070  25.617  37.043   2.712
  811W        W73071  44.291  20.161   3.803
  812W        W73072   5.700  44.817   4.218
  813W        W73073  20.145   6.361  14.875
  814W        W73074  42.018  16.711  13.428
  815W        W73075  28.443   7.749   0.806
  816W        W73076   0.360  22.250  13.521
  817W        W73077  36.425   9.202  12.092
  818W        W73078  42.456  40.934   3.754
  819W        W73079  43.772  39.996   3.369
  820W        W73080  26.057  36.505  12.892
  821W        W73081  12.827  44.480  11.491
  822W        W73082  17.768   0.870   3.778
  823W        W73083   2.470   7.797   0.453
  824W        W73084  37.454  17.138   5.291
  825W        W73085  27.691  32.520   3.769
  826W        W73086  19.178  29.982  13.423
  827W        W73087   4.938  10.317   4.177
  828W        W73088   3.405   0.918   3.367
  829W        W73089   0.776   3.421  11.936
  830W        W73090   9.381  31.941  10.408
  831W        W73091  30.165  42.796  13.383
  832W        W73092  40.969  23.606   4.153
  833W        W73093  36.883  43.392  10.961
  834W        W73094   9.173  33.007  14.480
  835W        W73095   4.823  39.830  10.492
  836W        W73096  43.425  29.102  13.365
  837W        W73097  17.588   0.420   2.293
  838W        W73098  38.044  42.304  11.101
  839W        W73099  22.055   0.881  10.927
  840W        W73100  42.339  11.200   2.850
  841W        W73101  10.300  18.083  13.481
  842W        W73102  42.296  32.042  11.040
  843W        W73103  39.447  22.098  14.510
  844W        W73104   1.415  35.878  14.301
  845W        W73105  30.046  26.648   1.303
  846W        W73106  38.892   4.356   2.357
  847W        W73107   4.383  28.034  12.526
  848W        W73108  39.870  40.007   1.919
  849W        W73109  15.323  21.251  14.446
  850W        W73110  34.448   2.891  13.833
  851W        W73111  43.498  37.560   5.290
  852W        W73112  23.028   6.307   4.739
  853W        W73113  20.228   7.760  14.293
  854W        W73114  14.223  16.736   2.259
  855W        W73115   3.751  21.723   3.807
  856W        W73116   8.825  28.497   1.426
  857W        W73117   1.752  44.882   4.809
  858W        W73118  18.572   7.788   4.265
  859W        W73119   1.275   7.377  12.561
  860W        W73120  39.066   6.858  11.924
  861W        W73121  13.701  27.172   9.928
  862W        W73122  39.007  28.644  13.502
  863W        W73123  10.242  23.136   3.217
  864W        W73124   3.354   9.694  12.477
  865W        W73125  22.126  12.794  11.065
  866W        W73126   2.909  26.641  11.585
  867W        W73127   6.387  10.370   5.197
  868W        W73128  28.670   0.860   2.837
  869W        W73129  28.502  28.446  14.420
  870W        W73130   5.725  38.559   1.765
  871W        W73131  14.739   9.648   3.176
  872W        W73132  42.472  30.163   4.648
  873W        W73133  18.166  31.926  11.464
  874W        W73134  13.138   4.376  13.395
  875W        W73135  41.451   1.266   2.773
  876W        W73136   8.382  13.244  10.524
  877W        W73137   1.346  24.066  13.447
  878W        W73138  23.986  23.128  11.414
  879W        W73139  37.350  19.039  14.830
  880W        W73140  41.392  34.594  10.645
  881W        W73141  41.298  39.901  14.886
  882W        W73142   7.223  24.071   1.896
  883W        W73143  17.231  33.110   1.935
  884W        W73144   4.274  23.620  11.547
  885W        W73145  28.105  32.020   3.364
  886W        W73146   3.726  43.348   0.447
  887W        W73147  31.993  32.564   2.714
  888W        W73148  17.628  33.515  11.426
  889W        W73149  30.605   6.748   0.931
  890W        W73150  12.317  34.572   3.729
  891W        W73151  10.697  33.114  14.947
  892W        W73152   8.732  39.504  11.114
  893W        W73153  24.598  42.467   5.565
  894W        W73154  12.140  29.489  13.918
  895W        W73155  25.502  25.098  10.927
  896W        W73156  12.328  27.973   4.195
  897W        W73157  33.588  40.463   4.837
  898W        W73158   1.284  26.126  14.839
  899W        W73159   3.366  22.678   3.205
  900W        W73160  22.046  23.159   0.362
  901W        W73161  37.471  29.514  12.952
  902W        W73162  38.445  38.010  12.544
  903W        W73163  16.809  19.562   1.241
  904W        W73164  32.081  12.201  14.490
  905W        W73165  16.310  13.308   1.892
  906W        W73166  34.369  16.639  10.480
  907W        W73167  44.964   5.722  14.825
  908W        W73168  20.078  25.563   1.412
  909W        W73169   0.925  33.456   9.974
  910W        W73170  20.573  26.518   3.633
  911W        W73171  23.156  25.593   1.335
  912W        W73172  40.538  33.044  13.956
  913W        W73173  36.856  29.060  12.963
  914W        W73174  22.124  21.707  14.876
  915W        W73175  27.133  17.162  12.503
  916W        W73176  11.139  15.805  13.383
  917W        W73177  19.765  28.461  12.569
  918W        W73178  31.963  38.530   1.367
  919W        W73179  24.633  42.976  12.049
  920W        W73180  38.036  41.434  14.868
  921W        W73181  18.617  28.645  13.497
  922W        W73182  23.553  19.773   3.753
  923W        W73183  25.581  32.582   4.213
  924W        W73184   9.719  30.489   0.864
  925W        W73185  30.941   2.339   4.177
  926W        W73186  32.404   3.831   2.872
  927W        W73187  16.084  17.179  14.412
  928W        W73188  25.690  37.859   1.441
  929W        W73189  10.785  36.516   3.197
  930W        W73190  42.892  37.360  12.973
  931W        W73191  20.626   7.256   2.844
  932W        W73192  19.123   8.820   0.355
  933W        W73193   0.328  38.451   0.249
  934W        W73194  31.526  42.981   1.773
  935W        W73195  30.416  30.511   3.819
  936W        W73196   8.169  29.633  14.462
  937W        W73197  33.107  41.296  13.817
  938W        W73198  27.030  13.349   4.229
  939W        W73199   4.886  10.254  10.580
  940W        W73200  32.586  34.922  12.015
  941W        W73201  35.020  31.031   1.321
  942W        W73202   0.267  10.148   2.742
  943W        W73203  10.805  31.111  12.547
  944W        W73204  39.827  41.875   3.276
  945W        W73205   7.728  28.006   1.823
  946W        W73206  16.758  23.633  11.081
  947W        W73207  24.073  28.673   3.686
  948W        W73208  10.819   2.245   3.860
  949W        W73209   3.785  14.764  13.376
  950W        W73210  31.577   0.338  11.906
  951W        W73211  28.514  15.797   2.404
  952W        W73212  20.105   8.738   4.223
  953W        W73213  23.556  18.596  13.455
  954W        W73214   5.765  31.493  14.814
  955W        W73215  21.565  11.293  10.590
  956W        W73216  29.941   9.256   2.221
  957W        W73217   6.874  37.834  11.429
  958W        W73218  12.800  34.079   2.244
  959W        W73219  41.020   0.300  11.028
  960W        W73220  32.947  10.371  11.903
  961W        W73221  23.149  30.590  13.060
  962W        W73222  16.252  44.311   9.933
  963W        W73223   3.806  28.021   9.941
  964W        W73224   4.276  44.909   2.228
  965W        W73225  38.331   4.887   0.417
  966W        W73226  36.076   7.694  14.014
  967W        W73227  14.282  30.503   9.999
  968W        W73228  41.396  44.283   0.741
  969W        W73229   7.803  17.763  13.853
  970W        W73230  34.592  36.000   2.772
  971W        W73231  17.209  35.519   2.668
  972W        W73232  40.337  22.238   2.306
  973W        W73233  42.460  29.440   1.710
  974W        W73234  26.539   9.762   3.648
  975W        W73235  21.754  20.526   2.261
  976W        W73236   1.439  42.483   2.754
  977W        W73237  31.985   8.190  12.905
  978W        W73238   3.447  24.602   4.758
  979W        W73239  17.071  33.113  14.817
  980W        W73240  20.708   6.200   0.828
  981W        W73241   1.464  40.843   0.799
  982W        W73242  38.843  13.747   1.746
  983W        W73243  37.520  23.088   2.886
  984W        W73244  15.109  15.130   4.335
  985W        W73245  19.237  25.115   4.688
  986W        W73246  10.172  10.861   0.297
  987W        W73247  33.441  34.884   3.677
  988W        W73248  29.529  39.916  14.013
  989W        W73249   2.262  36.539   4.602
  990W        W73250  31.541  42.793  13.020
  991W        W73251  19.282   0.802   2.400
  992W        W73252  13.647  42.402  10.954
  993W        W73253  42.901  37.902   4.239
  994W        W73254  18.267  28.119   0.275
  995W        W73255  31.147  27.013  12.510
  996W        W73256  34.909  29.456   1.289
  997W        W73257  27.145  44.361  13.963
  998W        W73258  39.509  21.585  11.110
  999W        W73259  23.542  16.731   3.154
 1000W        W73260  11.780  42.825   5.135
 1001W        W73261  18.731  43.916  14.372
 1002W        W73262  35.935  21.747  12.032
 1003W        W73263  10.679   9.226   4.150
 1004W        W73264  38.041  21.017   4.128
 1005W        W73265  42.372   0.917  11.534
 1006W        W73266   0.809  25.632   1.286
 1007W        W73267  32.932  40.438   2.792
 1008W        W73268   9.232  38.054   3.656
 1009W        W73269  16.732  41.301   2.230
 1010W        W73270  38.535  40.468  13.532
 1011W        W73271   5.832  28.476  14.018
 1012W        W73272  29.427  28.608   2.187
 1013W        W73273  36.552  42.846  10.087
 1014W        W73274  16.671  42.493   1.760
 1015W        W73275  27.954  22.538   2.393
 1016W        W73276  10.685  38.943  12.872
 1017W        W73277  27.654  19.104   3.665
 1018W        W73278  20.728  24.593  11.064
 1019W        W73279   1.943  14.706  12.857
 1020W        W73280  12.161  28.638   0.767
 1021W        W73281  13.818  17.297   4.804
 1022W        W73282  14.653  17.659   2.210
 1023W        W73283  30.160  40.899   3.265
 1024W        W73284  15.785  30.598   4.724
 1025W        W73285   6.834  11.242  14.377
 1026W        W73286  21.062  17.258   4.346
 1027W        W73287  19.687  34.103   0.731
 1028W        W73288  25.503  42.911  12.901
 1029W        W73289   5.714  29.006  12.395
 1030W        W73290  40.321   9.199   3.664
 1031W        W73291  34.891  21.217   9.446
 1032W        W73292   3.892  40.863  11.883
 1033W        W73293  39.462  13.768  13.003
 1034W        W73294  27.181  13.204   3.832
 1035W        W73295  12.147   9.652   3.382
 1036W        W73296  19.245  22.094   0.386
 1037W        W73297  43.439  42.934   1.757
 1038W        W73298  42.905  35.021  11.547
 1039W        W73299  40.416  29.438  13.476
 1040W        W73300  17.785  39.445  11.929
 1041W        W73301  11.350   6.321  12.847
 1042W        W73302  28.681  22.202   3.808
 1043W        W73303  13.605  29.651  12.887
 1044W        W73304   5.272  42.981  12.346
 1045W        W73305  42.956  22.200  14.308
 1046W        W73306   2.903  43.776  10.998
 1047W        W73307   9.247   3.220   4.244
 1048W        W73308  15.820  23.080  13.329
 1049W        W73309  36.986  23.637  12.562
 1050W        W73310   9.656  41.295  13.471
 1051W        W73311   2.954  32.131   4.614
 1052W        W73312  27.511   0.960  10.425
 1053W        W73313  13.287  29.033  14.941
 1054W        W73314  29.171  25.471   3.314
 1055W        W73315  24.574  17.083   1.912
 1056W        W73316  16.095  13.225   2.354
 1057W        W73317  13.320  42.488   4.232
 1058W        W73318  17.775  21.083  13.414
 1059W        W73319  15.090   2.298  13.376
 1060W        W73320  32.140  43.985   3.807
 1061W        W73321  40.540  33.533  13.501
 1062W        W73322  37.927  22.139   4.300
 1063W        W73323  42.429   6.358   0.370
 1064W        W73324  24.529  36.885  14.019
 1065W        W73325  13.260  43.490   0.812
 1066W        W73326   9.199  10.720   4.720
 1067W        W73327  43.359   8.315  12.844
 1068W        W73328   9.351  36.097   0.903
 1069W        W73329  16.614  39.950  12.047
 1070W        W73330  33.111  11.315   2.853
 1071W        W73331  26.033  28.001   0.801
 1072W        W73332   1.857  33.397   9.986
 1073W        W73333  44.365  24.534  11.934
 1074W        W73334  34.532  18.722  13.423
 1075W        W73335  13.776  40.922  13.816
 1076W        W73336  35.419  40.490   2.844
 1077W        W73337   0.929  38.849  13.977
 1078W        W73338  35.854  11.320  14.510
 1079W        W73339  38.838  10.745  13.951
 1080W        W73340   6.680  14.629  13.806
 1081W        W73341  37.523   2.778  11.477
 1082W        W73342   0.799  19.046  13.418
 1083W        W73343  28.523   2.288  10.945
 1084W        W73344   4.373  34.506   1.798
 1085W        W73345  38.919  39.044  13.029
 1086W        W73346   0.906  33.052   3.317
 1087W        W73347  19.227  19.047  12.953
 1088W        W73348  26.650  25.027  13.346
 1089W        W73349  27.580  36.436   3.364
 1090W        W73350  31.092  23.617  10.121
 1091W        W73351   5.381   6.319  14.870
 1092W        W73352  18.631  23.497   1.362
 1093W        W73353  20.614  35.074   0.938
 1094W        W73354   4.717  31.902  11.075
 1095W        W73355  37.894  37.045  11.542
 1096W        W73356  16.813  19.596   3.760
 1097W        W73357   2.312  10.190  12.387
 1098W        W73358  28.971  18.736  14.444
 1099W        W73359  26.519  21.635  10.975
 1100W        W73360  19.718   5.695   5.106
 1101W        W73361  40.003   0.954   3.827
 1102W        W73362  16.735  19.535  14.906
 1103W        W73363   5.869  13.249   1.341
 1104W        W73364  19.754  31.045   0.944
 1105W        W73365  25.037  33.009  10.963
 1106W        W73366  33.991  10.753   1.716
 1107W        W73367  40.911  33.476  12.419
 1108W        W73368  29.944   7.242  11.856
 1109W        W73369  42.361   4.915   0.361
 1110W        W73370   8.401   1.935   0.835
 1111W        W73371  26.583  13.245  11.536
 1112W        W73372  38.433  14.140   2.310
 1113W        W73373  38.891  23.063   2.254
 1114W        W73374  10.257  29.124   0.338
 1115W        W73375  11.191  33.059   4.839
 1116W        W73376  27.993   2.335   1.427
 1117W        W73377  24.660   3.743  12.958
 1118W        W73378  44.831  27.181   3.275
 1119W        W73379  40.847  21.254   1.849
 1120W        W73380   6.306  17.596   3.258
 1121W        W73381  18.756   4.336   1.868
 1122W        W73382  32.037  39.825   4.759
 1123W        W73383  32.920  15.801  13.028
 1124W        W73384   9.874   4.240   3.644
 1125W        W73385  19.073   0.850  12.399
 1126W        W73386  27.647  38.382  11.513
 1127W        W73387  14.306   0.476  14.824
 1128W        W73388  40.343  39.882  14.499
 1129W        W73389   8.291  26.599  10.463
 1130W        W73390   6.413   7.722  13.897
 1131W        W73391   3.395   0.797   2.824
 1132W        W73392  42.423   4.930   4.208
 1133W        W73393   0.761  36.963   1.724
 1134W        W73394  41.869  29.491  10.962
 1135W        W73395  12.293   0.315  14.861
 1136W        W73396  24.552   0.256  10.961
 1137W        W73397   0.888  20.757   3.704
 1138W        W73398   1.940  36.844  12.477
 1139W        W73399   2.927   5.319   0.306
 1140W        W73400   8.744   9.336   5.186
 1141W        W73401   2.882  42.973   2.393
 1142W        W73402  21.199   6.732  14.023
 1143W        W73403   3.770  30.049   0.351
 1144W        W73404  42.891  35.375   1.792
 1145W        W73405   1.451  15.632   0.860
 1146W        W73406   0.781  42.822  10.592
 1147W        W73407  42.282  11.670   2.391
 1148W        W73408   3.407  33.416   0.341
 1149W        W73409  42.794  29.927   1.296
 1150W        W73410  10.269  26.529  12.348
 1151W        W73411   2.426  19.093  14.778
 1152W        W73412  34.428  13.773   1.852
 1153W        W73413  26.654  20.142   3.382
 1154W        W73414   4.801   3.873  13.040
 1155W        W73415   2.354   9.376  10.428
 1156W        W73416  18.659  32.470  10.425
 1157W        W73417   3.293   8.390  14.780
 1158W        W73418   7.248  20.219   0.448
 1159W        W73419  16.151  25.525  12.984
 1160W        W73420  32.597   5.305  13.348
 1161W        W73421   4.919  17.298   2.331
 1162W        W73422  33.015  23.725  11.416
 1163W        W73423  18.553  19.649  14.295
 1164W        W73424  18.222  28.089   2.704
 1165W        W73425   3.423  38.986   0.958
 1166W        W73426  42.427   9.759   2.310
 1167W        W73427  20.610  30.525  10.974
 1168W        W73428   2.774   4.229   3.668
 1169W        W73429   0.785   3.303   2.373
 1170W        W73430  24.131  37.425   0.847
 1171W        W73431  33.924  29.596  11.515
 1172W        W73432  15.608  44.775   4.774
 1173W        W73433  41.382  41.468   2.822
 1174W        W73434  30.009   3.329   1.835
 1175W        W73435  28.555  26.670   1.750
 1176W        W73436   8.259  29.017  11.555
 1177W        W73437   9.166  31.152  12.514
 1178W        W73438  38.568   5.279   1.429
 1179W        W73439  43.474   0.812   0.405
 1180W        W73440   7.816  14.769  12.481
 1181W        W73441  15.313   4.904   4.751
 1182W        W73442  23.091  29.473  14.375
 1183W        W73443  13.792  40.355  10.561
 1184W        W73444  42.321   5.223   1.847
 1185W        W73445  22.148  21.135  13.338
 1186W        W73446  19.275   7.795  13.350
 1187W        W73447  38.972  24.134   2.313
 1188W        W73448  35.076  39.459   1.766
 1189W        W73449  35.395  41.946   2.356
 1190W        W73450  19.269  20.579  13.477
 1191W        W73451  21.735  33.499   1.833
 1192W        W73452  12.759  37.355  11.470
 1193W        W73453  30.995   7.838   0.896
 1194W        W73454  38.858  35.437   3.786
 1195W        W73455  19.092  17.785   2.413
 1196W        W73456  27.059   9.752   0.853
 1197W        W73457  20.217  13.282   3.732
 1198W        W73458  39.869   2.261  10.550
 1199W        W73459  16.706  27.977   4.626
 1200W        W73460  26.008  10.355   4.177
 1201W        W73461  22.248  19.104  14.493
 1202W        W73462  43.004  19.273   2.273
 1203W        W73463  24.618  38.021  12.955
 1204W        W73464   6.193  41.514   1.396
 1205W        W73465   7.350  41.025   1.694
 1206W        W73466  20.739   0.903  13.486
 1207W        W73467   0.270  12.174  14.994
 1208W        W73468  36.875  26.571   0.868
 1209W        W73469  20.036  29.140  14.887
 1210W        W73470  20.581  33.399  13.959
 1211W        W73471  35.098  17.747  10.159
 1212W        W73472  29.617  37.352   0.382
 1213W        W73473  26.527  16.133   0.242
 1214W        W73474   9.682  44.469   3.644
 1215W        W73475  26.702  25.140   4.637
 1216W        W73476  31.048  29.628   4.170
 1217W        W73477  44.432  43.368   4.252
 1218W        W73478  44.408  32.457  11.412
 1219W        W73479  25.577  23.984  11.531
 1220W        W73480  24.111  44.948  14.448
 1221W        W73481   5.825  23.706   3.263
 1222W        W73482  16.678  38.484  13.944
 1223W        W73483  11.860   1.927  12.472
 1224W        W73484  34.521  36.016  10.635
 1225W        W73485  22.645  25.625  13.382
 1226W        W73486  30.619  11.162   4.129
 1227W        W73487  16.694  38.464  10.448
 1228W        W73488  41.970  26.559   5.301
 1229W        W73489   3.710  38.559   0.930
 1230W        W73490   2.307  42.893  13.041
 1231W        W73491  37.348   6.243  11.874
 1232W        W73492  30.006  44.787  14.300
 1233W        W73493   4.813   8.859   4.325
 1234W        W73494   0.336  37.066  14.774
 1235W        W73495  43.973  21.588   3.196
 1236W        W73496  36.931   1.976   3.251
 1237W        W73497  23.215  29.127   5.704
 1238W        W73498  32.978  32.617  13.363
 1239W        W73499  14.803   7.350  10.991
 1240W        W73500  44.824  26.602  13.413
 1241W        W73501  21.247  10.216   4.634
 1242W        W73502  25.016  41.950   2.690
 1243W        W73503  21.710  41.431  12.967
 1244W        W73504  33.921   6.699   1.734
 1245W        W73505  17.610   5.782   9.973
 1246W        W73506  31.963  19.231  10.968
 1247W        W73507  32.124  35.096   1.833
 1248W        W73508   2.427  23.545   0.827
 1249W        W73509  21.751  30.159   3.862
 1250W        W73510  36.550  16.096  12.497
 1251W        W73511  22.049  12.229   3.218
 1252W        W73512  10.717  23.595   0.451
 1253W        W73513  28.125  35.973   5.295
 1254W        W73514  23.490  19.276  14.913
 1255W        W73515  23.143  44.904  11.868
 1256W        W73516  34.877  32.101   2.247
 1257W        W73517  21.105  40.954   2.891
 1258W        W73518  32.430   4.742  12.380
 1259W        W73519  21.600  44.860   3.313
 1260W        W73520  23.206   3.435   4.653
 1261W        W73521  35.917  26.151  14.807
 1262W        W73522  21.021  12.656  12.373
 1263W        W73523  33.403   7.884   3.231
 1264W        W73524  26.093  28.568   4.663
 1265W        W73525  13.767  14.281   0.255
 1266W        W73526  43.516   2.813   4.169
 1267W        W73527  22.018  44.366  14.291
 1268W        W73528   6.726  33.550   3.824
 1269W        W73529  15.306   8.709  11.014
 1270W        W73530  28.532  37.381   0.257
 1271W        W73531  23.613  14.151  11.890
 1272W        W73532  31.408  35.083  10.985
 1273W        W73533  40.476  22.243   2.877
 1274W        W73534  27.119  21.695  14.322
 1275W        W73535  19.193  35.943   0.778
 1276W        W73536   0.948  44.449  10.942
 1277W        W73537  13.705  36.003   1.884
 1278W        W73538  44.916  20.600   3.337
 1279W        W73539  15.124  18.252  13.332
 1280W        W73540  17.683  42.894  11.941
 1281W        W73541  35.487   0.881  10.574
 1282W        W73542  23.716   3.902   4.230
 1283W        W73543  25.980  19.250  11.037
 1284W        W73544   3.316  27.118  13.341
 1285W        W73545  32.962  16.199  11.859
 1286W        W73546  17.599  34.055  14.462
 1287W        W73547  27.954   4.811  12.072
 1288W        W73548  38.374  23.703  12.869
 1289W        W73549   7.784  25.999   3.202
 1290W        W73550   0.947   8.880  10.051
 1291W        W73551  25.628  18.142  10.136
 1292W        W73552  29.038   1.348   3.277
 1293W        W73553  40.458  25.994   1.235
 1294W        W73554  35.023  24.711  14.330
 1295W        W73555  26.618  42.418   2.332
 1296W        W73556  33.427  11.786   1.829
 1297W        W73557  40.424   5.418   3.304
 1298W        W73558  41.450  42.974   3.279
 1299W        W73559  11.161  21.063   3.679
 1300W        W73560  24.623   2.453   2.251
 1301W        W73561   9.870   7.845   3.814
 1302W        W73562  19.641  18.275   1.216
 1303W        W73563   0.753  26.531   5.109
 1304W        W73564   2.937   7.369   4.776
 1305W        W73565  10.715  12.359   0.921
 1306W        W73566   1.846   2.732  10.480
 1307W        W73567   9.299  36.883   1.223
 1308W        W73568   6.920  34.003  13.357
 1309W        W73569  33.070  35.015  12.435
 1310W        W73570  10.254  12.793   3.653
 1311W        W73571  16.722  16.773   2.665
 1312W        W73572  40.836  15.253  12.466
 1313W        W73573  35.365  44.866  11.026
 1314W        W73574  11.180  13.683  10.958
 1315W        W73575  43.428  14.151  10.078
 1316W        W73576  18.714  24.055  12.066
 1317W        W73577  26.512   0.407   0.375
 1318W        W73578   5.764  37.494  12.070
 1319W        W73579  20.622  30.132  10.557
 1320W        W73580  29.173  11.863   2.818
 1321W        W73581  15.696  20.084   1.415
 1322W        W73582  18.626  13.263  12.461
 1323W        W73583  32.615   8.367  14.959
 1324W        W73584  34.056  37.480   2.220
 1325W        W73585  16.771  14.760   4.622
 1326W        W73586   4.738  27.987  11.040
 1327W        W73587   1.963  29.992  10.446
 1328W        W73588  33.028  25.554   4.790
 1329W        W73589  37.872   7.224  14.774
 1330W        W73590  22.035   8.747  14.972
 1331W        W73591   7.237  35.082   0.749
 1332W        W73592  23.142  40.952  14.283
 1333W        W73593  32.535  34.969   0.380
 1334W        W73594  10.823  43.813   3.195
 1335W        W73595   9.377   8.800   4.229
 1336W        W73596  21.646  10.770  14.493
 1337W        W73597   5.309  10.868   4.682
 1338W        W73598  34.963  41.832  14.280
 1339W        W73599   1.828  40.948  12.367
 1340W        W73600  25.540   7.230  11.062
 1341W        W73601  30.493  24.152  11.379
 1342W        W73602  11.317  30.005  11.019
 1343W        W73603  16.783  35.393   3.150
 1344W        W73604  19.106  27.147  12.963
 1345W        W73605  40.367   7.792   0.828
 1346W        W73606  36.035  23.241  11.518
 1347W        W73607  26.207  39.990  12.488
 1348W        W73608  19.139  20.182   3.364
 1349W        W73609  29.929  43.853  14.986
 1350W        W73610  17.172   3.325  10.000
 1351W        W73611  27.494  17.168  14.939
 1352W        W73612  33.620  37.919  11.512
 1353W        W73613  31.968  38.478   3.306
 1354W        W73614  19.189   1.933   2.206
 1355W        W73615   9.335  16.802   3.277
 1356W        W73616  14.807  16.618   1.296
 1357W        W73617  19.731  38.376   3.312
 1358W        W73618  18.089   7.681   9.539
 1359W        W73619   8.247  31.416  11.567
 1360W        W73620  36.858  30.142  12.040
 1361W        W73621   6.815  18.605   2.692
 1362W        W73622  12.672  40.511  11.085
 1363W        W73623  15.643  30.918  14.017
 1364W        W73624   5.283  22.654   3.251
 1365W        W73625  20.557   4.438  10.563
 1366W        W73626  34.876  10.279   4.769
 1367W        W73627  24.978  21.197   5.258
 1368W        W73628  33.020  15.588  13.406
 1369W        W73629  36.036  19.117   1.340
 1370W        W73630  24.651  30.460   3.833
 1371W        W73631  26.985  31.523  13.860
 1372W        W73632  19.747  39.808  12.045
 1373W        W73633  35.385   3.440  10.593
 1374W        W73634   0.249  32.967   3.784
 1375W        W73635  29.012  26.977   2.297
 1376W        W73636  42.860   4.219   0.748
 1377W        W73637  16.619   7.298   0.466
 1378W        W73638  37.435  11.859   2.192
 1379W        W73639  30.559  23.045  13.959
 1380W        W73640  44.417   8.765   3.353
 1381W        W73641   2.434  31.012   1.446
 1382W        W73642  37.536  34.451   1.316
 1383W        W73643  15.634  40.830   2.387
 1384W        W73644   3.346  39.494  14.809
 1385W        W73645  36.377   5.412  14.788
 1386W        W73646   3.788  29.611  11.455
 1387W        W73647   5.319   1.305  12.897
 1388W        W73648  10.654   1.749  13.824
 1389W        W73649  22.141  28.931  14.814
 1390W        W73650   4.263   3.782  12.976
 1391W        W73651   9.755  26.652  14.893
 1392W        W73652  12.665  30.033  13.986
 1393W        W73653  17.067  24.060   4.738
 1394W        W73654  23.134  18.653   2.678
 1395W        W73655  18.218  42.328  12.473
 1396W        W73656  31.996  37.540  12.082
 1397W        W73657  18.600   2.786   0.464
 1398W        W73658  44.304  20.117   0.381
 1399W        W73659  38.869  29.961   1.757
 1400W        W73660   0.897  29.504  13.492
 1401W        W73661  32.021  34.601  12.007
 1402W        W73662  24.075  28.956  13.502
 1403W        W73663  32.573  13.623  10.934
 1404W        W73664  20.269  35.582   0.447
 1405W        W73665  14.690  39.889   1.694
 1406W        W73666   5.394   8.654  12.079
 1407W        W73667  26.470  41.391   1.348
 1408W        W73668  27.479  40.500  13.939
 1409W        W73669   9.752  27.538   4.818
 1410W        W73670   8.776   6.754  11.454
 1411W        W73671  17.193  12.158   9.995
 1412W        W73672  24.035  44.367  12.845
 1413W        W73673  17.156   8.244   9.995
 1414W        W73674  42.872  42.321   3.305
 1415W        W73675  26.053   9.327   2.361
 1416W        W73676   0.396   8.286   0.893
 1417W        W73677   0.297  34.483   3.848
 1418W        W73678  16.096   8.803   4.312
 1419W        W73679  39.897  41.016   4.787
 1420W        W73680   5.308  38.462  11.070
 1421W        W73681   8.812  26.005  12.828
 1422W        W73682   3.402  17.152   2.406
 1423W        W73683   1.360  18.208   0.482
 1424W        W73684  19.772  43.302   4.328
 1425W        W73685  15.699  41.320   1.711
 1426W        W73686  40.443  25.703  14.866
 1427W        W73687  21.567  43.509   3.231
 1428W        W73688  39.059   0.761   3.818
 1429W        W73689  35.377  34.487  14.428
 1430W        W73690  34.909   4.429   0.331
 1431W        W73691  36.934  37.038   4.612
 1432W        W73692  14.119  38.876  14.431
 1433W        W73693  24.147  34.487   0.911
 1434W        W73694  29.643  31.496  14.492
 1435W        W73695  28.058  17.151   1.817
 1436W        W73696  42.848  37.005  13.857
 1437W        W73697  29.602   5.197   0.820
 1438W        W73698  15.205  10.271  11.489
 1439W        W73699  41.931  18.736  12.865
 1440W        W73700  20.661  33.618  10.541
 1441W        W73701  34.593  29.973  12.414
 1442W        W73702  40.511   8.400  12.022
 1443W        W73703   7.776   6.363  11.407
 1444W        W73704  31.520   1.964  13.051
 1445W        W73705  29.445  21.524   3.160
 1446W        W73706   1.241  15.673   1.734
 1447W        W73707  17.752  17.570  13.912
 1448W        W73708  18.051   1.862   4.256
 1449W        W73709  15.588  19.686   4.598
 1450W        W73710  25.969  24.633   0.916
 1451W        W73711  29.943   7.874  10.593
 1452W        W73712   4.918  39.473  13.015
 1453W        W73713  31.451  36.898  11.907
 1454W        W73714  39.811  42.018  11.055
 1455W        W73715  19.563  13.160   4.693
 1456W        W73716  10.643  41.884  13.386
 1457W        W73717  21.601  17.217  12.071
 1458W        W73718  11.829  11.183  10.561
 1459W        W73719  23.634  44.426  14.898
 1460W        W73720   0.763  21.054  11.039
 1461W        W73721   8.740  10.755  10.573
 1462W        W73722   2.925  42.474  14.421
 1463W        W73723  21.055  35.942   1.716
 1464W        W73724  10.874  15.708   0.273
 1465W        W73725  32.978  36.856  13.929
 1466W        W73726   6.304  34.886  11.904
 1467W        W73727   6.185  19.663  10.159
 1468W        W73728  36.097  31.085  12.386
 1469W        W73729  23.101  25.175  10.627
 1470W        W73730  38.969  41.361   2.901
 1471W        W73731  10.208  23.513  13.798
 1472W        W73732   6.793  41.486  11.884
 1473W        W73733  13.131  13.722   1.451
 1474W        W73734  11.688  35.596  12.347
 1475W        W73735  10.649  41.433  11.895
 1476W        W73736  36.030   8.337   5.124
 1477W        W73737  15.089  29.631  14.384
 1478W        W73738  11.646   8.164  10.583
 1479W        W73739  21.088  32.550   3.275
 1480W        W73740  27.975   6.373   5.095
 1481W        W73741  28.599  28.021   0.728
 1482W        W73742  23.697   2.345   3.802
 1483W        W73743   5.824  29.922   0.854
 1484W        W73744   7.791  21.552  11.499
 1485W        W73745  39.488  30.984  14.876
 1486W        W73746   1.890   5.327   4.161
 1487W        W73747  24.185  41.358   0.840
 1488W        W73748   1.268  23.157   4.194
 1489W        W73749  14.602   1.913  11.114
 1490W        W73750  41.965  24.580  13.533
 1491W        W73751   6.902  18.229  13.451
 1492W        W73752  13.234  15.146  10.043
 1493W        W73753   5.792  19.187  12.066
 1494W        W73754   5.432   5.821   3.188
 1495W        W73755  34.533  31.073  14.982
 1496W        W73756  38.349   5.395  13.318
 1497W        W73757  14.652  42.000   4.708
 1498W        W73758  22.225  18.683   3.682
 1499W        W73759  15.716  25.139   4.746
 1500W        W73760  35.383  12.649  12.550
 1501W        W73761   4.822  12.672  14.467
 1502W        W73762  14.329  34.067  10.970
 1503W        W73763  42.964   3.811  11.989
 1504W        W73764  10.313  33.038   0.416
 1505W        W73765  44.492   7.312   3.312
 1506W        W73766  21.670   9.256   2.257
 1507W        W73767  36.579  10.712   4.296
 1508W        W73768  13.147  41.953  10.967
 1509W        W73769  29.463  11.265   3.154
 1510W        W73770  18.757  23.041  11.607
 1511W        W73771  33.458  10.266  10.068
 1512W        W73772  13.625  17.293  10.490
 1513W        W73773   1.902  35.462   3.259
 1514W        W73774   7.185  21.588  11.588
 1515W        W73775  34.975  21.600   4.277
 1516W        W73776  15.187  42.026   4.176
 1517W        W73777   2.443  27.153  10.626
 1518W        W73778   3.803   0.891  13.943
 1519W        W73779  32.002  27.539  14.026
 1520W        W73780  24.150   2.909  10.460
 1521W        W73781  25.530   1.342   1.404
 1522W        W73782   9.832  34.950   3.834
 1523W        W73783  33.893  26.612  11.886
 1524W        W73784   7.313  12.353   4.832
 1525W        W73785   9.818  35.369   4.286
 1526W        W73786  16.656   9.164  11.964
 1527W        W73787  35.586  12.353   2.849
 1528W        W73788   3.323  20.563  11.434
 1529W        W73789  40.438  36.454  13.822
 1530W        W73790   5.390  31.550   1.758
 1531W        W73791   4.261   7.673  11.390
 1532W        W73792  39.872  17.163  14.956
 1533W        W73793  24.540  38.015   3.835
 1534W        W73794  44.362   9.887   0.306
 1535W        W73795  31.093   5.926  12.456
 1536W        W73796  36.936  29.650   2.296
 1537W        W73797  28.479   9.704   1.372
 1538W        W73798  27.943  37.575  13.409
 1539W        W73799  27.638  24.671   1.379
 1540W        W73800   9.314  42.842   2.228
 1541W        W73801  30.619  32.940  12.556
 1542W        W73802   7.793  34.017   4.615
 1543W        W73803  41.381  44.008  13.951
 1544W        W73804  34.121   5.852  13.453
 1545W        W73805  40.896  20.675   3.859
 1546W        W73806  35.559  38.405  12.365
 1547W        W73807  37.573   3.381  14.825
 1548W        W73808  30.021  14.233  12.024
 1549W        W73809   6.885  39.898   3.153
 1550W        W73810  43.004  14.171  12.464
 1551W        W73811  18.223  32.514   0.928
 1552W        W73812  19.675   1.469  12.486
 1553W        W73813  17.247  17.590   3.356
 1554W        W73814  28.551  21.748   4.746
 1555W        W73815   1.880  38.895  14.371
 1556W        W73816  24.621  36.352   1.348
 1557W        W73817  22.546  10.179   4.678
 1558W        W73818  44.978   4.416   1.900
 1559W        W73819   1.764  44.420  11.093
 1560W        W73820  16.638  35.003  14.991
 1561W        W73821  32.887  27.669  14.313
 1562W        W73822  34.037  43.786   2.360
 1563W        W73823  40.540  21.204  10.923
 1564W        W73824  32.139  19.175   4.672
 1565W        W73825  32.002  35.042  11.399
 1566W        W73826  13.256  19.252   1.359
 1567W        W73827  39.031   5.412   4.694
 1568W        W73828  24.100  44.473  13.885
 1569W        W73829  26.163  35.103   4.221
 1570W        W73830  35.457  28.474  13.935
 1571W        W73831  21.722  37.540  14.970
 1572W        W73832  43.483   2.229   3.220
 1573W        W73833  13.270  42.914   4.226
 1574W        W73834   6.684  41.888  14.861
 1575W        W73835  16.718  27.977   0.823
 1576W        W73836  12.171  43.855  11.597
 1577W        W73837  16.250   6.373   4.723
 1578W        W73838  39.460  13.698   2.891
 1579W        W73839   6.295  18.169   1.847
 1580W        W73840  20.606  15.094  10.586
 1581W        W73841  33.491  11.170  12.546
 1582W        W73842  10.363  10.173  14.452
 1583W        W73843  33.541   9.314  10.939
 1584W        W73844  29.086  39.487   1.735
 1585W        W73845  16.745  29.087  13.516
 1586W        W73846  31.027  42.483  14.441
 1587W        W73847  12.788  36.028  11.022
 1588W        W73848   6.751  33.599   1.390
 1589W        W73849  32.556  37.423   3.788
 1590W        W73850   1.757  17.236   0.966
 1591W        W73851   9.383   6.813   1.215
 1592W        W73852  33.882  32.632   3.636
 1593W        W73853  30.566  27.649   3.714
 1594W        W73854  29.567  36.969   4.818
 1595W        W73855  35.365   7.897   3.244
 1596W        W73856  16.735  43.487   2.407
 1597W        W73857  15.254  26.489   0.425
 1598W        W73858  16.728  22.508  11.943
 1599W        W73859   0.767  40.421   0.797
 1600W        W73860  27.692  20.049  11.111
 1601W        W73861  38.032   7.296   0.753
 1602W        W73862  27.675  35.466   1.825
 1603W        W73863   1.738  23.632  14.413
 1604W        W73864  21.049  25.553  13.356
 1605W        W73865   1.324  14.100   4.225
 1606W        W73866  40.532  10.757   4.774
 1607W        W73867  24.685   8.748  14.862
 1608W        W73868   6.796  18.774  14.372
 1609W        W73869  44.970  26.072   2.417
 1610W        W73870  15.281  23.202   4.339
 1611W        W73871  30.110  35.012  11.879
 1612W        W73872  37.849  18.579  14.479
 1613W        W73873   4.757  32.613   3.656
 1614W        W73874   5.436  34.936   2.824
 1615W        W73875   1.353  18.659   0.768
 1616W        W73876  35.529  21.107  11.540
 1617W        W73877   3.268  26.699   5.130
 1618W        W73878   5.761  39.320  12.444
 1619W        W73879   7.393  29.626   1.719
 1620W        W73880  29.427  39.541   0.904
 1621W        W73881   0.789  23.596  10.917
 1622W        W73882   1.873  44.886   3.353
 1623W        W73883  40.928  16.093  14.868
 1624W        W73884  25.068  32.935  11.472
 1625W        W73885  14.789  24.105   3.147
 1626W        W73886  34.894  25.130   4.673
 1627W        W73887  17.621  15.605   0.871
 1628W        W73888  12.186  41.003  14.326
 1629W        W73889   2.346  16.662   2.896
 1630W        W73890  12.802  44.453  14.869
 1631W        W73891  39.516  33.971   4.216
 1632W        W73892  27.038  34.004  10.528
 1633W        W73893  31.051  33.002  12.000
 1634W        W73894  18.090  25.620  12.391
 1635W        W73895  32.936  44.787  14.782
 1636W        W73896  28.138   7.225  14.778
 1637W        W73897  33.029  33.589  12.531
 1638W        W73898  24.093  31.106   1.718
 1639W        W73899  14.644  13.757   3.793
 1640W        W73900  41.511  19.734   2.794
 1641W        W73901  20.615   3.924   1.316
 1642W        W73902  20.689  28.478   2.732
 1643W        W73903  23.031  38.355   2.330
 1644W        W73904  14.285  17.131   4.831
 1645W        W73905   4.734  25.622   5.245
 1646W        W73906  26.078  17.260  13.494
 1647W        W73907  19.671  24.230  14.464
 1648W        W73908  28.122  26.459   4.244
 1649W        W73909  25.609  26.592  14.882
 1650W        W73910  43.845   5.203   1.447
 1651W        W73911  28.051  31.550  10.460
 1652W        W73912   0.838  43.469  10.986
 1653W        W73913  32.421  17.123  10.592
 1654W        W73914  31.145  21.142  10.919
 1655W        W73915   0.865   8.863  14.313
 1656W        W73916  14.302  23.089   4.284
 1657W        W73917  25.196  25.122  14.878
 1658W        W73918  38.428  32.995  11.526
 1659W        W73919   3.341  33.428   2.197
 1660W        W73920  41.873  41.041   1.318
 1661W        W73921  33.087  43.460   0.448
 1662W        W73922  29.039  29.666   0.903
 1663W        W73923  18.553  40.396   5.169
 1664W        W73924  11.130  38.920  12.369
 1665W        W73925   0.418  35.553   1.753
 1666W        W73926  19.128  24.137  14.851
 1667W        W73927  12.844  17.655   4.660
 1668W        W73928  40.320  16.208   1.210
 1669W        W73929  26.557  11.270   4.230
 1670W        W73930   2.287  38.483  13.363
 1671W        W73931  25.702  43.983  14.832
 1672W        W73932  19.142  41.308  13.345
 1673W        W73933  19.540  11.747   4.229
 1674W        W73934  23.130  21.116   1.875
 1675W        W73935  22.190  40.375  10.488
 1676W        W73936  28.627  41.815  10.495
 1677W        W73937  26.510  44.963   3.252
 1678W        W73938  32.404  19.748   2.226
 1679W        W73939   2.795  26.120  11.417
 1680W        W73940   4.720  43.944   4.172
 1681W        W73941  31.037  23.595   3.689
 1682W        W73942  22.232   0.420   1.844
 1683W        W73943  42.801  42.853  12.047
 1684W        W73944  16.229  11.226  11.552
 1685W        W73945   3.712  26.964  13.002
 1686W        W73946  26.179  23.498   3.855
 1687W        W73947   7.887  31.028   3.731
 1688W        W73948   6.837  18.256   3.636
 1689W        W73949  43.909   8.681   4.804
 1690W        W73950  41.944   2.910  12.517
 1691W        W73951   4.400  17.647  13.335
 1692W        W73952  32.544  44.796   3.154
 1693W        W73953   8.177  34.549  13.047
 1694W        W73954  25.677   8.333   4.185
 1695W        W73955   3.373  32.509  11.932
 1696W        W73956  40.334  30.963  12.475
 1697W        W73957   8.252  29.016   1.719
 1698W        W73958  19.244  38.326  12.388
 1699W        W73959  26.991  22.006   3.343
 1700W        W73960  44.972  35.081  12.435
 1701W        W73961  14.261  15.265   2.243
 1702W        W73962  22.632  33.949  13.791
 1703W        W73963  11.254  30.526  12.060
 1704W        W73964   1.741  25.084  12.512
 1705W        W73965   8.878   9.818   2.895
 1706W        W73966   6.306  10.680  14.444
 1707W        W73967   5.436  16.810  11.071
 1708W        W73968  37.995  33.429  11.896
 1709W        W73969  22.127   0.747  11.549
 1710W        W73970  32.051  12.802  11.425
 1711W        W73971   7.765  37.087  14.873
 1712W        W73972  40.939  27.491   1.410
 1713W        W73973  29.050   0.792   3.818
 1714W        W73974  38.977  41.936  10.512
 1715W        W73975  23.592  12.188   0.892
 1716W        W73976  40.536   9.867   4.250
 1717W        W73977  23.643   8.738   3.158
 1718W        W73978   2.393   1.289  10.452
 1719W        W73979  10.781  28.064  12.881
 1720W        W73980  35.390   9.313  12.454
 1721W        W73981  21.146   6.427   4.746
 1722W        W73982  41.830  36.867  12.418
 1723W        W73983  23.709  18.293   1.882
 1724W        W73984  17.643  15.131   2.669
 1725W        W73985  26.205  17.722   2.856
 1726W        W73986  41.034   0.474  12.961
 1727W        W73987  32.096  28.097  13.404
 1728W        W73988  16.258  36.097  10.549
 1729W        W73989   9.322  16.164   4.170
 1730W        W73990  39.454  23.685  11.552
 1731W        W73991  31.618  32.138  13.393
 1732W        W73992  24.062  13.153  13.385
 1733W        W73993  40.035  40.303  12.349
 1734W        W73994  21.537  15.290   2.338
 1735W        W73995  37.441  20.723   4.319
 1736W        W73996  37.907  29.428  12.087
 1737W        W73997   0.427   5.339   1.238
 1738W        W73998  40.361  44.978  12.997
 1739W        W73999  32.501  17.098  10.120
 1740W        W74000  19.720  33.477  14.313
 1741W        W74001  31.629  16.681   1.213
 1742W        W74002  34.940  11.333   4.834
 1743W        W74003  28.992  10.208  13.402
 1744W        W74004  27.509   5.403   0.824
 1745W        W74005   4.275  12.636  13.409
 1746W        W74006  27.981  43.488   3.823
 1747W        W74007   7.373  31.135  10.495
 1748W        W74008  41.314  43.286   4.164
 1749W        W74009  10.855   5.397  13.058
 1750W        W74010  38.458  38.941  10.453
 1751W        W74011  34.491  42.017  13.857
 1752W        W74012  34.401  29.017   1.348
 1753W        W74013  21.551   4.218   3.820
 1754W        W74014   2.915  31.978   5.108
 1755W        W74015  42.905  22.067  13.483
 1756W        W74016   7.402   6.738  14.417
 1757W        W74017  32.020  20.134   2.347
 1758W        W74018  39.979  19.074   3.717
 1759W        W74019  40.398  22.533   0.403
 1760W        W74020  13.163  25.486   1.340
 1761W        W74021  33.385  24.496   1.881
 1762W        W74022  21.573  43.957  10.644
 1763W        W74023   2.228  32.047  12.448
 1764W        W74024  42.988   0.799   5.171
 1765W        W74025  23.587  31.011  14.973
 1766W        W74026  25.566   1.757   2.296
 1767W        W74027  26.661  16.571  11.412
 1768W        W74028  31.467  23.105  11.935
 1769W        W74029  10.179  17.697   0.356
 1770W        W74030  32.511  21.641   4.807
 1771W        W74031  12.664  41.447   0.466
 1772W        W74032  13.170  43.395  12.980
 1773W        W74033  13.146  32.538   3.752
 1774W        W74034   0.887  42.832   5.211
 1775W        W74035   0.304  21.110  12.437
 1776W        W74036  33.447   1.777   1.356
 1777W        W74037   8.679  35.089   0.370
 1778W        W74038  23.157  21.162  13.824
 1779W        W74039  42.949  40.428  12.072
 1780W        W74040  29.526  29.950  10.040
 1781W        W74041  16.746  42.980   0.362
 1782W        W74042   3.315  20.744   1.234
 1783W        W74043  14.698  29.572  14.811
 1784W        W74044  28.531  39.992   4.781
 1785W        W74045   8.345  19.576  13.434
 1786W        W74046  26.024   9.229  12.976
 1787W        W74047   2.901  22.604   4.617
 1788W        W74048   6.830  29.563   0.392
 1789W        W74049  25.165   9.655   0.257
 1790W        W74050  22.220  25.214  14.854
 1791W        W74051  22.503   3.249   2.821
 1792W        W74052  14.100  37.998   0.365
 1793W        W74053  29.667  44.889   1.782
 1794W        W74054   7.239  10.215   2.812
 1795W        W74055  13.335  33.421  12.030
 1796W        W74056  16.282  31.571   2.383
 1797W        W74057   1.753  26.052   3.188
 1798W        W74058  28.028  42.373  12.977
 1799W        W74059   2.735   4.736  13.916
 1800W        W74060  25.069   3.305  14.019
 1801W        W74061  17.194   0.922   3.722
 1802W        W74062  44.911  10.812   0.389
 1803W        W74063  15.789  26.651  13.952
 1804W        W74064  13.151   7.242   4.284
 1805W        W74065  37.995  32.009   1.221
 1806W        W74066   4.756  16.176  12.995
 1807W        W74067  41.887   0.760  14.801
 1808W        W74068   9.749  20.543  14.429
 1809W        W74069  26.104  37.358   9.924
 1810W        W74070  43.892  41.876  10.450
 1811W        W74071  17.693  17.667   1.822
 1812W        W74072  24.021   2.826  14.842
 1813W        W74073  30.919  28.173  11.928
 1814W        W74074  38.852  32.945  10.989
 1815W        W74075   0.795   0.350   1.303
 1816W        W74076  37.910  16.709  11.091
 1817W        W74077  29.516  16.752   2.403
 1818W        W74078   1.830  21.579  11.880
 1819W        W74079  24.112  28.484   0.412
 1820W        W74080  37.441  30.601  11.885
 1821W        W74081  44.970  38.853   3.250
 1822W        W74082   0.840  21.261  10.468
 1823W        W74083  10.292  26.469   0.268
 1824W        W74084  15.815  22.251   4.311
 1825W        W74085  20.072  31.138   0.368
 1826W        W74086   4.771  10.753  13.532
 1827W        W74087   1.414  43.769   3.381
 1828W        W74088  41.824  39.904   0.736
 1829W        W74089   1.961  30.466  12.021
 1830W        W74090  25.083  41.866  14.444
 1831W        W74091  20.738  43.343  12.875
 1832W        W74092  12.761  32.457  14.796
 1833W        W74093  16.761  29.026  11.891
 1834W        W74094  16.715  28.946   3.266
 1835W        W74095  36.008  25.480   4.274
 1836W        W74096  16.789  18.226   0.250
 1837W        W74097  28.151  41.016  12.408
 1838W        W74098  33.999  18.722   3.686
 1839W        W74099   9.206  18.709  10.960
 1840W        W74100  14.223  22.642  12.917
 1841W        W74101  16.188   3.267   4.725
 1842W        W74102  39.379  15.109   0.790
 1843W        W74103  24.037  19.756   9.986
 1844W        W74104  29.984  35.890  13.913
 1845W        W74105  16.692  20.220   0.370
 1846W        W74106  32.624  31.084   0.352
 1847W        W74107   5.819  34.877   3.835
 1848W        W74108  31.422  10.299  12.019
 1849W        W74109   9.758   6.407  11.026
 1850W        W74110   2.850  13.687   1.770
 1851W        W74111  29.922   1.952   4.227
 1852W        W74112   4.450   3.786   1.843
 1853W        W74113   4.777   5.243   1.241
 1854W        W74114  33.028   2.251   0.739
 1855W        W74115  23.668  36.452  11.458
 1856W        W74116  24.700   1.459  14.368
 1857W        W74117   9.714  44.833  13.923
 1858W        W74118  14.278  35.523   3.178
 1859W        W74119   8.381  10.189   2.779
 1860W        W74120  44.379   1.970  10.491
 1861W        W74121   6.709   3.882   3.169
 1862W        W74122   4.916   6.780  12.089
 1863W        W74123  26.597  30.944   0.350
 1864W        W74124   8.662  43.334  14.847
 1865W        W74125  15.271  13.309   1.292
 1866W        W74126  10.299  16.318  13.029
 1867W        W74127  34.370   3.893  12.410
 1868W        W74128  40.529  33.387   3.365
 1869W        W74129  42.516  22.217   3.349
 1870W        W74130  33.589  16.650  13.522
 1871W        W74131  19.758  20.751   5.196
 1872W        W74132  33.380  15.206  12.431
 1873W        W74133  38.496  21.029   4.141
 1874W        W74134  28.152  37.373  11.872
 1875W        W74135  18.746  18.595  14.311
 1876W        W74136   6.699  14.290   3.758
 1877W        W74137  32.428  31.582  11.471
 1878W        W74138  27.669  26.093   0.893
 1879W        W74139  21.679  12.762   3.713
 1880W        W74140  19.571  11.337   3.187
 1881W        W74141   5.334  40.380  13.888
 1882W        W74142   0.882  42.892   1.335
 1883W        W74143  30.001  12.247   3.804
 1884W        W74144   4.779  35.899   5.172
 1885W        W74145  40.360  34.993   2.221
 1886W        W74146   9.172  35.852  13.063
 1887W        W74147  12.813  15.619  11.527
 1888W        W74148  13.176  21.627  14.303
 1889W        W74149   0.978   8.754  12.562
 1890W        W74150  14.817   8.180   4.617
 1891W        W74151  38.823  30.985   3.296
 1892W        W74152  21.183  27.011   5.263
 1893W        W74153  40.338  34.921  12.555
 1894W        W74154  12.227  17.138   3.379
 1895W        W74155  26.020  23.990  11.568
 1896W        W74156  36.865  33.543   2.777
 1897W        W74157  35.929  12.324  14.816
 1898W        W74158  29.927   4.411   4.659
 1899W        W74159  22.084  14.711  12.954
 1900W        W74160  28.057  29.117  14.779
 1901W        W74161  44.975  42.328  10.602
 1902W        W74162  11.243  44.985   3.343
 1903W        W74163  23.123   5.810   4.119
 1904W        W74164  11.156  30.909  10.538
 1905W        W74165  18.780  38.410  11.433
 1906W        W74166   2.370  30.633   2.256
 1907W        W74167  18.780  25.132   5.207
 1908W        W74168  35.440  40.363  13.956
 1909W        W74169  20.547   0.438  12.884
 1910W        W74170   4.739  33.385  12.823
 1911W        W74171  10.149  15.234  12.833
 1912W        W74172  32.013  43.274   1.238
 1913W        W74173   4.328  42.306  14.322
 1914W        W74174  39.967  17.766  10.515
 1915W        W74175  25.109  24.659  10.630
 1916W        W74176  26.024  10.251  11.059
 1917W        W74177  38.050  17.682   0.447
 1918W        W74178   0.284  44.387  13.931
 1919W        W74179  26.700  17.585   1.701
 1920W        W74180   0.780  35.988   2.277
 1921W        W74181   9.864  27.470   2.792
 1922W        W74182  36.484   7.362  10.570
 1923W        W74183  36.410   9.165  11.417
 1924W        W74184   3.230  38.332   0.289
 1925W        W74185   1.801  11.328  14.016
 1926W        W74186  36.388  43.467  12.394
 1927W        W74187  10.166   8.172   3.820
 1928W        W74188   6.907   6.735   2.854
 1929W        W74189  23.676   5.321   4.283
 1930W        W74190  34.369  28.137  10.405
 1931W        W74191   9.844   2.412  11.120
 1932W        W74192   4.252  27.976  13.017
 1933W        W74193   9.320   3.241  13.384
 1934W        W74194   7.190  42.848   0.266
 1935W        W74195  14.670  22.006  14.946
 1936W        W74196  30.643  25.573   4.252
 1937W        W74197  36.371  27.966  12.500
 1938W        W74198  11.349  29.066  12.571
 1939W        W74199   1.778  10.201   3.797
 1940W        W74200  23.564   6.712   4.660
 1941W        W74201  41.984  23.175  13.529
 1942W        W74202  33.391   7.814  11.447
 1943W        W74203  40.458  30.012   1.297
 1944W        W74204  25.031   2.428   1.250
 1945W        W74205  32.074  36.374  10.474
 1946W        W74206   2.799   9.672  13.935
 1947W        W74207  34.978  38.465  14.989
 1948W        W74208  23.622  15.213   3.798
 1949W        W74209   5.751  13.292   2.771
 1950W        W74210  27.171   5.273  13.357
 1951W        W74211  23.174   1.802   0.243
 1952W        W74212   2.253  16.142   4.824
 1953W        W74213  10.700   6.823  13.791
 1954W        W74214  32.957  43.306  12.542
 1955W        W74215  18.649  42.434   2.767
 1956W        W74216   4.779  15.299   0.383
 1957W        W74217  37.429  21.657   0.448
 1958W        W74218  23.232  43.298   2.396
 1959W        W74219   4.224  37.018  14.290
 1960W        W74220  24.053  38.061  12.539
 1961W        W74221  38.026  22.724   0.887
 1962W        W74222   5.751  39.329   1.311
 1963W        W74223   2.883   4.819   4.627
 1964W        W74224  44.352   0.273   0.832
 1965W        W74225  12.668  38.073   4.791
 1966W        W74226  16.284  44.777  10.974
 1967W        W74227   0.907  12.673  13.336
 1968W        W74228  21.151   6.827  10.441
 1969W        W74229  37.453  14.827   3.160
 1970W        W74230  21.673  16.160   4.605
 1971W        W74231  40.963  33.926  11.600
 1972W        W74232  40.490  34.507   0.415
 1973W        W74233   1.354  20.596   3.746
 1974W        W74234   2.261   1.828   2.256
 1975W        W74235  37.914  30.534  14.467
 1976W        W74236  30.919  13.143  11.561
 1977W        W74237  42.340  41.849  12.384
 1978W        W74238  32.131   6.899   2.198
 1979W        W74239  23.051  33.957   3.315
 1980W        W74240  21.603   1.303   2.818
 1981W        W74241  23.600  12.265  13.374
 1982W        W74242   9.189  39.341   3.858
 1983W        W74243  31.096  28.652  12.033
 1984W        W74244   7.283  44.954   4.747
 1985W        W74245  10.759  43.349   4.307
 1986W        W74246  41.799  20.612   4.133
 1987W        W74247  10.296  31.960   5.165
 1988W        W74248   3.278   9.755   2.218
 1989W        W74249   8.375   7.260   2.832
 1990W        W74250   2.249   7.272   2.724
 1991W        W74251  25.561   2.346  11.917
 1992W        W74252  32.118  28.531   0.905
 1993W        W74253   4.823  24.151  10.571
 1994W        W74254  30.109   4.284  10.588
 1995W        W74255  20.199  28.969   1.430
 1996W        W74256  19.222  43.388  14.324
 1997W        W74257  41.299   5.247  12.493
 1998W        W74258  31.134   6.238   3.793
 1999W        W74259  12.777  14.291   1.886
 2000W        W74260  29.149  29.492  12.083
 2001W        W74261   6.334   7.328  10.982
 2002W        W74262  21.201  43.465   2.845
 2003W        W74263  17.160   5.335   0.343
 2004W        W74264  25.641  18.589   1.334
 2005W        W74265  12.342  13.292  12.566
 2006W        W74266   9.335  41.299   3.689
 2007W        W74267  28.105  35.021   5.259
 2008W        W74268  12.623  26.667  12.078
 2009W        W74269  14.617  14.102   5.188
 2010W        W74270   7.829  17.213  13.521
 2011W        W74271  40.903  43.286  13.537
 2012W        W74272  12.698  12.327   2.273
 2013W        W74273  19.147  35.007   4.655
 2014W        W74274  39.494   5.216  12.533
 2015W        W74275   6.299   6.853  13.376
 2016W        W74276  14.607  14.333   4.798
 2017W        W74277   5.255  30.476   2.182
 2018W        W74278   5.819   0.394  14.934
 2019W        W74279  39.474  36.476   1.449
 2020W        W74280  10.694  38.336  13.449
 2021W        W74281  10.226  19.065   4.679
 2022W        W74282  33.463   7.722   1.298
 2023W        W74283  26.049  33.986   0.474
 2024W        W74284   0.267   1.757  12.854
 2025W        W74285  36.007   9.230  13.517
 2026W        W74286  44.888  15.322  12.532
 2027W        W74287  16.264  21.613  12.037
 2028W        W74288  20.732  32.395  11.077
 2029W        W74289   8.211  28.166   1.920
 2030W        W74290  30.013  38.432  12.564
 2031W        W74291  28.064  44.289  13.977
 2032W        W74292  28.033  29.923   2.220
 2033W        W74293  42.462  28.587  13.490
 2034W        W74294  29.512   9.329  11.520
 2035W        W74295   2.914  35.871   3.704
 2036W        W74296  27.104  17.247  13.814
 2037W        W74297  42.297  27.582  13.019
 2038W        W74298  19.267  11.716   3.372
 2039W        W74299  27.142  14.104   4.264
 2040W        W74300  37.368  23.678   1.697
 2041W        W74301  17.659  28.987   1.291
 2042W        W74302  17.784   5.860  14.867
 2043W        W74303  44.430   1.314   1.800
 2044W        W74304  27.520  42.960  12.914
 2045W        W74305  10.356  27.119  12.353
 2046W        W74306  29.073  22.033   4.680
 2047W        W74307  17.720  23.170  10.982
 2048W        W74308  37.874  33.419   3.319
 2049W        W74309  19.068  43.784   0.749
 2050W        W74310   7.845  33.497   2.853
 2051W        W74311  39.400  43.468   1.284
 2052W        W74312  37.455  20.630  14.984
 2053W        W74313  10.820   2.408   0.786
 2054W        W74314   0.475  27.672   1.326
 2055W        W74315  33.595  43.392   3.235
 2056W        W74316  27.614  36.382  13.397
 2057W        W74317  22.662   1.769   0.305
 2058W        W74318   5.301  33.437   2.289
 2059W        W74319  10.357  18.691   1.245
 2060W        W74320  34.057  37.866  11.387
 2061W        W74321  16.688  31.422   3.687
 2062W        W74322  15.273  25.566   1.793
 2063W        W74323   0.314  22.054   3.192
 2064W        W74324   7.733  36.041   5.158
 2065W        W74325  27.956  33.383  11.007
 2066W        W74326  36.841  23.063  11.883
 2067W        W74327  32.616  19.272   1.917
 2068W        W74328  26.663  25.632   5.092
 2069W        W74329  18.091  40.986  14.475
 2070W        W74330  32.497  28.008   4.780
 2071W        W74331  26.543  42.992   2.805
 2072W        W74332  23.599  30.092   1.441
 2073W        W74333   6.759  14.217   4.715
 2074W        W74334  37.506  12.314   0.390
 2075W        W74335  14.213  24.661  10.556
 2076W        W74336  12.688  13.767  14.357
 2077W        W74337  11.796   4.247  14.819
 2078W        W74338  28.105  36.386  13.034
 2079W        W74339   0.282   5.314   3.710
 2080W        W74340   2.772  17.120   0.268
 2081W        W74341  14.156  23.991  13.809
 2082W        W74342  14.243  44.382   0.865
 2083W        W74343  41.480  44.279  12.502
 2084W        W74344   8.268   6.896  14.341
 2085W        W74345  34.042  14.190  12.429
 2086W        W74346  38.851   8.690  14.991
 2087W        W74347   9.224   1.417   4.171
 2088W        W74348  41.916  23.629  11.984
 2089W        W74349  40.032  44.980   4.278
 2090W        W74350  20.678  11.826   1.767
 2091W        W74351  26.958  27.666   2.258
 2092W        W74352   2.812  26.085  14.915
 2093W        W74353  20.717  24.201   0.937
 2094W        W74354   8.683  23.683  13.810
 2095W        W74355  19.706  32.477   4.352
 2096W        W74356  42.313  23.162  10.542
 2097W        W74357  22.067   5.256   4.681
 2098W        W74358   7.738  30.614  13.051
 2099W        W74359   6.288  12.820  14.330
 2100W        W74360   7.684  44.457  11.491
 2101W        W74361  42.398  43.373  13.486
 2102W        W74362   1.274  30.975   2.717
 2103W        W74363  39.839  34.582  11.970
 2104W        W74364  13.129  15.305   4.703
 2105W        W74365  26.166  31.144   3.853
 2106W        W74366  33.389  31.916  13.543
 2107W        W74367  29.152  42.926   3.311
 2108W        W74368  39.991   8.325  14.838
 2109W        W74369  39.871  12.681  13.399
 2110W        W74370  28.522  24.016   1.732
 2111W        W74371   0.412   0.258  10.506
 2112W        W74372  39.016  32.418  10.559
 2113W        W74373  39.367  43.776  14.498
 2114W        W74374   2.267  19.646  10.972
 2115W        W74375   3.360  27.158  11.585
 2116W        W74376  19.133  30.113  11.445
 2117W        W74377   5.729  43.453   1.339
 2118W        W74378  14.228  11.353   1.403
 2119W        W74379  31.927   6.287   0.260
 2120W        W74380  22.555   6.838  10.623
 2121W        W74381  19.717  26.170  11.888
 2122W        W74382  20.083   1.395   3.793
 2123W        W74383  12.776  22.142   0.830
 2124W        W74384  39.040  39.018   1.792
 2125W        W74385   5.369  32.988   4.602
 2126W        W74386  23.645  16.231   2.295
 2127W        W74387  35.975  34.501  11.875
 2128W        W74388   1.428  31.062  12.449
 2129W        W74389  20.764  14.677  13.056
 2130W        W74390  38.415  30.606  11.886
 2131W        W74391  27.074  43.322  12.935
 2132W        W74392   5.772  42.856  10.912
 2133W        W74393  15.640  36.002  13.515
 2134W        W74394  32.088   2.765  12.424
 2135W        W74395  44.998  21.621  12.426
 2136W        W74396  27.545  31.057  11.874
 2137W        W74397   5.773  34.606  13.316
 2138W        W74398  35.551  36.966  12.526
 2139W        W74399  25.130  32.549  14.375
 2140W        W74400  28.086  20.614  10.625
 2141W        W74401  18.095  25.963   3.157
 2142W        W74402   2.362   8.247  14.758
 2143W        W74403  34.377  19.541   0.785
 2144W        W74404  23.066  24.987  10.074
 2145W        W74405  32.616  27.037  12.425
 2146W        W74406  43.934  38.566  12.540
 2147W        W74407  41.939  38.871  10.059
 2148W        W74408  42.845   3.858   3.196
 2149W        W74409  27.967  23.533  14.765
 2150W        W74410  34.522  38.839  11.108
 2151W        W74411   0.338   2.421  11.874
 2152W        W74412  26.477  41.437   0.779
 2153W        W74413   8.309   8.750   5.290
 2154W        W74414  19.561  30.966  12.865
 2155W        W74415   7.851  35.025   0.917
 2156W        W74416  28.548  10.233  12.378
 2157W        W74417   8.849  40.496   1.755
 2158W        W74418  41.327  10.833   2.229
 2159W        W74419   9.343  29.009   1.245
 2160W        W74420  12.736  44.818   0.400
 2161W        W74421  44.323   5.690   0.967
 2162W        W74422  20.753  22.070  12.088
 2163W        W74423  31.996   8.336   4.663
 2164W        W74424  13.694  19.059  12.076
 2165W        W74425  19.203   0.357  11.481
 2166W        W74426  43.980  43.810  14.303
 2167W        W74427   3.303   7.897  14.779
 2168W        W74428   3.308  12.663   2.189
 2169W        W74429   4.895  19.728  11.519
 2170W        W74430   0.363  16.674   3.751
 2171W        W74431  19.576  42.437  14.769
 2172W        W74432  37.834  41.869   4.255
 2173W        W74433  40.005  14.341  14.760
 2174W        W74434  33.601  23.685   0.967
 2175W        W74435  31.525   8.760   0.774
 2176W        W74436  26.975  26.679   1.313
 2177W        W74437  20.684   9.646   1.865
 2178W        W74438   4.796   0.337   3.259
 2179W        W74439  21.642  26.022  11.465
 2180W        W74440   3.739  38.570   2.297
 2181W        W74441  39.334   3.726   0.846
 2182W        W74442   7.368  20.633  10.450
 2183W        W74443  43.438  21.523   3.821
 2184W        W74444  11.828  17.743  10.929
 2185W        W74445  42.505  11.673  12.447
 2186W        W74446   5.411  10.143  11.930
 2187W        W74447  14.765  29.090   4.341
 2188W        W74448  31.101  43.872  12.989
 2189W        W74449  12.362   8.369   4.726
 2190W        W74450  34.041  23.048   0.325
 2191W        W74451   1.434  39.442   2.404
 2192W        W74452  12.118   0.987  10.462
 2193W        W74453  32.126  21.076   2.901
 2194W        W74454  13.227  43.421  11.013
 2195W        W74455  25.077  16.630  10.452
 2196W        W74456  20.174  28.492  11.420
 2197W        W74457  18.256   8.393   9.977
 2198W        W74458  26.178   3.944   0.769
 2199W        W74459  19.761  34.534   2.870
 2200W        W74460  43.975  34.406   1.862
 2201W        W74461  37.014  28.168  13.925
 2202W        W74462  24.640  21.171  10.941
 2203W        W74463  33.457  19.751   4.762
 2204W        W74464  21.752  31.581  14.982
 2205W        W74465  41.874  16.629   1.256
 2206W        W74466  27.687  25.107   4.702
 2207W        W74467  44.415  41.319   1.846
 2208W        W74468  21.572  19.668   0.740
 2209W        W74469  28.080  22.063  13.363
 2210W        W74470  27.093  21.109   3.200
 2211W        W74471  30.584   7.811   0.938
 2212W        W74472  20.111  23.675  13.335
 2213W        W74473  30.474  23.549  14.945
 2214W        W74474  36.043   0.308  13.852
 2215W        W74475   7.880  41.357  10.600
 2216W        W74476   3.953  16.808   0.278
 2217W        W74477  38.941  43.810  13.040
 2218W        W74478   0.417  28.150  14.860
 2219W        W74479  12.759  25.972  13.315
 2220W        W74480   1.753  40.977  13.814
 2221W        W74481  13.338   2.259   1.768
 2222W        W74482  13.668  15.628   2.186
 2223W        W74483  18.122  37.465  11.008
 2224W        W74484  20.259   5.217   2.314
 2225W        W74485  35.371  29.110   0.759
 2226W        W74486  34.610  43.907  12.932
 2227W        W74487  13.716   7.714  13.483
 2228W        W74488  24.680  11.221  11.555
 2229W        W74489  22.079   3.936   4.177
 2230W        W74490  27.508  20.729  14.486
 2231W        W74491  14.791  36.017   0.746
 2232W        W74492  24.165  34.565   9.931
 2233W        W74493  31.513  30.937  14.827
 2234W        W74494  12.239  34.893  10.629
 2235W        W74495   7.359  28.118   3.745
 2236W        W74496   3.273  39.896   3.309
 2237W        W74497  23.231  31.507  12.844
 2238W        W74498  37.341  28.588  13.934
 2239W        W74499  16.666  27.033  14.024
 2240W        W74500  35.433  24.168   2.703
 2241W        W74501  16.692   1.930   3.290
 2242W        W74502  27.005  14.131   2.694
 2243W        W74503  38.549   2.826   1.342
 2244W        W74504   4.863  19.627   2.338
 2245W        W74505  23.011  21.678  14.464
 2246W        W74506   2.309   5.403  11.569
 2247W        W74507  10.283  34.465  11.439
 2248W        W74508   2.942  39.405   1.291
 2249W        W74509  16.618   9.255   1.859
 2250W        W74510  40.039  10.712   0.422
 2251W        W74511   7.339  18.768   4.698
 2252W        W74512  19.106   8.864  10.050
 2253W        W74513  41.964  24.626   2.674
 2254W        W74514  19.240  24.614  11.530
 2255W        W74515  25.031  40.822  12.862
 2256W        W74516  20.096   3.329  14.791
 2257W        W74517  36.506  23.648   3.637
 2258W        W74518   7.842  31.899   1.844
 2259W        W74519  16.126  41.307   4.138
 2260W        W74520  34.548  31.961  13.027
 2261W        W74521  29.574  10.663  12.921
 2262W        W74522  35.571   1.347  10.976
 2263W        W74523  36.565  31.898   3.750
 2264W        W74524  35.098  21.584   4.750
 2265W        W74525  27.642  24.588   0.748
 2266W        W74526  29.097   3.363   3.321
 2267W        W74527   1.248   0.918   1.931
 2268W        W74528  29.161  44.351   3.660
 2269W        W74529  32.933   0.399   1.869
 2270W        W74530  34.964  32.540  11.607
 2271W        W74531  33.541  43.385   4.205
 2272W        W74532  27.180  35.943  14.829
 2273W        W74533  32.620  14.337  14.011
 2274W        W74534  32.410   8.768   1.427
 2275W        W74535   0.389  11.161  14.277
 2276W        W74536  37.977  41.409  14.432
 2277W        W74537  39.500  22.572  12.096
 2278W        W74538  18.753  18.675   5.162
 2279W        W74539  14.278  24.175  10.993
 2280W        W74540  28.161  40.021  14.307
 2281W        W74541  16.574  43.975   0.476
 2282W        W74542  41.989  20.117  14.939
 2283W        W74543  38.521   8.322  14.473
 2284W        W74544   0.877  10.647  11.885
 2285W        W74545  33.108  12.231   4.663
 2286W        W74546  35.021  29.018  11.402
 2287W        W74547  33.065  27.146   3.373
 2288W        W74548  26.017  19.246   3.369
 2289W        W74549   0.431  10.815  11.003
 2290W        W74550  39.360   8.176  10.889
 2291W        W74551   6.417  38.934  11.560
 2292W        W74552  22.743  36.869   2.733
 2293W        W74553   8.760   5.379   3.266
 2294W        W74554  21.079  18.287  14.381
 2295W        W74555  32.943   3.239  12.471
 2296W        W74556   7.272  15.330   4.172
 2297W        W74557  30.575  29.008  10.467
 2298W        W74558  37.864  29.104  13.457
 2299W        W74559  15.323  43.780   4.163
 2300W        W74560   1.880   5.893   2.737
 2301W        W74561  32.561  42.313   0.961
 2302W        W74562  10.144  30.151   1.323
 2303W        W74563  20.736  12.204   3.736
 2304W        W74564  16.761  13.119  13.468
 2305W        W74565  36.069   9.316   1.339
 2306W        W74566   2.315   2.388  14.843
 2307W        W74567  36.349   5.259  12.943
 2308W        W74568  31.973   7.755   1.444
 2309W        W74569  43.332  37.016   4.163
 2310W        W74570  32.918  17.591  12.011
 2311W        W74571  10.293   8.799   3.208
 2312W        W74572  28.122  16.194  11.035
 2313W        W74573  35.030   2.758   1.784
 2314W        W74574  40.329  10.267   2.291
 2315W        W74575  16.284  27.033   1.435
 2316W        W74576  34.904  22.659   4.282
 2317W        W74577  19.612  28.964   4.653
 2318W        W74578  23.506  30.546   1.871
 2319W        W74579  41.988  35.920   5.269
 2320W        W74580   0.392  22.162   0.806
 2321W        W74581  34.099  13.740   0.352
 2322W        W74582  13.330  16.116  12.933
 2323W        W74583  34.886   6.922  14.349
 2324W        W74584  14.283  17.233   2.339
 2325W        W74585  42.450  32.050  12.506
 2326W        W74586  17.162  39.445  14.984
 2327W        W74587  16.146  30.461   2.383
 2328W        W74588   1.303  22.168   0.303
 2329W        W74589  36.003  33.584  12.083
 2330W        W74590  39.522   1.922   4.698
 2331W        W74591   7.732  36.432   2.419
 2332W        W74592   2.894  33.442  14.332
 2333W        W74593  35.539   3.772   0.860
 2334W        W74594  26.671  43.860  11.938
 2335W        W74595  19.715  16.218  12.474
 2336W        W74596  21.614  30.626  11.534
 2337W        W74597  31.896  38.053  11.488
 2338W        W74598  14.788  35.447   3.311
 2339W        W74599  19.212  23.685   0.299
 2340W        W74600  11.265  19.202  14.352
 2341W        W74601  38.917  31.076  13.996
 2342W        W74602   0.313  19.724  11.021
 2343W        W74603  34.040   1.859   3.812
 2344W        W74604  41.794  44.004  12.517
 2345W        W74605  35.988  17.777   0.430
 2346W        W74606  17.245   0.881   4.704
 2347W        W74607  38.330  17.770   1.368
 2348W        W74608  24.185   6.805   1.806
 2349W        W74609  41.867   3.238  13.887
 2350W        W74610   1.479  29.612   4.160
 2351W        W74611  43.890  13.171   3.636
 2352W        W74612  13.255  40.352   3.860
 2353W        W74613  40.324  10.139  10.046
 2354W        W74614  38.509  33.397   4.230
 2355W        W74615   3.756   3.386   3.733
 2356W        W74616  39.940   7.747  13.482
 2357W        W74617  17.302   8.389  11.900
 2358W        W74618  26.028  37.086  11.961
 2359W        W74619  43.784  15.801   1.412
 2360W        W74620  17.197   7.819   0.759
 2361W        W74621  37.520  21.743  12.901
 2362W        W74622  12.342  13.304   2.188
 2363W        W74623  24.115  39.385   3.252
 2364W        W74624   4.210  25.203  10.637
 2365W        W74625   3.266   2.253   2.759
 2366W        W74626  20.537  37.537   2.208
 2367W        W74627  33.501  19.154  10.967
 2368W        W74628  42.939  20.654   4.619
 2369W        W74629  12.795  42.340  14.359
 2370W        W74630  10.354  20.760   1.797
 2371W        W74631  37.894  14.830  12.544
 2372W        W74632  33.508  27.966  12.533
 2373W        W74633  39.498  43.805  14.815
 2374W        W74634   4.921  21.048   3.260
 2375W        W74635  32.604   0.382  10.578
 2376W        W74636  19.248  27.061   1.828
 2377W        W74637  38.347  12.727  13.472
 2378W        W74638   7.210   5.381   1.798
 2379W        W74639   3.862   4.408   2.705
 2380W        W74640  35.891  12.278  10.937
 2381W        W74641  38.475  30.604   1.805
 2382W        W74642   0.874   5.392   0.336
 2383W        W74643  43.817  30.120   2.751
 2384W        W74644  25.143  33.901   4.762
 2385W        W74645  13.284  35.884   0.794
 2386W        W74646  32.927  26.123  14.832
 2387W        W74647  43.939  27.034   0.931
 2388W        W74648  34.086  44.442   4.335
 2389W        W74649   0.310   9.770   1.274
 2390W        W74650  12.694  31.079  10.945
 2391W        W74651  26.585  34.869   5.297
 2392W        W74652  13.611   7.390   4.224
 2393W        W74653  33.496  20.147  10.538
 2394W        W74654  22.123  10.294   3.761
 2395W        W74655  39.458  41.844  13.376
 2396W        W74656  29.484  36.045  14.849
 2397W        W74657   3.429  30.152   2.400
 2398W        W74658  37.471  12.789  11.583
 2399W        W74659  27.593   9.329   2.205
 2400W        W74660  35.592   8.334   3.774
 2401W        W74661  29.523  19.236  12.041
 2402W        W74662  33.583  36.427  10.482
 2403W        W74663  16.605  20.113  13.498
 2404W        W74664  22.505   1.889   1.885
 2405W        W74665  41.816  22.094  11.934
 2406W        W74666  40.045  15.160  12.012
 2407W        W74667  31.026   7.344  13.440
 2408W        W74668  32.401  44.363  12.482
 2409W        W74669   2.307  35.100   4.827
 2410W        W74670  38.351   0.313   3.709
 2411W        W74671  26.029  28.994  11.023
 2412W        W74672   5.213  31.045   0.288
 2413W        W74673  39.926  31.597  12.965
 2414W        W74674   3.865  18.753  12.476
 2415W        W74675  10.362  12.116  14.325
 2416W        W74676  26.045  27.150   0.956
 2417W        W74677  31.504  14.223   2.418
 2418W        W74678   2.254   2.235   0.753
 2419W        W74679   9.756  41.969   3.297
 2420W        W74680  41.309  20.102   2.360
 2421W        W74681  17.080  38.828   1.216
 2422W        W74682  33.591   6.378  12.494
 2423W        W74683  25.045   7.739   4.606
 2424W        W74684   0.442  21.512  13.883
 2425W        W74685  25.698  39.848   2.774
 2426W        W74686  29.603  35.480   0.874
 2427W        W74687   4.866  26.079   3.741
 2428W        W74688  10.790  21.025   0.285
 2429W        W74689  22.059  25.666   0.393
 2430W        W74690   8.231  33.969   0.854
 2431W        W74691  39.938   6.384  12.978
 2432W        W74692  26.988   3.221   0.398
 2433W        W74693  43.866   9.842  12.559
 2434W        W74694  37.510  27.638   0.365
 2435W        W74695  37.069  14.613  11.462
 2436W        W74696  38.556  20.741  10.404
 2437W        W74697  25.710   2.875   2.828
 2438W        W74698  11.141  39.433   2.835
 2439W        W74699  15.173  25.089   3.643
 2440W        W74700  31.896   2.914  12.899
 2441W        W74701  11.709  25.017   2.764
 2442W        W74702  39.045   7.879  10.410
 2443W        W74703  22.194  16.131  10.919
 2444W        W74704  44.474  15.685   5.199
 2445W        W74705  27.584  17.153   1.798
 2446W        W74706  41.479  34.401  13.409
 2447W        W74707  11.707  25.134  13.063
 2448W        W74708  35.494  39.954  12.913
 2449W        W74709   8.712  16.803  12.958
 2450W        W74710  30.143  36.350   2.288
 2451W        W74711  43.014  20.625  11.576
 2452W        W74712  16.795  38.430  12.473
 2453W        W74713  33.876  42.447   4.706
 2454W        W74714  28.106   6.889   4.247
 2455W        W74715   7.688   1.438  11.904
 2456W        W74716  31.569   4.762  12.538
 2457W        W74717  24.130  24.081  14.884
 2458W        W74718  43.987  29.960   3.675
 2459W        W74719   0.760  16.181   0.947
 2460W        W74720  41.471  31.494  11.077
 2461W        W74721   9.349  24.087   1.921
 2462W        W74722  29.510  18.746  14.838
 2463W        W74723  23.619   5.272   2.808
 2464W        W74724  16.622  19.251   3.668
 2465W        W74725  23.237  38.018   2.408
 2466W        W74726  19.572   7.826   1.400
 2467W        W74727   1.839  22.602   1.256
 2468W        W74728  34.016  32.457  11.919
 2469W        W74729  44.475  23.681   3.655
 2470W        W74730  14.164  20.695   3.189
 2471W        W74731  24.640  15.690  14.451
 2472W        W74732  14.773   3.808  11.970
 2473W        W74733   7.180   4.273  10.988
 2474W        W74734  43.834  24.570  12.902
 2475W        W74735  38.328   0.487   2.211
 2476W        W74736  15.184  42.371  11.445
 2477W        W74737  32.632  17.605   2.671
 2478W        W74738  19.278  38.457   0.335
 2479W        W74739  14.103  23.149  14.422
 2480W        W74740  40.430  35.943  13.797
 2481W        W74741  36.849  39.358   2.271
 2482W        W74742  22.051   6.855   1.906
 2483W        W74743  22.023  26.043   4.209
 2484W        W74744  31.007   7.182  14.437
 2485W        W74745   1.747  35.465   4.630
 2486W        W74746  34.539  40.896   4.652
 2487W        W74747  42.500  11.315  14.867
 2488W        W74748   7.258   7.190  10.579
 2489W        W74749  38.053  40.836  11.984
 2490W        W74750  29.931   5.710  11.591
 2491W        W74751  24.483  35.424   3.866
 2492W        W74752  15.650  29.976   1.835
 2493W        W74753  15.626  24.102   5.250
 2494W        W74754  28.004  17.766  11.901
 2495W        W74755  29.120  16.687  13.323
 2496W        W74756  35.375  21.056  13.848
 2497W        W74757  14.338  21.541   2.314
 2498W        W74758   0.780   4.307   3.737
 2499W        W74759  30.414   1.281  14.298
 2500W        W74760  23.522  22.535   1.366
 2501W        W74761  14.299  19.145  12.987
 2502W        W74762  38.034  43.936  13.547
 2503W        W74763  28.161   2.957   0.480
 2504W        W74764  28.091   7.784   1.851
 2505W        W74765   8.330  27.973  13.319
 2506W        W74766  10.793   4.758   1.922
 2507W        W74767  25.584   9.379   4.625
 2508W        W74768  36.960  37.842   1.756
 2509W        W74769  13.674  36.571  14.976
 2510W        W74770   6.399  24.216   3.827
 2511W        W74771  32.898  14.150  13.545
 2512W        W74772   6.693  42.877  14.343
 2513W        W74773  40.963  39.917   2.670
 2514W        W74774   1.762  22.698   3.796
 2515W        W74775  35.485  30.528  13.000
 2516W        W74776  22.685  34.077  12.985
 2517W        W74777  21.151  23.078   4.171
 2518W        W74778  28.474  26.053  11.576
 2519W        W74779   4.246  21.668   2.339
 2520W        W74780  38.449   6.413  13.051
 2521W        W74781   3.735  41.427   4.644
 2522W        W74782   9.668  16.203   2.811
 2523W        W74783   1.307  30.943  11.922
 2524W        W74784  12.709  18.102   4.809
 2525W        W74785  13.312  40.979   3.719
 2526W        W74786  40.484  32.965   2.181
 2527W        W74787  12.197  30.646  14.461
 2528W        W74788  43.797  20.064   2.305
 2529W        W74789  40.464  17.764  10.484
 2530W        W74790  42.506  43.012  14.874
 2531W        W74791   6.326  36.504  12.044
 2532W        W74792  23.238   4.412  12.501
 2533W        W74793   3.920  29.652   1.914
 2534W        W74794  27.982  21.040  10.942
 2535W        W74795  33.397  36.909   1.851
 2536W        W74796  10.286  44.896   1.871
 2537W        W74797  38.529  42.485  13.390
 2538W        W74798   5.324   8.767  14.436
 2539W        W74799  15.221  17.288   9.553
 2540W        W74800  40.426  13.758   3.316
 2541W        W74801  21.217  14.199   3.307
 2542W        W74802  39.838   1.349  12.900
 2543W        W74803   0.358  40.874   2.220
 2544W        W74804  10.736  25.097  11.380
 2545W        W74805  27.148  35.369  12.998
 2546W        W74806  35.388  28.011   3.219
 2547W        W74807  26.624  25.003  11.411
 2548W        W74808  39.354  39.823  13.952
 2549W        W74809  38.522  25.150  11.482
 2550W        W74810   0.916  23.233  12.007
 2551W        W74811   5.309   3.282   1.323
 2552W        W74812   7.305  10.157   0.858
 2553W        W74813  23.153  22.212  13.469
 2554W        W74814   0.829   8.669  12.974
 2555W        W74815   8.679   2.840  14.927
 2556W        W74816   5.244  23.544  10.628
 2557W        W74817  38.895  21.620  12.911
 2558W        W74818  35.537   7.744  13.037
 2559W        W74819   9.310  29.551  10.462
 2560W        W74820  23.163   3.456  12.899
 2561W        W74821  16.699  29.649   3.240
 2562W        W74822  18.649   9.242   9.542
 2563W        W74823  14.590   2.888  13.059
 2564W        W74824  35.589  31.040  10.583
 2565W        W74825  40.368  37.364   3.640
 2566W        W74826   1.294   0.427   1.367
 2567W        W74827  22.593  11.226   4.232
 2568W        W74828   6.334  27.642   2.317
 2569W        W74829   6.797  27.015   4.734
 2570W        W74830  26.952  28.065  13.028
 2571W        W74831  41.040   0.260   0.379
 2572W        W74832   1.430  20.121   3.825
 2573W        W74833   2.227  35.886  13.007
 2574W        W74834  25.565  37.344   4.348
 2575W        W74835  17.286  25.106  12.053
 2576W        W74836   0.843   3.435  10.907
 2577W        W74837  19.706  23.053   2.818
 2578W        W74838  37.938  21.626  14.287
 2579W        W74839  23.200  28.484  10.421
 2580W        W74840  38.017  43.885  11.483
 2581W        W74841   2.450  12.625   3.326
 2582W        W74842  23.697  20.127  12.004
 2583W        W74843   5.297  18.102  11.041
 2584W        W74844  15.238  14.140  14.983
 2585W        W74845  38.885   4.255  13.531
 2586W        W74846   6.908  44.903  11.968
 2587W        W74847  28.517  38.533   1.442
 2588W        W74848   6.283  40.400   0.738
 2589W        W74849  36.972  30.080   2.708
 2590W        W74850  18.202  16.088   4.176
 2591W        W74851  14.303  36.093   2.406
 2592W        W74852   6.378  44.260   3.299
 2593W        W74853  20.161  36.432  12.405
 2594W        W74854  28.641  25.208  12.887
 2595W        W74855  12.247  32.087  12.958
 2596W        W74856   2.915  30.153   2.194
 2597W        W74857  25.522  30.569  11.095
 2598W        W74858  39.464  20.581   3.675
 2599W        W74859   0.489  37.340   4.704
 2600W        W74860  23.054  42.450   2.855
 2601W        W74861  30.073   3.299  11.104
 2602W        W74862  29.008   3.390   0.269
 2603W        W74863   8.780   9.856   3.276
 2604W        W74864   8.283  29.639   2.366
 2605W        W74865  18.665  23.606  13.446
 2606W        W74866  19.772   0.281  13.353
 2607W        W74867  36.879  37.394   2.821
 2608W        W74868  44.362  29.469   3.269
 2609W        W74869  27.034  10.715  12.546
 2610W        W74870  16.169  40.486  11.532
 2611W        W74871   1.801   6.269   0.387
 2612W        W74872  29.100  26.115  13.388
 2613W        W74873  11.210  44.391   3.736
 2614W        W74874   2.904  31.974  14.973
 2615W        W74875  22.029  32.086   2.393
 2616W        W74876  25.079   2.439  14.402
 2617W        W74877   5.399   0.490   4.815
 2618W        W74878   6.315  19.061   4.233
 2619W        W74879  35.403  21.672   3.821
 2620W        W74880  41.363   4.408   4.286
 2621W        W74881  23.709  13.270  10.623
 2622W        W74882   5.195  17.219   4.811
 2623W        W74883  41.531   5.314  13.407
 2624W        W74884  16.661  11.632   3.837
 2625W        W74885  38.995  28.456  12.515
 2626W        W74886   5.421  23.182  14.938
 2627W        W74887   9.718   5.300   0.368
 2628W        W74888  10.843  18.254  10.607
 2629W        W74889  25.590  36.043   3.201
 2630W        W74890  27.121  13.828   3.631
 2631W        W74891  31.910  10.143  12.411
 2632W        W74892  31.523   4.921   3.821
 2633W        W74893  41.354  26.479  14.840
 2634W        W74894  39.894  41.521   0.757
 2635W        W74895  32.934  35.414   4.655
 2636W        W74896  11.303  39.948  12.517
 2637W        W74897  16.317  20.649   2.251
 2638W        W74898  17.594   0.777  11.544
 2639W        W74899  24.598  14.623   0.426
 2640W        W74900   5.903  21.169  13.051
 2641W        W74901  39.877   4.757  11.888
 2642W        W74902  34.935  32.585   0.755
 2643W        W74903  28.467  40.816  10.956
 2644W        W74904  35.066  32.548   0.363
 2645W        W74905   4.939   1.237   4.233
 2646W        W74906  37.084   4.699   4.146
 2647W        W74907   9.682   5.439  10.549
 2648W        W74908   5.263  33.608   3.291
 2649W        W74909  26.477  41.887   1.328
 2650W        W74910   7.796  11.732  13.844
 2651W        W74911  25.156   8.698  12.403
 2652W        W74912  42.464  13.170   2.317
 2653W        W74913  28.561  13.824   4.173
 2654W        W74914  37.869  34.390   4.177
 2655W        W74915  24.179  37.476  10.632
 2656W        W74916  39.476  22.177   2.203
 2657W        W74917  28.670  17.600   0.779
 2658W        W74918   1.482  19.705  14.816
 2659W        W74919  30.457  30.950  13.365
 2660W        W74920  33.927  16.595   4.114
 2661W        W74921  42.914  15.611  10.970
 2662W        W74922  44.265  19.646  10.482
 2663W        W74923   1.892  41.435   1.706
 2664W        W74924  44.286  10.653  10.905
 2665W        W74925   2.943   9.751   0.361
 2666W        W74926  14.186  27.514   1.345
 2667W        W74927  44.321  12.635   2.252
 2668W        W74928  36.574   7.171  14.851
 2669W        W74929  32.422  26.011   2.377
 2670W        W74930  44.970  15.651  11.592
 2671W        W74931  41.831  30.948   1.324
 2672W        W74932  31.106   8.721   4.235
 2673W        W74933  21.218   4.732  13.511
 2674W        W74934   8.873  40.979  13.863
 2675W        W74935   8.891  44.007  11.103
 2676W        W74936   8.210  21.638  14.387
 2677W        W74937   0.349  20.732  12.400
 2678W        W74938  14.099  16.250  13.050
 2679W        W74939  20.738  27.002   9.540
 2680W        W74940  15.137  40.817  14.491
 2681W        W74941  11.810  13.344   3.349
 2682W        W74942  28.539  11.750  13.018
 2683W        W74943  10.811  18.134   1.389
 2684W        W74944  44.818  19.540  13.461
 2685W        W74945  31.442  38.843   1.288
 2686W        W74946   6.359  38.924  11.983
 2687W        W74947   7.255  13.812  10.407
 2688W        W74948  19.766  18.266   2.213
 2689W        W74949   7.681  17.246   0.777
 2690W        W74950  21.704  26.545  14.787
 2691W        W74951  41.840  11.733  13.532
 2692W        W74952  20.522  31.116   0.403
 2693W        W74953  13.664   4.708   3.761
 2694W        W74954  39.493  22.687  10.468
 2695W        W74955  15.718  28.577   4.220
 2696W        W74956  43.908  11.772  11.562
 2697W        W74957  35.973  18.730  14.498
 2698W        W74958  16.686   2.788   2.304
 2699W        W74959  37.480  40.023  11.388
 2700W        W74960  22.725  15.804   0.326
 2701W        W74961   7.871  19.539  14.966
 2702W        W74962  28.938  15.690  10.432
 2703W        W74963  28.020   6.339   1.262
 2704W        W74964  10.177  13.822   2.808
 2705W        W74965  12.826  13.223   2.877
 2706W        W74966  35.947  22.034   4.832
 2707W        W74967  39.049   4.825  11.401
 2708W        W74968  12.250  31.506   4.747
 2709W        W74969  30.992  12.198  14.489
 2710W        W74970  24.991  16.571   3.648
 2711W        W74971  27.136  23.540   4.759
 2712W        W74972  40.408  29.529   1.311
 2713W        W74973  12.840  43.975   1.752
 2714W        W74974  12.149  15.799   1.381
 2715W        W74975   7.405  34.992  10.482
 2716W        W74976  29.457  18.264  14.316
 2717W        W74977   6.418  18.201   4.139
 2718W        W74978  32.014  10.334   0.854
 2719W        W74979  20.132  17.142   0.438
 2720W        W74980  11.632  19.143   1.805
 2721W        W74981   3.306   9.870   4.234
 2722W        W74982   7.827  30.445  10.406
 2723W        W74983   2.415  17.151  14.027
 2724W        W74984  17.064   6.723   2.772
 2725W        W74985   5.764  12.618   2.256
 2726W        W74986   4.219  26.078   5.662
 2727W        W74987   1.899   0.979   0.335
 2728W        W74988  31.507  22.007   4.180
 2729W        W74989  15.329   5.273   2.854
 2730W        W74990  24.150  42.932   1.446
 2731W        W74991   9.333  23.611   1.272
 2732W        W74992  10.340  21.732   1.401
 2733W        W74993  18.226  15.649  13.541
 2734W        W74994  37.087  27.169   3.683
 2735W        W74995  22.517  18.096  13.841
 2736W        W74996   0.854  35.538  11.888
 2737W        W74997  25.644  10.737   0.386
 2738W        W74998   7.297  15.737   2.409
 2739W        W74999  31.569  31.961  14.487
 2740W        W75000  13.244  19.708  14.934
 2741W        W75001   1.434   1.959   2.210
 2742W        W75002   9.878  43.856   4.662
 2743W        W75003  35.026  15.281   1.903
 2744W        W75004   9.784  12.306  11.379
 2745W        W75005  27.506  22.115   0.415
 2746W        W75006  25.037  14.150   1.287
 2747W        W75007  41.810  11.313   0.474
 2748W        W75008  28.671  18.749   0.875
 2749W        W75009  44.759  38.423  10.497
 2750W        W75010   4.768  21.552   0.422
 2751W        W75011   8.209  30.085  11.004
 2752W        W75012  23.549  22.523  11.554
 2753W        W75013   1.820   5.244   2.201
 2754W        W75014   1.449  25.668   0.733
 2755W        W75015   3.311   4.215   0.453
 2756W        W75016  37.079   1.817   3.801
 2757W        W75017  20.267   9.822  10.489
 2758W        W75018  21.038  40.486   1.224
 2759W        W75019  25.484  29.975  11.026
 2760W        W75020  44.003  14.098  14.974
 2761W        W75021  19.235  11.353   0.809
 2762W        W75022  27.467  25.125   0.443
 2763W        W75023   2.812  41.520  12.491
 2764W        W75024  15.780  43.994  12.986
 2765W        W75025  36.403  41.933   0.284
 2766W        W75026  35.499  20.233  13.421
 2767W        W75027   4.868  13.172  13.971
 2768W        W75028  37.086  12.216   1.284
 2769W        W75029  19.748  26.153   3.767
 2770W        W75030  36.570   1.946  13.050
 2771W        W75031  25.098  41.466  12.384
 2772W        W75032   4.366  15.747   0.276
 2773W        W75033  41.955   1.786  11.903
 2774W        W75034  36.559  14.601  12.554
 2775W        W75035  36.350  35.941  14.374
 2776W        W75036  36.940  39.981   2.832
 2777W        W75037  40.826  28.013  13.874
 2778W        W75038  33.518  17.701  10.629
 2779W        W75039  24.663  41.510   1.301
 2780W        W75040  43.383  29.503  13.536
 2781W        W75041  13.303  18.285   2.679
 2782W        W75042  21.139  43.342  14.457
 2783W        W75043  27.117  12.291   2.321
 2784W        W75044  26.534  39.341  12.847
 2785W        W75045  39.012  38.334  12.030
 2786W        W75046  11.830  14.710   0.739
 2787W        W75047   3.729  19.258  13.366
 2788W        W75048  15.143  22.090   2.354
 2789W        W75049  26.072  14.624   0.857
 2790W        W75050  39.963  33.444   0.747
 2791W        W75051  24.183  19.093  14.457
 2792W        W75052  33.452  12.263  14.986
 2793W        W75053  10.234  31.989  13.027
 2794W        W75054   3.778  20.053   0.781
 2795W        W75055   5.778  11.772   2.251
 2796W        W75056  10.175  40.501  14.515
 2797W        W75057   5.268  12.847  14.925
 2798W        W75058  11.250  13.120  12.445
 2799W        W75059   9.883   4.915  10.134
 2800W        W75060  18.572   6.790  11.405
 2801W        W75061  33.084  27.190   2.898
 2802W        W75062  17.172  14.622   2.290
 2803W        W75063  20.148   9.805   4.218
 2804W        W75064  23.619  28.065   1.908
 2805W        W75065  40.945  27.497  11.031
 2806W        W75066  28.065   9.778   2.764
 2807W        W75067   5.752  25.477   5.669
 2808W        W75068  32.946   1.789  12.385
 2809W        W75069   6.705  19.184  11.386
 2810W        W75070  43.301   9.185   3.678
 2811W        W75071   3.747  44.004   0.769
 2812W        W75072   3.917  21.077   4.737
 2813W        W75073   4.343  33.092  12.061
 2814W        W75074  14.125  31.027   1.896
 2815W        W75075  17.607   6.259   5.785
 2816W        W75076  15.101   0.816   4.236
 2817W        W75077   9.746  30.507  11.078
 2818W        W75078  20.746  29.059   1.293
 2819W        W75079  12.629  37.032   4.795
 2820W        W75080  11.639  23.195   0.912
 2821W        W75081  22.715  35.019   4.607
 2822W        W75082  35.020  38.377   1.428
 2823W        W75083  32.097  31.947  14.412
 2824W        W75084  41.537  35.095  12.068
 2825W        W75085   2.878  41.479   2.782
 2826W        W75086   4.335  14.780  12.851
 2827W        W75087  18.112   9.236  14.853
 2828W        W75088   4.813  13.717  11.534
 2829W        W75089  35.361   0.880   3.755
 2830W        W75090  43.450  14.100   1.822
 2831W        W75091  24.025  29.547  10.597
 2832W        W75092  27.508   1.890   4.214
 2833W        W75093  17.621   7.794   1.779
 2834W        W75094  20.566   0.482  12.058
 2835W        W75095  38.411  33.481   1.754
 2836W        W75096  25.066  22.088   1.907
 2837W        W75097   3.257   4.833  11.889
 2838W        W75098  40.031  10.708   1.792
 2839W        W75099   1.952  18.591   4.753
 2840W        W75100  39.433  24.708   4.324
 2841W        W75101   7.210   6.760   1.252
 2842W        W75102   3.881  23.167   1.818
 2843W        W75103  36.380  42.837  11.601
 2844W        W75104  32.597   4.206  11.552
 2845W        W75105  28.487  17.062   3.649
 2846W        W75106  29.624   0.327   0.419
 2847W        W75107  32.896  34.096  11.598
 2848W        W75108  33.123  34.874  10.941
 2849W        W75109  11.689  10.337  12.431
 2850W        W75110  39.392  30.544   3.796
 2851W        W75111  15.805  37.375   2.779
 2852W        W75112  38.428   5.371   0.871
 2853W        W75113  27.470  15.581  13.437
 2854W        W75114  38.850  33.386   3.760
 2855W        W75115  34.518  33.459   0.782
 2856W        W75116  40.831   1.822   3.357
 2857W        W75117  14.139  18.637  11.555
 2858W        W75118  26.478  18.555   4.346
 2859W        W75119  26.513   8.749  12.457
 2860W        W75120  33.539  15.597   3.728
 2861W        W75121  26.952  26.187  11.112
 2862W        W75122   5.200   9.346  12.914
 2863W        W75123  22.233  15.167   4.761
 2864W        W75124  10.176  41.484   9.992
 2865W        W75125  41.494   0.270   2.867
 2866W        W75126  28.069  18.163   4.792
 2867W        W75127  25.710  17.094  12.024
 2868W        W75128  12.611  29.106   1.792
 2869W        W75129  39.918  14.175   0.365
 2870W        W75130  27.634  10.217   4.277
 2871W        W75131  22.008   5.736   2.284
 2872W        W75132  34.091  18.211  10.412
 2873W        W75133  38.850  38.555   5.090
 2874W        W75134   5.852  18.135   4.704
 2875W        W75135  12.123  21.669  10.954
 2876W        W75136   2.896  41.381  11.536
 2877W        W75137  33.402  14.325   2.808
 2878W        W75138  33.603  35.906  14.866
 2879W        W75139  32.026  28.566  14.997
 2880W        W75140  37.885  41.844   2.853
 2881W        W75141  35.058   3.782  11.405
 2882W        W75142   5.749   3.423   4.225
 2883W        W75143  14.796  31.003   0.733
 2884W        W75144   4.425  16.677   4.833
 2885W        W75145  24.572  20.712  14.322
 2886W        W75146   3.745  15.186  12.349
 2887W        W75147  42.972  16.667   2.851
 2888W        W75148  21.558   0.930   1.277
 2889W        W75149  29.926  35.856  14.988
 2890W        W75150  31.600  27.601  11.378
 2891W        W75151   4.862  14.146  11.955
 2892W        W75152  22.204  14.097   2.794
 2893W        W75153  18.133  24.484  12.474
 2894W        W75154  19.196  10.360   4.267
 2895W        W75155  16.685  33.441  14.860
 2896W        W75156  16.616  31.951  11.081
 2897W        W75157  28.937  14.251   1.921
 2898W        W75158  26.126  43.004  11.906
 2899W        W75159  37.055  42.300  11.915
 2900W        W75160  10.277  14.650   3.648
 2901W        W75161  25.523   8.184   0.418
 2902W        W75162  37.444   3.226  14.447
 2903W        W75163  18.057  13.268  12.009
 2904W        W75164  20.261   7.280  11.534
 2905W        W75165  21.754   8.673   0.809
 2906W        W75166  35.513  38.339  14.472
 2907W        W75167  27.192  15.770   4.213
 2908W        W75168  10.661  37.392  14.370
 2909W        W75169  43.494  20.255  10.633
 2910W        W75170   5.813  14.199   1.772
 2911W        W75171  17.645   3.871  12.086
 2912W        W75172  30.634  28.623   4.290
 2913W        W75173  23.516  37.427  14.805
 2914W        W75174   3.295  20.641  11.978
 2915W        W75175  11.756  13.223   3.760
 2916W        W75176  25.151  11.330   1.358
 2917W        W75177  37.057  12.250  11.392
 2918W        W75178  20.225  21.166   0.747
 2919W        W75179  20.174   9.859   1.304
 2920W        W75180  36.893   4.798   1.836
 2921W        W75181  21.209  32.082  11.081
 2922W        W75182  37.365  32.057   2.205
 2923W        W75183   4.906  13.615   3.744
 2924W        W75184   5.814   9.388  13.900
 2925W        W75185  36.499  14.234   4.679
 2926W        W75186   5.329   4.395  12.410
 2927W        W75187  24.596  34.536   0.884
 2928W        W75188  17.209  18.246  12.075
 2929W        W75189  21.047  23.716   3.640
 2930W        W75190  26.480  15.122  14.998
 2931W        W75191  11.785  37.396   2.378
 2932W        W75192  11.826  12.230   4.726
 2933W        W75193  42.885  25.137  13.927
 2934W        W75194  26.106  20.118   4.298
 2935W        W75195  22.187  20.726   4.325
 2936W        W75196  38.985  32.587   2.810
 2937W        W75197  11.264  19.560   1.360
 2938W        W75198  21.219  20.743   4.145
 2939W        W75199   0.965  32.018   1.395
 2940W        W75200  44.902  36.564  14.493
 2941W        W75201  44.770  37.349  14.967
 2942W        W75202  36.880  16.768   0.300
 2943W        W75203   0.298  43.869   2.893
 2944W        W75204   8.216  19.684  12.457
 2945W        W75205  11.781   0.330  12.837
 2946W        W75206  29.473   8.791   0.770
 2947W        W75207  16.740  18.602  14.434
 2948W        W75208  18.644  42.883  14.308
 2949W        W75209   9.175  42.002  10.538
 2950W        W75210  29.978   8.765   4.280
 2951W        W75211  23.728  19.198   2.260
 2952W        W75212  28.676  41.359   1.789
 2953W        W75213   5.831  29.524  13.371
 2954W        W75214  15.789  35.873   2.678
 2955W        W75215  33.918  18.791  12.453
 2956W        W75216   0.819  29.529   0.288
 2957W        W75217  29.500   4.702  14.396
 2958W        W75218  39.997   4.362   0.837
 2959W        W75219  23.557  29.089   2.193
 2960W        W75220  14.807   6.416  11.378
 2961W        W75221  39.511  39.495  11.571
 2962W        W75222   1.240   9.726  11.976
 2963W        W75223   9.736  35.384  12.936
 2964W        W75224  17.629   3.244   4.219
 2965W        W75225  18.651  43.390  11.987
 2966W        W75226  12.336   0.445   1.844
 2967W        W75227  29.068  11.294  14.892
 2968W        W75228  10.358  27.980  10.538
 2969W        W75229  23.559   7.710  12.567
 2970W        W75230   8.719  35.904  12.344
 2971W        W75231  25.177  19.125   1.739
 2972W        W75232  18.686  24.211  12.987
 2973W        W75233   4.912  35.106   3.316
 2974W        W75234  43.988  17.303   0.444
 2975W        W75235  19.063  26.477   3.366
 2976W        W75236  42.890   1.825  12.370
 2977W        W75237  13.263  29.573  11.017
 2978W        W75238   0.343  25.185  13.522
 2979W        W75239  15.657  42.517   1.864
 2980W        W75240  44.384  42.972   3.193
 2981W        W75241  10.655   1.863   2.251
 2982W        W75242  16.311  36.437  12.991
 2983W        W75243  27.981  14.204   4.259
 2984W        W75244  22.564  16.604  13.371
 2985W        W75245  27.056  26.459  14.928
 2986W        W75246  17.169  44.954  14.319
 2987W        W75247  24.074   2.935  11.491
 2988W        W75248  33.084   3.740   0.307
 2989W        W75249  42.298  28.142  13.026
 2990W        W75250  44.413   3.412  13.883
 2991W        W75251   9.372  37.008  14.806
 2992W        W75252  41.463   4.809  12.543
 2993W        W75253  41.534   6.694   0.778
 2994W        W75254   4.733   7.228   3.337
 2995W        W75255  29.172  22.587  11.954
 2996W        W75256  41.845   8.890   1.747
 2997W        W75257  41.512  10.340  13.523
 2998W        W75258  16.619  15.249   3.288
 2999W        W75259   3.431  29.575  14.405
 3000W        W75260   6.368  37.356   4.123
 3001W        W75261  31.464  31.085   5.776
 3002W        W75262  33.458  16.579  14.860
 3003W        W75263  39.911  37.555   3.681
 3004W        W75264   2.318  38.825   0.798
 3005W        W75265  42.525  19.078  13.899
 3006W        W75266  35.029  41.527  13.036
 3007W        W75267   7.710  20.123  13.434
 3008W        W75268  24.066   5.735   3.764
 3009W        W75269  24.089  32.021  11.462
 3010W        W75270  40.514  10.150  14.890
 3011W        W75271  31.952   2.310  13.814
 3012W        W75272  28.178  27.649   1.754
 3013W        W75273  25.987  15.111   0.836
 3014W        W75274  34.116  13.612   4.755
 3015W        W75275  21.101  15.588   3.725
 3016W        W75276  11.784  11.237   1.220
 3017W        W75277   6.238  44.999   3.258
 3018W        W75278  20.249  30.517   0.898
 3019W        W75279  44.421  24.629  14.902
 3020W        W75280   7.382  10.633   2.899
 3021W        W75281  44.955  39.365  12.050
 3022W        W75282  25.064   2.434   0.751
 3023W        W75283  30.914   1.464   3.339
 3024W        W75284  36.556  28.632  13.450
 3025W        W75285  22.645  14.764   0.353
 3026W        W75286  43.798   8.896  12.073
 3027W        W75287  41.399  17.217  14.786
 3028W        W75288  39.861  26.642   1.278
 3029W        W75289  28.957  34.424   4.205
 3030W        W75290   5.277  43.951   3.853
 3031W        W75291  35.891  21.163   5.207
 3032W        W75292  24.607  44.829  10.486
 3033W        W75293  14.699   8.208   3.657
 3034W        W75294  26.995  12.774   3.333
 3035W        W75295  34.457  41.831  13.341
 3036W        W75296  14.601   4.813  14.904
 3037W        W75297  20.134  32.893   3.321
 3038W        W75298   0.826   8.724   2.697
 3039W        W75299  31.073  11.849   4.120
 3040W        W75300  19.200  43.373   2.298
 3041W        W75301  25.609  28.952  14.839
 3042W        W75302  37.933  25.691   3.240
 3043W        W75303  30.591  21.135   3.383
 3044W        W75304  43.884   0.425  14.880
 3045W        W75305   0.767   8.307   1.914
 3046W        W75306  25.090  30.467  10.430
 3047W        W75307  10.349  39.430  11.048
 3048W        W75308  15.709  24.190   4.777
 3049W        W75309  13.242  17.726   2.765
 3050W        W75310  27.514  13.621  14.278
 3051W        W75311  38.883   6.714   2.745
 3052W        W75312  31.079  35.499  12.435
 3053W        W75313  41.816   4.203  13.328
 3054W        W75314  24.698  35.891  10.569
 3055W        W75315  24.675   3.227   2.889
 3056W        W75316  33.407   7.826   4.349
 3057W        W75317  41.314  43.393   0.323
 3058W        W75318  44.262  44.900   2.813
 3059W        W75319   0.424  32.012   4.798
 3060W        W75320  17.147  12.318  13.994
 3061W        W75321  37.490  34.044   3.336
 3062W        W75322  22.689  39.454   3.273
 3063W        W75323  33.996  27.516   1.932
 3064W        W75324  43.017  33.039  13.491
 3065W        W75325  12.676   3.789   0.867
 3066W        W75326  42.352  44.820  14.281
 3067W        W75327  36.916  20.176   4.675
 3068W        W75328  39.410  39.055   1.840
 3069W        W75329  15.101  42.374  14.390
 3070W        W75330  26.698  32.633   2.739
 3071W        W75331  19.186  17.083   3.282
 3072W        W75332   6.286   1.288   4.755
 3073W        W75333  28.074  34.977   1.797
 3074W        W75334  23.208   9.369  12.514
 3075W        W75335  34.369   6.911   4.760
 3076W        W75336  26.600  34.574  10.065
 3077W        W75337  24.605  42.858  14.357
 3078W        W75338  27.977   7.724  13.382
 3079W        W75339  18.066  31.004   2.394
 3080W        W75340  28.538   4.267   0.767
 3081W        W75341  14.247  41.886  14.322
 3082W        W75342  10.302  28.553   2.362
 3083W        W75343  24.594  38.908   2.331
 3084W        W75344   6.195  39.437  12.495
 3085W        W75345  10.280  40.390  12.057
 3086W        W75346  12.254   5.256   4.172
 3087W        W75347   2.855  31.020  13.822
 3088W        W75348  36.893  38.959  10.559
 3089W        W75349  10.810  35.501   4.632
 3090W        W75350  21.610  33.538  14.424
 3091W        W75351  27.101  29.945   4.252
 3092W        W75352  35.856  33.010   1.384
 3093W        W75353  30.551  22.721   0.789
 3094W        W75354  33.032   3.870  14.956
 3095W        W75355  12.697  38.050  14.497
 3096W        W75356  31.987  26.686   3.344
 3097W        W75357  42.345  43.478   0.955
 3098W        W75358  17.079   4.440   2.315
 3099W        W75359  18.148  14.096   2.377
 3100W        W75360  40.396  34.568  12.561
 3101W        W75361  44.435  11.726  14.359
 3102W        W75362  11.835  34.888  11.610
 3103W        W75363  36.434   0.280  14.877
 3104W        W75364  23.573  14.313  12.489
 3105W        W75365   4.362  41.021  11.931
 3106W        W75366   9.741  18.257   1.778
 3107W        W75367  33.937  28.673   1.871
 3108W        W75368   0.413  34.549  14.826
 3109W        W75369  12.297  21.163  11.011
 3110W        W75370  29.042  20.151   2.666
 3111W        W75371  28.552   3.418  11.453
 3112W        W75372  28.938  26.551   2.774
 3113W        W75373  24.616  28.959   4.190
 3114W        W75374  15.687  15.278  12.961
 3115W        W75375   1.323   2.275  11.044
 3116W        W75376  10.301  31.988  10.605
 3117W        W75377  36.054  26.615  10.457
 3118W        W75378  31.116  10.373   2.319
 3119W        W75379  19.625  39.828  13.384
 3120W        W75380  21.578  14.605   4.261
 3121W        W75381   5.750  18.677  11.518
 3122W        W75382  43.766  39.922  12.975
 3123W        W75383   5.333   0.756   0.480
 3124W        W75384  17.145  37.493   4.140
 3125W        W75385  23.117  10.146   1.828
 3126W        W75386   6.737  42.460   3.346
 3127W        W75387  42.365  29.481  14.796
 3128W        W75388  42.898  22.163   0.303
 3129W        W75389  34.061  18.638   9.449
 3130W        W75390   8.883  18.066   0.291
 3131W        W75391  38.877  26.958  12.457
 3132W        W75392  36.883  32.615   0.336
 3133W        W75393   1.824  37.885  13.813
 3134W        W75394  42.852  35.509   3.382
 3135W        W75395  19.594  10.687  11.000
 3136W        W75396  40.835  19.128  11.433
 3137W        W75397  33.382  25.193   3.742
 3138W        W75398  34.523  43.840   0.463
 3139W        W75399  23.136   5.369   2.771
 3140W        W75400  36.442   8.236  12.867
 3141W        W75401  36.847  14.832   3.737
 3142W        W75402  35.384  31.608   4.646
 3143W        W75403  27.588  41.413   2.243
 3144W        W75404   1.420  13.164  13.440
 3145W        W75405  36.523  36.853  14.426
 3146W        W75406   7.183  17.708   4.222
 3147W        W75407   1.316  21.241  14.980
 3148W        W75408  28.482  13.831  13.839
 3149W        W75409  42.844  13.778   2.876
 3150W        W75410  24.492  42.888   0.749
 3151W        W75411  27.075  21.163   3.693
 3152W        W75412  37.070   3.366   2.234
 3153W        W75413  16.717  21.646   1.433
 3154W        W75414  36.078  22.228  14.784
 3155W        W75415   9.162   5.872  12.042
 3156W        W75416  11.767   0.276   1.897
 3157W        W75417  17.169  36.902   1.743
 3158W        W75418  39.450  25.089  12.516
 3159W        W75419  29.563  19.611   3.806
 3160W        W75420   0.256   4.892   4.753
 3161W        W75421  35.105  38.020  11.042
 3162W        W75422  13.176   1.362  14.918
 3163W        W75423  15.705  27.142   4.781
 3164W        W75424   5.868  39.991   3.653
 3165W        W75425  28.475   6.905  13.495
 3166W        W75426  38.992  30.132  11.931
 3167W        W75427  15.256  32.025  11.902
 3168W        W75428  25.972  29.428   4.779
 3169W        W75429  10.148   2.773   3.638
 3170W        W75430  19.741   4.793   1.696
 3171W        W75431  19.176   4.218  10.530
 3172W        W75432  18.297   4.768   1.825
 3173W        W75433   9.731  40.402   0.918
 3174W        W75434   1.398  15.130  12.452
 3175W        W75435  13.165  22.094   4.744
 3176W        W75436   7.394  32.439   3.863
 3177W        W75437  24.688   0.333   0.337
 3178W        W75438  17.645   6.817   3.315
 3179W        W75439  23.043  11.219  13.369
 3180W        W75440  16.758  14.666  10.077
 3181W        W75441   4.300  42.956  10.981
 3182W        W75442  10.182   8.856   1.721
 3183W        W75443  43.500  31.997  14.871
 3184W        W75444  30.951  22.159   3.780
 3185W        W75445  33.472   9.777   0.878
 3186W        W75446  36.063  16.810  13.002
 3187W        W75447   8.196  29.643   0.854
 3188W        W75448  39.531   4.442   0.876
 3189W        W75449  31.497  20.606   2.230
 3190W        W75450  11.636  14.193   9.948
 3191W        W75451  36.467  17.076  11.091
 3192W        W75452  33.413   2.388  14.854
 3193W        W75453   4.828  28.096  10.015
 3194W        W75454   9.849  29.050  14.497
 3195W        W75455  17.119   2.906  14.487
 3196W        W75456  14.589  28.652   9.632
 3197W        W75457  20.626   2.762  13.946
 3198W        W75458  32.509  11.846  12.376
 3199W        W75459  24.613  22.689  10.504
 3200W        W75460  10.190  32.943  12.828
 3201W        W75461  25.073   6.799   1.752
 3202W        W75462   5.807   1.957  14.833
 3203W        W75463  38.412  30.150  12.428
 3204W        W75464  27.519  20.116   1.400
 3205W        W75465   4.216  19.216   1.378
 3206W        W75466   4.362  25.483   0.802
 3207W        W75467  43.442  25.713   3.249
 3208W        W75468  33.458  28.080   4.145
 3209W        W75469  21.263  13.744   2.782
 3210W        W75470   7.380  30.590  12.849
 3211W        W75471  34.071  23.185   1.408
 3212W        W75472  31.508  38.842  10.415
 3213W        W75473  10.830  39.376  13.932
 3214W        W75474  40.442  35.932   3.248
 3215W        W75475  24.163  37.873  13.350
 3216W        W75476   7.800  18.256  10.490
 3217W        W75477  14.674  39.441  12.019
 3218W        W75478  34.370  28.510   0.800
 3219W        W75479  34.550   5.225   3.319
 3220W        W75480  17.715  32.039   4.261
 3221W        W75481  38.883  40.033   2.378
 3222W        W75482  34.519  32.892  14.879
 3223W        W75483  11.164  10.263  14.822
 3224W        W75484   6.881  16.281  13.900
 3225W        W75485  28.958  15.258   0.791
 3226W        W75486   5.328  25.978   3.819
 3227W        W75487   2.335  10.690  13.496
 3228W        W75488  29.012  20.592   2.693
 3229W        W75489  18.713  14.603  11.875
 3230W        W75490  36.923  37.065  12.893
 3231W        W75491  27.608  32.611  11.373
 3232W        W75492   5.330  20.671  13.490
 3233W        W75493   1.782   2.453  11.932
 3234W        W75494  11.176   4.294   3.353
 3235W        W75495  13.604  19.072  11.448
 3236W        W75496  37.470  23.599   2.797
 3237W        W75497   0.325   2.771   2.406
 3238W        W75498  41.037  16.109  14.323
 3239W        W75499  25.469  14.628  14.485
 3240W        W75500  24.684  22.243   3.216
 3241W        W75501  17.240  27.638  13.007
 3242W        W75502  27.473  28.456  13.900
 3243W        W75503  35.455   4.297  11.983
 3244W        W75504   2.295  23.168  12.901
 3245W        W75505  41.451  19.592   1.798
 3246W        W75506  14.786  32.489  12.064
 3247W        W75507  23.610  13.295  11.978
 3248W        W75508  21.089  28.537  11.394
 3249W        W75509  42.824  17.648   4.267
 3250W        W75510  37.867  31.497  10.474
 3251W        W75511  13.126  30.569  13.893
 3252W        W75512   6.189  22.669  13.946
 3253W        W75513  33.938   9.872  12.021
 3254W        W75514  15.641  24.211  11.110
 3255W        W75515  11.621  34.436   4.604
 3256W        W75516  20.114  32.544  14.484
 3257W        W75517  34.008  30.414  13.343
 3258W        W75518  41.502   0.945  10.438
 3259W        W75519  18.090  31.922  13.313
 3260W        W75520  34.554   0.404   3.349
 3261W        W75521  24.587  25.991  11.971
 3262W        W75522   2.388   7.733  13.438
 3263W        W75523  12.615  32.082   3.161
 3264W        W75524   6.797  30.131  14.934
 3265W        W75525  24.696  39.415   2.200
 3266W        W75526  34.524  14.704   0.758
 3267W        W75527  29.485  40.967  12.832
 3268W        W75528  12.635  13.170   3.362
 3269W        W75529  13.325  18.581   3.790
 3270W        W75530  19.645   9.166   3.733
 3271W        W75531  23.646  31.134   2.739
 3272W        W75532  13.805  13.327   2.387
 3273W        W75533  15.694  20.694   3.743
 3274W        W75534  40.011  27.540  10.914
 3275W        W75535  21.253   7.799  14.425
 3276W        W75536  18.179  25.168   0.793
 3277W        W75537  33.071  19.722   9.556
 3278W        W75538  28.110   2.295   0.919
 3279W        W75539  13.288  20.694   4.182
 3280W        W75540  37.892  36.880  13.799
 3281W        W75541  36.017  26.513   2.342
 3282W        W75542  24.056  28.968  14.283
 3283W        W75543   5.194  35.496   1.839
 3284W        W75544  19.704   0.930   1.391
 3285W        W75545  24.517  32.963  10.468
 3286W        W75546   7.404  16.597   4.304
 3287W        W75547  22.662  39.348   9.992
 3288W        W75548  34.925  41.292   0.946
 3289W        W75549  29.118   0.403   4.157
 3290W        W75550  29.621  29.535   0.394
 3291W        W75551  35.909  42.963  11.516
 3292W        W75552  32.095  26.134   3.168
 3293W        W75553  32.136  34.510   3.731
 3294W        W75554  39.808  34.972   3.325
 3295W        W75555  33.991   3.455   9.973
 3296W        W75556  12.744   2.748   2.338
 3297W        W75557  29.634   1.292  11.065
 3298W        W75558  15.137  33.097  12.087
 3299W        W75559  13.272  15.235   2.867
 3300W        W75560  32.922  30.586  13.865
 3301W        W75561   6.220   2.287  12.397
 3302W        W75562   7.381  34.982  14.788
 3303W        W75563  31.568  40.506  10.482
 3304W        W75564   5.797  39.949  13.385
 3305W        W75565   4.204   3.879   0.846
 3306W        W75566  20.630  15.583   0.851
 3307W        W75567  20.154  19.672  12.891
 3308W        W75568   7.331  17.687  13.056
 3309W        W75569  35.552  15.154  13.439
 3310W        W75570  34.494  24.041   4.260
 3311W        W75571  32.507   7.306   4.305
 3312W        W75572  11.691  32.563  13.438
 3313W        W75573  35.854  18.780  10.975
 3314W        W75574  33.092  18.050  11.372
 3315W        W75575  22.659   3.875  13.360
 3316W        W75576  41.474   7.738   0.343
 3317W        W75577  22.720  39.065   3.321
 3318W        W75578  32.564  16.753  11.081
 3319W        W75579   4.326   8.836   0.926
 3320W        W75580  11.811  14.762   1.358
 3321W        W75581  21.649  44.366  11.981
 3322W        W75582   6.229  41.474   5.131
 3323W        W75583  26.652  21.664   1.739
 3324W        W75584  40.998  24.994   5.082
 3325W        W75585  27.158  27.019   1.726
 3326W        W75586  29.176  12.624   3.865
 3327W        W75587  43.895   4.852  12.383
 3328W        W75588   9.231  30.656  10.110
 3329W        W75589  22.545  44.005   3.161
 3330W        W75590  41.902   5.709   3.824
 3331W        W75591  41.448   9.200  13.061
 3332W        W75592   3.297  38.074  12.555
 3333W        W75593  35.972  10.152   3.263
 3334W        W75594  24.122  24.669   0.253
 3335W        W75595  32.450  43.828  14.985
 3336W        W75596  27.106  42.291  11.104
 3337W        W75597   1.744   5.428  10.512
 3338W        W75598   3.853  36.562   3.795
 3339W        W75599  39.036  26.095  11.401
 3340W        W75600  10.208   8.317  10.627
 3341W        W75601  28.151  34.556  14.021
 3342W        W75602  28.660  40.022   0.771
 3343W        W75603  33.389  39.038   2.392
 3344W        W75604   2.725  29.073  13.494
 3345W        W75605  20.671  32.540   4.750
 3346W        W75606  19.210  10.277   2.723
 3347W        W75607  13.332  12.285  14.790
 3348W        W75608  43.406  33.418   1.857
 3349W        W75609  16.568  26.049  14.317
 3350W        W75610   2.768  21.111  13.973
 3351W        W75611  12.303  37.427   1.268
 3352W        W75612  18.716  17.256   2.762
 3353W        W75613  18.702  19.587   0.280
 3354W        W75614  30.089  29.920  13.974
 3355W        W75615  27.024   4.766   3.360
 3356W        W75616  36.389   8.320  11.981
 3357W        W75617  22.615  16.315   3.819
 3358W        W75618  43.469  24.178   1.286
 3359W        W75619  17.174  19.165  10.018
 3360W        W75620  32.455  42.858   3.654
 3361W        W75621  26.068  19.732  10.906
 3362W        W75622  24.716  17.062  13.387
 3363W        W75623  40.371  38.341  13.987
 3364W        W75624  21.112  34.104  12.961
 3365W        W75625  26.559  39.868   3.174
 3366W        W75626  17.640   9.284  10.890
 3367W        W75627  22.548   8.767  11.872
 3368W        W75628  27.053  28.980  13.445
 3369W        W75629  37.961  20.095   3.724
 3370W        W75630   2.903  23.603  14.791
 3371W        W75631  37.855  27.542  12.093
 3372W        W75632  44.807  10.672  13.495
 3373W        W75633  39.332  40.309   4.172
 3374W        W75634  42.297  44.926   0.396
 3375W        W75635   4.231   9.375   2.723
 3376W        W75636  34.961   9.376  13.002
 3377W        W75637  26.645  30.162   4.835
 3378W        W75638   9.212  33.008  12.069
 3379W        W75639  15.717  32.910   1.815
 3380W        W75640   5.844  25.557   4.720
 3381W        W75641  39.974   4.798   4.767
 3382W        W75642   8.704  33.050   3.822
 3383W        W75643  23.584  28.158  11.984
 3384W        W75644  39.814  10.700  11.419
 3385W        W75645  11.861  12.739  10.550
 3386W        W75646  39.032  32.436  12.831
 3387W        W75647  30.630   4.781  14.301
 3388W        W75648   5.220  13.237  14.822
 3389W        W75649  12.362  15.285   3.861
 3390W        W75650  43.014  30.162  13.987
 3391W        W75651   7.892  15.656   3.867
 3392W        W75652  42.782  30.469   4.264
 3393W        W75653   1.451  17.128   2.333
 3394W        W75654  21.742  32.589   4.261
 3395W        W75655  28.973  20.118   0.864
 3396W        W75656  17.126  29.126   2.233
 3397W        W75657  24.115   9.835  10.972
 3398W        W75658  20.760  21.752   0.776
 3399W        W75659  17.129  40.943  11.491
 3400W        W75660  42.859  18.108   1.807
 3401W        W75661  12.823  35.066  10.622
 3402W        W75662   5.421   7.246   2.362
 3403W        W75663  35.476  16.727  13.352
 3404W        W75664  12.704  35.588   1.370
 3405W        W75665  36.404  15.300  13.417
 3406W        W75666  30.550   3.323  13.472
 3407W        W75667  14.679  36.365  13.926
 3408W        W75668  12.221  31.135  10.478
 3409W        W75669   2.964  36.009  14.478
 3410W        W75670   2.308  33.551  10.929
 3411W        W75671  33.406  32.963  10.496
 3412W        W75672   4.448  38.486   2.715
 3413W        W75673  25.599  28.966   2.334
 3414W        W75674  28.592   2.467  11.586
 3415W        W75675   1.478  27.069  13.903
 3416W        W75676  35.092  22.153   1.853
 3417W        W75677  15.134  36.061   3.167
 3418W        W75678   0.325  17.227   3.793
 3419W        W75679  23.647  14.795   4.782
 3420W        W75680  30.144  12.341  13.945
 3421W        W75681   2.357  18.714  12.347
 3422W        W75682  32.907   8.881   0.729
 3423W        W75683  22.999  31.996   3.269
 3424W        W75684  17.592  27.078   0.276
 3425W        W75685  12.637   4.348   3.764
 3426W        W75686  16.216  20.215  11.891
 3427W        W75687  36.030  23.220  10.517
 3428W        W75688  35.383   4.740  12.992
 3429W        W75689   9.881  39.361   2.885
 3430W        W75690  34.077  29.100  10.449
 3431W        W75691   6.748  41.965  11.471
 3432W        W75692  23.629  22.151   1.445
 3433W        W75693  24.661  44.836  11.598
 3434W        W75694  33.898  42.360   1.364
 3435W        W75695  34.534  42.459   2.689
 3436W        W75696  12.832  34.922   0.785
 3437W        W75697   0.489   2.759   0.405
 3438W        W75698  33.487  12.713  11.595
 3439W        W75699   4.808  29.938  13.309
 3440W        W75700  21.060  38.957  11.912
 3441W        W75701  11.828  26.005  11.524
 3442W        W75702  30.130  31.964   4.791
 3443W        W75703  17.090  16.130  10.946
 3444W        W75704  40.383  22.166  14.957
 3445W        W75705  35.526   1.859  14.942
 3446W        W75706  18.581   1.462   1.850
 3447W        W75707   1.969   3.925  11.088
 3448W        W75708  18.074  31.067  14.416
 3449W        W75709  18.680  39.834  12.363
 3450W        W75710  22.580  24.721   2.313
 3451W        W75711  18.055  36.851  10.542
 3452W        W75712  16.750   4.277   0.328
 3453W        W75713  13.160   7.821  10.911
 3454W        W75714  42.861  43.389   4.348
 3455W        W75715   7.903  15.580   2.273
 3456W        W75716  36.930  10.238  10.643
 3457W        W75717   9.889   9.661  13.804
 3458W        W75718  37.377   3.243   1.754
 3459W        W75719  14.292   1.280   0.279
 3460W        W75720  13.155  14.740  13.491
 3461W        W75721  42.902  40.340  14.030
 3462W        W75722  11.184  15.296   4.609
 3463W        W75723   0.987  35.898  13.348
 3464W        W75724  13.630  12.810   4.613
 3465W        W75725  31.902  41.801  13.469
 3466W        W75726  10.777  14.735   0.928
 3467W        W75727   6.710  14.684   1.443
 3468W        W75728  11.683   4.254  13.471
 3469W        W75729  29.547  13.257  11.474
 3470W        W75730  13.817  19.111  14.442
 3471W        W75731   8.201   0.381  12.451
 3472W        W75732  19.656  22.550  12.087
 3473W        W75733  21.069  35.371  11.547
 3474W        W75734  31.092  39.014   1.767
 3475W        W75735  17.070  43.984   1.230
 3476W        W75736  36.445  44.434  12.551
 3477W        W75737  15.149  44.442   3.221
 3478W        W75738   3.767  38.932  14.442
 3479W        W75739  19.542  21.178   4.114
 3480W        W75740   9.729   5.830  14.406
 3481W        W75741   4.399  24.565  11.408
 3482W        W75742   4.445  20.642   2.745
 3483W        W75743  23.543  35.092  10.465
 3484W        W75744  36.878  32.134  12.944
 3485W        W75745   6.833  17.249   0.834
 3486W        W75746  36.026  11.755  11.482
 3487W        W75747  10.285  40.361   3.217
 3488W        W75748  40.936  43.984  14.842
 3489W        W75749   6.331   0.889   0.461
 3490W        W75750  34.886  17.128  14.796
 3491W        W75751  23.055  43.959  11.372
 3492W        W75752  12.707  17.771   1.335
 3493W        W75753  10.214  24.115   3.800
 3494W        W75754  33.457   7.691   4.616
 3495W        W75755  26.114  30.989  12.580
 3496W        W75756  29.059  44.946  12.396
 3497W        W75757  30.927  30.919  10.436
 3498W        W75758  25.548  15.633   4.716
 3499W        W75759  23.216   5.847  12.015
 3500W        W75760   7.859  43.934  10.921
 3501W        W75761  28.149  26.623  10.000
 3502W        W75762   6.896  18.143   1.926
 3503W        W75763  14.809  35.438  13.971
 3504W        W75764  34.574  16.071   2.377
 3505W        W75765  16.707  42.469  12.383
 3506W        W75766   1.806  28.551   2.691
 3507W        W75767  31.013  32.466   5.146
 3508W        W75768  20.722   7.714  10.424
 3509W        W75769   9.217   5.261   4.144
 3510W        W75770   0.476  36.001  13.945
 3511W        W75771   3.236  18.686   1.333
 3512W        W75772  25.670  21.536   2.900
 3513W        W75773  12.786  30.584  12.939
 3514W        W75774  44.882  19.068   4.203
 3515W        W75775  36.010  16.797  11.017
 3516W        W75776  29.609  23.496  12.954
 3517W        W75777  40.321   9.163  12.856
 3518W        W75778  40.325  38.558   3.255
 3519W        W75779  36.914   1.909  12.058
 3520W        W75780   3.916  14.113   1.445
 3521W        W75781   6.896  33.412   1.862
 3522W        W75782  30.589  26.969  11.938
 3523W        W75783  25.608  10.356   2.419
 3524W        W75784  29.451  22.118   1.897
 3525W        W75785  26.076  43.948  14.436
 3526W        W75786  32.958   4.728   1.743
 3527W        W75787  26.588  12.150  13.012
 3528W        W75788  30.471  33.535  11.105
 3529W        W75789  37.972  24.125  10.430
 3530W        W75790   5.885  40.411  11.444
 3531W        W75791  11.840   0.408   0.430
 3532W        W75792  36.563  25.180   9.996
 3533W        W75793  26.996  21.097  12.519
 3534W        W75794  15.706  22.141  14.826
 3535W        W75795  28.988  23.067  14.331
 3536W        W75796   7.230  44.433   3.244
 3537W        W75797  11.318  13.757   2.843
 3538W        W75798  36.917  41.844   4.626
 3539W        W75799  16.772   5.699  11.455
 3540W        W75800   8.189  27.665  14.491
 3541W        W75801  42.885   7.177   1.712
 3542W        W75802  32.945  26.205  12.994
 3543W        W75803   4.226  16.578  14.282
 3544W        W75804  44.949  41.896   1.331
 3545W        W75805   5.877   7.689  11.441
 3546W        W75806  33.472  20.547   3.387
 3547W        W75807   5.227  18.279   3.272
 3548W        W75808  19.186  38.023   0.871
 3549W        W75809  24.069  34.527  12.414
 3550W        W75810  33.587   7.221   9.945
 3551W        W75811  34.101  14.284   2.397
 3552W        W75812  39.852  21.633   1.219
 3553W        W75813   0.919   0.776  11.031
 3554W        W75814  24.208  29.086  14.892
 3555W        W75815  37.415   4.450  11.903
 3556W        W75816   3.247   1.419   2.852
 3557W        W75817  40.405   2.770   3.661
 3558W        W75818  43.376  38.017  11.522
 3559W        W75819  36.910  20.112   5.184
 3560W        W75820   8.858  34.886   4.659
 3561W        W75821  37.381  29.046   4.339
 3562W        W75822  18.211  29.628  11.889
 3563W        W75823  42.313  37.923   2.838
 3564W        W75824  44.336  18.285  10.155
 3565W        W75825  20.265   3.857   0.726
 3566W        W75826  42.431  21.681   2.356
 3567W        W75827  30.978   3.710  13.054
 3568W        W75828  25.663  30.593   3.657
 3569W        W75829  18.245   6.231  13.000
 3570W        W75830  13.234   8.815  12.903
 3571W        W75831   7.178   5.736   0.392
 3572W        W75832  30.968  33.473   2.402
 3573W        W75833   6.410   1.904   4.253
 3574W        W75834   4.394  14.212   1.367
 3575W        W75835   5.709  27.075   1.419
 3576W        W75836  31.559   4.824   0.908
 3577W        W75837   1.372  21.665   4.315
 3578W        W75838   5.255  11.264   3.659
 3579W        W75839   9.767  37.944  12.972
 3580W        W75840  25.102   2.967   0.296
 3581W        W75841  24.034  42.453   4.635
 3582W        W75842  27.621  18.717  14.882
 3583W        W75843  42.777  27.504  10.129
 3584W        W75844  44.889  10.244   4.303
 3585W        W75845  36.473   9.236  12.913
 3586W        W75846  20.219  24.503   1.873
 3587W        W75847  41.016  23.177  13.457
 3588W        W75848   3.902  20.201  12.374
 3589W        W75849  34.981  32.911   3.720
 3590W        W75850  29.505   4.788  10.081
 3591W        W75851  38.071  14.702   0.799
 3592W        W75852  35.433  17.181  14.791
 3593W        W75853  39.046   8.288   3.757
 3594W        W75854  27.061   0.775  13.483
 3595W        W75855  42.857  36.931   2.711
 3596W        W75856  32.634   5.832  12.054
 3597W        W75857   9.227   4.711   1.404
 3598W        W75858   2.803   6.340   3.759
 3599W        W75859  13.802   6.229   1.448
 3600W        W75860  19.561  25.176   4.166
 3601W        W75861   9.193  41.938   3.800
 3602W        W75862  10.232  38.830  10.126
 3603W        W75863   6.899  11.663   0.775
 3604W        W75864  13.317   0.334   3.188
 3605W        W75865  38.856  44.774   3.204
 3606W        W75866   3.814  16.625  13.518
 3607W        W75867   4.866  18.104  11.539
 3608W        W75868  28.601  20.173  11.529
 3609W        W75869  34.914  18.673   0.295
 3610W        W75870   6.747  39.970   2.247
 3611W        W75871  10.137  22.708   2.296
 3612W        W75872  35.935  39.932   1.701
 3613W        W75873  16.272  10.739  14.842
 3614W        W75874   6.305  36.880  14.443
 3615W        W75875  44.477  39.460   3.704
 3616W        W75876   6.816   9.698   4.224
 3617W        W75877  24.110  10.839   3.165
 3618W        W75878  26.014  27.016   3.201
 3619W        W75879  18.630  20.545   2.376
 3620W        W75880  42.314  13.685   0.394
 3621W        W75881  33.092  39.988  13.525
 3622W        W75882  11.844  17.697  14.953
 3623W        W75883  14.126   7.172  14.903
 3624W        W75884   8.399   5.734   2.270
 3625W        W75885  40.524  24.126   2.748
 3626W        W75886   7.337   0.335  14.999
 3627W        W75887  13.242  25.154  14.357
 3628W        W75888  22.717  18.148  14.842
 3629W        W75889  43.473  10.360  14.469
 3630W        W75890  14.666  28.658  14.310
 3631W        W75891  32.952  18.596   0.758
 3632W        W75892  33.969  21.641  14.300
 3633W        W75893  14.770  11.761  11.384
 3634W        W75894  14.335  26.095   3.838
 3635W        W75895  31.449  34.462   3.754
 3636W        W75896  29.067  40.041   4.266
 3637W        W75897  10.839   2.459   0.273
 3638W        W75898  26.014  35.410  10.987
 3639W        W75899   2.854   0.985  12.890
 3640W        W75900  12.663  28.564   0.764
 3641W        W75901  25.034  15.811  14.958
 3642W        W75902  19.161  13.330   2.755
 3643W        W75903  34.980  31.964  10.987
 3644W        W75904  13.111   7.231  14.373
 3645W        W75905  15.096  41.472  13.978
 3646W        W75906   2.824  37.350   4.599
 3647W        W75907  25.984  25.468  12.042
 3648W        W75908  11.739   8.800  11.027
 3649W        W75909   1.886  29.985   1.272
 3650W        W75910  35.602   9.836   0.266
 3651W        W75911  42.523  32.006   4.296
 3652W        W75912   9.810  39.042  14.995
 3653W        W75913   9.168  14.735  14.919
 3654W        W75914  10.323  12.631  13.904
 3655W        W75915   9.354  34.880  11.049
 3656W        W75916  21.153   7.769   5.279
 3657W        W75917  32.910  30.529   1.779
 3658W        W75918  11.677  38.342  13.355
 3659W        W75919  29.072  35.415   3.724
 3660W        W75920  15.661  24.623  11.586
 3661W        W75921  44.341   6.813   3.808
 3662W        W75922  29.540  26.623   3.770
 3663W        W75923  21.212  38.493  12.885
 3664W        W75924  15.119   4.435  13.831
 3665W        W75925  39.368  30.152   4.271
 3666W        W75926  15.095  11.262  11.017
 3667W        W75927  41.936   6.714   3.829
 3668W        W75928  34.892   1.781  10.493
 3669W        W75929  20.220  15.220  13.373
 3670W        W75930  28.663  31.019   5.208
 3671W        W75931  33.491  42.904  12.082
 3672W        W75932  20.651  25.187  11.112
 3673W        W75933  34.936  27.557   1.307
 3674W        W75934  19.765   6.235  13.983
 3675W        W75935   0.979  15.227   1.284
 3676W        W75936  38.524   6.285   1.272
 3677W        W75937   3.885  15.325   3.837
 3678W        W75938   0.985  19.625   3.789
 3679W        W75939   1.465  20.200  13.842
 3680W        W75940  26.495  22.078   2.803
 3681W        W75941   8.305  42.885  13.359
 3682W        W75942  43.001  25.192  11.077
 3683W        W75943  40.474  29.542   3.667
 3684W        W75944   2.367   6.691   3.337
 3685W        W75945   0.933  20.059   0.453
 3686W        W75946  38.001   2.249   1.392
 3687W        W75947  32.963  40.546   0.250
 3688W        W75948  29.008  20.731  11.578
 3689W        W75949   1.397   1.379  11.978
 3690W        W75950   3.781  32.623   1.774
 3691W        W75951   9.684  26.658  12.390
 3692W        W75952  26.510  27.174   4.810
 3693W        W75953  40.826  44.288  11.876
 3694W        W75954  15.608  25.079  14.294
 3695W        W75955  28.609  32.038   2.876
 3696W        W75956  20.542  17.068  11.498
 3697W        W75957  25.706  34.390   5.288
 3698W        W75958  43.402   5.320   2.317
 3699W        W75959  10.744  28.641   1.228
 3700W        W75960   6.832  23.090  14.408
 3701W        W75961  24.076  42.927   0.416
 3702W        W75962   6.381   5.725   0.272
 3703W        W75963   9.273  35.360   4.291
 3704W        W75964  18.268  33.528   2.223
 3705W        W75965  29.116  26.121   1.373
 3706W        W75966  41.327   2.910   0.817
 3707W        W75967  13.321  28.115  14.373
 3708W        W75968  27.002   2.412   4.225
 3709W        W75969   2.770  31.615  12.010
 3710W        W75970  14.335  10.744   2.879
 3711W        W75971  22.179  19.704   1.790
 3712W        W75972   6.335   9.344   1.874
 3713W        W75973  43.351  42.951  14.771
 3714W        W75974   1.267  41.933   4.733
 3715W        W75975  21.748   9.273  13.352
 3716W        W75976  15.810  21.033   1.210
 3717W        W75977  14.124  29.630  13.424
 3718W        W75978  36.907  39.833   1.263
 3719W        W75979  34.409  31.145   0.244
 3720W        W75980   4.703  12.234   1.387
 3721W        W75981  39.414   8.766  14.834
 3722W        W75982  31.475   6.324   1.716
 3723W        W75983  41.350  20.139   1.434
 3724W        W75984  40.474  43.798   1.422
 3725W        W75985  40.823   1.829  10.971
 3726W        W75986   1.470   3.327  14.874
 3727W        W75987  11.280  19.075   2.398
 3728W        W75988   8.365  14.239   0.759
 3729W        W75989  38.031  37.457   1.832
 3730W        W75990  20.116   8.742  14.827
 3731W        W75991  38.851   4.263  13.836
 3732W        W75992  44.275  35.548  13.846
 3733W        W75993  13.228  18.082  11.112
 3734W        W75994  35.108  21.749  13.001
 3735W        W75995  34.018   6.230   1.365
 3736W        W75996  37.074  20.164   0.404
 3737W        W75997   4.859  11.136  11.390
 3738W        W75998  29.496   4.296  13.421
 3739W        W75999  18.568  36.069   0.466
 3740W        W76000  34.095  21.018   3.154
 3741W        W76001   9.290  18.694   0.750
 3742W        W76002  37.866  35.464   2.861
 3743W        W76003  36.063   3.369   1.825
 3744W        W76004  26.081   4.331   1.234
 3745W        W76005  42.914  35.603  13.958
 3746W        W76006  18.223  25.161  14.025
 3747W        W76007  34.521  19.084   9.946
 3748W        W76008  35.033   6.858  10.895
 3749W        W76009   1.470   0.811  12.396
 3750W        W76010  26.146   0.296  12.052
 3751W        W76011  36.959  36.069   4.787
 3752W        W76012   4.340  35.399   1.274
 3753W        W76013  33.421  27.116   2.902
 3754W        W76014  38.385  19.143   3.770
 3755W        W76015  19.668   9.665  12.015
 3756W        W76016  44.882  19.679   2.266
 3757W        W76017  21.227  35.509   4.667
 3758W        W76018   3.356  18.229  12.080
 3759W        W76019  12.848  13.663   2.238
 3760W        W76020  26.139  30.503  14.479
 3761W        W76021  36.027  36.526  13.354
 3762W        W76022  24.217  27.555   1.906
 3763W        W76023   8.329  31.014  14.963
 3764W        W76024   6.412  39.920   0.894
 3765W        W76025  43.800  18.278  14.487
 3766W        W76026  36.440  12.353   0.868
 3767W        W76027   8.783  27.098  13.418
 3768W        W76028  27.618  20.211   3.386
 3769W        W76029  19.692   6.737  13.441
 3770W        W76030  13.671  10.735   1.422
 3771W        W76031  11.178  29.468   1.790
 3772W        W76032  27.046  29.974   1.912
 3773W        W76033   6.791  30.430   2.342
 3774W        W76034  38.326  20.261  12.566
 3775W        W76035  19.095  25.523  13.345
 3776W        W76036  20.148   2.959  14.019
 3777W        W76037  35.520  29.498   2.872
 3778W        W76038  21.737   1.246  10.589
 3779W        W76039  30.062  42.460  13.922
 3780W        W76040  41.860  19.263   0.356
 3781W        W76041  21.080  32.480  12.550
 3782W        W76042  27.057  15.803   2.894
 3783W        W76043  11.686  19.764  14.900
 3784W        W76044  38.437  41.318   4.673
 3785W        W76045  15.215   1.735   3.379
 3786W        W76046  40.501   5.346  12.083
 3787W        W76047  19.238  13.171  14.421
 3788W        W76048   4.833  35.425   1.886
 3789W        W76049  24.690  34.425  11.117
 3790W        W76050  30.124   2.825   0.819
 3791W        W76051  17.737  13.705   1.364
 3792W        W76052   3.314  30.458  14.308
 3793W        W76053  10.794  37.840   4.649
 3794W        W76054   8.375  32.929  12.007
 3795W        W76055   3.749  42.314   0.461
 3796W        W76056  25.993  40.801   2.209
 3797W        W76057   6.291  29.145   2.397
 3798W        W76058  28.645  22.513  10.962
 3799W        W76059  43.360  41.362   1.704
 3800W        W76060   0.437  18.577  12.373
 3801W        W76061  31.975  24.216   4.645
 3802W        W76062  41.869  20.760   3.655
 3803W        W76063  27.594   3.444   3.798
 3804W        W76064   7.300  40.477  13.949
 3805W        W76065  44.374  14.176  14.004
 3806W        W76066  34.061  44.259   3.290
 3807W        W76067  34.972  13.781   4.650
 3808W        W76068  13.227  17.718  10.441
 3809W        W76069  21.662  27.966   3.802
 3810W        W76070   4.285  43.393   3.244
 3811W        W76071  10.833  24.022  10.458
 3812W        W76072  33.892  42.990   1.258
 3813W        W76073   4.413  15.677   9.964
 3814W        W76074  42.525  13.271   4.706
 3815W        W76075  16.760  11.851   1.388
 3816W        W76076   3.756   5.209  11.396
 3817W        W76077  29.577  31.426   2.862
 3818W        W76078  32.434  35.517  12.473
 3819W        W76079  38.433  34.952  10.994
 3820W        W76080  23.676   7.722   1.217
 3821W        W76081  36.900  10.226  13.984
 3822W        W76082  27.013  34.051  12.053
 3823W        W76083  34.475   4.711   3.826
 3824W        W76084  28.472  30.549  14.856
 3825W        W76085  14.613   4.797   9.981
 3826W        W76086  30.097  19.599  11.988
 3827W        W76087  13.135  31.996   1.409
 3828W        W76088  10.330  35.076   0.414
 3829W        W76089  22.658  22.250   0.745
 3830W        W76090  19.575  21.704   3.723
 3831W        W76091   6.814   8.275  11.479
 3832W        W76092  16.261  35.940  11.899
 3833W        W76093  11.821  18.199  10.449
 3834W        W76094  24.224  35.364  11.573
 3835W        W76095  12.119  22.200   0.761
 3836W        W76096  36.377   1.879  13.323
 3837W        W76097   3.452   8.688   1.228
 3838W        W76098  16.311  39.551   0.733
 3839W        W76099   6.800  42.432  13.436
 3840W        W76100  22.012  10.332   4.777
 3841W        W76101  41.503  36.584   4.760
 3842W        W76102  31.422  42.910  10.920
 3843W        W76103  25.605   4.809  14.803
 3844W        W76104  23.545  33.935   2.228
 3845W        W76105  25.964  19.563  13.394
 3846W        W76106  10.252  34.969  11.502
 3847W        W76107  25.706  38.542   1.239
 3848W        W76108  16.118   5.382  12.566
 3849W        W76109   9.695   1.927   4.674
 3850W        W76110  15.117  16.788   1.243
 3851W        W76111   9.234  36.074   0.369
 3852W        W76112  27.564  39.044  14.346
 3853W        W76113  18.054  42.351   0.268
 3854W        W76114   5.734  28.562   1.235
 3855W        W76115  25.538  18.623   4.343
 3856W        W76116   5.411  18.565  13.976
 3857W        W76117  42.931  31.937  12.997
 3858W        W76118  12.213  40.469   0.386
 3859W        W76119  13.764  34.934   1.854
 3860W        W76120  31.500  22.115  11.398
 3861W        W76121  17.089  32.577  11.570
 3862W        W76122  28.575   6.812   0.828
 3863W        W76123  25.659  34.958   0.937
 3864W        W76124  34.012  23.733   4.836
 3865W        W76125  29.978  11.847   2.184
 3866W        W76126  15.095  29.637   1.703
 3867W        W76127  34.507  27.477  13.342
 3868W        W76128  20.683  18.288   3.256
 3869W        W76129  25.975  20.225   2.773
 3870W        W76130   0.414  35.916   0.276
 3871W        W76131  26.611  43.440  14.837
 3872W        W76132  16.183  10.654  10.459
 3873W        W76133   0.788  34.908   2.880
 3874W        W76134  35.530  44.408   1.894
 3875W        W76135   6.271   5.341  12.391
 3876W        W76136  12.762  14.826   3.229
 3877W        W76137  20.672  15.619  14.825
 3878W        W76138   3.365  34.087   3.278
 3879W        W76139  12.202  34.032   3.783
 3880W        W76140  20.555  25.054   2.712
 3881W        W76141  31.621  11.763  12.474
 3882W        W76142  11.799  11.234  11.495
 3883W        W76143  18.270   6.864  12.931
 3884W        W76144  11.307  44.492   1.405
 3885W        W76145  31.994  43.427   3.850
 3886W        W76146  27.598  12.142  11.541
 3887W        W76147  36.997  41.368  11.995
 3888W        W76148  32.956  22.065   3.285
 3889W        W76149  31.134  24.003   1.928
 3890W        W76150  18.720  27.499   4.211
 3891W        W76151  35.380  11.656   2.681
 3892W        W76152  16.252   8.745   3.218
 3893W        W76153   6.280  26.631  12.000
 3894W        W76154   3.294  38.329   4.710
 3895W        W76155  22.155  15.087   4.220
 3896W        W76156  35.555  42.031  12.524
 3897W        W76157  16.262  38.854   0.286
 3898W        W76158  35.054  16.114   2.878
 3899W        W76159  20.706  19.199   5.589
 3900W        W76160   5.288  26.488   1.743
 3901W        W76161  41.305   3.428  11.578
 3902W        W76162  26.582   2.852  12.390
 3903W        W76163  22.545  29.486  14.473
 3904W        W76164  44.426  38.004   4.320
 3905W        W76165   0.840  16.751   0.769
 3906W        W76166  31.624  39.054   0.933
 3907W        W76167  23.506  23.146  14.328
 3908W        W76168   6.788  20.546  13.485
 3909W        W76169  36.478   0.958   4.338
 3910W        W76170  39.402  18.186   0.448
 3911W        W76171  44.295  35.983  13.312
 3912W        W76172  22.066  43.868   1.862
 3913W        W76173  15.297  24.173   4.220
 3914W        W76174   7.259  41.302   4.688
 3915W        W76175  12.165  22.584  14.774
 3916W        W76176   2.291   3.429  13.925
 3917W        W76177  32.142  22.670  12.055
 3918W        W76178   4.785  34.886   2.788
 3919W        W76179  42.924  44.477   4.127
 3920W        W76180  11.346  44.418  14.953
 3921W        W76181  24.672   2.261  12.530
 3922W        W76182  16.786  44.763  13.468
 3923W        W76183  37.068  40.913  13.545
 3924W        W76184  18.198  21.176  14.397
 3925W        W76185  34.051  21.200  11.447
 3926W        W76186  44.805  43.322  13.024
 3927W        W76187  38.875  36.916  13.510
 3928W        W76188  25.512  28.985  13.355
 3929W        W76189   0.907  42.874   2.370
 3930W        W76190  20.623  16.763   0.377
 3931W        W76191  39.412  27.174   0.726
 3932W        W76192   3.922  28.095   0.875
 3933W        W76193  17.279  38.884   2.228
 3934W        W76194  37.532   4.824  12.458
 3935W        W76195  12.778  16.257  12.925
 3936W        W76196  39.336  33.615   3.808
 3937W        W76197  17.761   9.234   2.408
 3938W        W76198  13.680  18.112  12.349
 3939W        W76199  44.431  24.679   2.796
 3940W        W76200  11.772  30.563   3.729
 3941W        W76201  12.757  30.489  13.488
 3942W        W76202  10.149  43.452   2.229
 3943W        W76203  18.167  31.042   0.307
 3944W        W76204  12.782  10.357   2.207
 3945W        W76205  35.477  35.952  10.986
 3946W        W76206  40.524   9.176  10.599
 3947W        W76207   5.219  30.067  12.358
 3948W        W76208  15.643  37.017   4.696
 3949W        W76209   2.453   6.904  13.399
 3950W        W76210   5.696  36.067   1.900
 3951W        W76211  44.869  37.033   0.808
 3952W        W76212  28.600  26.965   0.411
 3953W        W76213  36.051  28.109   3.645
 3954W        W76214  21.524  22.202  11.395
 3955W        W76215  30.021  16.152   1.406
 3956W        W76216  44.420  20.621   0.311
 3957W        W76217  30.655  19.239  11.419
 3958W        W76218   6.260  28.511  14.849
 3959W        W76219  40.869  28.662  14.286
 3960W        W76220  44.420  42.513   2.797
 3961W        W76221   5.838   3.349  12.556
 3962W        W76222  12.678  32.068   2.414
 3963W        W76223  28.545   5.723  13.368
 3964W        W76224   7.309  44.316  11.572
 3965W        W76225  36.891   0.769  11.440
 3966W        W76226  14.599   7.840  13.532
 3967W        W76227   2.735  23.643  13.462
 3968W        W76228  20.167   9.171  11.042
 3969W        W76229  19.751  24.706   1.384
 3970W        W76230  37.916   0.798   0.910
 3971W        W76231   2.246   7.175   4.297
 3972W        W76232  19.138   5.386   2.669
 3973W        W76233  11.701   7.761   1.733
 3974W        W76234  23.651  39.064   2.190
 3975W        W76235  25.685  44.440  13.383
 3976W        W76236  41.473   0.284   2.378
 3977W        W76237  21.741  40.998   1.777
 3978W        W76238  30.574  16.217  12.534
 3979W        W76239  21.060  34.431   3.171
 3980W        W76240  18.737   3.311   5.279
 3981W        W76241  30.924  42.868   1.416
 3982W        W76242  11.800  43.323   2.267
 3983W        W76243  18.127  13.663   2.381
 3984W        W76244  36.436  28.953  13.046
 3985W        W76245  35.087  41.032   1.365
 3986W        W76246  20.057   1.407   0.264
 3987W        W76247  17.090   4.905  12.436
 3988W        W76248  25.634  38.515  12.479
 3989W        W76249  27.999  16.765  13.318
 3990W        W76250  44.970   1.777   1.859
 3991W        W76251  23.622  43.414  11.492
 3992W        W76252  19.252  12.173  12.463
 3993W        W76253  12.814  20.710  10.915
 3994W        W76254  11.133  43.845  14.914
 3995W        W76255   9.326  30.952   1.761
 3996W        W76256  15.758  19.245  11.864
 3997W        W76257  22.656  30.473   4.235
 3998W        W76258   6.229   7.228  13.059
 3999W        W76259  39.996  15.114   1.846
 4000W        W76260   6.792  35.105  13.812
 4001W        W76261   4.314   2.799   1.297
 4002W        W76262   5.789  13.787  14.369
 4003W        W76263   9.178  20.159  12.437
 4004W        W76264  21.077  33.917   0.881
 4005W        W76265  38.394  12.274   0.798
 4006W        W76266  39.324   6.791  13.847
 4007W        W76267  27.182  31.539  11.926
 4008W        W76268  13.797  32.013  10.113
 4009W        W76269   2.331   4.324  12.419
 4010W        W76270  14.828  13.332   1.431
 4011W        W76271  37.426  29.981   3.301
 4012W        W76272   5.235  37.516  12.007
 4013W        W76273   5.247  33.409  11.891
 4014W        W76274  44.475  42.781  12.488
 4015W        W76275  38.943  24.520  14.322
 4016W        W76276   7.396  29.463  12.570
 4017W        W76277  10.832  42.906  12.076
 4018W        W76278   8.703  39.044  14.342
 4019W        W76279  32.487  37.357   0.444
 4020W        W76280   4.829  32.068   0.849
 4021W        W76281  42.454  44.346   0.840
 4022W        W76282  16.166  15.117  13.521
 4023W        W76283  20.114   9.698  12.421
 4024W        W76284   7.305  13.823  12.491
 4025W        W76285  22.160  41.384  12.570
 4026W        W76286  11.318  36.379   1.763
 4027W        W76287   5.428  14.744   4.836
 4028W        W76288  35.049  21.698   1.275
 4029W        W76289   3.361  23.636   4.215
 4030W        W76290  37.080  32.520  14.988
 4031W        W76291  10.804   9.293  11.857
 4032W        W76292   2.427  13.127   1.424
 4033W        W76293  43.999  39.329  14.473
 4034W        W76294  16.568   6.397   3.855
 4035W        W76295  11.746  37.085  13.802
 4036W        W76296  41.938  30.426  11.067
 4037W        W76297   4.902   5.738  12.079
 4038W        W76298  26.154  16.093   4.174
 4039W        W76299  43.309   7.326  11.974
 4040W        W76300   7.677  23.240  11.936
 4041W        W76301  12.705  13.269   0.898
 4042W        W76302  41.413  24.616   2.274
 4043W        W76303   0.442  25.648  13.849
 4044W        W76304  33.498  37.928  13.990
 4045W        W76305   7.755  34.881  10.894
 4046W        W76306  17.097  33.881  12.042
 4047W        W76307  11.724   1.391  10.515
 4048W        W76308   3.811  40.548  11.930
 4049W        W76309   7.236  31.439  11.401
 4050W        W76310  30.952  28.146  11.470
 4051W        W76311  20.759  39.029  11.548
 4052W        W76312  37.352  27.656  12.447
 4053W        W76313  19.168  17.646   3.356
 4054W        W76314  35.411  18.601  14.930
 4055W        W76315   8.793  10.311  13.449
 4056W        W76316  17.605  39.815   1.371
 4057W        W76317  44.346   9.152  13.394
 4058W        W76318  24.158  37.447   0.476
 4059W        W76319  37.470  19.595   0.754
 4060W        W76320  38.361   4.397   3.255
 4061W        W76321  32.970  35.852  13.967
 4062W        W76322  40.333   3.253   3.806
 4063W        W76323  16.140   5.898  10.597
 4064W        W76324  42.423  38.938   2.679
 4065W        W76325   7.894  18.731  10.952
 4066W        W76326   6.316  41.481  13.868
 4067W        W76327  36.946  18.089   2.693
 4068W        W76328  40.525  13.153   2.850
 4069W        W76329   1.471  39.061   0.379
 4070W        W76330   6.779  11.329   2.336
 4071W        W76331  22.572  30.435  13.487
 4072W        W76332  17.277  27.187   0.909
 4073W        W76333  21.028  41.421  10.045
 4074W        W76334   3.461  21.126   0.441
 4075W        W76335  22.631  26.093  11.870
 4076W        W76336   9.825  39.381   2.288
 4077W        W76337   5.859  24.110  11.448
 4078W        W76338  17.602  17.564   3.663
 4079W        W76339  10.211  44.991   0.855
 4080W        W76340  31.480  43.773  14.933
 4081W        W76341  29.932   6.921  10.633
 4082W        W76342  11.149   6.712   0.818
 4083W        W76343   8.699   0.792  13.928
 4084W        W76344  32.525  20.160  14.494
 4085W        W76345  12.128   6.426   4.800
 4086W        W76346  24.564  40.928   0.312
 4087W        W76347   9.766   5.862  11.476
 4088W        W76348  12.668  23.008   4.349
 4089W        W76349  16.589  33.419   1.830
 4090W        W76350  23.658  28.435  11.971
 4091W        W76351  19.141  42.919   4.151
 4092W        W76352  43.474  43.833   2.334
 4093W        W76353  30.522  36.015  10.467
 4094W        W76354  44.493  44.418   0.413
 4095W        W76355  37.871  43.475   1.761
 4096W        W76356  29.656  11.716  12.372
 4097W        W76357  30.453   7.270  11.088
 4098W        W76358   3.405  36.956  14.833
 4099W        W76359  28.538  19.572   3.662
 4100W        W76360  40.519  15.625  13.848
 4101W        W76361  28.578   7.854   4.240
 4102W        W76362  27.577   6.355  12.003
 4103W        W76363  28.549  24.121   3.339
 4104W        W76364  10.141  18.123   1.894
 4105W        W76365  32.893  24.124  12.476
 4106W        W76366   7.368  37.520  10.533
 4107W        W76367  11.292   4.364  13.957
 4108W        W76368  32.437  11.844   3.752
 4109W        W76369  40.513  38.395  12.913
 4110W        W76370  15.273  26.554  12.467
 4111W        W76371  44.483  17.634   3.773
 4112W        W76372   3.290  38.860   2.321
 4113W        W76373  40.309  16.156  12.453
 4114W        W76374  37.029  26.664   3.790
 4115W        W76375  29.479  38.866   1.748
 4116W        W76376  15.130  41.536   3.766
 4117W        W76377  29.583  35.865   3.277
 4118W        W76378  19.200  17.236   2.727
 4119W        W76379   9.250  20.148  10.503
 4120W        W76380  19.053  17.747  11.397
 4121W        W76381   3.834  31.128  14.427
 4122W        W76382  18.169  23.006   4.607
 4123W        W76383  41.331  26.992   4.320
 4124W        W76384  32.034   8.890   4.234
 4125W        W76385  43.364  42.841  12.026
 4126W        W76386   7.673  40.854  14.832
 4127W        W76387  31.073  14.710   3.373
 4128W        W76388   9.831  32.415  13.966
 4129W        W76389  34.490  24.489   3.794
 4130W        W76390  31.440   0.282   2.797
 4131W        W76391  44.765  32.513  11.971
 4132W        W76392  40.995   7.385   1.283
 4133W        W76393  21.089   4.712  12.911
 4134W        W76394  26.956  41.938   9.957
 4135W        W76395  20.271  27.042  14.926
 4136W        W76396  41.883  24.164  12.836
 4137W        W76397   2.870  15.217   2.380
 4138W        W76398   3.796  25.988  11.392
 4139W        W76399  13.114   1.283  13.448
 4140W        W76400   6.362  42.432   9.951
 4141W        W76401  11.771  27.166  12.460
 4142W        W76402  10.160  15.129   2.361
 4143W        W76403  25.515  14.207   1.838
 4144W        W76404  33.567   7.680   2.757
 4145W        W76405  24.224   2.373   4.780
 4146W        W76406  15.605  13.285  11.608
 4147W        W76407  31.467   8.807   0.366
 4148W        W76408  33.484  21.632  12.906
 4149W        W76409  17.212  24.680   0.866
 4150W        W76410  16.803  20.115   2.197
 4151W        W76411  16.201  13.192   0.874
 4152W        W76412  24.492  21.558  10.897
 4153W        W76413  25.599  31.150  11.976
 4154W        W76414  27.452   8.870  12.468
 4155W        W76415   5.931   2.254   0.896
 4156W        W76416  41.392  23.733   4.130
 4157W        W76417  19.624  40.838   2.669
 4158W        W76418   2.450  22.248  11.612
 4159W        W76419  42.878   4.844   1.237
 4160W        W76420  25.537  32.537   3.309
 4161W        W76421   0.809   7.368  13.006
 4162W        W76422  20.592  25.180  13.482
 4163W        W76423  23.559  43.445  13.487
 4164W        W76424  44.828  44.493  11.553
 4165W        W76425  15.819  34.416   1.261
 4166W        W76426  15.155  30.482   3.310
 4167W        W76427  38.913   7.378   9.461
 4168W        W76428   9.151  33.497   2.703
 4169W        W76429   6.312  28.612  10.158
 4170W        W76430  10.378  37.903   2.752
 4171W        W76431  44.262  38.866   4.802
 4172W        W76432  33.051   5.871  11.426
 4173W        W76433  28.491  34.940   1.744
 4174W        W76434  32.507  31.614  11.034
 4175W        W76435  22.232  31.088  10.555
 4176W        W76436  17.160  21.233   0.908
 4177W        W76437   4.439   4.402   4.239
 4178W        W76438  13.348   8.803   5.273
 4179W        W76439  17.110  26.033  10.547
 4180W        W76440  38.530  12.262  10.547
 4181W        W76441   1.314  19.129  11.511
 4182W        W76442  30.417  37.358   1.763
 4183W        W76443   1.968  22.166   3.794
 4184W        W76444  36.898  19.185  11.389
 4185W        W76445  20.126  29.065  12.359
 4186W        W76446  41.911  32.049   5.149
 4187W        W76447   6.712  31.407   1.716
 4188W        W76448  13.301  18.123   1.259
 4189W        W76449  26.003  21.205  11.392
 4190W        W76450  10.286   0.773  14.847
 4191W        W76451   2.387  30.160  11.436
 4192W        W76452  23.991  15.302  14.460
 4193W        W76453  32.446  13.704   3.830
 4194W        W76454  31.460  23.717  14.477
 4195W        W76455  32.102   3.939   3.756
 4196W        W76456  42.410   4.282   4.627
 4197W        W76457  21.179  38.369   9.994
 4198W        W76458   0.340   0.360  12.344
 4199W        W76459  13.123  35.007   2.787
 4200W        W76460  44.462   9.218  11.447
 4201W        W76461  28.635  14.286   1.766
 4202W        W76462  15.664  17.626   5.159
 4203W        W76463  27.660   4.836  12.547
 4204W        W76464  35.087  25.519  10.424
 4205W        W76465  13.601  22.066   2.198
 4206W        W76466  43.841  16.316   4.284
 4207W        W76467  34.943  39.064   1.447
 4208W        W76468  44.772  18.733  13.334
 4209W        W76469  19.539  27.059   0.787
 4210W        W76470  34.021  12.790  11.529
 4211W        W76471  15.220  42.521   2.234
 4212W        W76472  43.424  34.052  10.458
 4213W        W76473  19.645  28.185  12.466
 4214W        W76474  16.202  19.571  13.546
 4215W        W76475  39.935  30.521  11.602
 4216W        W76476  39.427  21.515   3.179
 4217W        W76477  35.412  39.878   0.470
 4218W        W76478  17.767   2.390  14.355
 4219W        W76479  13.247  10.306  11.949
 4220W        W76480  19.093   4.416  13.323
 4221W        W76481  28.999   7.896   1.887
 4222W        W76482   2.410  15.722   3.787
 4223W        W76483  38.499  36.420   1.903
 4224W        W76484  33.967   7.354   2.414
 4225W        W76485  31.969   2.337   1.775
 4226W        W76486   4.712  30.038  13.865
 4227W        W76487  14.170  28.974   4.636
 4228W        W76488  40.499  16.656   3.160
 4229W        W76489  33.523  42.481  10.532
 4230W        W76490   4.879  43.903   0.433
 4231W        W76491  44.493  18.259   0.409
 4232W        W76492  44.298  32.443   3.812
 4233W        W76493  24.107  24.553   4.267
 4234W        W76494   5.813  36.566  11.977
 4235W        W76495  35.871   1.833  12.087
 4236W        W76496  36.494  24.060  12.341
 4237W        W76497  43.968  17.277  13.510
 4238W        W76498  24.647   9.215   1.363
 4239W        W76499  39.812  26.615  14.335
 4240W        W76500  42.885  36.923  14.436
 4241W        W76501   6.319  21.616  11.084
 4242W        W76502  39.967  25.027  12.035
 4243W        W76503  41.876  31.459   4.647
 4244W        W76504  22.012  28.454   0.458
 4245W        W76505   0.440  36.367  10.467
 4246W        W76506  38.994  31.054  11.376
 4247W        W76507   5.751  28.569   0.438
 4248W        W76508  32.416   1.945  12.465
 4249W        W76509  43.313  27.668   2.314
 4250W        W76510   1.380  13.835  12.434
 4251W        W76511  30.435   1.433  13.964
 4252W        W76512  38.540  44.366  11.076
 4253W        W76513  19.191  23.504  14.997
 4254W        W76514  12.674  29.061  12.520
 4255W        W76515   4.432  26.194  13.906
 4256W        W76516  33.040  12.731  11.377
 4257W        W76517  44.772  11.818  10.101
 4258W        W76518  34.086  26.580   2.761
 4259W        W76519  35.035  29.530  13.966
 4260W        W76520  15.248  19.760   4.659
 4261W        W76521  33.103  26.991   1.738
 4262W        W76522  28.491   8.238  14.384
 4263W        W76523  12.683  28.666  12.841
 4264W        W76524  12.719   0.249  11.382
 4265W        W76525  23.085  25.973   5.261
 4266W        W76526  44.309  20.651  14.791
 4267W        W76527  14.154  28.135   9.508
 4268W        W76528  10.263  18.077   2.334
 4269W        W76529  21.254  27.626  12.422
 4270W        W76530   1.446   0.280  12.352
 4271W        W76531  33.608  22.159  12.544
 4272W        W76532   0.272  10.294  11.940
 4273W        W76533  30.978   6.841  14.825
 4274W        W76534  27.571  32.101   1.301
 4275W        W76535  18.155   9.230   5.146
 4276W        W76536   3.343  14.829   3.149
 4277W        W76537  23.036  34.997  13.449
 4278W        W76538  37.052  14.250  13.367
 4279W        W76539  40.811  10.348   2.721
 4280W        W76540   8.809  32.453  14.976
 4281W        W76541  18.579  15.642   3.356
 4282W        W76542  22.740  31.932  14.907
 4283W        W76543  26.697  39.003   5.246
 4284W        W76544  40.315  34.385   0.762
 4285W        W76545  12.628  38.376  12.034
 4286W        W76546  26.634  29.072   1.414
 4287W        W76547  21.169   9.799   0.879
 4288W        W76548  24.988  16.663   2.385
 4289W        W76549  13.209  24.561  12.407
 4290W        W76550  13.244  43.457  11.376
 4291W        W76551  32.101  33.909  14.358
 4292W        W76552   7.703  31.421  12.913
 4293W        W76553   6.341  41.302  11.496
 4294W        W76554  33.904  18.618   3.367
 4295W        W76555  43.951   8.308   3.650
 4296W        W76556  22.013  23.722   3.839
 4297W        W76557   8.268  42.890   1.380
 4298W        W76558  29.008  34.931  12.009
 4299W        W76559  31.995  35.858   0.931
 4300W        W76560  21.680   8.881   3.239
 4301W        W76561   6.374  18.177   0.955
 4302W        W76562  10.687   5.800  14.494
 4303W        W76563  15.628  15.643  11.950
 4304W        W76564  28.115  18.287  11.892
 4305W        W76565  27.509  22.119   1.844
 4306W        W76566  27.098   8.382  10.642
 4307W        W76567   0.937  14.109  12.916
 4308W        W76568   2.797  33.906   1.318
 4309W        W76569  21.211  19.234   5.201
 4310W        W76570   2.402  16.075  14.827
 4311W        W76571  34.423  40.457   3.280
 4312W        W76572  22.128  15.243   3.218
 4313W        W76573  44.406   2.848   2.371
 4314W        W76574   3.442  37.556  12.866
 4315W        W76575   7.707   9.357   1.239
 4316W        W76576  19.578  33.009   3.798
 4317W        W76577  36.035  30.593   3.295
 4318W        W76578  35.431   8.382   2.381
 4319W        W76579  31.506  19.555  11.502
 4320W        W76580  17.747  28.045  14.863
 4321W        W76581  15.601  42.382  13.906
 4322W        W76582  27.103   8.318   3.379
 4323W        W76583  41.456  33.071   4.712
 4324W        W76584  32.572  10.256  12.093
 4325W        W76585  30.959  21.177  10.539
 4326W        W76586  19.043   9.655   3.676
 4327W        W76587   5.206  12.296   2.766
 4328W        W76588  21.192   8.217   1.863
 4329W        W76589  36.419   2.287  13.049
 4330W        W76590  24.029  33.592   1.879
 4331W        W76591  36.010   4.738  11.879
 4332W        W76592  28.073  27.604   0.463
 4333W        W76593   6.914  34.470   0.733
 4334W        W76594  43.434  42.386   3.856
 4335W        W76595   3.460  29.460  11.062
 4336W        W76596  42.317   8.209   4.813
 4337W        W76597   1.800  10.257   0.949
 4338W        W76598   1.961  14.606  13.976
 4339W        W76599  16.230  20.718  13.421
 4340W        W76600  25.210  38.354   4.788
 4341W        W76601  41.908   0.418   2.808
 4342W        W76602  22.722  29.665   4.711
 4343W        W76603  31.515  42.880   2.776
 4344W        W76604  29.949  25.195  14.877
 4345W        W76605  16.756  11.760  13.439
 4346W        W76606   4.765  37.442   2.393
 4347W        W76607   0.279  21.064   2.299
 4348W        W76608  18.568  28.165  11.988
 4349W        W76609  10.653  11.810  13.354
 4350W        W76610  22.530  30.520   1.796
 4351W        W76611  41.982   9.357  14.806
 4352W        W76612  19.755   8.169  10.407
 4353W        W76613   8.249   3.918   2.299
 4354W        W76614   1.779  34.931  13.963
 4355W        W76615  26.661  27.030  12.522
 4356W        W76616  39.360  39.007  13.517
 4357W        W76617  21.713  26.010   1.389
 4358W        W76618  37.398   7.302   3.386
 4359W        W76619  18.609   3.430   0.382
 4360W        W76620  33.595   6.253   1.766
 4361W        W76621  10.241   6.235   4.148
 4362W        W76622  25.077  15.275  12.905
 4363W        W76623  24.623  16.207   3.311
 4364W        W76624   4.698   0.887   4.633
 4365W        W76625   3.827  16.166   2.287
 4366W        W76626  40.357  17.590   1.759
 4367W        W76627  25.987  36.990   0.797
 4368W        W76628   2.808   3.954  11.005
 4369W        W76629  40.851  12.125   1.823
 4370W        W76630  20.136   0.820   1.349
 4371W        W76631  20.553  36.866  10.538
 4372W        W76632   2.766  29.025   3.836
 4373W        W76633  26.617   9.393  11.040
 4374W        W76634  42.300  28.993   4.795
 4375W        W76635  25.021  32.973   4.682
 4376W        W76636  17.675  30.138   2.670
 4377W        W76637   4.840  10.174  13.352
 4378W        W76638   1.337   6.311  12.980
 4379W        W76639  19.743   0.805   1.893
 4380W        W76640  19.116  18.603  14.453
 4381W        W76641  21.251  43.776   0.908
 4382W        W76642  44.854  43.286   2.377
 4383W        W76643  36.503  30.443  12.947
 4384W        W76644  33.071   8.173   4.731
 4385W        W76645  18.664   6.887   0.893
 4386W        W76646  44.828  26.604  14.314
 4387W        W76647   3.449  12.295  10.982
 4388W        W76648  19.561  44.338  13.308
 4389W        W76649  27.669  35.102  14.984
 4390W        W76650  14.715   6.889  11.417
 4391W        W76651  36.984  34.025   3.823
 4392W        W76652  25.539  41.952  10.636
 4393W        W76653  25.670   8.667  12.453
 4394W        W76654  39.831   5.349   1.290
 4395W        W76655   7.694  31.612  10.560
 4396W        W76656  23.227  37.988   1.300
 4397W        W76657  22.142  21.550   9.626
 4398W        W76658  38.006  28.035   0.411
 4399W        W76659  44.353  21.739  14.357
 4400W        W76660  18.181  37.991   3.762
 4401W        W76661  13.300  34.523   0.431
 4402W        W76662  33.103  30.055   0.756
 4403W        W76663  14.098  41.972   3.266
 4404W        W76664  11.763  14.196   1.234
 4405W        W76665  41.360  14.195   0.897
 4406W        W76666   6.768  33.890   3.187
 4407W        W76667   3.731  29.598   3.721
 4408W        W76668  40.966  28.168   4.230
 4409W        W76669  30.986  28.048   2.277
 4410W        W76670   1.919   8.276   1.449
 4411W        W76671  37.992   6.197  14.934
 4412W        W76672  16.694  12.277  11.396
 4413W        W76673  19.171  40.009   1.344
 4414W        W76674   5.246   5.802   1.314
 4415W        W76675  26.957  12.685  10.571
 4416W        W76676  21.710  21.246   1.282
 4417W        W76677  21.018   8.740   0.825
 4418W        W76678  14.733  41.393   2.764
 4419W        W76679  43.293  21.028  11.858
 4420W        W76680  14.794  31.446  13.384
 4421W        W76681  29.632   7.202  14.801
 4422W        W76682  29.129  24.725  11.053
 4423W        W76683  10.673  44.424   4.625
 4424W        W76684  31.445   9.786   4.332
 4425W        W76685   6.244   7.365  12.405
 4426W        W76686   4.229  34.439  14.334
 4427W        W76687  35.014  39.954   1.903
 4428W        W76688  30.597  14.261  13.951
 4429W        W76689  33.389  13.278   1.863
 4430W        W76690  22.546  42.856   0.729
 4431W        W76691   6.807  28.560   1.887
 4432W        W76692  33.943  33.500   0.883
 4433W        W76693   9.389  13.716   2.329
 4434W        W76694  21.040  42.871  11.417
 4435W        W76695  16.140   6.330  12.952
 4436W        W76696  32.432  29.967   1.931
 4437W        W76697  32.115  16.753  14.901
 4438W        W76698  23.004  26.180  10.049
 4439W        W76699   6.321  40.391  14.511
 4440W        W76700  17.733  24.594   2.337
 4441W        W76701  25.975  24.534  10.426
 4442W        W76702  16.298  17.255  11.603
 4443W        W76703  20.219  13.131  10.584
 4444W        W76704  37.908  10.806   1.859
 4445W        W76705  11.254  26.611  11.593
 4446W        W76706  27.461  23.179   2.821
 4447W        W76707  24.659   6.725   2.859
 4448W        W76708  39.520  22.684   3.832
 4449W        W76709  27.149  23.689  12.978
 4450W        W76710  36.954  33.099  13.896
 4451W        W76711  18.738  37.520   0.795
 4452W        W76712   8.729   8.245  13.999
 4453W        W76713  13.217  13.221  13.529
 4454W        W76714  39.499  29.162   3.150
 4455W        W76715  27.675  34.487   1.216
 4456W        W76716  17.673  33.508  10.895
 4457W        W76717   0.346  13.805  10.532
 4458W        W76718  14.709  15.715  10.942
 4459W        W76719  22.240  29.561   3.320
 4460W        W76720  27.003   9.219  12.009
 4461W        W76721  26.984  34.568   1.758
 4462W        W76722  15.129  25.015  12.971
 4463W        W76723  14.315  10.378  14.283
 4464W        W76724  16.642  33.392   0.467
 4465W        W76725   5.209  16.788   1.858
 4466W        W76726   2.937  34.405  13.029
 4467W        W76727   6.707  40.497   3.703
 4468W        W76728  32.451   0.486  13.803
 4469W        W76729  23.209  20.145  10.563
 4470W        W76730  24.048  19.625   1.801
 4471W        W76731  30.129  31.601   3.334
 4472W        W76732   1.829  18.757   2.345
 4473W        W76733  14.617  14.121   1.927
 4474W        W76734  11.626   1.469   0.766
 4475W        W76735   2.309  44.423  10.585
 4476W        W76736   0.260  26.974  10.639
 4477W        W76737   6.823  29.666   2.339
 4478W        W76738  43.942  23.675   3.353
 4479W        W76739  39.018  36.475   2.891
 4480W        W76740   7.335  17.733   1.377
 4481W        W76741   9.217  39.981  10.611
 4482W        W76742  42.384  40.028   1.884
 4483W        W76743  12.240  19.141  11.446
 4484W        W76744  40.864   0.744  11.004
 4485W        W76745  40.459  43.450   2.765
 4486W        W76746  32.419  34.872  14.300
 4487W        W76747  13.264  16.309  13.859
 4488W        W76748  13.659   9.300   3.822
 4489W        W76749   2.819  26.961   4.705
 4490W        W76750   1.959   2.926  13.462
 4491W        W76751  32.965  40.423   1.350
 4492W        W76752   1.835   9.221   1.285
 4493W        W76753  40.386   9.241   2.763
 4494W        W76754  43.981  18.561  14.805
 4495W        W76755   5.741  33.982  12.085
 4496W        W76756  44.874  26.666  11.873
 4497W        W76757  29.927  37.517   0.467
 4498W        W76758  11.228   0.807   2.681
 4499W        W76759  40.490   2.818   1.366
 4500W        W76760  30.541  12.686   2.237
 4501W        W76761  15.701   7.237   3.366
 4502W        W76762  18.592   3.924   1.327
 4503W        W76763  13.158   9.822   4.634
 4504W        W76764  33.116  19.549   2.693
 4505W        W76765  25.150  41.867  10.583
 4506W        W76766  11.278  15.768  14.891
 4507W        W76767   3.263   1.964   2.686
 4508W        W76768  17.571  27.533   2.783
 4509W        W76769  32.484  41.923   4.276
 4510W        W76770  44.868  34.578   0.324
 4511W        W76771  18.613  44.410  11.468
 4512W        W76772   6.296   7.749   3.340
 4513W        W76773  16.301   8.748  12.551
 4514W        W76774   7.709   7.366  10.619
 4515W        W76775  37.398  15.218  13.856
 4516W        W76776  28.993  22.181  13.808
 4517W        W76777  22.034  25.480  14.803
 4518W        W76778  22.145  29.626  14.317
 4519W        W76779  11.626  17.292   0.377
 4520W        W76780   8.846  35.867  14.501
 4521W        W76781  12.819  44.461   4.645
 4522W        W76782  12.649  37.341  11.087
 4523W        W76783  14.140   8.348   4.625
 4524W        W76784  37.923   3.841   0.923
 4525W        W76785  40.835  24.645  11.055
 4526W        W76786  28.617  29.995  13.509
 4527W        W76787  21.215  18.080   3.283
 4528W        W76788  29.455  14.300  13.540
 4529W        W76789  40.883  35.965  13.979
 4530W        W76790  43.392  34.420   2.299
 4531W        W76791  21.573  16.737  11.536
 4532W        W76792  27.578  12.281  12.979
 4533W        W76793   8.404  42.384   0.301
 4534W        W76794   7.801  42.032  11.557
 4535W        W76795  41.923  21.745  14.290
 4536W        W76796  32.520  39.042  14.943
 4537W        W76797  21.623  11.268  13.957
 4538W        W76798  42.965   0.257   0.953
 4539W        W76799  40.466  10.799   3.667
 4540W        W76800  24.701   9.293  10.577
 4541W        W76801  21.136  18.204   2.192
 4542W        W76802  42.443   9.318   4.133
 4543W        W76803  31.462  34.953  14.849
 4544W        W76804  20.219  26.536  10.009
 4545W        W76805  35.367  38.941  13.839
 4546W        W76806   8.237   9.815  12.404
 4547W        W76807   2.371  28.552  11.086
 4548W        W76808   7.190  11.270   3.158
 4549W        W76809   5.365   5.726   3.715
 4550W        W76810  28.566  28.994  13.032
 4551W        W76811  27.066   7.768  14.990
 4552W        W76812  26.639   5.299   3.254
 4553W        W76813  25.071  44.486  14.818
 4554W        W76814   0.481  39.920  12.991
 4555W        W76815  27.007  37.911   4.135
 4556W        W76816   4.367  39.001   3.177
 4557W        W76817  16.749  24.185  14.933
 4558W        W76818  25.167  12.765   0.313
 4559W        W76819  38.062  34.864  13.960
 4560W        W76820  10.257  10.743  10.122
 4561W        W76821  32.457  16.785   1.221
 4562W        W76822  18.135  11.767   4.192
 4563W        W76823   3.237  43.415  13.791
 4564W        W76824  36.430   4.399  11.107
 4565W        W76825  15.694  44.896  11.571
 4566W        W76826  39.920  20.202  12.439
 4567W        W76827  32.444   0.342  12.003
 4568W        W76828  31.579  34.457   0.291
 4569W        W76829   7.773  25.117   4.799
 4570W        W76830  44.290  16.638   4.138
 4571W        W76831  43.401   1.921  13.419
 4572W        W76832  33.085   2.303  12.341
 4573W        W76833   5.728  23.004   2.776
 4574W        W76834  21.099  35.866  14.972
 4575W        W76835  31.491  23.011   0.367
 4576W        W76836  23.193  22.020   0.789
 4577W        W76837  39.428  43.492   2.266
 4578W        W76838  10.863   9.736   2.680
 4579W        W76839  39.897  35.527  11.478
 4580W        W76840  25.040  24.037   4.813
 4581W        W76841  44.326  35.358  11.065
 4582W        W76842  21.245  17.279   4.759
 4583W        W76843  39.959  36.003   4.734
 4584W        W76844  22.648   4.319   3.707
 4585W        W76845   5.877  22.531  14.774
 4586W        W76846  25.661  39.885   3.276
 4587W        W76847   1.844  36.383   0.370
 4588W        W76848  13.609  27.579   1.786
 4589W        W76849  13.617  16.682  11.902
 4590W        W76850  42.315  33.004   3.179
 4591W        W76851  27.662  31.087  14.824
 4592W        W76852  42.872  10.158   0.350
 4593W        W76853  42.475   4.374   4.177
 4594W        W76854  34.886  35.038  14.294
 4595W        W76855  35.985  35.458   0.365
 4596W        W76856   1.945  29.029  12.084
 4597W        W76857  26.669   7.818  13.845
 4598W        W76858   2.839  25.965   0.749
 4599W        W76859   4.323  32.456  14.844
 4600W        W76860  30.031  41.381   1.394
 4601W        W76861   8.219  16.122   2.289
 4602W        W76862  28.118   1.381  14.419
 4603W        W76863  28.576  14.280  10.895
 4604W        W76864  42.811  16.724  14.823
 4605W        W76865  23.016  15.717  11.103
 4606W        W76866  20.205  15.770  10.419
 4607W        W76867   8.716  27.184   3.261
 4608W        W76868  30.953  32.571   4.154
 4609W        W76869  22.237  25.545   4.654
 4610W        W76870  12.296   4.434  14.412
 4611W        W76871  22.554  31.496  14.853
 4612W        W76872  34.441  39.945  10.529
 4613W        W76873  15.288  26.659  14.784
 4614W        W76874  17.231  39.886  12.938
 4615W        W76875  16.125  40.511  14.514
 4616W        W76876  26.586  33.413   3.329
 4617W        W76877  11.231  40.977  13.461
 4618W        W76878  23.530   3.775   4.732
 4619W        W76879  24.508  17.067   0.449
 4620W        W76880   8.764  21.186  12.083
 4621W        W76881   3.949  26.992  13.344
 4622W        W76882  15.675   2.252  14.779
 4623W        W76883  32.927  31.009   3.174
 4624W        W76884   9.270  39.549  13.889
 4625W        W76885   5.196  34.091  12.872
 4626W        W76886  18.146  28.504   0.397
 4627W        W76887   8.711   3.417   1.923
 4628W        W76888   1.290   4.206  11.487
 4629W        W76889  35.458   1.937  14.339
 4630W        W76890  18.759  19.221  10.548
 4631W        W76891  32.990  21.115   1.747
 4632W        W76892  22.621  34.061  11.123
 4633W        W76893  35.084   9.187  11.104
 4634W        W76894  40.049   0.333   0.823
 4635W        W76895  40.922  38.458   2.662
 4636W        W76896  11.128   5.246   3.714
 4637W        W76897  23.048  29.026   1.298
 4638W        W76898  27.132  11.771  11.504
 4639W        W76899  11.177  35.536   1.312
 4640W        W76900  36.912  33.974  10.510
 4641W        W76901   2.939   1.846  13.522
 4642W        W76902  18.628  42.346  14.010
 4643W        W76903   4.286  36.551  13.964
 4644W        W76904  28.024  30.982  13.008
 4645W        W76905  43.443   8.846   9.967
 4646W        W76906  18.685  23.498  12.989
 4647W        W76907  26.546  19.187  14.027
 4648W        W76908  28.055  11.689   1.372
 4649W        W76909  26.031  14.591  14.364
 4650W        W76910  11.328  40.532   3.251
 4651W        W76911   4.715  36.944   0.959
 4652W        W76912   3.396  12.237  13.037
 4653W        W76913  10.161   8.742  10.549
 4654W        W76914   9.157   2.887  13.963
 4655W        W76915  21.516  28.628   2.264
 4656W        W76916  30.955  22.613   2.327
 4657W        W76917  27.098  39.321   9.535
 4658W        W76918  31.063   5.357  12.094
 4659W        W76919  22.231  19.605   3.694
 4660W        W76920  44.445  13.189   4.230
 4661W        W76921  28.441  11.181  10.418
 4662W        W76922  28.009  40.943  10.991
 4663W        W76923  21.206  39.420   3.761
 4664W        W76924   9.706  36.963  13.471
 4665W        W76925  25.096  44.944  11.085
 4666W        W76926  31.142  29.514  14.356
 4667W        W76927  37.937   7.351  12.371
 4668W        W76928  13.205  17.072   4.193
 4669W        W76929   4.851  26.146   2.261
 4670W        W76930   9.883  17.751   2.278
 4671W        W76931  13.776  41.531   1.777
 4672W        W76932  32.518  41.928   3.730
 4673W        W76933  27.464  30.483  10.470
 4674W        W76934   1.415   2.241   3.858
 4675W        W76935  13.678  19.600   5.208
 4676W        W76936  15.777  40.934  11.900
 4677W        W76937  21.217  21.581  11.588
 4678W        W76938  14.312  23.222   2.669
 4679W        W76939  14.274  29.003  11.910
 4680W        W76940   0.805  16.641  11.892
 4681W        W76941  15.674  31.518   2.252
 4682W        W76942   4.414  38.418  12.394
 4683W        W76943  28.006   7.819   2.276
 4684W        W76944   4.274  21.149  11.070
 4685W        W76945  44.769   6.259  13.935
 4686W        W76946   3.785  39.482   1.929
 4687W        W76947  24.995   0.830   2.302
 4688W        W76948  15.614  23.053  14.510
 4689W        W76949  13.840  34.505  11.869
 4690W        W76950  29.156  25.581  12.058
 4691W        W76951  22.140  41.384  13.912
 4692W        W76952  32.968  36.523  13.835
 4693W        W76953  38.349  27.143  13.815
 4694W        W76954  28.128  29.492   2.291
 4695W        W76955  11.175   2.271  11.537
 4696W        W76956   1.973  23.171   3.858
 4697W        W76957  29.548  25.192  10.158
 4698W        W76958   4.871  25.683  11.933
 4699W        W76959  19.658  29.622   1.343
 4700W        W76960   9.332  25.151  10.490
 4701W        W76961   3.339  30.413   0.388
 4702W        W76962  31.039  29.973   1.331
 4703W        W76963  16.749   8.742   1.372
 4704W        W76964  19.177  30.990  11.104
 4705W        W76965   0.305  41.857   3.279
 4706W        W76966  19.181  12.692  12.467
 4707W        W76967   7.369  13.223   1.699
 4708W        W76968  43.344   9.202  11.600
 4709W        W76969  10.296  32.392   3.813
 4710W        W76970  42.514  33.520   3.241
 4711W        W76971  27.994   0.359  14.911
 4712W        W76972   0.898   7.208   3.375
 4713W        W76973  36.028   8.767   0.254
 4714W        W76974   1.417  22.516   1.385
 4715W        W76975  11.197  24.598  12.874
 4716W        W76976   1.258   2.828  11.453
 4717W        W76977  24.024  34.026   3.266
 4718W        W76978  32.548  15.183   1.867
 4719W        W76979  43.893  13.657   4.122
 4720W        W76980  16.120  43.806  14.358
 4721W        W76981  39.406   7.864  12.013
 4722W        W76982  15.674  32.026  13.920
 4723W        W76983  17.616  25.182   3.799
 4724W        W76984  18.692  44.839   2.792
 4725W        W76985  30.048  17.611  14.515
 4726W        W76986  13.688   2.727   1.212
 4727W        W76987  38.549   0.846   2.353
 4728W        W76988  26.663  14.331   3.748
 4729W        W76989  42.978   7.898  13.535
 4730W        W76990  26.021  34.557  11.864
 4731W        W76991  39.044   7.708   4.183
 4732W        W76992   2.858  20.698   4.831
 4733W        W76993  34.404   1.352   2.792
 4734W        W76994   3.342  37.377   4.630
 4735W        W76995  28.997  43.836   0.913
 4736W        W76996  16.300  10.826   2.212
 4737W        W76997  32.026   7.706   3.719
 4738W        W76998  40.311  30.414   2.341
 4739W        W76999  17.123  44.475   0.828
 4740W        W77000  42.389  44.290   4.698
 4741W        W77001  20.744  43.423  12.566
 4742W        W77002   3.345   0.874   5.306
 4743W        W77003  11.171  21.176  13.503
 4744W        W77004  24.162  27.155  12.884
 4745W        W77005  12.618   2.894   1.322
 4746W        W77006   3.806  12.793   3.263
 4747W        W77007  22.089  30.462  13.882
 4748W        W77008   0.754  41.866   4.833
 4749W        W77009  10.738  17.134  14.422
 4750W        W77010   3.837  32.047   2.753
 4751W        W77011   4.815  29.541   5.149
 4752W        W77012  35.594  26.066   1.213
 4753W        W77013  39.520   8.821   1.357
 4754W        W77014   4.245   9.664   1.899
 4755W        W77015  34.511  37.036  12.937
 4756W        W77016  38.537   6.875   0.906
 4757W        W77017   4.364  25.707  13.971
 4758W        W77018  36.351  42.959  10.632
 4759W        W77019  24.165  41.844  10.975
 4760W        W77020  24.170  25.028  13.817
 4761W        W77021  25.507   7.372   5.192
 4762W        W77022  18.207   5.421  11.107
 4763W        W77023  23.570  18.210   3.265
 4764W        W77024  11.273   5.915  13.987
 4765W        W77025  20.758  28.520  10.533
 4766W        W77026  29.995  39.811  14.487
 4767W        W77027  31.896   3.284   4.203
 4768W        W77028   3.353   8.841   5.275
 4769W        W77029  23.500   8.366  14.971
 4770W        W77030  28.015  38.960  12.094
 4771W        W77031  21.728  40.438   0.253
 4772W        W77032  13.827  23.590   3.823
 4773W        W77033   2.925  16.643  11.431
 4774W        W77034  33.578  34.456   4.741
 4775W        W77035  19.097  33.474  14.788
 4776W        W77036  18.641   2.876  14.946
 4777W        W77037   9.759  36.587  11.591
 4778W        W77038  32.424   7.255  11.077
 4779W        W77039  25.144  22.085   4.305
 4780W        W77040  17.561  32.928   1.353
 4781W        W77041  14.268  42.478  13.450
 4782W        W77042  35.033  31.931  11.552
 4783W        W77043  35.557  14.130   1.281
 4784W        W77044   6.348  12.780   5.105
 4785W        W77045  25.517  17.191  12.993
 4786W        W77046  21.520  35.582  14.913
 4787W        W77047   3.325  21.544   0.955
 4788W        W77048  11.290  20.661   3.636
 4789W        W77049  25.018  37.066   3.804
 4790W        W77050  12.132  37.363  10.579
 4791W        W77051  23.088  39.470   0.419
 4792W        W77052  21.647   0.426  12.931
 4793W        W77053  41.961   4.289  14.013
 4794W        W77054  31.020  37.417   1.695
 4795W        W77055  17.617  18.731   0.441
 4796W        W77056   4.877  13.289   4.714
 4797W        W77057  27.660  15.812  12.081
 4798W        W77058  41.343  18.787   2.895
 4799W        W77059   4.712  32.497   1.295
 4800W        W77060  13.169  10.192   3.332
 4801W        W77061  33.608  25.482  10.959
 4802W        W77062  11.815  38.969   3.321
 4803W        W77063   9.868  39.036  10.981
 4804W        W77064  32.107  38.870   4.675
 4805W        W77065   9.318  30.163   4.225
 4806W        W77066  10.841  17.191  12.966
 4807W        W77067  36.940   1.375   0.376
 4808W        W77068  31.513   5.718   2.406
 4809W        W77069   1.271   6.697   2.730
 4810W        W77070  29.074  36.447  12.433
 4811W        W77071  14.737  29.965   5.111
 4812W        W77072  11.844  20.213   1.397
 4813W        W77073  35.376   1.343  13.978
 4814W        W77074  16.655   8.223   4.144
 4815W        W77075  17.699   0.929   2.668
 4816W        W77076   0.890  38.558  14.310
 4817W        W77077  12.333  33.881   3.340
 4818W        W77078  27.089  29.539   1.316
 4819W        W77079  17.699  22.655   1.723
 4820W        W77080   4.881  33.083   0.338
 4821W        W77081  41.331   5.851  13.990
 4822W        W77082  29.928  33.082   3.837
 4823W        W77083  25.500  43.923   0.742
 4824W        W77084   9.796  13.612   2.181
 4825W        W77085  29.518  32.047  10.407
 4826W        W77086  30.430   8.865  13.008
 4827W        W77087  11.796  31.507   4.333
 4828W        W77088  42.839  13.801   1.442
 4829W        W77089  14.226  21.036  13.968
 4830W        W77090  35.957  12.294  12.003
 4831W        W77091  39.435  11.304   0.378
 4832W        W77092  16.101   4.270   3.258
 4833W        W77093  13.326   8.381   2.877
 4834W        W77094  13.216  41.946  13.901
 4835W        W77095  11.749  25.212  13.457
 4836W        W77096  24.166   3.393   5.165
 4837W        W77097  36.850  22.089  14.389
 4838W        W77098  28.067   7.860   2.789
 4839W        W77099  13.264   6.338  11.892
 4840W        W77100  19.741  29.501   5.108
 4841W        W77101  36.523  13.683  14.405
 4842W        W77102  39.388  27.101   4.190
 4843W        W77103  15.585  27.540   0.787
 4844W        W77104  15.323  14.623  14.311
 4845W        W77105   3.350  32.957  13.024
 4846W        W77106  16.798  32.531  10.438
 4847W        W77107  21.660  29.024   4.704
 4848W        W77108  44.428  37.025  11.987
 4849W        W77109  22.510  15.821   2.392
 4850W        W77110   6.386  15.583   2.814
 4851W        W77111  16.197  13.167  11.969
 4852W        W77112  11.213  19.261  14.765
 4853W        W77113  23.184   1.863   3.189
 4854W        W77114  38.922  14.271  14.287
 4855W        W77115  22.250  20.096   4.162
 4856W        W77116  29.435  39.392  14.338
 4857W        W77117  17.171   2.259  12.886
 4858W        W77118  19.050  22.564   0.771
 4859W        W77119  24.565  10.639   4.274
 4860W        W77120  11.250   8.877  13.901
 4861W        W77121  23.202  29.038  10.578
 4862W        W77122  20.034  36.944   2.809
 4863W        W77123  10.633  27.111   1.716
 4864W        W77124   8.274  13.193  14.388
 4865W        W77125  35.011  41.518  14.293
 4866W        W77126  32.963  14.141  14.339
 4867W        W77127  14.338  40.408   4.712
 4868W        W77128  11.657  41.946   4.318
 4869W        W77129  13.771  36.458   4.704
 4870W        W77130  11.272  41.415  11.426
 4871W        W77131   0.940  27.945   9.927
 4872W        W77132   6.880  41.492  14.770
 4873W        W77133  20.538  21.673  10.087
 4874W        W77134   0.460  31.146   4.718
 4875W        W77135  32.989  13.126  11.958
 4876W        W77136  27.989   5.804   3.148
 4877W        W77137  38.535  17.624   0.399
 4878W        W77138  41.458  35.433  10.908
 4879W        W77139   9.653  26.956   0.783
 4880W        W77140  41.450  27.050   0.915
 4881W        W77141  29.588  40.050   0.274
 4882W        W77142  41.891  43.017   2.375
 4883W        W77143  24.724  12.744  12.473
 4884W        W77144  27.165   1.357  10.460
 4885W        W77145  29.927  24.504  12.455
 4886W        W77146  33.884  11.338  13.925
 4887W        W77147   4.281  21.608  12.393
 4888W        W77148   6.697  22.682  10.512
 4889W        W77149  10.340  20.067   1.384
 4890W        W77150   3.345  16.704  14.852
 4891W        W77151  43.447  19.538  14.499
 4892W        W77152   4.367  26.657   3.767
 4893W        W77153  11.865  27.994   0.759
 4894W        W77154  30.942  29.953   5.629
 4895W        W77155  22.533   0.312  14.414
 4896W        W77156  35.534  35.018   3.384
 4897W        W77157  35.531  41.481   0.286
 4898W        W77158  12.269  28.538  10.051
 4899W        W77159  44.850  28.524  11.071
 4900W        W77160  12.158   3.757  14.447
 4901W        W77161  27.617   2.893  13.030
 4902W        W77162  36.564  17.190  12.418
 4903W        W77163   5.869  17.787   1.230
 4904W        W77164  26.146   5.708  11.506
 4905W        W77165  40.353  22.140  11.372
 4906W        W77166  13.789  12.349   1.840
 4907W        W77167   9.756  34.021  14.837
 4908W        W77168  11.805  42.484   4.625
 4909W        W77169  42.460  17.152   2.829
 4910W        W77170  15.301   0.394  13.031
 4911W        W77171   7.685  41.849  13.016
 4912W        W77172  16.663  21.536   3.386
 4913W        W77173  29.172  21.710   2.733
 4914W        W77174  28.516  35.011  13.942
 4915W        W77175  10.275  14.139  12.438
 4916W        W77176  36.514   0.830   2.717
 4917W        W77177  44.472  32.937   3.683
 4918W        W77178  17.209  26.991   3.724
 4919W        W77179  35.550  22.579   2.227
 4920W        W77180  12.812   2.352   0.439
 4921W        W77181  20.086  19.632  12.454
 4922W        W77182  31.913  39.877  11.943
 4923W        W77183   5.231  10.290   3.240
 4924W        W77184  14.720  16.653  13.373
 4925W        W77185  39.461   6.871   3.313
 4926W        W77186  34.589  22.630   1.369
 4927W        W77187   7.389  12.211  10.947
 4928W        W77188  29.078   6.272   2.200
 4929W        W77189  37.440  37.561   3.828
 4930W        W77190   2.367  43.005   3.697
 4931W        W77191   1.238   2.451  13.339
 4932W        W77192  38.347  20.128   1.735
 4933W        W77193  19.542  14.261  12.065
 4934W        W77194   9.887  15.722  13.925
 4935W        W77195  16.233  14.748  11.082
 4936W        W77196  11.851  36.933   4.707
 4937W        W77197   8.385  37.420  13.918
 4938W        W77198  24.099  32.137   4.676
 4939W        W77199  11.284  11.259  13.318
 4940W        W77200  32.143  44.814   0.939
 4941W        W77201  30.421  35.562  10.494
 4942W        W77202  24.544   6.281   4.158
 4943W        W77203  24.631   7.841   4.284
 4944W        W77204  41.001  36.505  12.074
 4945W        W77205  31.078  43.823   1.380
 4946W        W77206  15.716   5.907   2.326
 4947W        W77207  10.289  43.416   3.639
 4948W        W77208  19.151  13.320   1.870
 4949W        W77209  22.214   7.668   4.202
 4950W        W77210  25.590  35.885  14.938
 4951W        W77211  43.922  34.959  14.820
 4952W        W77212   0.833  40.522   1.351
 4953W        W77213  25.531  14.111  14.806
 4954W        W77214  23.678  18.283   1.412
 4955W        W77215  22.595  28.936  11.501
 4956W        W77216  44.857   6.213  14.915
 4957W        W77217  32.521  26.051  14.463
 4958W        W77218  40.373  23.213   1.249
 4959W        W77219  21.144   2.964   1.715
 4960W        W77220  22.652  35.959  11.554
 4961W        W77221   6.314  14.263   9.958
 4962W        W77222  34.550  37.479  14.432
 4963W        W77223  19.673  39.937   0.755
 4964W        W77224   5.209  19.092  14.935
 4965W        W77225  44.278  13.340  11.401
 4966W        W77226  34.072  27.581  11.956
 4967W        W77227  24.017  32.511   3.684
 4968W        W77228  28.109  33.599  14.336
 4969W        W77229  24.110  22.718   5.173
 4970W        W77230  29.068  40.874  14.841
 4971W        W77231  28.445   1.419   2.305
 4972W        W77232  22.735  17.563  11.877
 4973W        W77233  11.338  41.333  10.440
 4974W        W77234  39.874  29.049  13.482
 4975W        W77235  27.948   3.216  13.478
 4976W        W77236  36.867  20.747   1.276
 4977W        W77237  16.181  15.712  14.825
 4978W        W77238  39.405  17.718   1.241
 4979W        W77239  36.888  39.829  14.988
 4980W        W77240   7.237  24.515  11.963
 4981W        W77241   6.181  24.077  10.537
 4982W        W77242  10.141  20.682  10.482
 4983W        W77243  32.436   1.835   1.900
 4984W        W77244  10.767   8.237   1.892
 4985W        W77245   7.730  21.628  14.496
 4986W        W77246  37.463  26.524   4.795
 4987W        W77247  12.225  20.744   2.701
 4988W        W77248  25.657  24.722  11.567
 4989W        W77249  24.072  36.955   4.603
 4990W        W77250  18.751   9.364  10.955
 4991W        W77251  43.920  23.208  14.939
 4992W        W77252  20.740   8.876   0.480
 4993W        W77253  30.535   5.273   4.119
 4994W        W77254  12.676  44.995  14.442
 4995W        W77255   7.209  31.976   3.333
 4996W        W77256  28.668  19.648  10.987
 4997W        W77257   9.743  32.611   1.732
 4998W        W77258  36.486  26.573  14.512
 4999W        W77259  12.764  31.056  11.595
 5000W        W77260   5.824  37.531   2.367
 5001W        W77261   1.930  37.344   4.617
 5002W        W77262  37.467  21.070   1.332
 5003W        W77263   5.875  30.635  12.570
 5004W        W77264   1.275  14.123  13.427
 5005W        W77265   3.822   9.236  12.363
 5006W        W77266  30.448  15.178  10.427
 5007W        W77267  30.657   1.795   2.813
 5008W        W77268  10.239  44.920   2.203
 5009W        W77269  17.588   6.215   0.356
 5010W        W77270  33.606  36.878   1.307
 5011W        W77271   6.329  38.409  13.423
 5012W        W77272  32.497  30.016  14.913
 5013W        W77273  20.541  30.950   1.411
 5014W        W77274  44.304  26.146  14.455
 5015W        W77275  19.249   8.880   9.661
 5016W        W77276   5.240   3.878   4.148
 5017W        W77277   8.307  12.190  12.389
 5018W        W77278  10.637  38.974  14.339
 5019W        W77279   8.827  37.548   1.740
 5020W        W77280  23.050  35.855  10.501
 5021W        W77281  22.030   0.439  13.857
 5022W        W77282  15.083  35.389  14.888
 5023W        W77283   5.755   6.205   4.648
 5024W        W77284  20.267  21.028  12.446
 5025W        W77285  22.182  11.666   0.440
 5026W        W77286  40.546  24.489   2.367
 5027W        W77287  27.024  15.322   4.143
 5028W        W77288  10.356  39.999  13.496
 5029W        W77289  31.621   4.814   1.889
 5030W        W77290  18.626  20.078   2.290
 5031W        W77291  34.054   0.323  11.102
 5032W        W77292  39.358  28.056   0.425
 5033W        W77293   2.766  12.250   1.723
 5034W        W77294   4.873  11.680   2.413
 5035W        W77295  35.016  20.134   3.168
 5036W        W77296  32.590  35.109  13.397
 5037W        W77297  18.209   9.712  13.869
 5038W        W77298   9.872   9.750  14.819
 5039W        W77299  23.513   9.247   3.257
 5040W        W77300  35.488  29.563   1.922
 5041W        W77301  26.199  11.846  12.063
 5042W        W77302  40.434  14.620   2.297
 5043W        W77303  33.026  21.085  12.034
 5044W        W77304   7.908   7.783   3.186
 5045W        W77305  27.589   9.394  11.937
 5046W        W77306  39.040  14.612   3.320
 5047W        W77307   0.761   3.390   3.216
 5048W        W77308  25.983  38.840  13.000
 5049W        W77309  13.135  37.926   4.261
 5050W        W77310  38.428  14.261   2.748
 5051W        W77311   0.933  36.385   2.396
 5052W        W77312  23.717  28.004   2.267
 5053W        W77313   2.469  34.899  10.410
 5054W        W77314  18.068   6.407   4.169
 5055W        W77315  44.938  32.572   2.696
 5056W        W77316  36.523  22.516  11.054
 5057W        W77317  10.663  15.234  13.022
 5058W        W77318  33.531   3.234   1.820
 5059W        W77319  39.371  39.558  11.964
 5060W        W77320  24.615   2.747   2.863
 5061W        W77321  33.092   9.749   2.785
 5062W        W77322  42.956  24.132   1.890
 5063W        W77323  22.730  43.939  12.937
 5064W        W77324   4.827  17.087   2.730
 5065W        W77325  38.970  39.895   2.709
 5066W        W77326  29.566  26.129   4.627
 5067W        W77327   6.368   7.740   0.245
 5068W        W77328  41.419   4.217   3.181
 5069W        W77329  37.078   4.715  13.928
 5070W        W77330   6.774  25.123  10.143
 5071W        W77331  38.407  36.475   2.853
 5072W        W77332  43.298  31.532  12.883
 5073W        W77333  22.012  11.135  11.061
 5074W        W77334   6.250   4.715   0.942
 5075W        W77335   9.190  22.188  11.552
 5076W        W77336  23.017  38.432   4.306
 5077W        W77337  38.433   4.736   4.787
 5078W        W77338  32.079  41.456  14.777
 5079W        W77339  10.317  44.379   3.279
 5080W        W77340  16.077  10.152  14.365
 5081W        W77341  37.484  12.674   4.688
 5082W        W77342  37.904  35.426  10.946
 5083W        W77343  14.138  15.318   3.843
 5084W        W77344  25.604  19.136  13.867
 5085W        W77345   7.912  20.764  14.789
 5086W        W77346  43.862  23.517   0.417
 5087W        W77347  23.002  28.488   4.211
 5088W        W77348  19.280  15.304  12.516
 5089W        W77349   8.254   7.828   2.867
 5090W        W77350  29.136  12.749  14.849
 5091W        W77351  13.659  19.546   3.386
 5092W        W77352  24.545   2.294  14.029
 5093W        W77353  34.608  44.772   3.374
 5094W        W77354  30.651  40.021   4.716
 5095W        W77355  33.020  22.126  10.554
 5096W        W77356  26.662  15.087   5.214
 5097W        W77357  37.862  30.091  11.491
 5098W        W77358   0.370   1.362   1.807
 5099W        W77359   9.386  25.102   0.467
 5100W        W77360   3.950  12.770   1.705
 5101W        W77361  19.621   6.198   2.268
 5102W        W77362  30.975  13.250   0.873
 5103W        W77363   5.235  34.992  11.948
 5104W        W77364   8.281  36.353   2.272
 5105W        W77365  29.072  39.437  14.426
 5106W        W77366  25.980  43.340   0.924
 5107W        W77367  38.019   6.236   0.928
 5108W        W77368  40.987   3.316  11.954
 5109W        W77369  14.703  26.166   1.252
 5110W        W77370  11.302  34.889   3.203
 5111W        W77371   1.271  32.453   3.361
 5112W        W77372  10.154  38.407   1.933
 5113W        W77373  29.629  12.743   0.400
 5114W        W77374  12.680  23.103  12.892
 5115W        W77375  19.058  41.477   1.762
 5116W        W77376  20.221  20.036  12.474
 5117W        W77377   8.810  32.092  13.836
 5118W        W77378   8.749   2.366  11.111
 5119W        W77379  42.375   0.249   0.483
 5120W        W77380  38.994  25.643   4.189
 5121W        W77381   2.307  31.533   4.631
 5122W        W77382  30.072  15.304  13.429
 5123W        W77383  36.460  36.987   4.313
 5124W        W77384  34.943  40.942   0.474
 5125W        W77385  33.006  21.564  14.028
 5126W        W77386  29.008  22.182  11.545
 5127W        W77387  17.214  29.435   5.165
 5128W        W77388  30.987  18.619  12.395
 5129W        W77389  18.658  27.018  13.526
 5130W        W77390   2.909  15.611   3.154
 5131W        W77391  28.038  18.708   3.682
 5132W        W77392  13.176   7.808  11.999
 5133W        W77393  30.964   8.316   4.796
 5134W        W77394  27.988   6.395   3.710
 5135W        W77395   9.377  30.123   2.799
 5136W        W77396  38.049  12.235   2.348
 5137W        W77397  11.817  27.060   3.653
 5138W        W77398  29.936  18.774  14.336
 5139W        W77399  34.583   8.824   1.428
 5140W        W77400  41.448  13.735  11.522
 5141W        W77401  28.024   0.947   2.894
 5142W        W77402  14.142  22.039  11.967
 5143W        W77403   4.283  20.551  10.454
 5144W        W77404  14.236  14.727   0.832
 5145W        W77405  16.697  17.293   5.229
 5146W        W77406  13.124  28.022  11.875
 5147W        W77407  17.246  27.569   1.349
 5148W        W77408  29.038  35.416  13.362
 5149W        W77409  30.012  15.767  14.419
 5150W        W77410   9.171  27.022  13.900
 5151W        W77411  33.409   7.222  14.957
 5152W        W77412  38.982  19.099  10.409
 5153W        W77413   3.250  42.985  12.063
 5154W        W77414  32.430  24.488   0.424
 5155W        W77415  25.003  36.485   2.241
 5156W        W77416  19.234   8.883   3.286
 5157W        W77417  24.218   5.788   1.248
 5158W        W77418  40.973  32.440  12.457
 5159W        W77419   4.312  14.097  13.925
 5160W        W77420  14.129  43.855  11.019
 5161W        W77421   9.876   8.405   0.371
 5162W        W77422  40.896  30.060   0.780
 5163W        W77423  25.506   6.371  10.486
 5164W        W77424  19.284  42.787   3.706
 5165W        W77425  20.231  18.671  10.592
 5166W        W77426  35.550   6.823   0.727
 5167W        W77427  16.610  17.730   4.258
 5168W        W77428  23.722   7.898   4.122
 5169W        W77429  26.192  37.380   0.736
 5170W        W77430   0.767  11.788   1.897
 5171W        W77431   5.373   0.454   1.326
 5172W        W77432  11.210   4.269   0.451
 5173W        W77433  40.512   3.936  12.023
 5174W        W77434  40.985  33.435   1.858
 5175W        W77435  36.080  21.692   4.685
 5176W        W77436  35.393  37.002   3.862
 5177W        W77437   6.200  33.877   0.304
 5178W        W77438   3.298  16.116  13.385
 5179W        W77439  44.413  29.938  11.970
 5180W        W77440   3.316  35.415  10.462
 5181W        W77441  10.277  23.498  14.433
 5182W        W77442  14.168  38.911  10.599
 5183W        W77443  27.597  43.453   3.824
 5184W        W77444  43.896  34.109  13.811
 5185W        W77445  34.390   7.771  12.994
 5186W        W77446  24.096  10.675  14.785
 5187W        W77447  29.490   0.484  13.412
 5188W        W77448  11.625  42.410   2.268
 5189W        W77449  26.025  12.349  11.024
 5190W        W77450  27.515  36.502   2.734
 5191W        W77451  19.277   2.442   2.351
 5192W        W77452  32.409  17.679  13.058
 5193W        W77453  27.944   7.894  10.996
 5194W        W77454  37.401  37.422  14.997
 5195W        W77455  39.893  12.782   1.755
 5196W        W77456   9.710   9.250   3.798
 5197W        W77457  27.180   2.295  14.901
 5198W        W77458  34.431  33.936  13.871
 5199W        W77459  37.049   7.229   2.714
 5200W        W77460   8.383   7.399  11.484
 5201W        W77461  11.227  27.968   3.362
 5202W        W77462  27.084  30.648   2.287
 5203W        W77463  18.281  36.539   2.213
 5204W        W77464  39.521  14.139   0.940
 5205W        W77465  26.995  39.044  10.405
 5206W        W77466  37.999  21.611   3.258
 5207W        W77467  21.536   8.818   1.886
 5208W        W77468  26.650   1.909  14.980
 5209W        W77469   5.934   5.308  11.945
 5210W        W77470  24.662   1.389  13.053
 5211W        W77471  19.132   4.304  14.859
 5212W        W77472  12.287  18.232  13.433
 5213W        W77473  27.162  30.948   2.316
 5214W        W77474  33.101   1.453  13.866
 5215W        W77475  26.630  23.238  11.083
 5216W        W77476  35.894  40.489  11.040
 5217W        W77477  37.461  22.051   4.127
 5218W        W77478  31.915  23.559   4.128
 5219W        W77479  27.555  32.138  12.016
 5220W        W77480  36.406  36.077  13.920
 5221W        W77481  32.940  30.110   4.749
 5222W        W77482   7.198   7.668   3.645
 5223W        W77483  29.962  21.048   3.174
 5224W        W77484   4.358  28.025  14.998
 5225W        W77485  14.266  40.377  13.945
 5226W        W77486   1.448  22.502   4.773
 5227W        W77487  15.596  35.458   4.619
 5228W        W77488  29.585  18.277   0.913
 5229W        W77489  33.952  32.135  11.447
 5230W        W77490  34.428  28.534  11.400
 5231W        W77491  21.518  11.237   1.336
 5232W        W77492  16.203  15.810  13.474
 5233W        W77493  14.592  20.169  13.963
 5234W        W77494  41.383  41.412  10.946
 5235W        W77495  36.859  16.199  14.924
 5236W        W77496  36.992  15.301   1.378
 5237W        W77497  38.056   7.410   2.695
 5238W        W77498  30.475   2.813  12.483
 5239W        W77499   1.257  27.595  14.005
 5240W        W77500   4.424  30.024  14.477
 5241W        W77501  30.455  34.928  11.061
 5242W        W77502  23.532  43.806   4.311
 5243W        W77503  20.038   4.860   3.204
 5244W        W77504  29.095  21.652   3.151
 5245W        W77505  26.664  43.421   1.764
 5246W        W77506  20.086  38.369   0.380
 5247W        W77507  14.103  21.077  12.949
 5248W        W77508  43.997  23.653  13.417
 5249W        W77509  10.234  44.851  12.385
 5250W        W77510   6.419  12.354   0.258
 5251W        W77511  21.553  19.775  10.139
 5252W        W77512   9.248  38.421   1.437
 5253W        W77513  10.275  14.595  13.389
 5254W        W77514   8.870  44.992   3.293
 5255W        W77515  25.675  28.979  11.894
 5256W        W77516   2.728  38.930  13.839
 5257W        W77517  37.984  30.425   0.310
 5258W        W77518  22.999  19.136   5.126
 5259W        W77519  18.603  36.347   4.304
 5260W        W77520  42.843   8.797   2.214
 5261W        W77521  44.010   6.419  11.998
 5262W        W77522  43.372  25.636   2.763
 5263W        W77523  37.461  35.434  11.097
 5264W        W77524  33.989  19.606  13.009
 5265W        W77525  12.262  40.439  14.469
 5266W        W77526   2.448  28.157   0.774
 5267W        W77527  28.051   3.858   2.859
 5268W        W77528  28.998   8.249  10.960
 5269W        W77529  41.356  10.383   2.807
 5270W        W77530  25.515  27.473   3.738
 5271W        W77531  26.470  29.669   2.268
 5272W        W77532  31.004  16.225   0.939
 5273W        W77533  16.702  29.528   4.145
 5274W        W77534   7.790  30.091  13.336
 5275W        W77535   9.671  31.113   4.779
 5276W        W77536  43.295  28.449  13.944
 5277W        W77537  22.998   8.315  11.585
 5278W        W77538  25.185  44.363   1.355
 5279W        W77539   6.243  35.039  10.937
 5280W        W77540   2.398  24.164   2.220
 5281W        W77541  22.216   4.289  11.860
 5282W        W77542  32.944  33.967   4.753
 5283W        W77543  25.075  24.094  14.874
 5284W        W77544  21.628   4.350  12.851
 5285W        W77545  11.307   4.706  12.570
 5286W        W77546  29.487  31.518   3.228
 5287W        W77547   3.322  42.505  13.994
 5288W        W77548  14.211  41.953  10.583
 5289W        W77549  19.180  41.503   0.300
 5290W        W77550  11.686  23.186  11.866
 5291W        W77551  26.179  16.642  12.999
 5292W        W77552  32.581  16.652   4.600
 5293W        W77553  15.805  18.710   2.703
 5294W        W77554  18.171  25.972   3.646
 5295W        W77555   8.378  32.411  12.865
 5296W        W77556  42.820  31.595   3.276
 5297W        W77557   1.387  38.928  11.540
 5298W        W77558   6.739   1.835  11.486
 5299W        W77559  24.146   0.843  11.424
 5300W        W77560   0.967  35.556   3.763
 5301W        W77561  36.901  15.767  12.053
 5302W        W77562  19.129   0.456  13.514
 5303W        W77563  22.582  10.844   4.351
 5304W        W77564   9.738  11.783   0.414
 5305W        W77565  34.042  23.608   4.214
 5306W        W77566  11.325   4.275   0.938
 5307W        W77567  18.712  28.097  14.495
 5308W        W77568  29.934   9.211  10.442
 5309W        W77569  34.406   5.771  13.976
 5310W        W77570  39.005  16.813  14.372
 5311W        W77571  14.743  36.425  11.532
 5312W        W77572  24.689  11.304   3.674
 5313W        W77573  38.432   6.709  10.120
 5314W        W77574  26.471  37.871  14.806
 5315W        W77575   4.210  24.594   1.898
 5316W        W77576  29.526  28.585   3.764
 5317W        W77577  32.509  15.633  11.038
 5318W        W77578  23.986  26.590  12.932
 5319W        W77579  26.056  34.518  14.475
 5320W        W77580  40.368  42.440   3.720
 5321W        W77581  31.587  44.830  11.085
 5322W        W77582  44.279   5.785  11.997
 5323W        W77583  18.286   6.285   0.254
 5324W        W77584  36.504  38.443   4.701
 5325W        W77585  20.223  12.756  11.497
 5326W        W77586  34.951  29.530   2.825
 5327W        W77587  37.449  15.684   2.368
 5328W        W77588  14.624   8.798  11.099
 5329W        W77589  29.018  42.825  11.856
 5330W        W77590  30.611  41.359   0.392
 5331W        W77591  21.258  25.561   3.829
 5332W        W77592  16.300   1.331  14.405
 5333W        W77593   2.347  22.593   3.278
 5334W        W77594  43.982  15.178   4.241
 5335W        W77595   6.708  23.156   1.348
 5336W        W77596  16.292  23.556  12.985
 5337W        W77597  26.667  36.452   4.160
 5338W        W77598  32.940  38.851   0.248
 5339W        W77599  11.330  11.161  14.389
 5340W        W77600   1.777  29.020   1.221
 5341W        W77601  42.832  11.158  10.894
 5342W        W77602  12.724   0.392  12.011
 5343W        W77603  39.556  33.395  14.943
 5344W        W77604   4.388  18.716   2.692
 5345W        W77605   3.904   6.864   2.777
 5346W        W77606  25.665  13.251   1.753
 5347W        W77607  39.335  27.642   4.751
 5348W        W77608  34.474  32.551  14.956
 5349W        W77609  31.908  28.136   2.754
 5350W        W77610  28.050  25.629   1.411
 5351W        W77611   3.366  26.141   0.276
 5352W        W77612  37.567   2.908   3.289
 5353W        W77613  31.056  33.953   3.756
 5354W        W77614  20.534  27.495   9.651
 5355W        W77615  11.138  12.295   4.714
 5356W        W77616  36.439   2.392  14.924
 5357W        W77617  42.970  17.259  10.581
 5358W        W77618   8.839  32.402   2.312
 5359W        W77619  38.380  15.103  14.456
 5360W        W77620   2.871  28.090   3.380
 5361W        W77621  33.101  43.971   4.835
 5362W        W77622  20.681  27.004   4.149
 5363W        W77623  15.121  21.639  11.930
 5364W        W77624  15.092  23.598   0.290
 5365W        W77625  12.830  12.732  14.019
 5366W        W77626  18.226   0.327  14.934
 5367W        W77627  30.562  35.107  11.407
 5368W        W77628  12.771  23.162   0.776
 5369W        W77629   2.730  28.677   0.744
 5370W        W77630  28.040   1.787   4.119
 5371W        W77631  32.578  11.340  13.353
 5372W        W77632   2.434   3.897  14.863
 5373W        W77633   4.899   2.417   1.816
 5374W        W77634  30.430  25.159   3.371
 5375W        W77635  16.216  38.972   2.351
 5376W        W77636  18.756  28.963  12.067
 5377W        W77637  25.695  44.824   4.806
 5378W        W77638  13.656  20.559  11.086
 5379W        W77639  36.431  25.471  13.865
 5380W        W77640   5.312   8.406   1.704
 5381W        W77641  22.665  39.939  14.953
 5382W        W77642   4.318   6.809   3.237
 5383W        W77643  10.325  39.935   1.738
 5384W        W77644  31.518  24.107  14.435
 5385W        W77645  41.817  10.258  14.459
 5386W        W77646  31.502  18.251   2.342
 5387W        W77647  30.432   5.907  11.870
 5388W        W77648  24.487  36.417  13.011
 5389W        W77649  24.620  40.527   0.737
 5390W        W77650  29.619   8.775  14.788
 5391W        W77651  35.979  24.627  12.343
 5392W        W77652  35.922  27.134   4.291
 5393W        W77653  22.187  19.248  14.868
 5394W        W77654   9.846  25.144   4.337
 5395W        W77655  32.887  30.090   3.153
 5396W        W77656  15.217   0.296  12.572
 5397W        W77657  19.560  41.817   0.951
 5398W        W77658   1.392  38.545  11.472
 5399W        W77659  35.038  18.195  14.304
 5400W        W77660  36.034  43.396  11.574
 5401W        W77661  38.522  37.020  13.424
 5402W        W77662  23.151   9.644   4.263
 5403W        W77663  29.975   8.742   0.438
 5404W        W77664  16.166  29.040   3.261
 5405W        W77665   6.213   3.256   3.866
 5406W        W77666  14.184  28.101   0.829
 5407W        W77667  44.980  29.670  14.320
 5408W        W77668   4.890  14.144   2.238
 5409W        W77669  42.786  19.538   3.378
 5410W        W77670  39.046  17.189   3.152
 5411W        W77671  22.692  44.423  10.461
 5412W        W77672  17.639   7.252  11.531
 5413W        W77673  18.165  35.983   4.232
 5414W        W77674  13.187   5.408  11.585
 5415W        W77675  43.996  26.966  13.540
 5416W        W77676  42.331  26.634   0.359
 5417W        W77677   8.686  11.305  11.099
 5418W        W77678   9.344  42.494   4.598
 5419W        W77679  44.855   6.257   2.669
 5420W        W77680  23.158   9.183   1.853
 5421W        W77681  43.417  36.055  13.050
 5422W        W77682   3.916  27.036   3.779
 5423W        W77683   4.346  42.018   4.809
 5424W        W77684  34.990   3.914  11.979
 5425W        W77685  41.861  16.751   3.671
 5426W        W77686   0.288   3.944  13.005
 5427W        W77687  25.676  33.921  14.903
 5428W        W77688   7.680  28.635   5.158
 5429W        W77689  14.263  13.840   4.343
 5430W        W77690  13.716  19.611  10.479
 5431W        W77691  38.360   9.881   4.624
 5432W        W77692  29.604  11.781   2.719
 5433W        W77693   3.320   2.446  11.611
 5434W        W77694  12.213  14.751   4.345
 5435W        W77695  42.904   0.799   1.371
 5436W        W77696  37.918  14.816   3.870
 5437W        W77697  43.950   5.843  13.811
 5438W        W77698  29.633  15.168   3.809
 5439W        W77699  15.213   4.371   3.322
 5440W        W77700  25.057  15.785  10.514
 5441W        W77701  26.512   6.777   1.283
 5442W        W77702   4.770  14.729   3.353
 5443W        W77703  30.051  35.585  14.492
 5444W        W77704  31.471   3.397  12.421
 5445W        W77705  43.785  10.645   1.847
 5446W        W77706   3.803  25.548   3.163
 5447W        W77707  10.222  22.136   4.713
 5448W        W77708   1.886   6.728   3.712
 5449W        W77709  25.528  13.141  11.599
 5450W        W77710  21.063  34.475   3.679
 5451W        W77711  17.140  20.134   4.142
 5452W        W77712   2.350  44.754   2.355
 5453W        W77713   3.795  37.864  11.392
 5454W        W77714  12.254   1.291   1.407
 5455W        W77715  28.942  26.969  11.438
 5456W        W77716  14.834   7.880  11.603
 5457W        W77717  11.795  16.217   4.127
 5458W        W77718  29.634  17.730   4.201
 5459W        W77719  26.172  42.298   1.309
 5460W        W77720  11.830   0.267  10.588
 5461W        W77721  38.900  35.359   0.950
 5462W        W77722  12.128   8.385  11.054
 5463W        W77723   5.791  26.960   2.319
 5464W        W77724  17.599  35.458   1.248
 5465W        W77725   8.199  16.785  12.380
 5466W        W77726  27.960  32.512  12.384
 5467W        W77727  29.670   8.338  11.996
 5468W        W77728  44.484  21.195  14.283
 5469W        W77729  11.675  38.891  14.472
 5470W        W77730   2.903   2.354  11.875
 5471W        W77731  28.543  44.259   3.639
 5472W        W77732  11.780   6.779  10.992
 5473W        W77733   8.760  36.016  11.063
 5474W        W77734  13.315  23.122   4.684
 5475W        W77735  36.545  34.576  10.564
 5476W        W77736  14.287   7.703   0.835
 5477W        W77737  23.688   4.316   2.762
 5478W        W77738  21.716  11.819  13.939
 5479W        W77739  29.621  33.407  10.548
 5480W        W77740  30.516  16.171  11.538
 5481W        W77741  17.139  38.012   0.470
 5482W        W77742   1.351   1.747   4.161
 5483W        W77743  41.481  12.687   2.809
 5484W        W77744  33.488  34.615   0.873
 5485W        W77745  44.993  11.634   2.864
 5486W        W77746  23.037   7.239  11.507
 5487W        W77747  19.559  30.011   1.761
 5488W        W77748  11.366  21.614   1.722
 5489W        W77749  21.595  36.971  14.922
 5490W        W77750   5.312  21.561  13.995
 5491W        W77751  16.613  10.344   1.330
 5492W        W77752   7.378   7.828  11.061
 5493W        W77753  17.642  16.570  11.606
 5494W        W77754  10.677  14.132   1.722
 5495W        W77755   2.447  23.545   3.337
 5496W        W77756  33.563  22.193   0.729
 5497W        W77757  34.866  35.575  10.576
 5498W        W77758   1.780  19.249   3.285
 5499W        W77759  34.901  30.544  10.988
 5500W        W77760  44.761   6.767   3.203
 5501W        W77761  27.039  38.837   1.834
 5502W        W77762   2.387  33.057  11.877
 5503W        W77763  24.664   8.262   4.683
 5504W        W77764  32.405  40.480  14.977
 5505W        W77765  43.888  10.308  11.444
 5506W        W77766  23.223  23.714   1.430
 5507W        W77767  36.872  18.186   4.191
 5508W        W77768   7.711  26.472   1.885
 5509W        W77769   1.383  16.122  12.414
 5510W        W77770  23.143  25.637  13.307
 5511W        W77771  11.276  39.955   3.291
 5512W        W77772  29.641  10.245   1.932
 5513W        W77773  24.605   4.798  11.954
 5514W        W77774  17.304  39.315   3.336
 5515W        W77775  39.464   6.824   1.806
 5516W        W77776   3.229  32.597  12.426
 5517W        W77777  42.339  34.474  11.410
 5518W        W77778   0.349  26.632   2.318
 5519W        W77779   8.848   6.367   4.613
 5520W        W77780  19.765  29.505   4.708
 5521W        W77781  38.991  22.163   1.812
 5522W        W77782  26.997  11.178   2.838
 5523W        W77783   8.337  32.012  11.607
 5524W        W77784  19.257   1.274   4.725
 5525W        W77785  33.000  13.664  14.463
 5526W        W77786  34.888  28.457   3.824
 5527W        W77787  43.783   3.304  11.503
 5528W        W77788  31.061  19.253   2.662
 5529W        W77789  10.349  10.326   1.699
 5530W        W77790  33.898  18.771   0.317
 5531W        W77791  23.238  15.668  12.020
 5532W        W77792  28.618  25.537  14.842
 5533W        W77793   6.383  23.694   3.716
 5534W        W77794  33.427  43.499  14.381
 5535W        W77795  26.653  11.685  12.546
 5536W        W77796  29.561   6.205  10.547
 5537W        W77797  41.843  28.016   5.091
 5538W        W77798  20.544  28.487   1.330
 5539W        W77799  28.931   5.258  12.066
 5540W        W77800  44.453  29.458  13.490
 5541W        W77801   7.326  31.938  11.488
 5542W        W77802  19.597   3.890  10.588
 5543W        W77803  38.502   7.247   3.838
 5544W        W77804  39.920  34.472   1.766
 5545W        W77805   1.357  28.984   4.169
 5546W        W77806  32.897  13.315   4.339
 5547W        W77807   3.233  10.642  14.946
 5548W        W77808   9.233   1.259   0.920
 5549W        W77809  36.008  13.845   0.442
 5550W        W77810  18.597  16.159  13.889
 5551W        W77811  17.669   6.336   3.707
 5552W        W77812  23.659  28.504   5.785
 5553W        W77813  35.473  38.825  11.542
 5554W        W77814   9.889  38.478   3.195
 5555W        W77815  16.131  30.563  13.474
 5556W        W77816  10.691  37.035  10.617
 5557W        W77817   5.394   9.671   0.806
 5558W        W77818  36.541   6.384   4.334
 5559W        W77819  10.867  20.215  13.920
 5560W        W77820  28.635  14.252   2.365
 5561W        W77821  18.678   3.923   0.893
 5562W        W77822  40.336   4.363   3.733
 5563W        W77823  41.026  36.413  10.413
 5564W        W77824  24.211  12.345  14.016
 5565W        W77825   1.259   4.237  14.456
 5566W        W77826  38.420   5.342  12.961
 5567W        W77827  34.066  16.252  14.815
 5568W        W77828  38.021   5.748   0.892
 5569W        W77829   1.398  13.172   1.850
 5570W        W77830  32.394  39.973  13.009
 5571W        W77831   6.782  41.918   2.271
 5572W        W77832  14.320   0.489   3.264
 5573W        W77833   3.903  15.781  12.025
 5574W        W77834  28.030   2.802   1.926
 5575W        W77835  34.895   6.237  14.413
 5576W        W77836  34.967  25.712   4.765
 5577W        W77837   8.747   7.356  10.930
 5578W        W77838  38.042  33.949  13.973
 5579W        W77839  41.827   3.731   1.309
 5580W        W77840   5.210  23.135   0.850
 5581W        W77841   7.311   8.343  12.358
 5582W        W77842  40.471   6.390  11.477
 5583W        W77843   2.764  16.314  10.423
 5584W        W77844  19.647  19.656   1.297
 5585W        W77845  34.570  43.820  13.911
 5586W        W77846  12.302  28.660  10.963
 5587W        W77847  31.142  16.197  12.406
 5588W        W77848   6.726   3.733   2.202
 5589W        W77849  37.364  19.250  10.927
 5590W        W77850  10.373  13.616   4.726
 5591W        W77851  36.013  16.269   3.271
 5592W        W77852  39.914   1.472   1.395
 5593W        W77853  30.956   8.200  12.340
 5594W        W77854  43.930  44.444  11.543
 5595W        W77855  27.525  25.545   4.804
 5596W        W77856  22.107  36.036  12.067
 5597W        W77857  29.527   7.200   1.771
 5598W        W77858   9.181  15.802   3.776
 5599W        W77859  37.411   7.690   4.798
 5600W        W77860  43.986   8.840  13.911
 5601W        W77861  30.944  28.522  14.912
 5602W        W77862  16.309   8.745  11.536
 5603W        W77863  18.087  23.062   4.133
 5604W        W77864  20.594  24.110   1.326
 5605W        W77865  33.504   2.298   3.268
 5606W        W77866   1.794  33.992  12.934
 5607W        W77867  44.971  13.797   1.387
 5608W        W77868  38.502  15.579  12.503
 5609W        W77869   2.372  23.219   0.863
 5610W        W77870   1.418  12.625  12.849
 5611W        W77871   2.242  25.982   2.335
 5612W        W77872  36.861  31.118   2.731
 5613W        W77873   9.791   2.836   2.795
 5614W        W77874   2.226  43.884   3.213
 5615W        W77875  10.154  11.326   1.448
 5616W        W77876  32.924  17.678   3.314
 5617W        W77877   9.236   6.680   4.235
 5618W        W77878  37.862   6.875  12.460
 5619W        W77879  12.828  32.410   4.603
 5620W        W77880  21.248  25.216   2.878
 5621W        W77881   9.366  18.713   1.295
 5622W        W77882  13.800   7.723   0.388
 5623W        W77883  24.173  11.735  10.045
 5624W        W77884  12.343  14.135  11.505
 5625W        W77885  28.174   5.867  10.123
 5626W        W77886  40.436  28.105  13.545
 5627W        W77887  26.071  43.804   4.769
 5628W        W77888  37.843  21.063  11.094
 5629W        W77889  38.536  21.227  13.003
 5630W        W77890  34.010  30.933   2.333
 5631W        W77891  28.112  30.034  14.309
 5632W        W77892  29.163  40.442  11.999
 5633W        W77893  40.826  34.565   3.202
 5634W        W77894  28.528  31.911  10.500
 5635W        W77895  36.951  12.619   4.742
 5636W        W77896  41.830  26.467   1.755
 5637W        W77897  42.850   5.893  13.424
 5638W        W77898  14.776  19.581  14.372
 5639W        W77899  42.464  28.619  14.993
 5640W        W77900  41.889  34.111  14.991
 5641W        W77901  18.178  44.295  13.407
 5642W        W77902  11.141  44.983   4.287
 5643W        W77903   7.380  44.450  13.441
 5644W        W77904  37.003  40.922   0.879
 5645W        W77905   3.389  29.027   1.217
 5646W        W77906  19.548  26.136   2.839
 5647W        W77907  21.099  22.214  13.489
 5648W        W77908  16.762  15.739   5.204
 5649W        W77909  13.266  23.056  12.520
 5650W        W77910  32.515  40.326  13.366
 5651W        W77911   6.365  43.848   4.718
 5652W        W77912   9.354  24.530   2.831
 5653W        W77913  23.508   9.324   4.211
 5654W        W77914  38.497  37.480   5.082
 5655W        W77915  44.416  40.952  14.898
 5656W        W77916  26.510   4.891  12.956
 5657W        W77917  13.655  20.044  10.516
 5658W        W77918  13.609  37.389  13.052
 5659W        W77919  24.548   0.478   1.915
 5660W        W77920  15.614  14.269  14.988
 5661W        W77921  31.147  12.320  10.493
 5662W        W77922  28.508  29.586   2.709
 5663W        W77923  23.675  29.437   4.348
 5664W        W77924   5.224  21.154   2.801
 5665W        W77925  40.811  40.390   1.366
 5666W        W77926  33.114  36.991  12.454
 5667W        W77927  26.140  44.429   3.745
 5668W        W77928   8.843  31.140   5.285
 5669W        W77929  25.485  43.876   1.391
 5670W        W77930  21.127  34.469  11.445
 5671W        W77931  39.997  39.544  12.382
 5672W        W77932   5.416  29.513   3.793
 5673W        W77933   1.866  25.704   1.719
 5674W        W77934  28.129   4.342   4.824
 5675W        W77935  20.168   7.700   0.957
 5676W        W77936  37.059  34.414   3.212
 5677W        W77937  14.259  35.043   0.872
 5678W        W77938  10.801  18.082   2.416
 5679W        W77939   6.887  19.048   1.729
 5680W        W77940  36.449  23.023   3.763
 5681W        W77941  28.153   5.297  14.490
 5682W        W77942  37.577  37.540   0.735
 5683W        W77943   3.292  37.019  10.442
 5684W        W77944  24.137  19.564  13.472
 5685W        W77945  27.010  10.139   3.745
 5686W        W77946  26.054  39.862  13.061
 5687W        W77947  40.357   4.275  14.899
 5688W        W77948  16.729  15.714   1.718
 5689W        W77949   4.315  23.578  10.523
 5690W        W77950  21.738  17.182   3.248
 5691W        W77951   5.848  18.748  14.894
 5692W        W77952  16.678  33.097  10.973
 5693W        W77953  25.549   2.251   0.865
 5694W        W77954   3.747  42.991   4.295
 5695W        W77955  44.354  34.976   3.833
 5696W        W77956  32.940   0.782  12.342
 5697W        W77957  18.189   1.297   3.686
 5698W        W77958  34.864   0.748   1.816
 5699W        W77959  33.519  12.841   1.361
 5700W        W77960  41.373  14.782   4.754
 5701W        W77961  20.030  24.063  10.891
 5702W        W77962  25.198  24.227   0.424
 5703W        W77963  44.960   2.316  10.897
 5704W        W77964  41.492   7.172   4.754
 5705W        W77965  23.589  35.368  14.802
 5706W        W77966   4.221  10.154   0.266
 5707W        W77967  30.955   6.852  12.539
 5708W        W77968  43.795  39.465   1.934
 5709W        W77969   7.357  23.239   4.635
 5710W        W77970   6.406   9.183   3.862
 5711W        W77971  27.610  11.331   4.145
 5712W        W77972  41.014  35.591   0.393
 5713W        W77973   4.340  20.613   4.186
 5714W        W77974  23.681  38.949   0.419
 5715W        W77975   1.420  34.594   2.281
 5716W        W77976  42.892  43.008   2.837
 5717W        W77977  15.191  19.192  14.031
 5718W        W77978   5.795   4.913   4.279
 5719W        W77979  37.391  20.524  10.645
 5720W        W77980  24.003   7.319   4.267
 5721W        W77981  26.011  39.528   2.860
 5722W        W77982  42.022  24.599   2.387
 5723W        W77983  29.474  19.738  10.597
 5724W        W77984   7.753  23.540   3.318
 5725W        W77985  14.662   9.213  10.896
 5726W        W77986  12.678  22.178  12.569
 5727W        W77987  29.951   1.924  13.368
 5728W        W77988   4.766  31.604   0.828
 5729W        W77989   4.234  37.075  10.465
 5730W        W77990  30.586  29.502   4.201
 5731W        W77991  14.766  23.641  11.934
 5732W        W77992  28.143  22.578   1.913
 5733W        W77993  11.861  15.266   0.471
 5734W        W77994  11.184   5.758  11.915
 5735W        W77995   4.731  33.503   4.771
 5736W        W77996  37.415  13.121  13.965
 5737W        W77997   4.848  14.326  12.362
 5738W        W77998  42.791  29.963   0.397
 5739W        W77999  20.568   9.251  13.026
 5740W        W78000  23.109  13.254   4.306
 5741W        W78001   5.914   3.932  11.401
 5742W        W78002   5.394  43.020   3.696
 5743W        W78003  16.752  14.121  11.894
 5744W        W78004  29.501  38.921  11.592
 5745W        W78005  42.957   7.730   3.181
 5746W        W78006  27.029  23.626   3.643
 5747W        W78007  30.646  12.270  11.880
 5748W        W78008  30.645  28.992   0.432
 5749W        W78009   2.828  35.985   1.916
 5750W        W78010  26.961  33.079   3.285
 5751W        W78011  24.495  15.629   3.385
 5752W        W78012  42.926  41.035   0.244
 5753W        W78013  14.754  29.080  10.600
 5754W        W78014  14.707  13.127  14.314
 5755W        W78015  26.642  30.515  10.943
 5756W        W78016  10.179  34.501   4.603
 5757W        W78017  29.046  39.037  13.347
 5758W        W78018  33.593  10.787  12.840
 5759W        W78019   7.816  41.834   2.239
 5760W        W78020   0.841  38.333   0.319
 5761W        W78021  10.294  29.163   3.802
 5762W        W78022  28.070  27.562  14.464
 5763W        W78023   9.312  17.768   2.785
 5764W        W78024  35.456   4.273   2.260
 5765W        W78025  14.110   5.755  10.461
 5766W        W78026  32.576  33.551   0.340
 5767W        W78027  43.423   5.846  12.080
 5768W        W78028  36.497   4.208   1.304
 5769W        W78029   8.834   2.284  12.944
 5770W        W78030   4.348  27.496  11.923
 5771W        W78031  12.190  10.199  13.050
 5772W        W78032  33.541  19.285   5.749
 5773W        W78033  18.219  43.964  10.947
 5774W        W78034  22.099  16.128   1.782
 5775W        W78035  18.290  35.857  13.446
 5776W        W78036  17.688   0.422   0.840
 5777W        W78037  22.656  10.859   3.159
 5778W        W78038  33.126  29.644  11.578
 5779W        W78039  34.894  40.851  10.903
 5780W        W78040  11.363  20.528  11.526
 5781W        W78041   3.820  25.080  14.862
 5782W        W78042  29.605  24.705  10.523
 5783W        W78043  34.924  13.119   0.356
 5784W        W78044   3.709  16.132  10.459
 5785W        W78045  19.541  29.975  12.568
 5786W        W78046  12.322  15.257   1.913
 5787W        W78047  25.649  34.541   3.640
 5788W        W78048  13.828  27.591   0.944
 5789W        W78049  12.124   0.780  10.899
 5790W        W78050  13.806  27.033  13.029
 5791W        W78051  11.721  25.472  13.802
 5792W        W78052  25.172  10.290  12.392
 5793W        W78053  44.963  40.924  13.367
 5794W        W78054  36.886  23.210   1.245
 5795W        W78055  14.825  43.883  12.040
 5796W        W78056  28.114  40.018  13.421
 5797W        W78057  36.975  14.612  10.593
 5798W        W78058   6.797  27.570   2.683
 5799W        W78059   0.317  10.664   0.247
 5800W        W78060  36.038  28.941  12.348
 5801W        W78061   3.365  42.838   2.831
 5802W        W78062   9.674  35.037  14.486
 5803W        W78063   8.353  43.879  11.431
 5804W        W78064  33.477  42.472  12.466
 5805W        W78065  16.154   1.871  14.013
 5806W        W78066  31.965  43.018  13.443
 5807W        W78067  34.380   3.316   4.658
 5808W        W78068  40.995  40.372   1.852
 5809W        W78069  19.545  20.111  11.100
 5810W        W78070  40.928   7.294   3.781
 5811W        W78071  16.629  37.442   4.218
 5812W        W78072  20.582  19.652   0.481
 5813W        W78073  20.191   1.972  14.917
 5814W        W78074  36.970   9.868  10.493
 5815W        W78075  31.025  37.893  11.575
 5816W        W78076  31.558  29.014   3.753
 5817W        W78077  15.139  36.529  12.538
 5818W        W78078   7.678  32.441   1.752
 5819W        W78079  31.504  42.380   4.236
 5820W        W78080  36.932   1.951   4.824
 5821W        W78081  37.493   4.335  14.325
 5822W        W78082  11.811  13.703   3.157
 5823W        W78083  36.451  16.138   2.311
 5824W        W78084  34.015  25.498  12.905
 5825W        W78085  39.393  22.031  12.993
 5826W        W78086  14.724   8.799  12.569
 5827W        W78087  39.323  37.015  11.003
 5828W        W78088  17.264   9.854   2.317
 5829W        W78089  35.542  24.663   2.666
 5830W        W78090  37.967  41.388  13.925
 5831W        W78091  37.082  33.981  12.081
 5832W        W78092  10.788   5.304  12.068
 5833W        W78093  44.837  32.986   1.847
 5834W        W78094  14.692  34.084  14.367
 5835W        W78095  13.315  28.439   0.406
 5836W        W78096  43.817  20.033   4.791
 5837W        W78097  19.688  11.803  13.541
 5838W        W78098  29.435  33.890  13.799
 5839W        W78099  34.896   3.439   1.919
 5840W        W78100   5.315  37.412  14.803
 5841W        W78101  17.068   1.884  10.043
 5842W        W78102  32.528  26.605  10.925
 5843W        W78103  41.957  21.089   2.351
 5844W        W78104  43.983  24.061  12.909
 5845W        W78105  13.206  24.198  12.848
 5846W        W78106  27.058  12.741  14.964
 5847W        W78107  18.070  31.028   4.259
 5848W        W78108  27.648  23.630  12.342
 5849W        W78109  28.625  13.264   4.640
 5850W        W78110  22.747  24.546   3.209
 5851W        W78111  12.843   5.351   4.132
 5852W        W78112  35.593  37.070   0.380
 5853W        W78113  11.686  13.820   0.863
 5854W        W78114  38.421  41.358  10.892
 5855W        W78115   4.226  22.190   0.775
 5856W        W78116  12.625  10.260   1.763
 5857W        W78117  41.028  37.500   1.889
 5858W        W78118   0.329   3.363  14.312
 5859W        W78119  16.087   4.889  14.435
 5860W        W78120   6.885  27.561  10.972
 5861W        W78121  12.249  43.950  13.309
 5862W        W78122  16.230  24.118  13.962
 5863W        W78123  10.721  21.584   3.249
 5864W        W78124   7.185  15.646  13.823
 5865W        W78125   7.891  32.890  14.465
 5866W        W78126  44.990  38.023   3.295
 5867W        W78127  34.459  30.015   2.806
 5868W        W78128   8.777   7.807  13.024
 5869W        W78129  21.147  25.216   4.278
 5870W        W78130  42.358  44.000   4.114
 5871W        W78131  44.491  15.315   5.173
 5872W        W78132   8.882  23.690   2.300
 5873W        W78133  37.032   9.799   4.792
 5874W        W78134  24.683  12.659  13.849
 5875W        W78135   6.852  23.595   1.865
 5876W        W78136  42.402  27.115   1.234
 5877W        W78137  14.756  36.367   1.853
 5878W        W78138  29.012  35.887   1.283
 5879W        W78139  30.654  13.336   2.736
 5880W        W78140  41.944  31.062  13.468
 5881W        W78141  24.491  26.578   0.890
 5882W        W78142   2.803  44.788  10.619
 5883W        W78143  11.162   7.771  11.589
 5884W        W78144  29.634   0.825  14.357
 5885W        W78145  36.563  28.460   3.791
 5886W        W78146  23.129  10.671  12.020
 5887W        W78147  28.094  19.772  12.010
 5888W        W78148  36.004  27.659  11.099
 5889W        W78149  20.756  15.743  13.314
 5890W        W78150  16.737  10.864  11.993
 5891W        W78151  36.515  17.568  14.275
 5892W        W78152   9.688  15.124   0.356
 5893W        W78153  35.020  40.827  13.527
 5894W        W78154  44.353  38.065  12.463
 5895W        W78155  21.165   3.369  14.281
 5896W        W78156  21.732  29.069  13.828
 5897W        W78157  10.740  36.415  13.987
 5898W        W78158  38.341  22.054  11.602
 5899W        W78159  31.095  40.532   1.756
 5900W        W78160   2.743   4.337  10.461
 5901W        W78161  34.029   2.876   4.778
 5902W        W78162   3.448  19.765  10.981
 5903W        W78163  33.070  30.450  11.096
 5904W        W78164  30.112  23.685  11.024
 5905W        W78165   9.658  38.540  13.020
 5906W        W78166  29.547   4.894  11.952
 5907W        W78167  42.469   9.194  14.340
 5908W        W78168  22.235   2.341  12.971
 5909W        W78169  36.876  18.134  11.915
 5910W        W78170  17.223  19.755   3.778
 5911W        W78171  11.627  27.501   3.799
 5912W        W78172   3.730  31.144  11.888
 5913W        W78173  21.704  12.842  11.116
 5914W        W78174  25.018   0.814  14.956
 5915W        W78175  25.977  26.488  10.453
 5916W        W78176  38.446   7.351   9.436
 5917W        W78177  28.051  32.075   3.832
 5918W        W78178   4.817  12.748  12.901
 5919W        W78179  40.333  11.811   5.125
 5920W        W78180  26.699  39.374  10.520
 5921W        W78181  40.853  38.033   3.265
 5922W        W78182  41.913   1.279   0.279
 5923W        W78183   0.856  26.037  12.530
 5924W        W78184  41.376  19.260   3.264
 5925W        W78185  22.701  33.431  10.421
 5926W        W78186  42.881  28.482   1.377
 5927W        W78187  32.913   2.447   3.790
 5928W        W78188  26.617  43.828  14.347
 5929W        W78189  25.712   7.356  13.991
 5930W        W78190  43.466  19.042   1.920
 5931W        W78191  38.012   4.305  14.873
 5932W        W78192  41.874  25.157   3.782
 5933W        W78193   6.391  25.676  14.866
 5934W        W78194  31.038  12.846  12.054
 5935W        W78195  16.734  18.687  10.462
 5936W        W78196   7.194  40.850   4.145
 5937W        W78197  36.914  13.179   4.770
 5938W        W78198  43.880  33.032  10.432
 5939W        W78199  21.570  31.908  12.513
 5940W        W78200  17.214   8.373   0.458
 5941W        W78201  37.553  40.427  12.480
 5942W        W78202  41.994  14.790   0.318
 5943W        W78203  10.875  25.607   2.737
 5944W        W78204  33.998  24.021   4.118
 5945W        W78205  20.122   0.839   2.268
 5946W        W78206   5.702  26.550  10.003
 5947W        W78207  38.071  26.142   2.285
 5948W        W78208  19.536  27.116   1.759
 5949W        W78209   6.205  33.558   0.277
 5950W        W78210  27.180  24.135  12.568
 5951W        W78211  29.032   6.741   4.291
 5952W        W78212  11.295   0.419  14.460
 5953W        W78213  43.302  36.531  14.437
 5954W        W78214  35.578  11.356  14.404
 5955W        W78215   4.216  35.364  11.912
 5956W        W78216  36.568  29.021  10.958
 5957W        W78217   7.824   4.858   1.435
 5958W        W78218  13.259  16.658  13.815
 5959W        W78219  29.447  25.028  11.372
 5960W        W78220  27.455  24.479   2.792
 5961W        W78221  43.848  39.847  11.903
 5962W        W78222  43.445  23.161  13.958
 5963W        W78223  19.661  15.200  12.069
 5964W        W78224  23.508  32.140  12.400
 5965W        W78225  35.994   5.363  13.506
 5966W        W78226  38.511  38.410  14.446
 5967W        W78227  34.036  25.121  14.897
 5968W        W78228  17.588  43.310  11.074
 5969W        W78229  30.028  41.880   2.751
 5970W        W78230  27.645  28.178   0.437
 5971W        W78231   7.693  29.492   1.343
 5972W        W78232  36.914  29.995  12.556
 5973W        W78233  32.973  44.772  11.064
 5974W        W78234  16.166  11.337   1.303
 5975W        W78235   8.795  35.483   3.731
 5976W        W78236   3.292  21.129  10.578
 5977W        W78237  33.931  39.314   4.776
 5978W        W78238  37.013   6.353   4.255
 5979W        W78239  17.110  35.488   4.185
 5980W        W78240  23.063  33.039   1.836
 5981W        W78241  20.618  43.775   1.702
 5982W        W78242  35.875   7.229  13.026
 5983W        W78243  41.042  28.960  14.986
 5984W        W78244   1.480   0.264  12.925
 5985W        W78245   0.896  40.020  11.512
 5986W        W78246  23.055  27.682  12.547
 5987W        W78247  41.009  34.063   3.311
 5988W        W78248   0.954  12.290   1.748
 5989W        W78249  40.898  25.681   3.264
 5990W        W78250  37.342  22.033   2.304
 5991W        W78251  23.500  43.857  12.085
 5992W        W78252  16.122   7.892   3.225
 5993W        W78253  42.376  21.054  13.955
 5994W        W78254  38.526   2.441  11.091
 5995W        W78255   8.749  23.177   4.260
 5996W        W78256  24.694  11.850   2.393
 5997W        W78257   2.753  34.419  11.564
 5998W        W78258  27.187  18.057   0.360
 5999W        W78259  33.388  39.009  14.986
 6000W        W78260  24.723   4.717  10.098
 6001W        W78261  42.823  33.474   3.149
 6002W        W78262  39.454  35.543   1.348
 6003W        W78263  19.571  26.635   3.794
 6004W        W78264  25.499  11.171   1.760
 6005W        W78265   0.387  22.032  12.900
 6006W        W78266  27.126   8.261   3.697
 6007W        W78267  36.500  10.218  13.344
 6008W        W78268  12.143  32.050  10.037
 6009W        W78269   1.899  36.849   0.467
 6010W        W78270  20.239  18.192   0.256
 6011W        W78271  10.672   7.752  11.543
 6012W        W78272   8.343  17.719   2.776
 6013W        W78273  16.593  12.784   2.281
 6014W        W78274  13.339  40.420   2.774
 6015W        W78275  34.411   9.694   1.892
 6016W        W78276   4.330   4.212   3.808
 6017W        W78277  41.341  24.019  13.436
 6018W        W78278  44.339   1.758   3.380
 6019W        W78279  10.652   5.877  12.030
 6020W        W78280  39.867  34.996  14.398
 6021W        W78281   6.290  37.341   1.754
 6022W        W78282  39.389  20.077  14.471
 6023W        W78283  15.187  11.172   2.303
 6024W        W78284   5.225  40.023  13.353
 6025W        W78285  28.628  32.976   4.607
 6026W        W78286  28.021  40.870  10.114
 6027W        W78287  26.531  31.405  11.970
 6028W        W78288  24.688  43.806  11.883
 6029W        W78289   8.826  13.341  10.403
 6030W        W78290  16.787   2.326  12.432
 6031W        W78291   5.380  26.560  12.990
 6032W        W78292  10.658  20.229  12.451
 6033W        W78293  22.711  38.436   4.241
 6034W        W78294  44.469  38.486  10.954
 6035W        W78295  38.941  26.074   0.441
 6036W        W78296   3.253  29.433  10.406
 6037W        W78297   0.967  20.666   1.917
 6038W        W78298   0.412   9.285   1.718
 6039W        W78299  21.038  28.945  11.058
 6040W        W78300  31.500   5.824  14.942
 6041W        W78301  17.092   4.444  14.789
 6042W        W78302  22.747  10.678   4.726
 6043W        W78303  41.368  41.979   4.204
 6044W        W78304  17.710  19.147   2.287
 6045W        W78305  24.557  39.315  10.434
 6046W        W78306  10.659  38.549   1.845
 6047W        W78307  18.655  17.663   0.288
 6048W        W78308   5.252  20.537  11.411
 6049W        W78309  39.522  10.832   3.834
 6050W        W78310   2.876  40.998   1.889
 6051W        W78311  30.514  18.665   0.352
 6052W        W78312  34.467  38.555  10.443
 6053W        W78313  42.373  43.301  13.977
 6054W        W78314  10.252   6.326   3.368
 6055W        W78315  35.062  14.703  10.606
 6056W        W78316  27.501   0.259  12.900
 6057W        W78317  44.969   4.447  10.967
 6058W        W78318  27.974  25.147  13.352
 6059W        W78319  10.697   4.349  11.456
 6060W        W78320   9.240  22.577  11.980
 6061W        W78321  37.973  20.253  11.052
 6062W        W78322  28.473  19.277  13.052
 6063W        W78323  10.203   3.249  14.766
 6064W        W78324  18.658   6.780   2.288
 6065W        W78325   7.666  14.304  11.378
 6066W        W78326  19.726   9.161   4.119
 6067W        W78327  38.496  41.795   3.265
 6068W        W78328  30.056  10.877  12.404
 6069W        W78329  33.918  20.217   2.410
 6070W        W78330   2.927  41.305   0.380
 6071W        W78331  40.534   4.326   2.807
 6072W        W78332  15.278  18.587  14.781
 6073W        W78333   2.754   0.354   0.730
 6074W        W78334  18.166  12.718   4.179
 6075W        W78335  27.194  33.596  10.003
 6076W        W78336  36.486   4.295  14.464
 6077W        W78337  30.640  25.997  11.603
 6078W        W78338  28.177   9.164   2.885
 6079W        W78339  27.087  42.935   0.382
 6080W        W78340  18.070  15.756   2.733
 6081W        W78341  39.357  30.014  10.428
 6082W        W78342  28.975   4.417  13.382
 6083W        W78343   9.736  29.000   4.212
 6084W        W78344  33.386  33.389  11.060
 6085W        W78345  33.569   3.873  14.360
 6086W        W78346  26.686   3.833  13.415
 6087W        W78347   6.801  32.108   3.226
 6088W        W78348  35.574  27.621  11.469
 6089W        W78349  33.615   3.318  12.378
 6090W        W78350  10.145   7.695  11.470
 6091W        W78351  11.263  11.836  12.358
 6092W        W78352  37.561  16.169  11.010
 6093W        W78353  41.318   5.284  10.469
 6094W        W78354  12.844  32.453   2.237
 6095W        W78355  32.043   6.678  10.579
 6096W        W78356   4.874  24.488   1.415
 6097W        W78357  34.936   5.251   2.664
 6098W        W78358  21.233  34.097  11.112
 6099W        W78359  31.986  39.514   2.704
 6100W        W78360  19.238   6.706  10.406
 6101W        W78361  37.467  10.174  13.045
 6102W        W78362  14.669  34.103   2.700
 6103W        W78363  35.957   7.395  11.438
 6104W        W78364  11.153  24.001  12.860
 6105W        W78365  25.182   0.959  11.428
 6106W        W78366  39.321  31.092   3.828
 6107W        W78367   4.327  40.370   0.312
 6108W        W78368  38.982  12.231  14.817
 6109W        W78369  16.183   2.351   2.738
 6110W        W78370  43.806   0.857  11.897
 6111W        W78371  10.642  32.507  14.486
 6112W        W78372   5.707  25.108   4.643
 6113W        W78373  32.914  20.262   5.627
 6114W        W78374  26.977  41.922   2.866
 6115W        W78375  43.390   8.303  13.509
 6116W        W78376  41.797  42.416  13.948
 6117W        W78377   5.931  19.551   0.759
 6118W        W78378  36.478   7.720  14.793
 6119W        W78379  35.414  44.916   1.329
 6120W        W78380   6.878  22.211   0.841
 6121W        W78381  41.329  38.331   1.734
 6122W        W78382  28.565  30.458  13.801
 6123W        W78383   0.299  32.594   4.122
 6124W        W78384   1.389  18.147   0.803
 6125W        W78385  33.534   1.825  13.411
 6126W        W78386  41.505  37.550  12.862
 6127W        W78387  30.045  16.680   2.372
 6128W        W78388  42.923  16.230  13.548
 6129W        W78389   1.803  31.432  12.018
 6130W        W78390  24.642   0.861   1.886
 6131W        W78391  11.680  35.431   4.786
 6132W        W78392  39.484  41.833  11.576
 6133W        W78393  44.427  10.183   3.238
 6134W        W78394  21.755  35.105  13.320
 6135W        W78395  24.542   5.376   3.274
 6136W        W78396  41.415  13.753  13.934
 6137W        W78397  12.314  25.041   2.403
 6138W        W78398  14.632   4.862   2.867
 6139W        W78399  21.632  25.027   5.254
 6140W        W78400  14.717  17.226   2.876
 6141W        W78401  19.109  38.892   4.121
 6142W        W78402  16.233  44.924  11.608
 6143W        W78403  31.058  18.181   0.820
 6144W        W78404  27.471   0.939  13.535
 6145W        W78405   4.705  10.696   4.319
 6146W        W78406  31.967   8.299  11.943
 6147W        W78407   5.852  14.161  11.957
 6148W        W78408   1.365  11.787  11.048
 6149W        W78409   3.743  36.074   0.258
 6150W        W78410  35.966   4.333   1.395
 6151W        W78411  11.245  34.057   1.333
 6152W        W78412  32.403   2.253  13.497
 6153W        W78413  25.680  33.411   2.727
 6154W        W78414  30.540  43.824  12.985
 6155W        W78415  21.737  44.425  14.332
 6156W        W78416   1.907   5.895  11.988
 6157W        W78417  31.608  39.340  14.963
 6158W        W78418  10.878   0.807  11.065
 6159W        W78419  26.039   9.737   2.258
 6160W        W78420  40.529  32.126  12.574
 6161W        W78421  26.614  23.034  14.798
 6162W        W78422  44.944  11.782   0.284
 6163W        W78423  20.232  32.479   1.315
 6164W        W78424   9.699   2.843   2.275
 6165W        W78425   5.768   0.403   3.631
 6166W        W78426   5.404  13.607  14.389
 6167W        W78427  44.899  22.152  11.091
 6168W        W78428  14.632   1.867   0.350
 6169W        W78429  32.088  43.004  11.433
 6170W        W78430  35.424   5.814   4.609
 6171W        W78431  41.470  33.483   5.209
 6172W        W78432  28.071  41.439   3.651
 6173W        W78433  16.188  41.482  11.909
 6174W        W78434  43.492   5.251   3.192
 6175W        W78435   9.317  41.866  12.414
 6176W        W78436  41.927  22.247   3.714
 6177W        W78437  18.617  25.000  12.077
 6178W        W78438  43.341   6.780  11.973
 6179W        W78439  11.782  15.129  14.776
 6180W        W78440   8.205   7.756   1.719
 6181W        W78441   8.201  25.703   0.843
 6182W        W78442  43.361  41.788  14.509
 6183W        W78443  14.676  19.629   4.178
 6184W        W78444  40.466  38.986  12.046
 6185W        W78445   6.399   2.348  11.609
 6186W        W78446  19.073   6.834   0.885
 6187W        W78447  16.315  36.511  11.990
 6188W        W78448  26.679  16.567   4.204
 6189W        W78449   2.239  11.264   2.240
 6190W        W78450  39.046  33.030   5.089
 6191W        W78451   5.737  44.467  14.503
 6192W        W78452  17.652  13.765  14.498
 6193W        W78453   5.383   6.874   1.446
 6194W        W78454  27.560  43.820  14.808
 6195W        W78455   2.830   6.287  13.312
 6196W        W78456  43.979  18.228  10.957
 6197W        W78457  31.647  40.480  13.023
 6198W        W78458  23.692  12.200  14.980
 6199W        W78459   1.910  32.506   4.718
 6200W        W78460  30.590  31.020  13.924
 6201W        W78461  17.572  28.617  11.095
 6202W        W78462  41.951  11.165  13.826
 6203W        W78463  32.041  40.351  13.459
 6204W        W78464  21.614  43.343  13.915
 6205W        W78465  17.566  19.052   4.288
 6206W        W78466   5.274  37.082   3.243
 6207W        W78467  38.506  15.612  14.899
 6208W        W78468  38.342  39.034   3.860
 6209W        W78469  29.564  24.551   2.189
 6210W        W78470  34.375   6.692  11.431
 6211W        W78471  27.015  20.529   1.810
 6212W        W78472   3.347  22.676   5.158
 6213W        W78473  35.012  19.675   3.847
 6214W        W78474  19.651  24.069   4.250
 6215W        W78475  43.823  23.134  10.516
 6216W        W78476  34.031  19.598   2.779
 6217W        W78477  28.999   6.337  11.086
 6218W        W78478  40.895   7.266   4.145
 6219W        W78479  10.658  11.171   0.922
 6220W        W78480  25.217  42.408   0.839
 6221W        W78481  42.476  17.145  12.041
 6222W        W78482   3.371  27.139  10.522
 6223W        W78483   0.951  28.971  11.115
 6224W        W78484  16.595  29.664   1.299
 6225W        W78485  16.681  22.011  12.095
 6226W        W78486  31.085  33.056   0.275
 6227W        W78487  10.227  35.065  13.515
 6228W        W78488   2.318  28.155   1.341
 6229W        W78489  30.975   7.296  10.936
 6230W        W78490  44.464  19.672   0.483
 6231W        W78491  24.518  42.836  13.868
 6232W        W78492  22.050   8.810   0.769
 6233W        W78493   2.857  43.915   4.804
 6234W        W78494  36.856  37.005   4.251
 6235W        W78495  34.401  11.831  12.832
 6236W        W78496  26.603  41.499  13.311
 6237W        W78497  31.489  18.635  11.994
 6238W        W78498   9.318   0.255   0.942
 6239W        W78499  27.490  24.572  10.533
 6240W        W78500   0.785  27.683  11.491
 6241W        W78501   5.371  14.339   2.395
 6242W        W78502  42.343  11.205  13.400
 6243W        W78503  36.942   3.235   1.771
 6244W        W78504  19.592   9.790   2.676
 6245W        W78505  20.733   2.876   0.756
 6246W        W78506  38.970  32.029  11.873
 6247W        W78507  27.001  28.629  13.007
 6248W        W78508  27.031   0.942  11.061
 6249W        W78509   1.938  27.038   4.772
 6250W        W78510   5.891   8.674   5.209
 6251W        W78511  23.558  40.824  10.927
 6252W        W78512  21.031  15.168  14.815
 6253W        W78513  13.175  24.111   2.184
 6254W        W78514  27.543   4.331  14.497
 6255W        W78515   5.870   1.300  11.463
 6256W        W78516  15.614  12.633   0.250
 6257W        W78517  41.406  24.077   1.827
 6258W        W78518   5.400   7.330   1.247
 6259W        W78519  28.677  25.077   3.764
 6260W        W78520  25.649  24.528   1.312
 6261W        W78521  27.551  22.674  14.783
 6262W        W78522  32.461  24.624  12.408
 6263W        W78523  30.142  25.538  11.467
 6264W        W78524  19.143   5.438   0.946
 6265W        W78525  33.073  33.494   0.439
 6266W        W78526   9.195  34.073   1.384
 6267W        W78527  44.323  27.189   1.348
 6268W        W78528  27.163  18.119   2.755
 6269W        W78529  17.691  34.059  11.598
 6270W        W78530  41.841  14.220  12.871
 6271W        W78531  35.037  13.832   0.881
 6272W        W78532  44.263  44.268   2.841
 6273W        W78533  14.698  20.686  13.532
 6274W        W78534  31.615  30.612  12.955
 6275W        W78535  18.653  34.072   4.805
 6276W        W78536   8.841  26.985  10.932
 6277W        W78537  18.696   2.325   2.195
 6278W        W78538   0.274  44.865  11.460
 6279W        W78539  36.443   5.821  13.492
 6280W        W78540  33.015  41.493  10.891
 6281W        W78541  18.574   8.395  14.984
 6282W        W78542  10.667  29.996  10.944
 6283W        W78543  30.421  23.598  10.642
 6284W        W78544  12.703  12.670  11.911
 6285W        W78545   5.702  28.027   2.870
 6286W        W78546  18.181  28.559   1.374
 6287W        W78547  43.007  16.621   4.830
 6288W        W78548  41.964   8.164   3.274
 6289W        W78549  19.646  24.041   1.912
 6290W        W78550  25.712  22.702  11.860
 6291W        W78551  34.019  10.239   1.448
 6292W        W78552  37.481   5.735   3.219
 6293W        W78553   0.960  30.067   4.824
 6294W        W78554  12.774  38.498   4.716
 6295W        W78555  31.567  27.172   1.420
 6296W        W78556  11.341   4.759  14.024
 6297W        W78557  11.837  25.185   5.112
 6298W        W78558   4.705  29.990   3.205
 6299W        W78559  44.970  37.081  10.951
 6300W        W78560  35.041  18.166  13.454
 6301W        W78561  22.021  20.737  10.041
 6302W        W78562   0.367  13.247  14.964
 6303W        W78563  44.392  24.617   3.823
 6304W        W78564   0.335   9.228  10.475
 6305W        W78565  41.511  25.025  11.025
 6306W        W78566  33.622   7.774  12.919
 6307W        W78567  34.565  31.982   5.302
 6308W        W78568   9.800  15.700  11.080
 6309W        W78569  41.001  34.489  12.445
 6310W        W78570  42.409  17.170   0.727
 6311W        W78571  11.790  23.504  10.516
 6312W        W78572  25.661   0.400   0.243
 6313W        W78573  39.898  30.641  12.895
 6314W        W78574  22.031  30.500   4.338
 6315W        W78575   9.304  38.476   4.758
 6316W        W78576  38.068   1.373  12.472
 6317W        W78577  15.240  37.452  10.451
 6318W        W78578   0.930  11.760  13.514
 6319W        W78579  13.610   4.778  12.361
 6320W        W78580  14.669  10.228  14.887
 6321W        W78581  18.593  36.032   1.791
 6322W        W78582  41.025  26.516  14.881
 6323W        W78583  31.033  26.658  12.472
 6324W        W78584   0.909   4.903   4.272
 6325W        W78585  39.334   2.948  12.447
 6326W        W78586  22.034   5.922   4.236
 6327W        W78587   2.883  41.878   2.205
 6328W        W78588  30.532  18.712   4.332
 6329W        W78589  44.372   4.870   1.892
 6330W        W78590  10.267  43.935   2.352
 6331W        W78591  33.075  43.327   3.857
 6332W        W78592  33.886  37.436  11.890
 6333W        W78593   0.444  22.997   0.786
 6334W        W78594  30.153  22.745  14.508
 6335W        W78595   4.242  25.178   4.749
 6336W        W78596  24.638  25.127  10.943
 6337W        W78597  12.809   8.230   1.397
 6338W        W78598   3.871  29.081  12.438
 6339W        W78599  37.394  34.959   0.357
 6340W        W78600   9.656   1.310   0.807
 6341W        W78601  33.400  15.655  10.505
 6342W        W78602  15.710  17.297  14.766
 6343W        W78603  35.427  38.450  10.918
 6344W        W78604   1.817  26.016   4.185
 6345W        W78605  26.573  34.477  11.454
 6346W        W78606  34.504  16.645   1.335
 6347W        W78607  23.535  35.898   2.666
 6348W        W78608  18.148   7.339   3.755
 6349W        W78609  11.188  44.861   1.833
 6350W        W78610   6.213  38.362   0.789
 6351W        W78611  27.124   1.854   2.708
 6352W        W78612  44.445  29.452  12.550
 6353W        W78613  32.462   5.697   0.962
 6354W        W78614  15.221  12.163  13.822
 6355W        W78615  37.558  35.083   2.288
 6356W        W78616  43.319  22.719   4.266
 6357W        W78617   4.230  16.153  14.424
 6358W        W78618  41.496  24.101   0.821
 6359W        W78619  30.922  31.450  12.904
 6360W        W78620  40.339  23.004   0.302
 6361W        W78621  38.947  41.806  11.988
 6362W        W78622  35.025   8.769  11.097
 6363W        W78623  44.409  33.065  13.907
 6364W        W78624   3.851  37.354   3.225
 6365W        W78625  38.994  38.859   2.384
 6366W        W78626   0.487  29.482   2.777
 6367W        W78627  26.980  22.741  14.928
 6368W        W78628  39.388  24.211   0.732
 6369W        W78629  32.502  38.537  11.010
 6370W        W78630  17.126   7.787   4.249
 6371W        W78631  18.235  18.766  12.400
 6372W        W78632  24.689  23.133   1.309
 6373W        W78633  39.864  19.628   2.315
 6374W        W78634  16.095  31.624   3.186
 6375W        W78635  15.594  26.601   2.718
 6376W        W78636  18.615  12.231   1.872
 6377W        W78637  23.639  18.550  12.443
 6378W        W78638  23.556   6.734   3.207
 6379W        W78639  38.389  30.422   2.228
 6380W        W78640  41.366  40.950  13.514
 6381W        W78641  15.606  44.920   3.715
 6382W        W78642  16.245   9.319   4.784
 6383W        W78643  36.910  42.425  13.946
 6384W        W78644  26.062   8.710   3.162
 6385W        W78645  14.661   3.781   0.888
 6386W        W78646  30.444  34.958  10.527
 6387W        W78647  27.544  25.066  13.388
 6388W        W78648  15.318  14.666  11.994
 6389W        W78649   1.312  37.918   1.292
 6390W        W78650  33.974  21.185   1.312
 6391W        W78651   9.203   0.910   3.831
 6392W        W78652   3.832  27.557  10.530
 6393W        W78653  19.546  14.142  13.440
 6394W        W78654  14.822  30.608   1.315
 6395W        W78655  22.223  40.474   2.208
 6396W        W78656  25.122  20.620   0.480
 6397W        W78657  29.558  26.155   3.240
 6398W        W78658  24.700   0.312   2.789
 6399W        W78659  31.900  32.023   4.151
 6400W        W78660  41.529  42.012   4.653
 6401W        W78661  29.426  43.771  11.125
 6402W        W78662   6.895  12.819  11.377
 6403W        W78663  42.447  29.429   2.286
 6404W        W78664  22.182   6.877   3.779
 6405W        W78665   5.265  28.497   4.355
 6406W        W78666   4.869  12.132   4.158
 6407W        W78667   7.729  35.064   1.411
 6408W        W78668   9.371  30.153   0.765
 6409W        W78669  25.580  21.119  11.863
 6410W        W78670  20.153  19.600  12.027
 6411W        W78671  40.325   4.339   0.867
 6412W        W78672   6.366  30.414   1.708
 6413W        W78673  37.454   7.684   3.313
 6414W        W78674  36.875  16.293  11.963
 6415W        W78675  24.491  20.757  14.856
 6416W        W78676   2.459  11.135   4.685
 6417W        W78677  28.617   1.369   4.664
 6418W        W78678  35.097  30.954  10.464
 6419W        W78679   9.293  41.396  14.899
 6420W        W78680  29.529  38.351  11.118
 6421W        W78681  10.384   7.389   0.744
 6422W        W78682  14.296  35.424   2.272
 6423W        W78683  28.616  21.752   2.724
 6424W        W78684  14.308  41.520   3.769
 6425W        W78685   8.334  15.318  10.994
 6426W        W78686   3.421   9.381  13.330
 6427W        W78687  37.543   7.716  14.858
 6428W        W78688  10.316  10.216  14.783
 6429W        W78689   3.956   5.202  14.463
 6430W        W78690  10.196  19.725  10.439
 6431W        W78691  18.280   4.789   2.894
 6432W        W78692   8.372  16.169   4.735
 6433W        W78693  38.400  22.216   1.281
 6434W        W78694  24.651  34.402   3.843
 6435W        W78695  39.038  24.524   1.360
 6436W        W78696  23.514  30.030   0.304
 6437W        W78697  35.095  32.568  13.338
 6438W        W78698  12.737  26.183   2.269
 6439W        W78699  11.748  42.913   2.840
 6440W        W78700   9.649  29.541  13.897
 6441W        W78701  32.027  39.551  10.625
 6442W        W78702  39.549   9.880   0.253
 6443W        W78703  41.352  17.203  12.525
 6444W        W78704  23.034  33.040   0.845
 6445W        W78705   7.720  39.445   3.295
 6446W        W78706  11.734   4.412   1.365
 6447W        W78707  24.649  41.884  11.532
 6448W        W78708  29.966  12.690  14.406
 6449W        W78709  38.999  25.687  14.825
 6450W        W78710  27.575  37.338  14.780
 6451W        W78711  11.724  28.464  12.424
 6452W        W78712  39.480  41.372   0.322
 6453W        W78713  13.120  31.022  10.039
 6454W        W78714  27.026   7.757  13.978
 6455W        W78715  14.740  22.016   0.469
 6456W        W78716   0.292   6.781   4.836
 6457W        W78717  20.180   7.735   2.275
 6458W        W78718  11.212  20.756   4.304
 6459W        W78719   4.785   6.882  11.456
 6460W        W78720   1.325  39.964   3.646
 6461W        W78721  12.200   9.167   0.773
 6462W        W78722  11.810  12.853  13.321
 6463W        W78723  30.440  39.539  11.862
 6464W        W78724  21.536  24.136   1.437
 6465W        W78725  37.053  32.137  13.335
 6466W        W78726   7.174   0.851  12.385
 6467W        W78727  44.294  18.280  14.844
 6468W        W78728  42.516  26.182  11.474
 6469W        W78729  16.259  10.158  11.988
 6470W        W78730   8.739   4.830   2.810
 6471W        W78731  36.397  18.706   1.770
 6472W        W78732  18.285  22.219   0.901
 6473W        W78733  38.868   3.715  13.449
 6474W        W78734  23.660  32.109  10.900
 6475W        W78735  36.883   1.278   2.214
 6476W        W78736   0.764  12.330  11.460
 6477W        W78737  23.560   4.292  12.886
 6478W        W78738   1.836  15.587   4.262
 6479W        W78739  42.444   7.367   4.713
 6480W        W78740  25.651   9.365   4.333
 6481W        W78741  40.876   3.741   4.691
 6482W        W78742   7.809  27.678  13.839
 6483W        W78743  26.956   8.813  11.482
 6484W        W78744  36.520  18.091  14.348
 6485W        W78745  28.067  20.215  12.009
 6486W        W78746  22.509   4.839  10.488
 6487W        W78747  22.030   1.288  13.020
 6488W        W78748  39.403  24.504  13.929
 6489W        W78749   1.266  29.127   1.701
 6490W        W78750  41.368  14.606  12.053
 6491W        W78751  29.965  18.060   4.268
 6492W        W78752  26.152  43.378  11.984
 6493W        W78753   3.755  23.030   3.808
 6494W        W78754  11.811  11.801   1.333
 6495W        W78755  31.907  20.082   3.326
 6496W        W78756  12.854  39.412  14.417
 6497W        W78757   8.834   1.865   1.787
 6498W        W78758  26.975  31.920  13.901
 6499W        W78759   4.719  10.315   4.825
 6500W        W78760  31.934   5.803  10.568
 6501W        W78761   2.453   2.855  13.804
 6502W        W78762  42.832   0.914  11.498
 6503W        W78763  13.131  16.778   1.728
 6504W        W78764  19.107  37.953   4.265
 6505W        W78765  10.304   0.829   5.279
 6506W        W78766   5.753  43.850   2.790
 6507W        W78767  40.381  23.011  14.024
 6508W        W78768  23.504  15.275  12.858
 6509W        W78769   4.394  43.771  12.343
 6510W        W78770   3.414  13.802   0.916
 6511W        W78771  39.469  29.491  11.078
 6512W        W78772  15.787  40.401  11.908
 6513W        W78773  36.416  26.489   5.087
 6514W        W78774  11.699   0.317   2.870
 6515W        W78775  10.850  28.042   0.286
 6516W        W78776  16.728  18.752  12.864
 6517W        W78777  26.668  10.342   2.221
 6518W        W78778  27.120  36.568   3.754
 6519W        W78779  24.503  40.006   5.275
 6520W        W78780  12.733  23.551  10.998
 6521W        W78781  40.436  31.586   3.351
 6522W        W78782  37.336   8.285   2.808
 6523W        W78783   0.415  40.989   3.664
 6524W        W78784  24.647  23.187  12.545
 6525W        W78785  18.094  44.445   0.276
 6526W        W78786  23.219  22.117  11.986
 6527W        W78787  40.006  24.571  12.425
 6528W        W78788   5.277  21.179  10.607
 6529W        W78789  18.084  26.638  13.522
 6530W        W78790  14.223   5.323   0.841
 6531W        W78791   2.909   8.863  10.998
 6532W        W78792  24.593   4.719  14.306
 6533W        W78793  26.023  25.005   3.282
 6534W        W78794   2.314  27.613  11.550
 6535W        W78795  10.708  21.594   2.264
 6536W        W78796   6.377  16.632   1.769
 6537W        W78797  30.956   0.876  10.921
 6538W        W78798  30.956  23.549  13.503
 6539W        W78799  39.341   5.850  13.330
 6540W        W78800  36.434   1.886  10.013
 6541W        W78801  24.113  19.068  12.523
 6542W        W78802  11.632  36.040  12.836
 6543W        W78803  36.524  38.857   4.212
 6544W        W78804  11.175  35.380  12.432
 6545W        W78805   0.848   9.197  14.773
 6546W        W78806  38.404  28.545   1.877
 6547W        W78807  41.935  15.161   2.365
 6548W        W78808  44.991   2.409   1.713
 6549W        W78809  24.018  42.329   4.312
 6550W        W78810  14.276   2.435   2.311
 6551W        W78811  35.377  38.480  10.505
 6552W        W78812  21.160  37.844   3.337
 6553W        W78813  14.158  23.639  10.455
 6554W        W78814  11.261  28.577   5.679
 6555W        W78815  34.963  10.159   2.700
 6556W        W78816  38.920  31.467  12.474
 6557W        W78817   3.340   8.688  11.561
 6558W        W78818  19.173  33.593   4.675
 6559W        W78819  14.797  44.357  10.414
 6560W        W78820  14.173  40.378  12.355
 6561W        W78821  33.418  32.959   4.833
 6562W        W78822  29.584  29.622  13.839
 6563W        W78823  32.051  30.071  11.036
 6564W        W78824  39.884   2.260   2.840
 6565W        W78825  41.387  31.630  11.579
 6566W        W78826  25.969  30.060   2.732
 6567W        W78827  41.967  13.798   3.212
 6568W        W78828  41.387  30.657  12.525
 6569W        W78829   8.379  26.979   1.779
 6570W        W78830  25.699  11.787   1.926
 6571W        W78831   6.748   2.384  13.491
 6572W        W78832   7.869  13.263   3.677
 6573W        W78833  26.459  26.619   5.147
 6574W        W78834   4.776  22.636  14.026
 6575W        W78835  39.062  33.077  14.306
 6576W        W78836   0.986   1.874   3.788
 6577W        W78837   6.753  36.361  11.914
 6578W        W78838  11.624  40.483  14.347
 6579W        W78839  26.566  12.275   1.424
 6580W        W78840  12.250  15.578   4.295
 6581W        W78841  32.923  33.452  10.051
 6582W        W78842   2.884   8.250   2.357
 6583W        W78843   1.286  41.444  14.302
 6584W        W78844   4.379   1.968  14.791
 6585W        W78845   1.268  43.772   1.752
 6586W        W78846   2.395  43.857  10.405
 6587W        W78847  26.060  37.995   3.773
 6588W        W78848   2.829  16.118  11.915
 6589W        W78849  43.357   8.312   3.346
 6590W        W78850  10.218  39.552   2.243
 6591W        W78851  21.063  44.265  13.952
 6592W        W78852  25.001   8.726  13.020
 6593W        W78853  34.519  20.721  13.855
 6594W        W78854   2.819  30.472   3.152
 6595W        W78855  26.077  18.223   4.169
 6596W        W78856  17.770  13.801   4.155
 6597W        W78857   3.436  29.482   1.887
 6598W        W78858  42.896  20.170  11.068
 6599W        W78859   5.897  21.569  10.526
 6600W        W78860  35.415  38.332   1.897
 6601W        W78861   0.285  37.996  14.797
 6602W        W78862  25.544  38.373  10.554
 6603W        W78863  41.906  18.767   0.837
 6604W        W78864  24.057   9.770  10.578
 6605W        W78865  23.010   9.826   1.211
 6606W        W78866  39.387  36.050   4.258
 6607W        W78867  10.145  40.495   4.332
 6608W        W78868   8.395  43.822  10.609
 6609W        W78869  22.742  40.973  12.909
 6610W        W78870  33.562   8.372  14.779
 6611W        W78871   1.927   9.783   3.649
 6612W        W78872   5.739  14.613   4.165
 6613W        W78873  36.991  42.867  14.445
 6614W        W78874  24.714  24.099  11.483
 6615W        W78875  37.878  36.036  14.342
 6616W        W78876  35.965  39.347  11.581
 6617W        W78877  28.945  13.675   4.709
 6618W        W78878  29.048  30.619  14.009
 6619W        W78879  43.892  33.522   2.404
 6620W        W78880   0.881  19.218   3.742
 6621W        W78881  30.443  41.924  11.409
 6622W        W78882  40.992  14.136   3.677
 6623W        W78883   5.696   4.904   1.305
 6624W        W78884  22.117  26.132   5.577
 6625W        W78885  37.504   9.699   4.781
 6626W        W78886  21.064  20.679  10.454
 6627W        W78887  29.063  14.765  10.933
 6628W        W78888   2.402  11.851  11.531
 6629W        W78889  44.285  19.177  11.857
 6630W        W78890  32.516  31.908  12.085
 6631W        W78891  21.703  10.177   1.891
 6632W        W78892  44.286  30.575   1.841
 6633W        W78893  26.687  37.929   4.602
 6634W        W78894  42.963  12.797  14.805
 6635W        W78895  26.697  38.334  11.398
 6636W        W78896  41.843  10.290  12.369
 6637W        W78897   0.902  21.204  14.031
 6638W        W78898  30.566  39.037  13.357
 6639W        W78899  36.067  24.177  11.567
 6640W        W78900  30.413  40.534   0.248
 6641W        W78901  37.523   2.743   2.692
 6642W        W78902   4.236   1.465   4.318
 6643W        W78903  25.207  29.466   0.794
 6644W        W78904  39.994  16.130   4.337
 6645W        W78905  32.122  16.588  11.582
 6646W        W78906  43.975   8.744  12.533
 6647W        W78907  18.650  22.629  10.914
 6648W        W78908   1.328  23.504  10.462
 6649W        W78909  15.323  23.070  11.979
 6650W        W78910  14.627  35.076  10.915
 6651W        W78911  11.800  27.114   0.967
 6652W        W78912  19.044  15.130   3.792
 6653W        W78913  37.032  42.960  13.506
 6654W        W78914   8.365  36.449   4.791
 6655W        W78915  39.028  29.106   4.645
 6656W        W78916  15.620  26.120   2.240
 6657W        W78917  38.010  12.616   0.809
 6658W        W78918  13.323   1.373   3.860
 6659W        W78919   5.273  31.528  10.981
 6660W        W78920   5.914  22.706   1.330
 6661W        W78921  25.079   2.286   2.313
 6662W        W78922  21.686  13.122   0.813
 6663W        W78923   6.895   0.335   4.690
 6664W        W78924  41.946  32.027  14.473
 6665W        W78925  25.554  29.996   0.776
 6666W        W78926   0.456   6.761  13.040
 6667W        W78927  35.453  14.121  10.966
 6668W        W78928  39.984  11.213   4.791
 6669W        W78929  29.074   0.420  11.510
 6670W        W78930  44.901  26.099  12.014
 6671W        W78931  32.620   8.807  14.382
 6672W        W78932  37.835   6.704  11.499
 6673W        W78933  20.239   8.709   3.677
 6674W        W78934  16.648  23.493   4.756
 6675W        W78935  38.033  13.253  11.937
 6676W        W78936  18.117  35.595   3.726
 6677W        W78937  21.134  21.130   0.785
 6678W        W78938  12.156  10.736  13.417
 6679W        W78939  12.847  11.191  10.456
 6680W        W78940  36.079  13.613  14.920
 6681W        W78941  33.119  20.165  12.971
 6682W        W78942  35.063  24.543  11.931
 6683W        W78943  18.160  22.149   3.198
 6684W        W78944   2.865   6.340   0.310
 6685W        W78945  40.517  25.047   2.892
 6686W        W78946  35.873  22.739  14.913
 6687W        W78947  16.626   0.379   3.324
 6688W        W78948  20.703   8.312  12.889
 6689W        W78949  15.286  27.125  11.867
 6690W        W78950  13.117  28.679   5.171
 6691W        W78951   5.887  19.645  10.932
 6692W        W78952  42.945  38.369  10.462
 6693W        W78953  40.857  16.286  10.994
 6694W        W78954  28.064  10.780   1.730
 6695W        W78955  42.284  15.754   3.812
 6696W        W78956  18.056  42.937   4.345
 6697W        W78957   2.286  19.281   0.295
 6698W        W78958  31.124  11.203   3.262
 6699W        W78959  16.228  29.014  11.925
 6700W        W78960   4.433  25.527  11.510
 6701W        W78961  36.557  30.067  10.948
 6702W        W78962  16.764  14.279   3.294
 6703W        W78963   9.198  13.719   3.795
 6704W        W78964  13.735  12.695   0.939
 6705W        W78965  21.561  31.591   2.754
 6706W        W78966  39.409   7.773  10.533
 6707W        W78967  16.179  24.056   2.243
 6708W        W78968  40.882  43.781   4.615
 6709W        W78969  33.026  44.355  14.969
 6710W        W78970   3.407  43.923  11.026
 6711W        W78971  13.616  33.107  10.927
 6712W        W78972  25.575  31.966   3.366
 6713W        W78973  21.261  27.667   1.445
 6714W        W78974  12.684  28.087  10.508
 6715W        W78975  30.082  37.488  13.335
 6716W        W78976  24.976  11.267   3.730
 6717W        W78977  33.500   7.282  11.981
 6718W        W78978   3.880  36.539   4.667
 6719W        W78979  44.391  44.445  10.896
 6720W        W78980  34.103  25.204   3.773
 6721W        W78981  17.202  19.078  14.278
 6722W        W78982  15.291  15.239  12.578
 6723W        W78983  15.200   5.876  12.394
 6724W        W78984   1.933  27.450  14.944
 6725W        W78985   3.421  24.717   2.707
 6726W        W78986  30.001  14.156  10.598
 6727W        W78987   4.274   6.900  12.995
 6728W        W78988  39.833  17.741  12.937
 6729W        W78989  38.037  16.803   1.400
 6730W        W78990  18.147  41.427  11.104
 6731W        W78991  20.537  34.046   1.299
 6732W        W78992  28.186  40.498  11.454
 6733W        W78993  35.064  18.647  14.340
 6734W        W78994  12.696   9.256   2.231
 6735W        W78995  35.065  38.545  13.915
 6736W        W78996   2.466   8.819   3.677
 6737W        W78997   0.349   6.816   0.750
 6738W        W78998  16.141  38.493  13.872
 6739W        W78999  36.528  25.061  12.031
 6740W        W79000  12.702  18.779   2.742
 6741W        W79001  38.459  41.339  12.924
 6742W        W79002  14.188  14.118   4.668
 6743W        W79003  15.667  39.008   3.750
 6744W        W79004  14.160   0.968   4.309
 6745W        W79005   7.730  30.615  11.578
 6746W        W79006  33.899  39.043   1.441
 6747W        W79007  29.666  28.624  12.868
 6748W        W79008  27.112  33.952   0.323
 6749W        W79009   1.390   9.767  12.966
 6750W        W79010  23.634  43.323  14.862
 6751W        W79011  40.892  23.012  12.849
 6752W        W79012  36.556  43.933   2.878
 6753W        W79013  22.583  10.695  11.375
 6754W        W79014  19.106  39.955  10.521
 6755W        W79015  44.492  30.533  13.832
 6756W        W79016  19.767  19.722  14.023
 6757W        W79017  28.025  25.081   4.764
 6758W        W79018  23.537  23.678  12.546
 6759W        W79019  26.153   9.188   0.732
 6760W        W79020  33.456  26.521   5.159
 6761W        W79021   8.380   2.439  13.507
 6762W        W79022  16.169  25.487  12.402
 6763W        W79023   5.241   9.391   1.891
 6764W        W79024  12.324  19.731   3.252
 6765W        W79025  23.059  28.676   2.411
 6766W        W79026   2.887   2.865   1.411
 6767W        W79027  36.852  29.069  11.065
 6768W        W79028  35.488   7.209  12.827
 6769W        W79029   7.811   5.374   3.686
 6770W        W79030  24.051  17.250   3.704
 6771W        W79031   9.790  25.481   3.233
 6772W        W79032  44.453  27.981   1.320
 6773W        W79033  43.377  28.960   2.368
 6774W        W79034  24.177  16.655  13.504
 6775W        W79035  36.360  30.081  13.038
 6776W        W79036  33.089   6.187  10.626
 6777W        W79037  39.497  30.159  12.911
 6778W        W79038  29.460  17.572   1.402
 6779W        W79039  32.988   5.725   4.141
 6780W        W79040  17.697   0.922   0.961
 6781W        W79041  37.081  22.158   0.362
 6782W        W79042   7.263  10.779  13.014
 6783W        W79043   0.287  42.357   2.889
 6784W        W79044  33.457   2.380   1.333
 6785W        W79045  38.478  20.164   0.917
 6786W        W79046  30.510  11.645   2.378
 6787W        W79047  26.701  43.274   2.187
 6788W        W79048  16.587  28.566  12.010
 6789W        W79049  26.119  35.592   3.253
 6790W        W79050  13.656  28.177  12.426
 6791W        W79051  16.185  29.918   3.737
 6792W        W79052   9.848  43.897   3.764
 6793W        W79053  33.529   2.811  10.970
 6794W        W79054  31.930  18.135   4.128
 6795W        W79055  28.635  40.001  10.946
 6796W        W79056   8.259  44.323   3.830
 6797W        W79057  16.809  22.221   2.682
 6798W        W79058  30.512  18.072  14.792
 6799W        W79059   1.759   9.384  14.961
 6800W        W79060  15.212  28.989  10.949
 6801W        W79061  23.518  14.100  10.631
 6802W        W79062  18.778  33.492   4.309
 6803W        W79063  34.987   2.254   2.721
 6804W        W79064  36.055  37.490   1.916
 6805W        W79065   9.278  16.734  12.028
 6806W        W79066   4.231  16.186  13.044
 6807W        W79067  16.697  39.935   1.417
 6808W        W79068  27.151  30.465   0.966
 6809W        W79069   5.360  13.693   3.386
 6810W        W79070  18.254   4.922   9.949
 6811W        W79071  10.274  32.497  12.856
 6812W        W79072  32.056  23.496  11.588
 6813W        W79073  40.538  36.519   0.861
 6814W        W79074   2.911  24.030   2.401
 6815W        W79075   4.745  32.547   4.687
 6816W        W79076  38.330  32.081  12.966
 6817W        W79077  42.823  35.464  10.919
 6818W        W79078  43.825  10.791  12.909
 6819W        W79079  32.952  21.755   1.726
 6820W        W79080  14.289  29.545  12.973
 6821W        W79081  25.586  35.004   4.799
 6822W        W79082  40.399  27.061  12.827
 6823W        W79083  11.215  24.146  14.854
 6824W        W79084   3.956  19.757   1.863
 6825W        W79085  21.056  25.976   5.158
 6826W        W79086  13.752  25.553  14.876
 6827W        W79087  39.502  27.682  10.957
 6828W        W79088  24.003  14.202  13.452
 6829W        W79089  30.625  30.418  10.971
 6830W        W79090   3.262  10.244   0.733
 6831W        W79091  15.083  43.416  14.860
 6832W        W79092  24.549   0.895  12.026
 6833W        W79093  40.045  17.240   3.778
 6834W        W79094  10.820  44.347  10.615
 6835W        W79095  31.955  40.887  13.479
 6836W        W79096  35.362  42.440  11.969
 6837W        W79097  26.577  35.413   0.900
 6838W        W79098   3.370  17.164   3.176
 6839W        W79099   3.953  42.373  10.633
 6840W        W79100  14.814  39.822  14.365
 6841W        W79101  36.062  12.693  13.874
 6842W        W79102   1.872  19.138  11.402
 6843W        W79103  41.495  41.461  10.577
 6844W        W79104   9.218  26.971   4.806
 6845W        W79105   0.428  21.096   1.713
 6846W        W79106  43.403  27.094  11.031
 6847W        W79107  39.544  12.202   2.785
 6848W        W79108  35.077  15.766   1.732
 6849W        W79109  25.712  29.164  10.596
 6850W        W79110   8.402  43.778   3.222
 6851W        W79111  26.986  36.994   1.336
 6852W        W79112  41.496  43.465   0.822
 6853W        W79113  41.926  25.056   4.621
 6854W        W79114   5.734  32.963  13.361
 6855W        W79115  31.488   5.296   3.796
 6856W        W79116   9.355  13.623  10.937
 6857W        W79117  41.013  41.811  14.814
 6858W        W79118  37.003  36.852  11.927
 6859W        W79119  31.603  14.256  12.009
 6860W        W79120   5.379   0.827   2.738
 6861W        W79121  20.257  44.764  12.011
 6862W        W79122  25.584  21.188   2.286
 6863W        W79123  31.566   9.162   3.360
 6864W        W79124  18.278  24.226   4.129
 6865W        W79125   2.301  12.169   0.322
 6866W        W79126  43.848  37.023  11.878
 6867W        W79127   2.277  20.080  14.850
 6868W        W79128  24.001   6.739  14.951
 6869W        W79129  38.346  12.272  13.400
 6870W        W79130  35.026  40.468   2.331
 6871W        W79131   8.823   3.935  13.984
 6872W        W79132  30.021   9.193  13.376
 6873W        W79133  20.721  18.158  12.868
 6874W        W79134  23.986  20.213   1.360
 6875W        W79135   1.919  22.082   4.115
 6876W        W79136  13.724  38.546  11.491
 6877W        W79137  22.029   1.237   2.789
 6878W        W79138  19.091  37.487   3.360
 6879W        W79139  10.233  10.700  14.404
 6880W        W79140  43.955  43.491   4.152
 6881W        W79141   8.826  21.521  11.013
 6882W        W79142  10.370   9.235   1.372
 6883W        W79143  19.109   3.432   3.263
 6884W        W79144  12.301  14.823  12.828
 6885W        W79145  17.241  41.463  12.929
 6886W        W79146  27.571  29.641  12.458
 6887W        W79147  13.808  21.084  13.491
 6888W        W79148  25.529  10.167  11.539
 6889W        W79149  33.462  42.999   2.772
 6890W        W79150  30.456   4.326  12.002
 6891W        W79151  22.081  22.679  12.877
 6892W        W79152  26.632   4.924   4.319
 6893W        W79153   1.865  16.174   0.890
 6894W        W79154  37.950  24.590   4.139
 6895W        W79155  13.825  15.642  11.497
 6896W        W79156  17.644  16.316  11.903
 6897W        W79157  24.191  29.648   0.915
 6898W        W79158  17.184  13.160  14.459
 6899W        W79159  11.344  38.958   1.246
 6900W        W79160  13.815  28.050   4.813
 6901W        W79161   1.849  43.345   0.858
 6902W        W79162  27.979  37.960   4.189
 6903W        W79163  44.757   7.193  12.344
 6904W        W79164   1.372  12.185   2.862
 6905W        W79165   5.300  33.106  12.362
 6906W        W79166  19.271  15.134   0.337
 6907W        W79167  41.323  30.452   1.248
 6908W        W79168   2.293  26.687   2.829
 6909W        W79169  23.011  28.672   1.767
 6910W        W79170  27.033   4.441   4.347
 6911W        W79171   8.849  37.856   0.330
 6912W        W79172  28.437  13.838  10.463
 6913W        W79173  44.001  22.505   0.943
 6914W        W79174   6.890  15.192  11.006
 6915W        W79175   6.853  40.844  11.550
 6916W        W79176   8.717   8.862  14.003
 6917W        W79177   8.277  19.775   4.712
 6918W        W79178  23.229  23.034  11.472
 6919W        W79179  28.177  22.167   4.340
 6920W        W79180  35.439  19.167   2.718
 6921W        W79181  42.492  40.943  13.919
 6922W        W79182   7.770  32.568   2.767
 6923W        W79183   1.345  43.426  12.912
 6924W        W79184  17.625  40.490   4.113
 6925W        W79185   0.860  16.795   4.239
 6926W        W79186   2.794  22.100  10.641
 6927W        W79187  43.812  17.271   2.815
 6928W        W79188  31.111  21.724   2.356
 6929W        W79189  43.817  33.902  10.948
 6930W        W79190  27.619  22.068  13.010
 6931W        W79191  35.399  17.649   3.797
 6932W        W79192  18.279  11.218  10.493
 6933W        W79193   9.237   2.413   0.837
 6934W        W79194   5.206   8.236  11.920
 6935W        W79195   4.376  12.241  10.463
 6936W        W79196  29.470  39.375   1.880
 6937W        W79197  19.244  18.144  10.605
 6938W        W79198   1.429   4.799   0.731
 6939W        W79199   0.888   1.809  10.544
 6940W        W79200  26.024  38.021   1.215
 6941W        W79201   0.899  14.131   3.276
 6942W        W79202  20.034   1.366   2.275
 6943W        W79203  27.480  37.450  14.458
 6944W        W79204  27.451  10.860  14.834
 6945W        W79205  22.611  29.079  12.984
 6946W        W79206   7.306   4.933  12.565
 6947W        W79207   2.876  17.065   0.854
 6948W        W79208  38.539  19.624  13.448
 6949W        W79209  18.054  35.902  12.342
 6950W        W79210  15.603  39.038   1.694
 6951W        W79211  24.080  35.988   0.882
 6952W        W79212   8.731  21.135  13.480
 6953W        W79213  20.611  24.224  13.334
 6954W        W79214  37.953  14.773   1.838
 6955W        W79215   7.408   1.818   2.809
 6956W        W79216  44.262   1.462   0.462
 6957W        W79217  13.656  30.995  10.979
 6958W        W79218  34.565   7.351  11.399
 6959W        W79219  15.701  37.349   3.369
 6960W        W79220  16.317  33.399   2.410
 6961W        W79221  34.376  36.026  12.442
 6962W        W79222  12.352   9.876   1.401
 6963W        W79223   0.396  23.501  12.576
 6964W        W79224  37.906   4.906   1.344
 6965W        W79225  39.554  43.482   3.720
 6966W        W79226   3.290  17.122  12.383
 6967W        W79227  17.584   1.756   0.468
 6968W        W79228  30.477  38.899  10.521
 6969W        W79229  12.754   6.242  13.890
 6970W        W79230  28.170  10.240   3.296
 6971W        W79231  10.186   8.406   1.284
 6972W        W79232  13.238  21.604   0.306
 6973W        W79233   7.189  35.080   0.370
 6974W        W79234  27.178  18.285  13.015
 6975W        W79235  26.197  14.758  13.401
 6976W        W79236  38.342  21.057   3.184
 6977W        W79237  40.327  11.363  11.045
 6978W        W79238  38.930   9.864  13.913
 6979W        W79239  23.653  38.908   4.720
 6980W        W79240   5.877  13.349  13.436
 6981W        W79241   3.312  15.238   1.781
 6982W        W79242  40.804  43.777  10.571
 6983W        W79243   1.283  36.425   2.723
 6984W        W79244  44.993   3.442  11.874
 6985W        W79245  25.159   4.389   2.844
 6986W        W79246  24.980   3.951   1.806
 6987W        W79247   1.430  29.445  13.871
 6988W        W79248  40.851  24.543   0.939
 6989W        W79249  16.640   1.912  13.044
 6990W        W79250  30.954  40.440   9.953
 6991W        W79251  42.777  15.295  14.880
 6992W        W79252  36.849  13.288  12.858
 6993W        W79253  35.093  10.643   0.308
 6994W        W79254  34.028  18.574  10.501
 6995W        W79255  18.554  15.304   0.783
 6996W        W79256  28.961  39.351  11.057
 6997W        W79257  22.156  13.733  10.455
 6998W        W79258  21.645  24.673   3.335
 6999W        W79259  41.366  31.062   1.244
 7000W        W79260  19.584   9.174  12.579
 7001W        W79261  42.841   0.782  10.501
 7002W        W79262  38.568  13.622   1.419
 7003W        W79263  16.231   6.785  12.345
 7004W        W79264  21.144  13.781  14.769
 7005W        W79265  31.409  16.640   2.894
 7006W        W79266  43.768  20.538  14.914
 7007W        W79267  14.293  29.475   2.294
 7008W        W79268  39.007  17.210   1.866
 7009W        W79269  33.938  41.536  14.891
 7010W        W79270   0.408  31.945  11.946
 7011W        W79271  14.748  26.000   0.247
 7012W        W79272   4.756  19.694   3.192
 7013W        W79273  14.185   6.851   2.316
 7014W        W79274  27.117  40.546   4.611
 7015W        W79275   3.280  43.497   5.273
 7016W        W79276  18.194  15.709  14.292
 7017W        W79277  21.544  31.516  12.066
 7018W        W79278  37.365   8.753   4.737
 7019W        W79279   3.788  36.520   4.230
 7020W        W79280  12.663  18.624  11.972
 7021W        W79281  37.566   5.894   2.403
 7022W        W79282  42.900  40.350   1.252
 7023W        W79283  14.609  11.679   3.346
 7024W        W79284  19.171   6.694   2.869
 7025W        W79285  20.106  14.168  10.927
 7026W        W79286   2.289  39.977   4.806
 7027W        W79287   8.372  32.566   3.633
 7028W        W79288  10.264   3.431  11.558
 7029W        W79289  37.948  16.232   3.199
 7030W        W79290  41.016  36.907   1.236
 7031W        W79291  13.303   6.864  12.431
 7032W        W79292  25.195   6.872   0.924
 7033W        W79293  35.996   1.474   0.468
 7034W        W79294  31.628  17.193   1.928
 7035W        W79295  29.105  11.636   1.815
 7036W        W79296  36.347  17.593  11.483
 7037W        W79297  23.199  19.716  11.958
 7038W        W79298  24.201  38.425   4.186
 7039W        W79299  42.839   7.738  11.956
 7040W        W79300   2.784   3.397   4.243
 7041W        W79301  43.472   7.356  10.618
 7042W        W79302  23.987   8.276  11.022
 7043W        W79303  32.939  15.662   1.890
 7044W        W79304   3.337   4.893   0.964
 7045W        W79305   4.298   5.730  12.545
 7046W        W79306  42.433  37.358   0.393
 7047W        W79307  29.447  15.231  11.005
 7048W        W79308   5.346  35.523  11.376
 7049W        W79309   7.749  43.353   4.752
 7050W        W79310  11.663   4.421   3.653
 7051W        W79311  35.865  33.448  12.388
 7052W        W79312  25.019  10.268   1.347
 7053W        W79313  39.407   8.363  13.863
 7054W        W79314   9.701  26.588  11.407
 7055W        W79315  41.395   3.797   2.314
 7056W        W79316  27.981   8.736  10.415
 7057W        W79317  25.968   0.980  12.910
 7058W        W79318  24.614  30.505   0.731
 7059W        W79319  38.995  23.037  12.059
 7060W        W79320   9.863  23.577   3.786
 7061W        W79321  28.104   4.446   0.465
 7062W        W79322  27.529  18.221   0.896
 7063W        W79323   3.374   9.313   2.861
 7064W        W79324  31.897  42.342   3.756
 7065W        W79325  32.092  40.518  11.434
 7066W        W79326  15.168  20.057   0.453
 7067W        W79327   1.913   1.770   4.677
 7068W        W79328  28.608   7.769   2.687
 7069W        W79329  29.966  42.923  14.405
 7070W        W79330  36.539  20.737  10.096
 7071W        W79331   8.769  12.247  13.419
 7072W        W79332  25.549  19.065   3.752
 7073W        W79333   7.354  34.938  12.077
 7074W        W79334  35.527  10.743  12.890
 7075W        W79335  30.106  17.687   3.198
 7076W        W79336  35.976  11.717   2.219
 7077W        W79337  23.219  36.565  10.451
 7078W        W79338  30.621  29.055   2.803
 7079W        W79339   0.803  21.150  12.025
 7080W        W79340   0.802   4.339   1.918
 7081W        W79341  44.333   3.282  12.951
 7082W        W79342  34.892  31.020  14.898
 7083W        W79343  24.652  39.317  12.970
 7084W        W79344  26.037  17.132   3.758
 7085W        W79345  32.039  38.013  11.869
 7086W        W79346  32.560  44.946   4.638
 7087W        W79347  31.916  39.908   3.275
 7088W        W79348  34.864  32.075   0.321
 7089W        W79349   0.890   3.712   3.228
 7090W        W79350   9.157  28.033  12.423
 7091W        W79351  31.513  24.613  14.470
 7092W        W79352  37.904  22.610   0.391
 7093W        W79353  22.176  42.293   1.255
 7094W        W79354   1.417  18.559  14.894
 7095W        W79355   2.890  14.594  12.938
 7096W        W79356   5.347   7.178  13.042
 7097W        W79357  32.594   1.465   0.447
 7098W        W79358  19.593  14.304   0.807
 7099W        W79359  39.065  31.446   1.745
 7100W        W79360   1.392  44.866   4.642
 7101W        W79361  19.050  23.148   0.856
 7102W        W79362  34.572  25.494   2.895
 7103W        W79363  13.153  24.219  11.451
 7104W        W79364  38.014  34.901  12.956
 7105W        W79365  33.112  20.579  14.877
 7106W        W79366  22.574  29.070   5.684
 7107W        W79367  31.417  10.354  10.499
 7108W        W79368  29.063   4.309  12.425
 7109W        W79369  23.128  11.740  10.991
 7110W        W79370  41.414  38.424  13.474
 7111W        W79371  15.678  26.969  12.998
 7112W        W79372  37.921  28.048   2.722
 7113W        W79373  27.019  27.016  11.128
 7114W        W79374  18.167   8.291  13.460
 7115W        W79375   9.858  10.801  12.954
 7116W        W79376  38.058  28.660  13.793
 7117W        W79377   0.366  14.738  12.985
 7118W        W79378  41.039   7.215   2.700
 7119W        W79379  18.128  15.736   4.757
 7120W        W79380  19.603  36.961  13.799
 7121W        W79381  35.870  25.052   4.797
 7122W        W79382  28.938   1.898   4.279
 7123W        W79383  41.479  24.211  12.566
 7124W        W79384  35.914  43.290   2.684
 7125W        W79385  17.583  11.800  13.810
 7126W        W79386  10.697  31.585   4.226
 7127W        W79387  37.040  21.512   1.221
 7128W        W79388   5.248  28.185   2.230
 7129W        W79389  20.723   4.329   4.314
 7130W        W79390  28.069  11.289  12.996
 7131W        W79391  25.529  37.443  13.547
 7132W        W79392  16.587   6.752  12.923
 7133W        W79393  38.454  13.813  12.041
 7134W        W79394  34.866  14.593   0.362
 7135W        W79395   4.938  30.962   2.229
 7136W        W79396  27.968  27.476   2.836
 7137W        W79397   7.744  32.585   3.748
 7138W        W79398   4.822   5.362   1.909
 7139W        W79399   7.180  31.635  13.913
 7140W        W79400  35.047  27.153  12.341
 7141W        W79401  32.447  23.560   1.698
 7142W        W79402  18.185  29.973   4.599
 7143W        W79403  12.303  20.562   3.278
 7144W        W79404   6.823  34.582  10.973
 7145W        W79405  41.895  22.102  10.951
 7146W        W79406  32.464  31.135  11.528
 7147W        W79407  38.571  10.177   3.843
 7148W        W79408  31.008  31.605   2.691
 7149W        W79409   9.161  18.580   1.717
 7150W        W79410  25.496  32.038   2.781
 7151W        W79411   8.379  37.551  12.512
 7152W        W79412  10.143  43.402   4.615
 7153W        W79413  35.396  15.604   2.267
 7154W        W79414  28.669  24.086  12.487
 7155W        W79415  20.743  13.319   0.393
 7156W        W79416  19.251  44.837   0.314
 7157W        W79417  39.912  39.408  14.949
 7158W        W79418  30.070  30.972  12.916
 7159W        W79419  25.636   0.391  14.782
 7160W        W79420  35.865  37.942  12.080
 7161W        W79421  20.116  43.008   9.932
 7162W        W79422   5.220  32.119   0.820
 7163W        W79423  12.730   6.832   3.671
 7164W        W79424  37.527  17.216  11.975
 7165W        W79425  32.048  39.824   3.846
 7166W        W79426   7.796  27.627  10.474
 7167W        W79427  23.107  14.761   1.771
 7168W        W79428  37.401  13.655   3.330
 7169W        W79429  20.619   7.247  12.855
 7170W        W79430  41.426  14.624  11.465
 7171W        W79431  19.628  21.583   1.257
 7172W        W79432  41.308  40.333  10.642
 7173W        W79433  44.863  28.627  11.880
 7174W        W79434   0.970   3.926   4.702
 7175W        W79435  17.717  12.208   4.219
 7176W        W79436  38.344  23.221  11.569
 7177W        W79437  27.061  13.780   0.811
 7178W        W79438  38.879  44.454  13.333
 7179W        W79439  18.054  42.970   2.188
 7180W        W79440  19.662  10.804   3.236
 7181W        W79441  13.277  19.176   0.755
 7182W        W79442  23.732  40.422  14.998
 7183W        W79443  31.133  25.136  12.985
 7184W        W79444  40.855  43.819  12.569
 7185W        W79445  10.821  43.468  11.109
 7186W        W79446  39.476  29.433   4.619
 7187W        W79447  15.164  37.938   3.174
 7188W        W79448  28.455  26.457  10.640
 7189W        W79449  18.665  12.245   2.261
 7190W        W79450  25.159  12.309   1.354
 7191W        W79451  36.438   9.294   1.373
 7192W        W79452   9.753  37.000  11.881
 7193W        W79453  17.250  27.538   3.161
 7194W        W79454  13.827  36.388   4.242
 7195W        W79455  10.879  26.677   0.274
 7196W        W79456   8.318  28.020  11.105
 7197W        W79457  10.367  21.097  12.959
 7198W        W79458  30.997   3.442  13.836
 7199W        W79459  24.045  12.160   0.278
 7200W        W79460  33.078   5.761  11.909
 7201W        W79461  28.072  12.711   0.779
 7202W        W79462  33.392   5.436   1.348
 7203W        W79463  14.798  33.024  13.057
 7204W        W79464  14.162  21.736   0.859
 7205W        W79465  43.947   7.684   3.352
 7206W        W79466  14.759   7.229  13.867
 7207W        W79467  37.916  39.923  13.046
 7208W        W79468   1.434  16.125   1.801
 7209W        W79469  16.570   0.783   4.120
 7210W        W79470   0.346  36.013  11.865
 7211W        W79471  24.145  43.934   2.373
 7212W        W79472   0.874  40.480   1.751
 7213W        W79473  39.453   2.403  11.912
 7214W        W79474  29.535   9.309  13.987
 7215W        W79475  21.537  37.497   2.295
 7216W        W79476  15.718  38.894   0.444
 7217W        W79477  21.533  44.400   3.331
 7218W        W79478  13.742   1.413   4.141
 7219W        W79479   7.665  44.760   2.392
 7220W        W79480  24.520  33.919   1.830
 7221W        W79481  37.581   4.314   2.266
 7222W        W79482  26.680  21.149  10.924
 7223W        W79483  21.592  26.129   1.731
 7224W        W79484  43.891  23.233   3.358
 7225W        W79485  37.406  29.052  13.925
 7226W        W79486  35.913   1.373   3.787
 7227W        W79487  21.661  42.500  11.375
 7228W        W79488  40.544  41.040   3.765
 7229W        W79489  44.941  12.849   4.669
 7230W        W79490  19.065  30.545  11.395
 7231W        W79491  27.614  28.680   0.409
 7232W        W79492  35.419  23.674  11.085
 7233W        W79493  35.530  33.413  10.449
 7234W        W79494  21.170  20.753  14.994
 7235W        W79495  23.704  31.123   1.920
 7236W        W79496   4.779   5.361  13.409
 7237W        W79497  42.350  44.358   3.652
 7238W        W79498  36.388  28.442   1.336
 7239W        W79499   0.291   7.819   1.765
 7240W        W79500  21.250  18.275  11.109
 7241W        W79501  35.017  19.271   4.626
 7242W        W79502  23.725  17.702  13.438
 7243W        W79503   0.927  10.722  14.381
 7244W        W79504  29.641  44.453   3.157
 7245W        W79505  34.388  27.630  13.959
 7246W        W79506  16.762  26.684   4.241
 7247W        W79507   6.698  26.047  14.420
 7248W        W79508   2.367  11.672  11.973
 7249W        W79509  43.995  24.557   0.748
 7250W        W79510  26.661  43.434  10.619
 7251W        W79511   8.341  11.266  12.035
 7252W        W79512  18.677  26.155  12.983
 7253W        W79513   8.188   8.299   0.460
 7254W        W79514   1.849  17.775   2.749
 7255W        W79515  23.152  23.514  13.477
 7256W        W79516   0.876  17.617   4.337
 7257W        W79517  36.489  36.979  14.842
 7258W        W79518  26.982  29.516  10.115
 7259W        W79519   3.806  42.349   2.696
 7260W        W79520  26.090  36.438   2.871
 7261W        W79521   5.377  22.659   2.809
 7262W        W79522   6.858  36.464  11.503
 7263W        W79523  39.389  20.273   2.694
 7264W        W79524  37.967  33.558  12.361
 7265W        W79525  30.421  10.193  14.466
 7266W        W79526  13.756  35.480   0.384
 7267W        W79527  34.064  27.956   2.811
 7268W        W79528  20.166  12.171   3.239
 7269W        W79529  23.031  35.420   1.234
 7270W        W79530  21.652  13.719   4.115
 7271W        W79531  29.651  12.283  13.833
 7272W        W79532   1.926  42.362  14.487
 7273W        W79533   3.306  41.303   9.981
 7274W        W79534  38.420  10.197   1.805
 7275W        W79535  10.808  42.027   4.699
 7276W        W79536  28.972  44.311   2.304
 7277W        W79537  20.221  33.910   3.834
 7278W        W79538  14.827  36.475   0.893
 7279W        W79539  18.690   6.388  10.021
 7280W        W79540  29.572  17.790  14.488
 7281W        W79541  19.754   0.747   2.339
 7282W        W79542  23.164   1.764   1.411
 7283W        W79543   7.301  26.104   5.665
 7284W        W79544  17.302  16.179  14.007
 7285W        W79545  11.821  26.617  11.939
 7286W        W79546  38.536  12.265   3.828
 7287W        W79547  26.656  21.068   1.740
 7288W        W79548   2.812   7.359   0.881
 7289W        W79549  30.633  13.257   3.712
 7290W        W79550   4.446   2.252   0.940
 7291W        W79551  16.272  37.082   0.798
 7292W        W79552  26.132  25.096   2.863
 7293W        W79553  40.396  26.560  11.510
 7294W        W79554  38.546  19.169   1.257
 7295W        W79555   0.779  44.295  10.505
 7296W        W79556  14.116  28.635   1.234
 7297W        W79557  24.112  14.777   0.482
 7298W        W79558  37.433  12.676  13.946
 7299W        W79559  22.108  26.062   5.183
 7300W        W79560  13.714  44.306  12.859
 7301W        W79561   2.950  37.551  12.378
 7302W        W79562   4.319  15.667  12.539
 7303W        W79563   8.333   0.259   4.244
 7304W        W79564  42.359   6.192   0.814
 7305W        W79565  33.996  10.804   4.711
 7306W        W79566  41.318  34.052  10.985
 7307W        W79567  43.931  13.623  11.491
 7308W        W79568  11.202  14.802   3.315
 7309W        W79569  23.179  14.789   3.641
 7310W        W79570   4.217   7.348   0.271
 7311W        W79571  14.775  33.116  11.499
 7312W        W79572  27.592  26.075  14.949
 7313W        W79573  35.578  30.534   3.827
 7314W        W79574   2.450  36.409   3.379
 7315W        W79575  32.402   6.404   2.742
 7316W        W79576  25.511  37.378   1.416
 7317W        W79577  18.618  12.774  12.888
 7318W        W79578  18.666  39.442  10.627
 7319W        W79579  17.093  41.385   5.271
 7320W        W79580  32.058  41.339   3.379
 7321W        W79581  16.578  41.473  10.452
 7322W        W79582   3.757  22.053   1.357
 7323W        W79583  24.512  28.107   0.940
 7324W        W79584  29.626   4.301  10.634
 7325W        W79585  15.280   7.858   0.932
 7326W        W79586  33.997   2.748  13.819
 7327W        W79587  20.680  13.738   1.359
 7328W        W79588   9.165  31.537  14.815
 7329W        W79589   2.870  11.795  11.111
 7330W        W79590  25.661  29.446   3.150
 7331W        W79591   2.723  29.021   2.387
 7332W        W79592  20.215  23.536   5.211
 7333W        W79593  36.592  30.597   1.738
 7334W        W79594  32.929  13.347   2.410
 7335W        W79595  19.617  17.190   4.799
 7336W        W79596   3.411  35.859   1.800
 7337W        W79597  36.486  19.198   3.820
 7338W        W79598   1.750   7.314   4.793
 7339W        W79599  30.586  40.496  14.514
 7340W        W79600  10.815  33.099   1.318
 7341W        W79601  10.676  13.732   1.403
 7342W        W79602  17.061   9.771  10.904
 7343W        W79603   1.422  25.170   3.805
 7344W        W79604  21.138  18.762  10.911
 7345W        W79605  26.590  21.533   0.877
 7346W        W79606  44.266   2.880  12.835
 7347W        W79607  23.046   7.803   4.203
 7348W        W79608  34.462  38.562   2.341
 7349W        W79609   8.355  44.800  14.428
 7350W        W79610  30.460  42.301  14.883
 7351W        W79611  37.972   0.314  10.922
 7352W        W79612  44.446  18.643   4.800
 7353W        W79613   1.756  28.576   4.832
 7354W        W79614  27.050  28.985   4.712
 7355W        W79615  40.356  22.232  10.534
 7356W        W79616  42.378  19.638  13.015
 7357W        W79617   2.319  18.666  14.507
 7358W        W79618  38.497  41.509  12.567
 7359W        W79619  20.036  43.786   1.235
 7360W        W79620  29.160  27.589  12.406
 7361W        W79621  41.410   8.335   2.190
 7362W        W79622  33.116  18.083  12.498
 7363W        W79623  12.661  14.096   2.805
 7364W        W79624  33.463  21.555  12.518
 7365W        W79625  21.525  31.054  12.988
 7366W        W79626   5.439  12.262   0.370
 7367W        W79627  22.095  18.052   2.301
 7368W        W79628  36.508  19.180  12.848
 7369W        W79629   9.177  12.271   0.938
 7370W        W79630  43.946  26.702  12.346
 7371W        W79631   1.281  13.646   3.722
 7372W        W79632  30.080  14.201  10.962
 7373W        W79633  40.893  15.177   0.308
 7374W        W79634   6.334   4.902  13.323
 7375W        W79635  39.549  43.002   3.651
 7376W        W79636   2.265   0.480   2.224
 7377W        W79637  12.151  21.133   4.718
 7378W        W79638   4.323  14.117   4.288
 7379W        W79639   6.913   7.800  14.781
 7380W        W79640  24.184  34.953   0.335
 7381W        W79641  40.497  12.219  11.570
 7382W        W79642  20.177   0.282  13.042
 7383W        W79643  36.996  31.437   3.792
 7384W        W79644  17.684  33.414  13.921
 7385W        W79645  40.541  26.191  14.861
 7386W        W79646  17.698  10.369  11.527
 7387W        W79647  41.475   9.200  13.352
 7388W        W79648   5.376  40.990  10.994
 7389W        W79649  18.166  19.617  10.606
 7390W        W79650  38.433   8.400  14.960
 7391W        W79651   5.789  20.755   3.867
 7392W        W79652   5.309  10.681  13.977
 7393W        W79653  10.174  38.020   4.220
 7394W        W79654  34.444  27.591  10.511
 7395W        W79655   2.856  20.713  13.530
 7396W        W79656  13.788  14.720  14.456
 7397W        W79657  37.057   0.785  12.461
 7398W        W79658  41.520   6.836   3.705
 7399W        W79659  15.680  17.290   0.309
 7400W        W79660   4.378   3.841  13.866
 7401W        W79661  37.531  20.263   2.745
 7402W        W79662  44.370  14.226   1.332
 7403W        W79663   6.401  32.530  13.021
 7404W        W79664  41.308  21.738   3.367
 7405W        W79665  23.163  41.789   4.257
 7406W        W79666  30.058  24.031   3.211
 7407W        W79667  24.986  26.054  12.002
 7408W        W79668  36.510  26.010   2.808
 7409W        W79669  22.585  13.268   4.316
 7410W        W79670  31.132   0.822   1.697
 7411W        W79671  10.648  32.564  11.869
 7412W        W79672  13.603  18.726   0.868
 7413W        W79673  31.429  33.020  14.958
 7414W        W79674  42.344  44.385   4.311
 7415W        W79675  37.345  30.540   1.788
 7416W        W79676  31.571  19.169  13.411
 7417W        W79677  21.032   8.677  10.613
 7418W        W79678  33.906  22.602  12.404
 7419W        W79679  24.017  25.188   4.281
 7420W        W79680  21.644  26.679  11.455
 7421W        W79681   7.211  38.530  14.828
 7422W        W79682  19.162  29.028   0.297
 7423W        W79683  24.994   2.751  10.935
 7424W        W79684  32.010  44.283   5.272
 7425W        W79685  37.419  12.167   2.726
 7426W        W79686  44.762  24.639  11.966
 7427W        W79687  44.777  39.521   4.745
 7428W        W79688  43.494  37.070  13.961
 7429W        W79689   1.891  17.744   3.374
 7430W        W79690  18.610  34.370  12.937
 7431W        W79691  30.584  25.078   0.460
 7432W        W79692   9.813  12.124  14.375
 7433W        W79693  33.619  42.497   2.802
 7434W        W79694  10.640  26.640  13.451
 7435W        W79695  11.728  34.479   0.432
 7436W        W79696  28.133  23.510  12.418
 7437W        W79697  17.734  30.611  12.067
 7438W        W79698  41.795  20.063  14.387
 7439W        W79699   7.319  39.321  13.815
 7440W        W79700  39.418  26.476  13.803
 7441W        W79701  17.207  10.855  14.884
 7442W        W79702  40.841  10.840  12.387
 7443W        W79703  34.499  16.715  12.451
 7444W        W79704  22.569  38.969  14.297
 7445W        W79705  44.883  34.118   2.203
 7446W        W79706  39.429  30.088   2.273
 7447W        W79707  20.108   8.210   4.775
 7448W        W79708  41.397   6.362  12.496
 7449W        W79709   6.277  11.651  13.450
 7450W        W79710   9.163   5.850  11.495
 7451W        W79711   6.749  26.539  10.490
 7452W        W79712  13.119  14.268  12.522
 7453W        W79713  39.045  35.864  14.849
 7454W        W79714   6.801  30.120   4.153
 7455W        W79715   3.721  12.236  13.490
 7456W        W79716  20.716  19.053  13.989
 7457W        W79717  35.068  44.857   1.753
 7458W        W79718  14.266  26.491   5.183
 7459W        W79719  17.076  18.638  13.506
 7460W        W79720  12.299  29.970  11.953
 7461W        W79721  31.047  26.576   4.819
 7462W        W79722  43.493  12.695  11.885
 7463W        W79723  38.903  36.853   3.790
 7464W        W79724  21.141  28.146   9.953
 7465W        W79725  28.018  15.607   5.300
 7466W        W79726  35.551  27.470  10.619
 7467W        W79727  14.784  37.029  10.460
 7468W        W79728  23.047  18.671  12.479
 7469W        W79729  20.120  12.853  11.028
 7470W        W79730  17.570  20.090   4.230
 7471W        W79731   8.213  14.250  13.484
 7472W        W79732  34.471  33.454  12.846
 7473W        W79733  35.018  15.237  11.077
 7474W        W79734   8.685  34.020  13.846
 7475W        W79735  27.593  16.610   3.148
 7476W        W79736  20.151  26.958   1.328
 7477W        W79737   2.422   0.492   4.776
 7478W        W79738  44.931  38.039  10.454
 7479W        W79739  21.735  28.111  12.476
 7480W        W79740   1.934  31.991  13.435
 7481W        W79741  19.706  18.709  12.518
 7482W        W79742  26.041  20.626  13.383
 7483W        W79743  44.945   9.257   4.276
 7484W        W79744   8.351  12.746   4.281
 7485W        W79745   7.751   5.786   0.408
 7486W        W79746  42.486  39.520  10.557
 7487W        W79747  14.681  28.034   4.701
 7488W        W79748  30.061  30.002  10.949
 7489W        W79749  22.567  21.105  10.890
 7490W        W79750  40.321  19.685   0.304
 7491W        W79751  21.106  24.198  12.972
 7492W        W79752  42.295  27.594   2.725
 7493W        W79753  26.693  34.062  13.064
 7494W        W79754  10.789  27.160  11.879
 7495W        W79755   7.695   9.271  13.392
 7496W        W79756   9.863  15.196  13.833
 7497W        W79757  33.503   9.889  10.505
 7498W        W79758  39.445  14.755  14.933
 7499W        W79759  15.692  10.144   4.198
 7500W        W79760  42.850  32.427   4.168
 7501W        W79761  22.613   5.687   4.167
 7502W        W79762  42.296  24.598   3.198
 7503W        W79763  36.440  13.738   1.313
 7504W        W79764  16.165  30.135   2.688
 7505W        W79765  26.580  17.718   2.783
 7506W        W79766  27.193   9.759   4.807
 7507W        W79767   0.878  19.144   4.273
 7508W        W79768  27.016  20.530  13.408
 7509W        W79769   5.919  17.145  11.990
 7510W        W79770  39.423   4.392   1.259
 7511W        W79771   5.349   2.807   4.764
 7512W        W79772  42.320  16.664   1.297
 7513W        W79773  13.287  34.888   1.273
 7514W        W79774   4.762  39.434  11.082
 7515W        W79775  21.026  27.149  12.989
 7516W        W79776  32.945  31.944  13.439
 7517W        W79777  22.740  15.283   2.227
 7518W        W79778  37.895   6.689   1.423
 7519W        W79779   2.807   6.684   1.929
 7520W        W79780  13.617   3.831   2.837
 7521W        W79781  13.325   9.875  13.924
 7522W        W79782  39.034   9.385   4.604
 7523W        W79783  23.103  39.971   2.863
 7524W        W79784  20.272  27.090  14.351
 7525W        W79785  24.629  18.263  11.498
 7526W        W79786  24.230  15.706   3.632
 7527W        W79787  42.971  33.093  14.379
 7528W        W79788  23.053  43.870   3.759
 7529W        W79789  30.939  16.676  12.012
 7530W        W79790   0.277   0.476  11.058
 7531W        W79791  42.001  42.316   0.826
 7532W        W79792   6.393  23.106  11.966
 7533W        W79793  35.039  26.037  14.342
 7534W        W79794  37.945  26.650   1.376
 7535W        W79795  25.537  10.716  14.393
 7536W        W79796   1.919  17.157  10.440
 7537W        W79797  40.414  14.331  12.454
 7538W        W79798   7.909  19.608   3.331
 7539W        W79799  18.714  21.224  13.888
 7540W        W79800   0.944   1.313   9.921
 7541W        W79801   2.955   2.256  14.794
 7542W        W79802  27.527  31.143  14.342
 7543W        W79803  32.562  12.151   4.664
 7544W        W79804  11.253  23.110  10.507
 7545W        W79805  40.963   3.306   3.147
 7546W        W79806   3.738  11.799  13.018
 7547W        W79807  40.040  39.418   4.283
 7548W        W79808  34.441  27.984  14.467
 7549W        W79809   5.438   6.216  10.639
 7550W        W79810  40.950  39.325  11.471
 7551W        W79811  18.626  18.669   3.851
 7552W        W79812  24.003  18.732  12.562
 7553W        W79813  14.802  25.710  13.041
 7554W        W79814  43.354  29.055   3.781
 7555W        W79815  27.601   8.304  13.866
 7556W        W79816   6.283  25.482   5.120
 7557W        W79817  17.125  28.961   3.700
 7558W        W79818   2.814   4.830   2.259
 7559W        W79819  16.645  11.734  14.862
 7560W        W79820  34.415   8.229   2.208
 7561W        W79821  12.170  16.704   4.269
 7562W        W79822   6.733  33.580  13.331
 7563W        W79823  14.775  38.339   2.758
 7564W        W79824  25.592  34.414   2.340
 7565W        W79825   5.229  15.589   2.299
 7566W        W79826  26.969  10.226   1.880
 7567W        W79827  44.988  26.996   1.889
 7568W        W79828  36.443  12.265   0.444
 7569W        W79829  25.142  39.533   9.502
 7570W        W79830   3.294  30.994   4.253
 7571W        W79831  19.143  33.626   0.438
 7572W        W79832  40.937  26.618  12.058
 7573W        W79833  38.471   9.242  11.987
 7574W        W79834  20.196  24.105   3.751
 7575W        W79835   8.846   3.288   0.263
 7576W        W79836  30.995   4.925  14.454
 7577W        W79837  23.700  15.251   4.314
 7578W        W79838  23.199  33.068   4.246
 7579W        W79839  12.731   7.336  14.497
 7580W        W79840  35.926   0.850   3.167
 7581W        W79841  21.025  28.098   1.872
 7582W        W79842  39.992  28.620  10.459
 7583W        W79843  22.026   6.409   2.727
 7584W        W79844  41.364  23.628  12.474
 7585W        W79845  20.233  14.177   4.305
 7586W        W79846  38.990  12.807   1.257
 7587W        W79847  25.504  20.259   2.392
 7588W        W79848  26.090  23.539  10.982
 7589W        W79849   0.377  39.372   1.845
 7590W        W79850   9.692  25.648   4.722
 7591W        W79851   8.834  27.059   2.315
 7592W        W79852  34.385  24.672   1.263
 7593W        W79853  21.143   0.384  12.851
 7594W        W79854  15.089  28.970   9.614
 7595W        W79855   2.871   8.395  11.536
 7596W        W79856  13.330  19.124   4.138
 7597W        W79857  29.631  38.427  10.557
 7598W        W79858  20.131   2.788   0.740
 7599W        W79859  11.184  30.084   5.623
 7600W        W79860  43.450   9.763  13.866
 7601W        W79861  37.473  16.199   4.224
 7602W        W79862   5.324   4.924   2.298
 7603W        W79863   8.393  33.035   2.397
 7604W        W79864   1.841  24.227   4.690
 7605W        W79865  16.633  40.412  11.542
 7606W        W79866  33.984  35.513  11.940
 7607W        W79867  18.739  37.578   4.135
 7608W        W79868  31.955  22.621   0.384
 7609W        W79869  26.024   9.207  11.587
 7610W        W79870   8.212   4.292   0.826
 7611W        W79871  25.706  21.260   4.321
 7612W        W79872  36.426  18.051  10.587
 7613W        W79873  41.999   2.278   4.826
 7614W        W79874  29.995  32.571  13.856
 7615W        W79875  17.649  18.256  14.389
 7616W        W79876  14.151  38.935   2.838
 7617W        W79877  32.592  40.489   0.379
 7618W        W79878  43.425   3.715   3.695
 7619W        W79879  29.644  31.114   2.387
 7620W        W79880  42.893  24.028  12.030
 7621W        W79881  25.646  10.207   0.732
 7622W        W79882  31.448   7.339   4.129
 7623W        W79883   6.897  34.002  14.764
 7624W        W79884  43.980   5.262   0.848
 7625W        W79885  22.020  40.949  13.436
 7626W        W79886   0.393  34.901  12.997
 7627W        W79887   6.329  30.636   4.297
 7628W        W79888  29.064  19.661   1.273
 7629W        W79889  29.969   7.356  14.953
 7630W        W79890  19.232  19.195   2.846
 7631W        W79891  18.687  19.541  13.381
 7632W        W79892  15.664  39.022  11.915
 7633W        W79893  26.966  30.999   2.895
 7634W        W79894  31.102  25.603  13.392
 7635W        W79895  44.416  40.871   0.348
 7636W        W79896  22.159   3.865  11.580
 7637W        W79897  38.928   6.282  10.569
 7638W        W79898  12.831  12.210   3.666
 7639W        W79899  19.060  19.547  13.338
 7640W        W79900  43.788  44.932   0.483
 7641W        W79901  41.515  40.004  10.456
 7642W        W79902  16.115   7.239   2.192
 7643W        W79903  13.718  28.064   5.723
 7644W        W79904  35.001  30.470  10.050
 7645W        W79905  12.329  12.134  12.851
 7646W        W79906  19.552  16.079   0.271
 7647W        W79907  21.603  33.539  11.912
 7648W        W79908  14.731   0.388   0.817
 7649W        W79909  34.892  38.832  13.909
 7650W        W79910  22.545   6.838  12.539
 7651W        W79911  25.599  44.265   0.431
 7652W        W79912  13.134  44.345   0.478
 7653W        W79913   7.769  35.855  10.097
 7654W        W79914   1.754  26.597   0.406
 7655W        W79915  23.203   5.837   1.851
 7656W        W79916  31.465  29.045   0.853
 7657W        W79917  16.629  10.226   2.895
 7658W        W79918  20.534  30.051  12.881
 7659W        W79919  31.461   0.983   4.226
 7660W        W79920  16.682   2.725   1.886
 7661W        W79921  11.690  39.877   4.264
 7662W        W79922   7.813  17.244   3.869
 7663W        W79923  38.431   2.347   0.917
 7664W        W79924  32.461  40.324  12.497
 7665W        W79925  41.971  16.292   3.288
 7666W        W79926  26.152  25.971   3.174
 7667W        W79927  11.274   5.207   1.773
 7668W        W79928  33.552   4.883   2.305
 7669W        W79929   4.866  42.792  13.542
 7670W        W79930  33.908  20.057  12.340
 7671W        W79931  34.509  34.981   3.775
 7672W        W79932  41.466  41.312   2.233
 7673W        W79933  43.923  18.272   1.310
 7674W        W79934   6.242   6.714  12.988
 7675W        W79935  37.968  44.408   2.765
 7676W        W79936  12.662  42.977   4.306
 7677W        W79937  33.121  41.835  11.892
 7678W        W79938  13.209  40.527   1.393
 7679W        W79939  44.837  20.657   2.202
 7680W        W79940   3.791  42.306   1.833
 7681W        W79941  35.089  24.166  13.375
 7682W        W79942  35.971  18.168  11.084
 7683W        W79943   7.793  10.684  14.809
 7684W        W79944   3.782  43.459   0.891
 7685W        W79945  29.139  32.126   1.216
 7686W        W79946  25.132  19.164  10.994
 7687W        W79947  22.197  13.239  14.504
 7688W        W79948  40.525  21.041   1.807
 7689W        W79949  34.922  24.156  14.851
 7690W        W79950  15.175   4.858   3.354
 7691W        W79951  18.786   9.778   3.271
 7692W        W79952  25.516  18.175   1.815
 7693W        W79953   6.773  36.389   2.799
 7694W        W79954  16.137  41.507  14.459
 7695W        W79955  19.651  13.259   5.319
 7696W        W79956   0.798  37.060   2.743
 7697W        W79957   0.806  20.050   2.778
 7698W        W79958   8.805   7.755   4.770
 7699W        W79959  41.866  43.844  12.075
 7700W        W79960  28.102  36.585   9.937
 7701W        W79961  33.919  44.326   1.241
 7702W        W79962  19.076  41.989   1.273
 7703W        W79963  21.057  33.517   3.149
 7704W        W79964  18.203  10.358  10.412
 7705W        W79965  35.539   3.752   4.305
 7706W        W79966   3.928   4.825  14.512
 7707W        W79967  18.264  19.677   3.286
 7708W        W79968   4.884  22.042   2.260
 7709W        W79969   4.719  38.026   3.294
 7710W        W79970  44.436  32.494  10.547
 7711W        W79971  27.609  40.800  10.513
 7712W        W79972  26.600   3.772   1.795
 7713W        W79973  36.483  24.116   1.879
 7714W        W79974  43.014  23.664  14.413
 7715W        W79975  32.548  12.782  12.940
 7716W        W79976  44.002  29.469  11.886
 7717W        W79977  40.045   3.362  10.906
 7718W        W79978  29.965  16.767   4.316
 7719W        W79979  37.369  22.561   2.337
 7720W        W79980   3.390  23.995  11.984
 7721W        W79981  10.659   6.302   3.833
 7722W        W79982  36.985   8.402  11.405
 7723W        W79983   5.808  15.640  14.472
 7724W        W79984  26.554  14.748  12.579
 7725W        W79985  16.185   8.704   0.937
 7726W        W79986   7.907  38.336  13.058
 7727W        W79987   6.856  23.617   2.361
 7728W        W79988  13.676  11.768   1.314
 7729W        W79989  17.796  14.614   3.165
 7730W        W79990  43.471  11.694   1.284
 7731W        W79991  38.972  40.385  12.959
 7732W        W79992  34.551   6.721   4.145
 7733W        W79993  21.230  12.619   4.752
 7734W        W79994  17.722   8.297   2.848
 7735W        W79995  26.173  14.222  12.417
 7736W        W79996  21.719  35.863  11.568
 7737W        W79997  43.305  40.918   3.372
 7738W        W79998   2.359  28.539  12.462
 7739W        W79999  42.827  33.422   4.757
 7740W        W80000  28.139  40.393  10.060
 7741W        W80001   9.335  18.184   3.337
 7742W        W80002   6.769   7.343  13.355
 7743W        W80003  30.614  14.675  10.475
 7744W        W80004  43.862  31.052  13.849
 7745W        W80005  39.981   4.381   1.444
 7746W        W80006  31.445  33.897  12.469
 7747W        W80007   4.899  41.491  11.464
 7748W        W80008  20.532  28.955   2.210
 7749W        W80009  19.682  34.023  13.026
 7750W        W80010  44.473  10.234  12.079
 7751W        W80011  43.857   7.200  14.819
 7752W        W80012   9.737  35.102   0.293
 7753W        W80013  27.623  38.021  14.988
 7754W        W80014  36.047  13.264  10.458
 7755W        W80015  21.588  41.400  14.505
 7756W        W80016  21.216  21.613  10.004
 7757W        W80017  12.320  16.753  11.401
 7758W        W80018   3.224  15.618  11.900
 7759W        W80019   3.402  20.670   3.157
 7760W        W80020   7.179  14.310   1.741
 7761W        W80021  24.635   1.390  13.391
 7762W        W80022  23.103   3.937   0.422
 7763W        W80023  31.584  27.475  13.046
 7764W        W80024  11.166  33.024  11.436
 7765W        W80025  41.363   8.366  14.494
 7766W        W80026   0.308  26.007  11.122
 7767W        W80027  40.507  44.397   0.349
 7768W        W80028   3.718  22.086  11.533
 7769W        W80029  35.934  10.322  11.522
 7770W        W80030  35.485  44.274   0.326
 7771W        W80031  40.497   1.831   4.318
 7772W        W80032   2.251  10.717   1.239
 7773W        W80033  43.384  38.056  14.480
 7774W        W80034  24.714   4.407  11.058
 7775W        W80035  30.993  17.633   1.429
 7776W        W80036  23.029  32.454  11.584
 7777W        W80037  40.417  20.595  14.853
 7778W        W80038  28.464   0.392   4.710
 7779W        W80039  32.575  43.499  12.546
 7780W        W80040  42.031  26.092   2.885
 7781W        W80041   8.298  27.102  11.536
 7782W        W80042  18.129  39.531  13.890
 7783W        W80043   7.220   1.461   1.224
 7784W        W80044  17.596  17.100   1.917
 7785W        W80045  22.643  18.654   4.276
 7786W        W80046  39.414   0.452   1.317
 7787W        W80047   6.423  21.649  14.471
 7788W        W80048   7.177   5.848   1.327
 7789W        W80049  32.615  20.095   4.143
 7790W        W80050  15.277  17.623   2.662
 7791W        W80051  16.673   9.166  13.387
 7792W        W80052  43.005   2.333  14.799
 7793W        W80053  38.890   0.929   1.919
 7794W        W80054  22.136  34.001   1.248
 7795W        W80055  22.008  32.111   1.288
 7796W        W80056   7.325  16.659  13.470
 7797W        W80057  21.172  26.547   0.895
 7798W        W80058  13.834  35.546   2.677
 7799W        W80059  17.793  16.660   0.768
 7800W        W80060  31.639  37.566   3.249
 7801W        W80061   0.433  11.662   1.387
 7802W        W80062  16.200  29.560   1.760
 7803W        W80063  11.774   8.802   0.960
 7804W        W80064  39.957  22.099   3.361
 7805W        W80065  21.575  44.349   2.280
 7806W        W80066  31.417  27.549   0.378
 7807W        W80067  24.525   1.811   2.727
 7808W        W80068  22.218  27.186   1.935
 7809W        W80069   8.739  18.132  12.391
 7810W        W80070  30.498   5.251   4.727
 7811W        W80071  38.852  18.055  11.592
 7812W        W80072   7.744  20.741  10.897
 7813W        W80073  20.651   3.314   3.295
 7814W        W80074   4.702  44.322   1.266
 7815W        W80075   8.228   6.320   3.712
 7816W        W80076  15.702  20.264   2.352
 7817W        W80077  42.783  18.081   3.722
 7818W        W80078   7.821  31.424   4.348
 7819W        W80079   9.292  14.252   0.296
 7820W        W80080  33.052  37.483  12.449
 7821W        W80081  26.969  13.131   0.315
 7822W        W80082   8.803  28.434   3.294
 7823W        W80083   0.967   9.819  11.578
 7824W        W80084  16.804  22.249  14.819
 7825W        W80085  41.468  39.894  10.912
 7826W        W80086  25.996  30.508  13.871
 7827W        W80087  35.059  29.618  11.076
 7828W        W80088   2.415   0.435   1.888
 7829W        W80089  38.833  25.197   0.266
 7830W        W80090  21.111  24.148   1.332
 7831W        W80091  14.194  42.477  10.438
 7832W        W80092  34.600   3.766   4.195
 7833W        W80093  25.197  14.789   0.965
 7834W        W80094  11.716  40.466   1.893
 7835W        W80095  36.589  19.772   1.344
 7836W        W80096   9.860  28.514   3.859
 7837W        W80097   5.248  20.538  13.001
 7838W        W80098  26.963  43.361   2.347
 7839W        W80099  39.534   0.915  11.970
 7840W        W80100  31.417  38.061  14.508
 7841W        W80101  24.169   1.347   0.962
 7842W        W80102  17.167   6.335   5.744
 7843W        W80103  24.994  37.424   0.788
 7844W        W80104  42.805  21.249  12.571
 7845W        W80105  32.608   1.846  12.091
 7846W        W80106  32.954   4.810   3.335
 7847W        W80107  15.270   3.432   1.230
 7848W        W80108  41.920  38.546   3.824
 7849W        W80109  37.019   2.860   2.188
 7850W        W80110  42.297   6.299   4.627
 7851W        W80111  38.917  29.961  11.437
 7852W        W80112  33.029  16.203  10.900
 7853W        W80113  10.284   8.401  13.330
 7854W        W80114  42.907  34.878   3.221
 7855W        W80115  42.844  17.651  13.359
 7856W        W80116   5.766  32.599  13.336
 7857W        W80117  28.088  17.679   3.331
 7858W        W80118  30.550  16.763   3.237
 7859W        W80119   4.704  18.143   4.159
 7860W        W80120  26.106  28.184   3.688
 7861W        W80121  25.968  23.567   2.238
 7862W        W80122  33.987  11.239   1.729
 7863W        W80123  11.790  13.833  13.468
 7864W        W80124   6.243  24.481  11.432
 7865W        W80125  28.464   3.238   4.626
 7866W        W80126  18.784  35.516   3.774
 7867W        W80127  14.327  26.012  11.410
 7868W        W80128  30.007  32.038  12.988
 7869W        W80129  44.264  25.519   3.763
 7870W        W80130   3.788  42.305   2.354
 7871W        W80131  22.206  22.138  10.973
 7872W        W80132   6.337  24.642   1.370
 7873W        W80133  15.096   0.356   3.739
 7874W        W80134  18.079   7.282   4.768
 7875W        W80135  22.015   1.360   3.184
 7876W        W80136  16.200  14.758  13.496
 7877W        W80137  15.105   3.780   2.399
 7878W        W80138  28.962   1.476  14.381
 7879W        W80139  43.305  43.823   0.736
 7880W        W80140  13.115  44.412   2.236
 7881W        W80141  14.210  21.726  12.434
 7882W        W80142  16.277  42.873  14.394
 7883W        W80143  35.967  21.256  13.835
 7884W        W80144  16.198  21.213  12.500
 7885W        W80145  21.641  40.406   4.684
 7886W        W80146   5.422  16.647   3.662
 7887W        W80147  22.057  14.723  14.332
 7888W        W80148  37.856  34.388  12.082
 7889W        W80149   6.858  13.791  11.010
 7890W        W80150  15.623  28.080  12.535
 7891W        W80151  31.962  37.017   1.445
 7892W        W80152  27.508  24.096   3.764
 7893W        W80153  35.861   2.245  14.950
 7894W        W80154  15.793  17.139   9.941
 7895W        W80155  33.459  41.874  14.919
 7896W        W80156  13.257  32.623   1.756
 7897W        W80157   0.742  38.420   3.262
 7898W        W80158  34.924  18.724   2.258
 7899W        W80159   0.914  18.080   1.834
 7900W        W80160   0.282  13.223  11.581
 7901W        W80161  36.884  10.252  10.115
 7902W        W80162  42.807  18.764   0.297
 7903W        W80163  26.585  18.746  11.498
 7904W        W80164   3.386  36.467  13.893
 7905W        W80165  16.772  25.122  14.937
 7906W        W80166  30.927  27.582  14.332
 7907W        W80167  42.024   3.867  11.551
 7908W        W80168  43.940  13.693  14.770
 7909W        W80169  12.239  30.044  10.468
 7910W        W80170  37.444  23.593  13.439
 7911W        W80171  16.808  42.460   2.180
 7912W        W80172  41.026  42.360   4.693
 7913W        W80173  35.494  36.471   0.258
 7914W        W80174   7.674  24.700   3.735
 7915W        W80175  38.356   3.320  11.577
 7916W        W80176   6.212   4.858   5.257
 7917W        W80177  29.136  30.125  12.935
 7918W        W80178  30.604  21.097  12.438
 7919W        W80179  17.647   0.964  14.289
 7920W        W80180   8.746   2.800   4.115
 7921W        W80181  43.809  16.626  10.513
 7922W        W80182  15.764  34.438  10.596
 7923W        W80183  10.323  12.692  14.848
 7924W        W80184   4.767   2.910   3.838
 7925W        W80185  10.721  35.049   1.737
 7926W        W80186  19.746  13.810  13.035
 7927W        W80187  26.673  20.545   2.717
 7928W        W80188  10.837  37.951  12.041
 7929W        W80189   3.366  31.576  12.998
 7930W        W80190  23.113  10.309  13.879
 7931W        W80191  20.033  32.140  10.888
 7932W        W80192  11.706  29.497  13.882
 7933W        W80193  24.088   1.337   2.239
 7934W        W80194  11.820   9.835  10.438
 7935W        W80195  39.875  39.904  13.057
 7936W        W80196  10.232   7.867  12.037
 7937W        W80197   9.347   7.258  13.444
 7938W        W80198  17.244  24.011  13.026
 7939W        W80199  23.581  31.617  12.471
 7940W        W80200  37.580  21.729  13.895
 7941W        W80201  30.546  27.113   0.964
 7942W        W80202  19.621  22.232  10.609
 7943W        W80203  31.938  22.560   2.186
 7944W        W80204  40.413   9.843  14.851
 7945W        W80205  26.010  32.429  13.020
 7946W        W80206  20.062   7.882   4.266
 7947W        W80207  23.623  28.518   0.768
 7948W        W80208  29.944  28.088   2.393
 7949W        W80209  21.228  13.830   3.667
 7950W        W80210  35.854  11.292   3.682
 7951W        W80211  34.908   5.204  14.390
 7952W        W80212  24.567  26.473   4.349
 7953W        W80213  10.709  44.790  10.476
 7954W        W80214  33.016  23.527   4.780
 7955W        W80215  23.620  42.475  11.433
 7956W        W80216   7.292  21.120   3.801
 7957W        W80217  31.100  37.499  11.107
 7958W        W80218  16.225  38.044  11.090
 7959W        W80219  42.970  26.069   3.353
 7960W        W80220  36.874  15.146   4.827
 7961W        W80221   1.472  25.025  10.572
 7962W        W80222  11.287  38.842  13.416
 7963W        W80223  44.975  40.905   3.767
 7964W        W80224  38.046  42.379   2.227
 7965W        W80225  23.583  14.721  14.427
 7966W        W80226  19.692  31.984   4.295
 7967W        W80227  21.164  37.956   5.321
 7968W        W80228  20.603  34.472  14.933
 7969W        W80229   0.909  22.034  14.330
 7970W        W80230  36.454  17.203  12.006
 7971W        W80231  18.160  25.540   2.674
 7972W        W80232   9.236  44.429  13.030
 7973W        W80233  31.552  31.972   2.870
 7974W        W80234  32.913   6.684  10.963
 7975W        W80235  22.239  27.175  11.095
 7976W        W80236   4.289  23.627  14.002
 7977W        W80237   7.360  24.064   2.192
 7978W        W80238  36.060  40.834  14.322
 7979W        W80239  44.347  17.150   1.403
 7980W        W80240  37.566   7.358  14.450
 7981W        W80241  11.311   4.821   1.745
 7982W        W80242  43.408  36.502   2.821
 7983W        W80243  18.714   6.680   4.297
 7984W        W80244   0.356  36.883  11.526
 7985W        W80245  41.029  35.446  10.888
 7986W        W80246  37.371  19.198   3.287
 7987W        W80247   8.295  28.084   3.187
 7988W        W80248  19.746  28.681  12.958
 7989W        W80249   1.241  43.981  12.059
 7990W        W80250  18.628  28.009  13.056
 7991W        W80251  20.749   4.753  11.866
 7992W        W80252  11.257  43.318   3.282
 7993W        W80253  20.753  39.812  12.529
 7994W        W80254   5.712  32.589   2.882
 7995W        W80255  32.462  42.873  12.898
 7996W        W80256  36.858   9.691   5.307
 7997W        W80257  15.706  35.060   3.345
 7998W        W80258  39.548  41.853  12.969
 7999W        W80259  19.197   5.755   1.402
 8000W        W80260  28.047   3.342   2.267
 8001W        W80261   5.908  42.906   3.371
 8002W        W80262  12.257   2.247   3.751
 8003W        W80263   5.733  41.815   0.392
 8004W        W80264  41.330   1.266   2.310
 8005W        W80265  25.064  20.623   4.195
 8006W        W80266  26.536  28.992  14.972
 8007W        W80267  31.589   5.332  13.900
 8008W        W80268   0.840  42.017  11.992
 8009W        W80269  40.510  19.611  13.800
 8010W        W80270   3.954  27.654   0.847
 8011W        W80271   5.302  17.663   2.296
 8012W        W80272  39.816  16.793  13.797
 8013W        W80273  21.618  24.115   4.225
 8014W        W80274   4.725  22.043  10.951
 8015W        W80275  33.994   4.293   1.308
 8016W        W80276   4.925  11.190   3.366
 8017W        W80277  22.712  13.735   3.338
 8018W        W80278  14.828  18.765   5.322
 8019W        W80279   2.335  36.378   3.764
 8020W        W80280  16.116  26.540   1.903
 8021W        W80281  24.552  12.356  11.111
 8022W        W80282  16.598  15.262  13.033
 8023W        W80283  37.525  26.118   1.259
 8024W        W80284  44.334  23.632  13.024
 8025W        W80285  44.753  25.969   3.727
 8026W        W80286  14.219  14.316  14.947
 8027W        W80287  13.637   3.838   1.774
 8028W        W80288  35.423  17.790   5.593
 8029W        W80289  28.146  12.313   2.249
 8030W        W80290  11.357  19.138   0.867
 8031W        W80291  15.771  18.055   1.423
 8032W        W80292   8.807  20.622  10.504
 8033W        W80293  23.065  20.676   3.668
 8034W        W80294   6.850  28.644   2.764
 8035W        W80295  14.701  17.223  14.295
 8036W        W80296  19.181  15.131   1.781
 8037W        W80297  39.004  27.459  12.932
 8038W        W80298  37.437  20.690  14.460
 8039W        W80299  37.549  29.608   3.718
 8040W        W80300  16.567  44.791  11.436
 8041W        W80301  32.636  16.254  11.498
 8042W        W80302  12.129  36.364  12.016
 8043W        W80303  42.351   2.240  14.505
 8044W        W80304  16.139  18.139   3.693
 8045W        W80305  24.593   1.277   2.234
 8046W        W80306  26.030  14.782   2.402
 8047W        W80307  12.250  27.946   4.833
 8048W        W80308  10.318  36.575   2.662
 8049W        W80309  40.404  25.067  14.902
 8050W        W80310  35.960  28.461  12.576
 8051W        W80311  41.958  36.999   3.292
 8052W        W80312  42.513  39.848  13.366
 8053W        W80313  31.527  21.018   2.888
 8054W        W80314  30.461  39.812   4.147
 8055W        W80315  24.093  42.958  14.447
 8056W        W80316  18.090   5.256  12.937
 8057W        W80317  21.648  21.600  10.158
 8058W        W80318  16.287   5.347   2.213
 8059W        W80319  33.927  10.675   3.832
 8060W        W80320  42.902  41.401  14.977
 8061W        W80321  38.956  12.615  13.037
 8062W        W80322  21.704  23.189  12.078
 8063W        W80323  11.211   8.830  13.506
 8064W        W80324  18.180   2.320  10.628
 8065W        W80325  12.788  33.575   3.834
 8066W        W80326  30.474  15.107   2.806
 8067W        W80327  28.024  42.470  11.498
 8068W        W80328  38.427   4.300   0.768
 8069W        W80329  27.533  24.127   0.338
 8070W        W80330  44.833  28.497  12.344
 8071W        W80331   9.393  42.892   0.370
 8072W        W80332  22.564  13.837  12.923
 8073W        W80333  33.506  15.208   0.330
 8074W        W80334   9.372   1.331   0.260
 8075W        W80335   6.729  44.885  10.445
 8076W        W80336  14.148  28.118  13.029
 8077W        W80337  41.981  37.897   1.225
 8078W        W80338  40.927  24.504  13.369
 8079W        W80339  43.936  10.802  11.091
 8080W        W80340  41.875   1.280   4.291
 8081W        W80341  18.082  29.607   1.344
 8082W        W80342  14.753  30.565   4.660
 8083W        W80343  15.207  14.227  10.985
 8084W        W80344  42.815  37.353  11.517
 8085W        W80345  34.420   6.359   0.467
 8086W        W80346  13.223  13.768  11.033
 8087W        W80347   4.762  17.194   1.750
 8088W        W80348  33.474  44.261  14.381
 8089W        W80349  19.063   3.869   3.831
 8090W        W80350  27.056  42.009   3.821
 8091W        W80351  44.466  14.729   1.833
 8092W        W80352  34.608  20.717   4.141
 8093W        W80353   3.239  41.429   3.785
 8094W        W80354  21.034  27.579   0.320
 8095W        W80355  10.251   1.317   3.385
 8096W        W80356  16.104  37.567  12.550
 8097W        W80357  41.945  35.947  12.477
 8098W        W80358  44.762  36.099   4.287
 8099W        W80359  44.815  19.680   3.249
 8100W        W80360   8.343  43.810   3.736
 8101W        W80361  42.342  19.067   4.131
 8102W        W80362  38.839  21.259   4.655
 8103W        W80363  23.510  28.646  12.906
 8104W        W80364  19.673   4.811  10.636
 8105W        W80365   2.756   6.190  13.000
 8106W        W80366   7.189  32.631   1.416
 8107W        W80367  25.212  41.958   3.157
 8108W        W80368  32.066  22.645   0.736
 8109W        W80369  12.625  29.139  14.293
 8110W        W80370  21.110  18.568  13.485
 8111W        W80371   4.704  38.965   1.276
 8112W        W80372  28.580  10.138  11.605
 8113W        W80373  37.384   8.220   3.208
 8114W        W80374  14.226  29.954   3.736
 8115W        W80375  37.572  25.210   1.357
 8116W        W80376   8.297  12.183  12.835
 8117W        W80377  33.526  11.156   3.155
 8118W        W80378  12.330  18.074   0.954
 8119W        W80379  13.764  38.876   1.325
 8120W        W80380  36.860  43.818   0.865
 8121W        W80381  24.481  36.896   2.310
 8122W        W80382   3.375  38.923  11.574
 8123W        W80383  32.599  10.647  13.936
 8124W        W80384  10.164  40.365   0.880
 8125W        W80385   7.837   8.699  11.876
 8126W        W80386  27.958  28.074  12.410
 8127W        W80387  20.689  15.761   0.245
 8128W        W80388   9.158   3.455   1.384
 8129W        W80389  28.678  20.704  11.477
 8130W        W80390  33.523  16.263   1.904
 8131W        W80391  27.953  42.331   4.168
 8132W        W80392  21.558   7.382   4.222
 8133W        W80393   4.734  20.137   0.786
 8134W        W80394  29.604  37.864   4.765
 8135W        W80395  42.925  16.802   4.233
 8136W        W80396   9.175  39.059  10.494
 8137W        W80397  31.021  33.482   0.928
 8138W        W80398  25.004  37.839   0.480
 8139W        W80399  43.768   7.383  13.431
 8140W        W80400   6.798  36.502  13.324
 8141W        W80401   4.403  36.918   1.799
 8142W        W80402   8.338  17.143  14.322
 8143W        W80403  33.085  17.192   3.696
 8144W        W80404   5.260  18.165  12.511
 8145W        W80405  13.670   9.181   3.385
 8146W        W80406  34.934   4.367  11.484
 8147W        W80407   2.424  21.677   3.851
 8148W        W80408   3.802  32.411  12.346
 8149W        W80409  43.320  33.029   2.830
 8150W        W80410  22.047   0.362   3.690
 8151W        W80411  14.094   9.780   2.901
 8152W        W80412  19.583  33.457   2.366
 8153W        W80413  41.498  18.138   2.209
 8154W        W80414  23.508  13.265  11.577
 8155W        W80415  17.235  39.982  10.106
 8156W        W80416  15.667  28.181   3.758
 8157W        W80417  41.981  32.491   1.848
 8158W        W80418  34.582  29.557   0.919
 8159W        W80419   2.907   8.838  14.929
 8160W        W80420  22.625  43.375   1.439
 8161W        W80421  29.061  31.091  14.822
 8162W        W80422  18.293  40.472   0.783
 8163W        W80423  28.966  36.903   2.202
 8164W        W80424  37.864  38.987   3.341
 8165W        W80425  34.439  15.629  13.832
 8166W        W80426  36.047  29.483  10.474
 8167W        W80427  22.192  37.014   3.639
 8168W        W80428  15.594   1.896   2.273
 8169W        W80429  31.521  18.210  11.890
 8170W        W80430  14.269  19.645  14.766
 8171W        W80431   7.417   8.674   4.599
 8172W        W80432  12.303   2.738   0.956
 8173W        W80433  26.513  36.981   4.604
 8174W        W80434  18.211  17.075  13.911
 8175W        W80435  24.625  42.426  11.895
 8176W        W80436  41.821  30.513   5.173
 8177W        W80437  36.002   1.317   3.149
 8178W        W80438  32.996  40.528  11.502
 8179W        W80439  43.013  43.925  12.397
 8180W        W80440  33.539  43.923  14.810
 8181W        W80441  31.923  10.636  12.007
 8182W        W80442  25.217  10.866   2.273
 8183W        W80443  27.497  10.314   0.386
 8184W        W80444  37.976  35.872  13.871
 8185W        W80445  22.170  26.125   3.319
 8186W        W80446   1.388  39.951  14.328
 8187W        W80447  42.395  28.459  11.557
 8188W        W80448  13.656  32.940   4.331
 8189W        W80449  13.816  14.758  11.861
 8190W        W80450  43.486   7.834   0.257
 8191W        W80451   0.911  11.787   4.257
 8192W        W80452  17.070  12.618   0.896
 8193W        W80453  13.813  13.111  12.868
 8194W        W80454  35.422  33.025   3.303
 8195W        W80455  10.744  42.490   4.626
 8196W        W80456  38.540  17.693  14.373
 8197W        W80457   6.832  29.588   2.829
 8198W        W80458   7.669   2.240  10.516
 8199W        W80459  19.202  30.131   0.802
 8200W        W80460  23.187  39.439   1.280
 8201W        W80461  24.083  31.132  12.898
 8202W        W80462  32.084  35.569   0.748
 8203W        W80463  24.067   4.869  14.847
 8204W        W80464   7.705  31.420   4.813
 8205W        W80465   2.248  23.140   2.712
 8206W        W80466  19.242  41.401  12.995
 8207W        W80467  37.436  34.989  10.616
 8208W        W80468  39.477  21.540   4.337
 8209W        W80469  41.377  17.086  13.526
 8210W        W80470   8.232  27.979  11.380
 8211W        W80471   7.404  28.500   3.385
 8212W        W80472  11.202  18.574   2.708
 8213W        W80473   4.411  11.663  10.605
 8214W        W80474  21.663  33.522   0.768
 8215W        W80475  30.605  12.804  10.911
 8216W        W80476  35.900  23.017   0.469
 8217W        W80477  44.467  42.832  14.866
 8218W        W80478  17.297  36.361  14.416
 8219W        W80479  43.839   6.839  14.920
 8220W        W80480   8.775   9.724  14.784
 8221W        W80481  21.741  33.027   3.771
 8222W        W80482  42.397   3.359   4.788
 8223W        W80483   9.180  36.919   0.910
 8224W        W80484  29.927   6.342   4.617
 8225W        W80485  15.589  17.298   5.593
 8226W        W80486  20.134  44.360  11.079
 8227W        W80487  19.778   1.444   0.961
 8228W        W80488  35.000  23.008   4.670
 8229W        W80489  35.391  36.455  13.394
 8230W        W80490   0.340  27.497   2.772
 8231W        W80491   8.784  16.150   2.343
 8232W        W80492  11.815  36.386  11.924
 8233W        W80493  12.801  26.550   4.156
 8234W        W80494  31.115   8.226  13.812
 8235W        W80495  41.839  14.216   9.940
 8236W        W80496  27.953  40.547  12.950
 8237W        W80497  30.566  19.711  14.985
 8238W        W80498  12.255  13.340   1.386
 8239W        W80499  40.918  13.664   0.809
 8240W        W80500  15.710   4.379   0.329
 8241W        W80501  11.299  12.709   1.425
 8242W        W80502  38.393   9.162   3.819
 8243W        W80503  31.405  12.836  11.518
 8244W        W80504  31.072  21.697  13.957
 8245W        W80505   5.833  11.724  10.471
 8246W        W80506  14.335  38.980   1.820
 8247W        W80507  37.470  36.912  13.917
 8248W        W80508  13.179   3.288   4.822
 8249W        W80509  10.672  11.310  13.386
 8250W        W80510  28.973   1.330  12.969
 8251W        W80511   2.924  18.560   1.876
 8252W        W80512  15.791  26.043  13.509
 8253W        W80513  25.185   7.347   0.923
 8254W        W80514  38.970  37.909  10.507
 8255W        W80515  12.313   8.394   1.263
 8256W        W80516  40.363  36.587   1.787
 8257W        W80517  33.509  23.701   4.810
 8258W        W80518   6.307  40.464   1.854
 8259W        W80519  38.860  25.613  11.033
 8260W        W80520  24.714  24.139   4.688
 8261W        W80521   4.356  37.891   3.331
 8262W        W80522  29.507  37.392   1.695
 8263W        W80523  38.477  37.840   4.678
 8264W        W80524   4.720   1.960  10.972
 8265W        W80525  15.755   7.183   0.930
 8266W        W80526  28.655  39.317   4.346
 8267W        W80527  33.624  36.034  11.496
 8268W        W80528  40.005  20.685  14.412
 8269W        W80529  43.774  24.575  12.076
 8270W        W80530  15.652   3.923   0.260
 8271W        W80531  37.553  39.393  10.515
 8272W        W80532  32.605  16.691  14.424
 8273W        W80533  18.146   8.779  11.025
 8274W        W80534  34.590   5.196   4.201
 8275W        W80535  13.255  23.603   2.805
 8276W        W80536  32.423  27.500   4.189
 8277W        W80537  42.875  33.076   3.322
 8278W        W80538   5.915  34.404   0.778
 8279W        W80539   6.703  27.486  13.944
 8280W        W80540  40.435  38.547   3.811
 8281W        W80541   4.855  20.125   4.231
 8282W        W80542  39.828  16.616   3.152
 8283W        W80543  10.235  22.674   1.783
 8284W        W80544  30.437  14.219  11.601
 8285W        W80545  19.564  10.151   1.797
 8286W        W80546   2.394  10.324   3.361
 8287W        W80547  30.146  34.092   4.349
 8288W        W80548  42.938  13.140   3.357
 8289W        W80549  13.798  33.884   0.479
 8290W        W80550  38.532  13.338  13.881
 8291W        W80551  14.818   9.190  14.001
 8292W        W80552  43.939  38.418   1.305
 8293W        W80553  41.418  10.275   3.641
 8294W        W80554  13.748  21.018   1.820
 8295W        W80555  25.624  26.034  14.773
 8296W        W80556  42.941  27.987   3.703
 8297W        W80557  42.474  11.636  11.949
 8298W        W80558  10.687   2.902  11.413
 8299W        W80559  43.771   0.924  11.388
 8300W        W80560  37.476  16.571   2.274
 8301W        W80561  42.360  35.545   2.300
 8302W        W80562  41.513  23.571  14.999
 8303W        W80563   5.776  38.361  10.544
 8304W        W80564   8.663  42.302   1.885
 8305W        W80565  28.987  18.158   3.836
 8306W        W80566  38.916  27.059   3.796
 8307W        W80567  28.501   0.853  11.869
 8308W        W80568   3.327  34.533  13.326
 8309W        W80569  42.457   5.886  14.488
 8310W        W80570  42.443  26.127  14.422
 8311W        W80571   5.869  18.671   4.667
 8312W        W80572  36.938  43.918   3.858
 8313W        W80573   6.194  22.030   3.648
 8314W        W80574  44.472  12.296  12.520
 8315W        W80575  23.602  15.615   1.446
 8316W        W80576  21.151  42.390  13.960
 8317W        W80577  22.092  31.456  14.803
 8318W        W80578   6.221  29.106  12.016
 8319W        W80579  34.983  25.217   3.277
 8320W        W80580  25.004  27.592  13.938
 8321W        W80581  21.531  25.593   1.326
 8322W        W80582  24.062  26.601  10.615
 8323W        W80583   5.347  18.757   2.412
 8324W        W80584  33.025   7.762   2.762
 8325W        W80585   1.815  14.264  11.977
 8326W        W80586  44.868  40.971  10.453
 8327W        W80587  36.937  17.159   0.882
 8328W        W80588  44.438  10.201   5.169
 8329W        W80589  21.584   7.707  10.526
 8330W        W80590  30.127   2.236   1.772
 8331W        W80591  21.118  24.047  11.065
 8332W        W80592  38.058  19.556   1.760
 8333W        W80593  38.843  24.035  10.628
 8334W        W80594  43.330  20.634  11.432
 8335W        W80595  39.887  29.132  10.940
 8336W        W80596  22.519  43.914  11.119
 8337W        W80597   6.232  35.896   9.949
 8338W        W80598  41.465   1.944   4.262
 8339W        W80599  10.319  20.060  11.031
 8340W        W80600  43.021  26.205   0.446
 8341W        W80601  17.147   6.253   5.232
 8342W        W80602  22.512  27.020  12.851
 8343W        W80603  19.143  30.467   0.433
 8344W        W80604  44.440  34.554  11.378
 8345W        W80605   0.291  36.364  12.494
 8346W        W80606  23.213  41.825   1.804
 8347W        W80607   6.805  40.900   1.369
 8348W        W80608  26.006  25.478   0.844
 8349W        W80609  14.810   3.848  13.318
 8350W        W80610  44.946  41.976   1.842
 8351W        W80611  24.079  34.479  13.493
 8352W        W80612   1.860  16.124  14.482
 8353W        W80613  37.992  31.456   0.786
 8354W        W80614  39.543   2.276  13.009
 8355W        W80615   8.726   1.774  14.792
 8356W        W80616   3.846  27.065   3.190
 8357W        W80617  34.604   0.816  10.459
 8358W        W80618  25.059  35.557   0.813
 8359W        W80619  29.132  15.215  11.573
 8360W        W80620  29.049  12.247  14.287
 8361W        W80621  33.438  20.642  13.357
 8362W        W80622  21.096   2.397   3.671
 8363W        W80623  22.724  11.253   4.769
 8364W        W80624  36.571   3.762   0.731
 8365W        W80625  13.616  29.510   9.999
 8366W        W80626  24.593  25.139   1.700
 8367W        W80627  27.161  14.102   0.258
 8368W        W80628  21.608   5.221  11.044
 8369W        W80629  30.523  20.622   4.665
 8370W        W80630  29.975  31.958  12.500
 8371W        W80631  21.136  11.772   3.819
 8372W        W80632  37.517  36.352  11.449
 8373W        W80633  25.621  20.093   0.742
 8374W        W80634  13.733   8.212  11.057
 8375W        W80635  18.768  15.793   4.747
 8376W        W80636  24.001   3.299  10.606
 8377W        W80637  42.865  41.315  11.586
 8378W        W80638   3.365   2.720  12.556
 8379W        W80639  43.515  30.042  13.974
 8380W        W80640  26.471  27.039  13.999
 8381W        W80641  29.506  33.906   2.837
 8382W        W80642  29.168  37.031  12.482
 8383W        W80643  21.085  15.114  10.106
 8384W        W80644  29.494   5.305  14.363
 8385W        W80645  39.390   9.875   3.712
 8386W        W80646   4.342   0.448   4.250
 8387W        W80647  41.040   9.267  11.562
 8388W        W80648  23.194  36.924   3.726
 8389W        W80649   0.836  15.154   2.714
 8390W        W80650  20.181  44.340   4.215
 8391W        W80651  18.687  25.153   2.714
 8392W        W80652  43.841  39.549  13.439
 8393W        W80653   7.268  14.143  12.406
 8394W        W80654  17.178   2.247  14.288
 8395W        W80655   7.720   1.362   4.249
 8396W        W80656  25.555  10.372  10.432
 8397W        W80657  44.397   2.913   4.679
 8398W        W80658  27.057  40.340  11.516
 8399W        W80659  37.889  37.049  11.946
 8400W        W80660  39.978  24.005  14.851
 8401W        W80661  22.196  24.621  13.796
 8402W        W80662  18.131  25.588   4.230
 8403W        W80663  30.075   9.890  11.937
 8404W        W80664   8.182  28.022   1.392
 8405W        W80665  44.872  29.989   0.395
 8406W        W80666  28.519  11.694   4.760
 8407W        W80667  21.025  17.122  12.050
 8408W        W80668  37.849   3.229  14.770
 8409W        W80669  41.860  44.455   2.703
 8410W        W80670  30.565   5.753  14.289
 8411W        W80671  40.339   4.822   4.641
 8412W        W80672  38.336  24.099  13.846
 8413W        W80673  19.125  26.999   2.749
 8414W        W80674  30.999  39.883  14.856
 8415W        W80675  39.050   0.834   4.300
 8416W        W80676  29.049  20.123   2.281
 8417W        W80677   2.303  20.769   2.807
 8418W        W80678   8.313  38.494   0.411
 8419W        W80679  31.082  39.952   2.804
 8420W        W80680  20.658   2.945   2.790
 8421W        W80681   6.796  35.417  11.920
 8422W        W80682   7.310  11.177  12.417
 8423W        W80683   6.347  17.198   4.205
 8424W        W80684  36.008  39.358   2.818
 8425W        W80685  37.400  44.868   3.176
 8426W        W80686  32.017  28.002   1.747
 8427W        W80687   9.195  38.449  12.481
 8428W        W80688  28.998   5.830   1.788
 8429W        W80689  22.093  24.112  13.359
 8430W        W80690  41.977  41.465   2.730
 8431W        W80691  11.821   4.259   0.774
 8432W        W80692   1.359  10.878  10.562
 8433W        W80693  11.745  32.469  12.069
 8434W        W80694  34.607  14.291  13.345
 8435W        W80695   3.764  23.539   4.669
 8436W        W80696  18.269  17.119   0.959
 8437W        W80697  41.812  37.481   5.112
 8438W        W80698  12.620  32.468   3.788
 8439W        W80699   1.354  26.687  11.027
 8440W        W80700  29.069  17.713   4.155
 8441W        W80701   0.784  43.459   3.324
 8442W        W80702  18.230  15.694  12.469
 8443W        W80703  26.010  30.142  12.536
 8444W        W80704  19.053  14.726  10.414
 8445W        W80705   7.375  16.812  12.369
 8446W        W80706  34.443  40.798   3.803
 8447W        W80707  11.836  42.368  10.582
 8448W        W80708  32.617   9.150  11.087
 8449W        W80709  19.741  28.120  14.931
 8450W        W80710  34.955  39.938  12.934
 8451W        W80711   7.781  31.440   3.822
 8452W        W80712  31.975  40.026  13.817
 8453W        W80713  28.957  27.644  14.491
 8454W        W80714  20.539  30.957  12.008
 8455W        W80715   2.962  13.228   0.936
 8456W        W80716  19.155   9.852   2.744
 8457W        W80717  15.098  33.039  11.056
 8458W        W80718  20.172   1.854  12.028
 8459W        W80719   2.303   4.247   2.697
 8460W        W80720   0.482  18.198   2.403
 8461W        W80721  12.313  31.112  13.368
 8462W        W80722  18.557  10.144  13.017
 8463W        W80723   3.811  18.784  10.071
 8464W        W80724  14.200   5.721  12.910
 8465W        W80725  25.969  13.351  10.530
 8466W        W80726  26.963  28.021   4.610
 8467W        W80727   3.820  20.759   1.889
 8468W        W80728  44.998   6.330   0.901
 8469W        W80729  33.576  38.993  12.848
 8470W        W80730  19.271   3.734  12.984
 8471W        W80731   0.269   9.826  14.487
 8472W        W80732  11.808  19.659  11.553
 8473W        W80733  13.162  32.405   2.833
 8474W        W80734  34.398  29.503  11.592
 8475W        W80735  19.269  43.914   4.150
 8476W        W80736  12.191  26.638   1.826
 8477W        W80737  19.631  14.268  14.973
 8478W        W80738  17.291  26.002  11.598
 8479W        W80739  13.112   3.912  11.555
 8480W        W80740  15.169  41.368   1.406
 8481W        W80741   5.217  37.011   4.315
 8482W        W80742  15.586  13.314  10.533
 8483W        W80743  19.625  19.684  12.076
 8484W        W80744  32.624  20.256   3.726
 8485W        W80745  33.584  34.049   0.284
 8486W        W80746   8.714  23.117   2.799
 8487W        W80747  15.723  30.513  10.547
 8488W        W80748  26.573  15.246   1.730
 8489W        W80749   8.825  19.744   4.659
 8490W        W80750  29.157   0.295   1.384
 8491W        W80751  22.641  26.012  12.556
 8492W        W80752  17.695  14.252  12.942
 8493W        W80753   8.685  18.226   1.311
 8494W        W80754  17.121  14.625  10.953
 8495W        W80755  36.484  42.479   4.276
 8496W        W80756  21.703  12.678   1.283
 8497W        W80757  22.557  34.609   4.178
 8498W        W80758  28.016  17.307  14.885
 8499W        W80759  18.731  23.045   3.795
 8500W        W80760   9.244  42.391  10.493
 8501W        W80761   7.759  44.863   4.118
 8502W        W80762  25.708  16.622  11.095
 8503W        W80763  39.327  13.827  13.854
 8504W        W80764   9.218  28.987   5.110
 8505W        W80765  32.035  16.102   1.241
 8506W        W80766  24.507  19.629  14.345
 8507W        W80767  26.496  40.506   2.675
 8508W        W80768  12.616  13.740  13.482
 8509W        W80769  18.070  31.957   3.794
 8510W        W80770  31.522   9.725  13.797
 8511W        W80771  21.544  13.843   2.288
 8512W        W80772  20.566  41.417  14.827
 8513W        W80773  17.083  44.868  13.943
 8514W        W80774  26.037  39.823  10.944
 8515W        W80775  18.703  19.116   0.801
 8516W        W80776  38.332  18.714  10.555
 8517W        W80777  27.451  34.439   4.258
 8518W        W80778  23.538  17.675  14.852
 8519W        W80779  29.670   4.850   3.713
 8520W        W80780  13.834  11.750   4.120
 8521W        W80781   8.351  19.180  14.392
 8522W        W80782   7.232  12.851  10.975
 8523W        W80783  29.521   0.810  11.504
 8524W        W80784  14.830  39.318   1.305
 8525W        W80785  23.120  43.982  10.443
 8526W        W80786  41.402  21.072   4.232
 8527W        W80787  30.622  36.923   1.822
 8528W        W80788  39.868  44.418   4.285
 8529W        W80789  21.740  20.650  13.969
 8530W        W80790  26.590  39.431   1.368
 8531W        W80791  13.635   3.329  14.296
 8532W        W80792  18.126  29.460   3.820
 8533W        W80793  35.399  31.616   3.807
 8534W        W80794  35.474  20.068   5.224
 8535W        W80795  33.982   1.454  11.946
 8536W        W80796  24.231  23.094   1.369
 8537W        W80797   9.670  16.315   3.681
 8538W        W80798  30.519  37.837  10.583
 8539W        W80799  37.346  43.846   2.804
 8540W        W80800  22.587  28.545  13.390
 8541W        W80801  11.325  32.494   0.452
 8542W        W80802  20.579  35.895  14.976
 8543W        W80803  33.558  43.009  10.135
 8544W        W80804   6.356  44.275   0.381
 8545W        W80805  26.618  35.097  12.086
 8546W        W80806  22.124  34.113   4.711
 8547W        W80807  13.652  31.586   2.184
 8548W        W80808  12.200  30.452  14.807
 8549W        W80809  25.045  42.856   5.213
 8550W        W80810  36.977  11.669  10.431
 8551W        W80811  19.599  20.138   0.268
 8552W        W80812  19.627  18.180  14.799
 8553W        W80813  11.780   6.239   0.941
 8554W        W80814  11.641   7.851   3.796
 8555W        W80815  32.909  26.609   4.301
 8556W        W80816  21.578   6.874  10.993
 8557W        W80817  25.521   9.257  12.412
 8558W        W80818  41.405  26.567  10.968
 8559W        W80819   1.350  27.678   1.376
 8560W        W80820   8.186  10.823   3.367
 8561W        W80821   9.857  36.904   2.792
 8562W        W80822  26.478  38.946  11.124
 8563W        W80823  24.099  37.066  10.443
 8564W        W80824  41.398  36.458   2.257
 8565W        W80825  19.666  32.053  11.506
 8566W        W80826  26.597  12.219  14.329
 8567W        W80827  24.595  23.708   1.720
 8568W        W80828  20.067  43.416   1.300
 8569W        W80829  17.195  37.873   3.716
 8570W        W80830  35.554   9.745   3.748
 8571W        W80831  27.034  34.515  12.345
 8572W        W80832  37.850  30.428   3.202
 8573W        W80833  14.108  18.075  13.384
 8574W        W80834   4.706   7.900   4.674
 8575W        W80835  30.652   1.918  12.395
 8576W        W80836  29.928  19.123  13.939
 8577W        W80837   5.369  36.493   4.616
 8578W        W80838  19.643   2.301   2.879
 8579W        W80839  24.501  28.081   9.928
 8580W        W80840  43.910  42.487   3.294
 8581W        W80841  17.211  29.488   0.369
 8582W        W80842  41.798  26.697   3.260
 8583W        W80843  25.118  25.148   1.443
 8584W        W80844  27.524  13.223   4.670
 8585W        W80845  40.924  37.047   2.272
 8586W        W80846  35.373  40.829  10.893
 8587W        W80847  44.926  15.152   2.761
 8588W        W80848  16.644  44.853   2.225
 8589W        W80849  23.575  21.633   3.256
 8590W        W80850   5.867   4.258  13.883
 8591W        W80851  15.306  36.059  13.008
 8592W        W80852   0.466  25.507  13.431
 8593W        W80853   1.886  39.002  11.579
 8594W        W80854   7.788  35.358   0.243
 8595W        W80855  38.536  20.042   0.242
 8596W        W80856  34.882  10.203   4.343
 8597W        W80857  41.870  19.592   2.307
 8598W        W80858  13.126  32.432  13.994
 8599W        W80859  36.038  28.093   3.362
 8600W        W80860   2.328  44.340  11.071
 8601W        W80861  22.642  25.056   1.709
 8602W        W80862  20.103  31.049  14.304
 8603W        W80863  14.705  28.037   9.459
 8604W        W80864  28.468   9.880  12.465
 8605W        W80865  18.118  40.912   1.832
 8606W        W80866   9.881  32.104   0.961
 8607W        W80867  32.580   6.721   3.717
 8608W        W80868  22.092  41.956  13.406
 8609W        W80869  26.989  22.525  12.932
 8610W        W80870  28.061  15.293  12.948
 8611W        W80871  25.521   0.801   0.932
 8612W        W80872  14.317  23.710   3.149
 8613W        W80873   1.848  10.257   4.115
 8614W        W80874   2.434  41.960   4.310
 8615W        W80875  20.122  32.055  12.499
 8616W        W80876  27.483  16.779  11.062
 8617W        W80877  32.108   5.425   0.921
 8618W        W80878  23.159  21.611   1.761
 8619W        W80879  32.924  34.571   3.634
 8620W        W80880  38.541   4.351   2.256
 8621W        W80881  28.640  31.976  13.915
 8622W        W80882  33.052  19.670   2.381
 8623W        W80883  43.776  32.600  14.012
 8624W        W80884  29.428  11.798   4.690
 8625W        W80885  16.626   7.273   3.744
 8626W        W80886   1.738  36.945   2.250
 8627W        W80887   3.342  37.999  14.018
 8628W        W80888  23.108  28.131  10.974
 8629W        W80889  35.002  36.408  11.890
 8630W        W80890  13.265  31.557  12.367
 8631W        W80891  25.141  39.923   2.210
 8632W        W80892  18.728  11.230   0.745
 8633W        W80893  25.511  21.663   1.744
 8634W        W80894  25.636  25.488   1.440
 8635W        W80895  36.931  28.111  13.397
 8636W        W80896   1.408  23.702  13.979
 8637W        W80897   9.327  28.544  12.019
 8638W        W80898  44.349  27.666  14.457
 8639W        W80899  43.952  28.022  10.965
 8640W        W80900  33.888  26.693   9.996
 8641W        W80901  18.752  12.792  10.475
 8642W        W80902  31.134   4.293   0.366
 8643W        W80903  37.484  42.404   1.223
 8644W        W80904   1.460  41.942  14.010
 8645W        W80905  17.654  28.487  12.080
 8646W        W80906  14.171   3.795  11.904
 8647W        W80907   3.914  40.019   1.290
 8648W        W80908  30.157   9.882  10.477
 8649W        W80909  21.554  31.531  13.337
 8650W        W80910  17.727  10.711  12.530
 8651W        W80911  39.031  18.245  14.024
 8652W        W80912  20.135  27.452   0.440
 8653W        W80913  31.543  11.651  11.528
 8654W        W80914  32.603  34.009  14.511
 8655W        W80915  33.396  22.538  14.903
 8656W        W80916   0.473  17.147  10.411
 8657W        W80917  17.607  43.888   3.677
 8658W        W80918   9.364  29.078  12.863
 8659W        W80919  10.660   7.910   3.146
 8660W        W80920   8.845  12.182  11.565
 8661W        W80921   6.389   9.695  11.485
 8662W        W80922  22.509   3.449   0.291
 8663W        W80923  38.866  41.371   0.443
 8664W        W80924  22.008  25.081   3.345
 8665W        W80925  38.462  39.355  11.556
 8666W        W80926  27.100  33.122  10.404
 8667W        W80927  38.425   8.881   3.692
 8668W        W80928  24.561   5.315   3.665
 8669W        W80929  25.536  18.641  12.070
 8670W        W80930   4.332  30.544   2.800
 8671W        W80931  35.380  17.573  13.914
 8672W        W80932  34.509  14.311   2.334
 8673W        W80933  39.464  21.138   1.342
 8674W        W80934  24.990  12.765   3.209
 8675W        W80935  12.226  25.585  12.968
 8676W        W80936  41.796  39.417  13.031
 8677W        W80937  15.636   5.914  11.492
 8678W        W80938  41.011   4.751  10.081
 8679W        W80939   6.776  39.048  14.965
 8680W        W80940  10.823  31.057   2.409
 8681W        W80941  34.564  27.002   4.180
 8682W        W80942  32.926   7.179  13.017
 8683W        W80943  37.539  28.468   1.363
 8684W        W80944  14.231  39.469   0.893
 8685W        W80945  34.045  27.677   4.269
 8686W        W80946  29.121   8.806   2.216
 8687W        W80947  34.460  37.082   3.244
 8688W        W80948   4.807  27.136   4.329
 8689W        W80949  31.411   8.715  12.013
 8690W        W80950  19.588  15.281  13.337
 8691W        W80951  10.265  24.072  13.823
 8692W        W80952  12.164  41.340  10.614
 8693W        W80953   7.761  15.191   2.324
 8694W        W80954  28.576  30.960  12.988
 8695W        W80955   2.722   7.876   2.816
 8696W        W80956   3.799   1.737  14.889
 8697W        W80957  44.351  35.886   1.333
 8698W        W80958  19.701  34.965   3.843
 8699W        W80959  35.490  11.817   2.357
 8700W        W80960  31.098  32.039  14.993
 8701W        W80961  35.929  23.991   4.693
 8702W        W80962  29.955   7.378   4.668
 8703W        W80963  34.565  41.958   1.256
 8704W        W80964   9.724  35.444  12.434
 8705W        W80965  35.965   5.322   4.237
 8706W        W80966  26.689  26.630  12.940
 8707W        W80967  39.446  25.636  10.963
 8708W        W80968   5.336  26.524   9.923
 8709W        W80969   7.404  30.957   4.811
 8710W        W80970  11.332  38.532  11.083
 8711W        W80971   6.357  20.154   2.688
 8712W        W80972   4.337  24.122  10.563
 8713W        W80973  26.036  14.101  14.482
 8714W        W80974   2.457  30.091   0.737
 8715W        W80975  36.011  18.150  10.499
 8716W        W80976  41.405  36.517   1.407
 8717W        W80977  38.526  18.657   2.355
 8718W        W80978  23.017  37.850  12.534
 8719W        W80979  16.775   1.968   2.728
 8720W        W80980  25.519  19.765   5.189
 8721W        W80981   1.261  16.101  11.908
 8722W        W80982  43.290  11.281   1.776
 8723W        W80983  33.900  17.259  14.928
 8724W        W80984  34.481  15.258  13.806
 8725W        W80985  10.658  27.161  11.402
 8726W        W80986  14.231  29.497  11.075
 8727W        W80987  38.353  30.605  10.406
 8728W        W80988   0.827  39.435  12.474
 8729W        W80989   8.782  41.038   1.817
 8730W        W80990  14.804  18.069   3.800
 8731W        W80991   0.366  22.518  11.585
 8732W        W80992   2.770  10.664  11.964
 8733W        W80993  25.671  14.094  12.937
 8734W        W80994  20.274  29.574  12.433
 8735W        W80995  34.512  13.144  14.874
 8736W        W80996  32.555  37.995   1.868
 8737W        W80997  18.232  17.613   3.805
 8738W        W80998  24.985  29.050  14.490
 8739W        W80999  34.068  25.469   0.851
 8740W        W81000  35.938  37.990  13.850
 8741W        W81001  15.237  16.213  11.124
 8742W        W81002  16.097  39.826  13.014
 8743W        W81003  30.634  27.993   1.232
 8744W        W81004   4.820  44.997   0.926
 8745W        W81005  27.550  33.913  13.913
 8746W        W81006  34.933  40.517  10.971
 8747W        W81007  16.119  42.997   1.854
 8748W        W81008  35.917  24.196   2.249
 8749W        W81009  11.186  41.945  13.059
 8750W        W81010  33.546   1.940  14.300
 8751W        W81011  31.646  22.121   2.343
 8752W        W81012  37.960  32.886   4.701
 8753W        W81013  24.994   6.811  14.988
 8754W        W81014   3.391  17.149  12.969
 8755W        W81015  32.941  15.213  11.588
 8756W        W81016  40.457  12.718   4.800
 8757W        W81017   5.848  24.618   2.786
 8758W        W81018  42.387  37.486  11.932
 8759W        W81019   6.759   8.166  12.862
 8760W        W81020  10.302  42.450  11.577
 8761W        W81021  24.988  26.537   2.738
 8762W        W81022  13.149  44.923   0.944
 8763W        W81023   2.434  21.680  14.412
 8764W        W81024  35.477  13.752  13.921
 8765W        W81025  15.767  23.501   4.719
 8766W        W81026  32.914   7.260   4.167
 8767W        W81027  27.974  13.189   0.443
 8768W        W81028   4.447   1.917  13.488
 8769W        W81029  22.122   6.876  10.629
 8770W        W81030  40.471   4.870  11.529
 8771W        W81031  19.572   6.848   3.758
 8772W        W81032  31.044   1.379   2.754
 8773W        W81033  14.630  15.233   5.251
 8774W        W81034  33.589  42.432   3.238
 8775W        W81035  42.510  22.558  12.353
 8776W        W81036  36.470  17.131  13.034
 8777W        W81037  40.917   4.364  11.520
 8778W        W81038  25.059   5.921   0.316
 8779W        W81039  31.110  16.646  14.336
 8780W        W81040  38.851   9.268  11.956
 8781W        W81041  32.602  39.446   2.891
 8782W        W81042  36.366  38.061  13.370
 8783W        W81043  31.569  29.111  13.916
 8784W        W81044  11.309  13.736  14.873
 8785W        W81045  39.961  28.075   4.660
 8786W        W81046   3.396  12.773  12.935
 8787W        W81047  12.310  27.061  14.421
 8788W        W81048  34.534  21.091   1.786
 8789W        W81049   6.913  11.344   3.743
 8790W        W81050   8.760  35.932  13.888
 8791W        W81051  44.837   8.752  13.448
 8792W        W81052   4.284  30.093   0.944
 8793W        W81053   7.770   6.776  14.852
 8794W        W81054  27.456  34.061   2.864
 8795W        W81055  23.039  14.098  13.011
 8796W        W81056  39.928  33.029   1.378
 8797W        W81057  17.219  40.861  10.898
 8798W        W81058  34.921   4.705   3.292
 8799W        W81059   1.333  15.677  12.518
 8800W        W81060  27.558  19.724   4.177
 8801W        W81061  29.956  10.216   3.801
 8802W        W81062   6.702  10.778  12.401
 8803W        W81063  39.902   9.284   0.440
 8804W        W81064   8.378  27.688  12.475
 8805W        W81065  29.474  14.285  13.957
 8806W        W81066  34.097  10.673   0.302
 8807W        W81067  43.377   5.879  11.559
 8808W        W81068  30.470  30.612  12.096
 8809W        W81069  10.747  22.155  12.978
 8810W        W81070  30.047  38.529  14.391
 8811W        W81071  19.745  26.137  11.535
 8812W        W81072  16.190   2.876  11.091
 8813W        W81073  20.580   7.320  14.373
 8814W        W81074  17.271  19.575  14.954
 8815W        W81075  32.445  14.101   3.637
 8816W        W81076  36.456  30.509  13.850
 8817W        W81077  30.454  15.578  12.941
 8818W        W81078  10.315  27.123   1.294
 8819W        W81079  10.710  14.824  14.454
 8820W        W81080  18.634  16.646  10.927
 8821W        W81081  19.538  33.570  13.424
 8822W        W81082   5.255  26.174   5.169
 8823W        W81083  28.108   1.252  12.363
 8824W        W81084  42.367  38.941  12.988
 8825W        W81085   9.805  40.453   3.798
 8826W        W81086   6.250  18.572   3.372
 8827W        W81087  31.103  25.624  10.592
 8828W        W81088   0.848  16.574   2.686
 8829W        W81089  35.910   7.329   5.115
 8830W        W81090  26.100  25.610   1.299
 8831W        W81091  22.078  20.235   9.498
 8832W        W81092  43.941  13.266   0.287
 8833W        W81093  19.760  13.182   2.715
 8834W        W81094  16.735  29.618   4.606
 8835W        W81095   8.808  29.089   4.687
 8836W        W81096  13.119  39.496  11.885
 8837W        W81097  44.934   0.250  14.465
 8838W        W81098   3.313  24.976   4.664
 8839W        W81099  42.509  32.014   2.360
 8840W        W81100  24.028  42.318   2.819
 8841W        W81101  14.194  31.131  10.928
 8842W        W81102  33.476  25.646  14.391
 8843W        W81103  34.515  23.085   2.214
 8844W        W81104   2.904  37.053   0.841
 8845W        W81105  11.771  41.909  14.455
 8846W        W81106  42.801  20.553   1.311
 8847W        W81107  34.407  21.234   1.397
 8848W        W81108  11.143  41.975  13.983
 8849W        W81109   4.222  31.532   4.696
 8850W        W81110  38.485  29.468  14.865
 8851W        W81111   0.324  37.051   0.912
 8852W        W81112  32.437  39.483   1.331
 8853W        W81113   7.855  24.698   0.837
 8854W        W81114  44.380  26.122   0.874
 8855W        W81115   9.201  34.912   4.173
 8856W        W81116  13.835  11.297  12.883
 8857W        W81117  31.932  15.619   1.778
 8858W        W81118  11.159  41.944   2.190
 8859W        W81119  40.029  35.997  11.478
 8860W        W81120  22.202  42.446  12.861
 8861W        W81121  30.621  19.171   0.919
 8862W        W81122  24.597  40.840   5.135
 8863W        W81123  12.259  29.000   2.809
 8864W        W81124  23.022  28.648   1.401
 8865W        W81125   0.365  10.319   4.772
 8866W        W81126  32.504  38.351  14.770
 8867W        W81127  29.169  38.025  14.474
 8868W        W81128  34.934  43.822  14.515
 8869W        W81129  39.885  27.691   0.275
 8870W        W81130  26.096  37.959   4.728
 8871W        W81131  11.723  42.960   4.184
 8872W        W81132   3.378  11.758   0.758
 8873W        W81133  15.804   1.967  13.957
 8874W        W81134  39.997  18.789  12.945
 8875W        W81135  10.298  37.867  12.355
 8876W        W81136  22.079   2.830  14.350
 8877W        W81137  26.508   9.332  13.826
 8878W        W81138  30.997  17.652  12.042
 8879W        W81139  18.222  31.061   3.747
 8880W        W81140  13.633   1.810   2.719
 8881W        W81141   4.357   3.939  11.412
 8882W        W81142  44.915   1.243   0.821
 8883W        W81143  35.895  16.284  12.917
 8884W        W81144  12.775  40.939   2.189
 8885W        W81145  32.084  10.187   2.408
 8886W        W81146   8.303  42.431   4.200
 8887W        W81147  12.612  22.144   2.349
 8888W        W81148  38.331  37.552  14.318
 8889W        W81149  29.654  21.755  15.000
 8890W        W81150  41.318  10.729   0.325
 8891W        W81151  33.113  16.316   3.828
 8892W        W81152  25.652   9.798   2.278
 8893W        W81153  34.995  40.479  13.864
 8894W        W81154   1.440  10.361   3.228
 8895W        W81155  24.565   4.902   4.295
 8896W        W81156   2.268   3.436  13.503
 8897W        W81157  16.112   3.878  13.486
 8898W        W81158  17.600  22.515   0.275
 8899W        W81159  42.483  12.821  11.910
 8900W        W81160  36.015  42.889   3.321
 8901W        W81161  28.080  20.089  14.506
 8902W        W81162  18.248  29.172   2.281
 8903W        W81163   3.775   3.369   2.339
 8904W        W81164   4.291  22.521   1.745
 8905W        W81165  44.956  28.649   4.255
 8906W        W81166  32.409  43.840  11.081
 8907W        W81167  31.528   3.384   0.435
 8908W        W81168  28.152  35.918   3.791
 8909W        W81169  14.242   2.835  11.038
 8910W        W81170   4.318   1.321  11.943
 8911W        W81171  19.051  18.115  13.374
 8912W        W81172   7.819   4.326   0.248
 8913W        W81173  31.034  11.741  13.996
 8914W        W81174  33.131  34.604  12.565
 8915W        W81175  28.017  39.544   0.374
 8916W        W81176  44.978  42.914  14.309
 8917W        W81177  31.947  10.644  11.412
 8918W        W81178  37.007   7.829   2.296
 8919W        W81179  44.447  25.484  12.507
 8920W        W81180  19.040  23.062   1.812
 8921W        W81181  26.550  24.725   0.469
 8922W        W81182   5.248  38.405   1.369
 8923W        W81183   5.734  17.672  11.986
 8924W        W81184  23.094  38.999  13.037
 8925W        W81185   0.940  16.202   2.258
 8926W        W81186  19.230  21.744   1.248
 8927W        W81187  31.934  28.001   4.764
 8928W        W81188   3.414  41.367  12.951
 8929W        W81189  41.310   2.783   1.334
 8930W        W81190   8.385  41.990  13.386
 8931W        W81191  21.580   3.424   4.800
 8932W        W81192   3.896  15.753   4.236
 8933W        W81193  37.483  20.606  14.016
 8934W        W81194  39.419  30.510  13.530
 8935W        W81195  22.163  32.983   4.163
 8936W        W81196  37.361  27.489   3.797
 8937W        W81197  11.355  17.634   4.323
 8938W        W81198   1.354   9.209  14.851
 8939W        W81199  39.448  16.284   3.802
 8940W        W81200  25.562  30.520  10.573
 8941W        W81201  14.594  24.150  12.438
 8942W        W81202  27.476  11.857   4.249
 8943W        W81203  36.475   9.270   3.232
 8944W        W81204  28.473  30.161   1.251
 8945W        W81205  41.043  11.834  14.979
 8946W        W81206  40.391   1.399   1.338
 8947W        W81207  13.116  13.156  12.529
 8948W        W81208  41.448   5.234   1.329
 8949W        W81209  24.671   6.234   4.716
 8950W        W81210  12.722   0.876  10.993
 8951W        W81211  18.675  35.104   4.777
 8952W        W81212  41.365  36.947  14.845
 8953W        W81213  19.180  31.988   0.435
 8954W        W81214  10.814   7.776  12.839
 8955W        W81215   6.690  18.251   4.332
 8956W        W81216  15.315  26.066   2.669
 8957W        W81217  16.780  18.690   4.609
 8958W        W81218  33.478  23.998   1.887
 8959W        W81219   5.818  20.138   3.231
 8960W        W81220  33.538   2.819  12.493
 8961W        W81221  12.231  27.462  10.551
 8962W        W81222   9.233  11.776   4.788
 8963W        W81223   1.474  41.962  11.923
 8964W        W81224  11.650  15.810  10.110
 8965W        W81225  27.469  42.369   3.283
 8966W        W81226   2.946  34.561   2.338
 8967W        W81227  36.849  22.730   4.646
 8968W        W81228  38.517  23.185  12.823
 8969W        W81229   2.953  33.480   4.352
 8970W        W81230   2.821  26.531   1.797
 8971W        W81231  40.895  39.871   3.766
 8972W        W81232  36.506  29.650  14.463
 8973W        W81233  24.687  29.481   1.343
 8974W        W81234   5.762  19.625   1.348
 8975W        W81235  23.664   5.824  10.996
 8976W        W81236   4.439  43.007   0.396
 8977W        W81237   7.269  22.510   0.252
 8978W        W81238  43.368  35.027   1.842
 8979W        W81239  33.499  30.934  14.905
 8980W        W81240  21.127  13.231   0.274
 8981W        W81241  44.278  36.541  12.552
 8982W        W81242  13.112   0.907   3.821
 8983W        W81243  24.525   7.834   2.352
 8984W        W81244   7.889  25.507   1.329
 8985W        W81245   1.467   1.432  11.403
 8986W        W81246  30.134  14.103   3.154
 8987W        W81247  30.923  37.378  10.424
 8988W        W81248  39.045  31.000   4.617
 8989W        W81249  32.633  36.913  14.827
 8990W        W81250  16.259  44.901   4.647
 8991W        W81251  32.009  33.541   4.622
 8992W        W81252  30.638  15.110   4.733
 8993W        W81253  44.445  20.740   3.852
 8994W        W81254  34.980   6.263  11.550
 8995W        W81255  11.676   3.945   2.355
 8996W        W81256  28.450  29.144  10.432
 8997W        W81257  14.290  17.608   4.207
 8998W        W81258  24.582  43.494  14.510
 8999W        W81259  31.072  14.134  14.916
 9000W        W81260  24.151   7.264  14.987
 9001W        W81261  17.212  10.182   0.938
 9002W        W81262  28.627   7.188  10.583
 9003W        W81263  16.278   6.416  10.611
 9004W        W81264  35.858  34.057   4.761
 9005W        W81265  35.360  24.064  12.839
 9006W        W81266  30.518  36.873   3.822
 9007W        W81267  31.433   1.322  14.949
 9008W        W81268  41.459  36.424  11.537
 9009W        W81269  33.106   6.332  10.919
 9010W        W81270  34.570  43.916  11.948
 9011W        W81271  17.586  28.039  11.937
 9012W        W81272  18.107  14.653   4.603
 9013W        W81273  39.019  23.621  11.419
 9014W        W81274  29.126  35.441   2.371
 9015W        W81275   3.795  20.185   2.753
 9016W        W81276  15.682  44.003  13.990
 9017W        W81277   0.922  26.027   2.807
 9018W        W81278   8.372   8.193   2.722
 9019W        W81279  21.591  33.598  11.545
 9020W        W81280   4.767  25.997   5.579
 9021W        W81281  39.846  16.643   1.242
 9022W        W81282  38.953  20.047  12.366
 9023W        W81283  17.305   4.715  13.374
 9024W        W81284  10.692   9.845  10.485
 9025W        W81285  17.795  16.799   0.449
 9026W        W81286   1.772  12.664  12.871
 9027W        W81287  21.204  29.976   1.237
 9028W        W81288  24.184  34.443   4.653
 9029W        W81289  23.149   8.367   1.268
 9030W        W81290  33.569   3.853   4.679
 9031W        W81291   7.903  37.875  12.940
 9032W        W81292  13.139  23.521   1.408
 9033W        W81293  27.987  21.151   2.705
 9034W        W81294  13.163   0.436   3.630
 9035W        W81295  27.094  24.701   2.226
 9036W        W81296   9.290  13.810  11.472
 9037W        W81297  29.047  25.621  11.516
 9038W        W81298  32.009  42.433  11.381
 9039W        W81299  23.074  35.430  10.919
 9040W        W81300  30.989   3.244   3.817
 9041W        W81301  29.118  13.105  13.531
 9042W        W81302  13.839  40.018   2.329
 9043W        W81303  38.051  32.412  12.010
 9044W        W81304  20.734  32.019   0.451
 9045W        W81305   3.944  33.910  14.451
 9046W        W81306  31.011  41.959   0.275
 9047W        W81307  28.547  14.746  12.416
 9048W        W81308  27.526  44.405   0.819
 9049W        W81309  37.972  44.869  14.792
 9050W        W81310  23.072  19.205  14.504
 9051W        W81311  22.547  36.084  13.903
 9052W        W81312  39.469   3.906  12.986
 9053W        W81313  43.395  15.616   0.349
 9054W        W81314  24.055  16.305   0.776
 9055W        W81315  36.931  15.678   0.366
 9056W        W81316  25.469  17.643   3.728
 9057W        W81317   9.774  26.487  10.574
 9058W        W81318  44.007   4.741   0.887
 9059W        W81319   7.899  28.156  14.292
 9060W        W81320  25.676  22.674  10.456
 9061W        W81321  29.425  22.090   3.291
 9062W        W81322  26.614  24.034  10.408
 9063W        W81323  28.600   3.445  12.061
 9064W        W81324  38.928   7.323  10.522
 9065W        W81325  30.925   3.815   4.164
 9066W        W81326  44.771  37.362  12.979
 9067W        W81327  16.260  38.051   4.137
 9068W        W81328  17.234   4.783  11.402
 9069W        W81329   8.826  31.042  11.872
 9070W        W81330  15.706  12.739   4.325
 9071W        W81331  33.621  35.593  10.969
 9072W        W81332  20.724  28.555   0.305
 9073W        W81333   1.483  33.473   2.414
 9074W        W81334  41.347  43.498  12.007
 9075W        W81335  17.788  11.195  11.914
 9076W        W81336  12.625  40.959  14.759
 9077W        W81337  39.884   0.325  12.849
 9078W        W81338   1.339  27.185  11.576
 9079W        W81339  12.172  22.127   2.810
 9080W        W81340  32.044  42.282   4.824
 9081W        W81341  26.692  42.973  13.049
 9082W        W81342  29.528  22.011   1.370
 9083W        W81343  13.773   9.821  11.924
 9084W        W81344  27.527   3.432   0.245
 9085W        W81345   4.907  39.934  12.375
 9086W        W81346  11.189   0.490   4.294
 9087W        W81347  24.680  28.648  11.921
 9088W        W81348  44.303  34.520   0.781
 9089W        W81349  27.458  44.801   2.736
 9090W        W81350  23.059  10.823  13.016
 9091W        W81351  36.094  12.269   2.350
 9092W        W81352  32.008  32.918   2.209
 9093W        W81353  22.505   4.274   0.441
 9094W        W81354  36.419   7.267   1.751
 9095W        W81355  16.138  21.683   3.855
 9096W        W81356  35.870  39.871   3.361
 9097W        W81357  20.180  24.170   3.269
 9098W        W81358  28.534  42.894   2.772
 9099W        W81359  14.293  17.684  10.468
 9100W        W81360   0.282  28.071   0.785
 9101W        W81361  29.535  36.501  13.048
 9102W        W81362  37.368  21.024   2.186
 9103W        W81363   3.853   0.250   2.322
 9104W        W81364   4.253  35.558   4.738
 9105W        W81365  25.614  44.935  11.080
 9106W        W81366   9.220  12.746  12.031
 9107W        W81367  29.634  15.804   1.213
 9108W        W81368  23.163  35.920   1.924
 9109W        W81369  11.224  15.190   0.765
 9110W        W81370  26.480   4.284  11.918
 9111W        W81371  10.267   4.831   3.209
 9112W        W81372  42.508  28.675  12.901
 9113W        W81373  18.225   7.399   0.347
 9114W        W81374  35.390  20.233  12.916
 9115W        W81375   8.396  20.047  11.952
 9116W        W81376  19.636   1.419   4.817
 9117W        W81377  16.725   4.274   0.794
 9118W        W81378  43.422  37.931  11.955
 9119W        W81379   6.225  19.597  10.939
 9120W        W81380  25.159   8.793  11.383
 9121W        W81381  43.428  20.056   2.242
 9122W        W81382  28.442  12.846  14.826
 9123W        W81383  24.112  10.195  10.013
 9124W        W81384  15.589  14.106   0.258
 9125W        W81385  12.247   9.796   2.282
 9126W        W81386  44.008   3.802  13.977
 9127W        W81387  44.933  37.409   2.903
 9128W        W81388  29.098  41.852   4.287
 9129W        W81389  14.210   6.864  11.508
 9130W        W81390  36.391  31.974   5.159
 9131W        W81391  12.617  39.445   4.214
 9132W        W81392  28.530  23.520  14.414
 9133W        W81393  30.924  21.597  13.543
 9134W        W81394  11.332  11.196  12.079
 9135W        W81395  28.156  31.010   0.899
 9136W        W81396  17.120  28.015   4.208
 9137W        W81397  19.241  22.092  13.431
 9138W        W81398  36.842   7.321   9.948
 9139W        W81399  10.766  10.341  14.951
 9140W        W81400  16.166  42.932   4.298
 9141W        W81401  38.418   3.872   4.639
 9142W        W81402  25.187  38.487  12.906
 9143W        W81403   1.318  21.546   1.733
 9144W        W81404  22.702   9.242   1.891
 9145W        W81405  33.982  21.586   5.255
 9146W        W81406  31.933  31.053  11.084
 9147W        W81407  27.664   0.314  11.501
 9148W        W81408  42.483   0.841   3.297
 9149W        W81409   1.844  42.431   1.276
 9150W        W81410   5.865  26.153   3.831
 9151W        W81411  42.374  11.861   1.784
 9152W        W81412  35.937  15.633  10.937
 9153W        W81413  33.382  19.679   5.750
 9154W        W81414   1.463  32.938   3.256
 9155W        W81415   9.890   3.772   3.268
 9156W        W81416  33.466  35.542   4.811
 9157W        W81417  44.792  13.731   0.811
 9158W        W81418   1.473  27.972  13.397
 9159W        W81419   0.956   7.282   0.768
 9160W        W81420  21.099   4.822   5.106
 9161W        W81421  10.692  42.374   1.324
 9162W        W81422  33.897  36.475   4.170
 9163W        W81423   1.962  24.205  12.845
 9164W        W81424  31.497  16.167   2.386
 9165W        W81425  21.197  21.645  11.997
 9166W        W81426   0.356  36.415   3.710
 9167W        W81427  28.609  37.375  13.845
 9168W        W81428  39.849   3.870   2.311
 9169W        W81429  28.102   4.704  11.453
 9170W        W81430  38.023   7.334   3.822
 9171W        W81431  24.482  32.558  11.522
 9172W        W81432  43.953   5.895  14.999
 9173W        W81433   8.170  22.105  11.387
 9174W        W81434  34.889  36.979   0.850
 9175W        W81435  16.188   9.792   3.326
 9176W        W81436  10.773  42.893   1.762
 9177W        W81437   4.821  20.152  10.906
 9178W        W81438  43.449   8.215  14.983
 9179W        W81439   5.859  29.122  11.105
 9180W        W81440  13.276   7.773   3.347
 9181W        W81441  44.269  15.666   0.333
 9182W        W81442   9.250  23.642   5.177
 9183W        W81443  19.647  12.690  11.540
 9184W        W81444  42.332   2.463  12.400
 9185W        W81445  18.067   7.747  14.349
 9186W        W81446  14.596  27.046  10.524
 9187W        W81447  42.027   3.264   5.268
 9188W        W81448   5.840  22.500   4.178
 9189W        W81449  16.117   2.944   2.290
 9190W        W81450  14.657  30.940   3.196
 9191W        W81451  16.642   3.217  12.446
 9192W        W81452  43.454  14.244   0.914
 9193W        W81453  34.547  43.776   2.705
 9194W        W81454  17.304   1.340   1.260
 9195W        W81455  10.201  28.115  12.426
 9196W        W81456  38.949  23.548  11.113
 9197W        W81457  14.138  17.786  11.971
 9198W        W81458  20.560   2.350   2.287
 9199W        W81459  23.615  33.079  10.593
 9200W        W81460  14.725  43.397  11.047
 9201W        W81461  39.396  38.881   2.377
 9202W        W81462  10.765   5.768  13.994
 9203W        W81463  38.927  36.098   3.846
 9204W        W81464  25.619  31.143   0.298
 9205W        W81465   2.822  31.975   3.772
 9206W        W81466  24.653  23.571  10.914
 9207W        W81467   5.812  21.754   0.424
 9208W        W81468  29.510  15.717  10.987
 9209W        W81469   8.185   9.151   2.312
 9210W        W81470   1.976  16.780   1.826
 9211W        W81471  16.279  13.612  14.799
 9212W        W81472   9.819  16.579  10.418
 9213W        W81473  19.548  23.180  11.497
 9214W        W81474  44.325  30.457  12.013
 9215W        W81475  11.147   7.762  14.759
 9216W        W81476  10.186  27.062  10.428
 9217W        W81477  24.207  15.318  13.826
 9218W        W81478  30.504  33.527   0.368
 9219W        W81479   6.280   5.717  14.770
 9220W        W81480  43.876   3.402   4.224
 9221W        W81481  15.182  28.488  14.817
 9222W        W81482  13.756  18.768  10.437
 9223W        W81483  10.804  37.363  14.829
 9224W        W81484  25.572   6.374   3.160
 9225W        W81485  18.663   2.786   4.657
 9226W        W81486  33.462  21.665   4.289
 9227W        W81487  26.549  24.617   0.850
 9228W        W81488  42.919  26.676  12.980
 9229W        W81489  40.005  13.789  14.336
 9230W        W81490  40.973   2.757  14.850
 9231W        W81491  43.481   6.750   3.293
 9232W        W81492  28.150  11.369   1.284
 9233W        W81493  21.125  20.557   1.226
 9234W        W81494  12.270   5.738  12.961
 9235W        W81495   8.749  27.987  12.364
 9236W        W81496  25.494  41.952   3.351
 9237W        W81497  28.009  13.845   1.228
 9238W        W81498  36.072  38.348   3.224
 9239W        W81499  22.708  17.624  11.091
 9240W        W81500  28.438  35.007   3.675
 9241W        W81501  16.285  19.249  14.947
 9242W        W81502  33.898  41.472   2.394
 9243W        W81503  19.695  44.871  13.904
 9244W        W81504  42.855  15.649  13.978
 9245W        W81505  39.498  16.196  12.878
 9246W        W81506  28.531   0.966  10.113
 9247W        W81507  36.483   9.339  12.561
 9248W        W81508  18.649  19.565  14.983
 9249W        W81509  39.486   4.432  12.414
 9250W        W81510  25.005  14.229  12.406
 9251W        W81511  31.100  33.519   4.657
 9252W        W81512  42.011  35.002  11.521
 9253W        W81513  12.797  27.611  12.479
 9254W        W81514   6.278  26.069  11.875
 9255W        W81515  13.107  41.413   5.183
 9256W        W81516   0.487  12.225   4.729
 9257W        W81517  37.987  17.753   3.799
 9258W        W81518  12.202   0.761   3.189
 9259W        W81519  21.591  16.311   2.350
 9260W        W81520  13.765  34.478  13.985
 9261W        W81521  38.004  41.479   3.652
 9262W        W81522  10.302   2.331   2.832
 9263W        W81523   8.372   1.252  14.953
 9264W        W81524   4.296  17.227   4.245
 9265W        W81525  35.988  30.618  11.975
 9266W        W81526  31.597  15.093   1.788
 9267W        W81527  35.471  10.141  14.441
 9268W        W81528  26.638  37.948   4.351
 9269W        W81529  25.577  11.743   4.804
 9270W        W81530  33.485  43.973   2.314
 9271W        W81531   0.287  31.549  11.982
 9272W        W81532  19.681   9.686  11.031
 9273W        W81533  30.598   5.287  10.979
 9274W        W81534  27.052  19.754  11.483
 9275W        W81535  30.554   5.435  12.461
 9276W        W81536  26.043  14.725  14.882
 9277W        W81537  14.184  38.907   0.960
 9278W        W81538  21.623  29.568  14.315
 9279W        W81539  36.511  14.812  11.041
 9280W        W81540  27.197  41.377   3.271
 9281W        W81541  35.573  19.121   1.299
 9282W        W81542  10.333  31.064   5.149
 9283W        W81543  29.057  16.685  10.898
 9284W        W81544  22.595  10.227   0.250
 9285W        W81545  22.185  10.854  12.540
 9286W        W81546  32.525  22.637  13.833
 9287W        W81547  43.438  43.955  12.034
 9288W        W81548   6.269  21.083  14.476
 9289W        W81549  27.556  37.405   3.697
 9290W        W81550  23.496  29.134   3.220
 9291W        W81551  10.203  38.831  12.422
 9292W        W81552  41.379  36.459  12.892
 9293W        W81553  38.903  16.209  10.599
 9294W        W81554  24.078  36.487  12.481
 9295W        W81555  29.514   5.228   4.148
 9296W        W81556  43.881   4.927  11.866
 9297W        W81557  11.146  44.378   0.331
 9298W        W81558   1.786  13.716  12.087
 9299W        W81559   6.698  36.498   0.308
 9300W        W81560  22.251  36.366   4.636
 9301W        W81561  15.225   5.231  12.049
 9302W        W81562  35.047  21.688  11.875
 9303W        W81563  41.530  25.615   4.760
 9304W        W81564  35.026   9.289   4.598
 9305W        W81565  39.422  21.039   0.754
 9306W        W81566   4.412  42.370  10.566
 9307W        W81567  27.483  42.516  14.419
 9308W        W81568  20.073  29.423  14.435
 9309W        W81569  33.524   4.291  13.049
 9310W        W81570   5.711   6.899   2.356
 9311W        W81571  18.684   1.314   4.126
 9312W        W81572  38.045   3.851   4.783
 9313W        W81573  37.970  31.636   4.306
 9314W        W81574   5.306  37.470  10.469
 9315W        W81575   4.874   0.335   2.713
 9316W        W81576  29.056   9.746   2.308
 9317W        W81577  31.092  33.875   4.671
 9318W        W81578  39.869  33.615   4.342
 9319W        W81579  43.980  10.263   4.239
 9320W        W81580   3.244  14.598  13.999
 9321W        W81581  16.247  29.458  14.395
 9322W        W81582   9.223  13.295   1.272
 9323W        W81583  22.022  36.885   0.285
 9324W        W81584  17.239   6.771  10.522
 9325W        W81585  27.539  13.806  13.372
 9326W        W81586   4.838  28.154   4.744
 9327W        W81587  27.098  22.540   0.263
 9328W        W81588   8.307  25.061   2.404
 9329W        W81589  19.134  10.281  10.508
 9330W        W81590  33.113  22.646   0.395
 9331W        W81591  18.643   9.196  13.393
 9332W        W81592  25.113   2.804   3.289
 9333W        W81593  11.731  11.317  12.380
 9334W        W81594  15.101  36.951  13.389
 9335W        W81595  38.070   6.252  11.020
 9336W        W81596  36.933   7.690   5.722
 9337W        W81597  12.623  19.119  13.062
 9338W        W81598  14.180  16.168   1.322
 9339W        W81599  16.699  34.372   2.280
 9340W        W81600  28.056   8.164  11.032
 9341W        W81601   4.883  36.901  14.287
 9342W        W81602   5.290  42.907   2.763
 9343W        W81603  33.093  17.226  13.324
 9344W        W81604  35.460  33.515   3.648
 9345W        W81605  15.121  36.410   3.813
 9346W        W81606   7.677  33.392  14.954
 9347W        W81607  14.630  10.257  12.575
 9348W        W81608  22.732  23.084   3.658
 9349W        W81609  16.772   7.776  10.950
 9350W        W81610  35.524  37.028  11.999
 9351W        W81611  23.642  42.777  12.932
 9352W        W81612  29.143  26.682  11.986
 9353W        W81613  29.086  16.774   4.252
 9354W        W81614  21.231   9.860  13.009
 9355W        W81615  16.089  26.522  10.622
 9356W        W81616   3.240  42.030  11.477
 9357W        W81617  43.395  19.268  12.482
 9358W        W81618  15.111  27.992  12.090
 9359W        W81619  24.057  44.952  12.497
 9360W        W81620  27.663  14.788  14.987
 9361W        W81621  38.570   9.705   0.950
 9362W        W81622   9.794  38.910   3.648
 9363W        W81623  21.622   8.248   2.207
 9364W        W81624  40.316  25.504   1.274
 9365W        W81625  43.852  36.906  11.069
 9366W        W81626  39.452  39.881   1.400
 9367W        W81627  27.679   2.319  12.484
 9368W        W81628  40.916  15.735   1.718
 9369W        W81629  18.614  43.851   0.450
 9370W        W81630  41.456  10.334   1.699
 9371W        W81631  42.444  21.082   4.162
 9372W        W81632  24.155   9.286   3.858
 9373W        W81633  40.348  30.534   1.239
 9374W        W81634  13.169   2.244   2.821
 9375W        W81635  15.244  27.056  14.301
 9376W        W81636  29.129  27.146  12.355
 9377W        W81637  41.514  11.159   0.396
 9378W        W81638  11.762  33.454   0.389
 9379W        W81639   9.746  11.133   2.385
 9380W        W81640  27.130   4.757   3.777
 9381W        W81641  30.058  16.569   4.792
 9382W        W81642  42.989  37.459   2.272
 9383W        W81643  44.333  39.995  10.959
 9384W        W81644   0.452  27.660  11.483
 9385W        W81645   7.307   3.925   2.208
 9386W        W81646  43.770   0.358  13.900
 9387W        W81647  37.907  18.775  10.580
 9388W        W81648  17.237  24.162   3.823
 9389W        W81649  18.679  19.669   2.825
 9390W        W81650  41.496  38.540  11.600
 9391W        W81651  13.763  33.553   4.209
 9392W        W81652   8.845  13.341   3.723
 9393W        W81653   1.941  21.219  10.061
 9394W        W81654  36.592  35.878   2.197
 9395W        W81655  26.184  44.306   1.908
 9396W        W81656  42.287  13.216   3.368
 9397W        W81657  27.484   8.761   4.133
 9398W        W81658  15.602  20.274  13.857
 9399W        W81659  27.477  14.751   0.927
 9400W        W81660   1.768  43.434  11.052
 9401W        W81661  21.561  26.978  10.565
 9402W        W81662  21.748  10.808  13.519
 9403W        W81663  18.064  34.867   1.848
 9404W        W81664  25.582  44.961  14.809
 9405W        W81665   6.326   7.262   1.758
 9406W        W81666  32.143  29.027  11.871
 9407W        W81667   4.277  44.392   1.392
 9408W        W81668  39.944  38.884   3.298
 9409W        W81669  42.782  13.694  12.074
 9410W        W81670  31.580   0.486  11.118
 9411W        W81671  40.862  40.517   4.133
 9412W        W81672  22.168  36.451   3.744
 9413W        W81673  27.588  10.366   0.792
 9414W        W81674  20.187  13.296  14.965
 9415W        W81675  34.955  27.048   0.903
 9416W        W81676  38.562  12.675  11.540
 9417W        W81677  39.507  19.187   4.709
 9418W        W81678  37.443  21.609  14.484
 9419W        W81679  21.031  19.172   4.710
 9420W        W81680  30.992  28.490   3.315
 9421W        W81681   0.925  36.947   1.301
 9422W        W81682  33.955  33.033  10.526
 9423W        W81683  20.210  10.645  10.989
 9424W        W81684  39.420  39.995   4.123
 9425W        W81685  37.854  12.170  12.346
 9426W        W81686  21.652  31.005  10.536
 9427W        W81687   3.710  25.962  13.025
 9428W        W81688  10.861  43.907  12.967
 9429W        W81689  38.866   3.907  14.818
 9430W        W81690  18.734  23.129  11.889
 9431W        W81691   9.777  38.052  13.805
 9432W        W81692  25.662  27.655  13.458
 9433W        W81693  24.977  30.087  11.579
 9434W        W81694   8.341  30.525   0.915
 9435W        W81695  26.689  20.234   4.159
 9436W        W81696   1.908  17.104   4.644
 9437W        W81697  40.011   0.780   4.652
 9438W        W81698  20.713  39.052   3.343
 9439W        W81699   6.318  36.080   3.187
 9440W        W81700   3.388  30.489  10.408
 9441W        W81701  23.658  24.976  11.593
 9442W        W81702  12.133  37.387  14.336
 9443W        W81703  28.629  38.507  13.460
 9444W        W81704  30.476  11.165   0.764
 9445W        W81705  25.063  13.218  14.359
 9446W        W81706  29.130  16.291  13.866
 9447W        W81707  36.042  20.260   2.767
 9448W        W81708  33.891  39.945  11.872
 9449W        W81709  20.229  27.066   2.391
 9450W        W81710  33.072  29.138  14.982
 9451W        W81711  13.251  22.593   9.995
 9452W        W81712  24.138  16.317  12.909
 9453W        W81713  11.193  15.691  12.403
 9454W        W81714  32.118  17.199  14.904
 9455W        W81715  10.682  34.494  12.881
 9456W        W81716   3.436  14.722  10.529
 9457W        W81717  34.373  11.170  11.112
 9458W        W81718  36.580  14.148  14.026
 9459W        W81719  21.019  26.951   4.740
 9460W        W81720   8.362  29.513  11.579
 9461W        W81721  38.024  10.782   2.278
 9462W        W81722  19.552  13.845  14.774
 9463W        W81723   0.872  18.057   1.229
 9464W        W81724  21.152  30.152   0.930
 9465W        W81725   5.742  19.692   1.907
 9466W        W81726  15.779   4.937  12.425
 9467W        W81727  37.502  21.544  10.444
 9468W        W81728  19.665  42.878   0.843
 9469W        W81729  25.182   9.354  13.932
 9470W        W81730  21.617  12.260  10.989
 9471W        W81731  26.141  30.060   0.411
 9472W        W81732   0.762  10.810  14.981
 9473W        W81733  26.147  15.120   0.308
 9474W        W81734  42.308  28.634  11.956
 9475W        W81735   4.753  27.170  10.912
 9476W        W81736  19.120  27.014  11.579
 9477W        W81737  19.582   1.811   2.676
 9478W        W81738  37.347  31.523   1.833
 9479W        W81739  12.620   3.453  12.012
 9480W        W81740  15.234  13.150   4.793
 9481W        W81741  33.111  19.555  12.350
 9482W        W81742  12.206  33.036   3.248
 9483W        W81743   2.950  35.469   2.255
 9484W        W81744  33.515  12.798  10.632
 9485W        W81745  20.241  12.346  13.404
 9486W        W81746  40.914  10.673  13.056
 9487W        W81747  36.370  12.801  11.387
 9488W        W81748  22.711  39.393  12.823
 9489W        W81749  44.811  21.042  13.518
 9490W        W81750   4.703  40.544  14.309
 9491W        W81751  15.321  19.074  13.375
 9492W        W81752   1.291   3.384   2.294
 9493W        W81753  31.965   5.872   2.218
 9494W        W81754  28.101   8.834   0.841
 9495W        W81755   8.389  16.691  13.991
 9496W        W81756  16.758  38.984  11.384
 9497W        W81757  24.657  20.733   3.671
 9498W        W81758   8.400  15.822   3.680
 9499W        W81759  35.452  12.690   3.380
 9500W        W81760  19.146  27.480  11.085
 9501W        W81761  43.477  28.139  13.889
 9502W        W81762  18.220  37.374   3.655
 9503W        W81763  44.962  19.628  12.879
 9504W        W81764  16.085   4.311  12.964
 9505W        W81765   4.782  33.508   1.221
 9506W        W81766  18.128  18.701   1.874
 9507W        W81767  34.063  11.742  12.881
 9508W        W81768  22.119  39.886   2.738
 9509W        W81769   4.411  35.431  14.346
 9510W        W81770  22.217  38.549   3.865
 9511W        W81771  19.593   8.766   1.423
 9512W        W81772  30.421   7.303   2.180
 9513W        W81773   7.748   1.737   3.377
 9514W        W81774  13.225  43.290   3.327
 9515W        W81775  35.539  14.171  12.915
 9516W        W81776  35.566  15.292  12.048
 9517W        W81777  38.433   7.372  11.574
 9518W        W81778  38.075  32.588   4.180
 9519W        W81779  38.476  21.539   3.216
 9520W        W81780  13.156  22.695   3.187
 9521W        W81781  21.522  32.460  14.320
 9522W        W81782   2.910  15.612  13.950
 9523W        W81783   0.949  31.121  13.317
 9524W        W81784  15.628   9.185  12.464
 9525W        W81785  36.902  26.467  13.854
 9526W        W81786   8.881  18.735   0.248
 9527W        W81787   8.305   7.831   0.760
 9528W        W81788  40.495  41.965   2.686
 9529W        W81789   9.740  12.801  12.839
 9530W        W81790  18.690  10.655  13.456
 9531W        W81791   2.442  12.349  13.455
 9532W        W81792  17.752   2.340   0.921
 9533W        W81793  22.661   8.347  10.952
 9534W        W81794  33.387  37.512  11.497
 9535W        W81795   8.169   2.305  14.788
 9536W        W81796  12.241  27.504   0.275
 9537W        W81797  31.101  21.257   2.197
 9538W        W81798  17.295   7.279   0.393
 9539W        W81799   4.847  11.792  14.395
 9540W        W81800  44.477  31.528  14.330
 9541W        W81801  15.635  11.256  10.581
 9542W        W81802  38.358  40.416  14.920
 9543W        W81803   6.309   9.697  14.976
 9544W        W81804  35.525  39.827  10.450
 9545W        W81805  44.336  22.543  12.072
 9546W        W81806   0.431  36.924  13.496
 9547W        W81807  14.822  23.646   0.901
 9548W        W81808  11.266  31.069   4.328
 9549W        W81809  37.986  34.089   3.812
 9550W        W81810  35.590   4.756  10.416
 9551W        W81811   6.704  16.272  14.307
 9552W        W81812  10.214   0.363  13.535
 9553W        W81813  15.652   2.340  14.385
 9554W        W81814  38.919  34.067   2.797
 9555W        W81815  30.615  32.143   5.616
 9556W        W81816  39.984   8.313  13.038
 9557W        W81817  29.481  35.083   4.262
 9558W        W81818   1.779  33.608   0.843
 9559W        W81819  17.198   4.738   3.870
 9560W        W81820   1.858  32.592  11.561
 9561W        W81821   2.794  28.457  14.278
 9562W        W81822   4.321  17.745  12.920
 9563W        W81823   9.856  14.310  14.382
 9564W        W81824  21.079  38.368  13.978
 9565W        W81825  21.643  23.092  14.775
 9566W        W81826  15.119   1.348   3.776
 9567W        W81827   5.216  32.513  10.458
 9568W        W81828  15.749  42.310   3.325
 9569W        W81829  36.966  37.969   2.832
 9570W        W81830  10.734  38.397  12.514
 9571W        W81831  17.790  10.349  12.879
 9572W        W81832  22.618  27.968   4.702
 9573W        W81833  39.029  33.071  13.000
 9574W        W81834  28.508  25.136  11.879
 9575W        W81835  34.554   0.301  13.839
 9576W        W81836  10.290  39.881  10.600
 9577W        W81837  40.319  23.572  14.445
 9578W        W81838  36.097  38.821  14.921
 9579W        W81839  24.591  41.789   9.950
 9580W        W81840  31.048  42.802  11.491
 9581W        W81841  40.880  27.521   0.812
 9582W        W81842  34.966  16.224   4.829
 9583W        W81843  22.180  11.777   3.303
 9584W        W81844  43.904  42.795  10.523
 9585W        W81845   2.906  21.193  12.920
 9586W        W81846  37.849   7.313   0.279
 9587W        W81847  23.192  44.991   1.447
 9588W        W81848  38.023   9.804  13.325
 9589W        W81849  29.024  22.511   4.653
 9590W        W81850   5.383   9.202  14.858
 9591W        W81851   6.382  27.542   4.249
 9592W        W81852   1.926   6.844   4.719
 9593W        W81853  29.105  17.798   4.615
 9594W        W81854  26.491   4.413  14.864
 9595W        W81855  28.451   2.888  11.399
 9596W        W81856  13.832   0.346   3.769
 9597W        W81857  15.274  27.455   0.273
 9598W        W81858  38.366  34.090  14.867
 9599W        W81859  25.129  30.589  11.995
 9600W        W81860   9.727  22.587  12.955
 9601W        W81861  10.194   8.330  12.080
 9602W        W81862  18.211   6.427  10.530
 9603W        W81863   1.749  43.436  13.851
 9604W        W81864   9.379   0.344   9.938
 9605W        W81865  37.540   3.409  10.500
 9606W        W81866  33.895   0.951  13.057
 9607W        W81867  26.027   2.934  10.454
 9608W        W81868  37.446  16.594  13.406
 9609W        W81869  26.457  16.311   0.826
 9610W        W81870  12.789  31.422   9.562
 9611W        W81871  39.351  39.356  14.022
 9612W        W81872  30.447  30.502   4.638
 9613W        W81873  12.788  40.970   1.373
 9614W        W81874  19.089  15.266  11.486
 9615W        W81875  27.491  22.546   3.861
 9616W        W81876  14.262  30.451  13.867
 9617W        W81877  31.608  16.287  13.801
 9618W        W81878   6.191  17.570   4.700
 9619W        W81879  39.330  34.910  12.086
 9620W        W81880  25.590  24.113  10.933
 9621W        W81881  34.464   3.283  11.386
 9622W        W81882  10.274  36.843  12.922
 9623W        W81883  36.545  37.508  12.017
 9624W        W81884  12.756   1.824  14.828
 9625W        W81885  34.490  27.544   3.630
 9626W        W81886  22.041  18.062  11.430
 9627W        W81887   0.278   6.357  11.067
 9628W        W81888  20.722  26.042  13.368
 9629W        W81889  27.048   6.363   2.294
 9630W        W81890  37.904   3.795   1.421
 9631W        W81891  14.805  15.324  12.035
 9632W        W81892  17.781  42.449  11.120
 9633W        W81893  19.775  32.423   0.956
 9634W        W81894  25.587  33.944   4.613
 9635W        W81895  33.005  13.347   3.859
 9636W        W81896   6.874   8.190   2.747
 9637W        W81897  23.722   6.836  11.551
 9638W        W81898  35.016  29.115   4.770
 9639W        W81899   2.784  22.120  13.935
 9640W        W81900   6.320  23.143  12.968
 9641W        W81901  10.746  19.634   1.398
 9642W        W81902   9.241  37.877   3.261
 9643W        W81903  29.086  23.201  14.844
 9644W        W81904  42.338  36.844   0.391
 9645W        W81905  44.902  24.133   0.252
 9646W        W81906  16.095   4.718   0.929
 9647W        W81907  22.195  41.348  14.313
 9648W        W81908  29.985  16.687  10.441
 9649W        W81909  39.440  30.456  14.374
 9650W        W81910   3.436  18.555  12.946
 9651W        W81911   5.270  20.585  12.011
 9652W        W81912   1.467   7.266  11.892
 9653W        W81913  42.933  28.042   2.704
 9654W        W81914  10.829   4.778  12.529
 9655W        W81915  18.694  40.844   4.180
 9656W        W81916   6.317  14.199  14.490
 9657W        W81917  41.530  31.979   2.662
 9658W        W81918  18.218  10.215  12.552
 9659W        W81919  11.217   3.840   4.704
 9660W        W81920  15.126  40.351   4.196
 9661W        W81921  10.706  35.520   3.205
 9662W        W81922  28.655  13.819  14.786
 9663W        W81923  38.944  23.141  10.466
 9664W        W81924  29.590  35.062  11.535
 9665W        W81925  39.864  21.150   1.881
 9666W        W81926   5.904  19.755   2.274
 9667W        W81927  42.460  30.573   4.600
 9668W        W81928  19.687  42.943   5.307
 9669W        W81929  33.383  20.067  14.482
 9670W        W81930  21.111  19.599  11.980
 9671W        W81931   5.865   2.862  12.840
 9672W        W81932  27.603  40.345   4.634
 9673W        W81933   5.687  21.254  10.571
 9674W        W81934   8.383  22.106   0.856
 9675W        W81935  16.618  40.494   1.416
 9676W        W81936  16.641   1.286  14.472
 9677W        W81937  23.587  10.843   3.828
 9678W        W81938  43.287  33.470   3.668
 9679W        W81939  39.052  13.263   2.866
 9680W        W81940  13.272  20.618   1.748
 9681W        W81941  12.257   9.711  14.954
 9682W        W81942  14.630  25.088   2.352
 9683W        W81943  17.796  12.846   3.198
 9684W        W81944  29.665   2.827  13.456
 9685W        W81945  31.018  20.141   3.175
 9686W        W81946  18.597  40.824  13.860
 9687W        W81947   7.695   1.833  12.845
 9688W        W81948   1.971  16.079  13.358
 9689W        W81949  39.045  14.758   4.139
 9690W        W81950  25.007  23.051  14.291
 9691W        W81951  33.574  24.643  12.495
 9692W        W81952  24.189   5.249   0.860
 9693W        W81953  20.075   7.402  14.455
 9694W        W81954  31.440  19.575  11.971
 9695W        W81955  14.210  29.625   0.307
 9696W        W81956  10.866  31.914   4.669
 9697W        W81957  19.575  26.473   1.300
 9698W        W81958   4.918   5.705   3.644
 9699W        W81959   6.795   1.384  13.411
 9700W        W81960  25.537  28.160   1.293
 9701W        W81961  29.941  18.128  10.900
 9702W        W81962   8.374  25.189   1.334
 9703W        W81963  30.618  10.686   2.376
 9704W        W81964  40.050  44.976   0.780
 9705W        W81965  12.688  20.168   4.597
 9706W        W81966   8.717  24.491  12.464
 9707W        W81967  12.261  43.513   0.469
 9708W        W81968  43.904  38.911  14.795
 9709W        W81969  16.285   0.809  12.880
 9710W        W81970  14.800  17.154   0.414
 9711W        W81971  30.561   6.855  13.480
 9712W        W81972  10.265  35.920   9.978
 9713W        W81973   7.174   1.350   1.889
 9714W        W81974  20.224  31.406  12.863
 9715W        W81975  41.889  23.713  13.491
 9716W        W81976   8.378  42.941  13.804
 9717W        W81977  25.588  34.002  10.975
 9718W        W81978  12.359  31.539  12.391
 9719W        W81979  22.653  14.186   4.261
 9720W        W81980   9.834  20.699  10.977
 9721W        W81981  30.083   9.243  14.987
 9722W        W81982   5.212  11.281   0.816
 9723W        W81983  16.120   3.357   2.385
 9724W        W81984   2.845  25.549  14.447
 9725W        W81985   3.397  39.840   4.636
 9726W        W81986   1.858   7.793  11.027
 9727W        W81987  44.362  19.747  13.949
 9728W        W81988  16.221   7.352   1.848
 9729W        W81989  20.034  10.253  11.467
 9730W        W81990  37.011   9.652   4.301
 9731W        W81991   3.388   4.439  10.035
 9732W        W81992  26.659  12.726  14.821
 9733W        W81993  11.696  30.115   0.265
 9734W        W81994  14.337  27.518  12.871
 9735W        W81995  14.661  18.281   2.808
 9736W        W81996  28.958   0.301   0.801
 9737W        W81997  30.990   7.815  12.407
 9738W        W81998  12.761   0.389   0.758
 9739W        W81999  30.458  22.692   4.663
 9740W        W82000   0.295  26.674   4.648
 9741W        W82001  16.191  41.522  11.582
 9742W        W82002  31.113  15.745   5.111
 9743W        W82003   9.177   3.727  11.454
 9744W        W82004   5.908  14.687  14.016
 9745W        W82005  37.529   5.756  11.904
 9746W        W82006  24.178  16.160   0.482
 9747W        W82007  20.135  11.248  11.374
 9748W        W82008   7.338  32.405   0.780
 9749W        W82009  30.560   5.326  13.816
 9750W        W82010  11.133   0.969   0.268
 9751W        W82011  19.596  26.083   1.901
 9752W        W82012   4.428   6.385  11.977
 9753W        W82013  21.179  44.886  12.908
 9754W        W82014   5.818  28.606   2.719
 9755W        W82015  38.913  26.495  11.933
 9756W        W82016  37.524  17.061  13.490
 9757W        W82017  30.562  20.548   2.669
 9758W        W82018   5.749  26.535  13.956
 9759W        W82019  19.750  22.503  12.963
 9760W        W82020  39.925   1.292   3.799
 9761W        W82021   3.784  25.044   0.877
 9762W        W82022  29.538   9.330  14.881
 9763W        W82023   4.318  17.080   2.403
 9764W        W82024   7.746  26.675  10.605
 9765W        W82025  42.468  44.907   2.232
 9766W        W82026   8.806  21.071   1.318
 9767W        W82027  25.115  30.149   3.366
 9768W        W82028  44.474  31.022   0.943
 9769W        W82029  23.154   4.213   4.153
 9770W        W82030  34.887  29.429   0.761
 9771W        W82031  42.514  42.023  12.956
 9772W        W82032   9.372  23.581   3.156
 9773W        W82033   1.375  10.858  12.941
 9774W        W82034  21.038   1.348   1.368
 9775W        W82035  25.477  29.006   0.809
 9776W        W82036  19.684   5.831   2.208
 9777W        W82037   0.387  32.548  14.301
 9778W        W82038  39.544   7.837  11.471
 9779W        W82039  31.991  19.624   0.859
 9780W        W82040  10.262  41.009  13.972
 9781W        W82041  27.036   7.405   3.814
 9782W        W82042  38.376  17.743   2.207
 9783W        W82043  33.110  30.421  13.492
 9784W        W82044  34.958   8.262  14.981
 9785W        W82045  43.877  22.586   1.770
 9786W        W82046  26.537  23.057  11.910
 9787W        W82047  36.060  40.547  14.335
 9788W        W82048  17.072  33.599   5.287
 9789W        W82049  42.797  39.987   4.229
 9790W        W82050  19.133  19.769   1.377
 9791W        W82051  38.568  34.498   2.342
 9792W        W82052   5.725  27.039   1.827
 9793W        W82053   9.327   7.798  11.380
 9794W        W82054  15.672  35.572  14.882
 9795W        W82055  18.188   1.438  12.346
 9796W        W82056  19.675   1.369  14.343
 9797W        W82057  17.199  24.639  14.843
 9798W        W82058   0.859  25.704  11.593
 9799W        W82059   4.884  22.611   0.877
 9800W        W82060  12.634  32.910  13.895
 9801W        W82061  17.207  30.646   2.673
 9802W        W82062  31.467  14.696  12.355
 9803W        W82063  26.117  12.808  13.001
 9804W        W82064  30.928  27.058  10.593
 9805W        W82065  27.630  31.543   3.161
 9806W        W82066  19.208  40.349   0.278
 9807W        W82067  36.448  10.144   1.797
 9808W        W82068  36.568   3.887  10.492
 9809W        W82069  30.957  22.706  14.380
 9810W        W82070  16.102  17.614   3.767
 9811W        W82071   0.857  41.526  14.005
 9812W        W82072  16.227  35.533  11.988
 9813W        W82073  21.028  32.889  14.382
 9814W        W82074  28.611  36.896  14.459
 9815W        W82075  20.031   7.215  12.539
 9816W        W82076  12.769  41.311   1.823
 9817W        W82077   0.472  30.969  13.334
 9818W        W82078   6.906  41.446   1.394
 9819W        W82079  16.293  15.811  12.972
 9820W        W82080  10.843  38.017   3.251
 9821W        W82081  43.827   5.437   2.304
 9822W        W82082  37.997  44.494   4.164
 9823W        W82083  14.150  12.266   0.921
 9824W        W82084  12.121  20.761  12.566
 9825W        W82085  10.738  38.979  13.338
 9826W        W82086   0.973  42.004  12.468
 9827W        W82087   3.932   7.174  13.354
 9828W        W82088   2.957  25.654   1.823
 9829W        W82089   8.659   6.804   0.929
 9830W        W82090  23.165  11.361   1.397
 9831W        W82091  11.670  42.404   3.246
 9832W        W82092  21.667  15.819   0.384
 9833W        W82093  42.831  41.985   1.928
 9834W        W82094   0.309  21.102  14.406
 9835W        W82095  43.408  40.017   0.939
 9836W        W82096  13.737   1.834  13.843
 9837W        W82097  14.802  15.797   1.890
 9838W        W82098  42.810  32.912   2.319
 9839W        W82099  13.122  26.467  11.514
 9840W        W82100  35.559  19.613  13.908
 9841W        W82101  12.792  24.688  11.373
 9842W        W82102  28.627  38.418   2.419
 9843W        W82103  35.870  17.180  11.606
 9844W        W82104  27.112   7.705   0.250
 9845W        W82105  15.096   7.864  11.975
 9846W        W82106  31.484  44.852  13.964
 9847W        W82107  32.005   8.704   1.311
 9848W        W82108  43.331  17.642  11.905
 9849W        W82109   1.313  31.413   1.397
 9850W        W82110  38.890  37.082   4.738
 9851W        W82111  44.274  43.326  11.915
 9852W        W82112  19.260  36.941   3.775
 9853W        W82113  42.981   7.398  14.944
 9854W        W82114  42.440  21.631   0.391
 9855W        W82115  42.323  44.384  11.036
 9856W        W82116   0.962  29.561   9.931
 9857W        W82117   2.311  15.779  13.793
 9858W        W82118  24.112  20.650  10.059
 9859W        W82119  36.382  35.985   3.749
 9860W        W82120  22.650   8.308  12.430
 9861W        W82121  38.881  34.475  11.058
 9862W        W82122  22.613  32.623   1.715
 9863W        W82123  39.455  13.230  12.038
 9864W        W82124  14.144  13.778  13.030
 9865W        W82125  16.670  19.653   2.824
 9866W        W82126   1.334  23.605  12.832
 9867W        W82127  29.974  12.760   2.308
 9868W        W82128  13.230  36.489   1.282
 9869W        W82129   5.311  32.480  10.977
 9870W        W82130  18.185  15.792  14.992
 9871W        W82131  15.166  22.566   0.788
 9872W        W82132  15.701  16.575   9.989
 9873W        W82133  33.038   0.321   4.734
 9874W        W82134  37.898  42.850  13.380
 9875W        W82135  15.150  12.610   3.367
 9876W        W82136  17.662  33.889  14.964
 9877W        W82137  21.030  20.175   0.798
 9878W        W82138  32.554   7.860   4.278
 9879W        W82139  38.849   8.185  10.548
 9880W        W82140  40.968  26.542   4.176
 9881W        W82141   6.349   2.257  13.509
 9882W        W82142  21.561  44.799  12.520
 9883W        W82143  20.159  19.196  10.993
 9884W        W82144  18.287  14.744   3.350
 9885W        W82145  44.385  32.009  12.903
 9886W        W82146  15.194  19.117  12.006
 9887W        W82147  33.585  31.571   0.731
 9888W        W82148  17.228  24.160  11.463
 9889W        W82149  20.731   7.359   2.201
 9890W        W82150  17.164  33.385  10.442
 9891W        W82151  43.767  29.000  10.456
 9892W        W82152  40.829  28.656   2.848
 9893W        W82153  40.452  19.574   4.823
 9894W        W82154  10.152   3.828  12.889
 9895W        W82155  35.933  28.004   4.796
 9896W        W82156   8.392   1.753   3.264
 9897W        W82157  21.087   0.952  12.517
 9898W        W82158   0.313  41.514  14.368
 9899W        W82159   3.383  42.875   3.824
 9900W        W82160  29.516  19.237   1.760
 9901W        W82161   7.337  15.602  11.097
 9902W        W82162   9.223  44.957  13.399
 9903W        W82163   4.845  21.587   0.753
 9904W        W82164  29.167  15.178   1.841
 9905W        W82165  30.432  32.435   0.381
 9906W        W82166   5.921  19.252   1.261
 9907W        W82167  42.299  22.218  14.436
 9908W        W82168  36.568   9.770   4.626
 9909W        W82169  34.884   2.824  13.051
 9910W        W82170   0.778  27.490  14.007
 9911W        W82171  22.120   2.749   4.623
 9912W        W82172  44.008  40.465   1.735
 9913W        W82173   6.860   9.364   2.246
 9914W        W82174  22.741  42.311  10.160
 9915W        W82175  18.648   0.880   4.765
 9916W        W82176  34.028  43.806  14.443
 9917W        W82177  35.410  12.125  11.573
 9918W        W82178  38.469  44.490   3.635
 9919W        W82179  18.079  17.298  14.332
 9920W        W82180  36.959  28.108  14.383
 9921W        W82181   4.321  29.496   0.457
 9922W        W82182   1.305  42.897   1.789
 9923W        W82183   4.268  42.466  11.861
 9924W        W82184   0.889  17.591   2.866
 9925W        W82185  36.990  26.138   4.278
 9926W        W82186  22.656  28.477   9.936
 9927W        W82187   3.391  23.513  12.501
 9928W        W82188   0.352  39.328   3.769
 9929W        W82189  12.268  28.168  10.071
 9930W        W82190  27.949  34.412   4.662
 9931W        W82191   6.407  37.857  13.453
 9932W        W82192  17.070  32.023  14.950
 9933W        W82193  20.755   8.812  12.526
 9934W        W82194  11.307  32.953  13.870
 9935W        W82195  18.626  26.045  11.989
 9936W        W82196  32.479  12.319  11.604
 9937W        W82197  39.905  13.105  10.501
 9938W        W82198  38.501  24.025   1.234
 9939W        W82199   4.814  28.652  12.079
 9940W        W82200  28.148  26.515  11.952
 9941W        W82201  29.046  39.028   4.327
 9942W        W82202  13.338  23.700  10.590
 9943W        W82203  18.069   0.974   4.684
 9944W        W82204  40.051  24.004  13.829
 9945W        W82205  39.520  10.307   3.318
 9946W        W82206  28.185  21.653   0.749
 9947W        W82207  15.246  14.597   9.959
 9948W        W82208   0.756  12.637  14.013
 9949W        W82209  15.238  37.901  14.374
 9950W        W82210   7.393   5.360  11.960
 9951W        W82211  42.028  31.087  14.431
 9952W        W82212  23.616  19.145  12.074
 9953W        W82213  19.694  21.176  10.575
 9954W        W82214  19.743  19.215   0.294
 9955W        W82215  16.174  22.718  12.425
 9956W        W82216   0.849  23.676  14.454
 9957W        W82217  12.622  25.981  12.045
 9958W        W82218  41.807  18.647   2.900
 9959W        W82219  43.329  19.741   4.768
 9960W        W82220  11.305   5.885   0.428
 9961W        W82221  23.558  37.925  13.903
 9962W        W82222   5.902  38.823  11.998
 9963W        W82223   3.367   7.330  10.413
 9964W        W82224   2.786  34.000   3.657
 9965W        W82225  41.421  31.457   4.183
 9966W        W82226  37.947  15.767  11.603
 9967W        W82227  28.173  42.499   0.829
 9968W        W82228  34.041   2.372   0.455
 9969W        W82229  17.655  44.439  11.462
 9970W        W82230  21.612  19.231  14.439
 9971W        W82231  34.033  37.469  10.946
 9972W        W82232  30.959  23.110  13.538
 9973W        W82233  24.648  23.060   3.214
 9974W        W82234  15.740  43.435   3.819
 9975W        W82235   8.779  12.300  10.430
 9976W        W82236  17.152  10.806   2.773
 9977W        W82237   9.813  36.501  14.960
 9978W        W82238  18.118  35.057  12.383
 9979W        W82239   5.378  44.355  10.636
 9980W        W82240  41.468  38.472  12.454
 9981W        W82241  39.028  38.510  13.055
 9982W        W82242  12.811  24.090   3.277
 9983W        W82243  35.427  31.147   3.693
 9984W        W82244   4.743  43.486   0.392
 9985W        W82245   5.815   4.901  12.999
 9986W        W82246  28.094   6.262   3.334
 9987W        W82247  20.718  13.125   1.241
 9988W        W82248  10.206  10.648  12.391
 9989W        W82249   7.383   5.691  12.505
 9990W        W82250  25.007   2.905  12.079
 9991W        W82251  39.453  29.055  13.333
 9992W        W82252  36.441  44.949  10.607
 9993W        W82253  31.563  41.990   2.883
 9994W        W82254   5.728  40.048   0.459
 9995W        W82255  41.955   9.724   0.315
 9996W        W82256  28.957  42.450   4.798
 9997W        W82257  29.630  44.313  14.500
 9998W        W82258  38.546  36.015   1.300
 9999W        W82259   4.926  31.413  12.507
10000W        W82260  36.964  44.802  11.093
10001W        W82261  30.918  17.262  13.954
10002W        W82262   3.750   1.436   0.400
10003W        W82263  22.729  34.005  11.532
10004W        W82264  39.361  25.626   1.920
10005W        W82265  42.302  25.078   5.253
10006W        W82266  41.008   7.354  13.397
10007W        W82267  19.064  19.283  11.026
10008W        W82268  40.346   8.183  12.519
10009W        W82269   4.365   6.267  14.809
10010W        W82270   3.375  16.090  13.860
10011W        W82271   9.825  17.691  11.372
10012W        W82272   6.850  12.328   0.419
10013W        W82273   5.695  40.965  14.900
10014W        W82274  28.472  21.049   2.801
10015W        W82275   4.271  43.940   4.769
10016W        W82276  25.711  37.408  14.415
10017W        W82277   2.809  33.507   0.825
10018W        W82278  44.785  34.540  11.517
10019W        W82279  42.837  23.104   1.256
10020W        W82280   1.321  24.681  13.520
10021W        W82281  37.992  31.933   0.792
10022W        W82282  24.186  41.358   2.206
10023W        W82283   8.266   8.288  12.879
10024W        W82284   0.785  28.141  12.023
10025W        W82285  24.047  23.494  13.427
10026W        W82286  16.297  22.504  14.868
10027W        W82287   7.699  17.796  14.841
10028W        W82288  30.588  35.944   1.280
10029W        W82289  37.005  15.761   2.222
10030W        W82290  12.821  33.887  10.531
10031W        W82291   7.847   1.923   4.119
10032W        W82292  16.731  24.664  11.091
10033W        W82293   1.451   9.258  14.406
10034W        W82294   8.363   9.326  14.468
10035W        W82295  10.684  36.999   0.396
10036W        W82296  26.553  37.962  14.432
10037W        W82297  42.337  28.166   1.304
10038W        W82298  18.209  15.224  13.360
10039W        W82299  37.471  41.981   0.731
10040W        W82300  32.084  10.166   3.301
10041W        W82301  10.663  10.873  13.920
10042W        W82302   0.490  25.523   4.300
10043W        W82303  44.469  31.941   0.475
10044W        W82304   2.942  37.972   1.218
10045W        W82305  30.521  18.062  11.454
10046W        W82306  27.051  38.455   2.304
10047W        W82307   7.752   8.727   0.898
10048W        W82308  28.942  19.183   0.245
10049W        W82309  22.015  29.128   5.664
10050W        W82310  13.702  19.159   1.351
10051W        W82311  12.182   3.351   1.756
10052W        W82312  14.216  19.091  14.017
10053W        W82313  37.031  40.337  13.358
10054W        W82314  41.408   3.828  14.282
10055W        W82315   6.239  18.172  11.061
10056W        W82316  43.362   3.781   1.862
10057W        W82317  31.601   5.231  11.954
10058W        W82318  42.799  44.333  11.463
10059W        W82319  44.489   9.663  13.326
10060W        W82320  28.590   1.913   0.326
10061W        W82321   6.315   6.872   0.828
10062W        W82322  13.722  34.975   4.331
10063W        W82323   8.177  36.575   3.675
10064W        W82324  15.722  24.021   1.898
10065W        W82325  10.839  34.018   4.257
10066W        W82326   4.412  13.699   0.727
10067W        W82327  19.750  30.438   0.334
10068W        W82328  36.900  15.254  11.528
10069W        W82329  39.553   9.679  11.933
10070W        W82330  39.533  27.056  12.969
10071W        W82331  27.974  31.603   0.283
10072W        W82332  25.611  31.607  13.458
10073W        W82333  31.431  41.953  14.859
10074W        W82334  44.330  32.040   1.718
10075W        W82335  40.533   0.969  13.475
10076W        W82336  37.056  19.234   3.730
10077W        W82337  18.765  23.716  13.864
10078W        W82338  31.002   4.321  14.994
10079W        W82339  32.980   5.702   3.293
10080W        W82340  33.938  13.800  14.371
10081W        W82341  11.810  31.979  12.961
10082W        W82342  36.552  13.109   3.279
10083W        W82343  34.504   8.342   1.868
10084W        W82344   4.780  32.022   1.427
10085W        W82345  33.571  26.209  12.444
10086W        W82346  42.941   2.387   2.708
10087W        W82347  39.954  10.861  12.848
10088W        W82348  24.721  33.078   2.797
10089W        W82349  12.227  31.647  11.452
10090W        W82350  21.074  28.089  14.894
10091W        W82351  22.180  33.456   4.606
10092W        W82352  18.736  29.012  13.941
10093W        W82353  34.982  24.057  11.480
10094W        W82354  37.985  33.531  14.450
10095W        W82355  23.490  32.075  14.496
10096W        W82356   2.780  18.119  12.993
10097W        W82357  23.146  15.644   3.351
10098W        W82358   4.281  42.288   1.893
10099W        W82359  10.784  39.505   1.890
10100W        W82360  23.156  12.774  10.928
10101W        W82361  36.471  30.011  13.345
10102W        W82362  41.881  11.300  12.879
10103W        W82363  11.702  14.203  11.444
10104W        W82364  22.009  13.228  11.033
10105W        W82365  19.068  15.780  12.995
10106W        W82366  18.264  29.586   1.839
10107W        W82367   8.664  27.949   0.856
10108W        W82368  20.225   5.930   9.672
10109W        W82369  21.629   6.257  13.004
10110W        W82370  31.591  31.555   4.611
10111W        W82371  15.581  16.657  13.382
10112W        W82372  33.033   2.332   4.286
10113W        W82373  24.718  34.117   0.453
10114W        W82374  10.381  19.568  11.116
10115W        W82375  41.478  15.677   2.830
10116W        W82376  28.075  37.363   5.212
10117W        W82377  18.719  21.617  13.475
10118W        W82378   2.288   8.840  11.896
10119W        W82379  41.890  22.568  10.471
10120W        W82380  29.024  22.046   3.741
10121W        W82381   4.368  17.607   2.410
10122W        W82382  22.190  15.183   2.418
10123W        W82383  15.139  25.033  14.000
10124W        W82384   4.853  17.719   4.801
10125W        W82385  14.831  18.158   1.334
10126W        W82386  40.023  13.661   1.427
10127W        W82387   5.220  44.329   1.825
10128W        W82388  27.664  42.313   4.686
10129W        W82389   0.915  28.456   2.709
10130W        W82390  44.444  31.035  10.587
10131W        W82391   2.400   7.309  10.553
10132W        W82392   5.416  39.895  14.502
10133W        W82393  36.519  31.536   2.293
10134W        W82394   8.727   1.299  10.909
10135W        W82395  43.012   0.466  10.619
10136W        W82396  12.217  38.546   2.808
10137W        W82397  27.499  39.950   2.411
10138W        W82398  42.454  31.938   3.375
10139W        W82399  37.443  25.193  12.937
10140W        W82400  35.582  30.035  14.278
10141W        W82401   3.335  15.215  12.416
10142W        W82402  25.131  11.630   0.856
10143W        W82403   7.754  25.095   2.182
10144W        W82404   0.452  25.611   3.775
10145W        W82405   2.426  44.276  11.493
10146W        W82406  39.853  28.932  12.470
10147W        W82407  29.432  14.338   3.670
10148W        W82408  13.126   8.244  14.864
10149W        W82409   5.237  24.576  14.789
10150W        W82410  13.172  36.023  13.809
10151W        W82411  35.463   2.379  12.964
10152W        W82412  16.103   4.712  13.426
10153W        W82413  42.509   5.430   0.395
10154W        W82414  32.975  41.407  14.923
10155W        W82415  34.896  42.900   9.927
10156W        W82416  44.815   5.347  12.546
10157W        W82417  41.414  44.853   3.177
10158W        W82418   8.298   7.393  13.878
10159W        W82419   6.236  18.686   4.739
10160W        W82420  32.011   0.343  14.364
10161W        W82421  38.376  44.434   4.223
10162W        W82422  35.911  28.458   4.159
10163W        W82423  39.438  21.653  12.456
10164W        W82424  20.245   2.774  10.906
10165W        W82425  31.012  11.720  13.028
10166W        W82426  32.916   3.904   0.855
10167W        W82427  38.906  10.160   3.804
10168W        W82428  34.508  15.129  12.385
10169W        W82429  34.870   5.329  10.632
10170W        W82430   2.822  12.805   0.907
10171W        W82431  41.035   5.263  10.628
10172W        W82432   4.771  14.670  12.069
10173W        W82433   6.391  27.035  13.813
10174W        W82434  26.471   7.394  11.070
10175W        W82435  26.561   1.828  12.823
10176W        W82436  35.416  19.687  10.120
10177W        W82437  24.614  12.648   0.881
10178W        W82438  44.930  11.852  11.991
10179W        W82439  40.931  14.227   4.164
10180W        W82440  22.099  28.454  13.327
10181W        W82441   6.910   9.157   3.303
10182W        W82442   7.716  14.608   2.852
10183W        W82443  15.766  33.015   3.736
10184W        W82444   1.433  42.799  11.980
10185W        W82445  39.535  29.001  10.407
10186W        W82446  35.457  19.214   0.797
10187W        W82447  13.197  39.872  13.343
10188W        W82448  44.881  25.199  11.465
10189W        W82449   6.864  25.544   1.861
10190W        W82450  37.887  37.926   3.719
10191W        W82451   8.284   9.797  14.947
10192W        W82452   7.811   3.781   3.689
10193W        W82453   6.738  13.277  14.347
10194W        W82454   3.348   3.789  11.061
10195W        W82455  16.643   3.346  10.417
10196W        W82456  27.472   3.220  10.439
10197W        W82457  30.465  14.710   3.865
10198W        W82458   6.254  14.675  12.970
10199W        W82459  42.393  27.497   2.320
10200W        W82460  21.239  28.160   2.353
10201W        W82461  13.647  42.029   1.761
10202W        W82462  24.518  21.633   3.183
10203W        W82463  42.969  44.312   0.256
10204W        W82464  33.029   9.366  11.043
10205W        W82465  39.443  40.439  11.103
10206W        W82466  40.414  20.669  11.374
10207W        W82467   9.335  18.135  12.897
10208W        W82468  37.507  22.164   4.711
10209W        W82469  31.933  42.783   0.401
10210W        W82470  11.811   7.417  12.961
10211W        W82471   6.202  31.454  10.585
10212W        W82472   5.932  36.903   1.248
10213W        W82473  37.354   7.711   0.950
10214W        W82474  44.365  38.000   1.848
10215W        W82475  23.183  39.341   0.793
10216W        W82476   0.750  18.695  12.407
10217W        W82477  27.541   1.378   0.266
10218W        W82478  17.687  37.027   1.788
10219W        W82479  37.846  18.272  11.390
10220W        W82480  35.089  19.775   0.765
10221W        W82481   6.351  10.145   0.411
10222W        W82482  13.225  20.652   0.341
10223W        W82483  30.066  18.624   2.797
10224W        W82484  28.563  10.145   0.463
10225W        W82485  35.569  44.374   1.304
10226W        W82486  35.479  22.024  11.951
10227W        W82487  24.527  24.059   3.664
10228W        W82488   2.463  15.228   1.828
10229W        W82489  41.953   0.387  13.432
10230W        W82490  18.644  34.521   1.715
10231W        W82491  37.508  44.921  11.472
10232W        W82492  27.631  29.512   1.339
10233W        W82493  15.748  32.049  12.479
10234W        W82494  32.114   9.798   4.752
10235W        W82495  22.209  16.784   1.215
10236W        W82496  16.253  18.087  12.939
10237W        W82497  26.129  23.520   4.648
10238W        W82498  44.292  11.794  12.509
10239W        W82499  24.645  22.104   1.734
10240W        W82500  28.973  26.956   0.425
10241W        W82501  24.591  39.439  14.386
10242W        W82502   1.309  25.611  13.480
10243W        W82503  10.156  32.120   0.742
10244W        W82504  43.937  10.827  12.541
10245W        W82505  32.456  18.649   4.732
10246W        W82506  21.209  24.546  12.943
10247W        W82507  38.852  30.566   2.249
10248W        W82508  22.694  41.456   4.802
10249W        W82509  40.355  11.785  12.545
10250W        W82510   4.346  23.006   0.357
10251W        W82511   0.478   5.825  14.829
10252W        W82512  37.562  11.711   0.433
10253W        W82513  39.912  26.122   0.938
10254W        W82514  23.529   8.759  14.414
10255W        W82515   7.408  28.480   5.714
10256W        W82516   0.388  10.854   3.679
10257W        W82517  29.542   3.311   1.279
10258W        W82518  38.990  22.510   2.406
10259W        W82519  25.000  18.114   2.787
10260W        W82520  10.186   6.181  12.476
10261W        W82521   2.956  30.928   3.748
10262W        W82522  31.635  39.456   3.630
10263W        W82523  32.103  31.514   2.400
10264W        W82524   9.682  27.985  10.631
10265W        W82525  19.268  36.395   3.719
10266W        W82526   3.788  11.287  13.935
10267W        W82527  34.997  21.041  14.418
10268W        W82528   0.437  32.561   4.608
10269W        W82529  40.422  38.556  11.079
10270W        W82530  42.495   4.384  12.403
10271W        W82531  28.454  33.981   2.767
10272W        W82532  31.106  17.651  14.327
10273W        W82533  15.736  31.116   1.712
10274W        W82534  35.570  27.064  10.513
10275W        W82535  10.746  38.474   0.257
10276W        W82536  32.020  21.680  11.481
10277W        W82537   2.299  30.922  10.572
10278W        W82538   1.250  40.823  14.983
10279W        W82539  13.168  13.690  12.879
10280W        W82540  30.026  39.339  12.037
10281W        W82541  14.260  12.619   0.742
10282W        W82542   3.387  19.260  14.843
10283W        W82543  37.454   8.817  13.791
10284W        W82544  22.095  39.403   0.381
10285W        W82545   7.331  30.018  10.934
10286W        W82546  33.576  16.615   2.823
10287W        W82547  25.984  33.564   1.377
10288W        W82548  40.892  15.661  12.955
10289W        W82549  39.414  35.598  11.984
10290W        W82550   6.785  22.616   1.765
10291W        W82551  36.351  11.810   0.438
10292W        W82552  39.857   4.768  14.411
10293W        W82553  22.664   1.824   4.346
10294W        W82554   7.317  21.741   2.800
10295W        W82555  38.847  35.452   4.809
10296W        W82556   1.354  17.672  12.378
10297W        W82557  13.232  10.163   0.273
10298W        W82558  15.701  38.858  14.514
10299W        W82559  17.765  38.871   1.754
10300W        W82560  30.987  15.162  14.365
10301W        W82561   0.397  11.658   4.185
10302W        W82562   1.844  20.256  11.042
10303W        W82563  14.292  13.818   0.734
10304W        W82564   0.933  37.423   4.282
10305W        W82565  16.275  16.626  12.091
10306W        W82566  33.490  17.175  11.540
10307W        W82567  41.430   8.394  10.404
10308W        W82568  18.251  40.824   2.792
10309W        W82569  40.962   2.813   4.349
10310W        W82570  10.787  32.080  12.358
10311W        W82571  39.016  32.069   4.808
10312W        W82572  42.413   5.729  11.485
10313W        W82573  16.593  34.949   4.241
10314W        W82574  31.113  32.007  11.429
10315W        W82575  30.159  30.612   1.342
10316W        W82576  31.519  43.932   2.183
10317W        W82577   0.918  37.948   1.299
10318W        W82578   2.797  21.682   2.684
10319W        W82579  29.111   2.819  12.878
10320W        W82580  32.622  18.755   1.299
10321W        W82581  25.629  26.150  12.894
10322W        W82582  30.085  24.176   3.796
10323W        W82583   7.811  18.591   4.687
10324W        W82584  42.295   6.761   4.262
10325W        W82585  14.599  14.795  13.901
10326W        W82586  30.017  37.871  14.368
10327W        W82587  23.222  25.487  14.860
10328W        W82588  24.707  18.225  13.937
10329W        W82589   7.298  15.254  12.367
10330W        W82590  31.896  35.426  10.520
10331W        W82591  12.209  28.976  14.920
10332W        W82592  31.050  37.454  11.940
10333W        W82593  21.571  28.112   0.301
10334W        W82594  23.195  38.850  10.995
10335W        W82595  18.777  28.019  11.544
10336W        W82596  26.158   8.827  13.790
10337W        W82597   2.415  41.829   0.758
10338W        W82598   3.748  28.608   0.319
10339W        W82599   5.418  13.272   2.688
10340W        W82600  25.029  41.998   5.571
10341W        W82601  17.745  40.917  12.065
10342W        W82602  29.977  33.509   2.258
10343W        W82603  12.354   4.806  12.529
10344W        W82604  26.023  14.799  10.570
10345W        W82605   1.426  19.649   1.879
10346W        W82606  34.030  33.922  11.544
10347W        W82607  34.089   7.352   2.857
10348W        W82608  27.031  37.436  10.908
10349W        W82609  38.508  36.364  12.411
10350W        W82610  44.965   6.879   2.229
10351W        W82611  18.632   4.237  13.430
10352W        W82612  22.205  26.155   0.930
10353W        W82613  15.199  37.442   2.882
10354W        W82614  31.104  28.599  14.382
10355W        W82615  30.101  33.089   0.302
10356W        W82616  17.247  13.739   4.801
10357W        W82617  43.352   4.261  14.866
10358W        W82618  19.068   9.308  12.480
10359W        W82619   9.352  20.154   2.382
10360W        W82620   2.441   0.482   3.782
10361W        W82621  42.454   5.890  10.989
10362W        W82622  39.876   3.900   1.705
10363W        W82623  43.872  27.196  13.801
10364W        W82624   2.830  44.787  12.885
10365W        W82625  33.959   7.724  12.376
10366W        W82626   5.412  18.713  11.554
10367W        W82627  28.952  16.154  14.459
10368W        W82628  19.188   6.820   3.635
10369W        W82629  17.766  14.799  14.332
10370W        W82630   8.766  44.378   4.805
10371W        W82631  10.318  31.601  10.551
10372W        W82632   1.325  31.060   3.152
10373W        W82633   5.734  37.070   4.325
10374W        W82634  37.887  23.090  11.472
10375W        W82635   6.770  19.255   2.768
10376W        W82636  38.474  28.982  13.397
10377W        W82637   0.346   8.735   1.393
10378W        W82638  10.364  39.419   0.759
10379W        W82639  42.392  23.661   2.350
10380W        W82640  10.339   3.459   2.380
10381W        W82641  15.198   7.247  12.381
10382W        W82642  43.009  13.341   2.899
10383W        W82643   5.235  27.056  12.504
10384W        W82644   8.672  32.090   4.834
10385W        W82645  21.708   2.825   4.172
10386W        W82646  26.471  18.290  14.371
10387W        W82647   1.413   8.672   3.733
10388W        W82648  10.695  41.032   3.228
10389W        W82649  16.193  22.118  12.934
10390W        W82650  31.977  42.871  14.498
10391W        W82651  13.803  33.472  12.940
10392W        W82652   6.795  38.489  10.505
10393W        W82653  36.069  17.189   1.346
10394W        W82654  34.451  41.312   2.302
10395W        W82655  13.340  39.911  11.054
10396W        W82656  33.070  35.496  11.449
10397W        W82657  28.161   7.754  11.938
10398W        W82658  34.994  42.336   4.132
10399W        W82659   5.901  35.938   4.223
10400W        W82660  19.101   8.757   4.302
10401W        W82661   4.203  39.916  10.521
10402W        W82662  18.672  13.706   3.196
10403W        W82663   9.379  14.280   2.362
10404W        W82664   1.271  12.813   0.855
10405W        W82665  42.376  18.091  10.483
10406W        W82666  39.480  42.515  13.981
10407W        W82667  12.348   6.880   1.426
10408W        W82668  30.656  10.188  11.914
10409W        W82669  30.601  18.704  12.366
10410W        W82670  21.528  34.534  12.490
10411W        W82671  37.994  14.317   0.483
10412W        W82672  12.740  29.074   4.597
10413W        W82673  38.832  14.320   3.761
10414W        W82674  12.154  19.217   0.319
10415W        W82675  15.160   5.729   2.262
10416W        W82676  12.345  41.418   2.686
10417W        W82677  41.014  34.029  12.093
10418W        W82678  17.195   6.334  13.933
10419W        W82679  42.874   1.806  12.830
10420W        W82680   7.305  14.809   1.428
10421W        W82681  23.143   7.753   0.445
10422W        W82682   4.207  33.578   4.272
10423W        W82683  10.349  31.088   2.275
10424W        W82684  27.449  44.995   4.333
10425W        W82685  37.994   8.257  10.459
10426W        W82686  39.946  42.453  13.387
10427W        W82687  28.977  17.725   0.841
10428W        W82688   6.883  17.569   3.179
10429W        W82689  35.074   8.872  12.849
10430W        W82690   8.870  31.643   4.627
10431W        W82691  27.614  41.462   3.350
10432W        W82692  44.262  32.095   1.397
10433W        W82693  18.609   1.341  13.506
10434W        W82694   2.309  16.569  13.942
10435W        W82695  29.624  40.849  13.801
10436W        W82696  19.045   6.709   4.228
10437W        W82697  23.037  13.768   1.442
10438W        W82698  26.630  43.812   1.352
10439W        W82699   5.819  24.134  14.358
10440W        W82700  39.399  36.909   4.274
10441W        W82701  34.073  20.754   4.132
10442W        W82702  28.625  17.722  12.889
10443W        W82703  18.544  20.767  14.968
10444W        W82704  27.110  26.649  10.011
10445W        W82705  24.642  29.646   2.675
10446W        W82706  43.349  27.615  12.842
10447W        W82707  27.469   5.849   0.420
10448W        W82708  36.865  18.079   0.387
10449W        W82709  38.445  36.960  11.062
10450W        W82710  31.092  37.513  14.819
10451W        W82711  35.104  34.884  11.856
10452W        W82712   6.797  42.362   1.347
10453W        W82713   5.252  12.270   3.853
10454W        W82714  19.143  26.675  10.969
10455W        W82715  21.141  37.561  11.515
10456W        W82716   9.718  40.914  14.303
10457W        W82717  30.046  16.310  14.305
10458W        W82718   3.424  44.955   1.899
10459W        W82719  20.568  12.827   4.123
10460W        W82720  12.744  32.048   0.867
10461W        W82721  13.756  40.467  11.932
10462W        W82722  12.328  14.127  13.945
10463W        W82723  14.214  36.471  11.413
10464W        W82724   3.289  40.035   1.786
10465W        W82725  30.010  13.834   2.212
10466W        W82726  41.846  41.394   0.429
10467W        W82727  24.975   4.359   1.289
10468W        W82728  39.393  16.687  14.929
10469W        W82729  31.464  39.839  14.903
10470W        W82730  30.533  32.450   9.936
10471W        W82731  39.523  35.096   4.739
10472W        W82732  17.657  34.555  14.410
10473W        W82733  18.236  13.664  13.353
10474W        W82734  15.638  44.983  10.972
10475W        W82735  24.989   4.364   4.616
10476W        W82736   5.908   8.721  11.963
10477W        W82737   8.301   0.776  11.556
10478W        W82738  19.134  13.345   0.944
10479W        W82739  33.626  35.880  13.406
10480W        W82740  28.510   9.348   0.863
10481W        W82741  10.231   7.275   3.632
10482W        W82742  13.339   7.351   4.703
10483W        W82743  39.882  14.737   4.785
10484W        W82744  33.500  43.512  11.488
10485W        W82745   2.780   8.807   3.832
10486W        W82746  39.519  18.163   2.676
10487W        W82747   9.221   8.248   3.707
10488W        W82748  11.781  38.410   4.333
10489W        W82749  34.399  27.037  11.594
10490W        W82750  32.488  29.972  12.407
10491W        W82751   6.795  30.059  13.942
10492W        W82752   9.719   3.420   3.827
10493W        W82753  42.328   7.206   0.732
10494W        W82754  41.859   0.450  12.518
10495W        W82755  18.673  24.209  10.508
10496W        W82756  42.378  19.229  11.944
10497W        W82757   9.249  23.067   3.831
10498W        W82758   2.374  29.171   0.855
10499W        W82759  11.157  15.669  10.573
10500W        W82760   4.794   5.831   2.893
10501W        W82761  41.384  11.186  13.862
10502W        W82762  18.635  38.872   2.705
10503W        W82763  26.549  42.805  11.919
10504W        W82764  18.195  41.458  13.323
10505W        W82765  39.845  38.386   2.708
10506W        W82766  44.408  27.467   4.326
10507W        W82767  40.898  12.231  11.566
10508W        W82768  33.505   7.334   0.279
10509W        W82769  18.575   5.375  11.926
10510W        W82770  40.860  19.173   1.821
10511W        W82771  14.629  18.746   4.205
10512W        W82772  31.571   8.185  12.085
10513W        W82773  25.637  11.840  12.492
10514W        W82774   8.197   2.458   4.312
10515W        W82775  12.798  23.163  10.586
10516W        W82776  20.106  12.342  14.760
10517W        W82777  26.472   0.864   5.246
10518W        W82778  38.927  18.628  11.378
10519W        W82779  33.079  19.212  14.304
10520W        W82780  20.179  10.702   3.762
10521W        W82781  19.199  34.611  14.486
10522W        W82782  16.164  26.128  13.319
10523W        W82783   7.902   2.358  10.909
10524W        W82784  30.938  13.779   4.604
10525W        W82785  14.661   8.678  11.929
10526W        W82786  11.144  33.025  13.363
10527W        W82787  17.221  11.249  11.026
10528W        W82788  31.486   3.328   1.358
10529W        W82789  28.676  33.503   4.322
10530W        W82790  19.634  37.877   1.325
10531W        W82791  22.626  16.801  11.003
10532W        W82792  39.003  22.019   3.365
10533W        W82793  27.478  30.961   0.451
10534W        W82794  40.539  10.224   3.362
10535W        W82795  31.969  26.525   2.334
10536W        W82796   3.303  35.981   0.348
10537W        W82797  33.032  30.498   1.310
10538W        W82798  42.999  37.935   1.796
10539W        W82799   5.749  31.423  10.968
10540W        W82800  34.960  43.835  14.000
10541W        W82801   2.740  33.951   4.811
10542W        W82802   1.948   7.857   2.665
10543W        W82803  31.578   0.871   2.214
10544W        W82804  36.416   8.397  13.477
10545W        W82805  35.598   1.823   4.285
10546W        W82806  25.679  16.616   2.776
10547W        W82807  36.518  32.107  14.428
10548W        W82808  11.807  28.565   4.208
10549W        W82809  20.567   6.773  12.465
10550W        W82810   4.406   3.710   4.774
10551W        W82811  20.190  14.698   0.338
10552W        W82812  21.702  10.664  10.433
10553W        W82813  31.972   9.179   1.824
10554W        W82814   5.829   7.866   2.291
10555W        W82815   8.774   8.714   3.220
10556W        W82816  42.897  36.481   1.843
10557W        W82817  28.033   9.242  12.545
10558W        W82818  41.472   6.202   3.834
10559W        W82819   1.899   2.955   1.707
10560W        W82820  38.885   1.468  11.917
10561W        W82821  14.175  31.066   1.283
10562W        W82822   2.755  12.758   2.317
10563W        W82823  43.879   4.301  14.371
10564W        W82824  27.033   1.395  13.868
10565W        W82825   7.346  12.843  13.502
10566W        W82826  25.541  37.440   0.243
10567W        W82827  43.837   7.886  13.396
10568W        W82828  19.267  24.057   0.921
10569W        W82829  25.516  40.501   3.791
10570W        W82830  38.027  12.223   2.685
10571W        W82831  12.172  15.193  13.413
10572W        W82832  23.712  10.289   2.204
10573W        W82833  10.831  23.536   5.193
10574W        W82834   3.815  19.148  10.560
10575W        W82835  42.477  23.027   0.864
10576W        W82836  14.716  33.097  14.860
10577W        W82837   8.389   3.798   3.867
10578W        W82838  43.764  40.900  11.497
10579W        W82839  43.968   9.388  14.388
10580W        W82840   2.458  29.089   2.419
10581W        W82841  35.900   2.795  13.381
10582W        W82842   4.293  27.150  11.482
10583W        W82843  33.422  29.135   9.977
10584W        W82844  11.668  28.006   0.330
10585W        W82845  30.982  29.166   3.826
10586W        W82846  31.940   6.407   1.819
10587W        W82847  42.975  40.543  10.907
10588W        W82848  23.654  27.130  12.048
10589W        W82849  40.304  20.653   4.631
10590W        W82850  27.669  35.892  10.467
10591W        W82851  18.618  30.448   3.765
10592W        W82852  39.546  28.075  14.855
10593W        W82853  43.856  19.045   3.187
10594W        W82854  24.580  30.148   4.263
10595W        W82855  30.494  20.736  14.430
10596W        W82856   9.293  28.525  14.378
10597W        W82857  13.657  34.454   3.636
10598W        W82858  20.223  30.652  11.874
10599W        W82859   2.461  41.878   0.310
10600W        W82860   9.661  24.698   2.835
10601W        W82861  26.976  21.244  11.942
10602W        W82862  17.258  29.968   4.183
10603W        W82863  29.617  31.598  14.844
10604W        W82864  28.451  24.226  11.519
10605W        W82865   3.832  31.144   1.923
10606W        W82866  44.813  41.870   2.302
10607W        W82867  18.112  36.055   4.780
10608W        W82868  38.401  26.474  10.465
10609W        W82869  27.670  15.118   0.410
10610W        W82870  43.816   5.710   0.246
10611W        W82871  30.642   6.895  11.062
10612W        W82872  32.567   1.880   2.342
10613W        W82873  34.436  34.021   2.784
10614W        W82874  34.966  43.346   3.667
10615W        W82875  37.428  41.512   2.771
10616W        W82876  30.454  38.530  10.544
10617W        W82877  34.579  42.941  14.771
10618W        W82878   3.459  12.263   2.331
10619W        W82879  44.998  36.386  10.420
10620W        W82880  22.062  23.123  14.888
10621W        W82881  17.211  43.796   0.783
10622W        W82882  18.766   4.804  13.997
10623W        W82883  11.789  24.171  12.507
10624W        W82884  13.184  21.078   2.693
10625W        W82885  44.504  39.881  11.945
10626W        W82886  39.868  27.588   0.903
10627W        W82887  28.066  24.506  14.408
10628W        W82888  37.517  28.130   4.690
10629W        W82889  23.027  19.244   9.646
10630W        W82890  26.484  25.008   3.236
10631W        W82891  13.347   3.333  10.914
10632W        W82892  20.062  35.914  11.958
10633W        W82893  13.221  21.124   3.266
10634W        W82894  24.023  40.940  11.572
10635W        W82895  16.154   3.421  12.003
10636W        W82896  32.979  32.926  12.549
10637W        W82897  16.683   1.402  13.417
10638W        W82898   1.966  39.024   4.724
10639W        W82899  10.640  20.567  14.275
10640W        W82900  40.988  28.030   2.714
10641W        W82901  31.631  34.002   3.667
10642W        W82902  28.457  11.329   0.776
10643W        W82903  19.099   0.852  11.560
10644W        W82904  18.077  17.784   0.365
10645W        W82905  32.410  36.937   4.202
10646W        W82906   3.800  23.042   2.812
10647W        W82907   1.800  10.222   1.326
10648W        W82908  28.091  43.846   4.212
10649W        W82909  42.950   7.895  13.853
10650W        W82910   9.873  18.234  12.574
10651W        W82911  41.788  40.863  13.356
10652W        W82912   7.712  40.413   0.774
10653W        W82913  38.933  36.534   2.261
10654W        W82914   2.270   1.240   2.236
10655W        W82915  25.017  15.656  13.364
10656W        W82916  40.463  18.232   0.306
10657W        W82917  41.951  22.664  11.603
10658W        W82918  27.016  43.503  11.520
10659W        W82919   2.822  21.051  12.515
10660W        W82920   6.706  11.197  10.638
10661W        W82921  37.059  29.153  12.549
10662W        W82922  12.192  44.283   3.311
10663W        W82923  33.561  24.002   4.617
10664W        W82924  44.399  24.131  12.404
10665W        W82925  28.122  29.562   3.314
10666W        W82926  11.631  24.651  11.387
10667W        W82927   3.266  15.748   1.423
10668W        W82928  43.794  38.971  10.561
10669W        W82929  26.129  26.011  11.587
10670W        W82930  35.535  40.020  11.562
10671W        W82931  31.029  26.594   3.184
10672W        W82932   4.361   6.852   4.159
10673W        W82933   7.814   8.177   3.646
10674W        W82934  24.663  10.343  14.873
10675W        W82935  36.097  32.035   0.410
10676W        W82936  28.002  10.640  14.445
10677W        W82937  44.938  24.999  12.006
10678W        W82938  37.949  11.784  12.918
10679W        W82939  29.488  28.170   2.732
10680W        W82940  13.748   8.222  14.345
10681W        W82941  16.203   5.196  11.554
10682W        W82942  35.932  40.897  10.988
10683W        W82943  21.541   8.224  12.547
10684W        W82944   6.344  28.670   2.798
10685W        W82945  23.183  26.614   1.367
10686W        W82946  17.260  36.499  12.913
10687W        W82947  44.753   0.867   4.306
10688W        W82948  42.308  38.410  11.569
10689W        W82949  11.856  39.417  11.877
10690W        W82950  43.287  43.872   2.769
10691W        W82951  43.443  42.891   3.259
10692W        W82952  39.427  30.066   2.738
10693W        W82953  21.144  41.371  14.973
10694W        W82954  28.573   4.771  11.416
10695W        W82955  43.862   0.466  10.445
10696W        W82956  34.970  19.240  11.517
10697W        W82957  26.063  44.385  14.313
10698W        W82958  12.624  41.013   3.637
10699W        W82959  28.467  29.592   0.396
10700W        W82960   6.851  28.502  10.460
10701W        W82961  12.706  14.784   4.603
10702W        W82962  36.581  20.237   2.372
10703W        W82963   3.741  27.131  10.943
10704W        W82964  44.309   7.719  14.906
10705W        W82965  17.775  36.968  12.080
10706W        W82966  29.000   1.741  14.317
10707W        W82967  18.589  31.998  12.348
10708W        W82968   8.371  35.913  12.484
10709W        W82969  40.477  20.170   0.865
10710W        W82970   2.274  21.088  13.320
10711W        W82971  32.036  32.532   2.282
10712W        W82972  40.350  42.476  13.313
10713W        W82973  24.660  39.457   9.994
10714W        W82974  40.363   0.340   2.719
10715W        W82975  15.676  42.489   4.609
10716W        W82976   9.816  25.127   0.310
10717W        W82977   7.372   4.762   3.238
10718W        W82978  20.263  25.059  12.863
10719W        W82979  22.176  18.616  12.890
10720W        W82980   7.351  15.221  13.812
10721W        W82981  29.138  28.961  11.443
10722W        W82982  24.072  21.640   2.299
10723W        W82983  44.827   1.239   1.901
10724W        W82984  37.004   4.262  11.455
10725W        W82985  39.547   6.691  12.427
10726W        W82986  11.337  12.802  10.439
10727W        W82987  38.419  10.179   2.318
10728W        W82988  41.868  36.909   4.264
10729W        W82989  29.108  26.679  14.016
10730W        W82990  12.774  36.020   0.306
10731W        W82991  11.639  20.741  12.426
10732W        W82992  27.544  42.817  14.371
10733W        W82993  29.475  10.695   0.261
10734W        W82994  40.543  42.991  12.050
10735W        W82995  36.988  24.093  12.476
10736W        W82996  30.094   3.896   2.315
10737W        W82997  13.170   0.344  12.060
10738W        W82998  15.643  10.663  13.985
10739W        W82999  39.339  18.569  12.894
10740W        W83000  31.446  41.348  13.896
10741W        W83001  11.784  32.033   0.768
10742W        W83002  25.196  16.159   4.130
10743W        W83003  17.706  25.510   2.763
10744W        W83004  43.990   2.948   1.276
10745W        W83005  22.079  26.101  11.034
10746W        W83006  25.532  37.453  10.566
10747W        W83007  25.202   3.801  13.969
10748W        W83008  33.547  20.534  11.030
10749W        W83009  12.698  26.509   0.451
10750W        W83010  33.461  22.229  10.921
10751W        W83011  26.584  10.869   2.787
10752W        W83012  44.448   2.233   2.229
10753W        W83013  29.499  13.278   3.707
10754W        W83014  27.105  10.876   2.271
10755W        W83015  36.541  23.112  13.324
10756W        W83016  20.170  40.935  12.898
10757W        W83017   8.845  37.906  13.430
10758W        W83018  24.172   1.941   0.823
10759W        W83019   3.221  35.854  13.040
10760W        W83020  19.564   7.368  10.456
10761W        W83021  26.524  35.915  13.356
10762W        W83022  35.086  30.081  13.503
10763W        W83023  20.762  42.965  12.035
10764W        W83024  21.742  28.472   5.085
10765W        W83025  13.778  27.076   0.279
10766W        W83026  23.007  35.572  14.969
10767W        W83027  10.299   1.902  14.032
10768W        W83028  31.077   5.400  12.555
10769W        W83029   3.849   4.870   1.813
10770W        W83030   1.818  10.678  13.956
10771W        W83031  39.012  16.643   0.296
10772W        W83032   0.469  24.649  10.466
10773W        W83033   7.411  43.941   0.848
10774W        W83034   1.805  22.187  11.442
10775W        W83035  29.447   8.337  14.318
10776W        W83036  42.799  33.958  11.449
10777W        W83037  44.917  39.016   1.327
10778W        W83038   3.843  27.559  14.452
10779W        W83039  20.143  42.987   1.336
10780W        W83040   4.702  30.626  10.493
10781W        W83041   6.903   3.395  12.874
10782W        W83042  35.030   0.790  12.038
10783W        W83043   6.849   2.227  13.843
10784W        W83044  19.100  33.453   2.225
10785W        W83045  24.674   6.198  12.459
10786W        W83046  10.271   8.386   2.409
10787W        W83047   0.301  16.200  11.493
10788W        W83048  25.533  31.458   0.261
10789W        W83049   2.817  42.909  13.334
10790W        W83050   3.428  13.242  10.518
10791W        W83051   1.925   8.373   1.882
10792W        W83052  27.661  27.083  10.899
10793W        W83053  21.047   9.231   3.326
10794W        W83054  32.060  38.467   4.607
10795W        W83055  20.173   6.218   3.718
10796W        W83056  41.368  32.114  11.069
10797W        W83057  42.426  23.736  10.643
10798W        W83058  31.527  15.193   4.818
10799W        W83059   6.714  24.183  13.879
10800W        W83060  29.436  37.342   1.234
10801W        W83061  21.734  28.469   4.223
10802W        W83062  38.328   7.378   3.230
10803W        W83063  40.429  40.830   0.322
10804W        W83064  37.341  36.549   2.337
10805W        W83065   5.295  38.949  14.847
10806W        W83066   9.193   2.363  13.929
10807W        W83067  26.693  30.002  11.405
10808W        W83068   5.433   8.691  13.548
10809W        W83069  37.859   4.890  13.530
10810W        W83070  34.579   4.890   1.306
10811W        W83071  40.993   8.779   4.610
10812W        W83072  11.645  29.152  14.381
10813W        W83073   7.333   2.394  12.362
10814W        W83074   4.204  35.466   2.280
10815W        W83075   8.287  43.279  13.894
10816W        W83076   2.401  40.981   4.721
10817W        W83077  25.482  39.862   0.893
10818W        W83078  19.082   2.395  13.385
10819W        W83079  43.995  12.211   0.878
10820W        W83080  24.526  24.707   1.248
10821W        W83081  36.464   4.385   2.204
10822W        W83082  12.267  15.705   1.762
10823W        W83083  26.527   4.393  10.910
10824W        W83084  30.996  34.585  11.431
10825W        W83085  27.953   1.765  10.124
10826W        W83086  30.555  10.174  10.536
10827W        W83087  39.402  36.566  10.544
10828W        W83088  15.699  36.533   2.238
10829W        W83089   5.767   5.319   4.776
10830W        W83090  11.151  31.907   3.678
10831W        W83091  42.828  16.791   9.921
10832W        W83092  38.345  28.488   0.385
10833W        W83093  10.375  38.448  11.910
10834W        W83094  28.934  36.951  11.050
10835W        W83095  24.618  18.165  13.527
10836W        W83096   6.200  37.496   3.700
10837W        W83097  34.453   9.816  13.949
10838W        W83098  39.853  34.041  10.611
10839W        W83099  33.410  30.609   0.386
10840W        W83100  13.812  10.275   2.827
10841W        W83101  29.667   3.831   0.963
10842W        W83102  38.865  41.437  11.488
10843W        W83103  31.908  15.135   2.830
10844W        W83104   5.920  41.006  11.609
10845W        W83105  43.788  33.036  12.059
10846W        W83106   2.840  18.067   1.400
10847W        W83107  37.514   1.906   3.220
10848W        W83108   3.369  33.093  14.995
10849W        W83109  40.484   8.289  13.023
10850W        W83110  15.692  13.679  13.422
10851W        W83111   9.744   6.318  13.331
10852W        W83112  26.656  33.584   3.813
10853W        W83113  16.134   0.820  10.423
10854W        W83114   0.489  35.515  12.831
10855W        W83115   5.881  26.988  12.989
10856W        W83116  36.968   7.334  12.964
10857W        W83117   9.644  41.930  12.348
10858W        W83118   1.881   4.278  10.978
10859W        W83119  14.720  22.538  13.540
10860W        W83120  21.208   7.375  14.809
10861W        W83121  16.286  37.343   0.346
10862W        W83122  30.158   0.475  10.907
10863W        W83123  30.617  12.712  10.154
10864W        W83124   8.854  16.187  13.829
10865W        W83125   7.891   4.936  14.308
10866W        W83126  24.540  21.739   4.255
10867W        W83127  22.742   4.331  14.371
10868W        W83128  16.616   9.312   1.349
10869W        W83129  17.226  28.082  10.409
10870W        W83130  35.557   8.162  13.327
10871W        W83131   2.836  40.911  10.888
10872W        W83132  30.127  12.665  11.038
10873W        W83133  34.120  31.554  14.428
10874W        W83134  42.507  27.950  10.408
10875W        W83135  20.574  32.995  13.833
10876W        W83136   7.729  39.940  13.851
10877W        W83137  20.594   6.219   4.713
10878W        W83138   3.341   1.249  11.947
10879W        W83139  44.326   4.378   3.835
10880W        W83140  39.378  22.043   3.710
10881W        W83141  42.411   0.310   3.710
10882W        W83142   3.775  22.695   1.840
10883W        W83143  37.415  21.231  14.783
10884W        W83144  25.006   3.265   0.840
10885W        W83145   4.921   9.378   0.347
10886W        W83146  21.716  22.186   2.222
10887W        W83147  29.425  20.766   4.192
10888W        W83148  35.040  26.479  13.828
10889W        W83149  34.380   7.370  14.493
10890W        W83150   6.192  25.175   0.751
10891W        W83151  17.172  21.707  10.552
10892W        W83152  12.659  14.279  10.409
10893W        W83153  27.551  12.201  14.443
10894W        W83154  21.227   4.359   4.123
10895W        W83155   3.765   5.907  13.938
10896W        W83156   3.384  35.011   1.854
10897W        W83157   9.854  31.098   1.337
10898W        W83158  25.631  39.331  13.932
10899W        W83159  27.667  37.559  11.381
10900W        W83160  40.955  30.051   1.230
10901W        W83161   3.238  40.374  10.547
10902W        W83162   7.785  26.098   1.423
10903W        W83163  23.206  19.663   4.183
10904W        W83164  24.201   1.433  12.494
10905W        W83165  12.735  11.840  11.053
10906W        W83166  15.209   7.802  10.529
10907W        W83167  19.070  33.504  12.044
10908W        W83168  15.160  34.069  12.961
10909W        W83169  14.697  13.748  10.047
10910W        W83170  13.642  41.794   3.334
10911W        W83171  32.961  24.712   1.428
10912W        W83172  38.377   2.784  11.886
10913W        W83173   6.224  43.471   1.761
10914W        W83174  39.852  38.926  14.492
10915W        W83175  43.418  27.645   2.695
10916W        W83176   3.396  37.048   3.764
10917W        W83177   9.745   6.237   4.140
10918W        W83178  24.075   2.861  13.892
10919W        W83179  33.593  30.925   3.644
10920W        W83180  36.923  28.935  11.583
10921W        W83181   9.858   9.374  12.376
10922W        W83182  26.478  20.112  10.918
10923W        W83183  44.300  33.981  14.951
10924W        W83184  11.672  43.967   1.274
10925W        W83185  17.281  37.538   2.389
10926W        W83186  40.528  40.464  10.529
10927W        W83187   2.790  38.449   2.181
10928W        W83188  12.713  42.525   2.198
10929W        W83189   6.680  13.800   3.331
10930W        W83190  24.584  44.395  14.984
10931W        W83191  39.822  18.239  11.401
10932W        W83192  20.634  40.419   4.804
10933W        W83193  44.827  40.004  10.433
10934W        W83194  23.090  25.032   1.418
10935W        W83195  29.155   0.412   3.775
10936W        W83196  37.452  37.500  13.464
10937W        W83197  25.673   2.843   1.713
10938W        W83198  37.963   0.951   0.272
10939W        W83199  22.708   0.849   1.903
10940W        W83200  24.120  40.547  14.864
10941W        W83201  27.492  12.697  11.408
10942W        W83202   8.391   9.844  11.046
10943W        W83203  10.375  36.546  11.073
10944W        W83204  24.187   5.240   4.641
10945W        W83205  14.293  27.053   2.218
10946W        W83206  13.268  34.959   0.788
10947W        W83207  27.561  34.892  13.846
10948W        W83208  17.733  21.660  10.458
10949W        W83209  35.022  31.480  10.467
10950W        W83210  21.236  41.405   4.621
10951W        W83211   2.337   0.844   2.212
10952W        W83212   6.428  32.060   1.931
10953W        W83213  32.578   1.454  14.995
10954W        W83214   9.284  44.333   5.190
10955W        W83215  33.940  26.184   0.467
10956W        W83216  41.368  44.920  10.603
10957W        W83217  43.926  16.759   3.326
10958W        W83218  30.046  44.861  13.427
10959W        W83219  36.382  27.958  12.910
10960W        W83220   6.244   6.290   0.361
10961W        W83221   1.343  34.109  14.799
10962W        W83222  41.348  21.666  13.010
10963W        W83223  31.079  25.192   0.730
10964W        W83224  34.881   1.754  12.339
10965W        W83225  39.063  40.502  12.578
10966W        W83226  14.205  24.190  12.077
10967W        W83227  22.550  38.910  12.961
10968W        W83228  32.458  21.038  13.516
10969W        W83229  35.491  34.492  13.307
10970W        W83230  25.677  36.382   0.882
10971W        W83231   9.336   2.778   4.254
10972W        W83232  30.466  15.217  12.006
10973W        W83233  40.433  43.429   3.305
10974W        W83234  21.548  22.999   1.237
10975W        W83235  41.851   9.359   2.873
10976W        W83236  17.106  36.509  13.432
10977W        W83237  40.902   5.207   4.644
10978W        W83238  36.903  24.715  13.966
10979W        W83239  14.632  28.445  13.466
10980W        W83240  34.112  14.154  11.860
10981W        W83241   5.846  40.412   0.291
10982W        W83242   8.702  37.050  10.641
10983W        W83243   9.211  31.017   3.789
10984W        W83244  23.203  38.485  10.994
10985W        W83245   1.898   9.267   0.453
10986W        W83246  42.861  25.502  11.930
10987W        W83247  25.150   7.793   1.830
10988W        W83248  26.581  18.724   4.645
10989W        W83249  29.597  44.968  12.444
10990W        W83250  36.086  26.675   4.316
10991W        W83251  12.738   1.794   0.807
10992W        W83252  18.757  34.015   1.912
10993W        W83253   6.849  20.092  14.470
10994W        W83254  32.965  43.990  14.509
10995W        W83255  27.010  17.179  10.551
10996W        W83256   7.326  30.053   3.862
10997W        W83257  24.992  26.045  14.921
10998W        W83258   9.753  19.567   4.167
10999W        W83259  31.515  29.503  13.364
11000W        W83260   7.892  44.425  14.916
11001W        W83261  10.162   9.750  10.588
11002W        W83262  25.535  35.532  12.447
11003W        W83263   7.880  19.100  14.409
11004W        W83264  14.637  26.148   4.198
11005W        W83265  42.421   1.864  14.981
11006W        W83266   0.920  34.108  14.375
11007W        W83267  27.960  17.100  11.935
11008W        W83268  14.198  19.260  11.439
11009W        W83269   1.270  43.331   3.206
11010W        W83270  17.759  27.668  14.300
11011W        W83271  10.792  23.117  13.389
11012W        W83272  25.699   8.709  14.012
11013W        W83273  39.388  26.163   2.399
11014W        W83274   5.847  10.845   1.745
11015W        W83275  21.032  43.497   3.684
11016W        W83276  44.835  37.833   0.472
11017W        W83277  13.609   0.924  13.328
11018W        W83278   5.245  31.044   2.192
11019W        W83279  11.132   4.791   3.281
11020W        W83280  26.161   5.274   3.728
11021W        W83281  40.860   0.771   4.818
11022W        W83282  26.083  20.096   3.345
11023W        W83283  17.103   3.277   2.789
11024W        W83284  14.187  34.907   2.375
11025W        W83285  38.954  36.391  10.941
11026W        W83286  33.538   6.785  14.309
11027W        W83287  33.083   7.331  11.106
11028W        W83288   1.469  29.159  14.355
11029W        W83289  29.141  28.160   2.828
11030W        W83290  22.737  27.510   9.533
11031W        W83291  27.528  39.029  13.036
11032W        W83292  23.583  37.853   2.401
11033W        W83293  24.687  38.840  12.433
11034W        W83294  21.193   3.300   1.224
11035W        W83295  20.689   2.414  11.538
11036W        W83296   8.752  27.940   1.332
11037W        W83297   5.304  38.449  13.860
11038W        W83298  10.788  11.734  11.079
11039W        W83299  43.380  20.587  12.059
11040W        W83300  10.244  10.381  11.532
11041W        W83301  27.044  33.466  12.359
11042W        W83302  13.322  26.084  13.060
11043W        W83303   4.809  35.519  14.786
11044W        W83304   9.737  15.696   4.673
11045W        W83305   2.318  15.268   0.464
11046W        W83306   0.919  44.370   1.363
11047W        W83307  16.226  30.963  14.491
11048W        W83308  39.958  32.588  10.404
11049W        W83309   1.358  30.499   4.773
11050W        W83310  23.638  18.736   4.337
11051W        W83311  12.725  34.538  14.968
11052W        W83312  42.945  22.728  11.375
11053W        W83313  39.442  41.961   3.234
11054W        W83314  12.313  36.968  13.058
11055W        W83315  18.297  12.779   2.817
11056W        W83316   2.764  23.011  11.018
11057W        W83317  34.107  39.523  13.351
11058W        W83318   1.284  34.869   3.819
11059W        W83319  24.061   3.227   9.954
11060W        W83320  13.662  16.268   0.901
11061W        W83321   7.379  25.546   3.331
11062W        W83322   9.206  39.847  12.913
11063W        W83323   2.263  27.181   3.839
11064W        W83324  22.085  30.002   1.249
11065W        W83325  44.881  10.313   2.240
11066W        W83326  24.602  30.606   1.448
11067W        W83327   8.402  22.118  11.012
11068W        W83328   5.714  30.057   0.420
11069W        W83329  17.097   9.806   1.437
11070W        W83330  40.034   5.343   3.385
11071W        W83331  37.520   9.281  13.838
11072W        W83332  34.040  37.458  12.906
11073W        W83333  22.566   0.283   1.392
11074W        W83334  15.595  31.142  14.426
11075W        W83335  24.596   7.840  10.906
11076W        W83336  37.555  37.508  10.063
11077W        W83337   5.825  34.461  12.054
11078W        W83338  41.955  30.101  11.997
11079W        W83339   2.243  22.221  12.892
11080W        W83340   2.454   0.377  13.816
11081W        W83341  13.185  34.058   4.674
11082W        W83342  13.819  22.680  11.880
11083W        W83343  21.646  26.090   5.719
11084W        W83344  17.691  39.441  11.424
11085W        W83345  44.954  30.142  10.591
11086W        W83346   0.859  37.535   2.285
11087W        W83347  29.024  26.532   4.764
11088W        W83348   2.892  23.112  14.874
11089W        W83349  10.138  21.714  12.964
11090W        W83350  37.873  44.899  13.801
11091W        W83351  43.857  16.273   2.761
11092W        W83352  31.929  21.037  12.932
11093W        W83353  24.000  18.288  14.895
11094W        W83354  35.525   1.847   2.896
11095W        W83355  25.196  19.284  14.908
11096W        W83356  41.933  25.568   4.344
11097W        W83357   0.315   9.281   0.446
11098W        W83358  21.056  44.777   4.635
11099W        W83359  40.884  18.050   4.193
11100W        W83360  42.872  20.529  12.475
11101W        W83361   3.396   9.205  12.840
11102W        W83362   1.428   1.862  14.844
11103W        W83363  21.145  23.505   0.730
11104W        W83364  27.487  38.999  11.995
11105W        W83365  31.936   5.801  14.434
11106W        W83366  20.587  32.504  11.433
11107W        W83367  11.823  12.194   2.390
11108W        W83368  43.775  19.625   0.396
11109W        W83369  40.350   1.967   1.312
11110W        W83370  30.493  34.094   3.839
11111W        W83371  31.470   5.306   0.374
11112W        W83372   9.252  39.546   0.314
11113W        W83373   0.356  15.316   0.359
11114W        W83374  15.296  42.018  11.428
11115W        W83375  43.325   7.361  12.390
11116W        W83376  39.449  32.076  13.418
11117W        W83377  25.600  17.081  11.445
11118W        W83378  11.348  42.894  13.791
11119W        W83379  36.377  19.157   3.216
11120W        W83380   6.252  21.204   0.904
11121W        W83381  21.263  34.923   1.235
11122W        W83382  31.467  38.425  14.887
11123W        W83383  43.380  29.552  11.125
11124W        W83384   9.768  42.027   2.203
11125W        W83385  34.375  14.323   5.278
11126W        W83386  28.110  29.066  14.330
11127W        W83387  26.053   6.429  12.854
11128W        W83388  38.357  11.255  12.915
11129W        W83389  16.261   1.338   2.360
11130W        W83390   5.744  13.106  14.490
11131W        W83391  33.950   0.360   4.248
11132W        W83392  21.146   4.441   3.677
11133W        W83393  36.398  37.467  14.388
11134W        W83394   4.770  16.717   4.219
11135W        W83395  30.943  25.161  13.955
11136W        W83396  15.161  11.213   2.801
11137W        W83397  30.106   1.913  12.858
11138W        W83398  44.838  32.924   0.905
11139W        W83399  16.690  12.821  10.954
11140W        W83400  38.570  37.363  10.496
11141W        W83401  43.799   9.821   4.284
11142W        W83402  38.979   3.795   0.864
11143W        W83403   0.912  44.813   1.250
11144W        W83404  23.169  42.940  14.346
11145W        W83405  28.493   4.244  13.881
11146W        W83406  32.584   1.313  13.984
11147W        W83407  20.672  42.920   3.678
11148W        W83408   2.316   8.267  10.545
11149W        W83409  39.372   7.244  14.983
11150W        W83410  12.346   5.924  14.288
11151W        W83411   8.194   0.965   4.788
11152W        W83412  17.173   1.918   1.831
11153W        W83413   7.844  15.262   0.269
11154W        W83414  16.150  39.826   3.178
11155W        W83415  43.468  44.456  13.853
11156W        W83416  27.084  33.608   4.610
11157W        W83417  16.636  24.651   0.808
11158W        W83418  38.934  19.218   3.162
11159W        W83419  39.475  37.941   1.711
11160W        W83420  11.828  32.975  12.021
11161W        W83421  11.759   4.789  14.027
11162W        W83422  21.750  20.266  11.943
11163W        W83423  22.148   2.882  14.009
11164W        W83424  23.695  17.081  11.426
11165W        W83425  42.927  13.667  13.974
11166W        W83426   4.790  36.452  13.949
11167W        W83427  35.560   5.849   2.870
11168W        W83428  35.981   4.223   3.688
11169W        W83429  21.224   0.252  12.419
11170W        W83430  15.148  34.586   3.771
11171W        W83431  26.652  26.972  13.381
11172W        W83432  40.868  30.598   2.795
11173W        W83433  35.519  40.426  13.004
11174W        W83434  31.924  27.575   1.409
11175W        W83435  24.681  16.140   4.835
11176W        W83436  18.563  25.584   4.204
11177W        W83437  17.243  13.284   0.438
11178W        W83438  21.562  24.993   0.344
11179W        W83439  37.049  44.950  11.927
11180W        W83440   6.854  14.746   4.605
11181W        W83441  38.916  40.458   4.176
11182W        W83442  41.994   6.790   2.755
11183W        W83443   7.267  14.277   3.819
11184W        W83444   0.475  43.463  12.361
11185W        W83445   7.358  13.226  10.901
11186W        W83446  42.992  24.702   4.340
11187W        W83447  35.389  17.258  12.016
11188W        W83448  28.605  21.238   3.717
11189W        W83449  12.310  39.332   2.692
11190W        W83450  24.600  29.607   3.183
11191W        W83451  26.126  12.183   2.347
11192W        W83452  20.191  23.543   2.219
11193W        W83453  12.765   0.866   2.770
11194W        W83454  24.160  27.982   4.175
11195W        W83455  43.279  13.171  10.998
11196W        W83456  16.136  14.237   1.294
11197W        W83457   1.276  10.756   4.598
11198W        W83458  14.728  18.139   9.604
11199W        W83459  38.866  17.599   3.674
11200W        W83460  36.505  19.564   3.349
11201W        W83461  16.663  29.450  14.397
11202W        W83462   4.882  13.212  13.547
11203W        W83463  26.483  34.048  13.811
11204W        W83464   5.296  26.624  10.998
11205W        W83465  13.321  10.290   1.412
11206W        W83466  38.935  37.438  14.810
11207W        W83467  44.914  17.570   1.759
11208W        W83468  17.148  43.294   0.286
11209W        W83469  36.905  43.014   3.356
11210W        W83470  32.004  36.450  11.529
11211W        W83471   8.868  24.521   3.325
11212W        W83472  43.807  35.931  13.059
11213W        W83473  29.101  17.264   3.348
11214W        W83474   4.937  29.441  11.052
11215W        W83475  12.840  13.834   4.598
11216W        W83476  33.021  35.941  11.927
11217W        W83477  36.417   0.407   3.342
11218W        W83478  43.510   5.359   3.730
11219W        W83479   1.327  17.710   3.260
11220W        W83480  33.098  20.179  11.544
11221W        W83481   7.847  34.021  13.964
11222W        W83482  12.341  22.143   4.735
11223W        W83483   5.370  17.074  12.094
11224W        W83484   2.963  32.948  14.836
11225W        W83485  20.604  44.983  10.465
11226W        W83486   1.911  36.096  12.090
11227W        W83487  31.938  29.568  10.636
11228W        W83488  32.924  33.392  13.934
11229W        W83489  39.041  38.546  14.830
11230W        W83490  23.055  37.539  13.418
11231W        W83491   8.194   5.752   0.258
11232W        W83492  34.396  39.514   3.375
11233W        W83493  32.614  27.083   2.316
11234W        W83494  25.081  43.949   4.800
11235W        W83495  28.966   8.688   4.287
11236W        W83496  12.237  14.307  14.809
11237W        W83497  40.836  44.841  12.080
11238W        W83498   7.173   9.880   4.632
11239W        W83499  30.144  40.438   4.192
11240W        W83500  16.743  11.683   3.298
11241W        W83501  37.947  12.613   3.217
11242W        W83502  35.398  27.060  11.006
11243W        W83503   5.358  23.988  13.397
11244W        W83504  37.546  25.604   3.650
11245W        W83505   2.448  37.501  10.020
11246W        W83506  43.883  29.561  10.898
11247W        W83507   3.320  24.059   1.293
11248W        W83508  20.565   6.202   1.871
11249W        W83509  43.789  32.019   1.835
11250W        W83510  15.210  28.642   9.519
11251W        W83511  13.761  30.515  13.418
11252W        W83512  35.469  13.297  13.820
11253W        W83513  20.725  26.569  10.607
11254W        W83514  35.067  28.609   2.701
11255W        W83515  42.484   1.276   3.254
11256W        W83516  36.855   7.740   4.614
11257W        W83517  16.249  29.941   0.952
11258W        W83518   2.408  12.323   3.639
11259W        W83519  14.213   9.198  10.463
11260W        W83520  25.627  33.615   0.855
11261W        W83521   7.753  25.540   1.903
11262W        W83522   2.422  42.002  11.064
11263W        W83523  40.053  44.827   1.826
11264W        W83524  27.988  10.770   4.624
11265W        W83525  26.013  32.559  11.022
11266W        W83526  29.023  23.553  11.398
11267W        W83527  17.192   8.784  11.125
11268W        W83528  21.614  40.366  14.798
11269W        W83529   7.899  20.172   4.152
11270W        W83530  17.256   3.233   2.277
11271W        W83531  29.614  26.601   9.973
11272W        W83532  18.085  16.607   2.760
11273W        W83533  18.655   0.254   2.800
11274W        W83534  27.136  32.444   1.268
11275W        W83535  28.612  26.657  12.479
11276W        W83536  23.697  17.800  11.066
11277W        W83537   0.844  35.536  14.994
11278W        W83538   1.764  26.469   2.181
11279W        W83539   4.243  16.771   4.185
11280W        W83540  31.446  10.800  14.930
11281W        W83541  21.118  40.499   3.243
11282W        W83542  44.391  41.326  14.927
11283W        W83543  13.278  21.129  13.912
11284W        W83544  35.548  41.515   4.661
11285W        W83545  12.747   2.966  10.969
11286W        W83546  44.397   5.398   2.738
11287W        W83547  38.001  35.402   4.235
11288W        W83548   2.385  30.003  13.457
11289W        W83549  43.421  13.627   1.706
11290W        W83550   4.742  18.236  13.840
11291W        W83551  29.084   8.329   3.204
11292W        W83552  15.300   8.343  10.536
11293W        W83553  13.141  41.434   4.307
11294W        W83554  24.104  13.132  14.024
11295W        W83555  29.549  20.691  14.871
11296W        W83556  43.493  26.561   1.267
11297W        W83557  34.465  30.589   2.763
11298W        W83558  20.111  28.077  10.550
11299W        W83559  19.568   6.847  14.807
11300W        W83560  22.022  27.063  13.826
11301W        W83561  43.481  16.140  12.520
11302W        W83562  41.811   6.339  11.424
11303W        W83563  29.142   5.412   4.344
11304W        W83564  31.924  23.029   3.232
11305W        W83565  13.231   0.428  13.888
11306W        W83566  33.129  21.154   5.225
11307W        W83567   0.835  29.653   0.839
11308W        W83568  13.647   7.709   4.215
11309W        W83569  25.569  10.685  13.481
11310W        W83570  10.706  15.801  12.521
11311W        W83571  17.719   5.815  12.008
11312W        W83572  32.548  26.044   0.876
11313W        W83573  22.608  25.120  13.009
11314W        W83574  13.135  11.675  14.458
11315W        W83575  28.480  17.721  13.449
11316W        W83576   4.207  20.150   3.720
11317W        W83577   6.427   2.738   1.757
11318W        W83578  15.099  26.519   4.229
11319W        W83579  26.513  23.646  13.983
11320W        W83580  19.057  37.003   0.862
11321W        W83581  28.537   5.436   1.899
11322W        W83582   1.249  34.410   0.807
11323W        W83583  43.795  17.307  14.808
11324W        W83584   5.400  31.457   4.813
11325W        W83585  33.889   6.314   3.271
11326W        W83586  14.593  23.640  14.441
11327W        W83587  33.490  38.952  10.887
11328W        W83588  33.460  28.079  10.457
11329W        W83589  11.772  35.468   4.182
11330W        W83590   0.938  31.636  12.065
11331W        W83591  40.873  17.182  10.899
11332W        W83592  38.563  11.708   0.327
11333W        W83593   8.771  27.940  10.922
11334W        W83594  29.579  36.447   1.258
11335W        W83595  12.701  33.508   4.325
11336W        W83596  43.469   5.396   0.358
11337W        W83597  36.904   3.813   3.760
11338W        W83598  22.608  39.033   0.435
11339W        W83599  36.491  26.540  13.801
11340W        W83600   5.783  37.399   3.759
11341W        W83601  31.627  21.089   3.206
11342W        W83602  13.146  11.151  10.975
11343W        W83603  35.042  23.236   0.942
11344W        W83604  28.481  35.576   3.804
11345W        W83605  10.258  39.817  12.871
11346W        W83606  34.102  34.019  10.556
11347W        W83607  43.778  29.475  11.493
11348W        W83608  15.786  44.381   5.174
11349W        W83609  12.250   7.379   2.722
11350W        W83610  37.513  23.721  13.897
11351W        W83611  28.027  30.031   9.662
11352W        W83612   9.224  29.525  11.884
11353W        W83613  13.734  35.006  10.553
11354W        W83614  16.654  27.080   1.422
11355W        W83615   7.173   6.681   2.897
11356W        W83616  33.003   6.381   4.696
11357W        W83617  40.497  36.467  10.408
11358W        W83618  19.756  27.960   5.099
11359W        W83619  30.588   2.874  13.322
11360W        W83620  29.000  11.135   4.298
11361W        W83621  28.476  12.641   3.250
11362W        W83622  44.434   1.407  14.767
11363W        W83623  33.598  12.808   5.305
11364W        W83624  34.594  15.690  11.859
11365W        W83625  37.038  42.355   0.737
11366W        W83626  40.348   5.844   3.240
11367W        W83627  10.817  34.533   0.337
11368W        W83628   5.742  29.934   2.811
11369W        W83629  21.155   3.793  10.904
11370W        W83630  37.382  31.588   0.415
11371W        W83631  24.046  44.958  13.473
11372W        W83632   6.903   4.853  13.389
11373W        W83633  27.032  33.572   0.774
11374W        W83634  14.158  10.329   2.413
11375W        W83635  33.035  12.754   0.383
11376W        W83636  37.927  35.891   5.224
11377W        W83637  15.307  17.783   9.943
11378W        W83638  42.822  25.481   0.428
11379W        W83639  29.550   4.882   3.277
11380W        W83640  11.650  22.652  13.805
11381W        W83641  12.701  10.357  12.432
11382W        W83642  40.415  37.454   0.814
11383W        W83643  20.147  35.939   2.338
11384W        W83644   5.309   8.718  14.816
11385W        W83645   0.480   0.863   1.428
11386W        W83646  29.981   0.349  11.569
11387W        W83647   7.256  35.076   3.731
11388W        W83648  10.139  42.359  11.007
11389W        W83649  21.735  41.882  11.881
11390W        W83650  39.044   4.772   0.911
11391W        W83651  11.841  15.821  11.077
11392W        W83652  28.601   7.413   3.288
11393W        W83653  17.590   6.246  11.531
11394W        W83654   5.844   6.858   0.732
11395W        W83655  27.959  24.715   2.875
11396W        W83656  36.015  34.406   3.366
11397W        W83657  16.292  28.021  11.856
11398W        W83658  15.141  15.314  14.312
11399W        W83659  27.470   9.783  14.825
11400W        W83660  22.113   1.441  13.897
11401W        W83661  35.912  26.673   1.791
11402W        W83662  11.308   3.789   3.769
11403W        W83663  29.044  37.045   3.812
11404W        W83664  23.618  31.487  13.382
11405W        W83665  33.075  38.052  13.509
11406W        W83666  32.102  40.840  13.995
11407W        W83667  13.248  18.595   1.267
11408W        W83668  35.550  28.539  14.881
11409W        W83669  20.182  27.010   3.828
11410W        W83670  11.155   0.492   1.714
11411W        W83671  43.494  39.982   2.808
11412W        W83672   8.164  12.302  13.913
11413W        W83673  25.548   7.802   0.433
11414W        W83674  20.584  18.666   1.390
11415W        W83675  19.658   2.439  13.531
11416W        W83676  18.250   6.330  12.551
11417W        W83677  40.517  29.662   4.689
11418W        W83678  32.579  43.418  12.878
11419W        W83679  33.535  35.540   1.817
11420W        W83680   1.848   3.371   5.123
11421W        W83681  33.477   6.352   1.242
11422W        W83682  26.123  33.980  11.966
11423W        W83683  37.846  20.588  12.451
11424W        W83684  38.417  10.316   4.766
11425W        W83685  15.320  44.335   4.659
11426W        W83686  28.617  11.259  14.027
11427W        W83687  35.095  11.776  10.016
11428W        W83688  38.896  14.222   2.277
11429W        W83689   7.665  24.645  14.803
11430W        W83690  42.525  23.696  11.046
11431W        W83691  30.520  17.105  12.572
11432W        W83692  40.804  44.470   1.281
11433W        W83693  39.052  29.017   0.454
11434W        W83694  12.811   9.734  10.988
11435W        W83695  23.713  44.773  10.606
11436W        W83696  13.208  23.513   4.733
11437W        W83697  31.569  32.948   3.222
11438W        W83698  22.651   9.257   3.218
11439W        W83699  44.996   9.781  11.509
11440W        W83700  38.045   3.242  11.510
11441W        W83701  14.267  23.718  12.416
11442W        W83702  24.538   9.694  10.533
11443W        W83703  11.638  43.471   3.282
11444W        W83704  34.566   6.804   2.824
11445W        W83705   1.371  36.379   4.282
11446W        W83706  12.267   6.823  12.525
11447W        W83707  44.410  37.861  13.489
11448W        W83708   0.873   9.252   3.829
11449W        W83709  33.403  20.568   4.122
11450W        W83710   5.703   1.288   1.817
11451W        W83711   7.263  23.201   4.229
11452W        W83712   2.905   5.889   1.925
11453W        W83713  27.548  16.099  12.988
11454W        W83714  22.077   5.720   4.688
11455W        W83715  38.914   6.277   5.114
11456W        W83716   3.898  23.147   0.727
11457W        W83717  12.615   0.904  11.567
11458W        W83718  31.922  31.907   2.697
11459W        W83719  35.047   6.426  12.557
11460W        W83720  37.434  28.490   4.233
11461W        W83721  31.972  41.362   5.138
11462W        W83722  20.769  10.165   2.769
11463W        W83723  15.811  35.945  11.089
11464W        W83724  24.719  30.593  12.927
11465W        W83725  38.569  26.030  10.905
11466W        W83726  35.548   1.441  14.328
11467W        W83727  29.096  17.204   2.373
11468W        W83728  19.107   8.183  10.490
11469W        W83729   2.731   4.219   2.382
11470W        W83730   9.372  25.218   2.704
11471W        W83731  33.029   7.407  14.346
11472W        W83732  17.141  22.644  14.808
11473W        W83733  42.794  36.028  12.058
11474W        W83734  25.964  15.175  14.006
11475W        W83735  15.218  39.029  12.485
11476W        W83736  16.259   0.325  12.852
11477W        W83737  30.926   0.813  14.462
11478W        W83738  18.610  13.790   3.650
11479W        W83739  38.016  25.087   5.213
11480W        W83740  38.060   4.271  12.881
11481W        W83741  43.002  15.239  11.869
11482W        W83742   1.975   6.787  14.863
11483W        W83743   9.703  36.505  12.345
11484W        W83744   7.269  29.509   4.282
11485W        W83745  19.601   6.844   2.381
11486W        W83746   8.368  43.828  10.979
11487W        W83747  23.995  26.523  13.359
11488W        W83748  21.222  40.952  10.599
11489W        W83749   8.844  25.550   0.400
11490W        W83750  30.969  41.467   4.162
11491W        W83751   8.218  26.577   3.146
11492W        W83752   8.232  32.000  13.985
11493W        W83753  21.557  36.399  14.417
11494W        W83754  27.538  40.020   0.763
11495W        W83755   9.811  34.866  13.916
11496W        W83756   1.445  42.856  12.487
11497W        W83757  34.889  13.773   2.817
11498W        W83758  20.717  33.930  14.445
11499W        W83759  30.048  18.184  13.042
11500W        W83760  42.827  34.952  14.882
11501W        W83761  36.378   9.858  11.504
11502W        W83762  21.239  40.473  10.918
11503W        W83763  40.909  31.519  12.455
11504W        W83764  17.707   7.884   4.303
11505W        W83765  31.901  26.540   0.343
11506W        W83766  16.214   3.816   4.830
11507W        W83767  32.442  24.704   1.886
11508W        W83768  29.604   1.902   5.190
11509W        W83769  38.901  23.613  14.913
11510W        W83770   0.851  21.257  14.849
11511W        W83771  29.568  41.460  14.951
11512W        W83772  14.107   2.752  12.008
11513W        W83773  12.748  34.871   1.447
11514W        W83774  24.509  14.311  12.013
11515W        W83775  37.980  20.728   3.817
11516W        W83776   5.711  21.655   2.805
11517W        W83777  11.801  29.549   3.244
11518W        W83778  44.493  21.233  14.852
11519W        W83779  42.863  37.014   4.690
11520W        W83780  24.165   6.687  10.492
11521W        W83781  30.462  42.309  10.543
11522W        W83782   6.849  33.974  12.539
11523W        W83783  41.427  37.927  12.837
11524W        W83784  37.870  29.944   4.140
11525W        W83785  15.167  27.497   2.803
11526W        W83786   4.869  17.281  10.936
11527W        W83787  12.807   9.326  12.867
11528W        W83788  33.057  19.767   3.151
11529W        W83789  30.478  44.356   1.782
11530W        W83790  17.081  22.135  14.837
11531W        W83791  17.563  43.423   2.324
11532W        W83792  25.712  33.045  12.467
11533W        W83793  21.258   9.797   4.662
11534W        W83794  21.587   8.213  12.999
11535W        W83795  44.829  30.986  12.402
11536W        W83796  18.139  13.754  13.019
11537W        W83797   6.704  15.746  14.804
11538W        W83798   8.778  25.058   3.661
11539W        W83799  25.130  21.750   3.723
11540W        W83800  24.669  42.317   0.288
11541W        W83801  35.904  40.032  11.984
11542W        W83802  18.181  34.517   3.708
11543W        W83803  16.682  26.619  14.475
11544W        W83804   3.901   2.331  11.505
11545W        W83805   7.756   6.198   1.245
11546W        W83806  13.273   9.359  10.946
11547W        W83807  12.317  18.651  11.380
11548W        W83808  32.927  25.190   0.249
11549W        W83809  35.944   2.423   2.813
11550W        W83810  12.252  40.850   3.824
11551W        W83811   5.873  15.134   0.397
11552W        W83812  28.014   7.802  13.873
11553W        W83813  12.643  17.118   3.386
11554W        W83814  36.058  41.866  14.989
11555W        W83815  16.723   4.720  10.000
11556W        W83816  15.606   6.698   2.301
11557W        W83817  42.887  44.863  14.289
11558W        W83818  25.688  42.419   2.378
11559W        W83819  19.162   8.323   3.192
11560W        W83820  22.699   2.820  14.465
11561W        W83821  35.508  37.899  12.874
11562W        W83822   2.724  36.905   1.318
11563W        W83823  18.547  43.893   3.222
11564W        W83824  42.382  38.924   3.685
11565W        W83825  26.471  21.606  10.519
11566W        W83826  11.273  32.897   1.413
11567W        W83827  41.903  37.989  12.965
11568W        W83828  34.893  31.548   2.355
11569W        W83829  34.073  22.033   1.213
11570W        W83830  13.675  19.079   2.753
11571W        W83831  39.002  10.174  12.916
11572W        W83832  34.454  24.594  14.303
11573W        W83833  30.964  16.630  11.069
11574W        W83834  23.587  44.447  10.553
11575W        W83835  39.474  29.925  12.571
11576W        W83836   6.200  13.183   2.868
11577W        W83837  29.948  37.833  10.890
11578W        W83838  14.117  40.457   3.744
11579W        W83839  28.028  30.947  13.886
11580W        W83840  25.149  12.625  14.367
11581W        W83841  27.598  39.517   4.167
11582W        W83842  39.875  36.560   2.294
11583W        W83843  31.508  44.489  14.798
11584W        W83844  12.324   9.208   1.225
11585W        W83845  21.668  25.036   2.662
11586W        W83846  24.020   1.376  12.004
11587W        W83847  44.894  44.324   3.757
11588W        W83848  38.423  32.919  11.966
11589W        W83849  12.257  29.569  12.346
11590W        W83850  14.627  15.755   2.335
11591W        W83851  42.815  14.313   4.330
11592W        W83852  43.786   7.176  10.946
11593W        W83853   2.782   8.866  12.019
11594W        W83854  13.731  20.146  13.045
11595W        W83855   8.818   4.270  11.520
11596W        W83856  16.149  32.894   1.845
11597W        W83857  35.398  38.944   3.224
11598W        W83858  14.814  25.676   3.257
11599W        W83859   3.399  38.392  13.327
11600W        W83860  36.455  13.128  11.453
11601W        W83861   5.338  25.591   3.829
11602W        W83862  14.599  34.468   2.696
11603W        W83863  37.995  14.321   0.811
11604W        W83864   2.370  18.232  14.817
11605W        W83865   3.938  37.961   1.367
11606W        W83866  21.613  20.032  12.378
11607W        W83867  39.040  39.904   0.317
11608W        W83868  39.013  20.112  11.374
11609W        W83869  18.101  13.841   4.191
11610W        W83870   0.273  18.238  11.858
11611W        W83871  16.639  32.047   3.671
11612W        W83872  27.000   2.252  14.341
11613W        W83873  14.627  27.122  11.950
11614W        W83874  13.819   1.244   3.681
11615W        W83875   9.737   8.672  12.579
11616W        W83876  10.242   8.302   1.810
11617W        W83877  27.035   6.415  10.906
11618W        W83878  32.898  37.425  14.982
11619W        W83879  35.399   6.188   1.860
11620W        W83880  31.037  21.241  14.019
11621W        W83881   3.459   6.827  12.085
11622W        W83882  37.854  31.010   1.316
11623W        W83883  37.387  27.453  11.964
11624W        W83884  15.232  13.339  10.436
11625W        W83885   2.247  13.601  13.890
11626W        W83886  36.920  33.425   1.374
11627W        W83887  40.390  17.744  13.878
11628W        W83888   2.226  17.306  14.397
11629W        W83889  23.014  16.582   2.301
11630W        W83890   3.905  17.171  12.572
11631W        W83891  15.094  24.489   3.672
11632W        W83892   9.307  30.624   4.749
11633W        W83893  29.550   5.859  13.867
11634W        W83894  14.751   7.366   4.723
11635W        W83895  17.067  27.536   4.718
11636W        W83896  23.518  19.754  10.534
11637W        W83897  19.223  42.508  14.934
11638W        W83898  34.610   8.722  14.424
11639W        W83899  35.089   4.321  13.809
11640W        W83900   2.881  42.307  11.472
11641W        W83901  43.489  34.596  13.061
11642W        W83902  35.065   6.357  13.993
11643W        W83903  33.461  29.508  11.989
11644W        W83904  13.820  18.647  14.303
11645W        W83905   7.394  26.510   2.404
11646W        W83906   6.334   8.657  14.963
11647W        W83907  36.429  30.458  11.990
11648W        W83908  41.464  31.487  14.800
11649W        W83909  29.006  24.068  13.360
11650W        W83910  12.291  33.384  14.809
11651W        W83911  41.953  10.862   4.349
11652W        W83912  26.043  44.803  11.584
11653W        W83913  38.955  44.423   1.873
11654W        W83914  25.501  25.552  10.536
11655W        W83915  27.034  19.666   3.723
11656W        W83916  15.089  42.855   2.778
11657W        W83917   2.888  26.983   2.776
11658W        W83918  16.808   2.452  12.073
11659W        W83919  16.711  19.075  13.329
11660W        W83920   4.318  23.627  13.542
11661W        W83921  24.534  17.109  10.432
11662W        W83922  31.414   7.238  12.866
11663W        W83923  15.250  20.553  12.041
11664W        W83924  22.140  37.462  10.525
11665W        W83925   1.327  22.177   0.890
11666W        W83926  20.551  39.454  10.942
11667W        W83927   6.304   3.458  11.030
11668W        W83928  26.067  35.365   2.285
11669W        W83929  12.749  22.059   2.792
11670W        W83930  13.755  10.382   1.874
11671W        W83931   3.354  11.750   3.223
11672W        W83932   9.254   7.267  14.346
11673W        W83933  37.398   4.364   1.929
11674W        W83934  33.894  31.500   0.747
11675W        W83935  34.604  36.083  12.044
11676W        W83936   3.345  28.046   4.736
11677W        W83937  28.177  19.666   0.848
11678W        W83938  35.412   6.732   3.800
11679W        W83939  30.163  21.198   1.786
11680W        W83940   4.422   8.263   2.741
11681W        W83941  38.540   8.812   3.186
11682W        W83942  27.144  43.999   0.365
11683W        W83943  23.188  10.334   9.931
11684W        W83944  41.465  28.109   2.867
11685W        W83945   7.187  10.840   0.916
11686W        W83946   5.748  14.702  10.483
11687W        W83947  31.609  27.646  14.994
11688W        W83948  14.180  37.344   4.223
11689W        W83949  40.878  17.749   4.786
11690W        W83950  40.367  28.521  12.349
11691W        W83951  18.772   3.934   0.426
11692W        W83952  16.261   1.314   4.634
11693W        W83953   5.881  16.172   0.958
11694W        W83954  27.454  40.921  14.330
11695W        W83955  11.355  40.329   1.235
11696W        W83956  31.621  10.195   0.895
11697W        W83957  32.135  41.859  14.334
11698W        W83958  26.147  30.546  12.837
11699W        W83959  35.363  33.910  14.792
11700W        W83960   4.255  30.075   2.733
11701W        W83961   6.690  43.281  14.773
11702W        W83962  10.867  18.672   4.128
11703W        W83963  24.107  20.231   3.316
11704W        W83964   2.921  28.112   3.663
11705W        W83965  19.163   6.290  12.536
11706W        W83966   2.775  18.254   2.872
11707W        W83967  12.299   1.846   0.800
11708W        W83968   7.686  18.140   3.304
11709W        W83969  36.436   9.696   2.805
11710W        W83970  32.426   6.700   2.395
11711W        W83971  35.090  43.877  11.545
11712W        W83972  29.001  13.320   1.213
11713W        W83973  16.606   4.699  14.964
11714W        W83974  18.279  37.885   2.690
11715W        W83975  33.973  24.622  13.495
11716W        W83976   7.743  29.647   5.193
11717W        W83977  35.581   4.918  12.429
11718W        W83978  29.632  32.603  11.389
11719W        W83979   6.200  11.787   3.354
11720W        W83980  40.400  14.730  13.520
11721W        W83981   0.378  22.609  13.903
11722W        W83982  29.082  37.517  14.860
11723W        W83983   9.687  27.083  12.462
11724W        W83984  25.061  41.406   5.196
11725W        W83985  40.993  12.815   0.933
11726W        W83986  28.140   3.762  12.964
11727W        W83987  18.296  11.216  13.838
11728W        W83988  37.922  10.814  14.799
11729W        W83989  19.166  12.199   4.658
11730W        W83990  23.223   3.388   0.919
11731W        W83991  22.107  41.891   2.279
11732W        W83992   2.444   3.383   1.284
11733W        W83993   8.371   2.934   3.281
11734W        W83994   0.478  28.074   0.243
11735W        W83995  41.985  13.706   4.649
11736W        W83996   6.400   9.721   2.367
11737W        W83997  19.601  22.047   0.776
11738W        W83998  33.894   9.153   4.339
11739W        W83999   8.708  42.831   0.307
11740W        W84000   7.742   2.836  14.312
11741W        W84001  42.500   1.762  13.454
11742W        W84002  16.211  33.607  12.508
11743W        W84003   5.256  21.576  12.546
11744W        W84004  27.069  26.964  13.031
11745W        W84005  17.190  15.695   0.804
11746W        W84006   6.836  40.444  14.302
11747W        W84007  35.012   3.430   0.835
11748W        W84008  20.572  24.099   1.850
11749W        W84009  13.340  42.939  11.895
11750W        W84010  17.071  19.208   0.471
11751W        W84011  28.444  32.631  11.526
11752W        W84012   3.242   8.231   3.837
11753W        W84013   2.763  15.306  12.413
11754W        W84014  44.859  16.120  10.924
11755W        W84015  31.036  13.249  10.889
11756W        W84016  35.030  42.345   0.457
11757W        W84017   9.814  32.969   1.809
11758W        W84018  36.432   8.873   2.783
11759W        W84019  36.415  35.569   4.139
11760W        W84020  28.183  27.661  11.066
11761W        W84021  10.743  11.363  13.060
11762W        W84022  38.883   2.846  12.012
11763W        W84023  13.280   1.399  13.951
11764W        W84024   6.337  28.091  11.541
11765W        W84025  40.462  35.072   3.653
11766W        W84026   5.416  43.780   4.604
11767W        W84027  21.661   8.404  14.332
11768W        W84028  13.834  12.837  12.413
11769W        W84029  21.048  10.246  12.053
11770W        W84030  16.207  27.474  11.127
11771W        W84031   3.453  29.957  11.004
11772W        W84032  27.966   3.222  11.520
11773W        W84033  24.490  30.637   2.313
11774W        W84034  22.573  20.639   1.320
11775W        W84035  10.175  32.408   4.206
11776W        W84036  34.926  27.520  14.303
11777W        W84037  28.122  29.606  13.421
11778W        W84038  36.475   3.880  14.482
11779W        W84039  25.978  39.824   2.804
11780W        W84040  43.942  11.863   1.383
11781W        W84041  36.591  44.866   4.221
11782W        W84042   2.735  19.266  13.877
11783W        W84043  44.874  11.283  13.998
11784W        W84044  30.466   2.750   0.315
11785W        W84045  44.446   8.381  11.388
11786W        W84046   6.750  19.040   2.343
11787W        W84047  12.141  25.648   3.162
11788W        W84048   4.388   7.810  13.492
11789W        W84049  19.154  38.031   1.226
11790W        W84050   6.375  42.951  10.545
11791W        W84051   4.935  10.290   1.746
11792W        W84052  24.195  25.074   0.760
11793W        W84053   1.838  38.438  14.514
11794W        W84054  35.858   2.389   0.959
11795W        W84055  40.949  32.962  10.474
11796W        W84056  28.003   3.943  14.893
11797W        W84057   1.800  19.103  10.934
11798W        W84058  12.827  32.070   0.265
11799W        W84059  14.726  22.046  12.987
11800W        W84060  19.072   4.779  10.519
11801W        W84061  16.663  44.837   0.819
11802W        W84062  29.947  12.743   2.673
11803W        W84063  14.679   0.806   3.675
11804W        W84064  38.076  42.468  13.501
11805W        W84065   1.453   4.876   3.768
11806W        W84066   3.427  35.046  11.486
11807W        W84067  10.222  40.361   1.339
11808W        W84068  13.291  18.738  11.485
11809W        W84069  15.315   5.930  14.916
11810W        W84070  41.421  34.584   2.389
11811W        W84071  14.130  36.911   4.817
11812W        W84072  14.241  19.138   0.380
11813W        W84073  17.721   1.960   3.203
11814W        W84074  24.205  23.029  10.896
11815W        W84075  24.506  31.931  10.951
11816W        W84076   6.280  29.546   3.305
11817W        W84077  36.013  16.187  11.390
11818W        W84078  19.607  16.239   2.738
11819W        W84079  11.788   5.717   0.246
11820W        W84080  24.104  42.309   1.302
11821W        W84081  23.710   3.359   0.275
11822W        W84082  21.615  42.400  12.560
11823W        W84083  24.576  15.794  14.977
11824W        W84084   2.233  22.637  12.037
11825W        W84085  26.465   4.234  10.156
11826W        W84086  26.564  36.982  11.560
11827W        W84087  15.625  14.340   2.778
11828W        W84088  28.555  23.731   4.304
11829W        W84089  19.197   3.817   0.281
11830W        W84090  30.017  12.148   0.824
11831W        W84091  17.088  28.179  11.980
11832W        W84092  14.217  28.556   4.676
11833W        W84093  30.544  18.109  13.487
11834W        W84094   7.215   2.414   1.448
11835W        W84095  21.050   6.386   2.308
11836W        W84096   1.798   9.188   4.770
11837W        W84097   1.811  30.640  14.477
11838W        W84098   1.805  39.830  14.310
11839W        W84099  38.538   5.903  13.912
11840W        W84100  42.871  22.032  10.416
11841W        W84101  34.563  12.357   3.726
11842W        W84102  19.251  12.824  13.319
11843W        W84103  10.195  26.630   5.176
11844W        W84104  26.994  29.480  10.556
11845W        W84105  25.047  30.504   4.347
11846W        W84106   6.415   6.869   1.748
11847W        W84107   3.764  17.598   4.757
11848W        W84108  29.997  15.766  14.025
11849W        W84109  18.655   8.752   5.241
11850W        W84110  36.920   6.820  11.088
11851W        W84111  41.886   4.277   3.145
11852W        W84112  33.012  40.978   0.345
11853W        W84113   1.481  34.587  10.529
11854W        W84114  27.980  26.646   3.273
11855W        W84115   7.906  38.833   4.807
11856W        W84116  29.480  16.311  11.456
11857W        W84117  35.454  13.252   2.698
11858W        W84118  34.892  12.770  14.513
11859W        W84119  28.116  16.579  14.919
11860W        W84120   1.734  28.089  12.951
11861W        W84121   2.233   2.958   0.421
11862W        W84122   8.178  17.671  14.836
11863W        W84123   8.349  42.282   2.670
11864W        W84124  35.061  38.407   1.719
11865W        W84125  14.631   1.239   3.264
11866W        W84126  30.095   4.737   1.244
11867W        W84127   5.243  26.081   0.331
11868W        W84128  35.852  44.369   1.918
11869W        W84129  26.058   5.341  13.444
11870W        W84130  30.421  14.814   1.863
11871W        W84131  43.324  41.802   2.307
11872W        W84132  34.527   9.320  11.463
11873W        W84133  25.179  31.523  13.409
11874W        W84134   3.746   3.309  14.461
11875W        W84135   9.765  20.621   1.416
11876W        W84136  38.017  14.608  12.832
11877W        W84137  35.055  12.341  12.545
11878W        W84138  26.002  17.794  10.961
11879W        W84139  35.367  38.475   4.610
11880W        W84140  38.364  31.562   1.792
11881W        W84141   0.470  34.916   3.818
11882W        W84142  32.490  19.619   0.405
11883W        W84143   5.781  38.384   2.723
11884W        W84144   8.391  36.062   3.161
11885W        W84145  16.267  30.033  11.454
11886W        W84146   8.343  35.484   1.370
11887W        W84147  18.758  32.951   3.155
11888W        W84148   0.302  40.414   0.245
11889W        W84149   0.472  11.205   3.240
11890W        W84150   0.784  23.034   1.341
11891W        W84151  17.248   0.418   0.271
11892W        W84152   8.274  43.956   1.826
11893W        W84153   0.424   2.238  13.011
11894W        W84154  12.123   4.816   1.916
11895W        W84155   9.309  42.377   2.319
11896W        W84156  32.517   9.777   1.267
11897W        W84157  38.559  40.953   4.819
11898W        W84158   3.874  40.544   2.391
11899W        W84159  29.537   2.419   0.449
11900W        W84160  21.739  13.789  14.942
11901W        W84161  13.138  19.767   3.849
11902W        W84162  40.806  30.514  13.893
11903W        W84163   3.434  10.369   2.718
11904W        W84164  40.512  39.400   1.293
11905W        W84165  19.764  27.141  12.907
11906W        W84166  43.360  43.351   3.636
11907W        W84167   9.749  22.121  14.963
11908W        W84168  39.405  17.655  12.989
11909W        W84169  43.801  15.160   0.815
11910W        W84170  17.215  44.310  10.491
11911W        W84171  31.600  41.925   0.372
11912W        W84172   2.451  22.738  10.004
11913W        W84173  18.265  24.631   2.734
11914W        W84174  22.622  44.295   2.300
11915W        W84175  21.032  13.250   4.669
11916W        W84176   1.940  18.616   4.231
11917W        W84177  12.327  28.128  12.435
11918W        W84178  37.001  13.730   2.711
11919W        W84179  31.082  14.286  11.934
11920W        W84180   4.443  24.164  11.459
11921W        W84181   4.924  19.126   2.745
11922W        W84182   7.400  27.161  13.444
11923W        W84183  20.066  37.859  10.472
11924W        W84184   2.854   7.850   4.731
11925W        W84185  31.620  27.196  13.919
11926W        W84186   2.819   6.847  13.964
11927W        W84187  13.296  25.642  12.463
11928W        W84188  29.110  44.273  14.365
11929W        W84189  14.777  15.669   3.760
11930W        W84190  18.067  31.464  12.837
11931W        W84191  43.302   5.360   0.861
11932W        W84192  44.505  27.454  11.552
11933W        W84193  32.071  30.104  11.927
11934W        W84194  22.106  41.537   0.821
11935W        W84195   3.805  42.921   3.212
11936W        W84196  35.040   5.848  12.954
11937W        W84197  37.520   3.422   2.726
11938W        W84198   6.270  37.548  12.012
11939W        W84199  19.712  28.969  12.992
11940W        W84200  36.497  31.100  13.002
11941W        W84201   9.346  25.491  11.579
11942W        W84202  33.002   0.920   3.157
11943W        W84203  44.986  31.942  12.524
11944W        W84204  38.908  35.976   2.788
11945W        W84205  24.613  31.471  10.539
11946W        W84206   2.392  10.224   2.790
11947W        W84207   1.890  33.955  14.414
11948W        W84208   9.690  32.454  12.529
11949W        W84209  29.035  10.249   2.723
11950W        W84210   0.381   8.308  14.804
11951W        W84211  26.091  21.696   4.791
11952W        W84212  33.069  11.165  14.024
11953W        W84213  38.356  38.918   1.764
11954W        W84214  16.676  31.566  12.449
11955W        W84215  12.181  43.501  10.592
11956W        W84216  30.522  12.245  10.444
11957W        W84217  14.105  33.457  10.417
11958W        W84218  12.245   1.242  11.532
11959W        W84219  32.417   1.781  10.588
11960W        W84220  42.450  38.515   4.764
11961W        W84221  41.387  42.868  14.959
11962W        W84222  25.689  13.739   1.914
11963W        W84223   9.766  24.163  12.940
11964W        W84224  15.261   8.211   4.655
11965W        W84225  29.162   1.300  10.933
11966W        W84226  37.579  36.947  11.892
11967W        W84227  15.687  28.000   4.803
11968W        W84228  25.070   7.783  10.451
11969W        W84229  30.978  11.193  14.500
11970W        W84230   0.891  41.368  12.035
11971W        W84231   4.815  29.654   1.763
11972W        W84232  26.548   9.267  13.423
11973W        W84233  16.119  29.084  14.966
11974W        W84234  22.623  30.493   0.279
11975W        W84235   4.231  17.745  13.959
11976W        W84236  35.930   3.911  14.759
11977W        W84237  39.436   7.390   4.776
11978W        W84238  23.130  38.566   3.293
11979W        W84239  13.638  43.491   3.299
11980W        W84240  10.332  27.454   3.385
11981W        W84241  30.000  24.517   1.374
11982W        W84242  34.600  14.649   3.829
11983W        W84243  21.200  42.995   2.187
11984W        W84244  41.479  26.593  11.593
11985W        W84245  30.607  44.805   0.844
11986W        W84246  34.082  34.942  13.867
11987W        W84247   2.834  23.719  14.284
11988W        W84248  16.700  24.173  12.830
11989W        W84249  16.249  12.716   3.727
11990W        W84250  35.007   4.438  13.537
11991W        W84251  41.977  43.940  14.878
11992W        W84252  44.852  36.035   2.727
11993W        W84253   1.856   4.311   1.262
11994W        W84254  10.247  15.284   0.938
11995W        W84255  33.951  32.490   0.338
11996W        W84256  24.652  22.997   2.364
11997W        W84257  23.065  21.198   0.248
11998W        W84258   7.704  16.262   1.846
11999W        W84259  21.706  15.691   1.383
12000W        W84260  22.633  37.995   3.313
12001W        W84261  21.692  16.767   3.226
12002W        W84262   2.927  26.134   2.841
12003W        W84263  18.106  10.666  12.373
12004W        W84264  41.378  37.355  14.355
12005W        W84265  14.689  24.165   0.460
12006W        W84266  36.463  40.926   4.220
12007W        W84267  31.544  43.853  10.445
12008W        W84268  39.037   3.833   9.921
12009W        W84269  34.465   7.211   0.741
12010W        W84270  19.763   8.228   4.720
12011W        W84271   4.808  31.960  14.890
12012W        W84272   3.877   6.760   1.811
12013W        W84273  31.562  27.982  13.015
12014W        W84274  17.120   4.844   0.894
12015W        W84275  22.725  44.828   4.283
12016W        W84276  44.300  42.796  11.937
12017W        W84277  13.727  25.033   4.347
12018W        W84278  29.633   1.929  12.414
12019W        W84279  41.006   4.300   1.442
12020W        W84280  32.100  39.042  11.383
12021W        W84281  29.070  27.640   1.724
12022W        W84282  19.181  18.085   3.201
12023W        W84283  14.213  38.416   2.883
12024W        W84284   3.800  29.159   2.743
12025W        W84285  19.200   5.241   0.280
12026W        W84286  23.707  41.423   9.968
12027W        W84287  38.993  43.385  14.400
12028W        W84288   5.206  11.727  13.338
12029W        W84289  27.163   3.731   0.783
12030W        W84290  28.469  27.956   1.746
12031W        W84291  26.559   8.730  14.782
12032W        W84292   1.381  18.550   2.229
12033W        W84293  11.196  13.635  13.370
12034W        W84294   2.879  40.503   1.312
12035W        W84295  39.039  29.000   4.307
12036W        W84296  20.160  17.758  11.566
12037W        W84297  11.757   0.813  11.908
12038W        W84298  26.197   1.479   0.785
12039W        W84299   4.402  30.080  12.514
12040W        W84300  26.195  16.132  14.865
12041W        W84301   3.309   0.268  14.454
12042W        W84302  29.464  23.574   4.654
12043W        W84303  14.301  12.700   1.790
12044W        W84304   5.302  29.574   1.821
12045W        W84305  25.671  21.624   3.811
12046W        W84306  28.012  21.635   3.814
12047W        W84307  40.970   4.787   2.359
12048W        W84308  15.800  38.858   0.816
12049W        W84309  14.210  21.190   2.205
12050W        W84310  35.362   6.415   2.191
12051W        W84311  21.608  41.397  14.981
12052W        W84312  43.919  18.582  12.507
12053W        W84313  23.613  40.044  11.562
12054W        W84314   0.335  10.351   3.819
12055W        W84315  16.264  15.176   4.671
12056W        W84316  29.174   6.229   4.836
12057W        W84317  37.564  31.477   1.216
12058W        W84318  35.480  39.065   2.418
12059W        W84319  10.877  33.965  11.404
12060W        W84320  42.513  27.570  14.936
12061W        W84321  43.443  38.342   4.304
12062W        W84322  44.286  33.064   3.334
12063W        W84323  20.579   7.792   3.279
12064W        W84324   4.367  37.447   2.398
12065W        W84325  17.250  20.067   2.278
12066W        W84326  30.614  40.439  12.031
12067W        W84327  42.990  14.220  13.397
12068W        W84328   7.773   9.349  10.553
12069W        W84329   9.880  26.074   0.330
12070W        W84330  36.507  13.700  11.509
12071W        W84331  41.510   8.675   3.283
12072W        W84332  17.272  25.650  12.880
12073W        W84333   8.852  13.185   1.840
12074W        W84334  12.164  32.595  14.819
12075W        W84335  27.447  12.316   3.225
12076W        W84336   4.358  18.735   2.181
12077W        W84337  30.075  31.412   4.262
12078W        W84338  41.843   9.884  10.957
12079W        W84339  10.228  43.772   4.230
12080W        W84340  15.596   3.269   1.214
12081W        W84341  14.109  44.419   0.415
12082W        W84342  13.335  16.714   4.603
12083W        W84343  16.215  26.626  12.438
12084W        W84344  15.288   9.160  11.448
12085W        W84345  35.512  34.532   2.227
12086W        W84346  30.132  16.192   3.631
12087W        W84347  13.708   8.356  12.824
12088W        W84348  36.864  32.926  14.842
12089W        W84349   0.821  44.347  13.514
12090W        W84350   9.381  13.836   2.895
12091W        W84351  23.179  14.794  12.906
12092W        W84352  11.266  11.150   2.319
12093W        W84353  25.969   1.359  10.501
12094W        W84354   9.284  10.783  13.467
12095W        W84355  11.155  34.374  13.842
12096W        W84356  32.400  25.485  14.016
12097W        W84357  32.529  43.285   0.483
12098W        W84358  35.893  33.574   1.271
12099W        W84359  24.093  34.984  13.467
12100W        W84360  38.820   1.468   2.848
12101W        W84361  22.139  37.836   3.164
12102W        W84362  14.117  28.488  10.985
12103W        W84363  14.697  42.512  13.449
12104W        W84364  35.402  36.426   4.643
12105W        W84365  25.070  37.850   3.762
12106W        W84366  17.144   1.848  13.940
12107W        W84367  41.339  43.898   1.727
12108W        W84368  41.927  37.512  11.570
12109W        W84369  28.935  39.540   1.295
12110W        W84370  38.536  40.511   0.811
12111W        W84371  26.193  22.604  11.531
12112W        W84372  36.848  23.732  11.045
12113W        W84373   7.666   5.881  13.510
12114W        W84374  12.688  27.037  13.868
12115W        W84375  35.939  20.159   3.769
12116W        W84376  28.101  16.726   3.347
12117W        W84377  10.656  44.832   4.136
12118W        W84378  39.938  32.607  13.008
12119W        W84379  12.618  33.992   3.287
12120W        W84380  43.399  21.257   0.890
12121W        W84381  17.602  18.295   3.196
12122W        W84382  44.954  22.174   0.258
12123W        W84383  32.140   4.793   3.653
12124W        W84384  42.469   7.192   2.255
12125W        W84385  31.432  41.366  14.972
12126W        W84386  42.496  22.667  11.915
12127W        W84387  23.520  27.539   3.734
12128W        W84388  34.000   4.785  11.550
12129W        W84389   8.225  38.463  12.339
12130W        W84390  19.739  21.672  14.378
12131W        W84391  27.521   3.311   2.227
12132W        W84392  24.593  14.796  13.532
12133W        W84393  31.979  40.949  11.973
12134W        W84394  35.874  26.014   3.296
12135W        W84395  42.787   5.806  14.982
12136W        W84396   0.846  18.187   3.695
12137W        W84397   5.862  12.671  11.097
12138W        W84398  42.975  29.934   2.849
12139W        W84399   7.798   7.218   3.830
12140W        W84400  37.337  38.025  12.985
12141W        W84401  27.003  29.490   1.837
12142W        W84402  20.222  26.498   3.288
12143W        W84403   6.228  18.575   0.344
12144W        W84404  23.155  28.622  12.029
12145W        W84405  24.076  41.964   2.698
12146W        W84406   4.207  28.526  13.347
12147W        W84407  44.386  28.972  10.137
12148W        W84408   2.961  12.216  10.451
12149W        W84409  35.506   8.664  13.017
12150W        W84410  14.696  25.183   1.417
12151W        W84411  33.461   7.727  14.502
12152W        W84412   3.385   8.816  10.472
12153W        W84413  17.150  11.360   1.435
12154W        W84414  30.512   5.262   1.335
12155W        W84415   8.163  10.782  13.035
12156W        W84416  26.003  29.070   0.795
12157W        W84417  38.050  44.327  14.325
12158W        W84418   3.287  21.037  14.323
12159W        W84419  22.220  22.201   2.353
12160W        W84420  18.759  12.784  12.086
12161W        W84421  42.840  23.582   1.344
12162W        W84422  12.310  31.907   4.157
12163W        W84423  30.087  34.038   2.842
12164W        W84424  12.215  44.420   4.199
12165W        W84425  44.435  41.970   1.836
12166W        W84426  39.355  11.225  13.408
12167W        W84427   2.768   6.801  13.057
12168W        W84428  29.036  14.792  12.435
12169W        W84429  41.864   8.741   3.756
12170W        W84430  19.154  19.128   4.627
12171W        W84431  41.448  14.296   2.818
12172W        W84432  22.738  43.326   0.947
12173W        W84433   1.910  25.005  11.067
12174W        W84434  18.133   2.914   2.815
12175W        W84435  22.551  43.404   3.318
12176W        W84436  33.466  26.648  10.933
12177W        W84437  31.631  36.380  14.857
12178W        W84438  26.696  28.670   4.199
12179W        W84439   3.816   1.762   3.171
12180W        W84440  15.093  41.813  12.053
12181W        W84441  36.881   7.208  10.439
12182W        W84442  21.070  20.593   3.354
12183W        W84443  16.652  31.419   4.768
12184W        W84444  28.460   8.342  14.780
12185W        W84445  21.247  21.592   4.175
12186W        W84446   7.386  34.923  11.038
12187W        W84447  25.647   5.881   2.398
12188W        W84448  43.409   3.793  11.377
12189W        W84449   9.760  19.704   0.247
12190W        W84450  31.517  38.939   2.342
12191W        W84451  16.161  42.033  14.007
12192W        W84452  39.515   9.286   4.155
12193W        W84453   3.337   8.752   3.387
12194W        W84454  22.650   5.844  11.556
12195W        W84455  24.569  36.892  14.340
12196W        W84456  20.557  33.615   1.745
12197W        W84457  21.146  17.603  14.852
12198W        W84458  26.027  11.147  12.855
12199W        W84459  41.360   2.363   3.199
12200W        W84460  31.588  35.965   0.811
12201W        W84461  21.064  33.475   4.672
12202W        W84462  11.150  34.081  14.024
12203W        W84463  19.106  15.190  14.855
12204W        W84464  17.682   6.861  10.022
12205W        W84465  20.709  10.350  12.020
12206W        W84466  29.438   1.239  10.457
12207W        W84467   9.675  22.189   3.202
12208W        W84468  34.892  28.046  14.444
12209W        W84469  18.734  30.585   1.830
12210W        W84470  38.373   6.242  14.494
12211W        W84471  26.101  43.832   2.236
12212W        W84472  22.676  10.249  11.464
12213W        W84473  35.055   0.356   0.866
12214W        W84474   8.180  26.050  14.852
12215W        W84475  15.143  28.085  14.450
12216W        W84476  32.434  15.223   4.155
12217W        W84477  42.337   0.466   2.699
12218W        W84478  13.110  21.221  14.889
12219W        W84479  25.101  11.231  12.919
12220W        W84480  29.643  37.838   4.265
12221W        W84481  36.909   4.316  14.793
12222W        W84482  16.662  20.601   2.687
12223W        W84483   2.406   2.770  14.423
12224W        W84484   5.272   8.396  12.551
12225W        W84485  44.280  13.701   3.787
12226W        W84486  26.697  10.225   0.776
12227W        W84487   5.343  27.956   4.140
12228W        W84488  20.603  31.466   1.714
12229W        W84489  35.950   8.840  14.405
12230W        W84490  14.326  15.730  13.821
12231W        W84491  42.471  25.655  10.501
12232W        W84492   0.309   2.859  12.942
12233W        W84493  24.719   3.298  11.877
12234W        W84494  16.154  25.561   0.960
12235W        W84495  26.009  44.947  13.939
12236W        W84496  18.243  41.534  11.980
12237W        W84497  26.012  23.571  12.529
12238W        W84498  25.160  32.559   1.805
12239W        W84499  28.594   5.435  14.402
12240W        W84500  16.775   5.346   4.631
12241W        W84501  20.237   9.230  11.918
12242W        W84502  35.039   7.860  14.934
12243W        W84503  13.122  38.493  11.895
12244W        W84504  29.133   1.245  13.962
12245W        W84505  43.297  16.119   0.843
12246W        W84506  19.610  35.398   1.304
12247W        W84507  24.215  12.158   4.778
12248W        W84508  32.544   4.431   0.791
12249W        W84509  12.723   5.378   1.355
12250W        W84510  22.668  36.533   2.692
12251W        W84511  19.083   3.390  14.338
12252W        W84512  18.658  21.613   1.324
12253W        W84513   9.822  32.949  11.576
12254W        W84514  11.284  37.915  12.972
12255W        W84515  34.511  16.081  14.437
12256W        W84516   0.831  39.044   3.146
12257W        W84517  20.273  15.137  11.492
12258W        W84518   6.371   6.790  13.945
12259W        W84519  15.154  16.253  14.017
12260W        W84520  16.270  17.166   1.227
12261W        W84521   3.793   5.233   3.288
12262W        W84522  18.266  35.542  11.495
12263W        W84523  26.015  16.699  13.792
12264W        W84524  14.806  14.596  11.101
12265W        W84525  19.605  37.577  11.102
12266W        W84526  14.601  37.053  14.355
12267W        W84527  18.142  42.341  12.076
12268W        W84528  27.543  43.293   2.363
12269W        W84529  18.149  34.555  13.434
12270W        W84530  20.697  15.277  11.416
12271W        W84531  23.075  30.955  12.579
12272W        W84532  19.556  35.562   4.286
12273W        W84533  44.363  38.369   1.311
12274W        W84534  36.462   7.391   3.792
12275W        W84535  34.900  12.721  11.881
12276W        W84536  14.634  25.095   4.708
12277W        W84537  28.064   0.374  11.922
12278W        W84538  37.504  26.101  11.859
12279W        W84539  35.866   7.761  12.064
12280W        W84540  23.516  18.716   0.834
12281W        W84541   4.332   1.764  10.452
12282W        W84542  20.049   5.835  12.893
12283W        W84543   9.834  15.787  14.498
12284W        W84544  28.625   5.245  10.966
12285W        W84545   2.252  23.215   0.252
12286W        W84546  30.162   7.263   2.899
12287W        W84547   9.354  32.013  11.122
12288W        W84548  10.162  12.672   1.886
12289W        W84549  11.285  21.124  11.513
12290W        W84550   6.415  29.968   3.869
12291W        W84551  21.150  17.150  13.430
12292W        W84552  39.969  10.180  11.423
12293W        W84553   4.390  23.200   1.385
12294W        W84554  28.663  26.696   2.358
12295W        W84555   5.362  23.663  13.349
12296W        W84556  17.781   6.913  12.860
12297W        W84557   4.840  39.027   5.272
12298W        W84558  41.990  30.448   3.222
12299W        W84559  22.097  20.155   4.672
12300W        W84560   3.929  11.775   0.319
12301W        W84561   1.822  11.343   4.709
12302W        W84562  18.705   1.831   4.169
12303W        W84563  23.065  11.236   3.851
12304W        W84564  41.820  10.258  13.816
12305W        W84565  40.898  38.039  12.540
12306W        W84566   0.436  41.891  12.976
12307W        W84567  30.019   7.838   4.622
12308W        W84568   3.385  20.086  11.944
12309W        W84569   8.172  35.880   3.843
12310W        W84570   3.806   0.458  11.546
12311W        W84571   3.754  41.808  12.430
12312W        W84572  18.770  36.424   0.458
12313W        W84573  40.854  22.032   4.768
12314W        W84574   7.404   9.269   1.799
12315W        W84575  33.059  30.026  14.015
12316W        W84576  14.739   4.758  12.943
12317W        W84577   1.949  12.718  12.074
12318W        W84578  17.666  10.305  13.471
12319W        W84579   1.483   4.305  14.823
12320W        W84580  29.125   1.245  10.618
12321W        W84581  14.622  30.599   1.809
12322W        W84582   9.741   1.787  14.384
12323W        W84583   4.215  24.633  10.414
12324W        W84584  20.257  13.770  13.011
12325W        W84585  12.793  18.087   0.734
12326W        W84586  22.743  42.968   4.642
12327W        W84587  33.625  41.020  14.969
12328W        W84588  14.804   3.298   1.780
12329W        W84589  37.467  14.334   4.687
12330W        W84590  26.977  29.597  14.343
12331W        W84591  34.035   5.811   0.823
12332W        W84592   0.469  44.870   2.361
12333W        W84593  36.420  29.461   4.723
12334W        W84594  11.854  13.266  11.507
12335W        W84595  12.635  12.325  10.478
12336W        W84596   8.162   9.841  12.052
12337W        W84597  38.936  24.048   4.636
12338W        W84598  12.662  28.547  13.528
12339W        W84599  36.036  38.917  12.391
12340W        W84600  25.478  16.611   0.444
12341W        W84601   0.275  35.383   0.459
12342W        W84602  32.083  31.530   0.395
12343W        W84603  25.142  20.756   4.784
12344W        W84604  18.680   8.374   4.152
12345W        W84605  21.079   4.923   3.715
12346W        W84606  36.362  17.096   1.737
12347W        W84607  25.196  44.836   1.370
12348W        W84608   5.884  28.602  14.813
12349W        W84609  17.759  19.148  11.868
12350W        W84610   0.779  29.613  12.852
12351W        W84611   7.674  13.824   3.283
12352W        W84612  15.583  23.985   2.226
12353W        W84613   2.396  37.452  12.966
12354W        W84614  29.973   6.389   3.346
12355W        W84615  14.758  24.211  14.387
12356W        W84616   0.420  32.533   2.298
12357W        W84617  25.091  40.516   3.323
12358W        W84618  22.070   8.864  13.000
12359W        W84619  12.750  30.944   3.330
12360W        W84620   2.292  37.988  12.860
12361W        W84621  15.104  11.206  12.038
12362W        W84622   4.252  17.573  12.485
12363W        W84623  43.863  36.461  12.473
12364W        W84624   9.222  36.438   4.301
12365W        W84625   5.409  23.136  13.358
12366W        W84626  22.512  28.026   5.721
12367W        W84627  43.389   3.742  12.934
12368W        W84628   5.438  28.606   4.733
12369W        W84629  16.278  11.346   4.346
12370W        W84630  22.517  27.684  12.059
12371W        W84631  28.180  35.425  13.376
12372W        W84632  25.068  19.098  14.311
12373W        W84633  14.692   6.420   3.205
12374W        W84634  20.272  28.944  10.644
12375W        W84635  38.447  13.192  14.872
12376W        W84636   7.681  12.318   3.854
12377W        W84637  31.542  14.615   4.613
12378W        W84638   0.808  31.967   3.246
12379W        W84639  42.305   6.332   3.385
12380W        W84640  25.559   7.754  13.005
12381W        W84641  32.552  31.515  14.865
12382W        W84642   9.649  36.023  14.943
12383W        W84643   6.887  15.753  11.090
12384W        W84644  35.419  20.264   3.281
12385W        W84645  44.758  41.402   0.830
12386W        W84646  19.540   3.807   4.241
12387W        W84647   0.783  44.990   1.827
12388W        W84648   3.869   6.205  14.404
12389W        W84649  25.654  43.399   1.863
12390W        W84650   1.382  35.447  13.022
12391W        W84651  18.605  35.909   5.320
12392W        W84652  20.154  11.774   4.671
12393W        W84653   8.752  26.490   2.292
12394W        W84654  20.054  44.468   1.816
12395W        W84655  40.893  39.828  12.992
12396W        W84656  25.046  20.206   1.863
12397W        W84657  19.623  25.111   4.775
12398W        W84658  19.778  21.096   3.821
12399W        W84659  40.357  17.082   3.704
12400W        W84660  14.336  34.428  10.969
12401W        W84661  10.683  18.684   3.751
12402W        W84662  29.519   1.841   1.881
12403W        W84663  36.098  20.548   4.604
12404W        W84664  30.656  32.931   3.218
12405W        W84665  36.929  37.460  13.995
12406W        W84666   8.401   3.267   3.379
12407W        W84667  25.667  38.381   2.790
12408W        W84668  41.923   1.365  14.883
12409W        W84669  11.358  24.983  13.981
12410W        W84670  36.428  11.653  14.420
12411W        W84671   3.815  17.723   1.703
12412W        W84672  20.105   4.852  10.915
12413W        W84673  36.556  34.397   0.784
12414W        W84674   8.360  39.036  13.861
12415W        W84675   3.905  39.007  10.481
12416W        W84676  10.658   3.736  14.316
12417W        W84677  33.388  41.895  10.891
12418W        W84678  28.639  19.650  12.461
12419W        W84679  17.634  41.925  11.503
12420W        W84680  42.492  34.906   2.238
12421W        W84681   0.923   8.249  14.348
12422W        W84682  37.519  18.583   0.758
12423W        W84683  26.608  23.571  12.943
12424W        W84684  25.217  11.737  14.418
12425W        W84685  22.745  36.941  13.016
12426W        W84686  25.219   8.321   2.693
12427W        W84687  44.833  33.622  11.578
12428W        W84688   0.279  37.348   2.889
12429W        W84689  23.220   3.273  14.319
12430W        W84690  35.383  34.546  11.431
12431W        W84691  41.792   4.758   4.698
12432W        W84692  33.036  41.363  13.393
12433W        W84693  28.048  20.069   1.366
12434W        W84694  11.787   4.347  12.422
12435W        W84695  14.202  44.344  13.354
12436W        W84696  11.301  30.429   1.238
12437W        W84697   1.427  33.937  10.575
12438W        W84698  25.564  44.859   0.944
12439W        W84699  14.212   7.213   4.275
12440W        W84700  24.154  18.225   2.820
12441W        W84701   3.346  21.714   2.367
12442W        W84702  26.121  33.528  14.513
12443W        W84703  28.984  26.203   3.182
12444W        W84704   8.836   1.396   2.204
12445W        W84705  32.126  44.001   0.830
12446W        W84706  17.192  22.578   1.437
12447W        W84707   5.401  38.360   3.720
12448W        W84708  15.281  43.799  13.012
12449W        W84709  18.064  25.040   3.840
12450W        W84710  17.198  14.098   3.207
12451W        W84711   0.377   0.833  12.432
12452W        W84712  35.000  26.052  14.896
12453W        W84713  19.181   5.928  14.431
12454W        W84714  38.481  38.895  14.022
12455W        W84715   7.712  30.145   1.855
12456W        W84716  34.553  13.195  10.428
12457W        W84717  40.509  41.381   1.211
12458W        W84718  10.350   5.852   0.468
12459W        W84719  24.036   9.166   0.833
12460W        W84720  33.397  23.643   1.420
12461W        W84721  21.144  39.813   4.764
12462W        W84722  29.054  24.209   3.806
12463W        W84723   4.244  13.332   3.797
12464W        W84724  30.516  26.086   0.766
12465W        W84725  30.620  25.962  12.573
12466W        W84726  18.276  23.702   4.749
12467W        W84727  42.797  44.898   3.738
12468W        W84728  17.563   5.811   4.156
12469W        W84729  16.296  31.112   1.761
12470W        W84730  23.597  12.257  14.022
12471W        W84731   4.863  33.065   1.372
12472W        W84732  20.719  11.717  14.862
12473W        W84733  38.448  34.424  13.451
12474W        W84734  31.617  19.114  13.916
12475W        W84735   9.795  22.033   1.309
12476W        W84736  22.240  31.090   4.235
12477W        W84737  36.900  35.104   2.796
12478W        W84738  26.622  32.068   4.288
12479W        W84739   2.414  21.612  11.093
12480W        W84740   8.737  30.634  14.362
12481W        W84741  26.513  10.335  14.997
12482W        W84742   0.812  37.407  13.859
12483W        W84743  12.274  27.611  14.417
12484W        W84744   9.724  18.560   2.184
12485W        W84745   3.240  26.462   4.604
12486W        W84746   9.754  39.386   1.291
12487W        W84747  38.042  34.462   1.780
12488W        W84748  13.271  24.690   1.849
12489W        W84749  11.287  15.226  13.791
12490W        W84750  28.094  26.972  14.352
12491W        W84751  41.376  43.817   4.165
12492W        W84752  42.426   8.854   3.814
12493W        W84753  17.216  18.775   3.269
12494W        W84754   4.704   0.759  14.896
12495W        W84755  25.196  26.155  10.406
12496W        W84756  18.762   4.279  13.975
12497W        W84757  17.655  41.852  11.041
12498W        W84758  34.608  20.149  11.385
12499W        W84759  38.384  25.537   3.813
12500W        W84760   9.866   3.334   2.178
12501W        W84761  19.571  42.297   0.866
12502W        W84762  13.839  26.533   4.200
12503W        W84763  29.638  13.655  14.843
12504W        W84764  40.985  14.812   1.305
12505W        W84765  26.041  11.253  11.460
12506W        W84766  38.883  13.174   0.302
12507W        W84767   9.684  16.711  12.028
12508W        W84768   3.304   5.223  11.917
12509W        W84769  38.427  14.736  11.438
12510W        W84770  35.100   7.204  12.841
12511W        W84771  18.114   3.777  10.996
12512W        W84772   9.208  11.348   0.823
12513W        W84773  18.564  11.736   0.942
12514W        W84774   3.258  20.176   3.660
12515W        W84775  13.726  36.527   1.934
12516W        W84776  10.287   8.234  13.010
12517W        W84777  39.843  33.046  13.411
12518W        W84778  29.449   5.813  12.983
12519W        W84779  16.608   7.904   0.874
12520W        W84780  39.456   7.251   0.750
12521W        W84781  16.142  20.184   4.247
12522W        W84782  40.895  26.978  12.479
12523W        W84783  15.177  33.975   1.726
12524W        W84784  31.150  37.367   3.377
12525W        W84785  15.672  40.998  10.502
12526W        W84786  14.631  11.141   1.758
12527W        W84787   5.414  20.723   4.167
12528W        W84788  21.575   0.277  14.813
12529W        W84789  15.712  35.915  13.020
12530W        W84790  32.438  13.162   1.390
12531W        W84791  14.277  33.433   9.981
12532W        W84792  14.205  42.488  14.397
12533W        W84793   9.209  24.136   0.748
12534W        W84794  25.180  31.106  12.920
12535W        W84795  34.906  24.218   4.229
12536W        W84796   5.770  15.757  12.096
12537W        W84797  33.507   2.738   1.288
12538W        W84798   9.802  44.264  12.878
12539W        W84799  30.457   5.333  14.303
12540W        W84800  22.218  41.378   2.688
12541W        W84801  38.556   7.673   1.854
12542W        W84802  22.697  23.596  12.036
12543W        W84803  15.219   0.872   0.875
12544W        W84804  25.205  26.100  11.491
12545W        W84805   4.710  23.544  14.881
12546W        W84806  36.377  27.591   3.644
12547W        W84807  32.420  23.069   0.903
12548W        W84808  18.788  24.002  10.970
12549W        W84809  26.565  38.521  14.906
12550W        W84810  23.090  33.028  11.542
12551W        W84811  36.909  20.083   4.257
12552W        W84812  38.822  10.866   0.305
12553W        W84813   5.834  35.944  13.463
12554W        W84814  31.134  31.993  10.590
12555W        W84815  23.581  20.029  13.430
12556W        W84816  26.679  36.861  10.607
12557W        W84817  44.999  22.117   0.935
12558W        W84818   9.177   1.889  13.056
12559W        W84819  13.175  32.140  14.339
12560W        W84820  44.281  24.217   0.950
12561W        W84821  28.650  34.935   4.732
12562W        W84822   7.822  12.690  12.506
12563W        W84823  35.537  25.553  11.872
12564W        W84824  27.133  35.426   0.356
12565W        W84825  19.063  35.028  12.864
12566W        W84826  11.366  20.230   0.821
12567W        W84827  10.278  31.635   0.818
12568W        W84828  39.434  21.675  14.854
12569W        W84829  32.913  17.796   1.288
12570W        W84830  27.678  33.972  11.906
12571W        W84831  44.837   9.794  13.519
12572W        W84832   8.286  10.193   1.440
12573W        W84833  24.211  21.719  14.422
12574W        W84834  29.057   5.790   0.467
12575W        W84835  14.777  19.066  10.608
12576W        W84836  15.745   9.215   4.341
12577W        W84837  22.527  36.851  14.992
12578W        W84838  10.793  39.829   3.865
12579W        W84839   7.279  18.606   2.735
12580W        W84840  33.943  11.273   2.293
12581W        W84841  27.029  14.605   0.329
12582W        W84842  16.134  27.601  10.535
12583W        W84843  19.545   5.433   4.783
12584W        W84844  20.563  23.519  13.945
12585W        W84845  31.534  30.163   1.412
12586W        W84846  19.710  37.534   5.227
12587W        W84847  30.961  14.108   1.391
12588W        W84848  24.624  30.958  13.815
12589W        W84849  29.064  35.427  13.017
12590W        W84850  24.983  29.560  13.455
12591W        W84851   4.943   2.965   2.876
12592W        W84852  19.218  11.333  12.397
12593W        W84853  25.075   0.446   0.416
12594W        W84854  21.597  37.504   0.316
12595W        W84855  35.494  18.613   9.553
12596W        W84856  40.913  37.049   4.149
12597W        W84857  18.621  36.060  13.009
12598W        W84858   7.797  39.020  11.110
12599W        W84859   3.328  13.631   0.458
12600W        W84860  40.380   2.755   2.724
12601W        W84861   6.864  32.104   0.858
12602W        W84862  17.690  42.997  14.977
12603W        W84863  14.285   2.400  13.880
12604W        W84864  18.741  21.605  11.072
12605W        W84865   5.891  15.719   4.164
12606W        W84866  25.658  12.777   1.226
12607W        W84867  27.070  30.082   3.718
12608W        W84868  35.980  12.842   3.386
12609W        W84869  11.216  27.518  10.926
12610W        W84870  36.450  36.369   3.153
12611W        W84871  44.002  19.219  12.962
12612W        W84872  16.160  11.191   1.866
12613W        W84873  40.471  21.242  14.414
12614W        W84874  31.502  40.812   3.266
12615W        W84875  14.173  43.485   3.695
12616W        W84876  14.315  38.443   3.745
12617W        W84877  22.163  40.871   3.650
12618W        W84878   1.303  26.156   1.848
12619W        W84879  37.855  34.940  14.853
12620W        W84880   3.456  32.078   0.794
12621W        W84881  34.463  32.575   0.770
12622W        W84882  41.902  39.504   2.854
12623W        W84883  14.155  15.728  14.785
12624W        W84884  33.921  29.617   0.921
12625W        W84885  10.185  41.300   4.712
12626W        W84886  32.947   5.221  12.493
12627W        W84887  41.950  26.571   4.345
12628W        W84888  35.435  43.346  13.923
12629W        W84889  37.073  17.586   3.828
12630W        W84890  26.041  33.400   4.748
12631W        W84891  19.057   2.836  11.393
12632W        W84892   3.245  16.200  10.482
12633W        W84893  29.495  21.555  13.833
12634W        W84894  17.196  32.401   2.713
12635W        W84895  42.430  40.009  14.985
12636W        W84896  30.512   8.371  12.065
12637W        W84897  14.099   4.270  12.406
12638W        W84898   5.914   0.424  11.567
12639W        W84899   1.801  21.045  13.849
12640W        W84900   4.363  18.074  13.412
12641W        W84901  12.126  12.713  12.975
12642W        W84902  20.707   6.276   3.704
12643W        W84903  11.861  26.473  12.949
12644W        W84904  21.128  11.685  12.467
12645W        W84905   2.815  16.078   4.329
12646W        W84906  26.203  12.142   1.884
12647W        W84907  40.476   8.372  10.537
12648W        W84908   9.358  12.233  11.512
12649W        W84909   6.276  21.151   4.279
12650W        W84910   0.372  18.610  12.980
12651W        W84911   4.407  30.595   1.709
12652W        W84912  15.247   0.980   1.907
12653W        W84913  44.887  26.632   1.393
12654W        W84914  10.818  41.393  14.461
12655W        W84915   1.935  22.552  12.339
12656W        W84916  13.131   5.689  10.573
12657W        W84917  26.026  13.661   1.451
12658W        W84918  29.119  23.172  13.036
12659W        W84919  16.600  30.950  14.791
12660W        W84920  14.747   7.344   1.258
12661W        W84921   8.812  28.143   4.348
12662W        W84922  43.973  29.068  13.050
12663W        W84923  35.447  33.460  12.089
12664W        W84924  35.502  21.214  12.031
12665W        W84925  12.168   2.285   2.857
12666W        W84926  14.743  31.480  11.942
12667W        W84927  17.113  19.209   2.845
12668W        W84928  44.435  36.520   2.683
12669W        W84929  38.527  36.895   1.775
12670W        W84930  20.648  36.381   3.257
12671W        W84931  12.255   9.883  11.101
12672W        W84932  33.520   3.921   2.221
12673W        W84933  28.565  15.808  14.878
12674W        W84934  42.326  37.994  14.282
12675W        W84935  23.724  39.962  13.444
12676W        W84936  14.221  10.214   1.407
12677W        W84937   9.345  16.286   1.425
12678W        W84938   7.193  24.660   0.853
12679W        W84939  30.629  12.292   1.389
12680W        W84940   1.963  34.451   2.692
12681W        W84941   5.774  14.202  13.035
12682W        W84942  17.708  21.587  13.434
12683W        W84943  30.960  20.530  12.352
12684W        W84944  42.440  10.364   3.186
12685W        W84945  14.179   8.295  14.758
12686W        W84946  42.417  41.883   2.668
12687W        W84947   5.809   1.929   0.301
12688W        W84948   7.252  36.937   3.692
12689W        W84949   9.217  15.692  14.010
12690W        W84950  38.023  21.255  14.354
12691W        W84951   0.421   6.807   3.803
12692W        W84952  32.135  31.414   3.151
12693W        W84953  26.031  44.441  11.446
12694W        W84954  17.738  39.449  13.862
12695W        W84955  36.028   9.832   0.414
12696W        W84956  22.504  42.798  12.522
12697W        W84957   1.914  10.827   3.322
12698W        W84958  14.760  29.056  13.339
12699W        W84959  37.469  34.613   3.320
12700W        W84960   2.293  14.696   0.823
12701W        W84961  32.057  32.630  14.008
12702W        W84962  18.123  27.123  13.806
12703W        W84963   7.800  34.549   4.623
12704W        W84964  44.783  11.249   2.816
12705W        W84965  33.921  12.176   1.303
12706W        W84966  30.506  18.621   3.867
12707W        W84967  21.688   2.356  13.909
12708W        W84968  21.177  34.048   1.729
12709W        W84969   3.364  30.490  14.032
12710W        W84970   5.700   7.829  11.082
12711W        W84971  22.168  27.595  12.827
12712W        W84972   0.771  42.946   3.702
12713W        W84973  42.298  30.635  12.548
12714W        W84974  13.608  20.535  10.612
12715W        W84975  14.290   1.956   0.941
12716W        W84976  32.552  14.172   0.422
12717W        W84977  29.080   3.840  10.637
12718W        W84978   8.842   0.775  12.370
12719W        W84979  15.690  33.009  11.390
12720W        W84980   6.358  15.605   1.326
12721W        W84981  16.769  40.378   4.253
12722W        W84982  31.530  25.076  10.633
12723W        W84983  12.266   2.464   1.228
12724W        W84984   1.395  35.450  14.023
12725W        W84985   5.247  37.533  13.000
12726W        W84986  44.294  33.560   4.627
12727W        W84987  39.983  22.629  14.510
12728W        W84988  21.255  21.124  12.968
12729W        W84989  12.633  16.646   4.695
12730W        W84990  24.695   0.807   4.338
12731W        W84991  22.018  44.269  11.412
12732W        W84992  24.031   7.735   1.275
12733W        W84993   9.322  14.699  12.983
12734W        W84994  37.531  39.508   1.260
12735W        W84995  31.910   0.938   5.302
12736W        W84996   1.752  38.961  14.867
12737W        W84997  22.613  28.005   1.219
12738W        W84998  16.097  37.004   1.721
12739W        W84999   1.415  10.715   1.419
12740W        W85000  20.259   3.840   1.263
12741W        W85001  20.224  39.460  14.440
12742W        W85002   0.866  23.080  14.932
12743W        W85003  20.566  12.827  13.307
12744W        W85004  24.124  35.384  13.796
12745W        W85005  24.498  30.122   3.837
12746W        W85006  14.678  42.985  13.964
12747W        W85007  25.498  15.325  10.456
12748W        W85008  34.545   1.968   0.833
12749W        W85009   1.765  37.422   0.381
12750W        W85010   5.351  43.898  11.097
12751W        W85011  43.841  25.995  12.550
12752W        W85012  42.879  17.139  11.985
12753W        W85013  40.929  20.068   2.886
12754W        W85014   3.880   0.963   2.886
12755W        W85015  28.002  43.507   4.817
12756W        W85016  20.050  34.983  11.912
12757W        W85017  31.965  21.086  14.859
12758W        W85018  27.043  27.527   0.796
12759W        W85019  37.582  30.614   1.294
12760W        W85020   4.862   2.461  14.516
12761W        W85021  40.341   2.895  11.484
12762W        W85022  37.935  23.132  10.629
12763W        W85023  35.040   8.771   0.311
12764W        W85024   1.367   4.393  13.954
12765W        W85025  14.146  34.444  10.518
12766W        W85026  29.539   8.724  13.838
12767W        W85027  40.038  17.271  10.457
12768W        W85028   8.258  36.465  12.987
12769W        W85029  22.723   5.779   2.219
12770W        W85030   0.319  38.868  12.003
12771W        W85031  26.973   3.753  10.604
12772W        W85032  39.061  19.057   4.819
12773W        W85033  10.283   0.492   0.781
12774W        W85034   8.161   3.445  12.037
12775W        W85035  22.119  19.168   0.921
12776W        W85036   1.870  30.482  14.018
12777W        W85037   6.190  28.169   1.732
12778W        W85038  33.538  22.623  10.576
12779W        W85039  28.072  35.547   2.898
12780W        W85040  29.428  41.822  12.087
12781W        W85041  37.955  44.978   4.828
12782W        W85042   0.899  40.534  13.836
12783W        W85043   1.459  41.035  13.401
12784W        W85044  18.681   9.677  14.422
12785W        W85045   6.344  43.399   1.236
12786W        W85046  10.376  36.410   0.470
12787W        W85047  15.712   1.447   4.796
12788W        W85048   9.267   8.164  12.361
12789W        W85049  23.092   4.316  13.524
12790W        W85050  22.044  23.500   1.443
12791W        W85051  12.126  10.180   1.826
12792W        W85052  27.982   9.160   4.639
12793W        W85053  20.243  43.821  14.501
12794W        W85054  24.023  33.593   4.321
12795W        W85055   9.726  23.553  13.995
12796W        W85056   1.403   8.734   1.373
12797W        W85057  21.137  33.511  14.868
12798W        W85058  41.319  41.900   1.923
12799W        W85059  26.585  35.923  11.079
12800W        W85060  40.819  42.489  13.484
12801W        W85061  39.930  18.165  10.462
12802W        W85062  42.804  38.972   1.705
12803W        W85063   7.902  20.543  13.317
12804W        W85064  43.359  33.003  14.357
12805W        W85065  39.499  18.736  12.452
12806W        W85066  14.330  22.031  13.408
12807W        W85067  15.148   8.316  10.978
12808W        W85068  17.100  24.561  12.959
12809W        W85069  14.815  14.831   3.167
12810W        W85070  10.727  39.316  14.966
12811W        W85071   7.362  10.717  11.503
12812W        W85072  31.578  29.923  13.525
12813W        W85073  38.920  31.070   1.420
12814W        W85074   3.796  13.670  10.588
12815W        W85075  10.753  41.296  14.893
12816W        W85076  43.431  44.418   3.203
12817W        W85077  21.125   6.204  12.368
12818W        W85078   5.356   2.834  11.930
12819W        W85079  23.553   8.280   3.752
12820W        W85080  17.304  34.980   0.886
12821W        W85081   7.212  30.601   3.258
12822W        W85082  22.550   8.195  11.495
12823W        W85083  17.106   4.321   0.948
12824W        W85084  35.413  33.114   3.658
12825W        W85085  13.655  42.379   0.389
12826W        W85086  15.663   7.717  13.810
12827W        W85087  34.025  26.131   1.785
12828W        W85088  12.843  14.321  13.439
12829W        W85089   8.804  16.289   1.421
12830W        W85090  11.747  29.642   1.421
12831W        W85091  38.446   0.372  14.482
12832W        W85092  37.573  34.095   2.348
12833W        W85093  40.021  43.997   4.225
12834W        W85094  17.284  21.564  14.326
12835W        W85095   4.827  17.070  14.984
12836W        W85096  10.369  27.039  10.928
12837W        W85097  40.904   5.351  11.476
12838W        W85098   3.278   5.272  12.911
12839W        W85099  24.696  31.598   0.479
12840W        W85100  44.480  11.348   0.870
12841W        W85101  11.791   2.823  14.802
12842W        W85102   2.273   8.741  10.938
12843W        W85103  42.509  12.130  12.051
12844W        W85104  35.401  44.968  11.568
12845W        W85105  38.822  15.777   5.116
12846W        W85106  24.008  11.800  11.529
12847W        W85107  11.851  33.890   2.801
12848W        W85108   6.338   7.743  11.972
12849W        W85109  43.949  30.972   0.251
12850W        W85110  34.601  19.151   2.724
12851W        W85111  22.246  26.131  14.786
12852W        W85112   2.818  38.056  12.341
12853W        W85113   3.291   9.682  14.796
12854W        W85114   1.367  21.622   2.194
12855W        W85115  28.059  18.691   4.717
12856W        W85116  36.447  32.488   0.850
12857W        W85117  35.090  35.903   2.406
12858W        W85118  34.879  29.013   3.373
12859W        W85119  13.228  28.999  13.395
12860W        W85120  19.742  28.606  10.489
12861W        W85121  30.039  16.265   4.650
12862W        W85122  43.967  29.561   2.736
12863W        W85123  42.288  10.640   1.783
12864W        W85124   0.353  34.116   1.735
12865W        W85125  11.185  16.115   0.726
12866W        W85126  12.637   4.359   0.244
12867W        W85127   1.817   2.773  13.003
12868W        W85128  14.298  17.189  13.313
12869W        W85129  18.625  27.473   0.799
12870W        W85130  33.590  15.154  10.471
12871W        W85131  21.562  12.287  14.823
12872W        W85132  17.615  11.128  14.001
12873W        W85133  19.181  24.139  11.410
12874W        W85134  15.684   4.891  11.017
12875W        W85135  41.391   9.734  12.356
12876W        W85136  41.397   7.735  12.399
12877W        W85137  11.191  12.326  11.448
12878W        W85138  10.828  30.538   0.866
12879W        W85139  42.805  40.002  11.943
12880W        W85140  44.891  34.465  12.841
12881W        W85141  41.977  36.553  13.397
12882W        W85142  32.038  24.076  13.538
12883W        W85143  11.160  44.336  11.586
12884W        W85144  28.162   8.266   9.939
12885W        W85145  19.174  40.951  12.550
12886W        W85146  33.100   0.424  12.491
12887W        W85147  42.822  24.552   3.703
12888W        W85148  19.107  36.381   0.937
12889W        W85149  20.236   3.898  13.962
12890W        W85150  33.967  11.308   1.276
12891W        W85151  35.498  11.851   1.351
12892W        W85152  23.548  27.668   0.829
12893W        W85153  10.786  12.304  10.634
12894W        W85154   6.203  34.410   0.838
12895W        W85155  44.314  39.882   0.900
12896W        W85156  41.338   3.394   4.249
12897W        W85157   6.728  19.152  13.430
12898W        W85158  15.107   6.741  14.358
12899W        W85159  17.259  39.552  14.419
12900W        W85160  39.961  13.661   3.298
12901W        W85161  44.357  12.674  12.916
12902W        W85162  44.373  36.964   3.702
12903W        W85163   2.769  36.587  12.898
12904W        W85164  32.609  42.480  14.907
12905W        W85165  12.784  27.652  12.897
12906W        W85166   9.665  32.925  14.945
12907W        W85167   7.770  21.746   0.456
12908W        W85168  26.163  41.971  10.062
12909W        W85169  36.919   1.336  13.057
12910W        W85170  31.139  33.626  12.490
12911W        W85171  20.094  33.060   1.333
12912W        W85172  38.032  21.666  10.960
12913W        W85173  28.055  25.665  14.463
12914W        W85174  19.201   1.383  11.480
12915W        W85175   6.735  28.561  13.813
12916W        W85176   8.202   5.861  12.540
12917W        W85177   7.211   2.829  10.537
12918W        W85178  10.142  27.678  14.437
12919W        W85179  13.805  22.559   4.341
12920W        W85180   1.388   2.728   1.694
12921W        W85181  15.157   0.824  13.018
12922W        W85182  13.613  42.854   4.188
12923W        W85183  23.583  15.326  11.015
12924W        W85184   9.779  44.458   2.383
12925W        W85185  12.719   7.787  12.021
12926W        W85186  34.084  39.340   3.676
12927W        W85187  40.499  39.954   3.350
12928W        W85188  15.730   5.753   1.760
12929W        W85189  28.954  13.341   2.395
12930W        W85190  10.167   2.818  14.912
12931W        W85191  20.537  27.181  11.085
12932W        W85192  43.795  23.523  14.890
12933W        W85193  43.963  16.102  13.531
12934W        W85194  24.639  32.961   0.329
12935W        W85195   0.298  21.706   3.177
12936W        W85196  33.490  10.189  14.795
12937W        W85197  42.872  38.956   3.386
12938W        W85198  22.208  27.592  11.439
12939W        W85199  26.014  26.194   0.267
12940W        W85200  37.858  36.524   2.299
12941W        W85201   4.942  27.148   1.218
12942W        W85202  34.025  29.071   1.342
12943W        W85203  16.136  21.556   0.923
12944W        W85204   0.878  39.923   4.238
12945W        W85205  16.167   0.272  12.539
12946W        W85206  42.876  35.504   2.701
12947W        W85207   3.287  14.216  14.328
12948W        W85208  25.044  33.986   2.312
12949W        W85209  38.027  29.450   4.142
12950W        W85210  20.673  34.539   3.795
12951W        W85211  28.615  23.497  13.421
12952W        W85212  40.975   2.755   2.867
12953W        W85213  39.315   5.296  11.047
12954W        W85214  42.357  41.358  11.539
12955W        W85215   1.370  30.078  11.087
12956W        W85216  42.414  36.581  14.373
12957W        W85217  20.637  44.972   2.340
12958W        W85218  15.731   8.293  11.914
12959W        W85219  34.065  16.196  12.944
12960W        W85220  26.583   9.291  12.574
12961W        W85221  30.948   2.828  13.969
12962W        W85222  27.104  25.566   0.482
12963W        W85223  20.720  23.614   2.694
12964W        W85224   7.340  14.661   3.239
12965W        W85225  39.485  20.693   1.703
12966W        W85226  44.838  36.903   1.799
12967W        W85227  12.234   2.730  13.054
12968W        W85228  35.004  34.960   1.866
12969W        W85229   2.737  17.727  14.764
12970W        W85230  36.081  35.428  13.871
12971W        W85231  43.357   2.794  14.284
12972W        W85232  37.983  39.828  10.939
12973W        W85233   6.400  19.760  12.869
12974W        W85234  13.728  28.952   2.869
12975W        W85235  14.301  32.942  12.857
12976W        W85236  42.345  10.696   4.731
12977W        W85237  18.562  28.057  13.861
12978W        W85238  31.013  32.029   9.631
12979W        W85239   0.470  12.684  12.989
12980W        W85240  26.490   8.393  12.869
12981W        W85241  44.377   6.778   2.719
12982W        W85242  33.102  28.009  11.864
12983W        W85243  39.990  31.597   2.235
12984W        W85244   0.326  20.655   1.449
12985W        W85245  43.413  37.373   0.783
12986W        W85246   5.877  31.584   1.373
12987W        W85247  15.624  33.454   2.317
12988W        W85248   1.273  22.585   1.931
12989W        W85249  20.599  13.783   0.878
12990W        W85250  44.343  38.941  14.793
12991W        W85251  27.664  29.933  14.979
12992W        W85252  28.486  42.334  11.921
12993W        W85253   5.260  38.990  10.910
12994W        W85254  40.972   6.789  13.542
12995W        W85255   7.675   2.805   3.695
12996W        W85256  34.078  38.005   1.396
12997W        W85257   2.823   0.288  10.966
12998W        W85258  35.099  13.791   3.161
12999W        W85259   9.660  20.554   2.781
13000W        W85260  35.402  42.010   3.322
13001W        W85261  23.992  19.709   1.320
13002W        W85262  29.535  18.062   3.284
13003W        W85263  10.711  44.262  15.000
13004W        W85264  36.025  38.557   4.242
13005W        W85265   0.777  44.797  12.916
13006W        W85266  42.908   8.359  11.107
13007W        W85267   2.427  41.042  12.465
13008W        W85268  18.107  14.181  13.544
13009W        W85269   5.713  14.813  12.935
13010W        W85270   8.372  27.069   0.410
13011W        W85271  30.484  11.166   2.187
13012W        W85272  31.545  23.174   4.121
13013W        W85273  41.021   2.743  12.894
13014W        W85274   6.752  26.120   2.229
13015W        W85275  39.039   0.785   0.764
13016W        W85276  20.210  23.505   0.737
13017W        W85277  35.900  15.762  14.447
13018W        W85278  26.074  29.944   1.735
13019W        W85279  18.191  20.621  13.956
13020W        W85280  42.311  17.555   2.810
13021W        W85281  33.013  16.778  12.423
13022W        W85282  33.101  37.392   1.853
13023W        W85283  15.216  35.384  10.491
13024W        W85284  27.469  43.310  11.919
13025W        W85285  29.058  44.875  11.894
13026W        W85286  39.367  35.857   3.239
13027W        W85287   4.307  18.053   2.346
13028W        W85288  31.961  20.170   1.701
13029W        W85289  40.370   1.925  14.968
13030W        W85290  44.837  33.494   3.181
13031W        W85291  19.589   6.241   3.635
13032W        W85292  41.310   4.415   3.685
13033W        W85293   1.475  24.984   4.140
13034W        W85294  34.548  37.011   3.741
13035W        W85295  19.546  22.152   2.713
13036W        W85296  16.661  31.641  11.613
13037W        W85297  25.673  39.373  11.055
13038W        W85298  25.564  11.199  10.640
13039W        W85299  41.838  21.579   1.729
13040W        W85300  43.849   9.283  13.949
13041W        W85301  32.053  35.953  11.513
13042W        W85302  27.524  20.139  13.434
13043W        W85303  42.831  29.572  11.055
13044W        W85304   7.302  17.566   0.374
13045W        W85305  22.047  19.687  11.437
13046W        W85306  25.713  18.058   4.198
13047W        W85307  30.987   8.880  13.512
13048W        W85308  14.779  13.269   4.744
13049W        W85309  18.730  17.178   1.377
13050W        W85310  10.170  19.665  12.929
13051W        W85311   4.292  36.910   0.421
13052W        W85312  27.035  25.665  10.566
13053W        W85313  38.372   1.353   4.140
13054W        W85314  37.347  16.748  12.983
13055W        W85315  43.808  33.128   3.724
13056W        W85316   5.699  22.646   2.875
13057W        W85317  10.702  17.156  13.458
13058W        W85318  24.684  28.081   3.282
13059W        W85319  25.535   5.301   3.333
13060W        W85320  10.795   3.228   3.153
13061W        W85321  12.750   5.746  10.617
13062W        W85322  29.082  32.939  11.006
13063W        W85323  42.994  33.504   2.275
13064W        W85324  21.210  30.990  13.844
13065W        W85325  21.726  16.159   2.869
13066W        W85326  36.022  23.523   2.206
13067W        W85327  29.082  30.109   4.115
13068W        W85328  28.141   4.309   4.212
13069W        W85329   2.344  41.430  13.396
13070W        W85330   5.247  38.839   3.235
13071W        W85331   9.175  13.806   3.209
13072W        W85332  29.521  39.504   4.324
13073W        W85333  18.101  32.525  11.957
13074W        W85334  17.143  43.915  12.487
13075W        W85335  32.894  14.119   1.856
13076W        W85336  15.582  42.829  13.412
13077W        W85337  19.699  21.018  11.861
13078W        W85338  40.423  30.541  10.548
13079W        W85339   6.823  25.179   5.296
13080W        W85340  44.396  11.855   2.304
13081W        W85341  37.009  17.150   2.404
13082W        W85342  11.663  19.226   1.229
13083W        W85343  20.120  30.063   3.337
13084W        W85344   8.337  35.413  13.802
13085W        W85345  40.501  12.248  11.065
13086W        W85346  14.720  10.749   0.889
13087W        W85347   1.939  29.166   4.700
13088W        W85348  37.967  33.957  10.945
13089W        W85349   2.913  38.524   4.273
13090W        W85350  20.556  23.496  14.320
13091W        W85351  26.516  37.048  10.985
13092W        W85352   8.398  26.168  12.947
13093W        W85353  20.567  25.027  13.855
13094W        W85354  40.992   8.893  13.963
13095W        W85355  41.842  19.752   2.902
13096W        W85356  40.989  18.218  11.866
13097W        W85357  28.583  36.530  11.411
13098W        W85358   9.649  20.692   4.776
13099W        W85359   0.318  11.197  13.396
13100W        W85360  22.212  14.722   2.197
13101W        W85361  27.008  44.789   2.843
13102W        W85362  10.143  44.917   4.797
13103W        W85363  36.054   1.298  13.443
13104W        W85364   2.816   4.319  13.826
13105W        W85365   1.373  25.474  11.897
13106W        W85366  37.028  40.979   3.835
13107W        W85367   5.895  29.638   2.331
13108W        W85368  44.967  12.754  12.455
13109W        W85369  11.271  30.933   3.299
13110W        W85370  15.110  36.384  13.816
13111W        W85371  33.502  15.182  11.526
13112W        W85372  10.379  44.412   4.709
13113W        W85373  16.144  16.112  14.455
13114W        W85374  13.712  34.401  10.601
13115W        W85375  35.063  43.386  10.419
13116W        W85376  28.949  42.481   3.820
13117W        W85377   9.240  38.444   0.751
13118W        W85378   2.329  38.385   2.863
13119W        W85379  34.534  41.321  10.955
13120W        W85380  38.049  39.045  11.583
13121W        W85381  12.701  15.581   3.262
13122W        W85382  25.041  21.229  13.537
13123W        W85383   9.224  14.243  11.088
13124W        W85384  25.177  13.669  11.565
13125W        W85385  38.826  27.459  11.022
13126W        W85386  42.809  23.990   0.415
13127W        W85387  40.314  24.655  12.845
13128W        W85388   3.721  30.072  13.387
13129W        W85389   1.847  39.512   3.234
13130W        W85390  41.944  44.496  11.460
13131W        W85391  43.476  32.053   0.408
13132W        W85392  40.463  26.039   4.343
13133W        W85393  13.247   0.478  11.463
13134W        W85394  13.125  40.960   0.876
13135W        W85395  29.644   5.852   0.324
13136W        W85396  28.456  39.932  11.424
13137W        W85397  12.346   3.898   1.753
13138W        W85398  31.044  40.959  12.554
13139W        W85399  35.591   3.883   3.817
13140W        W85400   9.316  41.795   4.328
13141W        W85401  10.719  30.964   3.785
13142W        W85402  37.565  44.445   0.301
13143W        W85403  14.107   2.851  13.868
13144W        W85404  39.362  31.032   1.775
13145W        W85405  38.528  36.368   4.294
13146W        W85406  20.752  28.108   2.856
13147W        W85407  41.398  23.607  14.506
13148W        W85408  25.620  43.493  14.275
13149W        W85409  28.152  35.491  10.117
13150W        W85410  40.367  25.073   2.180
13151W        W85411  27.964  39.822   0.749
13152W        W85412  15.814   9.648  12.983
13153W        W85413   0.379  20.644   4.654
13154W        W85414  41.512  19.597  14.819
13155W        W85415  25.133   5.910   2.855
13156W        W85416   5.282  24.076  11.913
13157W        W85417   3.798  30.110  12.992
13158W        W85418  25.517  13.140  10.566
13159W        W85419  10.303  18.192   0.744
13160W        W85420  15.639   8.703  12.358
13161W        W85421  32.510  25.122  14.803
13162W        W85422  33.535  40.001   1.825
13163W        W85423  39.449  28.037  13.412
13164W        W85424  40.451  41.352  13.411
13165W        W85425  16.641  30.128   1.317
13166W        W85426  31.048   7.297  13.918
13167W        W85427  20.704   6.681   0.403
13168W        W85428  25.153  11.234  10.472
13169W        W85429  36.076  33.021   0.926
13170W        W85430   7.767   0.383   1.821
13171W        W85431  42.925  35.436  14.917
13172W        W85432  24.528  16.208   2.853
13173W        W85433  14.096  17.117  14.462
13174W        W85434  35.487  17.168   4.226
13175W        W85435  24.557  15.296   3.754
13176W        W85436  31.088  44.865  12.096
13177W        W85437   8.792  29.073  14.834
13178W        W85438  28.944  37.511  10.526
13179W        W85439  34.878  29.572  11.480
13180W        W85440  18.142  40.988  14.001
13181W        W85441  35.533  12.659   1.812
13182W        W85442  13.159  35.046  13.928
13183W        W85443  33.535  18.564  14.932
13184W        W85444  14.326  42.379   2.194
13185W        W85445  13.841   8.853   1.759
13186W        W85446  23.986  27.124   3.374
13187W        W85447  24.162  30.597   4.626
13188W        W85448  10.283  16.118  10.935
13189W        W85449  31.108   7.713   1.409
13190W        W85450  21.745  29.542  13.334
13191W        W85451   1.889  38.018  12.439
13192W        W85452  33.572  44.002  10.004
13193W        W85453  41.408  33.112   0.768
13194W        W85454  38.519  34.548   4.672
13195W        W85455  43.316  32.399  13.342
13196W        W85456  11.791  39.901   3.320
13197W        W85457  34.555  36.534   4.737
13198W        W85458  21.144  32.010   0.842
13199W        W85459  24.228   1.434   1.701
13200W        W85460  32.437   4.830  12.053
13201W        W85461  37.569   8.808   1.354
13202W        W85462   6.770   8.311  13.314
13203W        W85463  25.013  31.579   2.366
13204W        W85464  27.536   1.481   2.849
13205W        W85465  26.002  39.444   1.440
13206W        W85466  22.096   5.273   1.247
13207W        W85467   7.359  18.064   2.231
13208W        W85468  11.171  16.589   2.301
13209W        W85469  37.403   2.955  12.085
13210W        W85470  21.219  36.991  13.510
13211W        W85471  35.545  18.202  14.298
13212W        W85472  27.594  34.385  10.918
13213W        W85473  34.473  16.651  13.918
13214W        W85474  28.640   7.295   0.909
13215W        W85475   0.847  30.446  12.380
13216W        W85476  37.994  33.609   9.943
13217W        W85477  14.731  21.248   3.350
13218W        W85478  39.810   9.385   0.880
13219W        W85479  37.341   0.267   2.185
13220W        W85480  20.679  30.076   2.193
13221W        W85481  32.007   5.421   0.476
13222W        W85482   7.832  41.372  12.093
13223W        W85483  34.899   5.323   4.299
13224W        W85484  12.265  31.040   2.377
13225W        W85485  22.243  43.840   3.864
13226W        W85486  42.810  26.499  12.564
13227W        W85487  34.413  40.304  12.039
13228W        W85488   5.356  14.175  14.003
13229W        W85489  29.507  13.640   2.228
13230W        W85490  33.959  10.381   0.786
13231W        W85491   7.762  18.662   3.842
13232W        W85492  40.385   5.919  13.495
13233W        W85493   3.929  21.558  12.989
13234W        W85494  31.616  44.369  12.958
13235W        W85495  43.428  34.058   2.877
13236W        W85496  26.015  12.838  14.015
13237W        W85497  13.333  15.619   0.924
13238W        W85498  23.199   4.705  11.936
13239W        W85499   9.812  39.523   3.309
13240W        W85500  15.254  41.515   0.847
13241W        W85501  28.951  17.153  12.881
13242W        W85502  36.399   0.821  11.429
13243W        W85503  16.269   9.202   3.299
13244W        W85504  39.379  41.965  13.902
13245W        W85505   4.758  38.499   4.650
13246W        W85506   5.763  15.819  10.462
13247W        W85507  34.891  16.620  13.879
13248W        W85508  23.546  10.876  10.935
13249W        W85509  23.542  17.265   4.135
13250W        W85510  15.186  30.455   1.297
13251W        W85511  33.557  13.250   0.919
13252W        W85512  11.190  24.573  11.435
13253W        W85513  26.041  24.990  10.633
13254W        W85514  17.229  14.754   2.666
13255W        W85515  15.705  37.498   5.279
13256W        W85516  28.467  21.190  11.432
13257W        W85517  30.566  16.091  14.312
13258W        W85518  27.472  40.048   5.181
13259W        W85519  30.127  27.028   3.251
13260W        W85520  43.481  27.155   1.911
13261W        W85521   2.756  28.606   3.199
13262W        W85522  11.256  19.137  11.447
13263W        W85523  27.466  19.652  11.533
13264W        W85524  23.069  27.155  14.932
13265W        W85525   7.866  39.357  14.514
13266W        W85526  32.593  26.060  13.993
13267W        W85527  42.779  27.002  13.023
13268W        W85528   5.873  11.718   4.786
13269W        W85529  28.652  43.472  14.277
13270W        W85530  24.012  28.180   3.634
13271W        W85531  21.748  30.419   2.281
13272W        W85532  14.588  42.396  10.537
13273W        W85533  28.951  32.128  10.513
13274W        W85534  11.844   3.817  10.954
13275W        W85535  33.980  29.005  12.436
13276W        W85536  22.150  23.137   1.822
13277W        W85537  37.846   9.722  11.858
13278W        W85538   8.756  26.650   4.671
13279W        W85539   3.350  27.567   4.146
13280W        W85540  39.484  28.437  12.505
13281W        W85541  40.338  44.889   2.861
13282W        W85542   5.819  21.611  14.908
13283W        W85543  23.566  11.218   2.892
13284W        W85544  34.920  28.138  12.871
13285W        W85545  39.331  42.924   2.768
13286W        W85546   2.919  37.999   2.222
13287W        W85547  40.917   9.772  14.319
13288W        W85548   4.291   6.830  13.357
13289W        W85549  44.415  12.200   4.226
13290W        W85550  28.005  28.170  12.828
13291W        W85551  33.127  13.725   3.166
13292W        W85552  29.484  33.886  13.038
13293W        W85553   3.872   3.362  11.394
13294W        W85554  11.806  15.289  10.544
13295W        W85555  36.054   0.452  13.361
13296W        W85556  39.412   0.494   4.205
13297W        W85557   6.415  23.673   0.783
13298W        W85558  27.967  32.044   4.325
13299W        W85559  43.307  11.293  12.945
13300W        W85560  18.551  31.049   0.259
13301W        W85561  37.896  30.147   0.406
13302W        W85562  21.550  22.087   3.153
13303W        W85563  25.973  40.446   4.749
13304W        W85564   6.731  44.505  10.622
13305W        W85565  10.736  31.931  12.918
13306W        W85566  39.813  17.699  14.821
13307W        W85567  37.953  21.652   3.701
13308W        W85568  14.819  15.262  13.016
13309W        W85569  32.915  28.091  13.547
13310W        W85570  17.177   7.804  12.393
13311W        W85571  41.010  32.573   2.275
13312W        W85572  29.609   4.736  13.520
13313W        W85573  11.735  42.016  13.845
13314W        W85574   2.394  40.832   3.835
13315W        W85575  19.203   8.331  13.416
13316W        W85576   6.186   0.978   2.746
13317W        W85577  15.631  39.401   2.343
13318W        W85578   1.309  14.208  10.484
13319W        W85579  27.585  37.580  11.125
13320W        W85580  28.094  24.532  11.509
13321W        W85581  33.923   6.690  12.081
13322W        W85582  12.305  43.947   3.159
13323W        W85583  28.563  41.940  13.421
13324W        W85584  41.947   5.282   2.376
13325W        W85585  19.763  26.091   2.323
13326W        W85586  13.335  33.571   1.930
13327W        W85587   2.833  26.649  11.865
13328W        W85588   0.336  34.522   4.347
13329W        W85589  32.427  26.514  14.930
13330W        W85590  41.391   0.251  12.532
13331W        W85591  24.210  18.201  13.496
13332W        W85592  28.642  40.900  12.018
13333W        W85593  35.408  23.156  11.088
13334W        W85594  28.145  10.263  11.877
13335W        W85595   5.214  10.669   3.667
13336W        W85596  26.665  33.887  14.337
13337W        W85597   3.805  34.561  11.881
13338W        W85598  29.996   2.748   0.297
13339W        W85599  14.737  12.683   0.255
13340W        W85600  32.973  18.259   3.345
13341W        W85601  19.610   3.744   1.780
13342W        W85602  12.635   3.374  12.983
13343W        W85603   4.728  15.090   4.707
13344W        W85604  11.368  12.671  13.398
13345W        W85605  25.165  44.433  13.370
13346W        W85606  19.071  36.532  11.034
13347W        W85607  42.803  26.005  10.991
13348W        W85608  22.093  38.960  13.996
13349W        W85609  16.198   3.903   1.742
13350W        W85610  27.553   9.251  10.635
13351W        W85611  12.327   4.705   4.162
13352W        W85612  40.412  15.238   1.437
13353W        W85613   9.391  44.504   0.286
13354W        W85614  24.623   6.692   3.310
13355W        W85615  19.079  41.485  11.482
13356W        W85616  32.993   9.853   3.656
13357W        W85617  11.789  16.714   1.358
13358W        W85618  36.991   0.357   4.242
13359W        W85619  31.039   2.253   1.265
13360W        W85620  30.597  44.909   2.199
13361W        W85621  24.044   3.892   4.786
13362W        W85622  43.892  42.379   0.281
13363W        W85623  43.476  27.457  14.903
13364W        W85624  16.232  17.701  12.434
13365W        W85625   4.250  40.326  14.408
13366W        W85626  41.941  19.542  13.519
13367W        W85627  31.616  42.999   5.085
13368W        W85628  20.609  43.434   3.830
13369W        W85629  29.083  38.024  10.492
13370W        W85630   1.801  30.069   3.206
13371W        W85631  38.454   5.875  11.935
13372W        W85632  43.451   0.755   3.157
13373W        W85633  27.536  42.328   2.843
13374W        W85634  15.703  36.447   3.727
13375W        W85635   7.675   9.677   0.802
13376W        W85636  30.573  17.189  11.420
13377W        W85637  24.654  23.050   0.964
13378W        W85638   5.388   7.888   0.410
13379W        W85639  32.896  28.605  12.915
13380W        W85640  20.536  30.022   1.281
13381W        W85641  28.047  26.458  10.588
13382W        W85642  23.208  40.049  11.903
13383W        W85643   0.278  40.029  13.356
13384W        W85644  29.945  25.024   0.319
13385W        W85645  15.737  41.310   0.400
13386W        W85646  15.631   3.820  12.939
13387W        W85647  37.342  28.656   4.799
13388W        W85648   1.355  25.183  12.489
13389W        W85649   4.912  41.979   1.851
13390W        W85650  17.711  28.479   3.861
13391W        W85651  38.568  19.688   1.760
13392W        W85652  17.682   8.877  14.025
13393W        W85653  33.120  32.036  11.934
13394W        W85654  40.451  32.422   4.214
13395W        W85655  17.135   7.358  14.445
13396W        W85656  11.239  18.245  12.506
13397W        W85657   0.431  24.597  13.326
13398W        W85658  31.122  38.012   2.331
13399W        W85659  21.574  21.556  11.112
13400W        W85660   7.864  34.533  10.556
13401W        W85661  37.339  25.026   2.189
13402W        W85662  10.382   8.901   4.663
13403W        W85663  14.309  42.373   4.742
13404W        W85664  36.976   4.837   2.812
13405W        W85665  14.778  35.515  10.908
13406W        W85666  22.248  38.061  11.387
13407W        W85667  16.207  19.251   1.877
13408W        W85668  27.623   8.802   3.266
13409W        W85669  16.149  34.117   4.335
13410W        W85670  17.191  31.908  14.428
13411W        W85671   4.884  37.396   4.313
13412W        W85672  13.293  17.264  14.372
13413W        W85673  35.446   7.343   0.357
13414W        W85674  32.998  12.781  13.517
13415W        W85675  15.264  28.562   4.838
13416W        W85676  41.950   2.886  13.059
13417W        W85677  24.127  42.364   0.330
13418W        W85678  20.252  30.535  10.992
13419W        W85679  34.562  31.036  12.376
13420W        W85680  25.534  16.185  11.413
13421W        W85681  12.678  26.541  13.848
13422W        W85682  35.085  22.125   4.298
13423W        W85683  37.930  21.527  12.461
13424W        W85684   8.290  38.946  14.904
13425W        W85685   4.877  41.423  10.141
13426W        W85686  44.878  31.944   3.756
13427W        W85687   4.846  26.565  12.463
13428W        W85688  37.338  39.039  13.391
13429W        W85689   8.760  35.500  10.426
13430W        W85690  20.237  16.234  10.942
13431W        W85691  25.190  18.155  14.355
13432W        W85692  22.633  18.677   1.401
13433W        W85693  25.092  38.412  13.513
13434W        W85694  44.774  17.168  10.026
13435W        W85695  10.308  41.342   3.750
13436W        W85696  40.528  27.175   1.247
13437W        W85697  27.948  17.212   2.893
13438W        W85698  41.832  22.517   0.901
13439W        W85699  40.036  35.906  14.766
13440W        W85700  39.960  28.938   0.346
13441W        W85701   7.755   4.314  10.607
13442W        W85702   2.251  13.674   0.836
13443W        W85703   2.953   8.280   0.863
13444W        W85704  17.252   1.907  11.120
13445W        W85705   0.381   7.222  10.614
13446W        W85706   7.698   9.335   4.805
13447W        W85707  43.279  39.863  13.535
13448W        W85708  31.975   8.180  12.434
13449W        W85709   0.310  14.109   3.760
13450W        W85710  40.018  27.125   2.830
13451W        W85711  34.875  38.942  10.411
13452W        W85712   5.755   8.735   4.662
13453W        W85713  43.380  41.378   3.810
13454W        W85714  11.295  30.537   1.797
13455W        W85715  26.511  24.198  13.901
13456W        W85716  28.613   9.388  12.041
13457W        W85717  17.097   4.823  10.029
13458W        W85718  21.604  29.461  12.414
13459W        W85719  17.193  38.369   0.792
13460W        W85720  29.153  23.053   1.415
13461W        W85721  31.543  20.273  14.907
13462W        W85722  25.193  16.251  13.426
13463W        W85723  21.138  29.633  14.365
13464W        W85724  31.572   1.321   3.345
13465W        W85725  12.150   2.801  14.401
13466W        W85726  19.747  25.003  10.495
13467W        W85727  24.200  16.813  12.446
13468W        W85728  15.664   1.873   2.722
13469W        W85729  36.906   1.297  12.378
13470W        W85730  40.879   1.359   1.284
13471W        W85731  26.545  39.430   2.251
13472W        W85732   3.295  24.597  12.891
13473W        W85733  11.140  20.078  13.486
13474W        W85734  14.666  11.155   1.334
13475W        W85735  19.151  19.687  13.923
13476W        W85736  13.696  17.751   1.694
13477W        W85737  24.164  43.813  14.977
13478W        W85738   8.168   4.308  11.455
13479W        W85739  19.093   1.427   1.810
13480W        W85740  27.091  35.852  12.453
13481W        W85741   7.717  20.159  11.900
13482W        W85742  20.157  23.087  13.939
13483W        W85743  12.640  18.109   1.807
13484W        W85744  24.688   0.911  13.949
13485W        W85745  14.288  16.107  12.501
13486W        W85746   7.387   0.433   0.912
13487W        W85747  28.472  38.380  14.864
13488W        W85748  41.325  23.182  12.999
13489W        W85749  29.007  14.647   2.336
13490W        W85750  14.695   9.703   0.259
13491W        W85751  19.187  34.371  13.925
13492W        W85752  34.583  32.447  12.558
13493W        W85753  26.670   2.441  14.990
13494W        W85754  35.428  28.640  12.031
13495W        W85755  35.101   9.841  10.423
13496W        W85756   5.207  34.445  10.938
13497W        W85757  16.694  12.701  12.980
13498W        W85758   8.245  23.989   1.292
13499W        W85759  42.296  32.436   0.448
13500W        W85760  16.085  36.421  14.435
13501W        W85761   9.710  37.395  10.508
13502W        W85762  38.476  29.480  13.058
13503W        W85763  26.534  40.852   4.310
13504W        W85764  17.628  22.544   3.262
13505W        W85765  18.195  12.808   3.359
13506W        W85766  22.685  30.524   5.249
13507W        W85767  12.661  30.949  14.437
13508W        W85768  14.137   7.845  10.550
13509W        W85769  19.203  35.072  10.941
13510W        W85770  34.063  41.036  12.435
13511W        W85771  37.493  29.137  11.972
13512W        W85772  44.487  14.321   1.856
13513W        W85773  17.209  26.505  10.071
13514W        W85774  22.637  37.501  14.025
13515W        W85775   2.784  17.299   2.668
13516W        W85776  37.435  27.565   3.348
13517W        W85777   1.325  27.141  14.805
13518W        W85778  18.289   1.261  11.008
13519W        W85779   3.809  42.017   2.672
13520W        W85780   6.247  41.294  13.365
13521W        W85781  13.662  42.452  14.924
13522W        W85782  43.986  24.680   1.376
13523W        W85783   3.405  22.231  10.068
13524W        W85784  23.673  35.505   2.743
13525W        W85785  39.930  37.340   0.726
13526W        W85786  38.467  11.813   1.247
13527W        W85787   4.206  24.698  10.912
13528W        W85788  19.771  38.427   2.851
13529W        W85789  13.314  25.687  13.798
13530W        W85790  42.798  12.125  10.939
13531W        W85791  10.229  33.093  11.455
13532W        W85792  17.725  26.690  10.444
13533W        W85793  29.634  10.362  10.496
13534W        W85794  43.335   5.772   0.802
13535W        W85795  27.629  40.501   9.664
13536W        W85796   3.367  38.376   1.433
13537W        W85797   6.226  42.913   3.729
13538W        W85798  11.702  25.079   2.264
13539W        W85799  13.192  34.587   4.198
13540W        W85800  31.545  16.200   1.840
13541W        W85801   7.704  22.092  10.580
13542W        W85802  42.997  28.538  13.890
13543W        W85803  25.613  14.688   4.177
13544W        W85804   9.829  13.671  14.451
13545W        W85805  13.175  31.137   1.740
13546W        W85806  31.112   7.222   4.298
13547W        W85807  15.669  42.807  12.932
13548W        W85808  38.017  19.690   2.835
13549W        W85809  11.129  44.757   2.834
13550W        W85810   6.208  14.160   0.928
13551W        W85811  38.865  42.447   4.150
13552W        W85812  41.803   1.800  13.044
13553W        W85813  14.784   6.263  13.880
13554W        W85814  20.613   9.152   3.295
13555W        W85815  16.266   7.195   4.201
13556W        W85816  29.921   0.846   3.739
13557W        W85817  41.042  19.217  13.957
13558W        W85818  11.841   9.181   4.208
13559W        W85819  23.166  18.190   5.208
13560W        W85820  12.330  11.707   2.698
13561W        W85821  44.286  26.521   1.272
13562W        W85822  22.629  19.124   2.753
13563W        W85823  15.690  31.407   1.863
13564W        W85824  18.561   8.400   3.697
13565W        W85825  39.891  44.437  13.459
13566W        W85826   4.879  16.693  13.428
13567W        W85827   6.867  41.337   3.246
13568W        W85828  15.196  12.217  14.927
13569W        W85829  44.799  17.638   3.704
13570W        W85830  20.271  33.893   0.868
13571W        W85831  37.375   8.820   2.797
13572W        W85832  38.333  40.043   2.897
13573W        W85833   8.757  15.823   9.987
13574W        W85834  17.728  22.512  13.330
13575W        W85835  26.128   9.325   3.655
13576W        W85836  38.045   4.780  11.434
13577W        W85837   2.733  22.681   0.749
13578W        W85838  33.563  44.803  11.426
13579W        W85839  14.307  40.880  11.520
13580W        W85840  16.094  19.233   3.267
13581W        W85841  38.917  28.674   4.147
13582W        W85842  34.900  40.417   0.946
13583W        W85843   5.888  30.073  12.543
13584W        W85844  17.750  18.178   4.198
13585W        W85845  31.641  18.096   4.327
13586W        W85846  38.404  17.271  12.949
13587W        W85847  38.880  41.897  10.913
13588W        W85848  13.677  27.940   0.349
13589W        W85849  44.873  19.535  12.030
13590W        W85850  28.096   0.342   4.314
13591W        W85851   9.804  23.228   1.300
13592W        W85852  34.412   0.302   0.323
13593W        W85853  29.009   2.390  10.444
13594W        W85854  17.739  26.005   2.352
13595W        W85855  31.589  17.269  14.795
13596W        W85856   9.197  26.539   2.739
13597W        W85857  34.600  29.925   4.261
13598W        W85858  21.218   8.220   2.182
13599W        W85859  26.958  32.061   2.698
13600W        W85860  40.008  22.739   2.788
13601W        W85861  39.826  25.618  10.488
13602W        W85862  42.812  35.923   1.247
13603W        W85863  30.477   5.790   2.739
13604W        W85864  34.609   9.837   0.863
13605W        W85865  17.678  43.776   2.714
13606W        W85866  16.700  29.459  12.013
13607W        W85867  13.191   2.437  11.042
13608W        W85868   6.404   3.434  13.321
13609W        W85869  22.016   1.290   4.282
13610W        W85870  35.505  18.593   5.158
13611W        W85871  38.037  14.334  12.426
13612W        W85872  20.265   9.808   1.762
13613W        W85873  17.135  11.818  10.453
13614W        W85874  12.639  16.153   5.124
13615W        W85875  29.008  17.133   2.780
13616W        W85876  16.177   8.270   3.818
13617W        W85877  37.893  37.570  14.932
13618W        W85878  44.297  13.839   0.298
13619W        W85879   9.229  29.113   0.475
13620W        W85880  30.129   8.326   3.314
13621W        W85881   1.460  27.151   3.643
13622W        W85882  43.402  18.581  12.943
13623W        W85883  14.119  16.282   3.663
13624W        W85884  14.753  34.461  12.948
13625W        W85885  10.286  44.792  14.917
13626W        W85886  15.629  19.690   3.224
13627W        W85887   3.369  10.362   5.122
13628W        W85888  12.329  41.337   2.411
13629W        W85889  33.083   1.977  10.948
13630W        W85890  23.075   5.346   4.196
13631W        W85891  12.339  25.563  12.370
13632W        W85892  23.010  30.954   4.196
13633W        W85893  11.805  24.046   3.165
13634W        W85894  40.456  19.168   0.960
13635W        W85895  29.488  41.328   4.689
13636W        W85896   1.972  10.726   4.804
13637W        W85897  27.591  43.438  12.982
13638W        W85898   2.729  27.495   1.231
13639W        W85899  24.499  36.574   3.721
13640W        W85900  21.047  29.940  13.315
13641W        W85901   4.392  42.356  10.989
13642W        W85902  19.168  17.093  13.489
13643W        W85903  16.615  33.876  12.859
13644W        W85904   0.853  22.577  10.070
13645W        W85905  43.020  27.530  14.849
13646W        W85906  34.605  36.892   2.785
13647W        W85907  35.103  22.174  12.377
13648W        W85908  27.094  15.326  13.382
13649W        W85909  17.258  19.539  13.332
13650W        W85910  42.389  16.172   0.771
13651W        W85911  38.827   4.919   4.717
13652W        W85912  30.028  29.932   9.452
13653W        W85913   2.845  13.638  12.423
13654W        W85914   3.353  22.176   0.728
13655W        W85915  30.091  28.038  11.966
13656W        W85916  36.030  40.837   2.733
13657W        W85917   2.909  20.596  10.404
13658W        W85918   1.321  30.126   3.312
13659W        W85919   0.357  15.678  11.524
13660W        W85920  13.687  40.908   3.796
13661W        W85921   2.944  15.749  11.981
13662W        W85922  10.280   6.693   4.737
13663W        W85923   5.811  30.456   0.808
13664W        W85924  44.443  12.285   2.215
13665W        W85925  31.502  15.234  11.055
13666W        W85926   5.791  18.737   0.742
13667W        W85927  33.063  12.680  12.072
13668W        W85928  35.872   7.294   1.792
13669W        W85929  13.632  38.056  12.575
13670W        W85930  10.667  18.670  11.003
13671W        W85931  28.013   9.290  11.403
13672W        W85932   4.836   3.324   3.782
13673W        W85933  38.388  26.622   1.800
13674W        W85934  18.277   9.379   2.343
13675W        W85935  31.645  29.631  11.888
13676W        W85936  25.157  42.988  12.580
13677W        W85937  37.029  33.884   2.861
13678W        W85938  21.674  27.088   3.350
13679W        W85939  18.723  29.531  12.457
13680W        W85940   4.320  15.088  13.942
13681W        W85941  20.677  42.828  14.509
13682W        W85942   5.794  15.788  14.910
13683W        W85943   6.801  35.567  14.826
13684W        W85944  19.106  37.860  14.994
13685W        W85945  43.377  44.891  14.463
13686W        W85946  35.919  41.827  12.402
13687W        W85947  19.654  41.026   0.881
13688W        W85948  18.652  33.604   3.785
13689W        W85949  19.658  40.917  11.973
13690W        W85950  13.335  41.462   0.803
13691W        W85951  16.275  27.993   9.955
13692W        W85952  28.066  39.974   4.191
13693W        W85953   4.747   5.926   2.267
13694W        W85954  38.393  14.679   3.692
13695W        W85955   7.900  25.491   3.728
13696W        W85956  34.548  32.576   3.679
13697W        W85957  30.421  43.365  11.392
13698W        W85958   3.752  35.431  10.896
13699W        W85959   1.393   1.863  12.859
13700W        W85960   3.279  25.575   3.299
13701W        W85961   2.400  10.640   2.314
13702W        W85962  32.612  18.662   2.285
13703W        W85963  43.773  41.973   3.828
13704W        W85964  20.110  23.551   9.922
13705W        W85965   9.362  12.296   3.208
13706W        W85966  16.124  31.544   4.216
13707W        W85967   5.853  39.350  13.847
13708W        W85968  42.523  25.153  13.005
13709W        W85969   8.715  17.109   1.297
13710W        W85970  40.352  35.110   2.766
13711W        W85971  19.683  25.471   2.282
13712W        W85972  23.629  33.899  12.951
13713W        W85973   7.830  44.342   5.303
13714W        W85974  42.514  36.544   3.655
13715W        W85975  35.889  22.016  10.517
13716W        W85976  13.126  19.666   1.883
13717W        W85977  43.793   7.699  11.094
13718W        W85978  42.397  10.802   1.288
13719W        W85979  30.578  32.618  14.948
13720W        W85980  11.197   6.294   1.932
13721W        W85981  18.589  39.453  11.866
13722W        W85982  14.279  44.888   3.647
13723W        W85983  37.915  26.137  11.459
13724W        W85984  24.984   0.888   0.442
13725W        W85985  38.486  22.006   4.802
13726W        W85986  42.392   8.296  12.383
13727W        W85987  44.954  15.584   5.128
13728W        W85988  36.084  37.546   0.413
13729W        W85989  43.765  28.032   1.227
13730W        W85990  14.291  41.852   4.758
13731W        W85991   3.429  43.951   2.225
13732W        W85992  28.043  28.018   2.246
13733W        W85993  30.644  34.866  14.772
13734W        W85994   4.267   1.877   1.237
13735W        W85995   7.821   6.799   1.867
13736W        W85996  28.965  21.580   4.304
13737W        W85997  11.342   0.385  11.925
13738W        W85998  36.424  28.114   0.446
13739W        W85999   9.306  33.019  14.838
13740W        W86000  42.430   1.250   1.781
13741W        W86001  40.350  31.600  12.905
13742W        W86002  16.084   3.761  14.880
13743W        W86003  36.973  32.095  11.530
13744W        W86004  15.647  24.576   2.261
13745W        W86005  32.891  13.303  11.055
13746W        W86006   0.321   3.341   0.793
13747W        W86007  39.497  14.680  11.118
13748W        W86008  26.681   8.405   0.325
13749W        W86009  16.742  35.909  13.807
13750W        W86010  17.654  17.644  14.914
13751W        W86011  20.614   5.303   1.320
13752W        W86012  33.389  35.094   1.699
13753W        W86013  21.580  32.501  13.449
13754W        W86014   3.316  36.456   4.311
13755W        W86015  27.107  11.347   3.720
13756W        W86016  14.162  42.900  14.515
13757W        W86017  38.413  18.553   2.731
13758W        W86018   5.386  22.516  12.028
13759W        W86019  37.936  14.833   4.755
13760W        W86020  14.244   3.386   2.789
13761W        W86021  23.195  21.556   2.684
13762W        W86022   2.374  14.758  14.903
13763W        W86023   4.403  17.281   3.798
13764W        W86024  28.572   7.847  12.385
13765W        W86025  14.104  22.644  12.579
13766W        W86026  18.164  21.676   0.268
13767W        W86027  44.884  34.493  13.937
13768W        W86028   3.858  18.273  14.957
13769W        W86029  24.982  26.465   3.337
13770W        W86030  29.077  20.213   3.673
13771W        W86031  34.048  39.894   2.838
13772W        W86032  18.214  37.005  11.457
13773W        W86033   9.775   9.327   4.631
13774W        W86034  15.754  43.504   2.203
13775W        W86035  30.943  15.646  11.506
13776W        W86036  25.093  42.389   4.256
13777W        W86037  39.414  42.397  12.571
13778W        W86038  44.994  24.037   3.368
13779W        W86039   4.360  39.487  11.428
13780W        W86040  39.437  23.669  13.462
13781W        W86041   6.244  25.583   5.593
13782W        W86042  10.233   7.671   3.255
13783W        W86043  11.827  21.574   2.770
13784W        W86044  21.169  41.863   0.269
13785W        W86045  14.311   7.273  11.454
13786W        W86046  15.236  43.508   2.681
13787W        W86047  21.531  31.564   1.731
13788W        W86048  36.963  27.151  13.378
13789W        W86049  40.856  41.368   4.731
13790W        W86050  32.947   0.807   2.890
13791W        W86051  23.125  23.136  11.875
13792W        W86052   8.380  21.052  14.323
13793W        W86053  43.370  32.113  13.409
13794W        W86054  29.982  17.750  12.386
13795W        W86055  36.495  39.842   1.734
13796W        W86056  19.648  19.708   1.729
13797W        W86057  38.395  41.043  11.076
13798W        W86058   2.293  25.007   3.819
13799W        W86059  36.475  30.159   2.888
13800W        W86060  38.072  24.006   2.677
13801W        W86061  39.973  31.533   4.792
13802W        W86062  32.886  16.123  11.423
13803W        W86063  20.175  39.862   2.290
13804W        W86064  15.668  23.206   1.283
13805W        W86065  43.391   5.924  12.937
13806W        W86066  21.054   2.862  14.953
13807W        W86067   2.764   8.173  11.858
13808W        W86068  20.118   7.754  11.005
13809W        W86069   5.829  37.987  12.987
13810W        W86070  28.065  21.713   1.831
13811W        W86071  38.897  17.605   4.767
13812W        W86072  43.931  32.519  13.010
13813W        W86073   2.385  32.008  10.973
13814W        W86074  14.294  31.586   3.816
13815W        W86075  44.874  33.478   3.806
13816W        W86076  19.601  43.460   0.305
13817W        W86077  15.320  34.495  13.040
13818W        W86078   0.341  23.239  12.997
13819W        W86079  44.828  18.230  12.961
13820W        W86080  16.081  34.005  12.412
13821W        W86081   6.828  34.973   3.638
13822W        W86082  10.368   0.847  13.330
13823W        W86083  42.853  15.259  11.005
13824W        W86084  32.491  30.126  11.041
13825W        W86085  14.607   1.978   1.865
13826W        W86086  44.951  28.167   2.292
13827W        W86087  25.199   1.934  12.927
13828W        W86088  24.230  16.794   3.704
13829W        W86089   1.419  34.384  14.804
13830W        W86090  39.056  19.744  11.541
13831W        W86091  22.568   9.235  12.043
13832W        W86092  24.047  23.723  11.547
13833W        W86093  16.221   2.802   1.432
13834W        W86094  30.028   7.262   0.801
13835W        W86095  24.211   4.916   3.738
13836W        W86096  41.043  24.172  10.450
13837W        W86097  13.688  23.715   4.263
13838W        W86098   6.390  26.482   2.759
13839W        W86099   8.255  14.637  14.322
13840W        W86100  23.665  10.261  12.377
13841W        W86101   7.307  33.531   4.629
13842W        W86102  12.756  20.172  11.051
13843W        W86103  16.732  34.016  11.971
13844W        W86104  10.851  13.129   1.830
13845W        W86105  38.524  11.731  10.616
13846W        W86106  10.254  41.812  12.995
13847W        W86107   6.283  25.112  14.467
13848W        W86108  31.073  29.554  11.475
13849W        W86109  21.644  10.299  10.018
13850W        W86110  40.907  14.319  13.936
13851W        W86111   9.230  14.310  13.441
13852W        W86112  24.090  13.608   1.803
13853W        W86113  43.983  12.334   4.786
13854W        W86114  28.563  36.951  12.946
13855W        W86115  42.281  23.062  13.478
13856W        W86116  44.894  29.158  10.935
13857W        W86117  33.013  42.805  12.345
13858W        W86118  10.311   9.305   4.804
13859W        W86119  41.839  23.078   0.443
13860W        W86120   0.289  30.992   4.224
13861W        W86121  32.973  21.700  11.082
13862W        W86122  12.290  14.747   1.295
13863W        W86123  26.067  33.442  14.019
13864W        W86124  42.306  10.170  13.481
13865W        W86125  36.098  40.450  12.931
13866W        W86126  21.597  32.450   1.890
13867W        W86127  24.155  25.558  10.638
13868W        W86128   2.398   0.952   4.340
13869W        W86129  28.483   2.762  13.370
13870W        W86130  39.464  25.046   0.298
13871W        W86131   6.879  29.665  14.388
13872W        W86132  19.551  44.390   1.393
13873W        W86133  21.596  17.613   4.285
13874W        W86134  40.385  27.998  14.511
13875W        W86135   6.401  29.108  11.505
13876W        W86136  10.199  35.593  14.384
13877W        W86137  19.098  28.039  14.435
13878W        W86138  36.899  36.562   0.740
13879W        W86139  29.955   0.455  14.475
13880W        W86140   9.686  16.770  14.409
13881W        W86141   7.253  24.002  13.424
13882W        W86142  11.285  10.795   2.672
13883W        W86143  34.905   6.397   4.674
13884W        W86144  32.974  25.099  13.791
13885W        W86145  27.969  28.679   3.168
13886W        W86146  29.565  28.608  14.841
13887W        W86147   5.243  18.128  13.425
13888W        W86148  15.673   7.798  12.973
13889W        W86149   0.778   4.433   0.370
13890W        W86150  10.325  33.050   2.346
13891W        W86151  40.422   9.387   4.329
13892W        W86152  39.381  24.642   1.884
13893W        W86153  16.277  17.178   0.459
13894W        W86154  44.426  30.561   4.821
13895W        W86155   2.379  35.935   5.319
13896W        W86156  42.807  22.018  13.007
13897W        W86157  20.630  21.733  14.884
13898W        W86158  44.453  34.563  12.017
13899W        W86159   3.401  28.625   2.722
13900W        W86160  29.130  31.632   0.267
13901W        W86161   6.794  11.217  11.883
13902W        W86162   8.791  20.760   2.365
13903W        W86163  15.218  30.538  12.418
13904W        W86164  39.909  27.042  14.815
13905W        W86165  30.999  26.570  12.826
13906W        W86166  42.956  14.769  13.452
13907W        W86167  15.088  13.192  11.939
13908W        W86168  17.106   2.797  12.571
13909W        W86169   1.255  18.760  11.953
13910W        W86170  13.701  40.507   2.334
13911W        W86171  11.714  21.023  13.337
13912W        W86172  16.632  17.743   2.776
13913W        W86173  36.466  36.927   1.757
13914W        W86174   4.265  16.742   3.835
13915W        W86175  14.157  31.586   4.336
13916W        W86176  30.989  12.329  12.028
13917W        W86177   8.772  41.880   1.699
13918W        W86178  33.417  12.787   3.146
13919W        W86179   6.205  10.209   1.803
13920W        W86180  11.204   0.890   2.309
13921W        W86181   2.332  12.661   4.271
13922W        W86182  25.982  18.671   0.802
13923W        W86183  24.214  13.720  10.931
13924W        W86184  10.320  19.096   2.390
13925W        W86185  10.142  42.351   4.298
13926W        W86186  35.439  39.535  13.507
13927W        W86187  38.552  23.038   2.788
13928W        W86188  24.690  28.015   2.832
13929W        W86189  33.502  31.534  11.897
13930W        W86190  14.671  40.801  14.853
13931W        W86191  10.323  12.225  14.870
13932W        W86192   4.394  16.118   1.252
13933W        W86193  16.143  13.762   0.804
13934W        W86194  41.299   6.754  13.407
13935W        W86195  11.229  42.485   0.882
13936W        W86196  17.659  35.105  11.454
13937W        W86197  28.591   5.363   0.736
13938W        W86198  13.243   6.327  13.313
13939W        W86199  43.471  39.375  14.408
13940W        W86200  42.018  34.008   0.440
13941W        W86201  32.444  19.051  14.505
13942W        W86202  30.015  11.285   1.918
13943W        W86203  42.781  23.527  14.912
13944W        W86204   8.876  20.742   1.760
13945W        W86205  11.752   1.791  10.566
13946W        W86206  23.164   6.398  14.785
13947W        W86207  37.921  40.369  14.961
13948W        W86208  34.956  16.226   3.153
13949W        W86209  12.612  24.027   4.766
13950W        W86210  13.784  15.237   3.294
13951W        W86211   4.213  30.057   0.440
13952W        W86212  37.896  11.724   4.695
13953W        W86213  42.889  18.681   3.272
13954W        W86214   2.407  22.187   0.946
13955W        W86215   0.282  28.680   2.810
13956W        W86216   6.870  29.063  11.582
13957W        W86217   0.833   4.827   3.273
13958W        W86218  20.230  33.562  10.640
13959W        W86219  14.336  27.962   3.746
13960W        W86220  19.773  19.134   1.272
13961W        W86221  41.855  44.433  12.427
13962W        W86222  41.999  12.655   1.868
13963W        W86223  33.965  40.959   4.321
13964W        W86224  26.651  21.563  12.839
13965W        W86225  25.517   8.673  11.401
13966W        W86226  16.685   8.366  11.940
13967W        W86227  31.438   7.710  12.433
13968W        W86228  38.053  40.360   2.248
13969W        W86229   5.711  16.269  13.455
13970W        W86230   7.800  36.015   1.759
13971W        W86231  21.211  33.450  14.505
13972W        W86232  29.165   6.763  14.759
13973W        W86233   4.404  29.000  12.901
13974W        W86234  32.027  24.012  10.960
13975W        W86235  12.812  33.890  13.019
13976W        W86236   2.742  29.919   1.724
13977W        W86237   1.376  31.568  13.385
13978W        W86238  26.564  20.688   0.463
13979W        W86239  39.852  11.282  13.978
13980W        W86240  31.083  36.929  12.988
13981W        W86241   3.402  21.236  11.124
13982W        W86242  20.653  20.057   2.887
13983W        W86243   5.277  41.293   4.752
13984W        W86244   9.858   4.225   4.654
13985W        W86245  12.729  18.221  10.608
13986W        W86246  26.140  16.617   2.675
13987W        W86247  43.799  38.006  10.594
13988W        W86248   1.946  42.794  11.108
13989W        W86249  10.202  16.288  13.417
13990W        W86250  24.203  35.866   3.706
13991W        W86251  10.255   3.780  11.384
13992W        W86252  15.322  22.591  14.921
13993W        W86253  36.950  11.356   2.335
13994W        W86254  36.373  29.548   3.631
13995W        W86255   7.282  35.086   1.317
13996W        W86256  17.173   9.835  12.367
13997W        W86257  42.871  36.039  14.965
13998W        W86258   8.258  11.325   3.865
13999W        W86259  27.056   7.870  11.875
14000W        W86260  29.093  36.999  10.551
14001W        W86261  16.252  14.721  12.512
14002W        W86262  27.647  40.868  13.932
14003W        W86263   8.176  22.152  13.822
14004W        W86264   6.263  33.546  14.351
14005W        W86265  32.476   9.705  12.482
14006W        W86266  12.778  27.451  13.432
14007W        W86267  28.548  31.007   3.148
14008W        W86268  33.621   0.460  11.604
14009W        W86269  37.481   0.939  10.928
14010W        W86270  27.126  15.281   2.302
14011W        W86271  31.530   9.673  14.778
14012W        W86272   7.280  24.125   4.129
14013W        W86273  27.595  35.467   2.866
14014W        W86274  28.019  12.360   2.704
14015W        W86275  39.885  15.725  14.800
14016W        W86276  10.860  20.073   0.427
14017W        W86277  41.320  23.986  11.074
14018W        W86278   7.337  26.683  11.486
14019W        W86279  38.076   6.333  11.513
14020W        W86280  10.151  20.733   4.659
14021W        W86281  40.804  43.812  14.451
14022W        W86282  15.215  40.526   4.625
14023W        W86283  41.948  37.890   0.473
14024W        W86284  18.572  10.340   5.215
14025W        W86285  40.465   1.782   0.820
14026W        W86286  13.812   3.936  14.495
14027W        W86287   6.914  17.638  14.851
14028W        W86288  17.238  39.869   2.733
14029W        W86289  26.078  13.178   4.809
14030W        W86290  22.566  28.647   1.348
14031W        W86291  21.715  19.693  13.936
14032W        W86292  21.034  14.699   0.298
14033W        W86293   1.930  32.406   2.682
14034W        W86294  22.217   9.750  11.108
14035W        W86295   5.855  10.379   0.869
14036W        W86296  43.366   1.750   2.178
14037W        W86297  25.591   2.471   2.739
14038W        W86298  26.625   9.805  13.006
14039W        W86299  27.569  13.295  14.374
14040W        W86300  27.551  24.666   4.135
14041W        W86301  12.689  11.255  11.079
14042W        W86302   4.261  13.747  14.856
14043W        W86303  10.172  10.717   3.749
14044W        W86304  43.471   0.754   3.662
14045W        W86305  36.530   2.461   0.279
14046W        W86306  40.339  39.392   2.288
14047W        W86307  18.720  31.006  13.472
14048W        W86308  28.105  30.139   4.824
14049W        W86309  44.929  37.003  14.788
14050W        W86310   2.890  36.523   1.915
14051W        W86311   1.880   7.174  11.922
14052W        W86312  25.973  13.829  12.991
14053W        W86313  40.430  27.014   2.312
14054W        W86314  10.298   3.881   4.176
14055W        W86315  37.381  19.097  10.541
14056W        W86316  40.957   2.334   3.377
14057W        W86317  39.868  36.886  12.513
14058W        W86318   2.410   5.755  11.975
14059W        W86319   2.896   8.169   4.194
14060W        W86320   2.952  39.494   4.355
14061W        W86321  13.814  26.177  11.460
14062W        W86322  39.844  15.685  13.372
14063W        W86323  34.386  38.421   0.847
14064W        W86324  44.333  18.624  10.951
14065W        W86325  42.938   4.210   3.763
14066W        W86326  24.724   5.288  14.769
14067W        W86327  15.195  13.227  14.486
14068W        W86328  38.520  36.988   0.781
14069W        W86329  24.624  26.614  13.535
14070W        W86330  25.600  26.603   2.849
14071W        W86331  41.449  43.779  11.050
14072W        W86332   7.670   3.856  12.523
14073W        W86333  38.484  30.979   1.280
14074W        W86334  25.155  44.835   2.702
14075W        W86335  31.426  28.016   0.844
14076W        W86336  20.726  23.022  11.560
14077W        W86337  42.003  25.087   0.910
14078W        W86338  29.995  37.027  13.436
14079W        W86339  38.508  17.214  11.107
14080W        W86340  16.105  30.644   4.318
14081W        W86341  27.045  22.504  13.928
14082W        W86342  38.474   8.809  10.935
14083W        W86343  29.573  34.980   4.779
14084W        W86344   9.211   5.886   3.181
14085W        W86345  12.810  12.629   2.416
14086W        W86346   2.966   5.737   0.739
14087W        W86347  13.328   0.928   4.134
14088W        W86348   6.348  39.436   4.776
14089W        W86349   0.857  33.400  10.960
14090W        W86350  38.398  12.679  14.890
14091W        W86351  34.084  15.207  13.812
14092W        W86352  41.456  34.602   0.837
14093W        W86353  34.390  21.551  12.917
14094W        W86354  15.296  17.681  13.388
14095W        W86355  43.022  39.407  14.294
14096W        W86356  15.782  36.410   4.128
14097W        W86357   4.405   0.294  10.420
14098W        W86358  31.504  16.663  14.283
14099W        W86359  19.763  22.172   4.679
14100W        W86360  20.067  44.789   1.239
14101W        W86361  10.797  12.749  13.895
14102W        W86362   9.889  24.636  13.962
14103W        W86363  22.253  34.374   4.267
14104W        W86364  33.534  39.878   2.359
14105W        W86365   1.333  23.671  11.479
14106W        W86366  20.652  44.478  12.434
14107W        W86367   9.263   3.899  14.326
14108W        W86368   1.332   9.359   2.264
14109W        W86369   8.258  16.591  11.973
14110W        W86370   8.766  36.489   5.207
14111W        W86371   6.802   2.420   2.664
14112W        W86372  26.697  29.093  10.475
14113W        W86373  37.502  44.938  10.498
14114W        W86374  25.699  19.683   2.871
14115W        W86375  37.065  39.368  14.346
14116W        W86376  15.146  23.074   0.846
14117W        W86377  21.685  32.513   1.230
14118W        W86378  13.726  23.215  13.875
14119W        W86379  32.418   9.165  11.474
14120W        W86380   7.396  28.030   1.839
14121W        W86381  11.233  38.571  11.988
14122W        W86382  37.385  43.976  14.972
14123W        W86383  14.251   8.771  14.839
14124W        W86384  21.522   0.920   2.766
14125W        W86385  44.410   1.442  13.413
14126W        W86386  22.724  34.506  14.825
14127W        W86387  32.046   7.347   3.786
14128W        W86388  23.537  17.286  13.816
14129W        W86389  15.577  11.868  12.440
14130W        W86390   0.312  25.199   1.917
14131W        W86391  38.388  26.086  14.981
14132W        W86392   5.195  32.579  14.843
14133W        W86393  34.460  31.092  13.883
14134W        W86394  29.667  29.118  10.449
14135W        W86395  14.280  19.761  12.579
14136W        W86396  39.365  22.187   4.144
14137W        W86397  32.523  37.932   2.243
14138W        W86398   4.348  27.086   5.594
14139W        W86399  25.050  13.264  12.378
14140W        W86400  37.557  42.416   2.765
14141W        W86401  21.108  20.227  14.428
14142W        W86402  43.480  31.964   4.208
14143W        W86403  26.982  23.142  14.493
14144W        W86404   1.911  19.135  11.958
14145W        W86405  17.746  34.101   2.211
14146W        W86406   9.881  40.463  12.480
14147W        W86407  41.962   4.753  11.455
14148W        W86408  27.480  23.234  13.503
14149W        W86409  21.243   6.270  14.872
14150W        W86410  15.239  42.975  14.995
14151W        W86411  19.161  18.229   0.887
14152W        W86412  25.477   8.382  10.448
14153W        W86413   7.364  25.587  13.541
14154W        W86414  18.094  14.288   3.659
14155W        W86415  14.158  33.568  13.447
14156W        W86416  24.595  21.651  12.445
14157W        W86417  38.877  34.442  12.355
14158W        W86418  32.124   4.252   1.915
14159W        W86419  25.036  35.380   0.378
14160W        W86420  41.006  31.431  11.913
14161W        W86421  24.046  18.171  11.436
14162W        W86422   6.203   8.299  10.451
14163W        W86423  26.056  42.435  11.527
14164W        W86424  29.545  35.570   0.391
14165W        W86425  18.666  32.017  13.523
14166W        W86426  11.223   3.312   1.355
14167W        W86427  41.881  11.847  11.880
14168W        W86428  29.476  11.163   0.252
14169W        W86429   3.796  20.653  11.607
14170W        W86430  39.960  42.507  11.405
14171W        W86431   5.726  27.978   3.159
14172W        W86432  22.093   0.285   1.387
14173W        W86433  18.057   8.369   2.847
14174W        W86434  31.114  34.608   4.168
14175W        W86435  22.233   3.415  14.384
14176W        W86436  34.901  37.567   3.152
14177W        W86437  13.810  34.012   0.949
14178W        W86438  16.135   5.886  11.973
14179W        W86439  11.297  26.555   0.426
14180W        W86440  42.504   4.388  13.538
14181W        W86441  22.222  28.442  10.041
14182W        W86442  30.082  22.571   3.286
14183W        W86443  26.521  30.010   1.881
14184W        W86444   5.853  28.599  11.895
14185W        W86445  20.255   8.285  14.014
14186W        W86446  42.957  38.570  14.895
14187W        W86447  30.979  22.112   2.707
14188W        W86448  44.344  22.714   4.317
14189W        W86449  12.132   3.748  10.604
14190W        W86450  25.006   6.745   2.730
14191W        W86451  24.203  18.106  12.468
14192W        W86452  38.423  15.091  12.432
14193W        W86453  38.403  26.579   4.260
14194W        W86454  21.535   7.749   1.751
14195W        W86455  23.521   4.336   0.878
14196W        W86456  31.402  20.725   3.249
14197W        W86457  38.393  42.459   3.340
14198W        W86458  34.894  16.588  12.013
14199W        W86459  30.622   1.952  14.288
14200W        W86460  37.452  41.356  11.416
14201W        W86461  11.761  30.604  13.467
14202W        W86462  40.971  33.006  14.348
14203W        W86463  33.613   0.462   3.710
14204W        W86464  36.562  20.662   2.766
14205W        W86465  33.993  25.582   0.283
14206W        W86466  30.440  35.073   2.341
14207W        W86467  33.062  23.054   4.732
14208W        W86468   4.289  36.858  13.791
14209W        W86469  32.540   6.883  14.476
14210W        W86470  15.085  28.075   2.747
14211W        W86471  13.134  28.166  13.473
14212W        W86472  30.420   3.758  14.879
14213W        W86473  30.478  11.192  13.475
14214W        W86474  32.011  38.844  10.409
14215W        W86475  29.560   2.400   3.660
14216W        W86476   2.400  24.001  10.462
14217W        W86477  19.221   5.276   3.860
14218W        W86478   5.293  23.045   3.798
14219W        W86479  34.076   6.772  10.627
14220W        W86480  11.755   3.937  13.347
14221W        W86481  17.249  25.108   0.944
14222W        W86482  29.577  26.472  14.858
14223W        W86483   4.252  29.542   1.339
14224W        W86484  14.783  17.715  13.511
14225W        W86485  37.891   4.258  11.413
14226W        W86486   7.721   0.252   0.818
14227W        W86487   5.816  28.941  11.611
14228W        W86488  23.533   9.235  10.461
14229W        W86489   9.358  43.776   1.814
14230W        W86490   4.832  24.184  11.890
14231W        W86491  26.511  34.974   2.803
14232W        W86492  34.033  22.517   3.268
14233W        W86493  37.926  18.693  12.476
14234W        W86494  17.262  22.076   2.243
14235W        W86495  40.329  15.131   3.256
14236W        W86496  44.000  35.867   0.914
14237W        W86497   3.833  39.887  13.051
14238W        W86498  43.310  41.814   1.861
14239W        W86499  35.029  22.104   3.356
14240W        W86500   6.315  22.148  14.310
14241W        W86501  18.771  41.385  13.446
14242W        W86502   3.919  12.766   2.851
14243W        W86503   5.832  30.440   3.270
14244W        W86504  21.055  14.689   3.240
14245W        W86505  15.747  27.636   2.285
14246W        W86506  28.034  22.211  11.114
14247W        W86507  10.293  27.960   4.299
14248W        W86508   9.254  32.437  13.797
14249W        W86509  10.873   4.934  12.862
14250W        W86510  17.795  32.039  11.909
14251W        W86511   6.265  34.101  14.362
14252W        W86512   7.721  20.155   3.348
14253W        W86513  43.332  33.952   0.922
14254W        W86514  42.947  24.010  13.003
14255W        W86515  27.487  36.041   4.634
14256W        W86516  31.488  27.069   2.729
14257W        W86517  32.887  19.760   1.426
14258W        W86518  18.791  44.868   3.146
14259W        W86519  22.553   8.334   4.756
14260W        W86520  17.095  36.933  14.478
14261W        W86521  40.343  21.705  14.850
14262W        W86522  17.157  40.352  11.048
14263W        W86523  36.411  22.659  12.488
14264W        W86524   1.802   1.752   2.779
14265W        W86525  44.476  37.370   2.781
14266W        W86526   5.403  21.528   4.276
14267W        W86527  15.631  37.490  14.968
14268W        W86528  30.621  42.023  14.450
14269W        W86529   5.764  14.279   2.769
14270W        W86530  10.841  35.938  10.463
14271W        W86531  43.819   1.935  13.456
14272W        W86532   1.886   3.296  14.776
14273W        W86533   8.670  44.348   0.841
14274W        W86534  42.982  19.713   2.243
14275W        W86535  43.511  37.857  11.005
14276W        W86536   9.735  18.677  13.798
14277W        W86537  25.208  34.903  11.554
14278W        W86538  33.577  17.711   0.387
14279W        W86539  43.441  14.174  13.876
14280W        W86540  33.057  10.641  13.887
14281W        W86541  13.790  25.489   4.828
14282W        W86542  29.120  17.260  12.445
14283W        W86543  10.667  28.473  10.636
14284W        W86544   0.874  42.987   0.810
14285W        W86545  42.818  13.726  12.515
14286W        W86546  32.455  42.031   3.255
14287W        W86547  29.645  23.003   0.785
14288W        W86548  25.630   5.691   4.781
14289W        W86549  11.144  11.348  14.919
14290W        W86550  22.167  43.305   1.439
14291W        W86551  24.030  26.462  12.083
14292W        W86552  43.993   4.284  13.529
14293W        W86553  34.501  25.966  13.534
14294W        W86554  42.924  43.822  13.814
14295W        W86555  34.478  40.423   4.771
14296W        W86556   9.644  39.496   3.703
14297W        W86557  40.320  30.923   2.217
14298W        W86558  21.143  38.344   0.441
14299W        W86559  32.499  36.520   1.859
14300W        W86560  28.987  43.377  12.479
14301W        W86561   1.242  33.014  10.570
14302W        W86562  28.130  18.771  11.422
14303W        W86563  32.500  35.899  12.524
14304W        W86564   2.772   7.259  11.572
14305W        W86565  25.578  36.898   4.674
14306W        W86566  22.603  44.900   2.235
14307W        W86567  27.126  24.712   3.304
14308W        W86568  19.593   8.850  12.007
14309W        W86569  10.843   7.286   1.719
14310W        W86570  39.849   3.782   0.730
14311W        W86571  13.673   3.729   1.288
14312W        W86572  43.377  37.460   3.769
14313W        W86573  34.476   4.247   3.855
14314W        W86574  32.941  15.116   3.815
14315W        W86575  39.864  15.682  12.525
14316W        W86576  17.090  22.508   3.721
14317W        W86577  16.240   6.883   1.239
14318W        W86578  36.494  13.804  12.492
14319W        W86579  13.296  16.687   0.734
14320W        W86580  29.655  32.591  12.891
14321W        W86581  44.916  34.531   4.179
14322W        W86582  15.246  20.249  14.381
14323W        W86583   9.712  11.693  11.587
14324W        W86584  38.026  41.872   1.815
14325W        W86585  15.328  23.139  10.984
14326W        W86586  41.341  43.446   3.326
14327W        W86587  17.753  42.991   1.235
14328W        W86588  39.410   0.862  14.947
14329W        W86589  14.215  17.297   1.286
14330W        W86590   2.834  23.106   0.816
14331W        W86591   9.384  13.225   3.741
14332W        W86592  44.404   0.380  14.416
14333W        W86593  26.529  42.516  14.316
14334W        W86594   5.426  17.681   4.195
14335W        W86595  37.868  29.470   4.610
14336W        W86596  33.516   4.252   4.261
14337W        W86597  33.401  43.408  13.475
14338W        W86598  39.876  36.453   4.318
14339W        W86599  31.899  19.724   1.905
14340W        W86600  40.882  29.997  13.813
14341W        W86601  30.518  29.593  14.276
14342W        W86602  17.595  20.692  13.523
14343W        W86603   5.256   0.266   0.827
14344W        W86604   3.763  43.368  14.007
14345W        W86605  23.102  28.542  13.030
14346W        W86606  28.487  10.358  10.910
14347W        W86607   4.447  23.642   0.905
14348W        W86608  17.167  34.887   4.203
14349W        W86609  41.896   0.299  14.916
14350W        W86610  40.979  28.027   1.365
14351W        W86611  39.912   3.253  14.929
14352W        W86612  28.515   0.343  14.347
14353W        W86613  15.263  28.643   1.909
14354W        W86614  15.284  28.039   4.351
14355W        W86615  34.924  24.991   2.722
14356W        W86616  14.335  34.864   4.344
14357W        W86617   2.859   8.736   0.296
14358W        W86618  25.511  41.996  12.508
14359W        W86619  20.626  33.584   1.372
14360W        W86620  29.519  20.133   4.649
14361W        W86621  11.750   1.893   1.296
14362W        W86622  16.647  13.250   2.810
14363W        W86623  33.972   1.312   1.741
14364W        W86624  27.499  13.617   1.385
14365W        W86625  24.177  33.466   0.337
14366W        W86626  42.827  29.644  12.882
14367W        W86627  11.739  43.798  14.836
14368W        W86628   3.947   5.230  12.457
14369W        W86629  11.235  18.198  11.524
14370W        W86630   3.750   2.894   0.465
14371W        W86631  12.280  15.611  11.532
14372W        W86632  41.318  22.074   4.720
14373W        W86633  10.707  32.128  14.385
14374W        W86634  19.168   0.742   4.280
14375W        W86635  30.446   4.810   5.294
14376W        W86636   7.262   8.733   3.327
14377W        W86637  35.888   0.367   1.332
14378W        W86638  16.792  14.173   1.818
14379W        W86639  32.014  20.669  14.305
14380W        W86640  27.498  16.629  12.893
14381W        W86641  41.351   0.388   0.848
14382W        W86642  19.769  43.315   2.768
14383W        W86643  21.202  36.018  14.032
14384W        W86644   1.844  27.060   1.713
14385W        W86645   6.334  20.182   3.728
14386W        W86646   9.321  26.661  12.574
14387W        W86647  12.178  28.511  10.540
14388W        W86648   4.848  24.663  11.550
14389W        W86649  39.959   0.961   1.335
14390W        W86650  29.663  29.607  12.433
14391W        W86651   3.358  22.032   3.189
14392W        W86652   0.903  17.154  13.513
14393W        W86653  10.149   8.746   2.188
14394W        W86654  13.824  14.669  12.570
14395W        W86655  22.672  31.027  12.956
14396W        W86656   0.857  11.867  14.875
14397W        W86657  25.539  41.946   2.751
14398W        W86658  22.024  26.510   9.958
14399W        W86659  16.719  30.462  11.893
14400W        W86660  27.652  40.863   5.142
14401W        W86661  16.725  30.004  13.848
14402W        W86662   9.321  22.193  11.067
14403W        W86663   5.282  43.462  12.857
14404W        W86664  25.962  31.407   2.360
14405W        W86665  26.557  12.119  12.381
14406W        W86666  30.990   0.881   0.278
14407W        W86667  40.977  39.532   3.727
14408W        W86668   0.333  14.632   4.636
14409W        W86669  35.011  40.515   0.273
14410W        W86670  38.821  32.937  13.814
14411W        W86671  44.958  21.035   9.985
14412W        W86672  18.274  26.630   2.292
14413W        W86673  43.882  27.606   4.676
14414W        W86674  38.571  28.022   4.239
14415W        W86675  40.399  28.681   0.941
14416W        W86676  29.476   6.346   1.445
14417W        W86677  38.452  18.729  11.933
14418W        W86678  37.845  32.516   2.852
14419W        W86679  37.934   1.907  13.808
14420W        W86680  42.818  32.123  11.102
14421W        W86681  13.223  37.892   2.208
14422W        W86682   3.279  26.535  12.882
14423W        W86683  38.468   7.872   0.957
14424W        W86684   7.289  15.641  10.529
14425W        W86685  15.258  16.640   5.660
14426W        W86686   6.688  37.362  10.567
14427W        W86687  12.128  13.148  13.492
14428W        W86688   6.356  22.660   0.775
14429W        W86689  44.798  32.901   2.666
14430W        W86690  35.084   3.863  13.403
14431W        W86691   7.312   6.400   1.441
14432W        W86692  18.671  24.158  14.783
14433W        W86693  31.639   6.284  13.457
14434W        W86694  31.982  21.228  11.502
14435W        W86695  14.281  31.441  14.927
14436W        W86696  20.050  35.435   3.247
14437W        W86697  17.290  24.111   3.360
14438W        W86698  40.454  22.594  13.362
14439W        W86699  44.327  17.615   2.414
14440W        W86700  23.636  19.285  11.052
14441W        W86701  30.133  18.546  10.930
14442W        W86702  18.270  23.662   3.829
14443W        W86703  41.485  21.534   1.433
14444W        W86704  18.548   6.755  14.429
14445W        W86705   4.213  42.925   0.900
14446W        W86706   5.863  33.082  11.458
14447W        W86707  29.507  37.032  13.969
14448W        W86708  14.099   0.322   4.601
14449W        W86709  11.716   9.668   2.304
14450W        W86710  41.512  15.718  12.917
14451W        W86711  39.478  29.927   0.348
14452W        W86712  14.673  29.613   9.556
14453W        W86713  16.216  11.730   1.318
14454W        W86714  27.085  26.110  13.873
14455W        W86715   3.854  28.611   4.630
14456W        W86716  11.760  40.441  13.842
14457W        W86717  25.569   0.365  10.494
14458W        W86718  36.980  17.621  14.918
14459W        W86719  38.879  39.942  12.496
14460W        W86720   3.714  28.963  10.009
14461W        W86721  18.106  24.502  11.958
14462W        W86722  39.397  30.526   3.266
14463W        W86723  27.014  23.138   2.232
14464W        W86724  14.132   7.238  10.571
14465W        W86725  29.636  17.588  12.536
14466W        W86726  14.598  38.391  11.889
14467W        W86727  35.923  17.066   3.679
14468W        W86728  30.649  16.172   0.424
14469W        W86729   3.888  15.622   1.411
14470W        W86730  31.115  40.955  13.912
14471W        W86731  11.342  32.448   1.926
14472W        W86732  34.116  34.960  14.810
14473W        W86733   2.448   7.328  13.859
14474W        W86734  43.403  39.002   0.301
14475W        W86735  36.040  33.896   1.436
14476W        W86736  41.789   9.223   3.149
14477W        W86737  32.130  33.963   3.237
14478W        W86738  30.649  30.500   9.973
14479W        W86739  11.254  42.938  13.011
14480W        W86740  38.429  19.667  12.888
14481W        W86741  11.694  33.989  12.885
14482W        W86742  20.261  41.876   0.404
14483W        W86743  43.904  19.724  12.042
14484W        W86744  27.661  43.974   4.661
14485W        W86745   6.345  25.170  11.012
14486W        W86746  36.849  23.079   2.247
14487W        W86747   6.313  27.074  11.046
14488W        W86748  11.798  36.878   3.743
14489W        W86749  26.587   3.359   0.463
14490W        W86750  25.165  35.368   2.183
14491W        W86751  17.172  41.842  14.961
14492W        W86752  32.634  14.769  13.424
14493W        W86753  15.310   2.782   3.764
14494W        W86754  21.061  15.297  13.978
14495W        W86755  28.012  17.240  12.489
14496W        W86756  39.913  24.567  13.452
14497W        W86757  21.072  21.540   9.569
14498W        W86758   0.875  15.294  14.986
14499W        W86759  39.473  11.740  11.588
14500W        W86760  41.371  10.643  10.611
14501W        W86761  35.868  34.525  12.443
14502W        W86762  37.386  10.357   0.317
14503W        W86763  43.938   1.799   0.252
14504W        W86764  26.956  42.350   1.381
14505W        W86765  37.013  28.462   2.700
14506W        W86766  21.567  32.504  12.510
14507W        W86767  43.303  10.783   3.646
14508W        W86768  32.573  43.847   3.746
14509W        W86769  36.853  20.614   5.681
14510W        W86770   1.911  25.130   3.357
14511W        W86771  23.567  16.271   4.193
14512W        W86772  44.945  10.864  12.921
14513W        W86773  11.145  34.477  14.304
14514W        W86774  41.038  36.056  14.914
14515W        W86775  39.341  44.313  10.074
14516W        W86776  39.317  42.865   4.805
14517W        W86777  41.531   8.286   4.788
14518W        W86778   0.819  26.131   2.178
14519W        W86779  25.525  33.058  14.880
14520W        W86780  13.138   2.297  10.445
14521W        W86781  21.556  35.902  10.517
14522W        W86782  20.032  30.492  10.539
14523W        W86783  31.445  34.503  11.593
14524W        W86784  34.105  36.473  12.443
14525W        W86785  27.099   6.416  12.380
14526W        W86786  34.496  23.595  12.400
14527W        W86787  37.051  19.048  14.407
14528W        W86788  35.095  41.014  11.559
14529W        W86789  14.199  20.164   3.804
14530W        W86790  29.466  26.461   0.790
14531W        W86791  28.628  36.000  12.553
14532W        W86792  44.479  13.135   3.195
14533W        W86793  37.467  31.053  14.769
14534W        W86794  24.619   6.183   0.460
14535W        W86795   7.777  36.011  12.978
14536W        W86796   5.335  37.987   2.335
14537W        W86797  30.532  14.835   2.663
14538W        W86798  36.871  10.185  10.964
14539W        W86799   0.389  35.431   4.828
14540W        W86800  14.614  13.166  14.833
14541W        W86801   5.204  34.478  12.489
14542W        W86802  32.072   7.218  11.044
14543W        W86803  28.654  32.093  11.597
14544W        W86804  41.837  41.398  14.896
14545W        W86805  19.154   1.441  14.430
14546W        W86806  42.345   1.764   0.340
14547W        W86807  22.726   3.885   2.846
14548W        W86808   5.773  11.133   0.889
14549W        W86809  33.946  30.513   0.373
14550W        W86810  40.814   8.770  12.008
14551W        W86811   1.964   8.686   2.231
14552W        W86812  24.490  37.888   3.164
14553W        W86813  13.625  20.717   4.240
14554W        W86814  25.015   8.781   3.712
14555W        W86815  23.160  21.631  11.372
14556W        W86816   3.861   8.194   2.414
14557W        W86817  44.757  37.068   1.391
14558W        W86818  10.835  36.366   1.906
14559W        W86819   3.348  11.720  11.538
14560W        W86820   7.404   0.398   1.354
14561W        W86821  36.918   3.851  10.412
14562W        W86822  43.501  37.921  13.372
14563W        W86823   2.394   1.850   5.197
14564W        W86824  42.861  39.523  11.056
14565W        W86825  32.926  16.219   1.350
14566W        W86826  26.486  44.468   2.209
14567W        W86827  37.058  18.553   0.312
14568W        W86828  43.924  44.416   0.318
14569W        W86829   3.862  33.514  14.306
14570W        W86830   7.802  19.078   4.173
14571W        W86831  39.430  32.531   3.262
14572W        W86832  43.365  14.627  11.093
14573W        W86833  32.936   4.302   3.802
14574W        W86834   3.854  17.710  11.065
14575W        W86835  15.296  26.178  12.419
14576W        W86836  38.008  31.532   0.323
14577W        W86837  19.710  27.121  11.094
14578W        W86838   2.332   7.401   5.310
14579W        W86839   9.751   0.911  12.052
14580W        W86840  13.802  37.516   4.627
14581W        W86841  35.879  25.640   2.757
14582W        W86842  30.970   6.708  12.988
14583W        W86843  15.647  42.472   0.904
14584W        W86844  16.077   0.961   4.688
14585W        W86845   9.819  20.112   2.233
14586W        W86846   8.166  10.847   0.283
14587W        W86847  19.229   8.734   4.702
14588W        W86848  34.422  14.244  12.382
14589W        W86849   0.982  39.397   2.727
14590W        W86850  32.927  22.696  11.903
14591W        W86851  31.083  23.178   2.771
14592W        W86852  32.919   0.748   4.619
14593W        W86853  22.240  29.050   4.826
14594W        W86854   3.397  19.732  11.918
14595W        W86855   6.382  23.498  10.143
14596W        W86856  23.081  17.283   0.947
14597W        W86857  18.082  32.029   0.863
14598W        W86858  22.165  18.575   4.790
14599W        W86859   4.254  31.978   4.132
14600W        W86860   2.248   4.345   4.640
14601W        W86861  26.683  16.096   3.269
14602W        W86862  38.938  20.093   2.672
14603W        W86863  29.575  25.691  13.344
14604W        W86864  32.106   1.247   1.449
14605W        W86865  43.872  11.182  14.828
14606W        W86866   3.882   1.364  14.928
14607W        W86867  32.001  16.105  10.917
14608W        W86868   9.889   9.734  14.503
14609W        W86869  11.282   7.411   1.230
14610W        W86870  26.534  17.672  14.892
14611W        W86871   6.327   8.869   0.743
14612W        W86872   2.842  11.244  12.851
14613W        W86873  11.657   5.715   4.119
14614W        W86874   3.926  43.811   0.242
14615W        W86875  31.085  32.118   2.772
14616W        W86876   6.411  18.270  10.609
14617W        W86877   6.685  43.003   2.342
14618W        W86878  17.700  32.396   2.896
14619W        W86879  22.210  37.364   3.319
14620W        W86880  12.829  36.516  12.970
14621W        W86881   7.886   2.960   2.757
14622W        W86882  23.042   9.822   2.685
14623W        W86883   8.213  11.831  13.519
14624W        W86884  17.790  43.335  14.924
14625W        W86885  43.290  20.110  13.831
14626W        W86886  34.920  22.031  14.948
14627W        W86887  14.823  20.209  12.952
14628W        W86888  16.284  27.455   4.249
14629W        W86889   1.468   1.845   0.813
14630W        W86890   8.728  19.665   1.447
14631W        W86891   6.335  11.173  14.793
14632W        W86892  22.175  27.041   4.191
14633W        W86893  34.416  10.831   2.379
14634W        W86894  20.622  23.718   2.340
14635W        W86895  31.456  21.164  13.438
14636W        W86896  22.234  37.339   3.812
14637W        W86897  40.798  26.974   1.440
14638W        W86898  25.595  38.478   2.301
14639W        W86899  41.036   3.761   1.242
14640W        W86900  30.658  24.031   3.835
14641W        W86901  16.691   9.876   1.228
14642W        W86902  38.067  40.854   3.357
14643W        W86903   5.720  26.165  14.013
14644W        W86904  33.007  42.350   2.681
14645W        W86905  20.614  44.943   3.680
14646W        W86906  19.171  31.900   2.838
14647W        W86907   7.911   8.220   0.475
14648W        W86908  27.003  32.444   0.874
14649W        W86909  27.501  29.654  13.910
14650W        W86910   2.765   1.391  10.927
14651W        W86911  11.184  29.020   2.238
14652W        W86912   4.436  39.923   3.237
14653W        W86913  24.030  31.048   0.915
14654W        W86914   5.241   3.845  10.457
14655W        W86915   4.325  27.676   0.377
14656W        W86916   5.364  23.077   2.268
14657W        W86917  26.649  22.080  10.942
14658W        W86918   2.864   0.777   4.144
14659W        W86919  16.245  30.084  12.573
14660W        W86920   5.211  32.912  14.374
14661W        W86921  20.051  25.609  10.422
14662W        W86922  24.479  43.851  13.459
14663W        W86923  38.862  32.597   4.783
14664W        W86924  33.599  32.601   3.280
14665W        W86925  32.931  41.852   2.864
14666W        W86926  11.175  30.065   4.642
14667W        W86927   7.777   3.766   2.310
14668W        W86928   5.703   9.667  14.820
14669W        W86929   4.421  12.358   4.608
14670W        W86930  29.545  10.215   0.449
14671W        W86931  39.886  36.873  10.496
14672W        W86932  19.109  13.111   3.780
14673W        W86933  36.429  26.646  14.830
14674W        W86934  17.163   0.354   2.397
14675W        W86935  22.705  29.435  10.483
14676W        W86936  40.903  41.025   0.264
14677W        W86937  19.255   8.322   4.618
14678W        W86938   2.382  43.904  11.580
14679W        W86939  26.050   9.839   3.193
14680W        W86940  32.092  29.471   3.333
14681W        W86941  17.098   5.748   2.783
14682W        W86942  16.179  26.079   2.805
14683W        W86943  18.702  32.608   4.611
14684W        W86944  35.555  11.261   4.613
14685W        W86945  34.433   7.720   2.878
14686W        W86946   9.704  42.331   4.296
14687W        W86947  15.155  21.743   1.891
14688W        W86948  15.635  33.427  14.486
14689W        W86949  36.450  40.870  14.858
14690W        W86950   1.841  13.773  12.547
14691W        W86951  42.858  24.719   1.451
14692W        W86952  31.497  12.839  11.020
14693W        W86953  39.534  12.698  10.475
14694W        W86954  27.128   3.939  11.583
14695W        W86955  39.316   8.712   4.232
14696W        W86956  16.784   6.812  13.841
14697W        W86957  41.995  30.538  14.515
14698W        W86958  18.110  26.485  12.528
14699W        W86959  25.076  21.058   4.616
14700W        W86960   4.754  31.143   4.726
14701W        W86961  30.476   3.719  13.888
14702W        W86962   6.298  18.260   4.686
14703W        W86963  40.953   2.737   0.762
14704W        W86964  33.446   7.331   5.290
14705W        W86965   5.700  28.998   0.371
14706W        W86966  34.866  22.115   1.341
14707W        W86967  36.876  12.776   2.319
14708W        W86968  43.317  44.292  14.399
14709W        W86969   7.401   7.312  14.943
14710W        W86970  32.057   3.332  12.985
14711W        W86971  40.941  32.962   2.894
14712W        W86972  36.384  41.516  11.973
14713W        W86973   8.730   6.406  13.925
14714W        W86974  22.090  29.663   1.709
14715W        W86975   3.850  44.420  14.456
14716W        W86976  43.800  23.630   4.281
14717W        W86977  11.287  15.240  13.509
14718W        W86978  27.683   3.905   2.191
14719W        W86979  16.214  24.608   3.732
14720W        W86980  34.530  24.562   2.341
14721W        W86981  44.312  23.181   2.900
14722W        W86982  32.448  10.375   4.191
14723W        W86983  15.764  16.696   0.365
14724W        W86984  16.278   1.851  12.580
14725W        W86985  40.310  15.787   0.309
14726W        W86986  33.405  13.772   4.241
14727W        W86987  15.645  12.820   2.240
14728W        W86988  32.914  29.011  13.317
14729W        W86989  26.633  41.854  12.862
14730W        W86990  38.519  12.713   1.225
14731W        W86991  13.241   6.905   1.832
14732W        W86992  38.948  15.803  10.473
14733W        W86993  16.078  44.817  12.864
14734W        W86994  14.214  39.815   2.720
14735W        W86995  31.550  17.622  14.289
14736W        W86996  26.505  42.375  14.004
14737W        W86997  30.141   6.348   0.965
14738W        W86998  21.019  39.342  13.436
14739W        W86999   2.320   0.253   4.177
14740W        W87000  44.860  16.082  13.030
14741W        W87001   1.798  21.657   1.331
14742W        W87002  20.769  39.466  14.293
14743W        W87003   0.249  23.151   3.278
14744W        W87004  23.987  29.635  11.949
14745W        W87005  34.371  34.598   1.823
14746W        W87006  13.637  19.139  14.986
14747W        W87007   5.761  19.619   0.290
14748W        W87008  10.839  18.622  14.873
14749W        W87009  11.191  41.484   2.854
14750W        W87010  15.147  31.125  12.953
14751W        W87011  25.625  22.052  11.458
14752W        W87012   6.776  15.117  12.074
14753W        W87013  10.361   5.699   3.748
14754W        W87014  11.292  23.103   0.390
14755W        W87015   3.341  15.313   1.243
14756W        W87016  41.853   8.394  14.988
14757W        W87017  28.057  32.055  11.501
14758W        W87018   5.857  44.421   3.795
14759W        W87019   0.491  31.529   1.871
14760W        W87020  24.994  18.581   3.230
14761W        W87021  22.508  41.858  10.505
14762W        W87022  34.980  19.249   0.318
14763W        W87023  35.951   3.803   0.869
14764W        W87024  13.157   2.805   4.690
14765W        W87025  24.484  19.044   2.405
14766W        W87026   1.396  36.936   0.377
14767W        W87027  20.640  28.148   1.431
14768W        W87028  24.991  11.185   4.233
14769W        W87029  31.087  32.091   3.698
14770W        W87030  11.200  34.927  10.591
14771W        W87031  10.813   6.199   0.770
14772W        W87032  17.269  30.012  11.485
14773W        W87033   9.164  31.559   4.832
14774W        W87034   4.893  44.859   4.127
14775W        W87035  44.319  14.793  11.562
14776W        W87036  31.004  38.392  14.467
14777W        W87037   3.932  13.231  11.985
14778W        W87038  16.778  35.943   3.801
14779W        W87039  15.801  11.685  10.599
14780W        W87040   3.259  31.409  13.856
14781W        W87041  42.454  39.996   0.275
14782W        W87042  40.023  11.139  12.408
14783W        W87043  25.619   9.838  10.921
14784W        W87044   3.863  18.131  11.934
14785W        W87045   7.267  18.557  12.933
14786W        W87046  37.472  29.928   4.734
14787W        W87047  40.970  22.538  13.409
14788W        W87048  31.449   8.711  14.334
14789W        W87049  25.121   6.899   3.729
14790W        W87050  41.974  35.022   1.912
14791W        W87051  15.819  15.210   0.839
14792W        W87052  11.863   6.782   0.815
14793W        W87053   5.242  20.272  12.054
14794W        W87054  27.662  15.625   2.281
14795W        W87055  20.188  43.891   3.851
14796W        W87056  27.686  36.931   0.473
14797W        W87057  12.143  15.084   0.421
14798W        W87058   8.658  18.296   3.675
14799W        W87059  42.516  33.448   1.332
14800W        W87060  24.557  26.624   2.332
14801W        W87061  29.424   9.736   1.860
14802W        W87062  17.256   9.876  11.424
14803W        W87063   8.171  12.221   1.218
14804W        W87064  14.118   5.762   4.329
14805W        W87065  32.633   6.732   4.273
14806W        W87066  33.957  37.551   3.731
14807W        W87067  18.742  28.956   3.278
14808W        W87068   3.772  23.541  14.423
14809W        W87069  19.059  10.193   3.317
14810W        W87070  32.959   6.288   2.736
14811W        W87071  12.789  16.649   4.246
14812W        W87072  33.080   4.220  14.918
14813W        W87073  27.974  31.643  13.410
14814W        W87074  37.941  16.687   4.341
14815W        W87075  18.104  38.861   4.173
14816W        W87076  31.583  13.795   0.410
14817W        W87077  42.421  24.095  10.489
14818W        W87078  37.848  24.042   0.859
14819W        W87079  19.144   5.799   5.669
14820W        W87080   3.389   6.705  13.340
14821W        W87081  32.919  21.728  14.872
14822W        W87082  36.577   2.809  11.555
14823W        W87083  36.527  29.610   4.287
14824W        W87084  28.576  15.116   4.125
14825W        W87085  41.507  42.441  10.557
14826W        W87086  26.519   9.347   2.714
14827W        W87087  35.571  10.218   0.739
14828W        W87088  16.146   9.314   2.337
14829W        W87089  29.088  32.904   0.810
14830W        W87090  35.035   1.394   4.774
14831W        W87091  23.605   9.871  13.910
14832W        W87092  20.732  30.132  14.031
14833W        W87093  12.704  43.790   1.341
14834W        W87094  22.206  16.149   1.432
14835W        W87095  25.694  24.108  10.138
14836W        W87096  25.614  17.077  13.347
14837W        W87097   1.802  34.029  10.623
14838W        W87098  28.995  16.750   3.205
14839W        W87099  37.972   9.255  14.946
14840W        W87100  34.409  42.305  13.395
14841W        W87101  16.772   7.317   0.848
14842W        W87102  35.892  38.826  10.000
14843W        W87103  10.785  21.620  12.536
14844W        W87104   8.671  27.958  12.941
14845W        W87105  36.388  41.006   1.325
14846W        W87106  34.890  22.663   0.402
14847W        W87107   2.449  43.765   0.911
14848W        W87108  16.700  33.934  12.553
14849W        W87109  26.544  15.101   1.433
14850W        W87110   8.169  11.851   4.283
14851W        W87111  30.067  28.636  12.566
14852W        W87112  19.695  30.479   1.436
14853W        W87113  20.046  13.255  13.505
14854W        W87114  35.428  35.504   2.680
14855W        W87115  38.546  10.193  10.445
14856W        W87116   0.265  34.960  14.876
14857W        W87117  42.458  33.444  12.452
14858W        W87118  17.262  21.556  11.001
14859W        W87119  35.561  25.640  13.793
14860W        W87120  20.254  15.616  12.512
14861W        W87121  38.874  10.819  11.411
14862W        W87122  44.502  22.218  12.414
14863W        W87123   9.196  34.412  14.765
14864W        W87124  15.696  19.722  10.116
14865W        W87125  17.303   1.859   2.794
14866W        W87126  22.667  10.331  13.454
14867W        W87127  30.065  10.304   2.759
14868W        W87128  24.668   7.666   2.861
14869W        W87129  38.430  42.824  14.371
14870W        W87130  14.818  41.322  14.277
14871W        W87131  36.968  30.020   0.344
14872W        W87132  19.256  10.260  14.347
14873W        W87133   4.890  14.263   1.335
14874W        W87134  43.925  30.070  11.090
14875W        W87135  12.622  42.787  11.068
14876W        W87136   4.394  30.966   2.787
14877W        W87137  17.737  23.585  11.398
14878W        W87138  30.084  29.655  14.306
14879W        W87139  22.667   1.963   9.981
14880W        W87140   1.391  25.203   5.159
14881W        W87141  13.254  32.419   0.756
14882W        W87142  14.296  23.603   2.790
14883W        W87143  33.535  21.569   3.659
14884W        W87144  12.154  14.297  12.503
14885W        W87145  15.585   7.366  10.123
14886W        W87146  12.339  41.044  12.546
14887W        W87147   5.798  21.124  11.545
14888W        W87148  33.030  12.142   1.301
14889W        W87149  12.140  40.016  14.835
14890W        W87150  36.429  12.242  11.401
14891W        W87151  25.519  17.651   4.649
14892W        W87152  40.419  32.423   4.620
14893W        W87153  14.743  16.776  13.794
14894W        W87154  39.366  30.518   0.300
14895W        W87155  14.748  15.323  13.956
14896W        W87156  19.745  23.121   4.640
14897W        W87157  40.486  36.905  11.002
14898W        W87158  30.489  27.646  14.470
14899W        W87159  19.647  13.174  14.868
14900W        W87160  33.004  39.402   3.160
14901W        W87161   0.457   2.928   1.721
14902W        W87162   2.856   5.302  13.994
14903W        W87163   8.267  44.342  13.926
14904W        W87164  32.094  22.995   0.857
14905W        W87165   9.666  26.023  11.371
14906W        W87166  12.291  15.168  11.909
14907W        W87167  20.268  22.571   2.324
14908W        W87168   5.371  15.724   1.705
14909W        W87169   9.378  26.538   1.352
14910W        W87170  12.251  36.986  11.119
14911W        W87171  39.540   7.295   4.238
14912W        W87172  23.984  29.964  14.955
14913W        W87173  15.182  19.770  11.885
14914W        W87174  42.818   4.226   2.695
14915W        W87175  17.086  37.468  12.458
14916W        W87176  25.627  28.603  12.489
14917W        W87177  40.545  32.405   0.857
14918W        W87178  36.065  27.048  10.603
14919W        W87179  20.539  25.605   2.302
14920W        W87180  32.547  38.888   4.634
14921W        W87181   9.778   2.321  12.409
14922W        W87182  11.286  24.553   2.363
14923W        W87183   4.306  44.402  12.471
14924W        W87184  37.074  28.086   4.150
14925W        W87185   2.314  34.976   0.734
14926W        W87186  36.957  25.093  14.977
14927W        W87187  31.930  24.169  10.583
14928W        W87188  40.048   6.903   2.384
14929W        W87189  23.733  22.126  11.017
14930W        W87190  35.525  38.029  13.542
14931W        W87191  18.231   4.431  12.477
14932W        W87192  12.615  38.000   3.730
14933W        W87193  13.601  24.109   0.959
14934W        W87194   2.433   9.828  14.507
14935W        W87195  23.118  22.742  10.940
14936W        W87196  15.684   6.245  10.964
14937W        W87197  23.091  20.647   2.358
14938W        W87198  20.116  29.145  13.392
14939W        W87199   9.326  44.260   1.439
14940W        W87200  15.740  23.681  14.817
14941W        W87201   1.341  18.277  13.862
14942W        W87202  41.826   4.912   5.160
14943W        W87203  10.360  42.848  11.075
14944W        W87204  20.618  28.949   0.347
14945W        W87205  10.239  22.513   1.259
14946W        W87206  18.663   1.785   5.149
14947W        W87207  42.478  27.144   3.838
14948W        W87208  44.413  40.314   9.928
14949W        W87209  25.186  28.676  14.332
14950W        W87210  30.112  41.495   1.793
14951W        W87211  39.864   5.222  10.571
14952W        W87212   8.861  22.182  13.467
14953W        W87213  30.146   9.223  10.975
14954W        W87214  32.100  31.081  11.552
14955W        W87215  33.919  26.594  11.116
14956W        W87216  34.476  25.205  13.013
14957W        W87217   1.898   9.791  14.488
14958W        W87218  35.012  41.913   2.788
14959W        W87219  13.275  28.156   2.180
14960W        W87220  30.946  29.534   0.845
14961W        W87221  23.066  30.961   0.323
14962W        W87222  22.720  31.005   3.652
14963W        W87223  10.827  41.916   2.295
14964W        W87224  32.893  28.634  14.360
14965W        W87225   2.458  21.598  12.426
14966W        W87226  37.577  32.524  12.510
14967W        W87227  42.388  25.208  13.810
14968W        W87228  21.031  32.475   0.312
14969W        W87229  14.115  19.212   4.755
14970W        W87230  25.581  19.047   0.461
14971W        W87231   0.359  44.792   3.378
14972W        W87232  12.267  38.375  11.610
14973W        W87233  41.528  40.043  13.534
14974W        W87234  36.992  35.562  11.881
14975W        W87235  28.593  42.947  10.466
14976W        W87236  41.393  27.194  13.942
14977W        W87237  43.388  43.498  14.892
14978W        W87238  35.401   6.291  12.014
14979W        W87239  33.459  19.624  13.395
14980W        W87240   9.766  20.753  11.452
14981W        W87241  22.674  42.827  11.071
14982W        W87242  31.480  38.864   4.598
14983W        W87243  43.356  13.725   3.739
14984W        W87244  43.859  21.080   1.860
14985W        W87245   8.812   0.881   4.652
14986W        W87246  36.949  35.921   3.858
14987W        W87247   1.360  10.203  14.303
14988W        W87248  14.276  40.980   3.749
14989W        W87249  11.196  32.495  13.502
14990W        W87250  19.186   2.421  11.581
14991W        W87251  21.153  39.941   2.760
14992W        W87252  11.199  15.645   0.305
14993W        W87253  20.144   5.384  13.025
14994W        W87254  40.385   1.766  12.411
14995W        W87255   9.860  11.655   4.672
14996W        W87256  21.633  15.668  11.397
14997W        W87257  25.562  15.151   1.338
14998W        W87258  27.192  36.985   3.306
14999W        W87259  41.470  27.541  12.345
15000W        W87260  29.613   7.683  14.921
15001W        W87261  22.523   2.350  14.797
15002W        W87262  33.578   0.434  12.850
15003W        W87263  13.658  10.654   4.325
15004W        W87264  22.008  37.490   5.279
15005W        W87265  31.020  33.050  13.994
15006W        W87266  34.084  33.962   4.710
15007W        W87267  36.019  22.663  11.475
15008W        W87268  36.361   2.816   0.875
15009W        W87269  38.916  14.620  14.424
15010W        W87270  18.628  19.127   0.341
15011W        W87271   3.887  42.846  14.423
15012W        W87272  17.211  30.510  11.878
15013W        W87273  14.786  35.567  14.844
15014W        W87274  40.547  28.552   0.312
15015W        W87275  34.941   5.371  11.586
15016W        W87276  15.134  43.352   3.661
15017W        W87277  11.721  30.455   5.103
15018W        W87278  18.574  14.264   0.748
15019W        W87279  35.370  27.122   4.216
15020W        W87280  13.733  44.437  14.815
15021W        W87281   0.270  41.363   0.852
15022W        W87282  26.000  36.986   2.395
15023W        W87283   6.408  43.934  14.916
15024W        W87284  21.100   4.792  13.958
15025W        W87285  21.525  33.086  13.320
15026W        W87286   6.917  23.101  13.899
15027W        W87287  17.193   9.166  13.882
15028W        W87288  11.678  33.068  13.052
15029W        W87289  44.842  25.653  11.859
15030W        W87290  12.149   4.723   2.354
15031W        W87291  17.109  33.395  11.107
15032W        W87292  33.570  23.558   2.419
15033W        W87293   5.851  33.425  10.463
15034W        W87294  38.555   4.934  12.936
15035W        W87295   4.939  44.861   3.157
15036W        W87296   9.162   7.831  10.639
15037W        W87297   7.218  31.073   2.856
15038W        W87298   9.884  18.677   2.700
15039W        W87299  35.924  18.703  11.548
15040W        W87300  21.185  27.593   0.879
15041W        W87301  28.047  14.098   4.783
15042W        W87302  44.882   2.238   2.248
15043W        W87303  26.178  32.121   2.293
15044W        W87304   4.435   6.424  10.999
15045W        W87305  14.225  27.476   3.819
15046W        W87306  36.401   8.228   0.802
15047W        W87307  35.880  18.248  14.985
15048W        W87308   6.762  12.229  13.354
15049W        W87309   4.926   9.171  11.909
15050W        W87310  29.584  39.886   1.718
15051W        W87311  42.427  12.144  14.901
15052W        W87312   4.253  10.774  13.999
15053W        W87313   2.344  14.590  12.413
15054W        W87314  33.988  24.582   1.853
15055W        W87315  26.583  34.945  13.374
15056W        W87316  26.970  26.003  12.981
15057W        W87317  44.317  10.832   4.347
15058W        W87318  13.187  38.975  11.068
15059W        W87319  26.136  27.112  12.503
15060W        W87320  23.665   1.909  13.008
15061W        W87321  13.349  22.045   3.804
15062W        W87322  20.236  18.775   3.182
15063W        W87323  33.046  33.419   0.753
15064W        W87324  43.022   2.334  12.555
15065W        W87325  22.594  43.493  14.984
15066W        W87326  14.685  12.215  10.549
15067W        W87327  11.783  30.611   3.364
15068W        W87328  25.672  28.665  11.538
15069W        W87329   8.832  13.330   2.665
15070W        W87330   2.375  17.790  13.546
15071W        W87331  37.537  34.578   3.864
15072W        W87332   4.299   3.412   4.119
15073W        W87333  36.900  15.637   3.219
15074W        W87334  39.432  16.273  13.429
15075W        W87335  33.977   8.315   4.679
15076W        W87336  29.946  35.381  14.846
15077W        W87337   4.772  13.715  14.907
15078W        W87338  36.938  24.678  11.068
15079W        W87339  31.102  32.401   3.319
15080W        W87340  16.217   3.866  13.817
15081W        W87341  16.688  22.228  10.419
15082W        W87342  40.394  17.574  12.858
15083W        W87343  16.257  27.042  11.892
15084W        W87344  28.577   7.753   1.418
15085W        W87345  23.088  17.642  10.922
15086W        W87346  20.062  26.492   2.407
15087W        W87347   0.447  42.865  13.534
15088W        W87348  44.991  31.989   4.144
15089W        W87349  20.070  36.969  10.512
15090W        W87350  22.016  43.271   3.712
15091W        W87351  15.626  31.519  12.483
15092W        W87352  43.942  34.932   1.695
15093W        W87353  35.088  29.135   1.777
15094W        W87354  25.135  32.477  14.974
15095W        W87355  40.431  32.512  11.128
15096W        W87356  10.718   1.316  12.536
15097W        W87357  25.707  31.441  14.473
15098W        W87358  29.927  31.901   0.273
15099W        W87359  20.644  42.820  13.472
15100W        W87360  20.086  39.905  14.924
15101W        W87361   0.341   2.349   4.633
15102W        W87362   7.380   6.266  13.969
15103W        W87363  38.009  27.579   0.405
15104W        W87364  24.149   0.283  13.005
15105W        W87365   2.262  39.457   2.233
15106W        W87366  17.170  32.991   2.886
15107W        W87367  13.343   1.739   3.150
15108W        W87368  39.357  23.105   3.365
15109W        W87369  25.051  15.123  14.854
15110W        W87370  37.875  29.447  11.409
15111W        W87371  24.626  34.083  13.832
15112W        W87372   2.274  38.460  12.972
15113W        W87373  17.066  19.601  12.905
15114W        W87374  41.824   8.887  10.470
15115W        W87375   5.283  13.756  11.515
15116W        W87376  22.206   9.792  12.495
15117W        W87377  34.033  18.215  11.452
15118W        W87378  20.152   6.295  13.388
15119W        W87379  13.203  19.758   4.245
15120W        W87380  32.612  27.042   1.797
15121W        W87381  15.246  30.603   2.273
15122W        W87382  31.070  25.540   3.333
15123W        W87383   8.845  33.972  14.283
15124W        W87384  24.007  37.494   3.738
15125W        W87385  22.568  27.173   1.284
15126W        W87386  23.629  26.619  13.987
15127W        W87387  10.820  30.517   1.394
15128W        W87388  11.722  34.566  12.411
15129W        W87389   9.662  22.683   3.813
15130W        W87390  34.001  30.929  14.802
15131W        W87391  24.180  34.991   2.282
15132W        W87392   2.362  41.806  12.055
15133W        W87393  23.717   3.324  13.921
15134W        W87394  33.892  20.699  14.407
15135W        W87395  29.941  41.379   0.774
15136W        W87396  15.673   0.963   0.313
15137W        W87397  29.994  17.762   0.953
15138W        W87398   3.814  13.599  14.382
15139W        W87399  41.935  11.791  12.913
15140W        W87400   6.397  26.703  14.955
15141W        W87401   8.780  20.043  12.548
15142W        W87402  27.116  37.885   2.313
15143W        W87403   9.277  10.286  10.072
15144W        W87404   0.836  30.619  11.409
15145W        W87405  38.370   6.881   2.316
15146W        W87406  28.523  11.193  14.799
15147W        W87407  16.165  24.090  12.987
15148W        W87408  24.175  30.085   3.687
15149W        W87409  35.488  39.004  10.429
15150W        W87410  22.674  28.535  10.575
15151W        W87411   7.221   6.370   4.825
15152W        W87412  26.516   2.331   1.310
15153W        W87413  35.025   3.784  14.427
15154W        W87414   4.394  12.168  14.377
15155W        W87415  37.040   6.749  10.620
15156W        W87416  33.482  43.935  13.925
15157W        W87417  37.056  12.758  11.891
15158W        W87418  13.603  14.655   9.674
15159W        W87419  12.312  34.595  13.351
15160W        W87420  11.856   0.407   3.159
15161W        W87421  32.113  21.035  10.613
15162W        W87422  26.026   2.380   1.767
15163W        W87423  22.642  22.104  11.029
15164W        W87424   7.726  24.723  11.987
15165W        W87425   7.248  36.516   1.695
15166W        W87426  26.479  33.944   1.344
15167W        W87427  35.482   0.745   1.728
15168W        W87428  37.561  42.955  14.845
15169W        W87429  41.454  24.143   0.263
15170W        W87430   6.709  21.233  11.405
15171W        W87431   4.304  15.152  11.955
15172W        W87432  19.644  36.995  11.549
15173W        W87433  33.947  35.435   1.845
15174W        W87434  15.654  32.521  12.981
15175W        W87435  18.147  30.644   4.203
15176W        W87436  41.437  39.358  14.497
15177W        W87437  15.247  39.329   0.396
15178W        W87438   8.776  12.828   0.376
15179W        W87439  34.511   4.937  14.766
15180W        W87440  28.632  24.085   2.878
15181W        W87441  38.031  42.438  10.574
15182W        W87442  32.616  13.691   3.373
15183W        W87443  22.235  34.908  10.631
15184W        W87444  25.175  38.019   1.302
15185W        W87445   7.216  43.398   4.620
15186W        W87446   4.261   6.283   1.364
15187W        W87447  31.970  31.624  14.830
15188W        W87448  11.246   8.887   4.233
15189W        W87449  33.029   1.914  12.894
15190W        W87450  22.649   8.847   1.333
15191W        W87451  36.044  20.100  11.527
15192W        W87452   5.207  12.675  10.463
15193W        W87453  29.028  13.647   3.296
15194W        W87454  15.616   0.338   4.268
15195W        W87455  26.992   7.866  11.120
15196W        W87456  19.615  24.656  11.002
15197W        W87457   6.888  22.660   3.778
15198W        W87458  39.415   3.230   2.690
15199W        W87459  30.614  12.131  11.597
15200W        W87460  44.864  36.892   2.783
15201W        W87461   3.431  42.851  12.880
15202W        W87462  34.615   3.862  13.990
15203W        W87463  25.106  33.003   3.696
15204W        W87464  33.959  31.423   1.295
15205W        W87465   6.291  13.760   0.255
15206W        W87466  29.572  31.904   9.474
15207W        W87467  22.561  39.410  11.585
15208W        W87468  40.833  24.486  10.507
15209W        W87469  38.470  35.489   1.897
15210W        W87470  37.425   9.362  14.911
15211W        W87471  43.427  36.471  11.910
15212W        W87472   0.782   3.721   4.311
15213W        W87473  12.198  12.116   1.329
15214W        W87474  24.509  14.675  11.981
15215W        W87475   0.957  35.020   4.265
15216W        W87476  16.750  21.682  13.442
15217W        W87477  20.259   7.688  12.950
15218W        W87478  23.576  21.079   0.860
15219W        W87479   9.789   7.255   4.653
15220W        W87480  16.250  19.198   2.718
15221W        W87481  42.951  43.505   1.288
15222W        W87482  13.843  42.811   3.747
15223W        W87483  14.835  32.434   3.260
15224W        W87484  44.378  26.116   3.319
15225W        W87485  37.409  35.574   0.455
15226W        W87486   9.739  37.561  13.413
15227W        W87487   6.382  12.712   1.336
15228W        W87488   9.654   9.855   2.793
15229W        W87489  19.102  31.925  13.418
15230W        W87490  38.392  11.183  12.426
15231W        W87491   1.378  34.033  13.380
15232W        W87492  25.152   8.395  13.437
15233W        W87493  12.795   5.336   0.462
15234W        W87494   1.476  41.518   0.288
15235W        W87495  23.998  40.956   4.722
15236W        W87496   6.380  24.157   2.757
15237W        W87497  24.513  21.720  11.413
15238W        W87498   7.788  21.513   2.742
15239W        W87499   7.855  32.602  14.837
15240W        W87500   4.838  41.376   1.708
15241W        W87501  12.340  35.571   1.768
15242W        W87502  39.867  39.498  11.447
15243W        W87503   7.784  41.860  14.935
15244W        W87504  24.036  42.926  12.930
15245W        W87505  12.740  17.617   3.385
15246W        W87506  30.995  44.372  13.426
15247W        W87507  33.928  44.474  12.090
15248W        W87508  14.263  14.132   2.205
15249W        W87509   1.763  32.889  14.902
15250W        W87510  27.505  32.452   0.964
15251W        W87511  38.998   6.246   2.359
15252W        W87512  31.615   9.730  11.035
15253W        W87513  24.994   9.317  12.366
15254W        W87514   7.339  15.245  11.587
15255W        W87515  43.853  27.469  10.461
15256W        W87516  15.794  41.426   1.314
15257W        W87517  40.318  26.207   1.842
15258W        W87518  36.500  17.103   1.262
15259W        W87519  19.610   8.180   1.894
15260W        W87520  22.728  34.542   2.664
15261W        W87521   6.678   5.790   4.131
15262W        W87522  21.241  42.878   4.169
15263W        W87523  27.966  41.380  10.470
15264W        W87524  21.105   6.282  13.438
15265W        W87525  20.117  24.200   2.262
15266W        W87526  36.027  35.592  12.866
15267W        W87527  21.046  38.336   3.654
15268W        W87528   5.256  43.961  14.874
15269W        W87529  11.344  10.321  11.991
15270W        W87530   3.897  23.684  12.349
15271W        W87531  40.333  25.499  12.903
15272W        W87532   1.936   8.207   4.278
15273W        W87533  11.831  27.950   1.417
15274W        W87534  32.587  11.758   0.275
15275W        W87535  27.613  35.011  13.061
15276W        W87536  20.079  41.980  10.519
15277W        W87537   1.896   8.866  10.626
15278W        W87538  36.384  27.691  13.798
15279W        W87539   2.951  44.411   2.303
15280W        W87540   0.882  38.336   4.630
15281W        W87541  41.488  34.548  11.532
15282W        W87542  16.692  44.868  12.065
15283W        W87543  37.925  43.779   4.142
15284W        W87544  40.502  17.705   1.288
15285W        W87545  22.023   9.719   3.671
15286W        W87546  20.136  35.899   4.668
15287W        W87547   1.365  15.642   0.427
15288W        W87548  11.322  41.806  14.304
15289W        W87549   2.398  19.615   5.112
15290W        W87550   8.356  19.541  11.965
15291W        W87551  17.160  32.444  14.985
15292W        W87552   1.745  14.240   3.712
15293W        W87553  40.942  27.121  12.913
15294W        W87554  23.080  14.201   3.185
15295W        W87555  33.931  24.639   0.483
15296W        W87556  22.593   7.290  11.916
15297W        W87557  25.630  28.641   1.922
15298W        W87558  34.012   6.717   3.166
15299W        W87559  17.259  32.052  10.024
15300W        W87560   6.692  28.150  14.832
15301W        W87561   2.461  14.111   1.912
15302W        W87562  40.509  12.283  12.457
15303W        W87563  11.218  10.800  12.851
15304W        W87564   0.411   7.348  14.497
15305W        W87565   7.412   2.387  13.524
15306W        W87566   2.228   1.460   3.362
15307W        W87567   0.490  14.636  13.340
15308W        W87568  37.502  18.275   3.775
15309W        W87569  36.943  31.120   3.852
15310W        W87570  19.636  40.901   1.276
15311W        W87571  39.406   7.219  13.340
15312W        W87572  38.935  24.068  10.121
15313W        W87573  27.613  40.832  12.470
15314W        W87574  25.565  14.603  11.924
15315W        W87575  35.022  34.606  13.460
15316W        W87576  23.597   0.787   1.699
15317W        W87577  44.967   6.787  13.359
15318W        W87578  34.900  14.191   4.342
15319W        W87579  12.718  28.658  14.325
15320W        W87580  27.628  35.581   2.220
15321W        W87581  11.726  28.507  11.464
15322W        W87582  20.141  20.255  11.111
15323W        W87583   4.418  40.392   3.846
15324W        W87584  17.596  30.468   2.349
15325W        W87585  15.761  41.310  12.924
15326W        W87586   1.317  13.258  12.028
15327W        W87587  15.263  29.078   0.941
15328W        W87588  13.144  16.655   3.815
15329W        W87589  34.582  21.684  10.114
15330W        W87590  13.739  40.422  11.458
15331W        W87591   7.838  13.845  12.905
15332W        W87592  13.341   8.332   4.290
15333W        W87593  12.350   1.422   0.366
15334W        W87594  28.977  22.091   0.887
15335W        W87595   6.862  43.968   2.202
15336W        W87596  40.426  34.960   1.264
15337W        W87597  29.989  36.410  13.548
15338W        W87598  30.976  42.490  14.933
15339W        W87599   6.351  23.177  13.960
15340W        W87600   6.743   4.432  14.991
15341W        W87601  14.305  24.596   0.794
15342W        W87602  26.982  40.324  14.480
15343W        W87603  27.069  12.292  11.440
15344W        W87604  29.040  36.428   0.379
15345W        W87605   0.259  38.454  12.543
15346W        W87606   5.889   9.330  10.635
15347W        W87607  24.133   6.846   4.616
15348W        W87608   2.740  41.501  12.995
15349W        W87609  15.144  12.166  10.900
15350W        W87610  42.394  28.119  11.483
15351W        W87611   7.389  31.059  14.996
15352W        W87612  14.723   7.324   9.946
15353W        W87613   3.814  32.454   4.642
15354W        W87614  23.598  22.016   0.787
15355W        W87615   5.302  25.614  10.444
15356W        W87616  20.095  37.991   3.670
15357W        W87617  36.866  28.106   1.421
15358W        W87618  29.057  44.837  14.280
15359W        W87619  42.840  37.472  12.012
15360W        W87620   6.352  13.116   0.381
15361W        W87621  31.601  31.151   3.285
15362W        W87622  14.237  25.489   4.822
15363W        W87623   2.390  30.060   1.881
15364W        W87624  32.950  24.030   3.782
15365W        W87625  15.245  18.256  12.083
15366W        W87626   5.738  34.081  10.494
15367W        W87627  15.799  28.931  11.546
15368W        W87628  28.948   4.208  14.446
15369W        W87629  23.724  34.565   0.951
15370W        W87630  19.279  25.149  11.484
15371W        W87631   2.270  23.232   3.767
15372W        W87632  12.651   6.843  12.421
15373W        W87633  11.218  16.747   1.404
15374W        W87634  40.834  41.922  12.994
15375W        W87635   4.923  13.217  12.396
15376W        W87636  11.782  33.497  14.944
15377W        W87637  27.650  37.000   1.266
15378W        W87638   3.335  44.010   0.478
15379W        W87639  11.649  10.342  10.041
15380W        W87640  39.858  38.844  13.915
15381W        W87641  36.356  28.145   3.328
15382W        W87642  22.132  35.521  11.549
15383W        W87643  20.153  42.377   2.857
15384W        W87644  33.447  29.569  14.306
15385W        W87645  10.764   9.284   3.684
15386W        W87646  22.639  20.256   1.858
15387W        W87647  29.016   5.868   2.748
15388W        W87648  26.158  15.314   1.422
15389W        W87649  34.506  15.198   2.183
15390W        W87650  13.291  44.876   2.231
15391W        W87651  43.369  13.707   0.740
15392W        W87652   1.241  12.806  14.355
15393W        W87653  33.619  40.339  13.354
15394W        W87654   1.973   8.335  14.347
15395W        W87655  27.095  15.694   1.261
15396W        W87656   7.213  37.066   2.364
15397W        W87657  31.494  11.285   0.293
15398W        W87658  41.016  32.506   4.267
15399W        W87659   0.453  31.596   3.721
15400W        W87660  31.971   1.854  14.980
15401W        W87661   4.888  43.441   0.849
15402W        W87662   1.851  33.950  12.578
15403W        W87663   9.340  25.210   0.876
15404W        W87664  35.879  15.654  12.412
15405W        W87665   3.280  12.768   1.316
15406W        W87666  36.393  43.865   2.228
15407W        W87667   3.289  31.561   1.931
15408W        W87668  17.240  39.420   4.168
15409W        W87669   7.809  39.372  11.995
15410W        W87670  32.084  18.691   2.379
15411W        W87671  28.592  39.460  10.602
15412W        W87672  32.547   5.356  12.920
15413W        W87673  15.280   3.422  10.897
15414W        W87674   6.807  29.476   3.705
15415W        W87675   8.666  24.708  11.399
15416W        W87676  25.065  18.231  13.430
15417W        W87677  42.801  41.472  12.040
15418W        W87678  22.612   5.396  13.793
15419W        W87679  26.501  15.295   0.310
15420W        W87680   8.374   8.383   1.270
15421W        W87681  29.933  41.910   3.723
15422W        W87682  36.402  41.834  14.009
15423W        W87683  17.654  39.537   1.317
15424W        W87684   1.867  14.782   4.295
15425W        W87685  10.236  19.245   4.175
15426W        W87686  30.515  26.697  10.161
15427W        W87687  23.672  44.994  14.319
15428W        W87688  12.696   6.356   3.655
15429W        W87689  19.587  22.128   3.280
15430W        W87690   1.886  43.348  10.597
15431W        W87691  25.983  18.662  12.546
15432W        W87692  33.077  34.476  13.346
15433W        W87693  38.985  15.133   4.344
15434W        W87694   5.435   5.295  11.519
15435W        W87695  13.794  40.979   0.746
15436W        W87696  30.520  28.133  11.417
15437W        W87697  35.496  21.720  14.343
15438W        W87698  38.514  21.019   4.650
15439W        W87699   0.745   6.335   4.253
15440W        W87700  18.123  38.857  10.608
15441W        W87701  26.632   7.745   1.281
15442W        W87702   0.811  15.675  13.371
15443W        W87703   9.849  31.487  11.984
15444W        W87704  16.687   1.793   0.385
15445W        W87705  14.629  10.878  11.435
15446W        W87706  20.682   2.470   3.204
15447W        W87707  24.075   3.223  12.501
15448W        W87708  39.384  15.277  13.480
15449W        W87709  37.027  32.478  13.929
15450W        W87710  13.263  28.497   4.296
15451W        W87711   4.432  12.738  12.566
15452W        W87712  33.594  18.283  11.511
15453W        W87713  44.501   1.421   2.744
15454W        W87714  42.855   6.424  13.454
15455W        W87715  10.786  18.229   4.169
15456W        W87716  38.538  29.936   0.740
15457W        W87717   7.173  42.932  14.394
15458W        W87718   7.216   3.759  14.797
15459W        W87719  36.518   6.873  13.820
15460W        W87720   7.265  15.794   4.267
15461W        W87721  42.324  29.019   3.192
15462W        W87722   1.897  24.173   1.912
15463W        W87723  18.740  44.976   4.139
15464W        W87724   3.373  38.946  13.958
15465W        W87725  44.460  23.220   2.262
15466W        W87726  15.257  32.495   0.306
15467W        W87727  11.155  44.927   4.711
15468W        W87728  17.127  17.719  12.508
15469W        W87729  42.918  15.760  14.801
15470W        W87730  31.527   5.865  14.303
15471W        W87731  35.462  37.010   4.661
15472W        W87732  27.147  39.424   4.117
15473W        W87733  10.683  43.794  13.930
15474W        W87734  36.049  19.686   4.276
15475W        W87735   6.779  15.661  11.974
15476W        W87736   2.738  32.500  10.477
15477W        W87737  13.825  15.142   3.717
15478W        W87738  12.267  44.885   3.164
15479W        W87739  41.457   2.778  14.311
15480W        W87740  22.104   3.443  12.559
15481W        W87741  10.704  24.224  11.907
15482W        W87742   9.343   9.378   3.176
15483W        W87743  25.674  24.134   2.847
15484W        W87744  26.533  15.817   3.788
15485W        W87745  26.475  34.962   1.232
15486W        W87746  39.983  32.614   3.685
15487W        W87747  42.844  44.965  11.003
15488W        W87748   9.676  25.687  14.508
15489W        W87749  17.569   1.935   4.754
15490W        W87750   5.783  10.273  10.485
15491W        W87751  27.027  32.891  11.581
15492W        W87752  12.762  38.426   0.954
15493W        W87753   8.858  21.537   3.767
15494W        W87754  40.867  43.373  12.881
15495W        W87755   4.231  26.162  11.109
15496W        W87756  34.490  26.069  14.286
15497W        W87757   0.435  30.924  12.486
15498W        W87758  24.620   4.221   3.210
15499W        W87759  16.176  37.376  10.568
15500W        W87760  23.676  16.785   2.873
15501W        W87761   6.209  44.986  14.494
15502W        W87762   3.326   7.814   0.959
15503W        W87763  19.760   2.336   1.285
15504W        W87764  19.056  24.624  13.350
15505W        W87765   6.918  39.469  11.067
15506W        W87766  40.448  26.125   2.674
15507W        W87767  32.414  41.410   2.329
15508W        W87768  33.004  36.024  12.512
15509W        W87769  14.254   2.961   1.421
15510W        W87770  19.080  44.952  13.792
15511W        W87771  34.499  38.976  12.474
15512W        W87772  24.063  13.347  11.378
15513W        W87773  44.477   7.204   2.767
15514W        W87774  24.584  30.604   4.753
15515W        W87775   7.839  17.086  11.572
15516W        W87776  36.897  32.049   2.667
15517W        W87777   2.306  38.053   1.783
15518W        W87778  40.913   6.751   4.719
15519W        W87779  37.929  43.320  11.563
15520W        W87780   4.238  28.640  13.861
15521W        W87781  36.417  22.550   2.877
15522W        W87782   3.856   8.160  11.989
15523W        W87783  29.477  14.340   0.396
15524W        W87784  34.575  33.532  10.570
15525W        W87785  28.033  23.622   0.829
15526W        W87786  30.424  24.595   1.438
15527W        W87787  30.066  30.949  11.905
15528W        W87788  44.780   4.331  12.887
15529W        W87789  32.962  43.815   4.328
15530W        W87790  32.030  17.556  14.821
15531W        W87791  30.595  11.697  10.437
15532W        W87792  31.508   5.690  13.359
15533W        W87793  27.170  42.404   3.708
15534W        W87794  23.208   2.403  12.437
15535W        W87795  12.733   2.273   1.382
15536W        W87796  18.684  29.066   4.618
15537W        W87797  42.481  38.412  14.428
15538W        W87798  39.421   0.860   4.803
15539W        W87799  35.498  37.915  12.525
15540W        W87800  12.225   2.771   1.790
15541W        W87801   2.351  15.113  12.570
15542W        W87802  25.100  15.143   4.801
15543W        W87803   0.471   8.678  14.386
15544W        W87804  39.912   6.844   4.599
15545W        W87805   0.954  27.944   5.278
15546W        W87806  15.233  19.083   2.876
15547W        W87807  20.136  33.444  12.001
15548W        W87808   0.281  25.688  14.979
15549W        W87809  42.867  38.479  12.950
15550W        W87810  31.146   5.318  12.862
15551W        W87811  43.420  17.671  12.906
15552W        W87812   9.804  33.599  14.343
15553W        W87813  11.701  19.225  11.598
15554W        W87814   5.293  30.505  12.054
15555W        W87815  40.405  28.957   0.257
15556W        W87816   8.823  12.190  10.953
15557W        W87817  27.122  25.564  11.926
15558W        W87818  19.686  30.932  10.944
15559W        W87819  36.435   4.747  14.852
15560W        W87820  34.867  11.209   0.278
15561W        W87821   6.378  35.912  13.502
15562W        W87822  42.288  15.147   0.263
15563W        W87823  32.142  21.651   3.816
15564W        W87824  10.737   9.723  12.980
15565W        W87825  26.650   6.289   5.084
15566W        W87826  13.605  43.326   2.878
15567W        W87827   1.766  34.461  11.912
15568W        W87828   0.946  43.883  11.111
15569W        W87829   4.219  36.440  12.994
15570W        W87830  17.738  39.975  14.958
15571W        W87831  35.907  20.565  13.325
15572W        W87832  14.150  24.656  14.474
15573W        W87833  40.809   9.337   2.712
15574W        W87834  41.854  22.133  14.311
15575W        W87835  20.622   2.324   1.873
15576W        W87836  11.367  36.441  12.976
15577W        W87837  20.077   3.395  12.407
15578W        W87838   0.251  18.586  10.913
15579W        W87839   8.869   9.314  11.485
15580W        W87840  25.074  22.522   1.427
15581W        W87841  31.021  29.977  12.421
15582W        W87842   8.864   3.816   1.824
15583W        W87843  37.427  29.497  10.574
15584W        W87844   2.403  36.506   2.195
15585W        W87845  29.442  13.131  13.030
15586W        W87846  36.969  27.461   0.904
15587W        W87847   9.229  17.265  11.068
15588W        W87848  30.617   4.238   4.688
15589W        W87849  11.362  27.621  11.468
15590W        W87850  24.080   3.746  14.420
15591W        W87851  18.740  35.882   2.699
15592W        W87852  25.965  39.515  11.523
15593W        W87853  33.885  15.218   2.324
15594W        W87854  34.609   3.372  13.031
15595W        W87855  39.540  33.998   2.380
15596W        W87856  38.472  29.548   2.786
15597W        W87857  16.789  23.046  10.989
15598W        W87858  32.607  10.221   0.464
15599W        W87859  30.019   0.308  11.949
15600W        W87860  21.579  21.570  14.880
15601W        W87861  30.025  36.451   3.377
15602W        W87862  19.680   4.773  14.434
15603W        W87863  38.018  25.664   3.839
15604W        W87864  32.917  35.935   1.297
15605W        W87865  14.153  32.032  11.102
15606W        W87866  10.636  23.163   3.179
15607W        W87867  30.087  12.665   4.235
15608W        W87868  20.669  35.530  11.395
15609W        W87869   4.388  29.981   4.354
15610W        W87870  34.468  10.333   1.321
15611W        W87871   9.878  24.638  10.978
15612W        W87872  15.650  24.512   3.315
15613W        W87873  32.974   5.768   1.775
15614W        W87874  22.211  32.435   0.903
15615W        W87875   7.234  19.757   0.831
15616W        W87876   1.764  36.083  12.550
15617W        W87877  14.694  37.951  13.803
15618W        W87878  34.061  28.003  10.550
15619W        W87879  15.760  32.902   3.203
15620W        W87880  42.018   3.458   2.391
15621W        W87881  29.921  22.549  11.053
15622W        W87882   2.872   6.294   1.376
15623W        W87883  11.309  27.090   1.379
15624W        W87884   8.836  38.537  13.402
15625W        W87885   0.857   6.362   2.810
15626W        W87886   5.871  17.143   0.394
15627W        W87887  10.168  37.571   0.395
15628W        W87888  41.952  38.458   4.195
15629W        W87889  38.504  21.732  14.842
15630W        W87890   6.315  10.330  10.147
15631W        W87891  31.901  32.559  14.959
15632W        W87892  28.963  22.165  12.050
15633W        W87893  28.110   2.737  10.962
15634W        W87894  17.686   9.194  11.421
15635W        W87895  35.595  42.456  14.277
15636W        W87896  16.132  12.682  14.027
15637W        W87897   1.350  31.644   4.688
15638W        W87898  11.253  25.152  11.531
15639W        W87899  43.826  24.588   2.363
15640W        W87900  20.614  22.533   1.316
15641W        W87901  17.152   8.865  14.389
15642W        W87902   8.296   4.810  12.035
15643W        W87903  42.997   1.475  10.539
15644W        W87904   4.420  34.981  13.034
15645W        W87905  36.916  11.622  12.012
15646W        W87906   6.686   7.773  11.006
15647W        W87907   8.289  33.624   3.790
15648W        W87908   7.242   1.882   2.408
15649W        W87909   7.357   1.749  12.547
15650W        W87910   2.427  16.119   1.302
15651W        W87911   0.848  18.078   4.717
15652W        W87912  35.970   5.196  13.041
15653W        W87913  27.953  40.021  14.010
15654W        W87914  44.260  22.600  14.399
15655W        W87915  37.063  23.196  10.559
15656W        W87916   6.834  32.993   4.241
15657W        W87917  22.171  26.646   4.124
15658W        W87918   8.767  30.924   1.240
15659W        W87919  16.604  41.328  11.435
15660W        W87920   7.680   2.890   0.434
15661W        W87921   7.394  28.623  10.122
15662W        W87922  25.002  34.408  10.955
15663W        W87923  19.663  37.383   0.302
15664W        W87924  36.905  43.301   3.650
15665W        W87925  44.853  42.352   2.692
15666W        W87926  29.564  30.557  14.985
15667W        W87927   3.870  11.862  10.533
15668W        W87928  16.779   8.827   4.823
15669W        W87929  26.600  33.018  11.476
15670W        W87930  22.034   7.799  13.956
15671W        W87931  32.625   0.937   3.632
15672W        W87932  10.814  24.507  10.986
15673W        W87933  21.133  30.043   0.318
15674W        W87934  34.909  20.542  11.982
15675W        W87935   2.824   1.308  14.927
15676W        W87936  20.580  39.929   3.385
15677W        W87937   7.367   6.887  10.409
15678W        W87938   9.725  18.781   1.225
15679W        W87939  24.071  43.478  11.374
15680W        W87940  23.991  31.074   4.782
15681W        W87941  15.619  39.957  11.984
15682W        W87942  11.864  18.089   2.332
15683W        W87943  37.446  31.445   2.712
15684W        W87944  16.112  30.946  11.882
15685W        W87945  21.022  40.487   1.791
15686W        W87946  34.079  39.378   2.844
15687W        W87947   5.380   5.760  11.886
15688W        W87948   7.261   5.817  10.426
15689W        W87949  37.864  20.157  13.055
15690W        W87950  32.906  44.326  14.474
15691W        W87951  33.918  26.962  11.978
15692W        W87952   2.336  10.877   2.878
15693W        W87953  39.058  44.283   4.698
15694W        W87954   7.822  12.216   1.444
15695W        W87955   0.902  15.138   4.631
15696W        W87956   0.415  43.859  14.957
15697W        W87957   1.934  39.870  13.462
15698W        W87958   3.377  33.534  10.592
15699W        W87959  33.973  34.375   2.836
15700W        W87960  23.201  37.389   2.846
15701W        W87961   4.885  20.715   1.931
15702W        W87962  10.229  39.463  13.969
15703W        W87963   0.871  36.508   3.693
15704W        W87964  10.712  23.995  10.919
15705W        W87965  32.468  39.890  10.603
15706W        W87966  24.496  40.350  13.838
15707W        W87967  37.949  16.809  11.882
15708W        W87968  28.170  22.085   0.283
15709W        W87969   2.461  44.967   2.685
15710W        W87970  43.478  31.478  12.459
15711W        W87971   3.738  28.491  13.418
15712W        W87972  16.145   0.295   1.742
15713W        W87973   3.419   6.733   3.343
15714W        W87974   6.281  20.165   0.927
15715W        W87975  42.404   4.772  14.478
15716W        W87976  29.028   7.319   2.889
15717W        W87977  20.230  20.644  13.331
15718W        W87978  10.280  23.229   2.298
15719W        W87979  35.526  17.279  13.424
15720W        W87980  33.453   0.401   9.961
15721W        W87981  33.400  11.838   5.100
15722W        W87982  30.007  25.966   1.265
15723W        W87983  12.707  18.580  14.987
15724W        W87984  17.281  25.018  14.841
15725W        W87985  36.349  31.446  14.916
15726W        W87986  22.667  43.796   2.802
15727W        W87987  30.134  27.477   3.638
15728W        W87988  18.219  20.227  13.807
15729W        W87989  20.106  13.643   2.839
15730W        W87990  25.999  21.634  12.425
15731W        W87991  37.574  37.958   4.661
15732W        W87992  28.944   7.757   3.668
15733W        W87993  22.687  23.108   4.693
15734W        W87994  11.138  24.591  14.998
15735W        W87995  19.576   8.196  14.383
15736W        W87996  42.889  36.500   0.784
15737W        W87997  42.026  35.002   2.688
15738W        W87998  15.267   1.900  10.531
15739W        W87999  44.316  19.580   3.636
15740W        W88000   9.163  21.056   1.401
15741W        W88001   3.806  25.656   3.726
15742W        W88002  27.453  39.059  13.390
15743W        W88003  20.664  12.837   2.264
15744W        W88004  14.784  36.952   1.824
15745W        W88005  17.113  25.084   3.745
15746W        W88006  32.993  17.206  13.013
15747W        W88007  14.168  15.132  13.926
15748W        W88008  36.466  17.742  11.983
15749W        W88009  40.889  44.950   0.889
15750W        W88010  34.052  39.419  11.044
15751W        W88011  29.549  25.611  14.876
15752W        W88012   8.194  12.770  12.455
15753W        W88013  25.168  39.442   3.635
15754W        W88014   7.279   1.326   0.403
15755W        W88015   8.201   3.451   1.256
15756W        W88016   6.856  32.043   0.253
15757W        W88017   6.920   9.723  12.910
15758W        W88018  13.199   7.710   4.296
15759W        W88019  33.028  41.364   3.867
15760W        W88020  39.866  17.580   3.378
15761W        W88021  44.347   7.711  13.027
15762W        W88022  18.754  17.157  11.009
15763W        W88023  40.043   1.818  14.410
15764W        W88024   1.437  17.731  14.282
15765W        W88025  18.673  36.583  14.442
15766W        W88026  17.791  23.715   0.913
15767W        W88027  12.262  11.642   3.255
15768W        W88028  40.882  43.944   0.916
15769W        W88029  17.262  42.457   0.946
15770W        W88030   9.263   0.414  14.856
15771W        W88031  22.095  32.399   2.257
15772W        W88032  38.949  32.552   3.793
15773W        W88033  43.909  11.848   4.186
15774W        W88034  26.653  29.625  13.965
15775W        W88035   5.797   6.903   2.798
15776W        W88036  23.222  29.447   3.307
15777W        W88037  22.134  42.395  10.997
15778W        W88038  34.507   2.295   0.341
15779W        W88039   3.339  40.882  13.522
15780W        W88040  10.375   9.298  13.950
15781W        W88041   5.314  35.538  11.040
15782W        W88042  42.343  24.080   4.820
15783W        W88043  32.041   9.775   1.274
15784W        W88044  22.995   7.178   5.084
15785W        W88045  43.328   9.169  12.017
15786W        W88046  17.678  19.566   3.815
15787W        W88047  32.617   5.412   2.179
15788W        W88048   7.396  35.475  13.344
15789W        W88049  25.967  12.198   3.803
15790W        W88050  22.537  25.071   0.897
15791W        W88051  22.647  29.084  12.473
15792W        W88052   9.369  16.733  14.430
15793W        W88053  18.293  30.581   0.329
15794W        W88054   3.322   8.858  14.802
15795W        W88055  17.250  32.985   3.761
15796W        W88056  20.136   0.872  12.975
15797W        W88057  38.919   6.725   5.659
15798W        W88058  23.157  44.853   2.311
15799W        W88059  14.718   1.254  13.424
15800W        W88060   9.707  10.751  12.575
15801W        W88061  32.118  42.925  13.958
15802W        W88062  15.683  18.238   2.730
15803W        W88063  34.937  41.967  12.347
15804W        W88064  44.496  27.968  12.431
15805W        W88065  41.347   7.684   4.129
15806W        W88066  30.021  19.756   1.306
15807W        W88067  31.022  16.573   4.138
15808W        W88068  22.699  27.493  14.368
15809W        W88069  24.042  42.319   0.966
15810W        W88070   1.359  24.001  14.428
15811W        W88071  32.619  35.007   0.739
15812W        W88072  35.363  34.046  11.094
15813W        W88073  27.537   8.372   0.857
15814W        W88074  31.491  29.962  12.378
15815W        W88075   2.869  44.758  14.368
15816W        W88076  26.702   5.239  11.381
15817W        W88077  13.656  44.789  10.439
15818W        W88078  14.110   3.332  12.577
15819W        W88079  14.246  30.541   2.195
15820W        W88080  33.098  41.371   3.183
15821W        W88081  30.530  16.569   4.149
15822W        W88082  16.302  16.098   1.385
15823W        W88083  44.427  16.581  14.018
15824W        W88084  22.503   7.877  11.610
15825W        W88085  20.265  37.073   2.399
15826W        W88086   1.433  21.048  12.847
15827W        W88087  43.312  12.174   1.273
15828W        W88088  20.039  37.506  14.837
15829W        W88089   9.345  18.738   4.739
15830W        W88090  23.140  29.068   2.276
15831W        W88091   4.311  39.851   1.935
15832W        W88092  17.281  28.598   3.716
15833W        W88093  39.332   0.932   3.812
15834W        W88094  43.490  24.689  11.445
15835W        W88095  33.888  19.609   3.269
15836W        W88096  32.083  38.336  14.883
15837W        W88097  36.896  11.691   0.923
15838W        W88098  31.541   0.985   0.939
15839W        W88099  26.690  26.039   0.295
15840W        W88100  14.239  12.814  12.407
15841W        W88101  27.039  37.050   0.255
15842W        W88102  21.144   8.719   3.718
15843W        W88103   9.367  31.991  11.971
15844W        W88104  12.142  17.703   1.221
15845W        W88105  38.055  36.577   3.355
15846W        W88106  37.984  34.945  10.891
15847W        W88107  26.120  21.072  10.585
15848W        W88108   9.188  22.206   1.280
15849W        W88109   3.722  24.179   4.834
15850W        W88110  14.704   8.172  14.021
15851W        W88111   4.775   0.473  11.075
15852W        W88112   1.815  14.632   1.379
15853W        W88113  39.340  20.602  12.916
15854W        W88114   7.881  28.186  11.956
15855W        W88115  41.962  13.189   4.154
15856W        W88116   7.740   8.829   2.687
15857W        W88117   9.846  25.704   2.757
15858W        W88118  36.880  32.406   1.709
15859W        W88119  40.801   9.373  11.878
15860W        W88120  30.046  10.693   4.732
15861W        W88121   1.777  11.172   3.204
15862W        W88122  21.238  38.043  12.856
15863W        W88123  14.790   6.263  11.055
15864W        W88124   0.262  33.427   4.222
15865W        W88125   4.214  23.702   4.343
15866W        W88126   6.200  29.153  10.061
15867W        W88127  24.096  38.846   2.813
15868W        W88128  37.567  42.775   0.321
15869W        W88129  22.073  10.239   3.225
15870W        W88130  17.095  17.137   4.315
15871W        W88131   1.964   8.341   3.862
15872W        W88132  30.473  15.809  13.837
15873W        W88133   9.870  22.046  13.822
15874W        W88134  18.625   0.356   3.279
15875W        W88135   9.703  22.692  14.465
15876W        W88136  31.919   8.254   3.267
15877W        W88137  24.173   4.746   4.733
15878W        W88138  36.966  36.552   2.196
15879W        W88139   7.373  10.878  13.332
15880W        W88140  13.655   7.339   0.417
15881W        W88141  15.810  10.225   1.726
15882W        W88142  30.509  16.756  13.520
15883W        W88143  37.523  22.018   0.440
15884W        W88144   8.758  19.667   2.710
15885W        W88145  35.104   6.775  14.892
15886W        W88146  43.872  21.246   3.353
15887W        W88147  23.624  28.674   2.417
15888W        W88148   9.761  28.084  10.998
15889W        W88149  10.215  31.117  14.321
15890W        W88150  32.603  15.294  14.342
15891W        W88151   3.925   1.758   1.332
15892W        W88152  30.971  42.849   5.148
15893W        W88153  10.871  13.820  12.916
15894W        W88154  12.836  22.522  13.473
15895W        W88155  41.996  18.151  13.897
15896W        W88156  12.323  11.213   0.766
15897W        W88157  44.957  24.095  10.637
15898W        W88158  14.165   3.863  10.991
15899W        W88159   7.297  13.257   2.275
15900W        W88160  35.103  15.165  13.969
15901W        W88161  30.073  26.188   4.781
15902W        W88162  21.164   5.227  10.997
15903W        W88163  32.915  41.982  10.496
15904W        W88164  39.536  27.119  14.455
15905W        W88165  39.375  41.443   0.869
15906W        W88166  39.831  23.161   1.346
15907W        W88167  36.869  10.319  12.555
15908W        W88168  38.994  34.892   3.871
15909W        W88169   1.367  19.642  12.951
15910W        W88170  37.920  21.254   1.711
15911W        W88171  40.936  21.709  12.066
15912W        W88172  44.825  18.265   2.886
15913W        W88173   4.845   3.880   1.282
15914W        W88174   7.833  42.331   2.265
15915W        W88175  30.437  18.127  12.520
15916W        W88176   2.337  10.330  14.806
15917W        W88177  20.585  12.361   4.830
15918W        W88178  23.087  44.353  11.483
15919W        W88179  20.527  20.049   4.231
15920W        W88180  43.430  14.608   1.891
15921W        W88181  38.417  20.556   4.222
15922W        W88182  31.101  39.022   1.300
15923W        W88183  37.980  36.415   2.840
15924W        W88184   4.866  33.028   2.862
15925W        W88185  35.545  38.565  13.496
15926W        W88186   6.780  44.793   4.674
15927W        W88187   0.347  13.171  10.492
15928W        W88188  37.034  40.523  11.856
15929W        W88189  32.496  30.467  12.971
15930W        W88190  26.563  44.964   1.909
15931W        W88191  34.418  22.238   1.304
15932W        W88192  32.593  29.586   2.367
15933W        W88193  37.890  22.548  13.973
15934W        W88194   0.303   8.164   4.136
15935W        W88195  18.066  22.523   2.883
15936W        W88196   0.461  23.228   2.775
15937W        W88197  35.447   3.872   0.311
15938W        W88198  13.269  18.681   0.278
15939W        W88199  30.920  24.983  13.378
15940W        W88200  11.802  27.092  10.540
15941W        W88201   2.424  35.444  13.420
15942W        W88202  21.648  29.016   3.242
15943W        W88203  20.231  38.495  13.802
15944W        W88204  38.977  29.923   2.831
15945W        W88205   5.820  33.447  13.959
15946W        W88206   5.332   5.346   0.414
15947W        W88207   4.252  35.585  13.542
15948W        W88208   9.668  10.271   1.346
15949W        W88209  27.595   4.737  14.796
15950W        W88210  43.349  41.356   2.787
15951W        W88211  17.267  25.964   0.456
15952W        W88212  17.676  37.896  12.534
15953W        W88213  43.799   5.364  10.419
15954W        W88214  21.088  30.541  11.549
15955W        W88215  36.438  23.999  10.538
15956W        W88216  26.101  38.533   4.632
15957W        W88217  29.024  11.792  13.962
15958W        W88218   5.826  10.310   3.303
15959W        W88219  14.777  20.191   4.189
15960W        W88220   4.775   9.287  13.514
15961W        W88221   9.290  31.045  13.982
15962W        W88222  44.794  24.677  13.035
15963W        W88223   1.282  39.973  14.909
15964W        W88224   0.335  25.170  11.500
15965W        W88225  13.687  14.731   3.676
15966W        W88226  42.982   0.775  14.432
15967W        W88227  17.607  44.265   1.777
15968W        W88228  35.509  28.121   2.728
15969W        W88229  32.133  20.586  11.948
15970W        W88230  41.406  19.257   3.651
15971W        W88231   1.847   8.889   3.770
15972W        W88232  36.458  17.607   4.614
15973W        W88233   4.860  24.181   1.287
15974W        W88234  29.623  28.058  11.085
15975W        W88235  17.608   6.302  12.508
15976W        W88236  26.168  19.575   1.896
15977W        W88237  18.573  26.671  12.882
15978W        W88238  42.890  42.325   0.316
15979W        W88239  34.493   4.253   3.254
15980W        W88240   2.912  24.603  12.838
15981W        W88241  29.017  44.756   2.796
15982W        W88242  30.621  12.321   2.717
15983W        W88243  11.319  41.894  12.088
15984W        W88244  44.808  43.369  11.466
15985W        W88245  22.684   4.376   1.813
15986W        W88246  16.787  36.468  12.529
15987W        W88247  39.044  37.545  10.907
15988W        W88248  24.652  12.689  10.404
15989W        W88249  40.055  36.500  14.369
15990W        W88250   8.862  22.205  14.777
15991W        W88251  40.042  31.494   0.376
15992W        W88252  38.483  14.825  13.935
15993W        W88253  14.110  44.856  12.040
15994W        W88254   2.392  33.068   3.217
15995W        W88255  25.212   8.276  10.946
15996W        W88256   5.328  27.006   2.418
15997W        W88257  24.201  22.072   0.891
15998W        W88258  17.620  21.514  13.887
15999W        W88259  17.625  31.472  13.363
16000W        W88260  32.555  42.925   1.698
16001W        W88261   1.788   7.812  13.001
16002W        W88262   0.346  15.175  10.474
16003W        W88263   0.490  17.105   4.348
16004W        W88264   5.882   9.663   0.753
16005W        W88265  31.910  43.417   1.777
16006W        W88266  10.702   1.867   0.739
16007W        W88267  42.871  12.769  11.040
16008W        W88268  19.655   8.255   9.502
16009W        W88269  37.918  19.734  11.906
16010W        W88270   0.900  27.463   3.847
16011W        W88271  44.463  19.621   4.824
16012W        W88272  28.978  33.581  14.940
16013W        W88273  35.978   7.675  12.909
16014W        W88274  30.524   3.954   4.718
16015W        W88275  16.691  16.302   4.270
16016W        W88276  28.548  44.333   2.235
16017W        W88277  28.096  19.650  10.620
16018W        W88278  26.171   7.787   3.386
16019W        W88279  15.252  27.081  12.836
16020W        W88280  33.954   0.772  10.455
16021W        W88281  37.424  10.315  12.400
16022W        W88282  15.659  20.149  11.452
16023W        W88283  38.466  12.212  13.932
16024W        W88284  29.668   3.375   4.267
16025W        W88285  25.131   0.277  13.545
16026W        W88286  44.837   5.934   3.358
16027W        W88287  28.437  27.605   1.270
16028W        W88288  32.022  43.481  10.632
16029W        W88289  23.662  44.490  13.900
16030W        W88290  44.768  18.724   0.456
16031W        W88291   5.865   2.425   3.820
16032W        W88292  30.937   4.334  11.926
16033W        W88293   8.272  27.684   5.747
16034W        W88294  11.652  15.802  14.443
16035W        W88295   2.257   5.817  11.006
16036W        W88296  24.075  10.702  13.318
16037W        W88297  14.289  13.330  11.024
16038W        W88298  33.483  27.484   3.349
16039W        W88299   8.769  26.189  14.881
16040W        W88300  28.108   8.353  12.008
16041W        W88301   8.220  19.625   0.769
16042W        W88302  21.724  33.012   4.311
16043W        W88303  27.519  28.585  14.340
16044W        W88304  40.947  44.371  13.874
16045W        W88305   6.224  10.196   4.610
16046W        W88306  25.578  16.705  14.303
16047W        W88307  31.048  35.093   1.855
16048W        W88308  13.609  23.587  13.043
16049W        W88309  39.456   0.482   0.742
16050W        W88310   8.220  37.404  11.603
16051W        W88311  37.957  39.826   4.597
16052W        W88312  22.687  35.528   4.134
16053W        W88313  13.749   9.393  13.511
16054W        W88314  23.515  40.514  14.372
16055W        W88315  23.601  16.570  13.340
16056W        W88316  38.045  35.927   4.251
16057W        W88317  12.730   7.239  13.035
16058W        W88318   8.889  25.170   0.455
16059W        W88319  16.134   3.726   4.321
16060W        W88320  42.010  19.685   1.776
16061W        W88321  37.937  24.996  13.407
16062W        W88322  26.206  21.627   2.240
16063W        W88323  33.915  20.110  12.840
16064W        W88324  32.056  15.246   4.207
16065W        W88325  23.196  35.417  10.575
16066W        W88326  26.463   3.436   4.132
16067W        W88327  16.593  14.323   4.169
16068W        W88328   1.390  41.434  10.552
16069W        W88329  27.099  43.893  13.349
16070W        W88330   5.386   1.449  14.908
16071W        W88331  25.070   2.418  12.924
16072W        W88332  13.154  25.538  11.506
16073W        W88333  39.939  43.972  14.932
16074W        W88334  26.083  18.700  13.968
16075W        W88335   7.403  26.689   0.771
16076W        W88336   7.259  19.121  10.962
16077W        W88337  26.085  14.248   3.158
16078W        W88338  16.792  35.390  12.874
16079W        W88339   1.883  11.129  14.789
16080W        W88340  14.777  19.718   4.812
16081W        W88341  12.850  21.609   3.772
16082W        W88342  31.406  30.621   3.854
16083W        W88343  17.148  34.498   4.838
16084W        W88344  42.502   9.645   3.760
16085W        W88345   6.192  28.579   3.359
16086W        W88346  28.140  39.333  13.489
16087W        W88347  25.518  27.575   0.358
16088W        W88348  32.500   3.912  12.065
16089W        W88349  25.161  23.115   1.344
16090W        W88350   3.245   1.849  14.908
16091W        W88351  29.425  27.592   4.248
16092W        W88352  14.172  29.977   1.726
16093W        W88353  28.127  42.873  11.874
16094W        W88354  20.254  35.993  13.993
16095W        W88355  19.540  42.880   2.230
16096W        W88356   1.908   5.330  11.504
16097W        W88357  36.386  44.317   0.777
16098W        W88358  37.353  14.795  13.985
16099W        W88359  25.203  12.179  12.581
16100W        W88360  37.969   1.897   2.694
16101W        W88361   7.793  12.674   0.411
16102W        W88362   3.948   2.892   2.809
16103W        W88363  22.714  31.999  12.850
16104W        W88364  11.624   6.875  12.398
16105W        W88365  35.989  25.137  10.412
16106W        W88366  16.683  20.714  10.423
16107W        W88367  30.942  18.190   3.832
16108W        W88368  38.418  33.027   2.886
16109W        W88369   9.196  19.252  12.421
16110W        W88370  42.282  23.595  13.359
16111W        W88371   3.785  14.752  13.941
16112W        W88372  12.850  30.486  14.389
16113W        W88373  27.556  35.513   4.340
16114W        W88374  31.926  26.537  13.974
16115W        W88375  26.067  12.800   3.864
16116W        W88376   7.411  33.090  11.883
16117W        W88377   3.765  24.590  11.984
16118W        W88378  23.216  19.264   2.798
16119W        W88379  19.053  31.583  13.328
16120W        W88380   4.893  43.445   4.778
16121W        W88381  28.123  32.600  10.476
16122W        W88382  28.162  20.035   3.806
16123W        W88383  27.544  30.134  11.889
16124W        W88384  30.907  31.527   3.171
16125W        W88385  17.758  17.277   0.292
16126W        W88386  37.578   8.817   0.267
16127W        W88387  44.332  36.969   1.817
16128W        W88388  18.058  16.625   2.341
16129W        W88389  31.589  15.231  14.312
16130W        W88390   8.867  24.041   0.255
16131W        W88391  28.550  32.405  14.921
16132W        W88392  21.616  18.568  13.492
16133W        W88393  11.857  38.928   1.400
16134W        W88394   6.859   8.307   3.330
16135W        W88395  26.698  24.014  11.073
16136W        W88396   1.396  30.587  11.410
16137W        W88397  11.199  29.600  13.984
16138W        W88398  18.753  37.528  13.806
16139W        W88399  33.047  23.008   2.814
16140W        W88400  31.521  25.156   2.232
16141W        W88401   5.415  37.410   3.327
16142W        W88402  33.581  30.584   1.344
16143W        W88403  11.714  32.457  13.009
16144W        W88404  34.378   6.245   3.784
16145W        W88405  16.729  22.225  13.000
16146W        W88406  33.892   0.963  10.951
16147W        W88407  39.470   4.723  13.945
16148W        W88408  15.250  14.690   4.339
16149W        W88409   8.765  12.354   2.359
16150W        W88410  27.454  39.954  14.957
16151W        W88411   5.309  24.985   3.367
16152W        W88412  29.483   6.918   0.433
16153W        W88413  37.073  13.177   3.779
16154W        W88414  30.496   6.418   1.843
16155W        W88415   3.774  28.466  12.092
16156W        W88416  18.782  15.762   1.885
16157W        W88417  12.842  27.690   0.809
16158W        W88418  18.769  31.050  12.376
16159W        W88419   2.267  37.433  11.549
16160W        W88420  41.797  10.764  12.511
16161W        W88421  35.107  25.664  14.992
16162W        W88422  17.731  29.054   2.861
16163W        W88423  28.604  18.718   4.286
16164W        W88424  19.675  13.181  12.433
16165W        W88425  20.724  14.111  10.988
16166W        W88426   1.391  30.435  11.924
16167W        W88427  27.146   8.295  11.881
16168W        W88428  32.530  11.736   2.885
16169W        W88429  23.067   0.956  12.076
16170W        W88430   4.827  30.952  13.530
16171W        W88431  14.256   4.890  14.824
16172W        W88432  31.007  31.085   9.563
16173W        W88433  25.585   9.203   3.245
16174W        W88434  21.560   0.949  13.532
16175W        W88435   0.770  36.435  11.879
16176W        W88436   9.688  20.631   4.355
16177W        W88437  38.054   5.808  12.407
16178W        W88438  27.056   2.261  12.493
16179W        W88439   6.420  10.673  13.420
16180W        W88440  37.573  41.320  14.877
16181W        W88441  24.187   3.320  14.382
16182W        W88442   2.771  13.659  13.791
16183W        W88443  44.768  12.263  13.547
16184W        W88444  32.010  41.480   4.195
16185W        W88445  32.967  36.504  12.003
16186W        W88446  33.462  31.621  12.391
16187W        W88447  29.939  40.398   4.808
16188W        W88448   0.916  28.663   0.301
16189W        W88449   2.932  41.800  11.545
16190W        W88450  24.122  42.914   4.133
16191W        W88451  25.105  34.599   1.852
16192W        W88452  24.585  44.805   2.722
16193W        W88453  44.386   7.297   2.197
16194W        W88454  15.704  22.194   4.785
16195W        W88455  20.204  11.818  11.465
16196W        W88456   1.449  44.345   3.159
16197W        W88457  28.992  39.884  11.390
16198W        W88458  28.500  30.913  14.931
16199W        W88459  44.919  35.953  12.988
16200W        W88460  14.171  32.910  13.368
16201W        W88461   5.435  43.483  14.759
16202W        W88462  19.685   6.822  12.859
16203W        W88463  15.218  44.439  12.001
16204W        W88464  20.545  26.956   3.290
16205W        W88465  40.510  40.846   3.269
16206W        W88466  34.992  44.337   5.125
16207W        W88467  27.489  32.065   0.955
16208W        W88468   0.313   8.346   4.695
16209W        W88469   0.436  24.681   2.885
16210W        W88470  40.886   2.383  14.316
16211W        W88471  14.648   2.776  14.867
16212W        W88472   1.972  43.486   4.658
16213W        W88473  10.797  40.009   4.628
16214W        W88474  27.177  40.478   2.283
16215W        W88475   4.916  28.047  10.563
16216W        W88476  17.671  40.046   0.348
16217W        W88477  10.772   6.866  12.847
16218W        W88478   9.658  36.976  11.072
16219W        W88479  16.198  20.634  10.976
16220W        W88480  33.379   4.277  13.547
16221W        W88481  33.891  14.226  12.978
16222W        W88482  28.646  15.198  14.760
16223W        W88483  11.197   0.327   2.712
16224W        W88484  19.570  19.094  12.456
16225W        W88485  31.460  21.102   0.419
16226W        W88486   4.397  42.411   2.264
16227W        W88487  30.439  43.474   3.167
16228W        W88488   8.308  17.122   3.201
16229W        W88489  41.983  36.936  14.361
16230W        W88490  42.414  23.551  14.796
16231W        W88491  31.419  42.026  14.330
16232W        W88492  33.599  33.918   2.346
16233W        W88493  21.609  17.294   1.439
16234W        W88494  34.580  12.637   4.252
16235W        W88495  30.973  21.128   3.239
16236W        W88496  14.283  16.724  14.515
16237W        W88497  17.589   7.898  14.921
16238W        W88498  33.006  15.083   2.186
16239W        W88499   7.172   1.842   4.631
16240W        W88500  16.690   0.388   1.713
16241W        W88501  28.599  34.054   3.821
16242W        W88502  18.250  30.026  12.949
16243W        W88503  14.218  31.064   4.183
16244W        W88504  16.738  15.739   4.669
16245W        W88505  20.617  34.443   0.757
16246W        W88506  39.400  23.098   2.876
16247W        W88507  29.442   2.246   0.934
16248W        W88508  36.486  12.744   2.876
16249W        W88509  30.104  13.231   0.862
16250W        W88510  23.570  44.390   0.330
16251W        W88511  19.757  35.932   0.250
16252W        W88512  20.202  38.381   4.767
16253W        W88513  13.163  37.501  14.282
16254W        W88514  26.677  31.446  12.973
16255W        W88515   7.279  41.440  14.287
16256W        W88516   9.765   0.437   2.361
16257W        W88517   1.943  36.043   1.285
16258W        W88518  23.123  16.760   2.671
16259W        W88519  15.602   8.737   2.721
16260W        W88520  31.933  14.625  10.594
16261W        W88521  34.098  16.799   2.891
16262W        W88522  43.980  12.223  13.878
16263W        W88523  17.680  22.663  14.022
16264W        W88524  19.055   2.269   1.339
16265W        W88525  41.026  43.346   1.713
16266W        W88526  43.499   4.427  10.564
16267W        W88527  14.244  10.770  14.852
16268W        W88528  16.676  41.951  11.497
16269W        W88529  26.147  12.141  14.402
16270W        W88530   2.357  38.055  10.423
16271W        W88531  43.928   0.415   0.416
16272W        W88532  23.657  27.178  10.612
16273W        W88533  10.172   7.795   3.687
16274W        W88534   8.778  10.305  14.469
16275W        W88535  30.428   8.814   1.767
16276W        W88536   0.272  15.684   1.340
16277W        W88537  11.830  19.735  12.926
16278W        W88538   9.349  11.699   1.240
16279W        W88539  40.808  22.514  11.374
16280W        W88540  43.485  40.052   4.222
16281W        W88541   2.924   7.176  12.519
16282W        W88542   5.873  37.082  13.358
16283W        W88543   9.776  26.989  14.030
16284W        W88544   8.249  10.846   3.803
16285W        W88545  40.939  35.906  12.980
16286W        W88546  20.271  26.623  14.775
16287W        W88547   1.474  20.570  13.878
16288W        W88548  22.643  19.218   4.132
16289W        W88549  24.625  41.040  13.543
16290W        W88550  29.582  41.342   2.804
16291W        W88551  15.126   3.287  14.859
16292W        W88552  38.936   9.252  11.392
16293W        W88553  34.403  41.470  10.571
16294W        W88554  41.806  11.134   3.375
16295W        W88555  32.982  38.441  12.541
16296W        W88556  26.530  20.264  14.982
16297W        W88557   0.972   0.960   4.274
16298W        W88558   3.931  30.422  13.331
16299W        W88559   4.243  22.184  14.954
16300W        W88560  24.108  39.371  13.381
16301W        W88561  36.923  41.328  12.427
16302W        W88562  25.689  44.878   2.721
16303W        W88563  25.050  18.741   1.357
16304W        W88564  43.489   9.757  11.531
16305W        W88565  38.977  10.764  14.309
16306W        W88566   3.882  41.853   0.805
16307W        W88567  15.725  36.421  13.454
16308W        W88568  20.677  15.767   3.166
16309W        W88569  34.988   4.893   4.179
16310W        W88570   7.771  41.901   1.408
16311W        W88571   8.161  21.176   1.248
16312W        W88572  12.314  23.223  14.278
16313W        W88573  43.457  11.297  10.547
16314W        W88574  19.612  16.733  11.052
16315W        W88575  32.913  30.123   0.437
16316W        W88576  33.415  17.212   4.608
16317W        W88577   5.859  16.680  10.625
16318W        W88578   0.862   8.260   4.187
16319W        W88579   4.389  39.362  13.516
16320W        W88580  21.566  21.573  13.956
16321W        W88581  36.973  19.155  10.435
16322W        W88582  23.050   5.240  11.420
16323W        W88583  36.443  43.826  13.062
16324W        W88584  15.202  22.699   2.685
16325W        W88585  21.687  27.115  12.025
16326W        W88586  30.611  21.228   2.850
16327W        W88587  20.031   7.311  14.895
16328W        W88588  10.808  22.173  13.975
16329W        W88589  13.291   9.711   2.784
16330W        W88590  15.657  12.680  14.337
16331W        W88591   9.776  34.408  12.948
16332W        W88592  12.143  13.256   3.743
16333W        W88593   8.301  18.293   0.369
16334W        W88594  41.920  31.916  12.488
16335W        W88595  28.006  32.574   3.659
16336W        W88596  37.573  32.120   5.256
16337W        W88597  18.087  35.991  11.952
16338W        W88598   6.226   0.888   3.146
16339W        W88599  40.991   2.734  13.899
16340W        W88600  30.417  13.604  12.433
16341W        W88601  10.696  33.446  13.377
16342W        W88602   3.947   7.379   3.792
16343W        W88603   3.361  42.518   2.675
16344W        W88604  12.685  23.653   0.803
16345W        W88605  36.374  22.585   4.176
16346W        W88606  21.243  39.354  14.488
16347W        W88607  15.325  24.619   2.254
16348W        W88608  44.933  30.015   0.844
16349W        W88609  12.791  41.002  10.916
16350W        W88610   0.797  15.317  13.056
16351W        W88611  18.182   9.714   1.447
16352W        W88612  40.529  37.843   3.844
16353W        W88613  10.300  18.227   3.709
16354W        W88614  42.920  22.700  12.439
16355W        W88615  33.939   3.954  10.935
16356W        W88616   7.805  40.819   1.325
16357W        W88617  37.868  30.037   2.268
16358W        W88618  27.578   3.819   4.757
16359W        W88619  30.552  32.449   0.913
16360W        W88620  29.431  31.037   2.694
16361W        W88621  17.796  31.084  12.077
16362W        W88622  38.885  26.204  14.782
16363W        W88623  18.199  28.441  12.381
16364W        W88624  24.168  21.606  13.546
16365W        W88625  39.409  14.254  14.813
16366W        W88626  33.120  20.529  14.479
16367W        W88627  15.702  28.544   3.826
16368W        W88628   4.354  38.852  13.897
16369W        W88629   0.902  42.986  11.568
16370W        W88630  21.576  17.665   4.765
16371W        W88631  35.940   3.320   2.846
16372W        W88632  24.680  14.709   4.135
16373W        W88633   8.387  18.790   2.670
16374W        W88634   3.394  24.189  13.308
16375W        W88635  36.879  40.475   1.363
16376W        W88636  38.053  33.889   1.864
16377W        W88637  32.557  25.521  10.534
16378W        W88638  29.654  18.666   3.252
16379W        W88639   5.383   9.215   2.864
16380W        W88640   9.732  32.071  10.615
16381W        W88641  26.169   4.212   4.352
16382W        W88642  35.590  32.401   4.771
16383W        W88643  19.550   1.928   3.782
16384W        W88644  39.050   4.942  14.511
16385W        W88645  31.938  24.987   2.362
16386W        W88646  20.124  24.022  12.078
16387W        W88647   0.862  26.553  14.448
16388W        W88648  30.607   9.225  12.843
16389W        W88649   3.742  33.579   3.706
16390W        W88650  35.552   5.852   0.795
16391W        W88651  20.714  30.098  14.877
16392W        W88652  21.256  34.962  12.552
16393W        W88653  12.351  23.619  11.071
16394W        W88654   9.779  24.626   4.629
16395W        W88655  41.347  32.493   4.695
16396W        W88656  26.530  19.697  11.113
16397W        W88657  30.455   5.762   1.398
16398W        W88658   9.273  27.997  12.887
16399W        W88659   8.381  18.210  13.010
16400W        W88660  31.062  26.000  13.820
16401W        W88661  33.042  43.412  11.029
16402W        W88662  22.561   2.302   2.860
16403W        W88663  35.428  38.467   0.315
16404W        W88664   2.351  19.583  10.151
16405W        W88665  36.915  36.409  11.976
16406W        W88666  13.180   3.269   5.124
16407W        W88667  32.988  34.953  10.487
16408W        W88668  31.053  16.647  13.515
16409W        W88669  14.131  31.963  10.486
16410W        W88670  40.965  36.543  13.019
16411W        W88671  41.529  36.569  12.499
16412W        W88672  39.861   0.368  10.405
16413W        W88673  26.703  24.549  13.006
16414W        W88674  12.265  43.449   3.704
16415W        W88675  35.928  32.525  10.610
16416W        W88676  26.023  27.085   4.247
16417W        W88677  34.020  22.670   4.617
16418W        W88678  15.083  44.331   1.401
16419W        W88679  33.041  16.731   0.401
16420W        W88680  28.086  40.003   3.730
16421W        W88681  24.681  22.726  14.319
16422W        W88682  25.696  23.045   3.713
16423W        W88683  38.955  41.337   1.812
16424W        W88684  30.089  40.041   2.869
16425W        W88685   0.388  28.062   2.245
16426W        W88686  34.479  19.113   2.326
16427W        W88687  25.053  20.033  13.883
16428W        W88688  16.616  41.448   4.783
16429W        W88689  22.722  25.620   3.725
16430W        W88690  18.784  31.569  10.536
16431W        W88691  40.310  21.126  14.007
16432W        W88692  18.688   0.850  11.551
16433W        W88693  22.722  42.838  10.433
16434W        W88694  34.119  24.154  10.948
16435W        W88695  11.718   3.247  13.806
16436W        W88696  30.079   2.255  10.446
16437W        W88697   2.409   3.915  13.908
16438W        W88698  28.679  21.676   0.911
16439W        W88699   2.466   2.470   0.453
16440W        W88700  44.501   6.398   4.223
16441W        W88701  34.525  20.213  14.286
16442W        W88702  19.277  29.938  12.003
16443W        W88703  35.911  29.084  14.510
16444W        W88704  40.333   5.328   0.816
16445W        W88705  31.449  24.599   3.756
16446W        W88706  37.896  22.642  14.400
16447W        W88707  42.393   9.643  11.380
16448W        W88708  23.592   4.350  14.507
16449W        W88709   9.802  16.271  13.408
16450W        W88710  12.631  41.999  10.599
16451W        W88711   3.276  34.111   3.645
16452W        W88712  29.498  14.311  10.138
16453W        W88713  14.615  34.037  13.469
16454W        W88714  23.165  13.290   0.828
16455W        W88715   0.892  13.753  14.008
16456W        W88716  26.064  37.493   1.318
16457W        W88717  30.529  10.729   4.203
16458W        W88718  31.045  22.717   4.213
16459W        W88719   6.201  35.066  13.022
16460W        W88720  18.593  43.411  14.449
16461W        W88721  25.143  23.584   1.811
16462W        W88722   7.307   1.786   0.950
16463W        W88723  29.981  18.574   1.904
16464W        W88724  10.836  23.611  14.904
16465W        W88725  42.376  34.447  10.456
16466W        W88726  28.454  21.177  12.067
16467W        W88727  16.734  30.610   1.316
16468W        W88728  16.081  36.571   2.766
16469W        W88729   3.264  40.516   0.253
16470W        W88730   0.933  22.193   3.205
16471W        W88731  19.110  11.303   2.796
16472W        W88732  29.588  21.248   3.704
16473W        W88733  23.160   7.201   1.242
16474W        W88734   6.281  24.148   1.406
16475W        W88735  19.204   5.697   9.451
16476W        W88736   9.206  37.430   2.306
16477W        W88737  13.173  35.530  14.439
16478W        W88738   0.789  37.539  14.783
16479W        W88739  37.044  19.219   9.467
16480W        W88740  42.023  33.395  12.349
16481W        W88741   7.229  15.626   0.874
16482W        W88742   1.408  43.020   4.149
16483W        W88743  15.807  41.992   4.262
16484W        W88744  29.096  17.631   3.162
16485W        W88745  35.500  36.860  11.065
16486W        W88746  39.501  11.633  10.066
16487W        W88747  25.677  41.495  12.399
16488W        W88748   2.835  28.951   1.350
16489W        W88749   4.439   0.254   0.339
16490W        W88750   7.870  31.527  11.997
16491W        W88751  34.914  29.027   0.813
16492W        W88752   0.492  17.555   1.908
16493W        W88753  41.440   1.402   3.815
16494W        W88754  21.633  39.814  12.532
16495W        W88755  13.227  23.603  14.300
16496W        W88756   1.439   0.461  14.432
16497W        W88757  28.556  43.930   4.833
16498W        W88758   5.897   8.813  13.377
16499W        W88759  28.149  12.834   3.159
16500W        W88760  36.429  19.052  11.127
16501W        W88761   1.868   5.216  14.311
16502W        W88762   3.423  37.576  13.874
16503W        W88763  14.789  11.341   2.279
16504W        W88764  21.106  14.183   4.215
16505W        W88765   9.688   3.951   4.123
16506W        W88766   8.765  16.278   4.318
16507W        W88767  25.130  15.802   1.259
16508W        W88768  17.774  34.448   1.279
16509W        W88769  10.758  12.805  11.974
16510W        W88770  31.070   5.703  14.353
16511W        W88771  26.969  14.229  12.026
16512W        W88772   5.802  28.173   5.639
16513W        W88773  17.699   2.438   4.202
16514W        W88774  11.177  21.241  12.093
16515W        W88775  44.759  23.235  14.514
16516W        W88776   3.458  12.834  14.949
16517W        W88777  16.631  17.626  14.998
16518W        W88778  38.822   0.422   3.725
16519W        W88779  23.599   9.690   0.266
16520W        W88780  38.540  36.590   3.207
16521W        W88781  15.260  19.201  10.597
16522W        W88782  20.126  41.458   2.316
16523W        W88783  34.467  28.530  13.833
16524W        W88784   4.788  40.804   2.807
16525W        W88785  26.634  29.668  10.633
16526W        W88786  20.534  23.076   3.655
16527W        W88787   5.928   2.369  13.373
16528W        W88788  42.426  10.637  13.926
16529W        W88789  43.453  24.047   2.712
16530W        W88790  37.398  32.489  12.866
16531W        W88791  22.743  28.630  11.900
16532W        W88792  28.475  15.317  13.891
16533W        W88793  15.297   4.374   2.704
16534W        W88794  19.630  38.947  12.869
16535W        W88795  18.564  18.232   3.830
16536W        W88796  23.495  39.391   2.350
16537W        W88797  43.337  32.481   1.295
16538W        W88798  18.162  26.689   0.332
16539W        W88799  40.537  24.714   1.415
16540W        W88800  12.271  33.554  12.545
16541W        W88801   4.340   1.964   3.707
16542W        W88802  25.141  39.376   0.902
16543W        W88803  22.538  30.119   2.870
16544W        W88804  24.478  44.782   2.268
16545W        W88805   9.739  21.106  12.834
16546W        W88806  21.168  38.939  10.577
16547W        W88807   9.710  36.041  12.030
16548W        W88808  19.687   1.848   1.389
16549W        W88809  18.287  35.929  10.584
16550W        W88810  37.429  24.524   1.355
16551W        W88811  10.289   1.336  13.364
16552W        W88812   1.416  22.218   4.294
16553W        W88813  39.455  39.396  12.836
16554W        W88814   6.214  32.635  13.819
16555W        W88815  32.131  43.813   2.729
16556W        W88816  11.314  24.700  10.429
16557W        W88817  29.009   9.201  11.400
16558W        W88818  41.973  21.254   4.723
16559W        W88819   7.394  31.554   1.216
16560W        W88820  32.063  35.581  13.798
16561W        W88821  18.719  17.796  14.881
16562W        W88822  33.033  38.877   4.641
16563W        W88823  20.228  21.171   3.812
16564W        W88824  10.724   6.854   2.831
16565W        W88825  18.778  24.539  14.940
16566W        W88826  15.192  26.482  12.998
16567W        W88827  31.567  42.899  11.429
16568W        W88828   2.318   7.221  11.441
16569W        W88829  40.883  21.026   0.781
16570W        W88830  20.240  41.422   4.699
16571W        W88831  29.583  29.082   9.955
16572W        W88832   3.755  25.572  14.507
16573W        W88833   7.283  37.044  13.048
16574W        W88834  36.448  38.511  12.349
16575W        W88835  37.910  23.222  13.404
16576W        W88836   2.887  21.540   3.755
16577W        W88837   1.453  32.608  13.810
16578W        W88838  30.622   9.212  12.021
16579W        W88839  24.537  40.850   4.223
16580W        W88840  42.805   5.235  13.955
16581W        W88841  19.065  42.410   3.818
16582W        W88842  32.429  30.485   2.418
16583W        W88843  40.539  35.439  11.888
16584W        W88844  36.080  12.360  10.619
16585W        W88845  12.802   5.838  11.557
16586W        W88846   1.264   3.269  13.362
16587W        W88847  30.492   4.771  14.946
16588W        W88848  39.826  15.716   4.806
16589W        W88849  31.989  19.267   1.398
16590W        W88850   8.255  17.607   4.130
16591W        W88851   7.844  25.477   4.662
16592W        W88852  13.824  13.725  12.015
16593W        W88853  41.341   6.229   3.352
16594W        W88854   5.834   8.243  14.304
16595W        W88855  36.856   1.386  11.122
16596W        W88856   1.256   5.207   1.226
16597W        W88857  12.837  44.430  14.334
16598W        W88858  21.194  23.199  10.421
16599W        W88859  18.148  40.894   3.214
16600W        W88860   0.847  17.284   0.770
16601W        W88861   2.301   7.745  12.396
16602W        W88862   1.859  12.345  13.829
16603W        W88863  38.530   5.919   4.792
16604W        W88864  12.737  19.544  13.324
16605W        W88865  38.391  21.709  13.899
16606W        W88866  25.566  30.925  11.095
16607W        W88867  25.590  17.764   4.233
16608W        W88868  33.875  39.497   3.298
16609W        W88869   7.834   0.824   3.205
16610W        W88870  42.323  26.983  10.980
16611W        W88871  10.684  24.977   5.168
16612W        W88872   5.332   6.379  11.409
16613W        W88873  15.710   6.841  13.912
16614W        W88874  25.040  18.789  13.546
16615W        W88875   9.874  38.471  14.955
16616W        W88876  25.034  42.336   5.794
16617W        W88877  21.089  27.161   1.725
16618W        W88878  34.573  44.787  14.358
16619W        W88879  33.503  36.081   4.137
16620W        W88880   3.341  27.170  13.867
16621W        W88881  36.093   0.313  10.404
16622W        W88882  20.207  29.579   2.218
16623W        W88883  40.462  25.001  12.895
16624W        W88884   7.867  23.100   3.217
16625W        W88885  12.222  10.215  12.456
16626W        W88886   6.886  14.143   2.796
16627W        W88887  18.711   8.335   0.917
16628W        W88888  32.952  14.137   4.224
16629W        W88889  36.536   6.284  10.095
16630W        W88890  21.720  30.458  13.456
16631W        W88891  40.819  28.556  10.411
16632W        W88892  15.215  23.633  14.795
16633W        W88893  13.213   3.834   4.725
16634W        W88894  14.668  44.287   2.862
16635W        W88895  36.082   8.305   1.869
16636W        W88896  22.081  13.138   2.251
16637W        W88897  15.262  34.438  11.533
16638W        W88898  15.116  37.493  13.926
16639W        W88899   2.252  11.816  12.458
16640W        W88900  42.009  21.730   2.891
16641W        W88901  22.737  32.994  11.883
16642W        W88902  24.125  31.565   0.243
16643W        W88903  25.971  19.737   3.735
16644W        W88904  20.591  13.247   2.302
16645W        W88905  24.034  13.648   0.844
16646W        W88906  32.481   0.960  12.836
16647W        W88907  19.080  16.653  12.940
16648W        W88908  13.125   3.955   0.754
16649W        W88909  39.338  44.349   0.891
16650W        W88910  35.397  19.772   3.679
16651W        W88911   9.324   2.789  10.915
16652W        W88912   3.766  41.360  12.007
16653W        W88913  31.594  26.688   2.397
16654W        W88914  38.938  36.412  10.636
16655W        W88915  25.144  22.669  11.596
16656W        W88916   2.340  28.113   5.323
16657W        W88917  44.437   7.384  11.419
16658W        W88918  12.332  22.646  14.356
16659W        W88919   4.444   0.848  11.906
16660W        W88920  20.693  20.226   2.402
16661W        W88921  26.468  31.522   2.893
16662W        W88922   1.463  17.068   4.297
16663W        W88923   2.398  16.780  11.496
16664W        W88924  34.515  41.396   1.275
16665W        W88925  15.615  20.588   1.816
16666W        W88926  11.335  33.408   2.739
16667W        W88927  27.674   7.806   4.265
16668W        W88928   6.377   2.364  13.809
16669W        W88929  19.766   3.336   2.823
16670W        W88930  27.104  18.642   1.884
16671W        W88931  28.624  35.093  10.943
16672W        W88932  41.794   5.222  13.851
16673W        W88933  26.954   3.397   1.333
16674W        W88934  44.878  17.286  12.955
16675W        W88935  32.136  25.124   4.799
16676W        W88936  36.559  25.989   4.739
16677W        W88937  21.130  19.166   2.404
16678W        W88938  35.967   9.167   4.183
16679W        W88939  25.209  19.240   4.806
16680W        W88940  35.592  11.678  12.426
16681W        W88941  40.984  12.238   3.733
16682W        W88942  25.102  35.469   1.354
16683W        W88943  27.150   0.855  13.799
16684W        W88944  41.845   9.256   3.790
16685W        W88945  12.307  29.024   1.717
16686W        W88946  15.588   4.396  12.876
16687W        W88947  11.841  24.040   0.390
16688W        W88948   3.784  41.031   2.737
16689W        W88949   0.279  15.597  14.899
16690W        W88950  15.753  15.790  13.947
16691W        W88951  30.487  37.424  12.511
16692W        W88952   8.305   1.413  11.976
16693W        W88953   1.858  16.724  12.492
16694W        W88954  17.782  23.633  13.060
16695W        W88955  33.107  10.171  10.491
16696W        W88956  30.453   2.818   2.767
16697W        W88957  19.654   4.366  12.976
16698W        W88958  43.943  35.504  11.938
16699W        W88959  15.767  25.570   2.820
16700W        W88960  42.884  14.671   2.731
16701W        W88961  26.654  13.619  13.028
16702W        W88962  10.654  41.304  11.082
16703W        W88963  42.848   6.401   3.818
16704W        W88964  19.160  38.466   1.300
16705W        W88965   9.312  17.289  11.605
16706W        W88966  23.016  29.173  10.924
16707W        W88967  43.868  13.118   4.784
16708W        W88968  24.698  26.083   3.212
16709W        W88969  21.031  24.048  11.575
16710W        W88970  24.649  34.043  11.106
16711W        W88971  13.315  43.365  12.079
16712W        W88972  21.535  31.483   1.236
16713W        W88973   0.844  34.868  11.570
16714W        W88974  10.808  13.181  14.974
16715W        W88975  43.311  14.616   2.850
16716W        W88976  18.086   5.850  11.479
16717W        W88977  10.650  40.420  14.356
16718W        W88978  42.975  43.865  11.977
16719W        W88979  44.951  16.691   1.353
16720W        W88980  35.518  34.433  12.472
16721W        W88981  40.798  22.523  11.859
16722W        W88982  19.574  11.320   4.352
16723W        W88983  35.544   0.885   4.818
16724W        W88984  41.489  39.505  11.022
16725W        W88985   8.841  40.332  11.905
16726W        W88986  27.074   1.376   2.849
16727W        W88987  37.554   3.954   3.642
16728W        W88988  30.577   7.299  14.450
16729W        W88989   0.415  31.552  14.308
16730W        W88990  21.231   4.318  14.872
16731W        W88991  32.488   0.858  14.286
16732W        W88992  19.779  31.998   1.775
16733W        W88993   2.875  35.360  14.017
16734W        W88994  27.135  40.336  14.891
16735W        W88995  19.647  35.960   2.223
16736W        W88996  26.159   3.926   2.662
16737W        W88997  29.600   8.314   3.791
16738W        W88998  39.979  23.110   3.341
16739W        W88999  32.635  36.081  14.829
16740W        W89000   9.801  13.791  14.990
16741W        W89001  28.652  32.635   0.919
16742W        W89002   6.193  19.591   0.907
16743W        W89003  16.235  44.880   3.700
16744W        W89004   3.321  19.717   4.816
16745W        W89005  34.088  22.525  14.842
16746W        W89006  12.624  21.141   2.317
16747W        W89007  13.294  18.289  13.829
16748W        W89008   0.267  26.982  10.967
16749W        W89009  11.152   8.889   0.328
16750W        W89010  30.112   7.387  12.469
16751W        W89011  16.801  11.132  12.980
16752W        W89012  11.248   9.846   1.419
16753W        W89013  29.128  44.452   4.700
16754W        W89014  43.400  21.142   1.872
16755W        W89015  42.928  24.002  12.564
16756W        W89016   9.248   8.361   4.142
16757W        W89017  25.096  42.018   2.346
16758W        W89018   1.355  12.247  13.517
16759W        W89019  29.114   9.804  12.356
16760W        W89020  12.687  44.490   0.272
16761W        W89021  28.108  13.311   1.742
16762W        W89022   1.332   0.966   0.347
16763W        W89023  28.591  21.259  11.054
16764W        W89024  29.054  19.561  11.557
16765W        W89025   1.855  15.760   0.923
16766W        W89026   0.343   7.269   0.302
16767W        W89027  25.162   3.726  12.067
16768W        W89028  28.943  26.512  14.404
16769W        W89029  18.195  40.329   2.326
16770W        W89030   4.901  23.217   3.383
16771W        W89031  42.385  41.974   3.815
16772W        W89032  23.506  41.410  12.081
16773W        W89033   1.437  28.559  14.839
16774W        W89034  26.070  37.070   4.751
16775W        W89035  21.687  40.374   2.793
16776W        W89036  28.102   3.942   2.245
16777W        W89037  38.489   2.728   2.876
16778W        W89038  25.039  26.515  11.012
16779W        W89039  35.970  41.836  12.886
16780W        W89040  26.506   2.341   3.812
16781W        W89041   9.391   0.494   1.218
16782W        W89042  39.495  39.004  12.066
16783W        W89043   5.800  24.999   2.870
16784W        W89044  39.462   9.780  10.506
16785W        W89045  35.956   9.177   3.229
16786W        W89046  36.568  10.333  11.040
16787W        W89047  36.538  34.049   4.304
16788W        W89048  10.313  14.257   0.826
16789W        W89049   9.740  31.620  14.295
16790W        W89050  41.534  36.902  11.060
16791W        W89051  16.672  12.235  10.919
16792W        W89052  27.547   9.838   2.739
16793W        W89053   0.442  33.009   4.653
16794W        W89054  25.991  17.601  14.978
16795W        W89055   5.202  33.422   0.270
16796W        W89056  26.079  25.623   0.398
16797W        W89057   0.801  10.766  10.116
16798W        W89058  26.542  27.072   3.232
16799W        W89059  36.406  20.111   1.784
16800W        W89060   8.399  44.911  13.888
16801W        W89061  18.259  29.614  12.387
16802W        W89062  37.972   2.770  14.387
16803W        W89063  35.439   2.406  11.956
16804W        W89064  21.084  36.059   3.725
16805W        W89065  36.876  19.263  14.800
16806W        W89066   0.784   4.809  12.990
16807W        W89067  21.536  21.687   3.748
16808W        W89068  11.238  24.563   4.266
16809W        W89069  44.864   1.316  14.981
16810W        W89070  16.786   2.448  13.456
16811W        W89071  26.965  32.588  14.999
16812W        W89072  11.632  38.059   3.274
16813W        W89073   9.870  44.303   0.356
16814W        W89074   0.444  12.224   2.897
16815W        W89075   7.798  37.994   0.749
16816W        W89076   7.720   5.245  14.430
16817W        W89077  24.199  12.640  14.913
16818W        W89078  42.903  28.465   0.766
16819W        W89079   3.749  19.686  11.071
16820W        W89080  38.899  21.689   2.704
16821W        W89081  44.820  40.458  10.910
16822W        W89082  35.375  37.437  14.783
16823W        W89083  29.667   3.797   2.870
16824W        W89084  28.031  18.119   2.213
16825W        W89085  26.639  11.205   0.771
16826W        W89086  30.971   1.914   3.301
16827W        W89087  33.058  35.898  14.975
16828W        W89088  31.943   9.648  12.554
16829W        W89089   1.440  14.715  13.498
16830W        W89090  24.082  41.295   4.677
16831W        W89091  43.949  23.016  11.005
16832W        W89092  24.717  34.396  13.540
16833W        W89093  19.776  35.481  10.434
16834W        W89094  15.100   4.846   0.820
16835W        W89095  12.718   6.743   0.752
16836W        W89096  39.475  28.655   0.839
16837W        W89097  40.447  42.787  11.452
16838W        W89098  43.849  18.662   2.697
16839W        W89099  39.942  17.247   2.844
16840W        W89100   1.359  15.600   2.196
16841W        W89101  23.135  15.639  14.414
16842W        W89102  27.164  10.239  11.494
16843W        W89103  38.930   5.330  11.583
16844W        W89104  40.441  21.710   1.715
16845W        W89105   6.761  30.004   2.713
16846W        W89106   6.303  30.613   4.738
16847W        W89107   9.843  13.226  13.370
16848W        W89108  39.903   1.469   3.357
16849W        W89109  34.505   0.262   2.802
16850W        W89110  15.789  39.839  13.992
16851W        W89111  26.694  26.183   3.676
16852W        W89112  14.239  33.980   4.282
16853W        W89113  24.138   7.707  13.369
16854W        W89114  13.610  39.382  12.833
16855W        W89115  43.931  40.308  13.388
16856W        W89116  34.564   0.952  12.517
16857W        W89117  43.874  25.023  11.481
16858W        W89118  10.169  12.716   1.258
16859W        W89119   8.659  41.902   2.202
16860W        W89120  28.096  14.620   1.816
16861W        W89121  36.932  39.973  13.877
16862W        W89122  36.904  13.600   3.180
16863W        W89123  24.528  29.483   0.927
16864W        W89124  27.169  27.048  13.432
16865W        W89125   0.484   0.851  13.377
16866W        W89126  15.171  30.049   2.813
16867W        W89127  37.004  18.559   2.297
16868W        W89128  42.943  37.010  11.466
16869W        W89129  25.605  33.949  13.429
16870W        W89130   8.376  29.100  14.996
16871W        W89131   0.833  31.507  14.277
16872W        W89132  31.908   6.684   4.647
16873W        W89133  36.843  11.269  13.883
16874W        W89134  16.271  21.053   3.744
16875W        W89135  14.156   4.371  14.423
16876W        W89136  13.200  12.785   4.265
16877W        W89137  20.528  44.402  14.458
16878W        W89138  12.345  15.812  12.840
16879W        W89139   1.858  16.795  10.494
16880W        W89140  28.970  43.282  12.966
16881W        W89141   4.325   3.415  14.305
16882W        W89142  30.619  28.110   4.610
16883W        W89143   2.848  31.525   4.337
16884W        W89144  32.045  43.904   1.883
16885W        W89145  44.829  28.575  13.938
16886W        W89146   8.329  24.081  11.095
16887W        W89147  18.555  27.664  11.050
16888W        W89148  22.018   6.315  11.070
16889W        W89149  19.068  26.038  11.486
16890W        W89150   0.487  41.410  12.900
16891W        W89151   4.442  36.933  13.324
16892W        W89152   6.406  17.207   5.229
16893W        W89153   8.758  17.727   2.360
16894W        W89154  16.733   9.231   3.793
16895W        W89155  29.575   5.883  14.499
16896W        W89156  12.752  26.702   3.760
16897W        W89157  42.965  35.043   0.460
16898W        W89158  11.276   7.871  13.414
16899W        W89159  19.253  19.758  13.064
16900W        W89160  15.697  17.748   4.621
16901W        W89161  36.983  13.115  11.430
16902W        W89162  35.509  24.581  12.349
16903W        W89163  20.271  19.624  13.361
16904W        W89164   2.824  33.075  12.947
16905W        W89165  42.862  11.157   1.238
16906W        W89166  37.907  39.500  12.033
16907W        W89167  26.521  35.442  13.062
16908W        W89168  22.500  43.498  13.359
16909W        W89169  18.733  10.319  13.514
16910W        W89170  14.612  41.824  11.070
16911W        W89171  36.590  26.188   4.322
16912W        W89172  41.526  27.994   4.736
16913W        W89173   7.312   9.887  11.512
16914W        W89174  38.939  42.448  13.377
16915W        W89175   6.398   3.379  11.446
16916W        W89176  38.000  36.875  13.352
16917W        W89177   6.188  14.644   1.778
16918W        W89178  15.124  24.594   0.426
16919W        W89179  16.669  10.340  11.532
16920W        W89180  19.567  42.436  10.991
16921W        W89181  29.582  40.996  12.552
16922W        W89182  17.196  18.109   4.609
16923W        W89183   0.932   6.765   0.902
16924W        W89184  29.071   6.743  12.969
16925W        W89185  39.999  22.069   4.621
16926W        W89186  29.985  41.389  11.427
16927W        W89187  44.331  33.891   4.353
16928W        W89188  20.065   2.768  11.383
16929W        W89189   2.761  13.838   3.254
16930W        W89190  44.433  42.903  13.307
16931W        W89191   3.718  27.578  11.951
16932W        W89192  37.004   1.945  12.546
16933W        W89193  26.032  32.065   2.707
16934W        W89194  41.477  32.090  12.422
16935W        W89195  14.709  14.319   2.389
16936W        W89196  36.885  23.546  10.463
16937W        W89197  27.458  22.078  14.475
16938W        W89198  28.462  15.687   3.638
16939W        W89199  18.270  43.334   0.429
16940W        W89200   8.400  36.951  11.108
16941W        W89201  13.769   6.773   4.282
16942W        W89202   2.325  27.473   0.291
16943W        W89203  16.090  42.871   2.779
16944W        W89204  14.756  24.083  10.489
16945W        W89205  28.635  11.751   0.761
16946W        W89206  32.092   3.739   1.427
16947W        W89207   8.727  41.408  11.497
16948W        W89208  33.900  38.492  12.550
16949W        W89209   4.937  25.662   4.282
16950W        W89210   2.275  13.770  11.917
16951W        W89211  21.189   1.894  14.784
16952W        W89212  14.266  14.189   4.122
16953W        W89213  30.961  29.004  12.473
16954W        W89214   1.915  22.531   3.337
16955W        W89215  13.299   8.699  10.432
16956W        W89216  35.905  34.615  11.060
16957W        W89217   6.413  18.198   1.221
16958W        W89218  35.022   8.393  12.071
16959W        W89219  29.991  10.355  14.758
16960W        W89220  35.568   1.330  13.401
16961W        W89221  39.855  10.832   3.348
16962W        W89222  22.722  41.395  12.530
16963W        W89223  42.988  43.951   0.248
16964W        W89224  40.803  42.526  12.368
16965W        W89225  21.529  19.075   3.816
16966W        W89226   8.220  20.042   3.322
16967W        W89227   8.211  28.445  13.389
16968W        W89228  41.535  32.533   2.738
16969W        W89229  34.014  15.696   1.264
16970W        W89230  29.439  14.281   4.285
16971W        W89231  14.806  27.481   1.315
16972W        W89232  38.926  41.981   0.280
16973W        W89233  12.673  27.640  14.288
16974W        W89234  29.950  24.225   4.249
16975W        W89235   5.725  23.094  10.575
16976W        W89236   1.797  11.729  12.050
16977W        W89237  44.471  35.955   3.148
16978W        W89238  13.726  29.521  11.511
16979W        W89239  28.101  10.738  12.433
16980W        W89240  11.655  18.700  12.862
16981W        W89241  29.013   2.950   1.808
16982W        W89242  43.914  18.631  14.504
16983W        W89243   3.875  17.068  11.020
16984W        W89244  19.558  43.802   4.743
16985W        W89245   2.269  40.305  11.057
16986W        W89246  21.073  40.414   3.774
16987W        W89247   3.461  26.459  14.828
16988W        W89248   2.288  17.788  11.512
16989W        W89249  24.064  19.535  14.786
16990W        W89250  28.023  12.144  11.550
16991W        W89251  30.625   5.294   3.347
16992W        W89252   9.771   0.815  13.883
16993W        W89253  38.035   8.885  12.408
16994W        W89254   4.214  41.928   3.771
16995W        W89255  29.635   0.369   0.792
16996W        W89256  17.134   6.231  12.003
16997W        W89257  33.073  11.670  14.388
16998W        W89258   5.258  35.413  13.450
16999W        W89259  15.736  31.505   3.725
17000W        W89260  42.320  23.006   2.713
17001W        W89261  40.880   2.413   0.896
17002W        W89262  44.354   2.911  14.486
17003W        W89263  44.892   5.768   1.257
17004W        W89264  38.440  30.122  11.967
17005W        W89265   0.493  44.000  13.324
17006W        W89266   0.862  18.282  13.547
17007W        W89267  11.163  44.327   4.837
17008W        W89268  26.605   6.861   4.640
17009W        W89269  39.007  24.132   3.807
17010W        W89270   2.720   3.823  13.991
17011W        W89271  24.526  39.461  11.006
17012W        W89272   9.199  27.518   2.682
17013W        W89273  35.598   6.244   2.782
17014W        W89274  13.832  43.472  10.950
17015W        W89275  30.104  12.357  11.027
17016W        W89276  25.075  39.555  10.438
17017W        W89277   4.728  37.575  13.819
17018W        W89278   4.353   8.364  12.388
17019W        W89279  38.504   8.226  13.885
17020W        W89280  36.435   9.346   0.811
17021W        W89281  15.155   1.845  14.827
17022W        W89282  25.535  14.690  12.866
17023W        W89283  26.973  22.175  14.838
17024W        W89284  35.905   8.786   1.827
17025W        W89285  31.923   3.800   3.258
17026W        W89286  39.392   9.748   1.865
17027W        W89287  41.941  19.700  11.012
17028W        W89288  32.971  32.554   4.749
17029W        W89289   8.194   0.941  10.476
17030W        W89290  37.568  24.543   2.252
17031W        W89291  19.098  33.112  14.868
17032W        W89292  22.526   5.232  12.915
17033W        W89293  25.987  44.475   2.408
17034W        W89294  22.566  44.394  11.880
17035W        W89295  44.983  16.639   3.340
17036W        W89296  17.577  12.288  11.491
17037W        W89297  27.674  18.223   0.408
17038W        W89298  38.955  25.636  12.425
17039W        W89299  37.452  30.616   0.907
17040W        W89300  10.671  32.128   3.766
17041W        W89301  38.438   4.878   2.356
17042W        W89302  40.902  22.227  11.598
17043W        W89303  16.631  34.088   4.319
17044W        W89304  13.231  12.148   2.763
17045W        W89305  23.542  22.562  10.537
17046W        W89306  42.433   3.771   1.230
17047W        W89307  44.400  40.431   1.720
17048W        W89308  39.529   6.864  11.484
17049W        W89309  39.459  30.490   2.314
17050W        W89310  42.497   7.368   4.203
17051W        W89311  19.159  14.203  13.374
17052W        W89312  17.602   8.889  14.877
17053W        W89313   2.290  36.902  13.520
17054W        W89314  11.192  36.406   0.892
17055W        W89315  41.442  21.055  13.438
17056W        W89316  13.707  13.677  14.313
17057W        W89317  33.536  18.746  10.094
17058W        W89318  17.265  17.594  14.804
17059W        W89319  38.832  29.972  13.938
17060W        W89320   9.353  19.631   1.301
17061W        W89321  27.538   6.851   3.199
17062W        W89322  13.635  21.561  13.488
17063W        W89323  32.391  34.381  11.066
17064W        W89324  27.090  40.321   3.269
17065W        W89325  42.323  28.621   0.258
17066W        W89326  43.494  13.290  13.470
17067W        W89327  25.081  33.437   3.370
17068W        W89328   6.379   5.867   1.724
17069W        W89329  16.175  15.731  11.965
17070W        W89330   3.736  30.969  11.510
17071W        W89331  33.101  16.712   3.817
17072W        W89332  13.342   5.867  10.987
17073W        W89333   3.309  17.180   1.411
17074W        W89334  22.068  42.918   3.838
17075W        W89335  30.965   6.396  14.902
17076W        W89336  33.414  44.823   1.851
17077W        W89337  17.682  12.176  13.807
17078W        W89338  37.577  41.016  10.989
17079W        W89339  33.620  15.269  14.350
17080W        W89340  21.587   5.417  11.602
17081W        W89341  17.731  43.846   1.744
17082W        W89342  27.131  25.551   1.246
17083W        W89343  41.028  40.425  11.404
17084W        W89344  24.604  16.305   2.306
17085W        W89345  37.435  33.400   3.229
17086W        W89346   1.456  11.789  11.604
17087W        W89347  18.575  17.740   3.653
17088W        W89348  33.402  34.421  12.055
17089W        W89349  24.655  33.426  14.339
17090W        W89350  14.289   7.264   3.289
17091W        W89351   4.826  43.384  13.933
17092W        W89352  31.631  10.285  13.852
17093W        W89353  28.590  14.711   2.812
17094W        W89354  12.615  31.534   1.923
17095W        W89355  18.731  16.737   0.389
17096W        W89356   5.358  33.546  13.827
17097W        W89357   3.896   8.327  12.394
17098W        W89358  39.395  30.412   1.347
17099W        W89359  15.621   1.290  12.052
17100W        W89360  30.121  23.587  10.422
17101W        W89361   5.391  34.082  13.448
17102W        W89362  12.754  32.431  12.423
17103W        W89363  21.150  20.237   2.707
17104W        W89364  26.991  43.996  14.510
17105W        W89365  24.505  24.212  12.887
17106W        W89366  19.686  42.522   3.373
17107W        W89367  27.556  43.811  11.429
17108W        W89368  31.040  11.809   1.701
17109W        W89369  44.374  12.746  10.492
17110W        W89370  38.956  10.671  14.900
17111W        W89371  31.129  11.767   1.415
17112W        W89372  13.665  44.326  14.405
17113W        W89373  43.358   1.368   0.475
17114W        W89374  42.484  17.184   3.722
17115W        W89375  19.738  41.951  12.577
17116W        W89376  36.515  17.559   0.780
17117W        W89377  40.431  14.276  14.307
17118W        W89378  27.983   2.723   4.731
17119W        W89379  30.603  31.927   9.607
17120W        W89380  10.787  14.104  13.852
17121W        W89381  12.794  18.634  10.604
17122W        W89382  10.263  24.984   4.168
17123W        W89383   5.767  42.286  13.355
17124W        W89384  24.216  42.858  11.027
17125W        W89385  30.069  36.427  14.962
17126W        W89386  21.675  40.878   4.313
17127W        W89387  24.599  10.676   1.307
17128W        W89388  33.494   5.271  11.597
17129W        W89389  14.112  11.805   0.392
17130W        W89390  41.041  13.137   0.834
17131W        W89391  32.003  26.041  12.507
17132W        W89392  17.113  26.960  13.889
17133W        W89393  23.171  33.129   4.792
17134W        W89394  27.087  33.904  11.009
17135W        W89395   6.725  31.915   3.752
17136W        W89396  35.087  43.515  12.385
17137W        W89397  34.542  21.745  14.770
17138W        W89398  31.038  35.458  13.027
17139W        W89399  42.464  18.265   4.221
17140W        W89400  37.544   7.414   2.797
17141W        W89401   7.209  12.211   1.753
17142W        W89402  23.717   2.451  11.033
17143W        W89403   5.409  44.834  11.067
17144W        W89404   9.163  43.881   3.184
17145W        W89405  19.605  15.737  11.918
17146W        W89406   1.784  24.101   2.380
17147W        W89407   1.248  21.636   0.737
17148W        W89408   9.838  32.934  13.014
17149W        W89409  33.429   8.770  13.347
17150W        W89410   4.339  43.014   2.688
17151W        W89411  44.417  25.177  14.418
17152W        W89412  22.147   3.788  10.999
17153W        W89413  40.021  24.101   0.361
17154W        W89414  42.467  35.509  13.812
17155W        W89415  31.903   2.311  12.038
17156W        W89416  11.157  24.981  12.480
17157W        W89417  33.984  43.457  12.425
17158W        W89418  35.385  44.378   0.764
17159W        W89419  17.801  23.214   0.434
17160W        W89420  24.527   2.825  13.368
17161W        W89421   4.800  20.731  10.641
17162W        W89422  17.150   1.821   2.258
17163W        W89423  29.945  39.978   1.384
17164W        W89424   2.239  18.628   4.787
17165W        W89425  37.043  26.174  13.018
17166W        W89426  29.508  42.316   4.782
17167W        W89427   5.365  40.386   2.343
17168W        W89428  35.397   0.330   3.329
17169W        W89429   6.312  44.416  10.534
17170W        W89430  42.433  30.656   2.319
17171W        W89431  41.316  33.574  14.898
17172W        W89432   7.311  13.108   0.890
17173W        W89433  15.672  10.696  11.994
17174W        W89434  10.272  20.688  11.427
17175W        W89435  37.399  39.024   3.732
17176W        W89436   8.690  33.904   3.214
17177W        W89437  29.636  32.045  12.419
17178W        W89438   2.964  13.231   2.284
17179W        W89439  22.118  28.144   4.311
17180W        W89440  15.773  11.274   1.328
17181W        W89441   4.229  21.679   3.289
17182W        W89442   8.382   2.334   2.853
17183W        W89443  29.476  39.056  10.417
17184W        W89444  24.672  15.801   1.425
17185W        W89445  31.416  31.958  12.496
17186W        W89446  31.419   4.705   3.218
17187W        W89447  40.489  31.060  10.981
17188W        W89448  26.639  22.629   2.187
17189W        W89449   2.432  35.072   0.267
17190W        W89450  39.499  43.778   2.693
17191W        W89451  39.048  15.272   2.313
17192W        W89452  25.031  26.040   3.818
17193W        W89453  32.417   5.336  10.470
17194W        W89454  40.454   3.730  11.472
17195W        W89455   9.732  16.796   4.836
17196W        W89456  10.848  21.662   4.822
17197W        W89457   5.347  31.955   4.686
17198W        W89458  36.580  12.168  13.974
17199W        W89459  19.159   1.343   3.639
17200W        W89460  14.611  37.001  12.053
17201W        W89461   0.277  14.206   0.262
17202W        W89462  26.649   0.848   4.666
17203W        W89463  28.977  40.487  12.479
17204W        W89464  25.478  19.734  12.035
17205W        W89465  27.045  37.572   4.192
17206W        W89466  26.649  35.992  13.062
17207W        W89467   7.896  40.454   4.607
17208W        W89468  14.289  25.595  10.940
17209W        W89469  32.557  32.622  13.342
17210W        W89470  33.009  16.084  14.366
17211W        W89471   2.734  38.441  11.561
17212W        W89472  38.999  21.182  12.068
17213W        W89473  35.942  12.334   1.237
17214W        W89474   1.366  23.110  14.014
17215W        W89475   6.370   4.306  10.607
17216W        W89476  22.087  26.640   3.186
17217W        W89477  15.712  13.806  13.967
17218W        W89478  31.569  20.135   2.715
17219W        W89479   4.900  21.258  13.426
17220W        W89480  19.535  37.988   3.173
17221W        W89481   1.858  38.393  11.969
17222W        W89482  11.164  17.193   2.266
17223W        W89483  29.660   6.833   3.325
17224W        W89484  26.483  40.365  13.004
17225W        W89485  13.157  35.517   1.385
17226W        W89486  26.627  22.076   3.236
17227W        W89487   7.281  13.785   4.159
17228W        W89488   3.771   8.871   0.770
17229W        W89489  15.197   2.391  14.421
17230W        W89490  15.104  11.209   0.408
17231W        W89491  15.280  44.960  10.631
17232W        W89492   5.868   1.394   3.644
17233W        W89493   6.894  31.005  10.916
17234W        W89494  41.455   4.389  13.453
17235W        W89495  29.540   6.807  11.579
17236W        W89496  10.353   8.334   4.198
17237W        W89497  21.166  20.727   0.837
17238W        W89498  24.051  36.476   3.852
17239W        W89499  34.890  28.567  13.014
17240W        W89500  38.484   3.893   4.261
17241W        W89501  32.038  31.440  11.909
17242W        W89502  25.474  34.001   3.220
17243W        W89503  18.282  11.305  12.872
17244W        W89504  28.529  26.565  12.914
17245W        W89505  28.069  44.008   2.361
17246W        W89506  44.888  42.998   2.349
17247W        W89507  41.468  29.145  14.027
17248W        W89508  40.527  32.527   2.400
17249W        W89509  26.002  36.003  12.411
17250W        W89510   7.355  36.946   4.282
17251W        W89511  27.956  30.992   4.797
17252W        W89512  27.486  30.161   4.296
17253W        W89513  23.619  15.186  11.572
17254W        W89514  38.930   3.345  10.955
17255W        W89515  25.603  16.209  12.836
17256W        W89516  38.960   2.461  12.545
17257W        W89517  19.735   3.345   0.846
17258W        W89518  13.324  40.834   1.449
17259W        W89519  38.873  41.305  11.052
17260W        W89520  42.832  13.698  11.442
17261W        W89521  31.923  25.033  12.074
17262W        W89522  34.021   9.667   4.135
17263W        W89523   3.806  27.087   1.755
17264W        W89524  28.494   3.939   0.303
17265W        W89525   5.932  43.287  14.376
17266W        W89526  32.100  44.333  12.537
17267W        W89527  18.144  15.659   3.697
17268W        W89528  33.476  20.213  13.309
17269W        W89529  33.478  34.541  14.280
17270W        W89530  11.650  30.652  12.480
17271W        W89531   8.737  15.819   4.244
17272W        W89532  41.472  28.443  13.825
17273W        W89533  39.431  37.348   0.342
17274W        W89534  25.044  26.471   1.396
17275W        W89535  36.008  21.261   4.749
17276W        W89536  24.983  41.336   1.695
17277W        W89537  19.762  30.429   0.950
17278W        W89538   1.471  18.758   1.215
17279W        W89539   2.837  33.505   2.241
17280W        W89540   3.367  29.445  13.500
17281W        W89541  42.869   6.382   1.395
17282W        W89542   1.274  20.271  13.525
17283W        W89543   9.317   4.829  13.064
17284W        W89544  17.112  33.086  13.022
17285W        W89545  35.898  20.065  13.019
17286W        W89546   0.850   2.282  12.491
17287W        W89547  38.476  22.998   4.154
17288W        W89548  29.021  30.102   3.151
17289W        W89549  41.330  20.061  11.028
17290W        W89550  41.848  42.523  11.509
17291W        W89551   1.762  15.229   0.900
17292W        W89552  14.773  42.414  13.981
17293W        W89553  19.662  14.225  12.969
17294W        W89554  36.377  14.749   3.350
17295W        W89555  36.357  10.772  10.436
17296W        W89556   3.821  26.572  13.999
17297W        W89557  31.550   0.891   3.206
17298W        W89558  21.610  30.063  11.977
17299W        W89559   4.856  32.931  12.486
17300W        W89560  12.638  27.461   2.742
17301W        W89561  10.251   8.700  13.902
17302W        W89562  23.074  25.024  12.059
17303W        W89563  26.629   8.731   4.312
17304W        W89564  13.702  23.039   2.778
17305W        W89565   9.853  10.144   2.668
17306W        W89566  18.179  28.667   3.661
17307W        W89567  19.577  16.688  13.023
17308W        W89568   0.767  10.156   4.611
17309W        W89569  39.910  28.098  12.040
17310W        W89570  20.139  19.689   5.721
17311W        W89571   8.264   9.705   4.218
17312W        W89572   4.736  34.897   1.330
17313W        W89573   6.307  17.248  10.097
17314W        W89574   5.757  33.014   1.837
17315W        W89575  17.676   4.865   3.240
17316W        W89576  23.721  34.971   0.314
17317W        W89577  13.260  26.567   3.364
17318W        W89578  16.721  25.693   2.316
17319W        W89579  34.602  44.279  10.925
17320W        W89580  26.964  13.827  13.336
17321W        W89581  34.024  37.875  10.521
17322W        W89582  27.044  19.237  13.541
17323W        W89583   6.910  41.860   1.704
17324W        W89584   8.802  39.371   4.729
17325W        W89585  15.823  16.591  11.584
17326W        W89586  35.496  13.724   4.809
17327W        W89587  12.312  12.812   3.782
17328W        W89588  41.299   5.256  12.883
17329W        W89589  27.674  22.067   4.806
17330W        W89590  38.007  16.316   4.809
17331W        W89591  44.370  29.430   5.178
17332W        W89592   3.858  17.728  10.523
17333W        W89593  33.538  27.478   2.791
17334W        W89594   3.710  22.191  12.060
17335W        W89595  23.055  30.137  13.346
17336W        W89596  28.515  38.028   0.354
17337W        W89597  40.980  33.926   3.724
17338W        W89598  37.383  35.975   1.300
17339W        W89599  11.702  20.618   4.300
17340W        W89600  27.528  30.557   0.829
17341W        W89601  15.190  20.538  13.854
17342W        W89602  24.537  26.532   9.971
17343W        W89603  34.869  30.507  12.007
17344W        W89604  44.951  29.436   2.711
17345W        W89605  38.544  38.833   3.365
17346W        W89606   6.346  38.380  13.969
17347W        W89607  16.232  29.549   4.138
17348W        W89608   3.731  38.395  12.823
17349W        W89609   7.849  38.929  10.523
17350W        W89610   3.797  21.616   0.299
17351W        W89611  29.050  41.500  11.062
17352W        W89612  32.946  10.215   1.860
17353W        W89613   5.412   5.383   4.701
17354W        W89614   9.312  37.915  14.375
17355W        W89615  24.148  41.965   2.383
17356W        W89616  12.232  37.912   3.276
17357W        W89617  30.530  35.954  14.492
17358W        W89618   6.374  14.763  12.428
17359W        W89619  27.184  17.763  11.017
17360W        W89620   3.248   0.252  13.035
17361W        W89621   2.249  33.410  11.962
17362W        W89622  32.568   7.852  13.342
17363W        W89623   1.276  29.947   1.399
17364W        W89624   2.768  14.268   0.263
17365W        W89625  14.285  19.163  12.352
17366W        W89626  33.029  12.352   3.281
17367W        W89627  17.693  19.090   3.312
17368W        W89628  44.957  32.591   0.965
17369W        W89629  37.953   7.816   9.956
17370W        W89630   6.813  23.010   4.814
17371W        W89631   6.799  32.493   2.243
17372W        W89632  21.594  44.766   1.835
17373W        W89633  24.104   6.375  10.498
17374W        W89634  29.538   6.859  10.989
17375W        W89635  11.364   2.452   0.744
17376W        W89636   3.801   2.401   2.890
17377W        W89637   9.151  10.851  13.815
17378W        W89638  32.588   4.243  12.882
17379W        W89639  34.458  42.292   2.253
17380W        W89640  24.138  18.790   4.250
17381W        W89641   2.763   3.899  11.935
17382W        W89642  40.956   4.711   1.387
17383W        W89643  22.683   3.808  12.419
17384W        W89644   2.321   2.813  14.987
17385W        W89645  21.558  10.863   2.258
17386W        W89646  16.244  16.732  10.587
17387W        W89647  11.340  35.918   3.373
17388W        W89648  27.626  10.855   1.834
17389W        W89649   6.224   8.701  12.509
17390W        W89650  35.095  18.576  12.939
17391W        W89651   2.953   0.482   3.639
17392W        W89652   3.899  16.286   3.228
17393W        W89653   9.364   0.325   3.320
17394W        W89654  14.737  40.338   4.181
17395W        W89655  12.707  36.930  11.506
17396W        W89656  36.008  33.091   0.256
17397W        W89657  38.878  42.823   4.764
17398W        W89658  26.194   4.842  13.950
17399W        W89659   5.721  15.250  12.031
17400W        W89660  13.341   6.344  10.093
17401W        W89661  14.249  21.205   1.778
17402W        W89662  27.556   0.303   2.847
17403W        W89663  22.702  16.316   4.130
17404W        W89664  13.157   1.926   2.365
17405W        W89665   3.358  32.486   0.759
17406W        W89666  17.243  33.542   1.890
17407W        W89667  39.838  35.488   3.729
17408W        W89668   5.882   9.356   1.730
17409W        W89669  33.116  26.529   2.224
17410W        W89670  30.931  14.290  11.373
17411W        W89671  10.224  39.535   0.464
17412W        W89672  38.897  39.469   4.127
17413W        W89673  13.334  41.843   3.727
17414W        W89674  29.117   6.800   1.243
17415W        W89675   0.802  43.316  12.540
17416W        W89676  29.116  41.512  11.978
17417W        W89677   8.361   0.463  12.836
17418W        W89678   0.822  12.830   0.790
17419W        W89679  15.672   3.802  11.480
17420W        W89680  34.439   9.695  14.293
17421W        W89681  29.594  24.718  13.995
17422W        W89682  32.568  19.160   3.304
17423W        W89683   2.750   2.383  12.965
17424W        W89684  17.581  32.018  14.776
17425W        W89685  12.831   8.824  11.409
17426W        W89686  42.824  15.155  11.413
17427W        W89687   1.238  19.566   4.648
17428W        W89688  34.079  34.404   2.273
17429W        W89689  30.984  38.419  10.559
17430W        W89690   6.272  35.358  12.847
17431W        W89691  18.251  22.066   4.742
17432W        W89692  26.605  17.087  13.343
17433W        W89693  27.467  41.961   4.325
17434W        W89694   7.898  24.620  10.489
17435W        W89695  34.903   3.875   4.795
17436W        W89696  39.407  21.059  14.778
17437W        W89697  25.126  28.056  11.508
17438W        W89698  17.706  25.657  12.406
17439W        W89699   5.828  24.635   3.289
17440W        W89700  26.624  20.185   2.673
17441W        W89701  22.558  34.524  12.369
17442W        W89702  18.277  15.118  12.436
17443W        W89703  29.529   5.774  10.463
17444W        W89704  24.210  13.194  12.470
17445W        W89705  43.852  34.529   3.869
17446W        W89706  29.955  39.410   1.383
17447W        W89707  43.453  35.596   2.792
17448W        W89708  37.853  38.480  12.014
17449W        W89709  39.027  39.321   0.341
17450W        W89710   8.380  42.024  14.830
17451W        W89711  24.568  39.499  13.972
17452W        W89712  13.765   7.204   3.791
17453W        W89713  31.600  21.160   4.210
17454W        W89714  15.115   2.831   2.816
17455W        W89715  24.171  33.117   0.378
17456W        W89716  10.325  21.614  13.402
17457W        W89717   0.395   0.749  13.792
17458W        W89718   5.381   6.725  14.985
17459W        W89719  37.883   8.275  13.512
17460W        W89720   9.675  35.364  14.932
17461W        W89721   1.353  36.944  11.454
17462W        W89722  30.601  39.558  14.462
17463W        W89723  33.393  10.371   4.281
17464W        W89724  12.719  42.929  13.876
17465W        W89725  26.586  27.196  11.906
17466W        W89726  13.347   2.889  14.480
17467W        W89727  15.322  25.703   4.124
17468W        W89728   0.772  11.266  11.081
17469W        W89729  19.276   4.333   1.840
17470W        W89730  30.009  15.214   2.309
17471W        W89731   8.722  15.229  10.631
17472W        W89732  16.120  38.481  11.393
17473W        W89733  29.015  29.926   0.878
17474W        W89734  20.085  16.750  10.013
17475W        W89735  14.609  18.282  11.377
17476W        W89736  23.000  27.003   2.277
17477W        W89737  21.619  19.039  12.981
17478W        W89738  19.566  11.775  11.005
17479W        W89739  29.499  15.266   2.863
17480W        W89740  38.359  10.866  13.868
17481W        W89741  31.404   0.314  13.028
17482W        W89742  26.973   8.217   0.908
17483W        W89743  13.205  23.512   2.256
17484W        W89744  31.912  20.676  13.397
17485W        W89745  39.983   2.294   1.228
17486W        W89746  21.083   9.233  13.976
17487W        W89747   7.263  11.276  12.007
17488W        W89748  11.270  17.109   4.321
17489W        W89749   9.873  14.613  12.071
17490W        W89750  15.636   5.845  14.848
17491W        W89751  22.642   2.270   2.221
17492W        W89752  42.410  35.861   2.338
17493W        W89753  11.707  37.081   0.908
17494W        W89754   7.218  42.422  12.881
17495W        W89755  22.743  26.954   2.881
17496W        W89756   4.272  17.660   3.686
17497W        W89757   7.790  20.579   1.324
17498W        W89758  43.440  40.920   1.839
17499W        W89759  43.884  19.615  11.050
17500W        W89760  37.449  30.072  13.326
17501W        W89761  12.740   4.760   4.793
17502W        W89762  31.439   9.815   2.260
17503W        W89763  19.146  24.045  12.454
17504W        W89764  38.331  44.431  12.498
17505W        W89765  25.090  26.076   1.278
17506W        W89766  37.979  36.555   1.917
17507W        W89767  32.459  24.644  14.974
17508W        W89768   7.365  37.471   4.124
17509W        W89769  33.437  27.118  12.354
17510W        W89770  34.546   9.191   4.345
17511W        W89771  13.709  30.512  12.571
17512W        W89772  44.288   0.368   1.452
17513W        W89773  35.369   2.966  11.028
17514W        W89774  18.736  15.631  12.886
17515W        W89775   6.267  22.617  10.436
17516W        W89776  10.157  36.021   1.792
17517W        W89777  42.985   8.855  14.786
17518W        W89778  15.123   8.857   1.825
17519W        W89779  23.681  25.173   1.302
17520W        W89780   3.718  14.118  10.439
17521W        W89781  15.187  25.513   2.182
17522W        W89782   5.388   4.927   0.758
17523W        W89783  40.461  32.967   1.335
17524W        W89784   5.754   8.808  11.126
17525W        W89785  11.719  26.142  11.078
17526W        W89786  30.566  27.607  13.037
17527W        W89787  33.937  17.101   1.712
17528W        W89788  34.037  39.993   0.858
17529W        W89789  36.370  16.227   2.768
17530W        W89790  43.976  30.106  13.527
17531W        W89791   0.804  38.030   2.741
17532W        W89792  20.032  18.642   1.719
17533W        W89793  44.282  11.202   2.261
17534W        W89794   0.746  15.098   4.287
17535W        W89795  14.824  29.604   0.774
17536W        W89796  19.703   7.702   5.100
17537W        W89797  12.808  15.225   3.305
17538W        W89798  24.636  25.999  14.390
17539W        W89799  10.686  26.987   3.250
17540W        W89800  14.830   2.776   2.232
17541W        W89801   0.278  38.339   0.921
17542W        W89802  36.357   1.872   1.240
17543W        W89803  25.573  32.043   4.685
17544W        W89804   1.914  29.075   3.806
17545W        W89805  44.405   2.895  13.999
17546W        W89806  13.769  25.120   4.688
17547W        W89807   6.869   6.778   0.932
17548W        W89808   2.825  32.989   3.224
17549W        W89809  36.356  14.608   2.841
17550W        W89810   7.271   8.862  14.963
17551W        W89811   9.685   6.280   4.704
17552W        W89812  23.062  27.652  13.035
17553W        W89813   0.411   4.441  11.496
17554W        W89814  11.194  32.487   2.401
17555W        W89815   3.411  40.480   2.378
17556W        W89816  33.542  11.234   1.324
17557W        W89817  30.919   0.320  10.011
17558W        W89818  29.516  39.825  13.336
17559W        W89819  38.563   0.427  11.033
17560W        W89820   6.312  18.679  11.378
17561W        W89821  35.590  23.026   4.655
17562W        W89822   7.902   9.718  12.506
17563W        W89823  39.007  10.206   5.311
17564W        W89824  26.631   2.242  12.913
17565W        W89825  11.751  30.479  13.855
17566W        W89826   5.855  29.057  12.073
17567W        W89827  44.311  42.837   4.141
17568W        W89828  15.625  27.132  11.394
17569W        W89829  21.722   5.820   1.244
17570W        W89830  23.008  34.983   0.961
17571W        W89831  16.112  32.593   4.297
17572W        W89832  11.283  36.369   2.222
17573W        W89833  28.518  41.315   4.173
17574W        W89834  23.580  20.046   4.820
17575W        W89835  29.662  22.720   4.250
17576W        W89836  21.083  17.278   0.303
17577W        W89837  38.046  40.045  14.362
17578W        W89838  24.216  13.803   1.356
17579W        W89839   9.744  15.782   1.303
17580W        W89840  37.388  31.403   3.867
17581W        W89841  19.215  34.530  14.899
17582W        W89842  37.883  14.833  11.105
17583W        W89843  34.952   1.338   3.781
17584W        W89844  40.314  20.542   2.220
17585W        W89845   7.293  27.581  14.286
17586W        W89846  31.616  34.099   1.416
17587W        W89847  27.683   4.866  13.894
17588W        W89848   4.807  25.100  11.049
17589W        W89849   9.342  34.572  12.499
17590W        W89850  20.607   8.302   0.249
17591W        W89851  41.897  39.924   4.766
17592W        W89852   3.226  10.201   0.287
17593W        W89853  19.750  32.933   1.338
17594W        W89854  15.695  25.566   4.830
17595W        W89855  33.413  11.658   4.695
17596W        W89856   4.234  13.303   4.622
17597W        W89857   9.348  10.159   2.757
17598W        W89858  17.567  35.436   4.690
17599W        W89859   9.688  26.570   1.305
17600W        W89860  28.010   4.822  14.768
17601W        W89861  41.333  39.820   2.366
17602W        W89862  38.423  28.126   1.744
17603W        W89863   5.911  38.033   2.842
17604W        W89864  10.213   9.670  10.130
17605W        W89865  41.896  41.903  14.768
17606W        W89866  39.329   4.707   0.779
17607W        W89867   2.919   4.348   1.262
17608W        W89868  44.457   2.454   0.831
17609W        W89869  23.604  19.246   0.427
17610W        W89870  29.075   9.342   4.737
17611W        W89871  13.160  20.548  12.958
17612W        W89872  44.263   6.897  10.946
17613W        W89873  13.133  22.711   1.721
17614W        W89874  13.322  27.539  13.349
17615W        W89875  18.725  20.147   3.285
17616W        W89876  35.377  24.641   1.422
17617W        W89877  12.125  26.589  14.345
17618W        W89878  43.878  23.715   2.755
17619W        W89879  37.992  12.697   4.223
17620W        W89880  27.567  30.624  11.516
17621W        W89881  42.509  31.910  14.020
17622W        W89882  18.070   5.275  13.872
17623W        W89883  26.982   7.281   0.257
17624W        W89884  24.713   9.230  12.870
17625W        W89885  16.160  21.222  13.878
17626W        W89886  23.710  12.245  12.405
17627W        W89887  15.117  24.118   1.282
17628W        W89888   9.873   9.685   4.124
17629W        W89889  21.516  12.844   2.228
17630W        W89890  14.708  38.940  11.050
17631W        W89891  13.746  12.823   2.237
17632W        W89892  25.509   8.816   2.876
17633W        W89893  24.209  44.821   0.475
17634W        W89894  33.896   0.979  14.012
17635W        W89895  17.669  28.037   1.341
17636W        W89896  23.554   0.811  12.065
17637W        W89897  42.324  15.255   0.899
17638W        W89898   8.177  21.213  11.908
17639W        W89899  19.107   8.252  11.019
17640W        W89900   7.370  16.113   1.225
17641W        W89901  41.911  10.165   0.809
17642W        W89902   8.168  19.614   1.849
17643W        W89903  24.572  29.934  14.925
17644W        W89904  35.362  19.562  14.916
17645W        W89905  23.504  24.052   1.272
17646W        W89906   9.890  23.137   3.232
17647W        W89907  42.459  17.242   4.229
17648W        W89908  30.072  26.109   3.770
17649W        W89909  18.551  18.267   9.933
17650W        W89910  21.626  13.134  14.900
17651W        W89911  25.027  36.385  13.816
17652W        W89912  41.393  22.581  11.906
17653W        W89913  32.007  43.947  10.462
17654W        W89914  13.715  26.993   4.330
17655W        W89915  10.260  22.663   5.117
17656W        W89916   0.867  18.684   2.213
17657W        W89917  17.234  39.815  12.485
17658W        W89918  18.726  23.176   1.879
17659W        W89919  12.654  35.959   2.754
17660W        W89920   6.817  22.184   1.800
17661W        W89921  20.156   0.309  14.898
17662W        W89922  24.128  39.878  14.308
17663W        W89923   0.870  11.295   2.825
17664W        W89924  34.973  11.334   2.262
17665W        W89925   4.935   9.794   1.396
17666W        W89926  41.413  17.621  12.348
17667W        W89927  36.076  17.623   0.856
17668W        W89928  33.000  23.666  12.884
17669W        W89929   6.401  14.310  14.973
17670W        W89930  25.992  27.965   2.674
17671W        W89931  18.258   6.699  11.436
17672W        W89932  23.116  31.990  10.566
17673W        W89933   0.865  29.541   3.362
17674W        W89934  39.868  23.067  12.568
17675W        W89935  29.424   6.316  10.036
17676W        W89936  24.066  36.032   0.483
17677W        W89937  13.193  42.959   2.321
17678W        W89938  23.178  14.724   3.350
17679W        W89939  42.780   3.757  14.987
17680W        W89940  40.319  33.017  14.934
17681W        W89941   6.857  43.982  14.816
17682W        W89942  32.076  14.158   3.364
17683W        W89943  20.206  26.199   1.315
17684W        W89944  44.454  13.742   4.759
17685W        W89945  20.697   6.758   3.808
17686W        W89946  35.432  28.648   1.308
17687W        W89947  24.663  37.860  14.297
17688W        W89948  12.277  31.046  12.826
17689W        W89949  37.420  34.037   0.381
17690W        W89950  35.374  29.153   4.210
17691W        W89951  37.349  43.321   2.185
17692W        W89952  18.105  27.026  11.901
17693W        W89953   6.716   2.746  10.589
17694W        W89954  35.482  14.799   3.716
17695W        W89955   3.744  32.404  12.964
17696W        W89956   3.779  30.954  12.924
17697W        W89957  26.113  40.515   3.206
17698W        W89958  28.574  36.845  13.431
17699W        W89959  40.916  44.344   4.632
17700W        W89960  24.029   5.359  11.001
17701W        W89961  12.172  40.876  11.488
17702W        W89962   3.937  26.038  14.317
17703W        W89963  24.605  13.254  11.590
17704W        W89964  30.624  17.279  12.887
17705W        W89965  40.456  35.431  11.477
17706W        W89966  19.690  31.478   2.876
17707W        W89967   6.411  17.608   1.212
17708W        W89968  29.130  25.541   1.795
17709W        W89969  44.898  13.213  10.913
17710W        W89970  36.414  29.542   2.197
17711W        W89971  20.687  24.631  13.342
17712W        W89972  27.600  23.628  14.823
17713W        W89973  22.017   6.189   4.676
17714W        W89974  15.100   2.763  11.611
17715W        W89975  11.738  29.656  14.346
17716W        W89976  20.578  31.023   4.786
17717W        W89977  37.977  38.544  13.358
17718W        W89978  21.083  34.543  11.112
17719W        W89979  30.598  43.846   0.793
17720W        W89980   3.956  34.012   2.672
17721W        W89981  34.040  35.429   3.284
17722W        W89982  23.223  18.615   5.703
17723W        W89983  39.443  38.433   2.296
17724W        W89984  13.316  33.030  13.512
17725W        W89985   7.217   7.808   1.296
17726W        W89986  14.152  13.271   1.230
17727W        W89987  40.407  32.525   1.275
17728W        W89988  10.790  12.681   4.686
17729W        W89989  14.253   5.800  13.928
17730W        W89990   7.792  38.400   0.888
17731W        W89991  38.451   4.905  13.308
17732W        W89992   0.974  25.970   0.484
17733W        W89993   4.897  13.733  13.880
17734W        W89994  44.282  40.030   4.156
17735W        W89995  37.872   5.424   0.452
17736W        W89996   2.435  40.546  12.823
17737W        W89997  43.381  13.269   4.815
17738W        W89998   5.367  38.454   2.716
17739W        W89999   8.186  29.020  11.967
17740W        W90000   8.283  40.038   0.731
17741W        W90001   6.720  33.584  14.954
17742W        W90002  38.002  17.601  14.920
17743W        W90003  38.489  34.553  12.559
17744W        W90004  27.545  37.874   0.837
17745W        W90005  10.672  33.116  12.842
17746W        W90006   3.862  33.478  10.103
17747W        W90007  21.086   8.242   3.638
17748W        W90008  12.850  17.749  14.836
17749W        W90009  38.864  15.666   3.630
17750W        W90010  27.187   1.283   1.775
17751W        W90011  30.941  15.151  13.395
17752W        W90012  17.800  19.775  10.526
17753W        W90013  22.527   1.332   0.795
17754W        W90014  19.052  34.041  11.861
17755W        W90015  11.295  22.650   4.184
17756W        W90016   4.719  17.567   0.309
17757W        W90017  41.336  12.187  12.046
17758W        W90018  43.474  31.456   0.765
17759W        W90019   3.327  12.198   2.772
17760W        W90020  13.794   6.407  13.347
17761W        W90021  32.559  20.662  10.454
17762W        W90022   8.295  24.003  14.905
17763W        W90023  38.331   4.722   4.348
17764W        W90024  28.594   4.870  10.976
17765W        W90025  30.521   1.332  10.447
17766W        W90026   4.364  10.375   1.313
17767W        W90027  18.561   8.793   3.840
17768W        W90028  21.756  10.694  12.030
17769W        W90029  35.358   9.830   4.835
17770W        W90030  39.342  40.439  10.636
17771W        W90031  33.470  13.841   4.625
17772W        W90032  34.898  26.018  13.334
17773W        W90033  37.081   8.815   4.768
17774W        W90034  32.069   2.940   4.255
17775W        W90035  29.547  26.051  14.834
17776W        W90036  26.078  28.509  14.445
17777W        W90037  40.351  34.002  14.382
17778W        W90038   9.269  12.647   1.255
17779W        W90039  19.606   6.337   1.722
17780W        W90040  15.199  34.922  14.281
17781W        W90041   5.255  24.106   0.464
17782W        W90042  41.474  15.668  11.881
17783W        W90043  40.450  31.062  12.875
17784W        W90044  28.110  29.657  13.820
17785W        W90045  29.566  30.145   2.845
17786W        W90046  34.996   0.976  11.124
17787W        W90047  24.174  36.037   2.302
17788W        W90048  32.409  15.612  14.451
17789W        W90049  23.628   7.372  11.532
17790W        W90050  37.930  27.963   3.687
17791W        W90051   2.938  28.953  14.441
17792W        W90052  28.484  37.497  12.576
17793W        W90053  37.005  26.054  11.453
17794W        W90054  21.755   4.893  11.384
17795W        W90055  43.416  41.292   0.453
17796W        W90056  35.930  26.622   0.893
17797W        W90057  23.192  15.208  13.957
17798W        W90058  12.753   5.813   4.615
17799W        W90059  22.252  13.240  10.487
17800W        W90060   2.827  25.670  10.631
17801W        W90061  28.606  28.181  14.955
17802W        W90062  31.969  16.755   0.393
17803W        W90063  20.149  40.533   3.733
17804W        W90064  11.747  35.416  11.960
17805W        W90065   4.743  21.104  13.912
17806W        W90066   5.697  33.975   0.318
17807W        W90067  18.245  14.246  10.428
17808W        W90068  42.830  25.659  10.969
17809W        W90069  27.648   0.396   1.837
17810W        W90070  20.059  33.966   4.120
17811W        W90071  23.109   4.785   4.209
17812W        W90072  27.954   5.404   2.699
17813W        W90073  23.073  36.471   1.854
17814W        W90074  18.786  26.959  13.798
17815W        W90075   1.821   4.905   4.244
17816W        W90076   2.937   2.381   4.197
17817W        W90077   7.403  23.219  13.345
17818W        W90078  29.944  33.429  11.980
17819W        W90079   9.158  42.358   0.450
17820W        W90080  11.762   4.297  10.579
17821W        W90081  11.265   1.787  11.049
17822W        W90082  34.969  19.181  12.916
17823W        W90083  13.318   1.447   0.408
17824W        W90084  17.672  37.964   1.752
17825W        W90085  40.993   9.339  10.464
17826W        W90086  40.007  32.002  12.463
17827W        W90087  33.611  29.467   1.848
17828W        W90088   5.396  25.710   4.206
17829W        W90089  36.461  20.736  13.345
17830W        W90090  35.976  30.006   3.185
17831W        W90091  21.588  33.622  13.945
17832W        W90092  25.596  31.526  13.032
17833W        W90093  24.155  33.415   5.220
17834W        W90094   4.872  35.855   3.668
17835W        W90095   7.726   5.703  11.910
17836W        W90096  30.068  39.500  10.926
17837W        W90097  34.890  38.980   3.659
17838W        W90098  10.351  10.250   1.284
17839W        W90099  15.741  25.116  13.906
17840W        W90100  24.183  13.311  11.995
17841W        W90101  22.549  27.160   5.270
17842W        W90102  20.635  27.594   3.692
17843W        W90103  18.122  13.789   1.898
17844W        W90104  10.704  18.613   2.746
17845W        W90105  36.375  37.989  11.965
17846W        W90106  18.568  17.682  10.464
17847W        W90107  36.373  27.545  14.846
17848W        W90108  32.135  40.460   2.682
17849W        W90109   3.346  34.043  13.015
17850W        W90110  31.005  40.876   2.837
17851W        W90111  27.067  44.811   3.647
17852W        W90112  30.540   6.873  12.018
17853W        W90113   9.813   7.865   1.451
17854W        W90114  40.834   8.286  14.016
17855W        W90115  38.861  16.597   3.686
17856W        W90116  24.720  19.760   5.172
17857W        W90117  22.720  19.075  13.840
17858W        W90118  10.265  15.205  11.917
17859W        W90119   9.690   1.251  10.946
17860W        W90120  35.951  28.994  13.362
17861W        W90121   3.409  43.495  12.933
17862W        W90122  38.411  28.126   0.907
17863W        W90123  34.889   6.183  13.379
17864W        W90124  16.159  11.783   2.742
17865W        W90125  38.358  25.622   4.180
17866W        W90126  12.318  27.995   2.280
17867W        W90127  43.004   6.355   3.386
17868W        W90128  13.163  28.557  10.103
17869W        W90129  44.494  40.954   2.229
17870W        W90130   2.293  20.721  11.544
17871W        W90131  43.930  30.642   4.676
17872W        W90132  31.571  25.036   4.352
17873W        W90133  43.475  16.739  12.476
17874W        W90134  35.103  12.759  11.545
17875W        W90135   8.719   3.340   9.948
17876W        W90136  27.638  35.871   2.757
17877W        W90137  14.193  30.002  10.403
17878W        W90138  31.079   7.800  14.410
17879W        W90139  17.151   8.330   3.651
17880W        W90140  40.524   0.263   1.317
17881W        W90141  28.626  32.920   0.336
17882W        W90142  43.280  24.703   3.729
17883W        W90143   7.224   1.258   0.878
17884W        W90144  12.183  13.736   2.832
17885W        W90145  31.951  17.727   3.228
17886W        W90146  24.702  41.816   2.409
17887W        W90147   3.349  33.601   4.252
17888W        W90148  38.996  17.707   3.251
17889W        W90149   1.389  25.017  14.900
17890W        W90150  39.950  25.624  14.415
17891W        W90151  42.820  11.269  11.440
17892W        W90152   0.854  27.548   0.818
17893W        W90153  28.169  42.026  10.420
17894W        W90154   2.347  15.820  12.427
17895W        W90155  29.582  27.507   1.795
17896W        W90156  31.152   9.877   2.668
17897W        W90157  10.209   5.332  10.474
17898W        W90158   0.400  35.377  14.299
17899W        W90159  32.135  40.382   0.745
17900W        W90160  29.176  19.703  10.919
17901W        W90161  40.049   1.765   2.726
17902W        W90162   9.360  37.987   0.276
17903W        W90163  30.908   0.398  12.477
17904W        W90164  37.447  21.667   3.327
17905W        W90165   8.362  24.659  14.486
17906W        W90166  27.537  39.531  12.949
17907W        W90167  32.058  37.495   0.929
17908W        W90168  22.186   7.858  12.948
17909W        W90169  44.414  13.764   2.856
17910W        W90170  15.322  18.268   2.282
17911W        W90171  23.173  25.988   2.800
17912W        W90172  22.038   7.892   3.272
17913W        W90173  31.089  34.447   3.815
17914W        W90174  25.490   0.249   0.756
17915W        W90175  15.723  16.640   3.162
17916W        W90176  12.258  19.216  14.017
17917W        W90177  18.668  44.753  13.900
17918W        W90178   9.712  13.806   4.173
17919W        W90179  37.519  23.104  12.481
17920W        W90180   2.841   7.714  11.569
17921W        W90181  24.641  21.536  14.957
17922W        W90182  23.195  38.838  13.957
17923W        W90183  36.957   0.748   1.729
17924W        W90184  41.338  18.215  14.450
17925W        W90185  26.138   7.723  13.873
17926W        W90186  43.403   2.837   3.809
17927W        W90187  12.838  19.719  10.532
17928W        W90188  11.146   7.679  13.826
17929W        W90189  21.734  16.132  12.410
17930W        W90190  22.703  15.315  13.512
17931W        W90191  25.597  25.631   2.334
17932W        W90192   4.372  37.932  11.516
17933W        W90193  18.137  20.582   3.777
17934W        W90194  20.211  35.876   3.238
17935W        W90195   6.204  35.027  14.951
17936W        W90196  17.262  14.268  13.449
17937W        W90197   4.427  42.392  12.896
17938W        W90198  23.064   5.276  11.889
17939W        W90199  28.975  26.568  12.958
17940W        W90200  14.198  31.030  12.909
17941W        W90201  36.557  41.996  11.960
17942W        W90202  40.527  44.805  14.287
17943W        W90203   2.432  42.872   1.408
17944W        W90204  36.416  32.006  14.989
17945W        W90205  15.097   2.233  12.897
17946W        W90206  17.788  26.194  11.405
17947W        W90207  18.087  44.953   3.853
17948W        W90208  10.141  34.380  11.861
17949W        W90209   2.316  26.478  12.466
17950W        W90210  14.222  33.488  12.383
17951W        W90211  29.659  13.766   1.367
17952W        W90212  14.607  40.351   1.864
17953W        W90213  17.612  20.583   4.302
17954W        W90214  30.503   1.951  10.487
17955W        W90215  38.982  16.120  10.934
17956W        W90216  35.599   7.403  12.066
17957W        W90217  25.986  10.295  11.953
17958W        W90218   6.848  12.255  10.536
17959W        W90219  24.174  38.833  13.403
17960W        W90220  12.808  27.139   4.682
17961W        W90221  38.903  13.689  10.423
17962W        W90222  30.094   9.670   4.690
17963W        W90223  10.230   5.432  13.481
17964W        W90224  25.495  11.353  14.374
17965W        W90225  17.665  38.463  13.926
17966W        W90226  20.240  10.792   2.383
17967W        W90227   7.221  25.084   2.201
17968W        W90228  25.998  15.114   4.114
17969W        W90229  19.704  41.447  12.055
17970W        W90230   8.264   4.303  14.952
17971W        W90231  34.533  27.530   4.144
17972W        W90232  32.545  30.497   1.332
17973W        W90233   9.811  12.610   0.755
17974W        W90234  32.422  44.003  12.905
17975W        W90235  36.548  39.033   0.360
17976W        W90236  38.561  22.580  14.936
17977W        W90237  37.988  41.420  10.573
17978W        W90238  16.713  16.729   4.209
17979W        W90239  15.318  35.591   3.772
17980W        W90240  11.843  17.145  12.397
17981W        W90241  15.211  29.049   4.180
17982W        W90242  30.030  23.038  14.359
17983W        W90243   6.400  20.672  11.111
17984W        W90244  29.125  28.462  12.082
17985W        W90245  35.415  43.405   2.900
17986W        W90246  24.131   2.316   0.381
17987W        W90247  33.962   8.669  13.839
17988W        W90248  24.056  39.481   1.258
17989W        W90249  19.242  29.116   2.715
17990W        W90250  23.226  20.603   0.457
17991W        W90251  31.023  43.379  12.916
17992W        W90252  19.618  17.145   4.170
17993W        W90253  41.312  16.777   1.823
17994W        W90254   0.409   4.360   1.903
17995W        W90255  29.458  32.995  12.841
17996W        W90256   4.754   4.334  13.455
17997W        W90257  11.747  38.412   2.780
17998W        W90258  41.427   0.908  12.425
17999W        W90259  12.247  39.458   3.788
18000W        W90260   8.169  42.892   3.344
18001W        W90261  19.057  23.214   1.274
18002W        W90262   5.414  31.123   4.332
18003W        W90263  22.559  20.702  12.873
18004W        W90264   8.345  39.919  12.567
18005W        W90265  24.099   2.441   2.881
18006W        W90266  13.298  24.516  12.904
18007W        W90267  33.498  38.381  11.923
18008W        W90268  18.077  38.538  12.890
18009W        W90269  44.933   2.807   0.329
18010W        W90270  16.779  35.421  14.014
18011W        W90271  18.077   0.861   3.303
18012W        W90272  42.835   0.450  13.453
18013W        W90273   9.356  36.439  12.370
18014W        W90274  15.139  17.193   4.156
18015W        W90275  39.915  27.570   1.318
18016W        W90276   4.808   3.837  14.516
18017W        W90277   6.763   2.290  11.562
18018W        W90278  34.431   1.393  10.898
18019W        W90279  24.082  20.675  11.098
18020W        W90280   6.207  17.228   4.807
18021W        W90281  43.001  17.610  13.047
18022W        W90282  13.614  35.862  11.122
18023W        W90283  38.437  38.873  11.569
18024W        W90284  33.623  40.472  10.642
18025W        W90285  16.104  16.637   0.284
18026W        W90286  30.116   5.704  13.851
18027W        W90287  23.639  28.642  10.951
18028W        W90288  34.547  26.972  10.982
18029W        W90289  18.633  38.412  13.929
18030W        W90290   5.339   9.718  13.396
18031W        W90291   6.887  15.272   0.419
18032W        W90292   0.484  42.986  12.007
18033W        W90293  22.193  20.051  13.847
18034W        W90294  30.163  35.059  13.313
18035W        W90295  15.594  15.594   2.301
18036W        W90296   8.381  26.637  13.476
18037W        W90297  21.606  17.638   2.704
18038W        W90298   8.338  38.005  12.580
18039W        W90299   5.883  39.405   2.386
18040W        W90300  25.108   2.429   3.853
18041W        W90301  42.997  37.521  13.311
18042W        W90302  22.546  17.662   2.199
18043W        W90303  39.413  12.797  10.932
18044W        W90304   3.737  29.670   0.779
18045W        W90305  13.703  22.071  11.085
18046W        W90306  34.433  35.413  12.414
18047W        W90307  30.966  40.806   4.815
18048W        W90308  11.173  41.425  11.075
18049W        W90309  33.005  15.584   1.327
18050W        W90310  35.587   0.936  11.515
18051W        W90311  19.583  31.521  12.398
18052W        W90312  24.082  20.067  12.533
18053W        W90313  22.050  37.081  11.518
18054W        W90314  24.221  25.674  12.453
18055W        W90315  35.519   8.240   3.211
18056W        W90316  24.558   9.738  14.965
18057W        W90317  30.464  35.430  11.512
18058W        W90318  26.993  32.543   4.134
18059W        W90319  14.687  43.279  14.438
18060W        W90320  37.988  38.333  12.969
18061W        W90321  25.096   4.734   2.354
18062W        W90322  15.184  24.159  10.574
18063W        W90323  24.006  38.409  12.503
18064W        W90324   3.888  35.020   1.302
18065W        W90325  37.395  16.146   2.328
18066W        W90326  39.320   3.721   3.699
18067W        W90327   4.446   8.754   2.291
18068W        W90328   4.273  11.286  14.852
18069W        W90329  18.063  42.911   1.298
18070W        W90330  32.061   0.332   0.960
18071W        W90331  25.131   0.801  12.429
18072W        W90332   7.363  18.699   3.309
18073W        W90333  30.992  19.571   2.273
18074W        W90334   0.428   6.191  12.872
18075W        W90335  32.626  17.621   2.233
18076W        W90336   3.431  17.146  12.018
18077W        W90337  30.503  30.088  10.956
18078W        W90338  13.152  41.812   4.715
18079W        W90339  42.805  38.434   3.653
18080W        W90340   0.859  24.034  12.484
18081W        W90341  19.077   7.690   1.267
18082W        W90342   9.822  39.479   0.960
18083W        W90343   5.724  17.304   3.721
18084W        W90344  25.668   6.263   0.779
18085W        W90345  24.179  24.225   2.718
18086W        W90346  23.242  13.346  11.417
18087W        W90347   1.382  16.631   1.919
18088W        W90348   9.663  39.931  12.392
18089W        W90349   5.224  24.482  11.517
18090W        W90350  30.915  27.132   2.759
18091W        W90351  15.714  34.084  10.639
18092W        W90352   9.342  36.505   1.293
18093W        W90353  33.126   3.755   4.598
18094W        W90354  36.469   5.213  13.444
18095W        W90355  19.548  21.666  11.549
18096W        W90356  43.952   8.302  12.943
18097W        W90357  37.417  27.544  14.832
18098W        W90358  41.905   8.232   4.636
18099W        W90359  39.881  13.336   2.248
18100W        W90360  43.340  15.137  13.328
18101W        W90361  28.616   5.771   3.280
18102W        W90362  40.366  12.757  14.868
18103W        W90363  31.027  19.251  12.503
18104W        W90364  32.901  33.016  11.557
18105W        W90365  39.911  18.547   1.356
18106W        W90366  33.393  24.686  12.850
18107W        W90367  40.922  44.985  11.550
18108W        W90368  32.470  22.195  13.361
18109W        W90369  16.313  29.465   2.259
18110W        W90370  38.339  22.033  12.880
18111W        W90371  23.609  15.780  10.549
18112W        W90372  38.492  43.957  14.889
18113W        W90373  13.787  27.602   9.571
18114W        W90374  22.578  24.501  14.930
18115W        W90375  25.484   8.787   4.119
18116W        W90376  31.568  20.745   1.731
18117W        W90377  15.192  36.841  12.362
18118W        W90378  42.009  18.242   4.182
18119W        W90379  27.042  16.278   3.646
18120W        W90380  16.093  14.600  11.407
18121W        W90381  44.861  41.306  13.808
18122W        W90382  33.978  38.005  12.025
18123W        W90383  10.227  38.566   0.449
18124W        W90384   0.863  42.015  11.453
18125W        W90385   9.666  24.055  14.429
18126W        W90386  27.024   7.199  14.807
18127W        W90387  39.551  13.246   0.932
18128W        W90388  28.020  31.977   0.853
18129W        W90389  17.794  31.427   1.269
18130W        W90390  36.383  36.551  13.921
18131W        W90391   3.952  29.957   4.700
18132W        W90392   3.383  43.377   4.756
18133W        W90393   0.845  27.175  13.354
18134W        W90394  26.154   2.854  13.801
18135W        W90395  36.068  14.721   4.297
18136W        W90396   7.302  22.671  14.498
18137W        W90397   3.954  26.526  12.481
18138W        W90398   2.447  39.970  11.589
18139W        W90399  23.617  33.962  13.835
18140W        W90400  34.965  34.026   0.955
18141W        W90401  21.679  36.575   4.779
18142W        W90402  36.383  18.749  11.875
18143W        W90403   9.864   8.397  11.376
18144W        W90404  34.453  36.901  12.395
18145W        W90405  32.555  18.183  13.051
18146W        W90406  20.542   0.862   4.265
18147W        W90407   7.389  35.975   4.737
18148W        W90408   5.392  25.208   1.825
18149W        W90409  35.382   3.422  11.383
18150W        W90410   8.875  27.613   1.769
18151W        W90411  42.941   3.817   2.724
18152W        W90412   8.713  34.475  14.466
18153W        W90413   9.245  36.380  11.573
18154W        W90414  30.979  14.683  14.784
18155W        W90415  23.077  14.285  13.502
18156W        W90416  38.894  11.697   1.915
18157W        W90417  17.080  19.766   2.377
18158W        W90418  32.984  12.325  11.932
18159W        W90419   4.857   0.292  14.326
18160W        W90420  12.852  16.166   3.727
18161W        W90421  21.707   1.376   4.278
18162W        W90422  42.884  17.760  13.874
18163W        W90423  12.684  14.796  13.046
18164W        W90424  42.310  29.492   2.793
18165W        W90425  23.171  25.657   5.241
18166W        W90426  33.111  34.043   1.879
18167W        W90427  39.423  24.498  11.887
18168W        W90428  35.039   8.211   2.224
18169W        W90429  30.923  42.456   3.721
18170W        W90430   1.741   7.675  11.926
18171W        W90431  34.993  31.132   4.760
18172W        W90432  37.582  10.250   0.822
18173W        W90433  10.369  39.883   0.460
18174W        W90434  32.534  21.738   2.276
18175W        W90435   7.175   1.418  10.518
18176W        W90436  30.417  33.013  10.575
18177W        W90437   8.167  39.939  11.977
18178W        W90438  36.881  38.341  11.019
18179W        W90439   4.706   0.369   4.813
18180W        W90440   5.301   0.783  13.818
18181W        W90441   6.719   5.852  11.014
18182W        W90442  20.190   2.279  10.894
18183W        W90443  13.204  21.036   4.737
18184W        W90444  22.546  16.634   2.372
18185W        W90445  16.091  27.678  14.457
18186W        W90446   1.774  10.786  14.392
18187W        W90447  34.546  38.861   0.417
18188W        W90448  21.687  12.206   3.194
18189W        W90449   5.826   6.288   2.275
18190W        W90450  32.505   7.208  11.927
18191W        W90451  43.007  18.691   1.411
18192W        W90452  23.077   7.788   0.965
18193W        W90453  32.117  21.059   3.838
18194W        W90454   1.923  39.833   0.279
18195W        W90455  41.866  15.193  14.931
18196W        W90456  31.988  40.824   1.855
18197W        W90457  21.589  16.188  10.464
18198W        W90458  43.516   3.437  12.023
18199W        W90459  36.543  15.235  12.348
18200W        W90460   5.839   9.292   0.800
18201W        W90461   8.320  41.437   1.391
18202W        W90462  44.378  19.239   1.360
18203W        W90463   6.373  38.039   2.186
18204W        W90464  18.747  37.392  14.763
18205W        W90465   5.438  11.212  11.125
18206W        W90466   6.725   3.767  13.514
18207W        W90467   8.761   2.768   0.841
18208W        W90468   1.916  44.897   2.677
18209W        W90469  17.129   3.716  14.315
18210W        W90470   3.324   1.456  13.389
18211W        W90471  37.380  16.772   4.195
18212W        W90472  34.387  38.985  11.513
18213W        W90473   6.392  19.127   2.187
18214W        W90474  24.612  29.093  14.938
18215W        W90475  34.054  14.219   4.643
18216W        W90476   9.797  39.915   3.308
18217W        W90477  32.957   5.299   0.767
18218W        W90478  36.491   3.225  13.362
18219W        W90479  20.060  36.496   0.287
18220W        W90480  34.510  35.428  10.988
18221W        W90481  36.049  39.377  14.848
18222W        W90482   6.682  20.151   2.665
18223W        W90483  29.126  18.152  12.067
18224W        W90484  39.824  21.088   1.383
18225W        W90485  40.389   1.387  12.926
18226W        W90486  25.962  30.982   2.718
18227W        W90487  42.330   2.857  14.971
18228W        W90488  29.997   9.187   3.764
18229W        W90489  33.112  39.376  12.387
18230W        W90490   3.838  43.435  12.874
18231W        W90491  35.080   9.279  14.802
18232W        W90492  16.594  27.581  11.589
18233W        W90493  21.133  24.075  10.499
18234W        W90494  33.500   2.915   3.750
18235W        W90495  22.737  20.161  11.449
18236W        W90496   9.266  35.975  14.376
18237W        W90497  31.087  16.621   2.743
18238W        W90498  10.253  30.429  10.411
18239W        W90499   0.349  25.698  12.916
18240W        W90500  30.655  21.662   0.761
18241W        W90501  28.536  20.677   4.291
18242W        W90502   4.920  35.398   3.820
18243W        W90503  43.930  10.770  13.925
18244W        W90504  35.414  43.768   1.808
18245W        W90505   2.874  11.361   1.741
18246W        W90506  31.593  37.946   2.204
18247W        W90507   2.358   7.182  14.771
18248W        W90508  12.626  38.038  10.520
18249W        W90509  14.675  11.657   1.793
18250W        W90510   8.407  29.531  13.353
18251W        W90511  14.705  29.566  12.860
18252W        W90512   8.881   3.897   0.344
18253W        W90513  22.173   0.750  14.983
18254W        W90514   6.849  20.659   1.869
18255W        W90515   7.828  34.865  12.340
18256W        W90516   1.324  30.453   3.793
18257W        W90517  40.896  38.984   3.214
18258W        W90518  43.842  39.514   3.365
18259W        W90519  31.536  15.678  10.482
18260W        W90520  43.493   8.256  12.461
18261W        W90521   4.735  33.062  13.846
18262W        W90522   1.481   1.878   1.396
18263W        W90523   6.814  26.179   4.824
18264W        W90524  23.142  10.674  13.466
18265W        W90525  36.499   5.428  10.522
18266W        W90526  19.656  12.267   0.879
18267W        W90527  29.119  16.237   4.660
18268W        W90528   7.818  43.405  11.387
18269W        W90529   5.919   1.968  12.426
18270W        W90530  38.053  16.254   0.275
18271W        W90531  36.583   8.867  13.050
18272W        W90532  13.156  33.936   0.752
18273W        W90533  14.695   0.853   1.768
18274W        W90534   8.702  14.324   2.722
18275W        W90535   9.744  43.395  10.569
18276W        W90536  37.428   1.336  11.493
18277W        W90537  31.136   2.938   2.375
18278W        W90538  26.032  33.901   1.713
18279W        W90539  11.227  20.586  13.338
18280W        W90540  30.571  26.599   1.705
18281W        W90541  29.088  20.146  13.482
18282W        W90542   9.697  32.106  14.024
18283W        W90543  19.100  14.722   1.720
18284W        W90544  10.356  31.118   2.833
18285W        W90545   4.240  28.506  10.582
18286W        W90546   1.329  35.974   3.813
18287W        W90547  11.333   8.199  13.826
18288W        W90548  15.676  30.523  11.396
18289W        W90549  15.796  16.208  14.380
18290W        W90550  16.781  29.562  11.563
18291W        W90551  44.905  38.914  12.041
18292W        W90552  28.103  21.071   0.346
18293W        W90553   6.731  23.586  11.018
18294W        W90554  35.564  11.284   2.271
18295W        W90555  37.529   1.310  12.345
18296W        W90556  36.931  36.542  12.943
18297W        W90557  23.127  10.814   1.735
18298W        W90558  12.682  25.603   1.723
18299W        W90559  38.533  20.143  14.016
18300W        W90560  19.115  29.457   2.282
18301W        W90561  12.677  14.713  11.881
18302W        W90562  44.453  42.284  14.302
18303W        W90563   3.385   5.310   2.398
18304W        W90564  36.951  27.128  14.863
18305W        W90565  39.035  36.426  13.441
18306W        W90566  44.862   4.281  14.380
18307W        W90567   3.793  22.627  12.568
18308W        W90568  27.680  16.708   2.780
18309W        W90569  18.082  36.550   1.439
18310W        W90570   5.919  11.339  12.478
18311W        W90571  39.424  22.052   1.262
18312W        W90572   3.891  38.430  10.933
18313W        W90573  32.405  21.260  11.887
18314W        W90574  22.582   0.882  14.375
18315W        W90575  29.539  43.769   2.665
18316W        W90576  27.096   5.357  14.844
18317W        W90577  32.420  36.908  11.952
18318W        W90578  39.049  30.123   0.373
18319W        W90579  14.653  22.658   2.196
18320W        W90580  21.061   8.181  13.474
18321W        W90581  12.346  10.304   0.804
18322W        W90582  43.453   3.849   2.274
18323W        W90583  38.523  42.831  11.395
18324W        W90584  19.040  26.658   0.801
18325W        W90585  36.958  19.748  13.906
18326W        W90586  24.176  44.464  14.853
18327W        W90587  10.206  38.484   2.194
18328W        W90588  29.067  43.282   2.847
18329W        W90589  41.999  36.959   2.744
18330W        W90590  34.536  32.492   1.774
18331W        W90591  40.019  22.198  12.392
18332W        W90592  10.760   7.416   4.222
18333W        W90593  10.788   5.437  11.422
18334W        W90594  29.535  16.079   1.788
18335W        W90595   3.748   4.809   9.967
18336W        W90596  38.415  26.496   3.218
18337W        W90597  29.963  10.383   1.366
18338W        W90598  13.264   0.751   0.876
18339W        W90599  22.186   9.317   2.772
18340W        W90600   4.742  11.289  14.791
18341W        W90601  23.728  33.417   2.878
18342W        W90602  22.555  37.449   0.416
18343W        W90603   6.865  14.738   2.760
18344W        W90604   6.251   1.335  10.489
18345W        W90605  15.325  18.204   3.790
18346W        W90606  21.572  15.318   0.283
18347W        W90607  42.988  14.304   3.232
18348W        W90608  32.916  21.132  10.536
18349W        W90609  23.598  20.712  11.403
18350W        W90610   6.766  12.227   1.397
18351W        W90611  23.713  37.512   4.113
18352W        W90612   5.221  11.173   4.759
18353W        W90613  39.937  30.158   2.232
18354W        W90614   2.945  13.718  12.912
18355W        W90615  20.688  26.671   1.290
18356W        W90616  42.904  30.503  13.038
18357W        W90617  21.069  36.023  11.928
18358W        W90618  12.754  17.236   1.450
18359W        W90619  13.280  22.661  11.124
18360W        W90620   4.355  38.533  10.544
18361W        W90621  18.695  15.265   4.680
18362W        W90622   2.226  31.964   0.892
18363W        W90623  17.215   6.854  11.951
18364W        W90624  24.498   7.671   1.703
18365W        W90625   8.285  12.812   1.255
18366W        W90626   7.742  35.884  12.406
18367W        W90627  38.498  38.924  12.078
18368W        W90628   0.843  12.850  10.570
18369W        W90629  11.225  41.311   4.780
18370W        W90630  23.587   5.690  11.498
18371W        W90631  14.701  26.514   4.773
18372W        W90632  32.527  17.167   1.263
18373W        W90633  27.940  39.827  14.926
18374W        W90634  11.204  25.084   2.219
18375W        W90635  26.138  32.014  14.502
18376W        W90636  19.067  38.373   2.862
18377W        W90637  13.178  15.086  12.548
18378W        W90638  32.617  19.665  10.944
18379W        W90639  12.176   9.250   0.305
18380W        W90640  27.979  18.090   3.823
18381W        W90641  34.375  36.928  11.517
18382W        W90642  36.575  29.658   0.320
18383W        W90643  20.607  35.061   4.150
18384W        W90644  27.461  20.220  13.921
18385W        W90645   8.266   5.310  13.851
18386W        W90646   4.736  40.464   1.427
18387W        W90647  11.197  14.292   1.290
18388W        W90648  37.563   9.735  13.011
18389W        W90649  37.459  11.644   1.212
18390W        W90650   9.679  31.071  11.466
18391W        W90651   5.199  28.056  10.026
18392W        W90652  22.178  33.032  11.878
18393W        W90653  23.134   2.847  13.431
18394W        W90654   9.698  14.232  14.925
18395W        W90655  36.036  15.597  11.869
18396W        W90656   2.831   9.760   2.775
18397W        W90657   7.844   2.370   1.240
18398W        W90658  14.690  16.728   0.435
18399W        W90659  28.567  41.355   1.235
18400W        W90660   7.725   0.935  12.901
18401W        W90661   2.390  15.710   5.240
18402W        W90662  12.809  24.995  14.298
18403W        W90663   4.431   9.821   4.259
18404W        W90664  36.522  21.129   0.264
18405W        W90665  36.955  26.051  14.504
18406W        W90666   5.289  39.452  14.984
18407W        W90667  19.085  34.025  13.814
18408W        W90668  31.557  26.614   2.874
18409W        W90669   4.347  37.943   0.880
18410W        W90670  28.968  42.803  14.890
18411W        W90671  12.156  26.064   2.848
18412W        W90672  25.483  36.430  14.491
18413W        W90673  19.574  27.058   3.150
18414W        W90674   9.351  35.465  14.302
18415W        W90675  39.372   6.283   4.346
18416W        W90676  17.719  19.650  11.507
18417W        W90677  31.555  31.959   0.448
18418W        W90678  14.193  29.651  11.986
18419W        W90679  21.039   4.712   2.803
18420W        W90680  44.953  40.475   3.350
18421W        W90681   9.273   9.372   1.926
18422W        W90682  42.929  39.509  14.839
18423W        W90683   3.353  26.610   1.781
18424W        W90684  11.860  20.103  13.364
18425W        W90685   9.787   4.743   4.352
18426W        W90686   7.194  18.184  14.277
18427W        W90687  20.545  21.158   5.109
18428W        W90688   5.790  17.070  13.920
18429W        W90689  12.708  43.008  11.591
18430W        W90690   8.765  10.157  12.923
18431W        W90691  21.087  14.217   1.310
18432W        W90692  10.865  32.571  13.523
18433W        W90693  21.195   6.378  12.965
18434W        W90694  19.611  33.123  12.539
18435W        W90695  44.290  39.442   9.924
18436W        W90696  25.993  20.709  15.000
18437W        W90697  20.659  12.739  12.501
18438W        W90698  32.010  21.150  12.064
18439W        W90699  18.700  38.067  13.874
18440W        W90700  41.963  16.647  11.914
18441W        W90701  20.629  14.210  13.523
18442W        W90702  34.433  36.546  13.854
18443W        W90703   4.790  14.187   1.728
18444W        W90704  15.797  41.998  12.386
18445W        W90705  24.530  12.237   1.371
18446W        W90706  36.865   1.273  14.806
18447W        W90707   4.221  41.947   0.927
18448W        W90708  25.044   3.826  14.822
18449W        W90709  21.737   2.916   1.270
18450W        W90710  39.506  23.228  10.933
18451W        W90711  12.160  19.742   4.138
18452W        W90712  23.062   0.300   0.476
18453W        W90713   9.356  26.645   1.723
18454W        W90714  24.079  16.772   2.280
18455W        W90715  31.519  32.464   0.740
18456W        W90716  41.531  21.575  11.011
18457W        W90717  41.409  19.738  12.095
18458W        W90718  16.278  43.362   4.760
18459W        W90719  30.571   6.391   2.393
18460W        W90720  19.775  22.110  14.389
18461W        W90721  30.022   0.339  12.936
18462W        W90722  17.562  24.560  13.844
18463W        W90723  32.093   2.874  14.847
18464W        W90724  14.681   3.385  12.852
18465W        W90725  32.474  19.728   1.370
18466W        W90726  17.232  12.207   4.346
18467W        W90727  39.434  23.112   0.860
18468W        W90728   4.426  30.962  14.811
18469W        W90729  24.227  33.479  14.832
18470W        W90730   5.891  28.452  12.469
18471W        W90731  33.889  28.667  14.300
18472W        W90732  26.553  31.002   1.747
18473W        W90733  39.828   5.437  12.958
18474W        W90734  12.676  41.422  11.962
18475W        W90735  36.429  26.479   4.221
18476W        W90736  35.869  38.396   0.355
18477W        W90737  11.351  11.744   4.176
18478W        W90738  31.485   0.765  11.400
18479W        W90739  42.465  22.660   4.232
18480W        W90740   5.195  29.168   4.176
18481W        W90741  14.324  38.402   1.849
18482W        W90742  14.625  24.566  13.418
18483W        W90743  26.019   6.343   3.371
18484W        W90744   3.445  33.880   4.240
18485W        W90745   3.221  39.891  11.515
18486W        W90746  37.923   6.285   4.349
18487W        W90747  12.624  16.787  14.910
18488W        W90748   2.462  13.118  13.396
18489W        W90749   9.385  22.623  12.966
18490W        W90750  24.194   3.931  12.527
18491W        W90751  41.496  24.636  10.434
18492W        W90752  33.065   3.403  11.107
18493W        W90753   5.735   6.900  14.828
18494W        W90754  24.176   1.762   1.885
18495W        W90755  35.395  20.049  14.837
18496W        W90756  13.273   3.373  14.497
18497W        W90757  34.579  42.893   4.802
18498W        W90758   0.809  35.896   4.699
18499W        W90759  42.977  39.458   0.444
18500W        W90760  17.092  25.517   0.465
18501W        W90761  44.993   7.366  14.298
18502W        W90762  41.406  33.443   1.720
18503W        W90763   3.400  11.836   1.349
18504W        W90764  42.863  37.925   3.173
18505W        W90765  12.118  20.103   3.714
18506W        W90766  36.991  29.151   4.606
18507W        W90767   0.855  26.129   4.796
18508W        W90768  12.339  15.303   3.260
18509W        W90769  17.277  24.507   1.442
18510W        W90770   5.747  39.398  13.446
18511W        W90771  24.502  33.042   1.446
18512W        W90772  28.033  22.699   2.873
18513W        W90773  25.586  36.968   3.223
18514W        W90774  30.586  19.691   0.737
18515W        W90775  17.762   3.329   2.807
18516W        W90776   7.179  20.181  14.021
18517W        W90777   8.396  41.875   1.722
18518W        W90778  35.536   1.459   0.952
18519W        W90779  39.894  37.416  13.986
18520W        W90780  37.878  15.588   4.773
18521W        W90781   7.792   7.237  12.341
18522W        W90782  38.560  35.972   2.755
18523W        W90783   4.216  15.127  14.826
18524W        W90784  19.688   0.870  14.457
18525W        W90785  22.215  17.300   1.721
18526W        W90786  13.789  12.186   2.341
18527W        W90787  36.471  21.676   4.226
18528W        W90788  34.009   4.739  14.822
18529W        W90789  35.942  39.525  14.000
18530W        W90790  40.845  34.413   2.320
18531W        W90791  11.762  43.814   4.637
18532W        W90792   7.206  29.102   0.868
18533W        W90793  41.403  24.644  11.060
18534W        W90794  28.023  11.169   3.809
18535W        W90795  34.562   5.813   2.277
18536W        W90796  39.392   3.331   5.215
18537W        W90797  43.885  41.430   1.381
18538W        W90798  18.663  42.004  13.441
18539W        W90799  13.203  37.475  12.474
18540W        W90800  43.936  31.023   3.816
18541W        W90801  22.127  28.019   3.356
18542W        W90802  22.591  10.331   0.841
18543W        W90803   1.928   2.862  13.939
18544W        W90804   6.247  25.626  13.045
18545W        W90805  25.028  31.923  10.969
18546W        W90806   9.242  19.716  11.944
18547W        W90807  38.921  26.049   1.698
18548W        W90808  11.127  35.588  12.868
18549W        W90809   4.804   7.865  14.385
18550W        W90810  34.017  14.789   2.359
18551W        W90811  37.489  40.452   2.419
18552W        W90812  38.860  31.938  14.379
18553W        W90813  30.055  42.470   0.888
18554W        W90814   5.284  41.449   2.820
18555W        W90815  16.609  18.055  13.393
18556W        W90816   8.672  18.069   4.739
18557W        W90817  21.240  12.837   9.999
18558W        W90818   3.905  30.068  10.428
18559W        W90819  39.902   8.850  10.632
18560W        W90820  37.440   8.715  11.974
18561W        W90821  38.339  13.802  12.459
18562W        W90822   3.742   1.744  11.507
18563W        W90823  43.845   1.360  11.107
18564W        W90824  20.766  16.294  14.891
18565W        W90825   9.199  13.711   0.424
18566W        W90826  31.437  32.897   0.469
18567W        W90827   0.255  10.640   2.777
18568W        W90828  28.643  31.455  11.946
18569W        W90829  19.677  43.430  10.891
18570W        W90830  11.744  29.457  12.465
18571W        W90831  22.235  40.483  14.000
18572W        W90832  39.927  13.609  13.006
18573W        W90833  10.722   4.809   4.672
18574W        W90834  21.691  42.402   2.219
18575W        W90835   8.195   3.436  10.626
18576W        W90836  35.911  22.033  12.410
18577W        W90837  37.514  12.826   0.365
18578W        W90838  36.994   6.307   0.914
18579W        W90839  42.026  40.947   4.207
18580W        W90840  16.619   9.255  14.996
18581W        W90841  41.829   2.464   1.224
18582W        W90842  22.229   0.761   1.932
18583W        W90843  29.519   8.676   0.332
18584W        W90844   4.914  36.054  10.512
18585W        W90845  17.646   9.714  14.457
18586W        W90846   4.359  12.753  14.031
18587W        W90847  11.362  33.902   1.766
18588W        W90848   0.955  23.047  13.444
18589W        W90849  37.361   4.915   4.203
18590W        W90850  44.950  25.975  12.543
18591W        W90851  43.453  43.949  11.458
18592W        W90852   4.219  37.549  12.040
18593W        W90853  18.582  12.729  13.890
18594W        W90854  28.096   0.882   2.346
18595W        W90855  44.821   9.148  12.380
18596W        W90856   5.276  18.595   0.390
18597W        W90857  19.109   2.236   0.375
18598W        W90858  33.946   0.970   4.320
18599W        W90859   8.804   0.956  14.276
18600W        W90860   5.874  32.450  13.906
18601W        W90861  21.713  25.697  13.460
18602W        W90862   2.308  38.995   1.831
18603W        W90863   1.393  27.004   0.404
18604W        W90864  18.108  19.745   1.442
18605W        W90865  34.509  21.115  13.323
18606W        W90866  13.315  13.707  13.384
18607W        W90867   8.738   6.813  13.348
18608W        W90868  16.748  28.480   3.169
18609W        W90869   3.302  14.316  11.517
18610W        W90870  13.802  23.625  10.628
18611W        W90871  37.871   0.264  10.424
18612W        W90872  29.593  33.561  11.513
18613W        W90873  43.947   1.823   0.737
18614W        W90874  31.546  18.647  13.353
18615W        W90875  42.923  26.543   1.302
18616W        W90876  38.412  21.172  14.811
18617W        W90877   9.347  43.972  13.987
18618W        W90878  23.698  36.481   3.302
18619W        W90879  14.314  42.792   1.253
18620W        W90880  13.812  27.173   2.740
18621W        W90881  36.870   3.233  13.979
18622W        W90882  42.978  11.219  12.087
18623W        W90883  26.539  41.401   2.270
18624W        W90884  26.037  16.770   1.337
18625W        W90885  12.266  41.801   0.920
18626W        W90886   8.661  39.502   0.476
18627W        W90887   8.335  19.204  11.595
18628W        W90888  38.857  10.678  13.459
18629W        W90889   6.861  20.650   2.225
18630W        W90890  35.947   5.846   0.884
18631W        W90891  18.758  44.845   4.808
18632W        W90892   9.872  41.318   4.611
18633W        W90893   8.848  25.587   4.236
18634W        W90894  28.465  33.503   1.811
18635W        W90895   6.378  33.119  14.429
18636W        W90896  17.749   1.768  14.418
18637W        W90897  28.136  37.525  10.413
18638W        W90898  26.697  34.092   0.261
18639W        W90899   3.336  29.583   0.844
18640W        W90900  39.989  27.540  11.505
18641W        W90901  17.151  25.058  14.481
18642W        W90902  39.833  21.260  14.996
18643W        W90903  23.100  43.976  13.456
18644W        W90904  39.505  14.601  13.038
18645W        W90905  35.429  29.528   4.334
18646W        W90906  42.793   5.376   1.711
18647W        W90907  19.635   6.813   0.345
18648W        W90908  26.994  37.478   1.845
18649W        W90909  14.703  13.779   0.396
18650W        W90910  42.417  17.246  11.106
18651W        W90911  42.423  26.678   2.328
18652W        W90912  15.253  13.669  13.467
18653W        W90913  31.491   4.943  12.902
18654W        W90914  19.219  27.611   3.706
18655W        W90915  25.152  18.583   3.805
18656W        W90916  18.123   5.250  13.424
18657W        W90917  17.261  32.127   2.864
18658W        W90918   4.260  30.527   2.226
18659W        W90919   9.218   6.305   1.708
18660W        W90920  34.029  25.166  11.526
18661W        W90921  19.129  40.884  12.969
18662W        W90922  11.728   8.810   3.742
18663W        W90923  11.837  12.326  11.511
18664W        W90924   8.748  22.720  14.985
18665W        W90925   9.369  39.984   4.328
18666W        W90926  31.921  18.056  10.534
18667W        W90927  10.269  16.312   0.795
18668W        W90928  20.542  43.864   0.875
18669W        W90929  32.893   6.336   2.280
18670W        W90930  10.691   0.853  10.568
18671W        W90931  31.464   0.844  10.581
18672W        W90932  14.731  20.725   4.753
18673W        W90933  44.853  35.867  13.812
18674W        W90934   5.357  26.183   5.662
18675W        W90935  40.894  19.283   2.311
18676W        W90936  18.574   7.313  11.990
18677W        W90937  36.011  29.482   4.823
18678W        W90938  11.793  37.079   2.249
18679W        W90939  33.514  36.086  11.905
18680W        W90940  13.292  31.648   0.830
18681W        W90941  31.042  15.309  11.001
18682W        W90942  32.069  32.942   4.620
18683W        W90943  23.990  18.719   0.359
18684W        W90944  24.094   0.899   5.252
18685W        W90945   7.183  44.380  14.338
18686W        W90946  42.949  32.605  12.014
18687W        W90947  23.206  10.836  10.437
18688W        W90948  20.136  29.480  12.848
18689W        W90949   3.344  12.709  11.078
18690W        W90950  24.187  24.559   0.750
18691W        W90951  15.104   1.894   4.327
18692W        W90952  25.522  32.021  12.848
18693W        W90953  14.596  23.072  12.059
18694W        W90954  14.773  42.386  11.463
18695W        W90955   5.756   6.700   1.219
18696W        W90956  37.422  29.148   1.351
18697W        W90957  34.000   5.210  10.626
18698W        W90958  42.988   1.410  12.940
18699W        W90959  12.229  24.222   4.278
18700W        W90960  24.561   3.728   2.345
18701W        W90961  33.381  27.644  13.378
18702W        W90962   2.452   6.373   1.913
18703W        W90963  29.491   0.893   3.840
18704W        W90964  11.258  24.667   3.352
18705W        W90965  16.807  32.626   0.364
18706W        W90966  17.562  24.085   0.776
18707W        W90967   4.891   5.904  11.000
18708W        W90968  36.589   1.413  12.080
18709W        W90969  11.683  12.739   4.135
18710W        W90970  38.477   0.432   1.233
18711W        W90971  25.032   7.416   2.341
18712W        W90972  20.248   2.798  12.580
18713W        W90973   4.274  33.092  10.550
18714W        W90974  19.568  14.227   4.287
18715W        W90975  12.663  26.007   1.726
18716W        W90976  11.195  37.870  12.079
18717W        W90977  10.356  26.031  14.971
18718W        W90978   1.878  22.050   0.470
18719W        W90979  33.567  19.237  11.906
18720W        W90980  15.289   3.367  10.588
18721W        W90981  42.802  36.885  12.415
18722W        W90982   8.870   7.230  13.062
18723W        W90983  13.328  29.439  13.920
18724W        W90984   7.293  10.702  14.886
18725W        W90985  17.656  29.494  14.367
18726W        W90986   3.912   8.389   0.962
18727W        W90987  39.381   2.773   1.728
18728W        W90988  13.141  26.097   4.131
18729W        W90989  18.631  19.761  12.374
18730W        W90990  25.673  18.772  12.425
18731W        W90991  18.161  28.435   4.606
18732W        W90992  19.740  43.766  11.431
18733W        W90993  33.546   3.393   0.359
18734W        W90994  20.108  20.037  11.514
18735W        W90995  14.762   6.711  13.058
18736W        W90996  32.942   4.335   4.810
18737W        W90997   4.859  42.872   0.846
18738W        W90998  23.146  12.675  12.550
18739W        W90999   6.690  30.145   0.962
18740W        W91000   3.447  14.680   2.686
18741W        W91001  36.041  40.357  11.578
18742W        W91002  38.487  44.810  11.541
18743W        W91003  41.338  29.121  12.366
18744W        W91004  24.014  35.087   4.762
18745W        W91005  12.748   6.295   0.397
18746W        W91006  33.514  17.258  14.276
18747W        W91007   8.740  44.300  10.020
18748W        W91008  25.650   1.439   3.735
18749W        W91009  32.997  19.632  11.899
18750W        W91010  10.279  34.070   3.658
18751W        W91011  38.044  13.221  10.969
18752W        W91012  42.031  35.403   2.783
18753W        W91013  22.551  32.435  11.571
18754W        W91014  30.520   0.835  11.862
18755W        W91015   7.770   0.987   0.937
18756W        W91016  36.953  38.035  11.582
18757W        W91017  32.619  41.461  13.004
18758W        W91018  11.163   3.316  13.407
18759W        W91019  38.906  15.703  14.282
18760W        W91020   3.919  31.553  13.343
18761W        W91021  22.149  35.579   4.201
18762W        W91022  30.455  36.366  13.478
18763W        W91023  36.478   3.818   1.445
18764W        W91024  38.394  27.475  11.571
18765W        W91025  28.991  25.090  14.393
18766W        W91026   5.356  26.118  12.515
18767W        W91027   6.374  16.133   1.400
18768W        W91028   4.374  27.128  12.888
18769W        W91029  31.500  19.606  13.058
18770W        W91030  10.186  17.557   1.382
18771W        W91031  14.158  41.296   1.791
18772W        W91032  23.643  21.194  10.575
18773W        W91033   7.185  44.361  12.962
18774W        W91034  16.776  41.456  13.533
18775W        W91035  42.442   0.900  14.763
18776W        W91036  22.647  21.112   3.150
18777W        W91037  34.953  18.753  14.801
18778W        W91038  35.896   1.861  12.416
18779W        W91039  43.445   7.207  14.017
18780W        W91040  29.035  18.058  11.379
18781W        W91041  14.644   0.890  12.049
18782W        W91042  27.173  33.472   0.245
18783W        W91043  18.654  30.530  14.446
18784W        W91044  24.495  23.170  14.450
18785W        W91045  10.267   1.889  10.588
18786W        W91046   5.825   9.858   3.749
18787W        W91047   0.260   5.389   0.256
18788W        W91048  36.392  39.422   2.389
18789W        W91049  31.968  44.335   4.668
18790W        W91050  18.677  42.470   3.759
18791W        W91051   7.727  11.663   4.197
18792W        W91052  34.893  41.455  12.340
18793W        W91053   2.906   8.232  13.883
18794W        W91054  31.490  35.575  12.987
18795W        W91055  37.363  43.803   3.685
18796W        W91056  35.960  21.224  11.601
18797W        W91057  25.037   7.241  13.914
18798W        W91058  19.779  43.794  12.871
18799W        W91059   8.769  16.730  11.887
18800W        W91060  17.263  25.013  10.933
18801W        W91061  25.108  40.315   1.393
18802W        W91062  12.173  23.043  13.537
18803W        W91063  15.641  41.861   0.411
18804W        W91064  16.280  41.393  10.492
18805W        W91065  36.905  18.789   1.854
18806W        W91066  38.485  32.419  11.948
18807W        W91067   7.796  29.085  14.895
18808W        W91068  31.447   1.827  10.473
18809W        W91069  38.937  44.270  13.910
18810W        W91070  18.660  28.937   2.417
18811W        W91071  34.506  29.092   4.766
18812W        W91072  13.338  38.935   0.753
18813W        W91073   9.320  31.580   4.249
18814W        W91074  38.926  10.855   3.319
18815W        W91075   0.350   3.770   1.237
18816W        W91076  36.503  33.061   2.388
18817W        W91077  20.702   2.817  11.457
18818W        W91078  14.340  10.650  12.831
18819W        W91079  31.021   4.447   1.808
18820W        W91080  40.844   1.911  14.912
18821W        W91081  22.590   5.250  12.554
18822W        W91082  20.667   1.396  10.940
18823W        W91083   9.190  32.501   4.323
18824W        W91084  31.594  25.005  14.417
18825W        W91085  33.118  44.862  12.532
18826W        W91086   4.740  14.791   0.295
18827W        W91087  14.243   4.754  12.936
18828W        W91088  38.903  36.864   0.771
18829W        W91089  20.115  12.302   4.340
18830W        W91090  30.046  34.052   4.727
18831W        W91091   8.887  42.914  11.503
18832W        W91092  42.405  34.538   4.682
18833W        W91093   7.681  24.673  13.955
18834W        W91094   9.208   8.745  13.523
18835W        W91095  30.984  32.461  12.955
18836W        W91096  35.430   8.735   3.671
18837W        W91097  17.612  34.098   3.657
18838W        W91098  25.607  23.087  11.554
18839W        W91099   5.388  21.609   1.236
18840W        W91100  20.176  21.573  10.595
18841W        W91101  21.521   0.369  10.568
18842W        W91102  11.676  31.940   2.363
18843W        W91103   3.244  17.697   3.168
18844W        W91104  23.529  24.717   0.835
18845W        W91105   0.387  37.066   3.819
18846W        W91106   0.458  28.554  11.875
18847W        W91107   1.957   6.199  12.045
18848W        W91108   5.832  34.411  11.534
18849W        W91109  15.806   4.727   3.780
18850W        W91110  14.121  34.066   2.350
18851W        W91111  24.721  10.667   3.648
18852W        W91112  30.567   8.219  10.497
18853W        W91113  19.275  41.826  11.408
18854W        W91114  10.213  38.434  14.026
18855W        W91115  22.639  29.608  13.398
18856W        W91116  34.462   5.344  12.987
18857W        W91117  41.871  34.442  11.999
18858W        W91118  44.778  42.837   0.458
18859W        W91119  22.208  35.057  12.897
18860W        W91120  12.162  18.638   2.665
18861W        W91121  15.173  32.891  13.391
18862W        W91122   0.363   5.387   2.297
18863W        W91123  44.303   7.760  10.553
18864W        W91124  20.714   9.720  14.761
18865W        W91125  42.848   3.425  12.403
18866W        W91126  13.308  11.758   3.226
18867W        W91127  19.751  12.298   0.294
18868W        W91128  44.486   4.391  11.101
18869W        W91129  33.486   0.275  10.465
18870W        W91130   0.421  16.149   4.292
18871W        W91131  33.601  18.248  13.383
18872W        W91132  10.716   6.266   1.701
18873W        W91133  12.648   1.382  10.455
18874W        W91134  35.065  24.625   0.461
18875W        W91135  14.308   5.873  14.836
18876W        W91136  22.659  28.085   0.252
18877W        W91137  23.045  17.697   4.168
18878W        W91138   6.891   2.372  12.053
18879W        W91139   2.801   6.219   3.349
18880W        W91140  27.161  37.510  13.891
18881W        W91141  40.402  12.672   5.162
18882W        W91142   2.227  23.529   2.316
18883W        W91143  10.638   3.435  14.350
18884W        W91144  13.762  20.238  10.895
18885W        W91145   7.323   8.786  11.549
18886W        W91146  19.228  39.863  11.987
18887W        W91147   8.266  43.307   4.748
18888W        W91148  30.145  44.007   2.831
18889W        W91149  32.631  20.200  13.869
18890W        W91150  23.576  28.463   4.308
18891W        W91151  40.548  10.799  14.915
18892W        W91152   3.842   4.848   0.877
18893W        W91153  16.603  21.650   0.410
18894W        W91154  31.042  26.577  10.980
18895W        W91155  27.150  39.884   5.272
18896W        W91156   9.661  24.001   4.180
18897W        W91157   8.301   2.376   1.803
18898W        W91158  37.062   3.315  14.903
18899W        W91159  26.522   3.251  12.967
18900W        W91160   4.344  14.627   1.927
18901W        W91161  21.159  22.745  10.498
18902W        W91162  44.424  27.676   0.291
18903W        W91163  25.687  21.064   1.284
18904W        W91164  13.734   7.209   1.707
18905W        W91165  15.196  10.298   4.236
18906W        W91166  28.011  11.798  14.972
18907W        W91167  15.793  20.550  11.601
18908W        W91168  26.595  38.832  14.485
18909W        W91169  43.990  14.642   4.347
18910W        W91170  22.182   8.680  13.791
18911W        W91171  13.679  29.133  14.966
18912W        W91172  25.144  19.663   0.847
18913W        W91173  24.219  39.549   4.340
18914W        W91174   1.470  39.322  13.377
18915W        W91175  13.787  31.474   1.895
18916W        W91176  10.218  19.641  14.341
18917W        W91177  12.667  18.718   0.348
18918W        W91178   2.360  17.765   4.304
18919W        W91179   5.857  27.128  14.297
18920W        W91180   7.320  11.835  10.487
18921W        W91181  29.486   8.678  10.613
18922W        W91182  38.511   6.348   2.342
18923W        W91183  21.719  42.972  14.397
18924W        W91184  39.443  35.403  14.902
18925W        W91185  41.868  10.279   4.819
18926W        W91186   9.270  23.653  11.488
18927W        W91187   1.312  34.878  14.416
18928W        W91188   0.790   3.372   2.791
18929W        W91189   2.942  32.625  14.887
18930W        W91190  34.868  36.475   0.261
18931W        W91191  43.925  12.271  11.118
18932W        W91192  11.231  39.474  14.457
18933W        W91193  13.209  15.274   4.257
18934W        W91194  43.313  32.031   1.250
18935W        W91195  43.288  44.372  11.077
18936W        W91196   3.779  20.551   1.281
18937W        W91197  17.098  28.666   2.759
18938W        W91198  10.383   8.673  12.377
18939W        W91199  40.413  10.832   2.246
18940W        W91200  18.205  22.189  14.814
18941W        W91201   8.785  11.151  12.996
18942W        W91202   8.744  12.159   4.769
18943W        W91203  19.575  39.034   4.228
18944W        W91204  26.665  22.092  12.876
18945W        W91205  30.090  32.428   3.188
18946W        W91206   9.216  17.114  11.985
18947W        W91207  36.079  18.201  14.302
18948W        W91208   3.346  26.504  10.608
18949W        W91209   6.864  33.430  12.847
18950W        W91210   1.256  23.040  10.587
18951W        W91211  28.530  40.814   2.867
18952W        W91212  17.619  36.403   3.807
18953W        W91213   1.969  37.957   1.220
18954W        W91214  13.177  18.605  12.052
18955W        W91215  11.817  41.421   0.746
18956W        W91216  12.644  34.008   1.376
18957W        W91217  38.354  44.318  14.864
18958W        W91218  11.655  18.226  12.944
18959W        W91219  15.118  41.950   3.254
18960W        W91220  12.312  40.427   0.738
18961W        W91221  36.577  13.244   0.856
18962W        W91222  27.140   4.711  10.999
18963W        W91223  12.724  33.457  14.011
18964W        W91224  11.373  33.946  12.876
18965W        W91225  29.612  38.351  12.372
18966W        W91226  25.472   2.410  11.591
18967W        W91227  42.501   4.911   3.298
18968W        W91228  37.361  26.522  10.573
18969W        W91229  38.533  15.133   2.753
18970W        W91230   6.722   4.721  13.894
18971W        W91231   0.494  24.127   4.691
18972W        W91232  28.125   7.298  12.942
18973W        W91233   0.426  12.164   3.328
18974W        W91234  36.387  35.458  14.835
18975W        W91235  31.542  40.314   1.779
18976W        W91236  16.780  30.140  14.824
18977W        W91237  18.149   7.284   2.725
18978W        W91238  40.800  36.985   2.831
18979W        W91239  43.778  33.441  13.533
18980W        W91240  21.261  15.593   4.708
18981W        W91241  11.368  28.998  11.024
18982W        W91242  17.721   9.241   3.670
18983W        W91243  34.379   7.725  13.418
18984W        W91244  44.415  18.170   3.703
18985W        W91245  32.483  14.296  12.095
18986W        W91246   0.874   2.936  10.468
18987W        W91247  32.585  28.679  14.795
18988W        W91248  42.343  42.485   3.192
18989W        W91249  19.188  19.646   0.780
18990W        W91250  12.326   5.197  12.403
18991W        W91251  19.165  18.254   2.841
18992W        W91252  17.623  18.144  10.608
18993W        W91253  30.484  30.564  14.852
18994W        W91254  29.939  16.080  11.888
18995W        W91255  31.520  24.008  14.865
18996W        W91256  16.314  32.449   3.161
18997W        W91257  30.559  44.907   1.790
18998W        W91258  25.151  12.617   1.798
18999W        W91259  22.012  27.081  14.984
19000W        W91260  11.757  16.679   4.706
19001W        W91261  40.381   6.287   0.405
19002W        W91262  24.660   9.698  11.009
19003W        W91263  14.677  15.322  10.561
19004W        W91264  35.564   3.399   0.437
19005W        W91265  21.238  26.013  11.552
19006W        W91266  40.411   5.220   4.328
19007W        W91267  36.988  19.066  12.917
19008W        W91268  25.586  14.624   2.783
19009W        W91269  18.107  17.090   1.322
19010W        W91270  24.050  10.148   4.690
19011W        W91271  24.675  17.163  10.981
19012W        W91272  12.322  13.208   3.294
19013W        W91273  36.560   2.396   3.382
19014W        W91274  23.208  37.954  13.543
19015W        W91275  27.046  42.509  12.871
19016W        W91276  41.419   6.328  11.569
19017W        W91277   6.190  33.914   4.603
19018W        W91278  18.113  26.510  11.108
19019W        W91279  27.645  13.169   0.767
19020W        W91280   0.834  42.924   4.780
19021W        W91281  32.077  20.054  14.304
19022W        W91282  11.262  11.700   1.258
19023W        W91283  41.935  20.586  12.491
19024W        W91284  29.076  39.824   0.730
19025W        W91285  21.686  12.240   2.195
19026W        W91286   0.448  39.826  12.365
19027W        W91287  25.581  15.747   0.380
19028W        W91288  10.301  13.189   5.309
19029W        W91289   2.811   0.743   2.671
19030W        W91290  34.542  24.986  10.612
19031W        W91291  28.668  25.623  10.973
19032W        W91292  15.142   2.792  14.453
19033W        W91293  26.528  32.931   0.290
19034W        W91294  41.796   3.739   3.661
19035W        W91295   4.840  27.528  14.871
19036W        W91296   7.673   5.779   1.913
19037W        W91297  38.446  26.658   2.705
19038W        W91298  22.082  44.768   1.276
19039W        W91299  34.488  12.250  12.898
19040W        W91300  10.149  23.145  14.351
19041W        W91301  20.160   1.886  11.116
19042W        W91302  40.334  39.447  11.046
19043W        W91303  11.858   2.267   3.773
19044W        W91304  42.973  41.347  14.492
19045W        W91305  23.024  44.470   2.217
19046W        W91306  26.699  37.070  14.500
19047W        W91307  30.997   3.354  14.384
19048W        W91308  11.680  13.766  11.415
19049W        W91309  10.158  32.991  13.326
19050W        W91310  14.601   1.335   1.878
19051W        W91311  30.158  18.745   3.268
19052W        W91312  16.317  30.124   4.296
19053W        W91313  22.053  44.407   0.363
19054W        W91314  40.930  11.865   2.375
19055W        W91315  20.161  43.459   2.230
19056W        W91316  40.903  33.609  13.313
19057W        W91317  20.730  23.609   0.295
19058W        W91318   3.413  18.615  14.801
19059W        W91319  31.638  32.535   4.800
19060W        W91320  21.068  43.286  10.615
19061W        W91321   8.314   2.763   4.754
19062W        W91322   5.229   4.251   4.271
19063W        W91323  25.577  24.538   0.454
19064W        W91324  44.909  35.504   3.227
19065W        W91325  41.534  16.593   2.348
19066W        W91326   8.819  13.743  10.905
19067W        W91327   3.221  33.443  11.091
19068W        W91328  25.487   2.890   0.960
19069W        W91329  11.747  35.890   4.729
19070W        W91330  44.271  13.219   1.395
19071W        W91331  16.691  25.073  14.515
19072W        W91332  11.245  16.318   1.324
19073W        W91333  29.037  18.212   1.440
19074W        W91334  12.846  27.044   1.911
19075W        W91335   0.804   9.212   1.219
19076W        W91336  13.258  14.237   5.115
19077W        W91337  14.143  17.686   5.741
19078W        W91338  20.030  29.440  14.852
19079W        W91339  11.265  43.914   2.772
19080W        W91340  15.114  35.522   2.747
19081W        W91341  26.477  34.563   3.735
19082W        W91342  32.445  22.654  10.130
19083W        W91343  41.901   4.261  10.963
19084W        W91344  32.918  26.659   0.329
19085W        W91345  34.066  23.519   1.935
19086W        W91346  19.653  43.374   2.336
19087W        W91347   4.878   7.711  12.563
19088W        W91348  22.535  21.138  14.775
19089W        W91349  31.481   2.322   3.650
19090W        W91350  40.001  39.501  12.883
19091W        W91351  15.220  23.638   4.797
19092W        W91352   2.408   2.347   2.857
19093W        W91353   7.348   4.841   1.328
19094W        W91354  34.979  25.035   0.836
19095W        W91355  18.239  16.793   3.361
19096W        W91356   8.250  24.021  12.358
19097W        W91357  25.175   2.923  12.857
19098W        W91358  12.635  10.768  11.376
19099W        W91359  41.438  24.988   3.751
19100W        W91360  35.485  34.523  10.476
19101W        W91361  23.594  26.467  10.599
19102W        W91362   8.874  17.089  13.941
19103W        W91363  25.969  24.182   1.881
19104W        W91364  28.168   1.966  14.308
19105W        W91365  11.145  24.231   1.226
19106W        W91366  16.760  16.747  12.512
19107W        W91367  41.295   6.758   2.327
19108W        W91368   4.335   0.343   4.690
19109W        W91369  24.498  42.502   4.652
19110W        W91370  31.059  13.725   2.768
19111W        W91371  32.049   8.869   3.290
19112W        W91372  39.001  21.165   3.203
19113W        W91373   1.481  14.786   3.382
19114W        W91374  16.177  25.133  10.607
19115W        W91375  18.573  26.490  11.494
19116W        W91376  22.688  15.646   0.791
19117W        W91377  34.996   8.894  11.538
19118W        W91378  26.531   1.915  11.107
19119W        W91379  23.722  42.492  14.463
19120W        W91380  12.165  26.967  13.384
19121W        W91381  44.922  24.069  12.084
19122W        W91382  16.660  13.154   4.256
19123W        W91383  42.494  14.195  10.494
19124W        W91384  26.649   9.275  10.479
19125W        W91385   6.257  24.591  12.555
19126W        W91386  26.130   5.844   0.810
19127W        W91387  20.246   1.935  11.484
19128W        W91388  23.995  37.991  11.517
19129W        W91389  23.139  33.523  10.892
19130W        W91390  11.185  44.002  13.963
19131W        W91391   4.297  27.033   4.315
19132W        W91392  21.247  25.063   0.367
19133W        W91393  17.106   5.729  12.407
19134W        W91394  26.524  40.526  11.015
19135W        W91395   9.742   8.882   2.663
19136W        W91396   1.904   2.309   2.351
19137W        W91397  16.223   9.372  14.428
19138W        W91398  25.688   9.238  11.965
19139W        W91399  20.207  19.718   1.346
19140W        W91400  39.511  34.461   4.774
19141W        W91401  44.977  40.426  13.389
19142W        W91402   6.350  13.772   2.329
19143W        W91403  22.581  41.929  12.893
19144W        W91404   5.850   5.752  10.566
19145W        W91405  13.624  27.110  12.444
19146W        W91406  31.127  22.108  12.534
19147W        W91407   2.289  25.647  14.827
19148W        W91408   9.187  34.397  12.016
19149W        W91409   7.264  12.772  12.500
19150W        W91410  21.033  37.919  13.411
19151W        W91411  14.215  40.856  12.989
19152W        W91412  17.702   7.879   0.341
19153W        W91413   0.816  15.084  14.000
19154W        W91414   7.837  28.591   4.191
19155W        W91415  16.141  14.099  10.071
19156W        W91416   0.354  21.037   4.685
19157W        W91417  20.746  44.277   4.689
19158W        W91418  12.335  26.180  12.561
19159W        W91419  15.284  38.071  13.886
19160W        W91420  33.571  24.577  14.887
19161W        W91421   4.898   2.873  10.997
19162W        W91422   9.818  33.880   2.702
19163W        W91423  26.142  22.652   2.352
19164W        W91424  44.479  11.789   1.265
19165W        W91425  29.571  27.092   0.853
19166W        W91426  10.770  36.517  10.643
19167W        W91427  22.227  41.855   3.215
19168W        W91428  34.507  35.856  14.782
19169W        W91429  28.487  28.632   4.616
19170W        W91430  16.718   9.750   2.704
19171W        W91431  26.081   1.815   0.255
19172W        W91432  19.768  13.345  13.359
19173W        W91433  13.172   9.778   2.377
19174W        W91434   1.771  43.970  11.386
19175W        W91435  25.131  27.084  12.964
19176W        W91436   0.440  32.450  13.956
19177W        W91437   9.659  43.307   4.329
19178W        W91438  40.964  39.874  10.584
19179W        W91439  14.608   3.926   2.316
19180W        W91440  22.625   1.928  14.813
19181W        W91441   9.280   7.750  12.858
19182W        W91442   3.895   3.926  12.381
19183W        W91443  26.092  17.156   4.322
19184W        W91444   3.234  22.733   4.654
19185W        W91445  33.114  26.483  14.809
19186W        W91446  33.448  36.577  11.583
19187W        W91447  44.458  26.697   1.778
19188W        W91448  25.540  44.482  11.515
19189W        W91449   4.766  14.678  10.924
19190W        W91450  29.055  25.177  11.412
19191W        W91451  16.574  13.335  14.830
19192W        W91452  10.140  21.555  14.360
19193W        W91453  42.963  32.429   4.761
19194W        W91454  34.961  39.047  14.426
19195W        W91455  29.131  35.951  12.921
19196W        W91456  40.312  23.155   1.718
19197W        W91457  13.681   9.695   1.210
19198W        W91458  32.452  30.587   0.913
19199W        W91459  22.728  24.975  14.498
19200W        W91460  18.623  24.178   3.361
19201W        W91461  39.855  15.781   3.643
19202W        W91462  17.657  39.549   0.265
19203W        W91463   8.328   0.882  13.051
19204W        W91464  14.183   5.731   0.956
19205W        W91465  17.237  36.591   0.927
19206W        W91466  33.109  20.108   0.904
19207W        W91467  23.069   1.436   1.423
19208W        W91468   9.677  27.458  13.424
19209W        W91469  27.602  18.545  13.008
19210W        W91470  14.703  27.123   2.270
19211W        W91471  31.518   5.219   0.816
19212W        W91472  41.369  28.176   1.332
19213W        W91473   4.438  14.607  14.325
19214W        W91474  37.919  26.607  10.444
19215W        W91475  43.970  22.603   4.623
19216W        W91476   3.861  15.768  13.534
19217W        W91477  24.080  13.178   0.739
19218W        W91478   9.718  39.926  10.521
19219W        W91479   3.866  14.190   2.783
19220W        W91480  37.049  39.465   2.714
19221W        W91481   3.811  20.761  14.825
19222W        W91482  11.281  42.886  10.517
19223W        W91483  35.976   4.333  14.876
19224W        W91484  31.919  32.966   4.334
19225W        W91485  43.779  15.130  12.930
19226W        W91486   2.861  39.894   3.176
19227W        W91487  38.826  21.139  10.546
19228W        W91488   4.344  30.422   0.458
19229W        W91489  10.878  36.873  12.410
19230W        W91490   4.797  35.452   2.250
19231W        W91491   5.288  37.047  13.940
19232W        W91492   3.359  43.946   3.787
19233W        W91493  12.680  37.043   3.667
19234W        W91494  22.139  26.643  14.983
19235W        W91495  22.659  13.604   1.755
19236W        W91496  38.951  10.807  11.072
19237W        W91497  16.689   2.312  10.520
19238W        W91498  22.712  31.087  13.907
19239W        W91499  20.127  35.552  10.639
19240W        W91500  38.328  32.617   3.713
19241W        W91501   7.816  38.527  10.626
19242W        W91502  34.948  15.319   0.847
19243W        W91503  28.673  20.123  10.551
19244W        W91504  44.311  43.943   2.732
19245W        W91505  12.277  26.603  12.836
19246W        W91506   6.378  15.581  13.906
19247W        W91507  32.554   9.656  13.819
19248W        W91508  16.635  24.098   2.406
19249W        W91509  41.404  11.268   2.818
19250W        W91510  38.392   5.378   4.823
19251W        W91511  14.314   3.293  12.900
19252W        W91512  38.560  23.167  12.095
19253W        W91513  37.934  37.384   5.190
19254W        W91514  33.487   4.375  14.389
19255W        W91515   4.237  23.016  12.342
19256W        W91516  22.193   3.819   2.713
19257W        W91517   3.797  24.056  11.065
19258W        W91518   6.280   3.294  12.895
19259W        W91519  36.952  29.005  12.044
19260W        W91520  41.518  10.848   3.862
19261W        W91521  22.627  25.182   3.217
19262W        W91522  25.520  43.407  13.060
19263W        W91523   3.279   8.267   1.414
19264W        W91524  28.169  40.438   1.302
19265W        W91525  40.495   0.476   3.284
19266W        W91526  13.836  33.909  12.379
19267W        W91527  44.808   3.712   4.276
19268W        W91528  24.562   8.375   4.159
19269W        W91529  28.506  32.085  11.010
19270W        W91530  28.017  18.095  10.572
19271W        W91531  30.001  33.583  12.492
19272W        W91532   9.229   9.395  14.477
19273W        W91533  16.296  20.569  14.808
19274W        W91534   0.257  23.137  12.557
19275W        W91535   5.863  40.377   0.824
19276W        W91536  12.632  25.206   1.420
19277W        W91537   4.338  17.638  10.543
19278W        W91538  12.802   6.301  12.030
19279W        W91539   9.775  13.700   0.917
19280W        W91540  28.437  10.669   0.245
19281W        W91541   6.711  19.253   1.418
19282W        W91542  36.504  18.623   2.279
19283W        W91543  28.598  17.689  12.546
19284W        W91544  20.654  22.519   4.663
19285W        W91545   6.789  44.324  11.929
19286W        W91546  10.662  27.457  11.961
19287W        W91547  40.006  26.480  13.425
19288W        W91548  19.703  41.996  13.885
19289W        W91549  26.996  34.592   4.274
19290W        W91550   6.242   9.836   4.224
19291W        W91551   7.692   9.368   3.815
19292W        W91552  26.668  44.327   1.741
19293W        W91553  30.033  13.274  12.431
19294W        W91554  31.022  20.197  14.460
19295W        W91555  37.458  21.647   3.796
19296W        W91556  14.303  32.612   0.914
19297W        W91557  28.087  40.820   4.805
19298W        W91558  38.836  19.622   2.845
19299W        W91559  18.102   8.656  14.789
19300W        W91560  31.981   8.883  14.278
19301W        W91561   3.954  20.687  12.084
19302W        W91562   0.954  39.456   0.954
19303W        W91563  13.292  16.758  11.939
19304W        W91564  21.218  13.814  13.540
19305W        W91565   8.831  11.196  12.505
19306W        W91566  32.991  30.503   2.336
19307W        W91567  41.810  38.359   4.835
19308W        W91568  31.566   0.421  12.529
19309W        W91569  42.821  19.713   1.352
19310W        W91570  22.516  31.950   5.166
19311W        W91571  40.848  13.684  14.898
19312W        W91572   8.784   3.945  14.436
19313W        W91573  14.165  30.981  13.851
19314W        W91574   1.820  36.040  12.909
19315W        W91575  21.610  41.415   0.735
19316W        W91576   5.702  22.050   4.784
19317W        W91577  26.152  30.049   3.315
19318W        W91578  39.500  33.552   0.838
19319W        W91579  28.929  25.196  13.891
19320W        W91580  42.450  23.127   2.350
19321W        W91581  34.886   1.347   2.393
19322W        W91582  13.615  28.629  13.901
19323W        W91583  37.444   9.324   2.190
19324W        W91584  12.212  39.017  13.309
19325W        W91585  24.180  20.192   1.829
19326W        W91586  26.477  15.801   0.373
19327W        W91587   6.292   3.900  11.558
19328W        W91588  14.734  29.148  11.563
19329W        W91589  24.148   4.771  13.881
19330W        W91590   7.268  43.322   0.940
19331W        W91591  39.332  43.788  13.019
19332W        W91592   3.913  24.552   1.904
19333W        W91593   5.403   4.423  14.970
19334W        W91594  36.515  17.623  14.892
19335W        W91595  39.859  32.917   3.804
19336W        W91596  43.847  34.547   2.227
19337W        W91597  11.648  38.480  13.803
19338W        W91598  33.045  34.993   3.816
19339W        W91599  31.127  32.459  14.019
19340W        W91600   0.762  10.699   0.883
19341W        W91601  42.400  23.145   4.691
19342W        W91602  38.452  43.373   2.258
19343W        W91603   2.286  14.696   0.474
19344W        W91604  29.027  38.008  14.890
19345W        W91605  38.447  36.008  12.428
19346W        W91606  20.579  15.744  12.960
19347W        W91607  11.652  28.143   1.746
19348W        W91608  14.181   4.899   0.426
19349W        W91609  11.688  18.646   3.354
19350W        W91610  22.552  21.112   1.320
19351W        W91611  10.266  18.160  11.119
19352W        W91612  16.179  34.386  11.013
19353W        W91613   9.694  42.295  14.964
19354W        W91614  33.954  32.614  14.967
19355W        W91615  35.502  42.954   2.875
19356W        W91616   7.209  26.483  14.840
19357W        W91617  11.264  14.761  10.410
19358W        W91618   5.260   7.858   3.653
19359W        W91619  38.462  21.234   2.179
19360W        W91620  15.138   6.218   4.800
19361W        W91621  31.967  22.197  14.886
19362W        W91622  23.183  25.063   4.802
19363W        W91623  25.083  20.615   3.373
19364W        W91624  23.726  35.030   3.196
19365W        W91625  32.998  25.504   2.853
19366W        W91626  30.045  31.961  14.414
19367W        W91627  27.948   4.302   0.817
19368W        W91628  37.467  28.581   1.753
19369W        W91629  33.414  14.667   2.850
19370W        W91630  25.005  36.438   4.168
19371W        W91631   3.796  28.563   3.779
19372W        W91632  24.686  30.090  11.408
19373W        W91633  39.809   3.454   2.763
19374W        W91634  15.300  35.046  10.593
19375W        W91635  23.573  26.549  14.305
19376W        W91636  43.479  34.538  10.431
19377W        W91637  17.673   4.716  10.531
19378W        W91638  24.706  11.148  13.942
19379W        W91639  37.999  40.480  11.497
19380W        W91640  30.144  42.898  10.607
19381W        W91641   9.197  29.105   3.167
19382W        W91642  17.678  26.110  12.884
19383W        W91643   7.702   8.302   4.714
19384W        W91644  15.774  18.668   3.644
19385W        W91645  18.630   3.831   4.642
19386W        W91646  14.278  14.665  14.991
19387W        W91647  42.868   3.311   1.738
19388W        W91648  37.916  13.346  11.546
19389W        W91649   8.777  13.627   4.335
19390W        W91650  40.871  41.863   4.212
19391W        W91651   9.810  10.821  14.312
19392W        W91652  22.047   6.737  14.356
19393W        W91653   2.879  32.021   1.380
19394W        W91654  26.613   2.802   4.837
19395W        W91655  39.878  35.583  12.469
19396W        W91656   7.322  18.583  11.564
19397W        W91657  28.622  27.097  10.543
19398W        W91658  11.822  29.132   3.329
19399W        W91659  22.026   5.219   3.355
19400W        W91660  19.129  26.680   1.837
19401W        W91661   8.310  38.337  10.424
19402W        W91662  23.653  28.034   0.764
19403W        W91663  11.351  23.607   1.827
19404W        W91664  11.316  25.969   4.682
19405W        W91665  25.611  38.423  11.553
19406W        W91666  44.936   2.367   3.305
19407W        W91667  28.140   9.817   1.909
19408W        W91668  40.962  44.788  14.969
19409W        W91669  35.560  31.603   0.245
19410W        W91670   6.922  28.079  12.059
19411W        W91671  37.921   1.856  13.420
19412W        W91672  27.054  30.160  12.376
19413W        W91673  22.214  43.477  14.472
19414W        W91674  30.590  18.228  14.380
19415W        W91675  21.243   0.328  13.948
19416W        W91676  42.363  20.031  13.934
19417W        W91677  24.021  22.109   3.183
19418W        W91678  38.503  44.463  11.388
19419W        W91679  31.446  19.130   0.833
19420W        W91680  44.261   5.210   3.840
19421W        W91681   9.358  28.623  11.121
19422W        W91682   1.940   1.312   3.252
19423W        W91683   0.860  42.792  13.548
19424W        W91684  36.920  44.449   4.669
19425W        W91685  31.586  13.801  12.500
19426W        W91686  26.005  30.488   0.779
19427W        W91687  26.575  17.225  11.372
19428W        W91688   0.911  10.813   1.304
19429W        W91689  33.951   3.387  12.528
19430W        W91690   4.228  32.516   2.843
19431W        W91691   8.341   8.768  11.503
19432W        W91692  12.703  40.863  12.548
19433W        W91693  33.078  13.316  13.939
19434W        W91694  42.023  34.520  12.526
19435W        W91695  20.715  29.477  12.382
19436W        W91696   6.261  17.734  12.049
19437W        W91697  23.024   5.689  11.410
19438W        W91698  34.120  38.388   0.298
19439W        W91699  34.069  36.070  14.018
19440W        W91700  42.990  28.454   1.779
19441W        W91701  34.414  36.964   2.303
19442W        W91702   0.934   3.789   2.720
19443W        W91703  16.600  16.641  10.617
19444W        W91704  42.910   6.805  14.019
19445W        W91705   1.960   4.843  13.409
19446W        W91706   9.274  40.876  13.315
19447W        W91707  42.448  21.226   1.886
19448W        W91708  39.439  38.066  11.985
19449W        W91709  40.484  42.317   2.682
19450W        W91710  35.999   8.657   3.339
19451W        W91711   7.819   1.436   0.479
19452W        W91712  40.529  43.922   3.781
19453W        W91713  11.733  18.061  12.567
19454W        W91714  14.304  31.456  13.880
19455W        W91715  26.020  28.538   3.698
19456W        W91716  21.600  34.520  10.994
19457W        W91717  22.652  21.140   2.198
19458W        W91718  12.649  17.738   2.744
19459W        W91719   8.322  21.633   1.803
19460W        W91720  38.074  32.446  13.310
19461W        W91721  37.473  29.505   1.293
19462W        W91722  15.620  15.102   4.798
19463W        W91723  32.391   4.246   3.726
19464W        W91724  33.075  42.347  11.611
19465W        W91725  28.141  19.112  11.427
19466W        W91726  10.347  11.154  12.390
19467W        W91727   2.429  10.335  12.092
19468W        W91728   3.403  22.650   1.311
19469W        W91729  11.296  33.880  12.549
19470W        W91730   4.428  25.544  11.105
19471W        W91731  16.235   1.817  10.943
19472W        W91732  25.525  24.631   3.176
19473W        W91733  32.068  35.400   1.764
19474W        W91734   5.795   6.365  14.820
19475W        W91735   1.812  21.640   1.759
19476W        W91736  14.698   4.406  13.811
19477W        W91737  14.623  32.554   0.736
19478W        W91738  27.651   8.337   4.630
19479W        W91739  26.553  19.176  12.571
19480W        W91740  19.716  42.506   2.663
19481W        W91741  11.148   7.894  12.937
19482W        W91742  17.237  23.225  13.934
19483W        W91743  42.031  36.018  13.385
19484W        W91744  40.391  37.071  11.572
19485W        W91745   4.912   6.784  13.311
19486W        W91746  15.760  21.706  14.882
19487W        W91747  11.786  34.963  12.548
19488W        W91748  20.604   8.779  13.843
19489W        W91749   9.311  27.180  12.526
19490W        W91750  23.709  35.411   3.643
19491W        W91751  43.994  41.895  13.959
19492W        W91752  29.991  35.863   3.162
19493W        W91753  10.191   2.234   4.233
19494W        W91754  36.537   6.802   2.664
19495W        W91755  30.142  39.327  13.994
19496W        W91756  31.425  11.834   2.363
19497W        W91757  10.198   1.475  14.421
19498W        W91758   3.244  37.938  13.512
19499W        W91759  27.070  31.084   3.646
19500W        W91760  30.443  11.247  14.280
19501W        W91761  13.183   7.390  12.080
19502W        W91762  19.133  31.525  13.019
19503W        W91763  25.051  28.048   1.702
19504W        W91764  34.564  21.696  11.884
19505W        W91765  37.413   0.855  14.384
19506W        W91766  37.345  44.352  14.998
19507W        W91767  28.126  24.030  13.369
19508W        W91768  31.563  31.069  12.960
19509W        W91769  35.535  29.093  12.443
19510W        W91770   6.412  12.796   2.778
19511W        W91771  41.986  38.041   0.779
19512W        W91772  41.020  14.099  14.373
19513W        W91773  35.987  16.217   4.263
19514W        W91774  16.706  20.721  13.326
19515W        W91775  29.565   0.334   2.257
19516W        W91776  18.181  43.445   1.280
19517W        W91777   8.242  18.134  13.992
19518W        W91778   4.425  12.628  11.504
19519W        W91779  34.945  35.072   3.265
19520W        W91780  44.010  25.474   3.301
19521W        W91781  22.667  40.867  13.968
19522W        W91782   0.414  25.130   2.351
19523W        W91783  13.331  11.143  10.509
19524W        W91784  31.013   2.802   0.803
19525W        W91785  13.222  33.401  12.450
19526W        W91786  30.949  28.030   2.794
19527W        W91787  19.533  42.435  12.347
19528W        W91788  32.093  28.462  12.852
19529W        W91789  41.801   0.983   4.205
19530W        W91790  41.858  31.511  12.976
19531W        W91791  17.288  42.373   2.774
19532W        W91792  35.979   9.692  13.798
19533W        W91793  10.249  15.084  12.482
19534W        W91794   6.900   1.396   1.423
19535W        W91795   5.213  33.401  12.410
19536W        W91796  26.038  37.399  13.548
19537W        W91797  19.281   5.336   5.776
19538W        W91798  44.910   7.210   3.782
19539W        W91799  11.679  43.922   0.287
19540W        W91800  42.909  14.808   4.267
19541W        W91801  10.211  43.490  13.314
19542W        W91802   9.799  35.101   0.823
19543W        W91803  23.703  25.209   2.385
19544W        W91804  30.480  16.592   2.807
19545W        W91805  42.856  40.333  11.504
19546W        W91806  28.150  26.502   2.675
19547W        W91807  29.513  25.162  13.404
19548W        W91808  44.989   8.361   2.321
19549W        W91809  39.442  33.537   0.279
19550W        W91810  33.937  11.167   2.827
19551W        W91811  40.932  21.667  14.433
19552W        W91812  13.602  16.284  11.900
19553W        W91813  41.472  18.271  11.516
19554W        W91814  13.315  32.391  14.830
19555W        W91815  19.624  42.012   1.722
19556W        W91816  16.678   4.732  13.876
19557W        W91817  26.180  19.081   0.379
19558W        W91818  30.127   5.694   4.336
19559W        W91819   1.462   0.412   2.858
19560W        W91820   3.275  35.989   2.402
19561W        W91821  38.876  30.093   3.838
19562W        W91822  19.232  43.877  13.386
19563W        W91823  38.019   1.941   2.270
19564W        W91824  30.430   0.349   0.434
19565W        W91825  26.048  16.768  13.531
19566W        W91826  32.140  15.128   4.744
19567W        W91827  40.439  12.129  12.036
19568W        W91828  35.896  33.572  13.325
19569W        W91829  19.616   2.724  11.076
19570W        W91830   0.341   2.382  12.546
19571W        W91831  33.590  31.558  13.479
19572W        W91832   9.825  38.400   3.647
19573W        W91833  32.062   2.897  11.601
19574W        W91834  35.404  14.815  12.933
19575W        W91835  20.165  14.336   3.150
19576W        W91836  20.128  12.610   1.857
19577W        W91837  24.507  12.766  12.989
19578W        W91838   7.331  16.218  13.362
19579W        W91839   0.391   0.764   2.682
19580W        W91840  34.470  44.958   1.386
19581W        W91841   7.228  17.194   0.730
19582W        W91842  33.010  11.250  12.989
19583W        W91843  33.051   3.247  13.808
19584W        W91844  10.249  37.061  12.040
19585W        W91845  21.127   1.923  10.086
19586W        W91846  26.979   6.220   9.999
19587W        W91847  39.964  33.071   0.964
19588W        W91848  21.602  40.007  10.482
19589W        W91849   5.827  16.745   1.868
19590W        W91850  25.645  21.545   0.271
19591W        W91851  34.923   8.890   5.175
19592W        W91852  34.475  37.359  14.810
19593W        W91853  38.524  17.288   1.396
19594W        W91854  41.340  44.002  14.840
19595W        W91855  11.131  44.959   1.312
19596W        W91856  17.063  14.787   0.335
19597W        W91857  12.309   6.860  12.939
19598W        W91858  15.125  10.794   0.291
19599W        W91859  35.551  24.019  10.435
19600W        W91860  42.941   5.357  12.953
19601W        W91861  18.127  44.801  10.566
19602W        W91862  21.734  15.824   0.748
19603W        W91863  15.101  40.444  14.029
19604W        W91864  17.641   8.300  12.921
19605W        W91865  25.120  43.393   4.621
19606W        W91866  33.911  33.482   4.211
19607W        W91867  19.243   3.364  11.524
19608W        W91868  14.715  37.938  14.486
19609W        W91869   3.406  44.336  12.903
19610W        W91870  43.781  41.410   4.227
19611W        W91871   3.451  31.502   0.292
19612W        W91872  25.504  42.978  13.340
19613W        W91873   8.688  10.785   0.872
19614W        W91874  28.538  28.504   1.893
19615W        W91875  24.205  40.529  10.638
19616W        W91876  31.431   0.433   1.406
19617W        W91877  26.593  25.040  14.471
19618W        W91878  44.904  23.530  10.909
19619W        W91879  43.516  16.219   0.401
19620W        W91880  28.644  17.306  13.963
19621W        W91881  36.464   6.818   0.466
19622W        W91882   8.854  26.572   4.269
19623W        W91883  42.414  21.703  13.465
19624W        W91884  42.304  23.102   4.272
19625W        W91885  22.243  14.281  10.891
19626W        W91886  13.601  27.470   5.769
19627W        W91887  35.589  28.600   0.254
19628W        W91888  29.980  15.677   2.220
19629W        W91889  35.553   9.648  10.957
19630W        W91890  44.343  30.493  10.496
19631W        W91891  15.588  40.904  13.482
19632W        W91892  38.000  28.458   0.257
19633W        W91893   1.905  33.973  13.813
19634W        W91894  15.738  42.808  14.439
19635W        W91895   3.883  22.739   3.296
19636W        W91896  33.064   0.743  12.828
19637W        W91897   9.830  10.756   3.860
19638W        W91898   3.228  28.099   3.374
19639W        W91899  12.290  13.119  10.496
19640W        W91900   6.259  12.837  14.871
19641W        W91901  14.321  17.285  10.021
19642W        W91902   7.249   7.298   0.451
19643W        W91903  33.571  38.544   0.349
19644W        W91904  17.675  19.130   2.764
19645W        W91905  31.052  32.124   1.918
19646W        W91906  27.477  11.637  14.827
19647W        W91907   9.351   2.393  13.456
19648W        W91908  25.588  14.651   0.366
19649W        W91909   0.764  32.583   0.893
19650W        W91910  27.132  19.261   4.718
19651W        W91911  19.605  21.732   4.165
19652W        W91912  32.893  29.100   1.893
19653W        W91913  36.916  35.489   3.337
19654W        W91914  37.416  44.505  12.074
19655W        W91915  13.235  19.680  10.077
19656W        W91916  27.518  42.357  12.027
19657W        W91917  29.646  40.805   4.219
19658W        W91918   9.211   2.854   4.644
19659W        W91919  13.686  18.085   4.234
19660W        W91920  19.612  26.534  10.437
19661W        W91921   8.216  32.002   1.371
19662W        W91922  20.769  26.200   5.664
19663W        W91923  32.426  12.790  12.084
19664W        W91924  16.248  44.981  13.407
19665W        W91925  15.627  13.131   3.283
19666W        W91926  43.496  24.982  10.984
19667W        W91927  40.515  23.590   2.890
19668W        W91928   7.682   4.242   4.713
19669W        W91929   0.280   2.836   4.643
19670W        W91930  38.430  44.805   2.849
19671W        W91931  34.419  20.087  12.984
19672W        W91932  38.043  16.306  11.391
19673W        W91933  12.241  38.021   1.306
19674W        W91934  13.335  35.892  13.398
19675W        W91935  17.575  30.526  13.006
19676W        W91936  24.114  10.641   1.388
19677W        W91937  37.831   4.731   4.294
19678W        W91938  36.942  24.069  10.918
19679W        W91939  35.465  17.721  14.514
19680W        W91940  23.183  27.035  10.940
19681W        W91941   6.243  14.339  11.931
19682W        W91942  12.286  20.692  13.328
19683W        W91943  14.718  42.776   0.278
19684W        W91944  10.181  22.184  11.407
19685W        W91945   1.305   5.338  10.515
19686W        W91946   3.303  23.075   2.340
19687W        W91947   4.256  44.321  13.938
19688W        W91948   3.390  31.646  13.338
19689W        W91949  40.943  39.814  10.925
19690W        W91950   1.248  23.018   4.778
19691W        W91951  35.995  11.786  11.070
19692W        W91952   2.899  37.924   4.807
19693W        W91953  42.429   3.309  11.375
19694W        W91954  32.109  38.919   5.116
19695W        W91955   1.748  12.342  11.100
19696W        W91956  25.102  18.174   2.413
19697W        W91957  40.896  10.337  11.063
19698W        W91958  37.385   6.277   2.319
19699W        W91959  39.494   3.877  13.322
19700W        W91960  13.749  14.248   2.800
19701W        W91961  41.985   6.376  10.157
19702W        W91962  13.268   9.757   1.929
19703W        W91963  38.892  42.309   2.323
19704W        W91964  44.495  30.553  13.532
19705W        W91965   1.250  16.751   3.287
19706W        W91966  16.690   1.940  14.391
19707W        W91967  37.439   9.240  14.335
19708W        W91968  31.135   2.845  14.764
19709W        W91969   5.240  43.904  11.434
19710W        W91970  29.159  27.158   1.334
19711W        W91971  11.686   4.791  12.831
19712W        W91972  19.711  24.689  11.435
19713W        W91973  38.486  35.371  13.013
19714W        W91974  33.111  38.542  10.599
19715W        W91975  26.608  29.985   2.839
19716W        W91976   6.412  40.439  10.888
19717W        W91977  17.235  24.599  11.549
19718W        W91978  22.222   4.770   4.739
19719W        W91979  19.129  21.225   4.328
19720W        W91980  18.094  44.329  12.544
19721W        W91981   7.292  25.499   4.737
19722W        W91982  17.572  14.750   2.738
19723W        W91983  30.925  25.595   2.247
19724W        W91984  23.224  42.343  10.489
19725W        W91985  19.625  20.271  14.890
19726W        W91986  36.038  24.696   3.189
19727W        W91987  37.563  12.703  10.496
19728W        W91988  39.879  16.286   0.474
19729W        W91989  39.841  37.469  14.326
19730W        W91990  21.062  42.320  14.915
19731W        W91991  27.949   7.828   3.748
19732W        W91992  20.063  11.849   3.657
19733W        W91993  18.623  15.656  11.418
19734W        W91994   8.240  11.707  12.487
19735W        W91995  35.905  13.341   2.827
19736W        W91996  26.635  36.930  11.998
19737W        W91997   4.863  34.517  13.503
19738W        W91998  27.966  41.295   0.472
19739W        W91999  14.338  17.646  13.439
19740W        W92000  40.950  33.947   1.911
19741W        W92001  42.423  40.490   3.354
19742W        W92002  37.926  33.935   3.169
19743W        W92003  44.875   5.738  11.479
19744W        W92004  10.213   5.201   3.329
19745W        W92005   0.471   0.494   3.314
19746W        W92006  15.600  24.528   1.857
19747W        W92007   4.404  14.152  11.530
19748W        W92008   9.781  21.562  12.449
19749W        W92009  14.832  20.736   1.729
19750W        W92010   1.459  21.194   0.858
19751W        W92011  10.190  15.754  14.378
19752W        W92012  20.557  11.865  10.447
19753W        W92013  44.271  22.571   1.747
19754W        W92014   5.330  40.343   0.290
19755W        W92015  15.606  43.974   3.631
19756W        W92016  33.021  23.590  11.946
19757W        W92017  26.539  31.433   1.426
19758W        W92018   8.170  34.473  11.563
19759W        W92019   3.380  27.995  13.510
19760W        W92020  39.938  12.645  10.938
19761W        W92021  25.590  43.930  11.428
19762W        W92022  36.866  15.628   4.302
19763W        W92023  25.542  21.598  11.880
19764W        W92024  23.501  30.547   4.726
19765W        W92025  34.478  27.020  10.576
19766W        W92026  28.939  26.987   2.797
19767W        W92027   4.840  15.646  13.344
19768W        W92028  31.974  14.234   3.828
19769W        W92029  27.078  34.540  12.877
19770W        W92030  25.122  40.874   3.203
19771W        W92031   7.370  32.079  14.446
19772W        W92032  18.670  33.580  12.088
19773W        W92033  21.537  16.667  10.627
19774W        W92034  43.357  37.045   1.229
19775W        W92035  39.936  38.556  13.951
19776W        W92036  27.473  37.576   3.318
19777W        W92037  42.892  43.416   2.875
19778W        W92038  12.230   7.313   0.949
19779W        W92039  12.801  20.194  12.072
19780W        W92040  12.323  29.115   0.813
19781W        W92041  32.582  22.251  10.483
19782W        W92042   4.876  11.739   0.252
19783W        W92043   6.694  26.992   4.156
19784W        W92044  23.521   8.777   2.342
19785W        W92045  16.720   6.812  13.311
19786W        W92046  43.019  14.165  11.492
19787W        W92047  30.456  16.311  10.521
19788W        W92048  18.705  21.194   2.355
19789W        W92049  15.216  32.510   3.286
19790W        W92050  44.973   6.345  11.574
19791W        W92051  40.947   2.754  12.029
19792W        W92052  40.002  36.508  14.808
19793W        W92053  41.986  43.277   1.441
19794W        W92054  10.684  16.567  13.895
19795W        W92055   5.745  20.657   1.345
19796W        W92056   1.963  24.525   1.741
19797W        W92057   2.331   2.288  14.370
19798W        W92058   0.940   1.410   1.447
19799W        W92059  10.182  16.672   2.820
19800W        W92060  39.992  27.586  13.357
19801W        W92061   6.203  32.000  12.055
19802W        W92062  24.100   2.425  10.404
19803W        W92063   3.309  13.738  11.037
19804W        W92064  13.334  30.005   2.195
19805W        W92065  28.592  35.544   1.259
19806W        W92066  13.166  42.470  12.421
19807W        W92067  19.703  10.796   1.856
19808W        W92068  38.860  20.693  10.617
19809W        W92069  33.048   6.184   0.876
19810W        W92070   0.892  25.533  13.908
19811W        W92071  24.708   8.321  12.039
19812W        W92072   4.350  39.486  11.110
19813W        W92073  10.673  35.039  12.564
19814W        W92074  20.229  27.013   1.751
19815W        W92075  25.078  28.133   2.866
19816W        W92076  24.019  35.383   3.242
19817W        W92077  33.527  30.982   2.383
19818W        W92078  44.405  27.543  13.495
19819W        W92079   7.902  23.561  12.860
19820W        W92080  12.243  23.593  11.590
19821W        W92081   6.428   9.340   2.222
19822W        W92082  44.954   9.870  10.592
19823W        W92083  17.117  18.113   0.936
19824W        W92084  38.981  24.701   2.270
19825W        W92085  37.903  16.680  12.420
19826W        W92086   8.399  22.215  12.447
19827W        W92087   8.163  42.885   0.936
19828W        W92088  31.958  26.069   1.214
19829W        W92089  17.701  35.456  14.478
19830W        W92090  37.573   8.235  11.599
19831W        W92091   3.837   4.439   4.830
19832W        W92092  34.519  37.426  11.898
19833W        W92093  16.308  25.468   2.414
19834W        W92094  44.478  20.626   4.720
19835W        W92095  11.238   2.286  13.452
19836W        W92096   0.899  40.424  13.317
19837W        W92097  35.423  14.809  12.365
19838W        W92098  44.377  16.659   0.900
19839W        W92099  10.291  23.089  10.531
19840W        W92100   2.777  20.149   0.912
19841W        W92101  23.638  19.225   4.145
19842W        W92102   1.240  44.334  11.493
19843W        W92103   0.443  22.062  14.389
19844W        W92104   2.336  11.253  13.369
19845W        W92105  40.939  43.387  14.437
19846W        W92106  35.048  13.721   0.369
19847W        W92107  38.518   8.741   0.920
19848W        W92108  33.534  31.472   1.402
19849W        W92109  36.948   8.901  14.454
19850W        W92110  39.872   0.345   3.739
19851W        W92111  40.969  35.493  12.979
19852W        W92112  10.230  21.225   1.347
19853W        W92113  40.322   4.233  11.035
19854W        W92114  19.162  14.336   2.416
19855W        W92115  16.185  35.024  12.554
19856W        W92116  24.179   6.419   4.157
19857W        W92117  13.735  30.018  12.982
19858W        W92118   7.205  22.728   1.238
19859W        W92119  29.558  38.000  13.878
19860W        W92120  36.978   4.230  11.122
19861W        W92121  19.148  14.762   1.331
19862W        W92122  29.103  35.508  11.049
19863W        W92123  38.476  40.032   1.281
19864W        W92124   1.973  43.967  11.079
19865W        W92125  31.946   0.252   1.742
19866W        W92126   0.276   4.337   0.751
19867W        W92127  33.393   6.702  10.086
19868W        W92128  41.535  11.221   4.718
19869W        W92129  32.529  26.196  13.449
19870W        W92130   2.335  38.569   3.214
19871W        W92131  39.534  23.565   4.119
19872W        W92132   9.258  41.398   1.420
19873W        W92133   0.420   9.236   4.604
19874W        W92134   8.246  25.093  12.440
19875W        W92135  35.009  43.452   1.311
19876W        W92136   4.842  31.076   0.738
19877W        W92137  29.045  12.817  11.378
19878W        W92138   3.244   7.689  12.013
19879W        W92139  44.306   4.219   4.245
19880W        W92140   2.360  14.709  12.050
19881W        W92141  19.670   8.293  13.863
19882W        W92142   9.737   2.345   3.368
19883W        W92143  10.332  14.159   2.371
19884W        W92144  10.323  30.917   0.966
19885W        W92145   4.916  25.969   0.843
19886W        W92146  37.072  41.537   2.331
19887W        W92147  37.471  38.859   4.743
19888W        W92148  14.260  29.573   3.208
19889W        W92149  39.456  13.660  14.925
19890W        W92150  41.470  40.958   1.779
19891W        W92151  40.938   3.396  13.433
19892W        W92152   5.258  16.804  10.586
19893W        W92153   6.916  24.620   2.748
19894W        W92154  37.354  40.043   4.740
19895W        W92155   6.867  28.518   3.675
19896W        W92156   4.415  43.410  11.874
19897W        W92157  15.786  25.060   1.729
19898W        W92158  35.089  19.749   1.231
19899W        W92159  26.172  27.986   1.235
19900W        W92160   6.235  16.675  12.550
19901W        W92161  33.624  30.558  14.019
19902W        W92162  33.979  37.506  14.898
19903W        W92163   4.397  14.236   3.773
19904W        W92164  37.388  24.623   4.790
19905W        W92165  22.652  38.041   1.896
19906W        W92166  42.471  41.336   4.211
19907W        W92167  40.510  31.451  11.969
19908W        W92168  17.765  29.433  11.429
19909W        W92169  44.951  38.495   4.354
19910W        W92170  22.662  22.607  12.084
19911W        W92171  40.054   8.162   1.429
19912W        W92172  30.014  36.578   1.858
19913W        W92173  35.965  42.334  14.866
19914W        W92174  27.532  26.467  14.976
19915W        W92175  27.519  24.713   4.635
19916W        W92176   7.862  19.628  12.523
19917W        W92177  32.606   3.434  14.787
19918W        W92178  12.735  36.999  11.083
19919W        W92179  27.132  21.186   4.697
19920W        W92180  15.804  41.845  13.342
19921W        W92181  24.663  31.404  14.408
19922W        W92182  20.524  18.675  13.940
19923W        W92183  31.988  41.007   4.343
19924W        W92184  24.199   5.710   2.722
19925W        W92185   8.297  28.082  14.496
19926W        W92186   5.931  18.159  11.007
19927W        W92187  17.746  43.869   1.357
19928W        W92188  31.062  40.479  12.371
19929W        W92189  41.001  42.429  10.972
19930W        W92190  43.882  33.985   3.247
19931W        W92191  14.596  42.893   4.324
19932W        W92192  36.025   7.288   4.319
19933W        W92193   2.283   5.290   2.700
19934W        W92194  29.508  15.209  12.527
19935W        W92195   3.798  38.853  11.982
19936W        W92196  25.057  25.628   2.824
19937W        W92197  29.482  19.116  14.927
19938W        W92198  15.279  29.593  11.523
19939W        W92199  32.002  14.175   1.767
19940W        W92200  13.318  37.839   1.722
19941W        W92201  19.085   4.706   3.682
19942W        W92202  37.576  26.982  11.020
19943W        W92203  15.276  19.661   0.948
19944W        W92204  10.267  15.692  13.836
19945W        W92205   3.290  25.474   1.801
19946W        W92206  33.536  10.249   3.334
19947W        W92207   3.460  20.236  13.384
19948W        W92208  12.327  32.414   0.450
19949W        W92209   5.924   8.223   2.229
19950W        W92210  38.436  16.084  11.031
19951W        W92211   7.864   9.186  11.541
19952W        W92212  43.004  10.635   0.245
19953W        W92213  21.228   4.417  13.971
19954W        W92214   1.389  16.091  13.504
19955W        W92215  17.065  38.373  11.563
19956W        W92216  16.643  27.554   2.380
19957W        W92217   9.392   4.309  12.381
19958W        W92218  15.098   5.417  13.534
19959W        W92219  44.924  24.632   1.449
19960W        W92220  19.066   9.885   2.371
19961W        W92221  34.440  18.593   2.363
19962W        W92222  19.232   5.756  11.873
19963W        W92223   1.865   3.722  10.608
19964W        W92224   7.698  37.511  11.050
19965W        W92225   9.776  10.723  11.393
19966W        W92226  25.039  26.627  10.523
19967W        W92227  37.067  27.669   1.298
19968W        W92228  44.477  24.685   1.230
19969W        W92229  30.505  29.967  14.439
19970W        W92230  24.674   9.326   1.828
19971W        W92231  31.123  12.831   2.666
19972W        W92232   6.687   1.801   2.385
19973W        W92233  42.935   8.256  11.576
19974W        W92234  21.577   1.364  13.943
19975W        W92235  29.162   3.848   0.795
19976W        W92236  27.489  43.471  14.028
19977W        W92237  23.676  15.162  11.881
19978W        W92238  37.382  36.439   0.356
19979W        W92239  35.925  23.115  14.490
19980W        W92240  22.069   6.320  13.526
19981W        W92241  19.270   5.257   9.638
19982W        W92242   0.743   7.263   4.762
19983W        W92243  19.052  33.038  10.979
19984W        W92244  42.944  31.078  10.935
19985W        W92245   4.809  33.928   1.732
19986W        W92246  34.921  22.212   2.857
19987W        W92247  38.391  19.186  12.994
19988W        W92248  10.253  23.082   4.258
19989W        W92249   3.325  21.713  14.488
19990W        W92250  43.799  21.156   3.861
19991W        W92251   4.255  27.550  11.476
19992W        W92252  41.023  31.607  12.860
19993W        W92253  11.182   3.728  13.996
19994W        W92254  29.964  27.957   3.153
19995W        W92255  44.896  15.731  10.486
19996W        W92256  12.826  15.587   1.722
19997W        W92257   9.729  36.093  13.948
19998W        W92258  41.004  19.551  11.040
19999W        W92259   3.387  43.388   2.196
20000W        W92260  19.131   5.698   3.694
20001W        W92261  42.316  16.781   2.709
20002W        W92262  20.106   2.284   1.358
20003W        W92263  11.337   5.334   0.948
20004W        W92264  37.416  25.490  14.839
20005W        W92265  41.439   3.905  12.452
20006W        W92266  26.173  17.276   0.377
20007W        W92267  13.843  32.582  14.980
20008W        W92268  24.116  12.342  12.942
20009W        W92269  22.727  28.473   3.825
20010W        W92270  38.482   1.349   2.793
20011W        W92271   6.918  42.867   3.748
20012W        W92272   6.820  41.807  11.987
20013W        W92273  29.026  40.447   1.393
20014W        W92274  19.060  43.418  11.101
20015W        W92275  39.851   9.880  11.001
20016W        W92276   4.341  31.635   0.277
20017W        W92277  16.224  14.191   0.338
20018W        W92278  35.517  31.949   0.875
20019W        W92279  23.652  43.809  10.933
20020W        W92280   6.821  33.459   2.300
20021W        W92281  25.213  23.210   0.310
20022W        W92282  13.734  38.409   2.892
20023W        W92283  35.939  41.341   4.354
20024W        W92284  11.249   9.697  11.582
20025W        W92285  36.525  36.923   3.858
20026W        W92286   5.408  11.716  13.995
20027W        W92287  34.079  26.653   3.202
20028W        W92288   6.868  16.316  14.922
20029W        W92289  24.693  12.336  12.362
20030W        W92290  32.514  16.720   0.331
20031W        W92291  37.419  25.498  13.343
20032W        W92292  43.440  21.726  12.885
20033W        W92293  18.685  24.079   0.319
20034W        W92294  24.978   3.285   1.409
20035W        W92295  27.678   0.895  12.854
20036W        W92296  20.140   6.281  13.832
20037W        W92297   8.383  20.574   4.610
20038W        W92298   0.273  12.805  14.422
20039W        W92299  22.523  42.796   1.906
20040W        W92300  19.172   2.806   4.137
20041W        W92301  11.280   8.810  10.481
20042W        W92302  33.437  12.192  11.879
20043W        W92303  24.723  19.241   4.205
20044W        W92304  14.267  11.247   1.870
20045W        W92305   0.348  39.911  11.496
20046W        W92306  15.132  37.522   1.440
20047W        W92307  22.040  10.213  14.810
20048W        W92308   2.898  22.111  11.523
20049W        W92309  32.038  33.453  13.794
20050W        W92310  23.013  13.312  10.609
20051W        W92311  41.511   4.219  13.876
20052W        W92312  20.738  19.568  11.975
20053W        W92313   3.228  16.231  12.964
20054W        W92314  16.255  24.575  13.864
20055W        W92315  21.632  17.080  14.495
20056W        W92316  33.622  28.622  11.121
20057W        W92317  40.389  19.076   4.742
20058W        W92318  42.397  16.606   2.388
20059W        W92319  17.748  18.687  11.113
20060W        W92320  27.614  37.402  13.316
20061W        W92321  22.014  15.820  12.447
20062W        W92322   5.202  15.127   0.909
20063W        W92323  32.557   3.389  13.897
20064W        W92324  33.077  32.070   4.229
20065W        W92325   2.911  24.015  13.958
20066W        W92326   9.261  38.406  14.340
20067W        W92327  19.104  31.625  14.011
20068W        W92328  30.576   8.376  10.904
20069W        W92329   2.807  31.138   4.113
20070W        W92330   0.805  37.404  11.062
20071W        W92331   6.863  44.770   4.207
20072W        W92332  18.755   1.238   1.342
20073W        W92333  17.160  38.051  13.820
20074W        W92334  35.110  21.200   1.326
20075W        W92335  15.092  37.551  11.999
20076W        W92336  13.827  43.399  12.891
20077W        W92337   3.362  31.039  10.919
20078W        W92338  44.374  40.403  10.984
20079W        W92339   0.986  18.187   3.301
20080W        W92340  43.366  10.640  10.573
20081W        W92341  23.616  29.133  10.455
20082W        W92342  37.018   3.322   3.691
20083W        W92343   7.270   2.274  10.511
20084W        W92344  24.581  28.506   1.713
20085W        W92345  34.051  27.018  14.767
20086W        W92346  17.250  17.599   4.305
20087W        W92347   3.758  43.997  10.634
20088W        W92348   2.938   7.352  13.441
20089W        W92349  20.573  44.985   4.274
20090W        W92350  17.724  15.269   2.317
20091W        W92351  20.235   7.896  12.464
20092W        W92352  44.303  30.010  12.423
20093W        W92353  18.589  33.449   4.809
20094W        W92354  43.877  10.830   4.827
20095W        W92355  20.599  35.462   1.897
20096W        W92356   7.762   6.916   2.180
20097W        W92357   9.661   2.857   4.642
20098W        W92358  22.580  44.950  11.108
20099W        W92359   7.860  39.469   2.358
20100W        W92360  10.230   9.834   4.606
20101W        W92361  27.176  13.151  14.337
20102W        W92362  25.693   3.348  13.009
20103W        W92363  38.820  24.111   2.819
20104W        W92364  41.866  21.584  11.875
20105W        W92365  41.957   9.768   1.430
20106W        W92366  10.292  41.455  11.978
20107W        W92367  13.110  43.773   2.267
20108W        W92368  11.201   3.377  14.868
20109W        W92369   4.809  19.687   4.753
20110W        W92370  31.523  30.043  11.889
20111W        W92371  15.254  21.735   3.655
20112W        W92372  21.060  33.447  12.402
20113W        W92373  44.893  22.216   2.777
20114W        W92374  20.679  17.262   4.248
20115W        W92375  43.336  31.424   1.897
20116W        W92376  43.838  31.534   2.311
20117W        W92377  30.481  26.667  14.932
20118W        W92378  35.060  38.460  11.396
20119W        W92379  16.582  43.923   4.759
20120W        W92380  15.210  42.905  14.446
20121W        W92381   7.673  33.963  11.033
20122W        W92382  12.668  12.332  10.955
20123W        W92383  38.893  42.855  13.837
20124W        W92384  15.132  15.138  14.963
20125W        W92385  36.934  41.334  13.435
20126W        W92386   3.857  11.710   3.312
20127W        W92387  34.995  24.013  11.071
20128W        W92388  23.217  25.594   5.676
20129W        W92389  26.603  31.519   4.285
20130W        W92390  17.255  19.141   2.190
20131W        W92391  34.405  28.962  11.433
20132W        W92392  17.299   0.251  11.024
20133W        W92393  36.591  11.765   1.289
20134W        W92394  16.585   7.197   2.395
20135W        W92395  26.561  27.038  10.945
20136W        W92396  35.391  30.606   1.712
20137W        W92397  24.019  42.969  12.470
20138W        W92398  29.448  43.462   2.801
20139W        W92399  44.006   7.279   0.376
20140W        W92400  42.962  27.502   0.350
20141W        W92401  19.693  34.996  14.813
20142W        W92402  37.354  11.795  13.014
20143W        W92403  38.031  19.113   4.649
20144W        W92404  36.871  29.042  14.496
20145W        W92405   7.328  24.635  12.943
20146W        W92406  27.025  23.150   2.846
20147W        W92407  43.898  10.160   0.297
20148W        W92408  44.895   2.908  13.911
20149W        W92409  24.183  36.479   4.333
20150W        W92410  31.453  18.745  14.824
20151W        W92411  35.517  40.366  14.954
20152W        W92412  41.529   0.809   0.767
20153W        W92413   8.704  44.896  11.121
20154W        W92414  33.429  29.991   2.731
20155W        W92415  43.802  22.097  11.037
20156W        W92416  34.968   7.195  13.899
20157W        W92417   9.806   1.246  11.593
20158W        W92418  15.113  19.701   4.216
20159W        W92419  29.637  15.637   4.266
20160W        W92420  43.941   2.230  11.411
20161W        W92421  17.239  40.834   0.946
20162W        W92422  31.507  33.398   3.791
20163W        W92423  33.589  32.551   2.266
20164W        W92424   2.767  23.728  10.437
20165W        W92425  44.302  35.975   2.232
20166W        W92426  41.400  29.167   0.446
20167W        W92427   1.269  29.649   3.761
20168W        W92428  16.101  35.876  13.487
20169W        W92429  42.857  35.917  14.337
20170W        W92430  37.963  13.774   2.269
20171W        W92431   4.302  28.676  11.945
20172W        W92432  37.521  17.671  13.456
20173W        W92433  33.888  27.474   4.680
20174W        W92434  28.962  31.958   1.780
20175W        W92435  21.107  10.752   1.881
20176W        W92436  15.800  27.122  12.471
20177W        W92437  27.555  14.135   5.237
20178W        W92438  10.365  25.169   3.246
20179W        W92439  27.994  30.420  10.459
20180W        W92440   0.416  28.996   0.272
20181W        W92441  14.698  17.791  12.486
20182W        W92442   7.737  21.669   3.747
20183W        W92443  27.683  41.489  11.111
20184W        W92444  17.759  23.161   1.710
20185W        W92445  14.737   8.217  12.908
20186W        W92446  21.633  35.086   0.314
20187W        W92447  27.664   2.277   2.331
20188W        W92448   9.866  35.046   2.311
20189W        W92449   9.225   0.312  11.013
20190W        W92450   0.954  35.524  11.487
20191W        W92451  44.818  34.119  12.500
20192W        W92452  44.892  19.228  13.864
20193W        W92453  43.771  24.600   2.896
20194W        W92454   6.882  21.590  14.964
20195W        W92455  18.706   9.187   5.654
20196W        W92456  38.567  14.759  10.488
20197W        W92457  14.298  31.928   3.387
20198W        W92458  15.285  41.356  14.892
20199W        W92459  42.995  18.088   2.351
20200W        W92460  15.318  32.630   0.942
20201W        W92461  13.213   8.736   4.238
20202W        W92462  38.515  20.614   1.928
20203W        W92463  13.689  22.060  14.279
20204W        W92464  41.040  33.993  14.931
20205W        W92465  32.095  17.626  11.090
20206W        W92466  25.064  28.522   2.317
20207W        W92467  40.961  35.573  13.883
20208W        W92468  27.117   3.306   5.313
20209W        W92469  22.137  37.037   2.794
20210W        W92470  27.596  16.796  11.454
20211W        W92471  36.390  34.543   9.956
20212W        W92472  32.504  33.995   4.237
20213W        W92473   2.262  34.556   3.652
20214W        W92474  28.478  26.952  12.891
20215W        W92475  36.362  26.476  12.823
20216W        W92476  11.639   3.348   4.294
20217W        W92477  32.033  21.157   3.314
20218W        W92478  23.655   4.941   1.925
20219W        W92479  40.839  18.210   2.379
20220W        W92480  22.710  21.040   0.312
20221W        W92481  11.781  31.913  13.418
20222W        W92482  11.213  26.968   4.746
20223W        W92483  41.997  22.546   4.327
20224W        W92484  26.463  14.656  11.902
20225W        W92485  40.923  27.053  10.970
20226W        W92486  37.353  42.810   3.335
20227W        W92487  25.140  28.502   1.763
20228W        W92488  21.190  42.953   1.359
20229W        W92489  30.981  20.743  11.476
20230W        W92490  21.647   4.717   2.314
20231W        W92491   6.802   6.694   1.931
20232W        W92492  35.013  38.562  12.845
20233W        W92493  36.971   8.857   0.355
20234W        W92494   4.203  12.338   0.944
20235W        W92495  38.038   8.663   4.118
20236W        W92496  29.166   5.799  11.504
20237W        W92497  40.969  44.469  11.431
20238W        W92498  24.624  17.303  12.484
20239W        W92499   6.301  35.446  10.962
20240W        W92500  17.171   8.338  12.875
20241W        W92501  30.064  36.975  10.623
20242W        W92502  19.121  16.656   0.398
20243W        W92503  43.008  10.729   0.758
20244W        W92504  31.603  37.906  12.457
20245W        W92505  16.745   6.760  14.947
20246W        W92506  21.212  28.559  13.541
20247W        W92507   1.794  36.011   3.739
20248W        W92508  11.283  24.225   4.670
20249W        W92509  34.517  18.654  12.866
20250W        W92510  17.104  31.915   5.207
20251W        W92511  34.115  11.867   0.756
20252W        W92512  14.737  33.434  13.538
20253W        W92513   7.364  28.067   9.937
20254W        W92514  27.677  10.768   2.269
20255W        W92515  40.542  33.130  11.917
20256W        W92516  41.864   7.756  14.387
20257W        W92517   9.350  42.515  11.064
20258W        W92518  36.056  15.620  13.807
20259W        W92519   9.228  37.890  11.477
20260W        W92520  33.454  15.612   1.771
20261W        W92521  39.551  13.236  12.469
20262W        W92522  22.643  27.663  10.037
20263W        W92523   7.666  23.176  14.945
20264W        W92524  41.990  26.143   3.274
20265W        W92525  43.433  31.943  14.435
20266W        W92526  14.647  17.118   0.831
20267W        W92527  14.309  41.028   3.279
20268W        W92528  21.039  25.713  14.852
20269W        W92529  35.574  44.003  13.939
20270W        W92530  23.096   0.319   4.648
20271W        W92531  41.026  25.109  11.950
20272W        W92532   9.749  20.655   1.742
20273W        W92533  16.255   2.318   3.294
20274W        W92534  20.654  31.631   2.407
20275W        W92535  28.463   9.373  14.281
20276W        W92536  13.735  24.611  13.468
20277W        W92537  15.290   5.200  10.983
20278W        W92538   5.235   5.342  14.813
20279W        W92539  23.499  35.439  11.087
20280W        W92540  43.370  19.187   1.439
20281W        W92541  29.572  35.577   4.716
20282W        W92542  28.931  23.039   4.655
20283W        W92543   5.807  28.976  13.826
20284W        W92544   1.819  25.537   3.793
20285W        W92545  43.773   0.337  13.055
20286W        W92546  22.187  40.419   2.838
20287W        W92547  11.308  20.030   3.313
20288W        W92548  37.877  23.540  13.839
20289W        W92549  42.838  41.795  10.515
20290W        W92550  21.644  44.490   4.250
20291W        W92551   7.361  26.169  13.454
20292W        W92552  36.011  10.736   4.123
20293W        W92553  34.004  27.101   4.709
20294W        W92554   1.806  13.826   4.303
20295W        W92555  17.730  42.393   2.834
20296W        W92556  22.076  37.457  10.932
20297W        W92557  20.739   9.751   4.143
20298W        W92558  42.926  38.053  11.897
20299W        W92559  13.822  32.426  12.899
20300W        W92560   9.184  15.259   3.712
20301W        W92561  24.702  23.072  13.477
20302W        W92562  19.540   4.323  14.334
20303W        W92563  11.272  14.175  11.567
20304W        W92564  17.065   9.311  10.905
20305W        W92565  19.619   2.954   4.681
20306W        W92566  19.166   4.722  14.329
20307W        W92567  41.018   9.712   1.753
20308W        W92568  42.422  35.485   1.789
20309W        W92569  18.668   9.184  10.158
20310W        W92570  18.216  26.618  10.466
20311W        W92571  26.044  17.711  12.416
20312W        W92572  18.712  16.195   1.766
20313W        W92573  27.181  39.490   1.798
20314W        W92574   1.326  27.571  11.463
20315W        W92575  28.516  14.302  14.761
20316W        W92576  14.156   2.816   1.843
20317W        W92577   4.254  26.678  12.387
20318W        W92578  28.544   0.312  11.550
20319W        W92579  39.033  26.504   3.750
20320W        W92580  27.447  26.083   2.733
20321W        W92581  37.365  22.626  14.326
20322W        W92582  34.537  29.028  13.010
20323W        W92583  41.934  42.336   4.656
20324W        W92584  29.665   9.163  13.444
20325W        W92585  19.229  10.383  12.362
20326W        W92586   2.376  44.890  10.900
20327W        W92587  38.923  27.153  11.562
20328W        W92588  23.656  31.601   4.318
20329W        W92589  13.809  19.775   1.822
20330W        W92590   5.216  32.539   1.284
20331W        W92591  40.844   7.227   0.407
20332W        W92592  32.119  38.020   4.798
20333W        W92593  20.761  38.993   3.681
20334W        W92594  33.099  24.650   0.295
20335W        W92595  40.508  17.735   2.799
20336W        W92596  18.292  43.878   1.221
20337W        W92597  19.174  43.441  10.408
20338W        W92598  21.208  17.145  13.802
20339W        W92599  43.353  22.190  14.448
20340W        W92600  10.380  13.220  13.028
20341W        W92601  44.976  20.189  13.937
20342W        W92602  25.048  35.967  12.085
20343W        W92603  26.134  26.635   2.208
20344W        W92604  10.785  21.236  10.897
20345W        W92605   6.400  35.387  14.971
20346W        W92606   1.848  20.575  14.460
20347W        W92607  22.511  12.342   0.295
20348W        W92608  23.131  39.902  10.467
20349W        W92609  11.836   6.374  10.976
20350W        W92610  11.306   5.895   2.235
20351W        W92611  39.514  14.824  13.371
20352W        W92612  20.125  35.590   1.802
20353W        W92613  15.751  36.990  13.347
20354W        W92614   8.862   2.865  11.568
20355W        W92615  43.353  25.208   3.818
20356W        W92616  16.288  29.519  11.611
20357W        W92617   3.334  10.779  11.954
20358W        W92618  37.447  18.597   4.752
20359W        W92619  16.111  38.957  11.885
20360W        W92620  28.454  15.131   1.837
20361W        W92621   8.357  17.272  13.055
20362W        W92622  27.145  26.601  14.486
20363W        W92623  36.524   8.810   0.386
20364W        W92624  19.676  22.238   2.345
20365W        W92625  14.142   1.877   3.300
20366W        W92626  23.105  28.041   4.220
20367W        W92627  39.813  27.945  14.437
20368W        W92628   5.873  27.146   0.845
20369W        W92629  38.846  13.199  13.054
20370W        W92630  23.553   0.815   3.283
20371W        W92631  31.044  20.624  11.108
20372W        W92632  37.374   3.288  11.518
20373W        W92633  33.090   3.738  12.568
20374W        W92634  35.988  35.589   2.823
20375W        W92635  36.533  37.462  13.812
20376W        W92636   6.802  26.702  13.049
20377W        W92637  10.757  18.247   3.818
20378W        W92638  36.489  13.762  14.948
20379W        W92639  36.930  17.190  10.617
20380W        W92640  38.921  20.178  10.554
20381W        W92641  41.480  16.787   3.345
20382W        W92642  25.664  23.238   0.390
20383W        W92643   3.949  24.986  11.933
20384W        W92644  17.800  11.216  12.384
20385W        W92645  35.543   2.817  11.988
20386W        W92646  37.475  15.691  10.515
20387W        W92647  23.727  39.534   1.212
20388W        W92648   7.810  17.741   1.211
20389W        W92649  31.516  40.866   1.873
20390W        W92650  35.987  25.029   0.806
20391W        W92651  34.119   5.360  14.920
20392W        W92652  34.565   4.924   4.665
20393W        W92653  24.141  19.744  13.053
20394W        W92654  35.597   4.273  13.847
20395W        W92655  14.766  18.766   3.271
20396W        W92656  24.063  10.327  10.620
20397W        W92657   7.679  22.502  10.988
20398W        W92658   9.868  12.268  13.503
20399W        W92659  25.652   3.881   2.732
20400W        W92660  35.981  13.117  14.289
20401W        W92661  42.310  10.146   0.729
20402W        W92662  11.675  31.003   0.460
20403W        W92663  44.008  39.502  12.352
20404W        W92664  37.872  31.479  11.025
20405W        W92665  13.300  18.702   2.360
20406W        W92666  34.872  14.194   2.224
20407W        W92667  41.911   0.414   0.905
20408W        W92668  16.719  16.799   0.846
20409W        W92669  37.506  15.176   2.786
20410W        W92670  34.399  27.469   3.275
20411W        W92671  29.076  23.548  10.948
20412W        W92672  21.519   6.679  12.482
20413W        W92673  13.191  23.170  11.116
20414W        W92674  12.139  15.822  11.907
20415W        W92675   5.795  21.725   4.169
20416W        W92676  14.707  32.074   2.286
20417W        W92677  10.248  29.921   0.763
20418W        W92678  37.516  21.629   2.274
20419W        W92679  24.644  30.074  13.035
20420W        W92680  40.864  33.126   3.858
20421W        W92681   6.226  35.481   1.803
20422W        W92682  19.176   3.249   0.947
20423W        W92683   2.957   8.379   0.398
20424W        W92684  23.220  22.617  12.413
20425W        W92685   8.383   1.241  11.053
20426W        W92686  29.138   8.360   4.714
20427W        W92687  27.568  19.677   0.332
20428W        W92688  13.701  33.962   1.414
20429W        W92689  20.631  19.271   0.814
20430W        W92690  15.141  27.560   2.413
20431W        W92691  19.175  12.300  14.387
20432W        W92692   1.922  38.970   1.290
20433W        W92693  23.241  21.067   1.415
20434W        W92694   9.834  33.436   1.724
20435W        W92695  30.455  37.521  14.984
20436W        W92696  26.996  41.486  12.347
20437W        W92697  17.668  12.757  10.529
20438W        W92698  13.828  23.575   4.682
20439W        W92699  37.405  15.233  10.963
20440W        W92700  31.403  25.058   4.692
20441W        W92701   5.325  17.202  13.029
20442W        W92702  25.051  38.444  11.522
20443W        W92703   7.776  34.991   5.299
20444W        W92704  40.407  27.081  13.858
20445W        W92705   2.808  31.120   3.285
20446W        W92706  12.148  13.822  14.776
20447W        W92707  35.545  25.002  13.935
20448W        W92708  10.243  41.490  14.317
20449W        W92709  34.500  17.692  14.357
20450W        W92710  35.880   2.443   4.178
20451W        W92711  22.613  29.133   0.930
20452W        W92712  23.586  19.166   5.232
20453W        W92713  37.890  38.936   0.449
20454W        W92714  39.059   5.792  13.955
20455W        W92715   8.293  16.582  11.476
20456W        W92716  21.696  27.049  11.528
20457W        W92717  35.506  23.578  11.912
20458W        W92718  23.579  20.727  14.781
20459W        W92719  17.179  32.608   3.355
20460W        W92720  19.658  20.756   0.912
20461W        W92721  43.415  14.769  10.574
20462W        W92722   5.771  35.407   2.828
20463W        W92723  40.980   7.694  13.814
20464W        W92724  24.510   7.888  14.996
20465W        W92725  31.972  38.974   4.342
20466W        W92726   0.965  35.588  13.424
20467W        W92727  11.365  42.950  12.527
20468W        W92728  36.573  39.343   0.860
20469W        W92729  36.511   1.328   4.134
20470W        W92730  12.219  24.226  13.318
20471W        W92731  34.922  43.810   3.800
20472W        W92732  42.010  18.655   4.760
20473W        W92733  21.116  38.432   1.809
20474W        W92734  16.680  19.590   0.756
20475W        W92735  18.784  35.366  10.906
20476W        W92736  21.056  12.307   4.720
20477W        W92737   1.840  16.597  14.334
20478W        W92738  27.049  15.601   0.411
20479W        W92739  42.512  36.951  11.922
20480W        W92740  36.386  23.620  13.808
20481W        W92741  38.049  29.499   0.252
20482W        W92742  26.609  36.407  13.315
20483W        W92743  44.764  17.728  10.445
20484W        W92744   4.820  23.675   3.792
20485W        W92745  38.512  34.454   2.679
20486W        W92746  12.655  10.737   3.366
20487W        W92747  41.981  39.943  13.470
20488W        W92748  34.074   0.252  13.499
20489W        W92749  16.808   8.381  11.091
20490W        W92750  15.191  33.489  13.858
20491W        W92751   4.384  33.030   1.387
20492W        W92752  34.999  44.333   4.233
20493W        W92753  35.987  18.251   0.854
20494W        W92754  22.996   3.219  12.056
20495W        W92755  27.516  28.078  10.416
20496W        W92756  21.182  28.492  12.531
20497W        W92757   1.768  31.106   4.738
20498W        W92758  33.558  33.457   4.335
20499W        W92759  15.316  13.638   2.364
20500W        W92760  13.331  21.703   1.732
20501W        W92761  33.450   3.398  11.954
20502W        W92762  29.969  27.532   2.762
20503W        W92763  36.431   8.757   9.932
20504W        W92764  33.967  32.115   0.368
20505W        W92765  36.391   2.963  13.861
20506W        W92766  27.595  31.556   1.712
20507W        W92767  13.829  24.054   4.773
20508W        W92768  44.309  34.074  14.373
20509W        W92769  27.990  19.188  14.446
20510W        W92770  14.804   3.894  14.768
20511W        W92771  21.099  20.068   3.230
20512W        W92772  24.689   4.236  12.851
20513W        W92773   1.476  28.080  14.873
20514W        W92774  34.563  42.878   1.430
20515W        W92775  11.252  26.172   1.411
20516W        W92776  35.595  30.161   3.848
20517W        W92777  33.536  24.641   0.953
20518W        W92778  33.923  41.485   0.398
20519W        W92779  41.811  11.220  10.430
20520W        W92780  26.126  28.054  12.848
20521W        W92781  21.186  42.850  10.138
20522W        W92782  36.431   8.290  11.397
20523W        W92783  36.013  41.347   3.636
20524W        W92784  35.061  16.617  12.383
20525W        W92785  16.740  33.617  13.981
20526W        W92786  32.024  44.282  14.390
20527W        W92787  23.638  23.168   2.242
20528W        W92788  32.527  19.199  11.905
20529W        W92789  16.172  44.410  14.009
20530W        W92790  42.309  29.077  12.980
20531W        W92791  27.175  20.644  11.371
20532W        W92792  40.970   5.808  11.946
20533W        W92793  36.066  29.546  12.089
20534W        W92794  43.933  26.525   1.814
20535W        W92795  43.437  15.148  11.895
20536W        W92796  41.900  37.546  13.871
20537W        W92797  11.218  23.663  12.540
20538W        W92798  44.931  44.924   1.237
20539W        W92799  34.075  19.683  14.925
20540W        W92800  15.293   2.448   3.176
20541W        W92801  38.516  40.382  13.793
20542W        W92802   3.427   6.851   3.829
20543W        W92803  21.531  40.006   3.174
20544W        W92804  27.125  36.424   3.270
20545W        W92805  42.283  33.399  11.056
20546W        W92806  36.578   5.742   3.255
20547W        W92807   5.391  25.585  11.918
20548W        W92808  33.971  30.089  12.909
20549W        W92809  11.742  19.764  11.058
20550W        W92810   7.903  41.957  13.859
20551W        W92811   7.392   1.821  14.345
20552W        W92812   2.410  22.614   0.795
20553W        W92813  30.056  41.840  11.087
20554W        W92814  23.539  19.248   1.276
20555W        W92815  37.430  20.740   0.470
20556W        W92816  22.098  14.247   0.447
20557W        W92817  32.094  26.601   1.710
20558W        W92818  38.991  43.382   3.213
20559W        W92819  35.045  39.982  10.997
20560W        W92820   0.837   9.653   1.369
20561W        W92821  40.529  24.135   5.279
20562W        W92822  21.131  34.108   4.316
20563W        W92823  33.053  14.790  10.524
20564W        W92824  36.954   8.190  12.531
20565W        W92825  36.440  12.719   3.682
20566W        W92826  25.992  37.984  10.983
20567W        W92827  12.783  23.147  14.923
20568W        W92828  44.285  31.912   5.124
20569W        W92829  23.596  10.762  11.947
20570W        W92830   6.871  32.930   0.426
20571W        W92831  41.390  18.069   4.777
20572W        W92832   4.279  32.395   3.830
20573W        W92833   3.402  30.500   2.327
20574W        W92834   0.301  40.029   0.356
20575W        W92835  15.201  17.752   3.704
20576W        W92836  33.569   2.842  12.931
20577W        W92837  14.708  33.473  14.855
20578W        W92838  10.291   9.872   0.258
20579W        W92839  21.566   8.876  13.908
20580W        W92840   4.945  39.359  13.488
20581W        W92841  20.201  33.102  13.480
20582W        W92842  10.274  13.821   2.182
20583W        W92843   6.829  39.337   4.273
20584W        W92844  17.745  41.449   2.850
20585W        W92845   4.854  25.049  12.855
20586W        W92846  28.465  19.177  10.424
20587W        W92847  43.315  16.232   3.205
20588W        W92848  20.273   3.748   4.719
20589W        W92849  12.331  36.866  10.500
20590W        W92850  22.036  42.785   1.795
20591W        W92851   6.213   2.857  10.481
20592W        W92852  27.628  38.340   2.833
20593W        W92853  33.403  20.196   9.444
20594W        W92854  28.594   6.208  14.844
20595W        W92855  21.596   8.867   2.808
20596W        W92856  27.590  39.009  10.465
20597W        W92857  21.657  25.134  14.467
20598W        W92858   1.441  13.260   4.264
20599W        W92859  17.732  14.121   0.379
20600W        W92860  30.589  33.120   1.316
20601W        W92861   1.808   3.303  13.951
20602W        W92862  43.771  20.724  13.524
20603W        W92863  31.599  22.089  11.918
20604W        W92864  41.927   4.731   4.169
20605W        W92865  36.528  27.018  11.105
20606W        W92866  26.120  21.182  12.933
20607W        W92867  24.505  10.728  14.499
20608W        W92868  34.401  29.067   3.752
20609W        W92869  23.080  17.594   4.682
20610W        W92870  19.625  11.180  10.448
20611W        W92871  13.225  39.039  14.849
20612W        W92872  38.548  21.722  14.403
20613W        W92873   6.313   4.305   3.331
20614W        W92874  41.304  21.041   2.740
20615W        W92875  26.076  16.780   4.311
20616W        W92876  35.013  23.572  14.501
20617W        W92877  27.106  31.485  12.971
20618W        W92878  14.112  28.444   4.138
20619W        W92879  13.205  30.131   1.389
20620W        W92880   1.756  11.351   0.773
20621W        W92881  42.488  13.105  12.577
20622W        W92882   8.349   9.870   1.861
20623W        W92883  20.089  14.832  13.439
20624W        W92884  16.284  12.359  14.844
20625W        W92885  17.751   4.256   3.221
20626W        W92886  41.848  37.472   1.829
20627W        W92887  30.588  44.409  12.486
20628W        W92888  11.281  13.783   0.292
20629W        W92889  32.070  10.862   4.765
20630W        W92890  27.609  20.166   2.322
20631W        W92891  31.423  17.303   3.159
20632W        W92892   9.772  36.062  13.400
20633W        W92893  27.159  33.051   0.870
20634W        W92894  16.768  25.027   2.789
20635W        W92895  15.584   5.246   0.351
20636W        W92896  29.983  26.197  12.872
20637W        W92897  29.006   1.778   4.629
20638W        W92898  25.048  22.180   2.243
20639W        W92899  23.511  33.430  13.952
20640W        W92900  15.237   6.750   4.222
20641W        W92901  31.638  33.023   4.698
20642W        W92902   9.158  20.045   4.749
20643W        W92903   0.960  18.160  12.948
20644W        W92904  23.630  35.027  12.347
20645W        W92905  36.087   8.261  14.468
20646W        W92906   6.785  19.576   2.840
20647W        W92907  11.164  35.576   3.775
20648W        W92908  17.579  31.554   3.679
20649W        W92909  18.170  25.640  14.956
20650W        W92910  35.393  17.276   1.753
20651W        W92911  42.812  31.416   4.175
20652W        W92912  11.858   9.818  13.342
20653W        W92913  23.108   7.717   4.610
20654W        W92914  31.039  32.481  10.499
20655W        W92915  27.982  38.862  12.472
20656W        W92916  38.341  21.226  11.990
20657W        W92917  13.771  29.137   2.277
20658W        W92918   5.896  41.432  10.552
20659W        W92919   6.677  21.081  14.907
20660W        W92920  22.661  10.218  10.051
20661W        W92921   3.718  32.033  14.413
20662W        W92922  30.156  26.509   2.256
20663W        W92923  31.093  27.120   4.712
20664W        W92924  27.526  16.712  14.366
20665W        W92925  25.202  25.488   3.281
20666W        W92926  15.131  28.037  10.112
20667W        W92927  42.351  43.999  11.865
20668W        W92928  10.682   4.881   0.735
20669W        W92929  30.089  37.922   0.884
20670W        W92930  17.580   6.681   1.385
20671W        W92931  37.438  17.797   3.164
20672W        W92932  37.366  16.284  12.987
20673W        W92933  30.452  24.643  14.761
20674W        W92934  26.575  15.213  10.471
20675W        W92935  14.303  38.011  12.464
20676W        W92936  24.513  36.362  13.857
20677W        W92937  24.548   3.405   1.797
20678W        W92938  10.333  35.564   3.811
20679W        W92939   9.294   2.819  14.794
20680W        W92940   1.770  19.228   0.807
20681W        W92941  24.483  40.838  12.826
20682W        W92942  40.421  18.707   3.666
20683W        W92943  11.834  22.208   1.791
20684W        W92944  19.058  34.899  10.616
20685W        W92945  11.336  29.626  14.511
20686W        W92946  17.140  34.111  12.992
20687W        W92947  28.131  33.589  13.394
20688W        W92948  32.079  34.432  12.864
20689W        W92949  14.234  42.366   0.826
20690W        W92950  30.937  30.060  10.924
20691W        W92951  19.186   3.756   3.204
20692W        W92952  15.713  14.142   3.717
20693W        W92953   5.269  12.610  12.032
20694W        W92954  23.208  30.527  11.108
20695W        W92955   3.239  35.566   0.913
20696W        W92956   0.819  18.113   0.475
20697W        W92957  11.156   4.717  10.520
20698W        W92958   3.850  10.670   4.793
20699W        W92959   9.881   9.761  10.635
20700W        W92960   1.904  22.198   2.704
20701W        W92961  22.085  44.790  11.958
20702W        W92962   8.716   3.877   4.118
20703W        W92963   3.941  26.207   1.304
20704W        W92964   1.839  27.956  14.893
20705W        W92965  34.595  16.227   3.742
20706W        W92966  17.300  13.125   5.229
20707W        W92967   2.277   4.733  10.462
20708W        W92968  22.665  29.992  12.976
20709W        W92969  37.987  18.107   0.804
20710W        W92970  42.404  35.918  11.021
20711W        W92971  19.744  26.582   0.366
20712W        W92972  16.145  27.501   3.322
20713W        W92973   5.268  25.537  14.032
20714W        W92974   1.731  37.541   0.935
20715W        W92975   9.168   6.241  12.369
20716W        W92976  33.881  24.557   3.675
20717W        W92977  18.245  39.399  14.775
20718W        W92978   5.790   5.340  11.045
20719W        W92979   7.309   7.808  10.633
20720W        W92980   4.933  29.119   2.688
20721W        W92981  43.280  22.606   4.811
20722W        W92982   9.151  11.350   1.275
20723W        W92983  23.001  35.481   3.156
20724W        W92984  30.569  42.002  13.832
20725W        W92985  35.949  31.952  12.470
20726W        W92986  39.000  11.157   4.260
20727W        W92987   0.494  28.592   3.742
20728W        W92988  36.452   9.673   1.286
20729W        W92989  42.818  23.721   1.730
20730W        W92990   4.862  36.874  11.429
20731W        W92991  11.284  25.154   2.723
20732W        W92992  30.622  28.557  13.881
20733W        W92993  10.260  22.185   4.298
20734W        W92994  28.529  27.962   0.431
20735W        W92995  31.047   8.667  14.341
20736W        W92996  14.182  42.436   0.464
20737W        W92997  23.129  41.475   3.785
20738W        W92998   3.876  28.141  10.421
20739W        W92999  24.577  17.579   1.744
20740W        W93000  34.917  37.548   2.332
20741W        W93001  29.925  10.197  13.963
20742W        W93002  44.858   9.328  13.945
20743W        W93003   2.880  26.688  12.396
20744W        W93004  19.591   0.824  11.999
20745W        W93005  14.598  26.568   2.809
20746W        W93006  29.957  28.152  10.533
20747W        W93007  31.931  29.991   2.675
20748W        W93008  18.655   5.263   3.222
20749W        W93009  39.525  19.222   3.216
20750W        W93010  40.816   3.925  11.901
20751W        W93011  34.926  21.652  14.323
20752W        W93012   5.383   5.906   2.829
20753W        W93013  26.104  38.851  13.907
20754W        W93014  41.328  30.608  13.045
20755W        W93015  37.486  22.194  12.956
20756W        W93016   5.826   8.837   9.931
20757W        W93017  43.396  21.165  11.590
20758W        W93018  30.552  33.442  13.354
20759W        W93019  19.058  11.336  12.883
20760W        W93020  14.283   2.914  13.526
20761W        W93021  16.106  35.051  14.804
20762W        W93022  42.362  35.602   2.696
20763W        W93023  21.093   6.840  10.920
20764W        W93024  36.507  20.076  12.956
20765W        W93025  25.516  35.029  14.447
20766W        W93026  10.690  44.815   1.862
20767W        W93027  29.090   8.793  10.408
20768W        W93028  37.546  35.600  11.932
20769W        W93029   2.404  36.361   1.784
20770W        W93030  19.581  19.144   3.198
20771W        W93031  42.833  29.572  12.545
20772W        W93032  41.412  13.657   0.412
20773W        W93033  44.476  23.714  13.974
20774W        W93034   7.768  43.782   2.208
20775W        W93035   4.286  15.286   0.773
20776W        W93036  31.029  33.502  10.519
20777W        W93037  34.008   5.293  11.021
20778W        W93038  25.677  38.878  13.316
20779W        W93039   9.852  21.097  11.546
20780W        W93040   5.261  16.268   0.392
20781W        W93041  26.685  27.177   0.428
20782W        W93042  25.663  39.889  14.016
20783W        W93043  15.155   7.219   2.272
20784W        W93044  18.767  37.496   3.716
20785W        W93045  27.488  33.598  10.513
20786W        W93046  15.707  36.366   3.215
20787W        W93047  34.577  23.542  11.455
20788W        W93048   0.743  23.591   4.658
20789W        W93049   8.850  10.341  11.505
20790W        W93050  21.182  16.271  12.351
20791W        W93051  26.630  37.563  11.982
20792W        W93052  41.023  15.154   4.720
20793W        W93053  12.232  43.783  14.287
20794W        W93054  31.974  14.167   0.268
20795W        W93055   5.916  24.040   3.337
20796W        W93056  26.145  26.542   3.650
20797W        W93057   0.743  27.164  11.603
20798W        W93058  19.744  33.958  12.023
20799W        W93059  22.160  16.732  14.944
20800W        W93060  10.280   0.979   1.789
20801W        W93061  36.538   0.875   4.653
20802W        W93062  20.108  41.940  11.882
20803W        W93063  26.953  29.463  11.437
20804W        W93064  19.779  27.498  14.893
20805W        W93065  32.618  17.256   0.770
20806W        W93066  29.148  34.464   2.182
20807W        W93067  10.295  35.601  12.565
20808W        W93068  29.539  25.498  12.511
20809W        W93069   7.702   2.290  14.881
20810W        W93070  35.417  13.691   1.818
20811W        W93071  36.068  17.234   3.339
20812W        W93072  19.277  16.087   2.892
20813W        W93073  37.841  15.238   2.354
20814W        W93074  33.415   1.339  12.503
20815W        W93075  33.057  15.605  10.449
20816W        W93076   3.784  37.036  13.025
20817W        W93077  23.520  25.973  11.456
20818W        W93078  33.080  33.913   0.788
20819W        W93079  32.432  39.833   3.211
20820W        W93080  42.921  32.397   3.749
20821W        W93081   6.308  44.413   0.730
20822W        W93082  26.549  36.361   4.629
20823W        W93083  30.022  43.796   0.906
20824W        W93084  32.889  19.684   5.565
20825W        W93085  10.352  35.000  10.455
20826W        W93086  10.810   7.772  14.334
20827W        W93087  22.609  32.537  13.902
20828W        W93088  16.709  42.413  13.455
20829W        W93089  41.809  36.582   0.325
20830W        W93090   6.862   3.295   2.202
20831W        W93091  19.170  41.006   0.772
20832W        W93092  37.860  14.736   0.465
20833W        W93093  28.490   0.924  12.489
20834W        W93094  40.807  17.729  11.459
20835W        W93095   1.842  43.335   2.740
20836W        W93096  39.485  36.035  11.046
20837W        W93097  42.006  41.494   3.705
20838W        W93098   0.883  43.326  11.924
20839W        W93099  18.726  20.073  14.462
20840W        W93100  17.781   2.435   1.811
20841W        W93101  26.534  24.610  11.457
20842W        W93102  27.665  17.197   1.431
20843W        W93103  13.679  12.317  12.574
20844W        W93104  22.571  38.986  10.142
20845W        W93105  10.845  20.206   2.888
20846W        W93106  20.658  26.648   3.205
20847W        W93107   1.362  39.893  11.519
20848W        W93108   1.372  40.984  10.436
20849W        W93109   8.856  12.176   0.330
20850W        W93110  21.083  10.287   0.934
20851W        W93111  26.464  25.707  11.484
20852W        W93112  26.643  43.805   2.402
20853W        W93113  34.903  33.959   3.264
20854W        W93114  21.112   1.803   2.718
20855W        W93115  39.911  30.028   3.197
20856W        W93116  24.219  12.264   1.217
20857W        W93117  25.117  24.642  14.392
20858W        W93118  32.123  23.514   0.885
20859W        W93119  26.093  39.511  13.872
20860W        W93120  35.887  43.940  12.898
20861W        W93121  24.026  39.475   0.410
20862W        W93122   5.338   2.430   3.770
20863W        W93123   0.907  18.562  14.372
20864W        W93124   7.390   4.727  13.981
20865W        W93125   9.821  40.873   2.322
20866W        W93126  36.407   5.872  11.543
20867W        W93127   9.273  12.316   0.403
20868W        W93128  41.982   2.832  10.562
20869W        W93129  24.013  10.313   2.333
20870W        W93130  28.636  13.183  11.003
20871W        W93131  39.499  43.344  10.625
20872W        W93132  39.314   9.319   5.229
20873W        W93133  16.593   6.253   1.330
20874W        W93134   7.368  22.573  13.431
20875W        W93135   2.266  10.359   4.657
20876W        W93136  13.219  27.485  14.318
20877W        W93137  22.715  39.482   4.336
20878W        W93138   0.255  44.388   2.395
20879W        W93139  20.567  38.386  11.974
20880W        W93140  10.650  43.490  12.970
20881W        W93141  39.956   2.249  11.990
20882W        W93142   1.793  12.736  14.408
20883W        W93143  44.309  11.336  12.549
20884W        W93144  12.280  36.938   1.219
20885W        W93145  28.468   8.367  10.411
20886W        W93146   8.749  39.851   3.165
20887W        W93147  35.427  17.759   0.357
20888W        W93148  11.716  41.846   3.868
20889W        W93149  36.049  25.562   5.151
20890W        W93150  26.467  17.741   0.741
20891W        W93151  35.093   1.242  14.025
20892W        W93152   4.317  28.111   3.785
20893W        W93153   2.240   0.817  12.857
20894W        W93154  21.026  41.463   1.344
20895W        W93155  35.476   4.215   3.300
20896W        W93156  39.396  25.125  14.435
20897W        W93157  17.720  40.332   3.779
20898W        W93158  28.520  12.177  13.438
20899W        W93159   3.745   5.883   3.242
20900W        W93160  26.174  28.080   4.707
20901W        W93161  22.733  38.560  12.525
20902W        W93162   7.803  17.576   2.189
20903W        W93163   7.671   8.173   1.890
20904W        W93164  13.234   1.348   4.775
20905W        W93165  21.036   4.218  14.339
20906W        W93166  13.805  25.553   1.285
20907W        W93167  22.021  21.583  11.444
20908W        W93168  23.502  31.646   0.817
20909W        W93169  43.278  36.468   0.751
20910W        W93170  22.664  18.249  12.871
20911W        W93171  31.603  12.193   1.709
20912W        W93172  27.041  32.945  13.829
20913W        W93173   2.960  26.077  10.612
20914W        W93174  20.207  11.269   1.755
20915W        W93175  37.471  24.663   0.263
20916W        W93176  27.625  43.392  11.393
20917W        W93177  20.174  20.736  14.860
20918W        W93178  40.044  25.494  11.433
20919W        W93179   7.792  36.944   1.336
20920W        W93180  33.049  31.047  13.827
20921W        W93181  27.187   6.209  12.924
20922W        W93182  41.814  42.348  12.840
20923W        W93183   1.442  38.952  10.580
20924W        W93184  30.419  33.971   3.146
20925W        W93185  36.385  30.556   3.254
20926W        W93186  39.519  18.550   0.788
20927W        W93187   2.805  11.228   3.837
20928W        W93188   6.284  42.282  12.058
20929W        W93189  34.450   1.942   2.710
20930W        W93190  11.355  33.588   3.634
20931W        W93191  22.653  10.806  13.512
20932W        W93192  16.294  19.765  11.914
20933W        W93193  32.118  12.360   3.191
20934W        W93194  36.866   9.809  10.005
20935W        W93195  30.536   2.398   0.471
20936W        W93196  23.600   8.380  10.615
20937W        W93197  13.107  18.170   4.808
20938W        W93198  30.643  17.231   5.206
20939W        W93199  31.896  12.728  14.304
20940W        W93200  35.964  21.534  12.954
20941W        W93201  25.024  22.599   3.649
20942W        W93202  23.501  40.468   4.783
20943W        W93203  19.181  42.466   2.665
20944W        W93204  16.211   4.735   3.297
20945W        W93205  43.796   1.476  12.841
20946W        W93206   8.209  38.568   0.937
20947W        W93207  19.569  14.334   2.294
20948W        W93208  43.829  11.651  14.315
20949W        W93209  41.962  20.253  11.001
20950W        W93210   8.688  43.271   2.211
20951W        W93211  28.463   4.212  12.341
20952W        W93212  17.228  12.650   1.318
20953W        W93213   5.301  43.483   1.403
20954W        W93214   1.960  36.003   2.223
20955W        W93215  15.816  12.346   3.319
20956W        W93216  27.945  38.046  10.461
20957W        W93217   0.437   4.737  11.964
20958W        W93218  30.504  10.328   1.694
20959W        W93219   1.454  31.935  14.974
20960W        W93220  22.728  14.675  14.951
20961W        W93221  27.631  12.751  11.945
20962W        W93222  38.372  19.726   1.247
20963W        W93223  19.757   7.352  14.826
20964W        W93224  32.889   9.295  11.979
20965W        W93225  27.506   8.207  13.522
20966W        W93226   4.760   8.701   0.933
20967W        W93227  24.550  37.084  11.607
20968W        W93228  24.143  21.709  10.911
20969W        W93229  13.632  30.649   9.510
20970W        W93230  27.034  21.620   0.316
20971W        W93231  34.957  42.329   0.835
20972W        W93232  41.801  24.013   2.745
20973W        W93233  24.149  13.643   4.647
20974W        W93234  27.026  14.823  11.433
20975W        W93235   8.848  35.511  13.544
20976W        W93236  15.609  23.010  11.053
20977W        W93237   6.781  28.491   0.321
20978W        W93238   2.869   1.776  11.393
20979W        W93239  21.727  44.774   0.300
20980W        W93240  44.500  37.001   0.468
20981W        W93241  41.418   6.745   4.134
20982W        W93242   0.909   5.836   3.724
20983W        W93243  16.791   0.271   3.790
20984W        W93244  23.992  24.644   1.702
20985W        W93245  20.544  37.929   2.197
20986W        W93246   2.435  44.500   3.372
20987W        W93247  34.960   6.251  10.577
20988W        W93248   6.855  25.056   4.608
20989W        W93249  24.049  35.033   3.269
20990W        W93250  33.464  37.846  14.455
20991W        W93251  11.784  11.690  10.141
20992W        W93252  21.531  40.963  12.484
20993W        W93253  28.106  39.868   0.347
20994W        W93254  31.648   7.841  13.432
20995W        W93255  39.981   9.259  11.561
20996W        W93256  12.237  20.272   0.259
20997W        W93257  20.031  15.128   3.691
20998W        W93258  17.718  14.747  11.598
20999W        W93259  42.857  20.089   3.166
21000W        W93260   1.383  12.776   0.281
21001W        W93261  24.623  16.589  11.092
21002W        W93262  37.082   9.862  11.959
21003W        W93263  20.244  26.124   4.116
21004W        W93264  14.787  22.719   0.464
21005W        W93265  42.960  26.963   0.786
21006W        W93266  32.097  18.704  11.988
21007W        W93267  23.550  20.137  11.416
21008W        W93268  17.260   5.345  10.616
21009W        W93269  10.141   6.840  12.528
21010W        W93270  15.124  22.201   1.762
21011W        W93271  41.921  38.859  13.794
21012W        W93272  37.860  31.050   4.697
21013W        W93273  32.554  33.105   2.847
21014W        W93274  22.199   2.866   2.832
21015W        W93275  21.562  39.519   0.317
21016W        W93276   0.744  28.935  14.795
21017W        W93277   3.382  18.557   0.898
21018W        W93278   5.813  42.884  11.430
21019W        W93279  14.227  39.382  10.437
21020W        W93280  31.993   5.243   4.713
21021W        W93281  26.597  11.787   2.871
21022W        W93282   8.755  17.757  13.006
21023W        W93283  25.708  19.067   2.761
21024W        W93284  33.547  10.330  14.464
21025W        W93285  44.344  29.933   1.379
21026W        W93286  25.714   0.910   4.275
21027W        W93287  24.034  15.228  12.058
21028W        W93288  21.134   4.267   1.336
21029W        W93289   1.413  16.577  12.964
21030W        W93290  22.693   4.303   2.863
21031W        W93291  24.668  18.615   4.269
21032W        W93292  37.877  14.787  10.466
21033W        W93293   6.345  32.409   0.354
21034W        W93294  25.140  27.446   0.964
21035W        W93295  41.537  25.651  12.927
21036W        W93296  40.334  33.947  11.417
21037W        W93297  14.272  28.007  12.352
21038W        W93298   0.390   6.382   1.850
21039W        W93299   8.257  28.940   2.380
21040W        W93300  19.062   0.847  13.858
21041W        W93301  40.516   9.772   4.668
21042W        W93302  10.216  21.512  14.871
21043W        W93303  18.239  18.782  10.997
21044W        W93304  16.799   4.314  13.458
21045W        W93305  37.875  21.691  11.500
21046W        W93306   0.397  18.087  13.963
21047W        W93307   6.211  25.527  10.603
21048W        W93308  34.446  32.549  14.016
21049W        W93309  31.015  15.166  14.015
21050W        W93310  34.920  28.481  13.938
21051W        W93311   3.330   2.288   2.187
21052W        W93312  20.202   6.359   5.784
21053W        W93313  23.231   5.892   0.860
21054W        W93314  44.263  42.804  12.970
21055W        W93315  42.980  22.090   2.314
21056W        W93316  34.460  21.106   0.766
21057W        W93317  28.137  12.634  10.902
21058W        W93318  11.628  21.026   5.285
21059W        W93319  39.523  35.431   4.617
21060W        W93320  36.357  44.908  11.443
21061W        W93321  14.680   4.335   1.368
21062W        W93322  18.621  41.408  11.974
21063W        W93323  43.276  34.479  14.782
21064W        W93324   9.797  19.622  12.087
21065W        W93325  13.690   8.401  12.564
21066W        W93326   4.395  44.955   0.956
21067W        W93327   6.921  43.922   3.283
21068W        W93328   8.789  17.185   4.605
21069W        W93329   0.424  11.682  13.043
21070W        W93330   5.752  34.907  10.487
21071W        W93331  28.088  40.902   5.161
21072W        W93332  17.267  44.756  10.052
21073W        W93333   5.300  33.072   1.791
21074W        W93334  28.539   2.782   4.794
21075W        W93335  16.790  34.434   4.274
21076W        W93336  10.741  42.496  11.990
21077W        W93337   5.783   4.417   3.266
21078W        W93338   5.714  40.892  10.619
21079W        W93339  19.610   2.906   2.784
21080W        W93340  30.543  40.525  12.498
21081W        W93341  40.004  28.517   4.177
21082W        W93342  44.837  12.627   2.354
21083W        W93343   5.836  41.950  14.763
21084W        W93344  18.567  32.925  12.938
21085W        W93345  37.479   9.790   4.285
21086W        W93346  42.792  26.646   4.285
21087W        W93347   8.321  18.582   3.270
21088W        W93348  20.269  34.894  13.408
21089W        W93349  42.855  31.565  11.082
21090W        W93350  24.584  20.056  14.331
21091W        W93351  36.025  16.813  13.842
21092W        W93352   2.235   8.336  12.409
21093W        W93353   5.291  30.088  11.525
21094W        W93354  22.130   0.777   1.300
21095W        W93355  44.460  29.559   4.702
21096W        W93356  36.983  21.139  12.362
21097W        W93357  43.491  42.325  14.817
21098W        W93358  37.505   4.701  14.983
21099W        W93359  18.159   0.901   0.912
21100W        W93360  29.613  26.587   4.196
21101W        W93361   6.910  16.161   3.336
21102W        W93362  37.867  22.251  10.436
21103W        W93363  29.475   7.355  12.984
21104W        W93364  37.922  28.519  11.878
21105W        W93365  26.492  40.819   4.674
21106W        W93366  43.998  13.284  11.595
21107W        W93367  30.154  27.504   1.880
21108W        W93368  22.151  43.990  12.404
21109W        W93369  30.158  27.139  14.377
21110W        W93370  28.080  11.316   4.717
21111W        W93371  14.726  19.263   4.607
21112W        W93372  40.882  30.128  14.427
21113W        W93373  31.101  38.393   4.635
21114W        W93374  27.544  26.038   1.346
21115W        W93375  11.753   7.763   4.231
21116W        W93376  25.136  19.237   0.305
21117W        W93377  29.524  36.029   1.241
21118W        W93378  44.264  13.683  10.555
21119W        W93379   1.821   3.776  12.920
21120W        W93380  37.528  22.231  11.458
21121W        W93381  27.480  22.085   1.360
21122W        W93382  21.579  29.028  11.980
21123W        W93383   9.727  44.302   3.353
21124W        W93384  41.481  32.935  13.317
21125W        W93385  17.103  18.084  14.448
21126W        W93386  39.865  35.367   3.224
21127W        W93387  20.258  20.054  14.414
21128W        W93388   7.179  40.316   5.222
21129W        W93389  10.177  11.771  14.474
21130W        W93390  14.337  27.465  12.393
21131W        W93391  32.466  22.049   1.895
21132W        W93392  14.693  14.605   2.830
21133W        W93393  29.000   3.938  12.401
21134W        W93394   4.721  12.312  11.026
21135W        W93395   8.237  34.972   1.890
21136W        W93396  41.840  42.388   4.224
21137W        W93397  12.205  11.245   2.831
21138W        W93398  34.509   1.272   2.348
21139W        W93399   6.397  29.069  14.284
21140W        W93400  38.381  33.449   2.351
21141W        W93401  33.970  30.524  14.987
21142W        W93402  39.834   4.256  12.930
21143W        W93403  15.689  33.943   1.357
21144W        W93404   2.791  39.932   4.147
21145W        W93405  30.488   1.844   1.384
21146W        W93406  26.180  18.050   4.818
21147W        W93407  36.558  38.901  11.573
21148W        W93408  25.513  34.918  11.554
21149W        W93409  21.757  26.676  10.455
21150W        W93410  35.931  26.991   1.334
21151W        W93411  36.429   6.832  11.503
21152W        W93412  28.112  44.849   3.182
21153W        W93413  31.466  20.217  13.003
21154W        W93414   8.310  28.584   3.637
21155W        W93415  29.001   5.239  14.429
21156W        W93416  15.746  31.932   3.369
21157W        W93417  26.993  11.334  11.388
21158W        W93418  38.340  25.980  12.550
21159W        W93419  39.412  17.620  11.114
21160W        W93420  15.097  26.078   3.843
21161W        W93421  32.468   5.692   1.391
21162W        W93422  31.589  39.877  14.418
21163W        W93423   1.441  12.228   4.298
21164W        W93424  44.817  41.343   1.360
21165W        W93425   1.764   0.862   3.741
21166W        W93426  42.427   5.402   4.331
21167W        W93427  27.625  28.575   4.793
21168W        W93428  38.443  16.132  13.456
21169W        W93429  30.566  16.650  11.882
21170W        W93430  37.970  32.605   3.281
21171W        W93431  17.211   2.942   0.434
21172W        W93432  34.065  25.155  12.989
21173W        W93433  22.095  23.122   0.890
21174W        W93434  44.846  32.412  10.937
21175W        W93435  30.019   3.342   3.302
21176W        W93436  40.814   4.889   3.640
21177W        W93437  21.195   7.784   3.709
21178W        W93438  43.451  11.818  10.035
21179W        W93439  27.952  17.176   3.293
21180W        W93440  17.572   0.483  12.845
21181W        W93441  25.094  38.853   3.817
21182W        W93442  43.457  28.946   1.271
21183W        W93443  21.136  39.814   3.257
21184W        W93444  22.583  25.030  11.431
21185W        W93445   0.754  20.096  13.828
21186W        W93446  37.853  19.245   4.189
21187W        W93447  24.155  22.516   4.735
21188W        W93448  27.151   8.188  12.494
21189W        W93449  30.439  39.843   0.851
21190W        W93450  19.049  37.382   9.957
21191W        W93451   0.470  15.743   2.787
21192W        W93452  34.904  27.955  11.004
21193W        W93453  30.053  22.697  11.872
21194W        W93454  33.529  19.168   1.447
21195W        W93455  24.712  11.337  14.338
21196W        W93456  41.407   0.871   4.197
21197W        W93457  16.275  36.992   3.788
21198W        W93458   7.686   1.433   3.656
21199W        W93459  31.981  12.331  13.041
21200W        W93460  15.619  43.968  10.901
21201W        W93461  22.565  28.183   3.800
21202W        W93462  17.792  34.937  13.933
21203W        W93463  40.882   0.961   2.316
21204W        W93464   4.706  39.042  10.002
21205W        W93465   6.359  32.467  12.474
21206W        W93466  23.082  37.032   0.470
21207W        W93467  18.171  19.073  11.944
21208W        W93468  28.512  39.558   0.796
21209W        W93469  44.824  30.466  14.485
21210W        W93470  37.975  22.185   0.337
21211W        W93471  12.701  29.143  13.846
21212W        W93472   8.361  33.879  12.059
21213W        W93473  30.028  30.626   0.333
21214W        W93474  44.783  12.813   0.353
21215W        W93475   3.749   1.741   4.211
21216W        W93476   2.740  43.897  12.959
21217W        W93477  14.235  27.085   3.357
21218W        W93478  32.632   2.961  11.067
21219W        W93479  18.188  29.035   0.303
21220W        W93480  33.505  13.811   3.147
21221W        W93481  28.047  37.498   0.258
21222W        W93482   3.249  24.560   0.415
21223W        W93483  28.000  39.404   1.880
21224W        W93484   4.309  33.391   3.748
21225W        W93485  19.216  22.051   2.843
21226W        W93486  18.178  41.314  11.517
21227W        W93487  18.265  36.945  12.080
21228W        W93488   3.289  25.072   2.349
21229W        W93489  23.034  44.444  13.401
21230W        W93490  14.111   3.938   2.371
21231W        W93491  30.149  22.104  14.762
21232W        W93492  35.885  22.560  14.018
21233W        W93493  37.503  36.969   1.302
21234W        W93494  41.857  27.661   3.263
21235W        W93495  41.498  37.863   3.317
21236W        W93496  13.229  30.485   3.315
21237W        W93497  34.397  23.024  12.351
21238W        W93498  21.022  17.686  13.848
21239W        W93499  44.756  34.496  10.934
21240W        W93500   3.917  12.248  11.577
21241W        W93501  30.049  23.566  14.286
21242W        W93502  18.737  44.813  14.471
21243W        W93503   3.285  19.225   2.875
21244W        W93504  28.032  20.275  12.511
21245W        W93505  36.556  44.885   3.687
21246W        W93506  25.546  16.714   4.743
21247W        W93507   9.172  41.988   0.340
21248W        W93508   1.270  28.479  10.638
21249W        W93509  35.929   4.408   3.233
21250W        W93510  15.087   6.372   3.650
21251W        W93511  30.915   7.726   2.399
21252W        W93512  17.671   9.857   2.243
21253W        W93513  39.004  14.185   1.340
21254W        W93514   3.352  15.200  10.518
21255W        W93515  27.590   9.356  12.580
21256W        W93516  16.728  34.060   2.765
21257W        W93517  15.779  22.585  14.768
21258W        W93518   6.240  23.566   4.756
21259W        W93519  29.106  27.684  12.951
21260W        W93520  14.158  32.130   2.273
21261W        W93521  40.403  37.396  12.944
21262W        W93522  40.830   0.891  13.900
21263W        W93523  18.730  31.898   1.348
21264W        W93524  37.468  13.274  11.550
21265W        W93525  18.700  14.204  14.973
21266W        W93526   0.802  16.116   4.340
21267W        W93527  20.650   5.929   2.340
21268W        W93528  40.314  14.266   3.705
21269W        W93529  23.687  40.912   5.237
21270W        W93530   0.787   9.223   0.354
21271W        W93531  36.069  34.979  14.305
21272W        W93532   4.938   0.420  12.474
21273W        W93533   8.382   7.829  11.456
21274W        W93534  38.894  28.073   4.678
21275W        W93535  24.518  44.477   0.897
21276W        W93536   2.324  13.175  11.495
21277W        W93537  42.377  20.691  14.336
21278W        W93538   1.438  23.993   3.309
21279W        W93539  16.073  16.623  14.022
21280W        W93540  22.223  28.472   1.412
21281W        W93541  14.175  22.067   4.336
21282W        W93542  13.191  14.210  10.896
21283W        W93543  43.912  35.939  12.052
21284W        W93544  21.665   0.311   4.810
21285W        W93545  19.613   6.787  10.485
21286W        W93546  17.641  39.980  11.109
21287W        W93547  28.671  18.545  11.568
21288W        W93548   8.673  26.025   4.155
21289W        W93549  37.470  17.110   1.430
21290W        W93550  21.212  30.448   2.354
21291W        W93551  17.284  40.548   0.761
21292W        W93552  33.489   0.386   2.872
21293W        W93553  26.134  14.303  11.879
21294W        W93554   2.763   9.388  11.553
21295W        W93555  10.809  28.150   4.270
21296W        W93556  15.192  44.926   4.146
21297W        W93557  22.680  27.054  12.540
21298W        W93558  32.959   9.704  14.803
21299W        W93559   8.669  42.983   9.958
21300W        W93560  18.105  16.157   0.323
21301W        W93561  24.103   4.337   3.181
21302W        W93562  27.120   4.751   0.388
21303W        W93563  24.061  41.443  13.969
21304W        W93564   3.298  34.387   0.930
21305W        W93565  18.095   9.737  10.948
21306W        W93566   1.421  11.299   4.270
21307W        W93567  36.528  34.901   4.807
21308W        W93568  43.016   3.922   4.614
21309W        W93569  22.660  38.002  11.068
21310W        W93570  22.215  30.591   0.383
21311W        W93571  25.001  42.321  14.359
21312W        W93572  35.060  15.159  10.494
21313W        W93573  40.528   6.407   4.825
21314W        W93574  43.495   6.863  13.544
21315W        W93575  35.410  33.997  13.011
21316W        W93576  34.014  26.062  12.407
21317W        W93577  10.249  24.109   4.219
21318W        W93578  27.169  12.816  13.883
21319W        W93579   1.744  32.554   3.674
21320W        W93580  18.242   8.172  11.081
21321W        W93581   3.747  26.066   0.729
21322W        W93582  12.618   1.956   4.168
21323W        W93583  25.659  22.070   2.700
21324W        W93584  43.993  20.109  12.873
21325W        W93585  18.787   1.855   2.795
21326W        W93586  29.633  29.633  11.393
21327W        W93587  13.230  37.531   0.290
21328W        W93588   4.362  18.546  14.339
21329W        W93589  15.243  36.845   0.958
21330W        W93590  15.642  14.730   5.100
21331W        W93591  15.109  26.085  14.847
21332W        W93592  31.453  34.497  11.975
21333W        W93593  25.107  16.711   4.693
21334W        W93594  19.642  18.617  10.984
21335W        W93595   7.400  39.854  12.899
21336W        W93596  25.535  40.380  11.509
21337W        W93597  19.636  20.576   2.890
21338W        W93598  24.012  30.151  13.912
21339W        W93599  40.974  24.548  13.889
21340W        W93600  40.017  33.438  10.604
21341W        W93601   8.853  29.062   4.136
21342W        W93602  38.943   3.256  13.929
21343W        W93603  21.683  12.619  10.429
21344W        W93604   5.430  34.596   1.716
21345W        W93605  20.658  20.243  14.457
21346W        W93606   6.257  22.721  13.433
21347W        W93607  37.865  42.423   4.212
21348W        W93608  18.546  42.315  10.478
21349W        W93609  10.214  28.178   2.381
21350W        W93610  19.749   3.762  13.457
21351W        W93611   2.778   4.243  12.914
21352W        W93612   2.405   3.323   4.337
21353W        W93613  13.195  35.860   0.467
21354W        W93614  19.130  37.948   2.735
21355W        W93615  42.324  38.496   0.771
21356W        W93616  37.398  32.952  10.516
21357W        W93617  11.142  21.737  13.056
21358W        W93618  21.579  33.479   2.720
21359W        W93619  17.586  34.497   4.643
21360W        W93620  15.255  10.850   1.777
21361W        W93621  15.296  43.871  14.327
21362W        W93622  21.740  41.519  13.346
21363W        W93623  22.579  36.536   1.730
21364W        W93624  14.282  13.278  10.451
21365W        W93625  29.918  29.476  13.859
21366W        W93626  23.134  10.834   0.763
21367W        W93627  41.485  10.185  11.532
21368W        W93628  29.486  42.421   3.784
21369W        W93629  19.537  20.042   3.346
21370W        W93630  18.248  11.623  11.871
21371W        W93631   9.831  11.134   0.319
21372W        W93632   7.318  17.755  12.380
21373W        W93633   0.785  40.498  12.404
21374W        W93634  14.798   6.278  10.466
21375W        W93635  43.865  38.460   2.681
21376W        W93636  32.532   8.880   0.271
21377W        W93637  22.688   8.775  12.483
21378W        W93638  23.172  24.704  11.471
21379W        W93639  20.691  27.099   5.270
21380W        W93640  23.549  44.435  10.917
21381W        W93641  19.537  39.537   1.797
21382W        W93642   8.290  17.092   2.263
21383W        W93643  14.294   1.313   1.734
21384W        W93644  32.008  44.862   3.232
21385W        W93645  33.989  10.649  12.006
21386W        W93646  27.620   7.360   0.926
21387W        W93647   4.708   5.769  11.603
21388W        W93648  39.458  35.424   3.372
21389W        W93649  29.025   6.721  11.557
21390W        W93650  28.620  21.624   1.799
21391W        W93651  19.054  17.669   0.416
21392W        W93652  28.077  33.944  14.813
21393W        W93653  35.079  38.969  12.392
21394W        W93654  12.823  24.607   3.306
21395W        W93655  17.135  21.106   5.185
21396W        W93656  24.643  44.294   4.737
21397W        W93657   3.273  31.127  14.852
21398W        W93658  23.114  25.522  12.942
21399W        W93659  25.048  13.289  10.613
21400W        W93660   8.803  10.214   2.374
21401W        W93661  10.356   2.364   3.674
21402W        W93662  43.414  41.910  10.404
21403W        W93663  14.204  25.625  13.465
21404W        W93664  37.395   1.739   1.332
21405W        W93665  25.498  13.207   3.150
21406W        W93666   2.821  13.684  13.406
21407W        W93667  12.248   7.313  13.830
21408W        W93668  25.158  20.078   2.386
21409W        W93669  36.015  42.473  12.569
21410W        W93670  13.323   0.265   1.708
21411W        W93671  15.715  39.953   2.355
21412W        W93672  30.498  38.063   3.320
21413W        W93673  18.715  39.840   3.148
21414W        W93674  37.381   8.740   2.196
21415W        W93675  38.345  18.240  13.825
21416W        W93676  26.159   3.429  14.762
21417W        W93677  42.876  42.489   1.240
21418W        W93678   6.282  13.234  11.445
21419W        W93679  11.184  35.438  11.518
21420W        W93680  15.202  35.982  12.421
21421W        W93681  42.468  40.988  11.013
21422W        W93682  30.456   6.351   4.205
21423W        W93683  13.198  28.180   3.301
21424W        W93684   3.866   6.810  14.812
21425W        W93685  16.806  22.060   0.332
21426W        W93686   5.714   2.860  13.890
21427W        W93687  28.606  19.574  14.516
21428W        W93688  40.405  34.926   1.773
21429W        W93689  32.633  25.599  11.524
21430W        W93690  25.515   1.889  13.372
21431W        W93691  32.440  39.393   3.819
21432W        W93692  16.697  30.442  14.790
21433W        W93693  15.785  17.591  13.425
21434W        W93694   1.406   0.850  13.927
21435W        W93695  28.165  17.633   0.247
21436W        W93696   9.806  12.328  11.047
21437W        W93697  21.141   5.320   4.122
21438W        W93698  11.742  11.289  13.843
21439W        W93699  27.566   5.750   3.262
21440W        W93700  36.504  11.746   2.188
21441W        W93701  12.803   4.873  14.502
21442W        W93702   5.813  15.656   0.859
21443W        W93703  26.636  43.792  14.819
21444W        W93704  42.879  21.575   0.259
21445W        W93705  37.372  26.020  11.004
21446W        W93706   1.400  31.005   1.373
21447W        W93707  22.650  15.621  10.514
21448W        W93708  36.511  42.817  12.371
21449W        W93709  22.636  26.491   2.819
21450W        W93710  29.620  29.595  11.098
21451W        W93711  14.161  31.442  12.447
21452W        W93712  16.683   3.429  14.812
21453W        W93713  38.541  21.237   2.688
21454W        W93714  10.819   7.813   1.246
21455W        W93715  14.694  28.666   4.343
21456W        W93716  33.968  10.276   2.776
21457W        W93717  21.174   5.372  10.624
21458W        W93718  29.555  22.101  13.921
21459W        W93719   0.930  19.631  13.433
21460W        W93720  15.776  42.353   2.763
21461W        W93721  10.174   7.892   0.811
21462W        W93722  22.548  15.115  11.392
21463W        W93723   0.771  37.582   2.798
21464W        W93724   6.695  14.154  13.801
21465W        W93725  28.935   4.914   3.238
21466W        W93726  17.073  38.848   4.689
21467W        W93727  40.821   1.404   4.330
21468W        W93728  25.493  10.853  11.418
21469W        W93729  34.544   5.425  11.005
21470W        W93730  20.073  25.664   4.615
21471W        W93731  10.820  40.441   4.751
21472W        W93732  40.481  44.934  10.533
21473W        W93733   2.433  26.499  10.419
21474W        W93734   0.378  10.639  14.024
21475W        W93735  31.110  32.476  14.297
21476W        W93736  13.153  31.548  11.478
21477W        W93737  36.564  13.287   4.226
21478W        W93738  10.757  22.598  12.061
21479W        W93739  40.536  31.517  11.492
21480W        W93740   8.745  28.038   5.312
21481W        W93741   9.780  11.225  11.395
21482W        W93742  24.203  22.504   3.303
21483W        W93743  23.218  32.099  13.953
21484W        W93744  31.594  12.807  14.402
21485W        W93745  22.724  34.564  14.306
21486W        W93746  16.801   0.908  10.405
21487W        W93747  10.759  37.463   0.879
21488W        W93748  38.444   4.722   3.230
21489W        W93749  23.623  34.381  11.414
21490W        W93750  32.566   3.252  13.380
21491W        W93751  41.364   6.914   3.282
21492W        W93752   1.924  44.775  14.019
21493W        W93753   6.265  30.560   1.427
21494W        W93754  27.099  23.704  13.347
21495W        W93755   0.776  27.492   1.422
21496W        W93756  16.231  35.991   3.781
21497W        W93757   1.798  13.295  13.357
21498W        W93758  28.604  30.126   4.185
21499W        W93759  20.723  18.153   2.813
21500W        W93760  16.698  10.230   4.642
21501W        W93761  27.550  13.235  11.561
21502W        W93762  25.512  16.191   4.279
21503W        W93763   6.240  29.524  10.465
21504W        W93764  26.076   2.456  11.004
21505W        W93765  44.813  37.400  13.867
21506W        W93766   3.845  13.301   4.619
21507W        W93767   6.799  44.935   2.712
21508W        W93768  39.361  37.929   3.181
21509W        W93769   7.732   1.882  14.849
21510W        W93770   4.394  11.262  10.527
21511W        W93771  33.435   9.645   4.325
21512W        W93772  11.679  36.082   1.318
21513W        W93773  30.951   2.809  12.089
21514W        W93774  38.532  33.086   4.275
21515W        W93775  16.239  31.584   1.255
21516W        W93776  41.962  15.235   2.773
21517W        W93777  34.882  21.611   2.232
21518W        W93778  21.582  41.876  12.533
21519W        W93779  24.632  15.188  11.573
21520W        W93780  24.019  37.044  14.892
21521W        W93781   7.240  31.615   3.865
21522W        W93782  30.160   0.315  13.500
21523W        W93783  37.952  35.492  11.431
21524W        W93784  20.689  44.916  11.976
21525W        W93785  17.116  17.237  14.015
21526W        W93786  13.706   5.779  10.622
21527W        W93787  38.431  15.207  12.853
21528W        W93788  33.428  16.709  13.894
21529W        W93789   7.388  23.584   2.765
21530W        W93790  12.189  39.529   4.822
21531W        W93791  33.939  37.470   0.751
21532W        W93792  24.030  33.437  10.460
21533W        W93793   1.926  34.483   3.162
21534W        W93794  41.426   7.690   2.687
21535W        W93795  20.570  42.354   4.131
21536W        W93796  23.216  14.224   2.322
21537W        W93797   3.746  17.791   0.423
21538W        W93798  35.558  42.003  10.934
21539W        W93799  36.878  20.144   1.793
21540W        W93800  43.837  32.553  12.539
21541W        W93801   6.369   3.766  10.609
21542W        W93802   4.237  37.045  14.829
21543W        W93803  24.013  18.735  14.301
21544W        W93804  10.668  30.623   0.298
21545W        W93805  20.269  24.620   2.244
21546W        W93806  10.667  44.494   1.367
21547W        W93807  35.956  32.616   4.279
21548W        W93808  41.007  19.584  10.493
21549W        W93809  32.016  22.113  10.501
21550W        W93810  16.718  10.356  11.950
21551W        W93811  22.631   4.366  10.082
21552W        W93812   5.899  37.342   0.411
21553W        W93813   1.770  25.025   1.840
21554W        W93814  36.980  11.762   3.358
21555W        W93815  33.056  13.189   4.693
21556W        W93816  26.056  41.789   9.643
21557W        W93817  39.451   4.397   2.775
21558W        W93818  26.655  40.801  14.355
21559W        W93819   2.815  23.212   3.644
21560W        W93820  31.575  14.596  14.029
21561W        W93821  14.187   4.726  11.088
21562W        W93822  34.601  14.718  13.365
21563W        W93823  41.448  27.957   1.774
21564W        W93824  34.976   1.756  12.960
21565W        W93825   7.693  26.208  13.391
21566W        W93826  10.726  43.890  11.979
21567W        W93827   6.769  16.275  13.458
21568W        W93828  22.709  13.697  12.408
21569W        W93829  30.161  39.390   0.376
21570W        W93830  25.502   0.772  14.998
21571W        W93831  23.660  39.325   2.670
21572W        W93832  27.454  33.621  13.462
21573W        W93833  12.351  26.550   4.787
21574W        W93834   8.848  21.098  11.568
21575W        W93835  44.802  15.317  10.523
21576W        W93836  16.301   3.292   1.886
21577W        W93837  43.865   5.334  14.331
21578W        W93838  21.541  20.761   3.851
21579W        W93839  10.753   6.405   4.176
21580W        W93840  29.464  39.342   1.408
21581W        W93841  25.044   5.834   3.291
21582W        W93842  30.911   8.180  10.580
21583W        W93843  33.490   5.327  12.057
21584W        W93844   5.737  41.832  12.849
21585W        W93845  23.516  37.894   2.747
21586W        W93846  15.816  14.617   2.864
21587W        W93847  21.144   8.897  14.908
21588W        W93848   8.820  38.470   3.361
21589W        W93849   0.475  41.039  12.511
21590W        W93850   9.756   0.437   1.730
21591W        W93851  31.977   7.716  12.434
21592W        W93852   9.275  13.816  10.573
21593W        W93853  29.509  34.084   4.321
21594W        W93854  23.532  26.473   0.905
21595W        W93855  44.897   7.802   0.732
21596W        W93856  33.911   9.339   1.800
21597W        W93857  34.541  25.131   2.395
21598W        W93858  29.140  15.328  12.362
21599W        W93859  17.170  22.205  13.023
21600W        W93860  14.109  14.777  12.558
21601W        W93861  40.319   8.708   1.425
21602W        W93862  32.038  10.289   1.924
21603W        W93863  32.123  36.977   0.872
21604W        W93864  30.035   8.201   2.668
21605W        W93865   3.880  34.953  10.549
21606W        W93866   3.924  43.806   2.203
21607W        W93867   6.338   1.256   3.231
21608W        W93868  43.335   2.429  11.569
21609W        W93869  24.145  25.069   9.974
21610W        W93870  34.112  33.886  13.483
21611W        W93871   1.303  15.144  10.899
21612W        W93872  42.889  40.883   4.145
21613W        W93873  16.258  25.991   1.332
21614W        W93874  30.526   1.973  13.859
21615W        W93875  16.679  18.630   3.365
21616W        W93876  19.724  10.690   1.294
21617W        W93877   5.235  31.036   1.405
21618W        W93878  18.730   5.817   5.722
21619W        W93879  36.923  21.756   0.951
21620W        W93880  41.013  17.100   3.221
21621W        W93881   1.866  31.133  14.912
21622W        W93882  15.118  18.295  11.011
21623W        W93883  38.009  22.504  13.370
21624W        W93884  33.991  36.387  13.407
21625W        W93885   8.880  40.411  10.542
21626W        W93886  16.731   3.456  13.993
21627W        W93887   5.327  17.677   1.357
21628W        W93888   9.356  39.468  13.544
21629W        W93889   1.897  35.402  14.293
21630W        W93890  44.857  29.145  14.987
21631W        W93891  31.012  24.661  10.496
21632W        W93892   2.774  11.773   3.295
21633W        W93893  12.144  39.828   4.696
21634W        W93894  41.376  16.703   4.292
21635W        W93895   3.438  23.057   4.656
21636W        W93896  18.112   4.908   2.186
21637W        W93897  30.557  19.246   3.819
21638W        W93898   3.934  19.597  12.019
21639W        W93899  16.279  38.067  14.836
21640W        W93900  15.257  16.260  13.514
21641W        W93901  13.127  26.572   4.327
21642W        W93902  22.042  15.765   0.464
21643W        W93903  18.686  28.970   5.126
21644W        W93904  20.558  39.939   2.193
21645W        W93905  33.477  18.148   2.323
21646W        W93906   2.843  39.043  14.779
21647W        W93907  25.036  38.933  11.472
21648W        W93908   2.348  27.533   0.783
21649W        W93909  24.025  23.523   1.802
21650W        W93910  17.606  34.047   1.751
21651W        W93911  24.161  42.481  13.394
21652W        W93912   4.310   6.711  11.062
21653W        W93913  33.472   7.716  12.533
21654W        W93914  37.343  28.124   3.154
21655W        W93915   8.789  11.762   1.715
21656W        W93916   0.390   0.284  13.821
21657W        W93917  20.540   4.764  14.816
21658W        W93918  40.889   6.848   1.451
21659W        W93919   0.904  13.789  10.554
21660W        W93920   6.381  16.622   3.707
21661W        W93921  11.222  26.594  13.848
21662W        W93922   9.817  32.581   4.158
21663W        W93923  37.345  39.361   0.754
21664W        W93924  12.772  24.693   1.351
21665W        W93925  28.498  42.823  11.089
21666W        W93926   8.890   2.250  11.397
21667W        W93927  35.402   8.895  14.014
21668W        W93928  43.009   4.766  14.834
21669W        W93929  28.556   6.326   2.268
21670W        W93930  35.409  43.878   3.381
21671W        W93931  17.187   2.913  14.813
21672W        W93932  21.702  28.471  11.089
21673W        W93933  15.222  27.072   2.186
21674W        W93934  20.245  40.001  14.001
21675W        W93935  40.995   0.935   1.764
21676W        W93936   6.730   8.193   0.835
21677W        W93937  37.476  11.232  13.056
21678W        W93938   3.290  15.738   2.764
21679W        W93939   5.345   2.380   0.920
21680W        W93940  17.170   6.303  10.429
21681W        W93941  41.981  12.125   1.715
21682W        W93942  18.109  10.322  11.477
21683W        W93943  10.254  32.991   3.730
21684W        W93944   1.793  44.288   4.257
21685W        W93945   2.458  13.728  14.361
21686W        W93946  29.953  17.195   3.717
21687W        W93947  36.897  41.497  12.869
21688W        W93948  26.043  41.500   3.738
21689W        W93949  15.234  36.420   3.331
21690W        W93950  30.452  36.388   1.436
21691W        W93951   6.359  16.306  11.071
21692W        W93952  43.339   3.396   3.315
21693W        W93953  14.242  21.128  11.084
21694W        W93954  22.048   2.811   4.204
21695W        W93955  19.778  22.071  14.031
21696W        W93956   6.260   0.339  11.035
21697W        W93957  30.463  17.736   0.902
21698W        W93958  16.223  41.383   0.452
21699W        W93959  37.942  37.921  11.433
21700W        W93960  10.773  43.010   0.934
21701W        W93961  10.164   3.710  13.479
21702W        W93962  28.497   8.686   3.364
21703W        W93963  40.446   9.653  11.396
21704W        W93964   8.740  13.176  12.508
21705W        W93965   4.808  37.353  11.483
21706W        W93966  37.929   7.255   9.947
21707W        W93967   2.834  10.784   0.734
21708W        W93968   9.311  28.610   2.816
21709W        W93969   8.260   1.278   1.404
21710W        W93970   4.846   8.327   4.161
21711W        W93971  17.738  13.749   0.784
21712W        W93972  31.045  30.621  13.364
21713W        W93973  22.149  29.918   1.749
21714W        W93974  31.480  34.495  11.041
21715W        W93975  44.862  44.480  13.335
21716W        W93976  27.492  24.577  13.378
21717W        W93977  14.174   1.401   2.863
21718W        W93978  39.997  18.669  11.413
21719W        W93979  10.764  32.907  10.560
21720W        W93980  11.807   1.297   3.666
21721W        W93981  19.567  16.756   0.274
21722W        W93982  11.801  41.517  12.963
21723W        W93983  42.306  39.027   4.705
21724W        W93984   3.841   0.956   2.286
21725W        W93985   2.459   1.752   1.771
21726W        W93986  28.072  27.584   4.353
21727W        W93987   8.348  14.666   3.804
21728W        W93988  23.216  26.609  14.006
21729W        W93989  10.282  33.939  12.458
21730W        W93990   5.819  22.201  14.816
21731W        W93991  31.435   8.211   1.914
21732W        W93992  23.592   4.712  10.972
21733W        W93993  32.485   0.872  12.531
21734W        W93994  23.625  23.661  10.631
21735W        W93995  14.783  39.512   1.721
21736W        W93996  32.975  18.154   0.768
21737W        W93997   9.235  32.543   0.841
21738W        W93998  11.748  18.200   2.897
21739W        W93999  30.030  26.478   0.940
21740W        W94000  30.461  24.132  14.986
21741W        W94001  21.580  38.383   1.726
21742W        W94002  38.992  18.570  14.505
21743W        W94003  15.131  43.848  14.010
21744W        W94004  42.353  17.598   3.379
21745W        W94005  17.258  40.430   4.653
21746W        W94006   2.363   3.765  12.578
21747W        W94007   5.291  34.411  11.544
21748W        W94008  12.663  12.148  11.912
21749W        W94009  44.343   9.258   2.390
21750W        W94010  43.438  37.053   4.644
21751W        W94011  39.963   4.910  13.793
21752W        W94012   2.253  11.663   3.746
21753W        W94013   7.851  33.980  11.954
21754W        W94014  34.030  18.651   5.738
21755W        W94015  13.346   3.215   4.238
21756W        W94016  35.039  14.710  13.353
21757W        W94017  12.141   8.271  10.482
21758W        W94018  42.458  42.469  11.572
21759W        W94019  13.202  37.371  14.907
21760W        W94020   1.252  18.144  13.028
21761W        W94021  14.119  37.459   3.174
21762W        W94022  40.497  16.096   4.825
21763W        W94023  10.254   4.343   2.245
21764W        W94024  20.694  13.219  11.375
21765W        W94025  35.947  41.394   0.798
21766W        W94026  21.743  12.204  13.025
21767W        W94027  14.095  11.698  12.955
21768W        W94028  21.538   3.814   4.190
21769W        W94029  36.980  27.118   4.180
21770W        W94030  30.658  37.566  12.941
21771W        W94031  15.719   9.379   3.730
21772W        W94032  27.179  12.323  11.982
21773W        W94033  14.255  27.070  11.915
21774W        W94034   5.763  23.595  11.595
21775W        W94035  38.367  15.317   0.731
21776W        W94036  21.202  41.857  10.450
21777W        W94037   0.409   7.273   1.790
21778W        W94038  44.001  22.167  13.372
21779W        W94039  18.544   5.834   0.867
21780W        W94040  38.443  16.756   1.761
21781W        W94041  14.779  29.461  12.364
21782W        W94042   7.195  20.055   0.866
21783W        W94043  10.652  33.066  12.007
21784W        W94044  35.072  28.581  10.947
21785W        W94045  43.884   8.243   0.430
21786W        W94046   5.773  14.685  14.855
21787W        W94047  34.084  42.347  13.393
21788W        W94048  14.687  36.984   4.695
21789W        W94049   1.817  27.983  11.123
21790W        W94050  16.607  21.689  13.937
21791W        W94051  39.979  33.401  11.939
21792W        W94052  34.978   8.854   3.159
21793W        W94053  12.248   7.189   4.113
21794W        W94054  33.608  41.868   3.152
21795W        W94055  13.685   5.748   1.391
21796W        W94056  15.328  28.669   3.209
21797W        W94057   5.781  18.135   4.269
21798W        W94058   2.768   0.751  10.449
21799W        W94059  38.921   4.407  14.930
21800W        W94060  21.208   0.778   0.776
21801W        W94061  35.932  20.541   0.330
21802W        W94062  34.430  16.651   0.858
21803W        W94063  20.646  38.418   4.804
21804W        W94064   8.693  11.808  11.468
21805W        W94065   1.279  25.012   0.462
21806W        W94066  37.544  14.302  10.954
21807W        W94067  32.964  26.072   1.864
21808W        W94068  22.142  18.254   5.091
21809W        W94069   4.282   5.806  12.083
21810W        W94070  38.053  14.764  14.975
21811W        W94071  39.475  36.453  13.408
21812W        W94072  44.986  43.998   0.877
21813W        W94073  14.179  16.614  10.619
21814W        W94074  21.030   1.399   2.380
21815W        W94075  37.952   5.790   2.319
21816W        W94076  21.745   4.909   4.344
21817W        W94077  42.924  35.028  13.907
21818W        W94078  17.241  21.637   2.313
21819W        W94079   0.937  34.089  13.849
21820W        W94080   8.898  23.518   1.334
21821W        W94081  38.488  22.700   1.909
21822W        W94082  26.971  22.544   1.922
21823W        W94083  11.655  18.722  13.331
21824W        W94084  20.522  39.017  10.903
21825W        W94085  31.010  40.865  14.837
21826W        W94086  21.585  28.018  13.886
21827W        W94087  35.560  39.552  11.481
21828W        W94088  36.978  43.390   1.309
21829W        W94089  19.044  44.998  14.456
21830W        W94090  40.995  36.055  10.639
21831W        W94091  37.399  38.857  12.005
21832W        W94092  33.579  17.160  13.407
21833W        W94093   2.775  43.002   3.646
21834W        W94094   5.928  17.132  14.835
21835W        W94095   9.365   5.429   1.336
21836W        W94096  21.186  30.501   1.408
21837W        W94097  12.700  14.809   0.896
21838W        W94098  18.110  24.997  11.993
21839W        W94099  40.444  36.579   2.733
21840W        W94100  30.452  32.074   5.192
21841W        W94101  42.527  18.686   4.314
21842W        W94102  37.856  28.608   2.737
21843W        W94103  37.403  20.218   0.743
21844W        W94104   0.332   3.391  10.962
21845W        W94105  26.154  40.886  11.053
21846W        W94106  23.670  21.574   0.372
21847W        W94107   2.773  13.755  14.988
21848W        W94108  44.956  12.261   1.398
21849W        W94109  18.782  11.625   4.202
21850W        W94110  22.644  19.732  14.769
21851W        W94111   4.755  29.035  13.054
21852W        W94112  23.513   9.767   1.338
21853W        W94113   0.486  42.379  13.938
21854W        W94114  41.407  29.503  10.444
21855W        W94115  19.640   2.285   1.843
21856W        W94116  38.449  23.207   4.794
21857W        W94117  11.682   9.867  12.996
21858W        W94118   2.854  12.230   2.345
21859W        W94119  17.266   5.806  13.442
21860W        W94120  23.079  19.751  12.419
21861W        W94121  23.521  28.452   3.675
21862W        W94122  42.459  18.258  10.933
21863W        W94123  20.525   6.344  13.397
21864W        W94124  17.759  35.385   4.241
21865W        W94125  40.866  36.391  12.418
21866W        W94126  35.599  19.685   1.873
21867W        W94127  41.492   1.820  11.919
21868W        W94128  35.971  29.499  11.581
21869W        W94129   2.247   3.835  11.026
21870W        W94130  14.594  12.811  14.975
21871W        W94131  18.198  16.206   1.869
21872W        W94132  39.438  39.376   0.348
21873W        W94133  33.608  26.538   0.254
21874W        W94134   6.315  35.887  14.823
21875W        W94135  34.612  20.649  13.380
21876W        W94136  22.647  11.155   2.328
21877W        W94137  32.515  24.183  11.886
21878W        W94138  29.656  44.450   2.823
21879W        W94139  12.122  23.099  14.868
21880W        W94140  35.964  31.594   3.847
21881W        W94141  30.912  29.521  11.928
21882W        W94142  22.150  42.515   0.409
21883W        W94143  25.492  18.713  13.883
21884W        W94144   7.705  26.550  11.107
21885W        W94145  12.306   2.848   4.135
21886W        W94146  34.893  34.952  13.920
21887W        W94147  10.739  36.031   0.311
21888W        W94148   5.282   4.768  11.540
21889W        W94149  38.876   0.945   5.236
21890W        W94150   3.931  38.472   3.734
21891W        W94151  10.257  31.431   4.172
21892W        W94152  28.602   5.703   2.179
21893W        W94153   0.409  24.172  13.876
21894W        W94154  26.660  18.713   3.241
21895W        W94155  37.981  24.070   0.245
21896W        W94156  32.010  28.540   4.704
21897W        W94157  38.891  37.355   1.738
21898W        W94158  35.944  13.667  12.057
21899W        W94159  15.130   9.304  13.048
21900W        W94160   2.314  25.022   4.679
21901W        W94161   0.869  26.463  10.510
21902W        W94162  32.124   1.470  10.966
21903W        W94163  19.745   2.254  12.971
21904W        W94164  12.221  25.040  14.451
21905W        W94165  14.637  23.609  13.505
21906W        W94166  14.108  28.544   2.260
21907W        W94167   4.339  16.220  13.915
21908W        W94168  10.845   5.833  12.877
21909W        W94169  10.787  30.914   1.811
21910W        W94170   3.348  16.295   3.356
21911W        W94171  38.839  16.667   4.816
21912W        W94172   0.354   3.807  11.038
21913W        W94173  27.136  40.915  13.816
21914W        W94174  40.339  26.468   9.921
21915W        W94175  14.125   7.288  13.792
21916W        W94176  17.159  22.610   4.236
21917W        W94177  38.386   9.678  12.923
21918W        W94178  42.793  43.374   4.795
21919W        W94179   2.734  13.636   2.826
21920W        W94180   5.214   5.251  11.928
21921W        W94181  42.359   3.949  11.963
21922W        W94182  18.584  16.075   0.738
21923W        W94183  38.837   4.937   3.266
21924W        W94184  43.424  44.264   2.195
21925W        W94185  33.425   5.412  14.847
21926W        W94186  38.022  24.051   4.135
21927W        W94187  20.735   5.416   0.779
21928W        W94188  39.355  36.050  10.485
21929W        W94189  32.426   3.396  11.005
21930W        W94190  44.920  18.684   2.802
21931W        W94191  43.454  12.634   1.886
21932W        W94192  39.945   5.213  12.032
21933W        W94193  29.944  18.583  11.415
21934W        W94194  20.759   3.739   4.346
21935W        W94195  28.097  24.976  14.800
21936W        W94196  38.047   2.386   0.900
21937W        W94197  42.428  38.379  10.898
21938W        W94198  25.996   4.828   1.338
21939W        W94199  28.482   3.894   2.825
21940W        W94200  27.044  15.133  11.889
21941W        W94201   0.906   6.280  10.117
21942W        W94202  39.326  11.242   1.331
21943W        W94203  30.538  10.689  12.838
21944W        W94204  25.098  44.469   0.417
21945W        W94205  37.837  34.025  12.560
21946W        W94206  20.165  43.823  10.553
21947W        W94207   8.738  11.837  12.944
21948W        W94208  10.377  33.500  14.285
21949W        W94209  36.524  41.833   0.858
21950W        W94210  21.050  24.696  11.608
21951W        W94211  20.267  26.134  13.332
21952W        W94212  17.745  15.743  11.080
21953W        W94213  23.004  42.893  12.877
21954W        W94214  27.006  42.385  13.373
21955W        W94215  18.714   1.285   3.662
21956W        W94216  41.974  38.854   2.787
21957W        W94217  35.081  21.159  14.793
21958W        W94218  26.171   9.393   4.206
21959W        W94219  34.046  36.889   4.197
21960W        W94220  29.615  43.831   1.882
21961W        W94221  40.309  19.248   4.220
21962W        W94222  31.940   5.368   1.278
21963W        W94223   4.746  14.780   2.415
21964W        W94224   3.803  14.832   0.865
21965W        W94225  27.970  13.819  13.476
21966W        W94226  44.416   2.768   1.895
21967W        W94227  30.567  16.126  12.926
21968W        W94228   8.866  43.496  10.570
21969W        W94229  10.636   7.373   2.902
21970W        W94230   0.848   3.788   2.246
21971W        W94231  27.551  43.982  10.541
21972W        W94232  39.019  21.195  14.954
21973W        W94233  22.739   4.304   0.789
21974W        W94234  17.144  15.683   2.707
21975W        W94235   4.410  16.796   0.440
21976W        W94236  35.588  34.109  13.502
21977W        W94237  43.853  19.560  13.430
21978W        W94238   4.353  15.804   3.275
21979W        W94239  39.417  26.533   3.870
21980W        W94240  33.605  29.143   1.240
21981W        W94241  14.316   6.762   1.751
21982W        W94242  42.860  14.165   1.840
21983W        W94243  19.680  35.497  13.013
21984W        W94244   7.789  27.005  14.395
21985W        W94245  16.306  27.551   2.299
21986W        W94246  43.885  43.994   3.820
21987W        W94247  12.721  41.890   3.331
21988W        W94248  27.636  12.814  14.976
21989W        W94249  32.947  41.892   2.219
21990W        W94250  29.542  30.055   5.115
21991W        W94251  29.643   2.815   1.723
21992W        W94252  24.145  41.024  10.533
21993W        W94253   7.912   1.374   2.683
21994W        W94254  39.438  38.561  13.809
21995W        W94255  41.293  28.023  12.388
21996W        W94256  25.170  29.135   0.920
21997W        W94257  35.526  37.546   2.348
21998W        W94258  17.766   0.902   4.770
21999W        W94259  15.794  40.946  14.004
22000W        W94260  32.589  40.444  10.909
22001W        W94261   3.374  13.644   4.258
22002W        W94262   4.858  42.497   4.233
22003W        W94263  32.037  16.217   3.370
22004W        W94264   8.363  42.784   2.720
22005W        W94265  34.411  29.001  14.870
22006W        W94266  10.731  13.736  14.808
22007W        W94267  42.926   9.393   1.857
22008W        W94268   8.197   0.912   1.824
22009W        W94269  28.595  31.414   2.339
22010W        W94270  37.892  10.240   9.480
22011W        W94271  37.483   0.302   0.906
22012W        W94272  40.036  17.751  12.058
22013W        W94273  19.735  42.791   3.333
22014W        W94274  19.558  16.281   4.214
22015W        W94275  24.604  41.854  12.072
22016W        W94276   3.278   8.759   2.211
22017W        W94277  25.186  42.919  14.984
22018W        W94278  25.530  41.389   9.963
22019W        W94279   6.697  42.965  11.382
22020W        W94280  18.657  41.330   1.921
22021W        W94281   6.270  28.497  10.532
22022W        W94282   5.298   8.710  13.050
22023W        W94283  29.040  27.043   3.778
22024W        W94284  16.216   3.835   2.352
22025W        W94285   5.411  44.368   2.876
22026W        W94286  18.722  22.118  12.349
22027W        W94287  36.581  23.715   1.741
22028W        W94288  23.014  41.816  13.029
22029W        W94289  14.267  35.937  11.091
22030W        W94290  40.396  19.135   3.203
22031W        W94291  37.869  37.071   1.773
22032W        W94292  30.012  10.180   1.908
22033W        W94293   7.802  26.466  10.023
22034W        W94294   8.310  34.015  12.475
22035W        W94295   7.777  33.056  10.571
22036W        W94296  26.953  18.758  14.931
22037W        W94297  16.607  39.471   4.775
22038W        W94298   2.835   7.291   1.300
22039W        W94299  27.475  28.570  10.583
22040W        W94300  27.618  31.473  14.368
22041W        W94301  25.063  14.241   3.856
22042W        W94302  13.152  37.370   5.270
22043W        W94303   3.454  38.519   4.278
22044W        W94304  36.587  23.651   0.398
22045W        W94305  23.527   7.203  12.355
22046W        W94306  22.248  26.020  12.876
22047W        W94307  34.052   6.880   3.674
22048W        W94308   5.712  41.442  11.888
22049W        W94309  16.121  14.113  11.895
22050W        W94310  26.496  41.904  11.523
22051W        W94311  26.515  21.147   0.940
22052W        W94312  24.521  17.109   2.806
22053W        W94313   1.451  24.032   4.317
22054W        W94314  33.950  11.729   0.467
22055W        W94315   3.233  35.545   2.898
22056W        W94316  20.618  38.474   3.352
22057W        W94317  44.786  10.797  11.896
22058W        W94318  41.008  38.941   1.901
22059W        W94319  41.477   9.311   3.263
22060W        W94320  14.153  25.004   4.807
22061W        W94321  41.932   7.900   4.721
22062W        W94322   1.400  11.323  14.409
22063W        W94323  20.608   8.812   4.330
22064W        W94324  31.596  30.971   0.765
22065W        W94325  13.783  16.166  11.036
22066W        W94326  13.681  35.546  13.957
22067W        W94327  19.601  11.848  11.921
22068W        W94328   7.811  32.024   4.332
22069W        W94329  31.919  10.654  10.592
22070W        W94330   1.353  43.490   1.430
22071W        W94331   9.371  33.619   2.249
22072W        W94332  30.986  38.823  12.550
22073W        W94333  11.303  37.508  13.056
22074W        W94334  22.132  28.975  14.414
22075W        W94335  30.969   0.812   4.190
22076W        W94336  37.373  28.172  12.496
22077W        W94337   8.395  17.152  11.556
22078W        W94338  19.147  40.997   3.742
22079W        W94339  44.810  33.471   1.894
22080W        W94340   1.439   7.898  14.844
22081W        W94341  41.498  36.963  11.499
22082W        W94342  35.402  14.254  11.531
22083W        W94343  34.606  36.098   0.839
22084W        W94344  25.063   0.355   1.793
22085W        W94345   2.236   6.889  14.896
22086W        W94346   5.923   5.806   1.350
22087W        W94347  16.677  25.080   4.799
22088W        W94348   0.849  28.146  12.502
22089W        W94349  33.555  25.468   2.796
22090W        W94350  42.801  28.568   2.296
22091W        W94351   5.376  13.624   0.925
22092W        W94352  25.621  36.405   2.306
22093W        W94353   1.737  12.671   4.665
22094W        W94354   5.205   8.171   1.406
22095W        W94355  28.067  36.583   1.766
22096W        W94356  42.404  23.051   1.310
22097W        W94357  17.197  31.952   4.333
22098W        W94358  21.703  32.452   4.649
22099W        W94359   1.760  22.096   2.213
22100W        W94360  10.296  31.007   1.378
22101W        W94361  25.599  36.551   2.866
22102W        W94362  28.159  33.106  13.351
22103W        W94363   3.443   9.223  10.429
22104W        W94364  44.787  27.025   2.301
22105W        W94365  21.258  12.678  11.863
22106W        W94366  19.045  25.631   2.255
22107W        W94367  20.230   2.799  11.968
22108W        W94368  41.396  25.606   1.719
22109W        W94369  25.103   8.389   1.432
22110W        W94370  13.775   2.352   2.766
22111W        W94371  32.500  30.033  11.886
22112W        W94372  42.993   0.449  11.002
22113W        W94373  43.978  25.965  11.487
22114W        W94374  14.659  21.631   1.927
22115W        W94375   8.788  22.688  10.449
22116W        W94376  15.739  38.855  11.435
22117W        W94377  13.788  38.905  11.568
22118W        W94378   1.908   4.344   1.818
22119W        W94379  24.506  17.077  14.895
22120W        W94380   8.222  34.993  14.862
22121W        W94381  27.527  29.040  13.452
22122W        W94382  43.838   3.291  13.508
22123W        W94383  43.904  39.526   4.228
22124W        W94384   6.245  16.207   4.149
22125W        W94385   6.902  36.421  12.368
22126W        W94386  21.550  21.647   1.855
22127W        W94387   4.227   0.906  13.527
22128W        W94388  37.948  17.233   0.343
22129W        W94389   0.960  21.718   2.323
22130W        W94390  43.493  15.210   1.745
22131W        W94391  43.893  40.009   2.787
22132W        W94392  24.082   7.417  12.362
22133W        W94393  19.726   0.794  12.365
22134W        W94394   5.361  14.184  13.050
22135W        W94395  22.240  36.052  11.378
22136W        W94396  39.510  42.386   4.200
22137W        W94397  37.050   4.735  11.983
22138W        W94398  16.716  28.605  10.903
22139W        W94399   6.196  23.601   2.212
22140W        W94400  17.767  20.241  12.511
22141W        W94401  22.202  16.270  10.610
22142W        W94402  29.568  17.170   1.264
22143W        W94403  15.084  38.879  13.824
22144W        W94404   2.234  14.164   4.607
22145W        W94405  15.720  10.348  14.948
22146W        W94406   7.188  39.062   3.639
22147W        W94407  36.914  24.218   0.391
22148W        W94408  24.596  15.646  11.997
22149W        W94409  27.148  17.670  12.461
22150W        W94410  37.445  12.165   4.341
22151W        W94411  19.691  19.278   3.818
22152W        W94412   6.713  14.128  11.414
22153W        W94413  34.544  18.715   0.960
22154W        W94414  34.529   3.311  14.766
22155W        W94415   0.885   3.328  10.600
22156W        W94416  24.677   5.264  11.486
22157W        W94417  32.487  44.293  12.923
22158W        W94418   7.237  38.462  13.941
22159W        W94419   7.900  18.173  10.984
22160W        W94420   1.415  16.290  14.368
22161W        W94421  12.830  43.410  13.387
22162W        W94422  42.433  24.030   1.805
22163W        W94423  18.729   0.490   3.825
22164W        W94424  28.998  39.810  13.851
22165W        W94425   9.211  26.646   0.946
22166W        W94426  22.133  25.008   4.793
22167W        W94427   3.800  37.081   0.342
22168W        W94428  42.470  19.773  14.502
22169W        W94429  28.562  16.575  11.559
22170W        W94430  18.723  31.117   1.276
22171W        W94431   3.770  31.621  13.986
22172W        W94432  28.057   3.453  12.873
22173W        W94433   7.695   2.830  12.059
22174W        W94434  38.834  26.603   2.385
22175W        W94435  21.141  36.480   4.341
22176W        W94436  17.683  27.493  12.488
22177W        W94437  24.024  33.390  14.306
22178W        W94438  21.259  16.655  13.030
22179W        W94439  28.008  31.438  12.851
22180W        W94440   4.774  21.720   1.854
22181W        W94441   7.301  36.966   4.753
22182W        W94442  22.509   9.719  13.932
22183W        W94443  29.088  39.975   3.301
22184W        W94444  23.198  23.620   2.876
22185W        W94445   9.738  36.384  13.426
22186W        W94446  18.672  21.661  10.472
22187W        W94447   3.357  25.619   1.392
22188W        W94448  12.244  24.574  10.577
22189W        W94449  13.634  22.742   3.246
22190W        W94450  30.014  11.808  11.094
22191W        W94451  27.525  37.449  10.532
22192W        W94452   2.825  25.022   4.349
22193W        W94453  28.522  33.897   0.343
22194W        W94454  40.322  44.779   1.404
22195W        W94455  34.000   6.242   0.839
22196W        W94456  22.125  23.072   2.259
22197W        W94457  33.495   6.797  12.357
22198W        W94458  22.513  26.688  11.072
22199W        W94459  44.834  29.559  14.853
22200W        W94460  30.588  37.881  11.459
22201W        W94461  24.606  35.533  13.877
22202W        W94462  19.648  20.126   0.856
22203W        W94463  35.481   5.702  14.868
22204W        W94464  21.018  18.731   0.737
22205W        W94465  43.385  17.151  14.277
22206W        W94466  43.784  30.955   4.140
22207W        W94467  16.717  33.106  12.885
22208W        W94468   6.864  17.654   4.654
22209W        W94469   3.216  23.161  13.832
22210W        W94470  25.220  16.149   2.185
22211W        W94471   2.435  31.007   0.845
22212W        W94472   2.819   0.271  11.379
22213W        W94473  27.592   9.296  14.512
22214W        W94474  41.039  25.579   0.277
22215W        W94475  12.722   1.461   4.732
22216W        W94476  13.754  36.985   4.824
22217W        W94477  28.002   5.332   0.298
22218W        W94478  18.720   1.753  14.451
22219W        W94479   7.309  34.883   2.318
22220W        W94480  10.228   4.801  14.287
22221W        W94481  34.085  27.635   3.629
22222W        W94482  10.836  28.545   4.212
22223W        W94483  40.884  35.016  11.454
22224W        W94484  18.198  24.997  13.324
22225W        W94485  22.027  22.673   0.879
22226W        W94486  27.996  30.093  10.934
22227W        W94487   9.335   3.241   3.729
22228W        W94488   2.757   4.356  14.430
22229W        W94489  19.612  38.516   1.864
22230W        W94490  25.087  24.497  13.486
22231W        W94491  39.389  44.841  11.081
22232W        W94492  12.135  37.009   0.813
22233W        W94493  18.624   7.821  13.527
22234W        W94494   2.372  29.541   0.350
22235W        W94495  15.283  34.989  13.915
22236W        W94496  44.270  21.586   0.794
22237W        W94497  12.261   8.745  10.409
22238W        W94498  43.806  38.492   0.867
22239W        W94499  23.634  11.631   3.278
22240W        W94500  14.655  15.630   1.316
22241W        W94501  21.536  32.588   0.282
22242W        W94502  38.331  20.167   2.408
22243W        W94503   5.751   2.778  11.462
22244W        W94504  14.306  25.588   2.191
22245W        W94505   5.733  11.643   2.846
22246W        W94506   0.940   3.356   0.281
22247W        W94507   6.301  36.419  13.013
22248W        W94508  21.545   8.203   4.681
22249W        W94509  42.894  11.706   5.083
22250W        W94510   2.899  13.259   2.801
22251W        W94511   4.826   6.721   4.161
22252W        W94512  38.007  26.206  10.995
22253W        W94513   4.925   6.309   4.697
22254W        W94514  19.657   2.441   0.962
22255W        W94515  24.996  10.200  10.618
22256W        W94516  43.777  25.483  13.916
22257W        W94517   8.297  44.762   4.117
22258W        W94518  44.972  17.293   4.655
22259W        W94519   5.212  32.413  12.382
22260W        W94520  18.740  14.296   4.202
22261W        W94521   1.418   7.388  13.018
22262W        W94522   5.261  34.407   4.130
22263W        W94523  32.603  28.467  11.376
22264W        W94524  38.375  14.675  12.854
22265W        W94525  31.548   4.797   4.621
22266W        W94526   3.254  14.822  11.084
22267W        W94527  38.903  40.939  14.450
22268W        W94528   8.711   3.425  14.902
22269W        W94529  33.491  20.526   1.773
22270W        W94530   4.850   7.798  11.507
22271W        W94531  38.980  28.617   2.890
22272W        W94532  36.095  15.587   0.346
22273W        W94533  42.434  31.616  12.555
22274W        W94534  11.156  10.369  12.887
22275W        W94535  41.981   9.174  12.075
22276W        W94536  19.720  14.823   2.679
22277W        W94537   5.437  32.127   3.344
22278W        W94538   3.766   6.904  13.402
22279W        W94539   6.204  31.557   0.256
22280W        W94540   0.405  34.967   0.482
22281W        W94541  10.799  40.817  11.090
22282W        W94542  13.604   7.402   2.768
22283W        W94543   3.938  16.210  14.938
22284W        W94544  12.648  31.487  12.005
22285W        W94545  26.124  40.379   4.250
22286W        W94546  21.691  20.638  12.090
22287W        W94547   0.936  34.442  12.521
22288W        W94548   2.266  24.136  14.506
22289W        W94549  40.495  42.426  14.338
22290W        W94550   9.845  19.624  14.282
22291W        W94551   5.849  41.877   2.319
22292W        W94552  34.416  13.204  12.965
22293W        W94553  41.878  20.087  11.611
22294W        W94554  38.827  25.180   1.917
22295W        W94555  25.999   4.820   0.819
22296W        W94556   1.842   1.301   4.345
22297W        W94557  27.018  42.884  13.424
22298W        W94558  43.512  24.719  12.927
22299W        W94559  12.688  14.606   1.913
22300W        W94560  40.414  42.464   0.834
22301W        W94561   7.889   8.663  13.421
22302W        W94562  29.634   7.756  10.438
22303W        W94563  12.712  10.787   1.351
22304W        W94564   0.849  11.166  13.349
22305W        W94565  26.047   3.821  13.792
22306W        W94566   5.706  32.078   3.274
22307W        W94567  42.926  25.677   1.276
22308W        W94568  26.628  11.355  13.031
22309W        W94569  11.843   7.687   1.228
22310W        W94570  32.520  26.581   1.421
22311W        W94571  13.626  31.439  13.918
22312W        W94572  11.824   9.267   1.828
22313W        W94573  28.494  33.413   0.898
22314W        W94574  14.252  29.527   5.112
22315W        W94575  22.665  43.488   2.852
22316W        W94576  20.584   1.243  13.522
22317W        W94577   3.375   3.904  14.489
22318W        W94578  20.693  41.940  13.974
22319W        W94579  23.007   4.309   4.760
22320W        W94580   9.393  32.545  13.455
22321W        W94581  31.002  26.109   1.913
22322W        W94582  27.145  27.016   2.325
22323W        W94583  19.078  11.313  13.871
22324W        W94584  41.906  11.685   0.386
22325W        W94585  26.981  23.204  10.454
22326W        W94586  26.614  12.838  14.286
22327W        W94587  19.642  29.522   2.342
22328W        W94588  36.995  26.008   2.822
22329W        W94589  26.145   9.157   4.613
22330W        W94590  16.767  38.031   4.740
22331W        W94591  20.105  17.303   2.382
22332W        W94592   9.297   5.386  12.360
22333W        W94593   8.215   2.741  12.348
22334W        W94594  41.311  13.643  12.032
22335W        W94595   9.884  42.308   1.313
22336W        W94596  41.320  28.494   0.358
22337W        W94597  31.562  12.356   0.834
22338W        W94598  39.344  27.049   3.650
22339W        W94599  20.129  23.666   1.323
22340W        W94600   4.355   9.655   1.257
22341W        W94601  34.409  29.929   1.349
22342W        W94602  18.783  38.394   4.612
22343W        W94603  20.055  33.880  14.877
22344W        W94604  44.803  25.144  14.302
22345W        W94605  15.723   0.851  10.567
22346W        W94606  44.350  18.201   0.736
22347W        W94607  44.848  39.823   4.728
22348W        W94608  44.900  23.192   2.194
22349W        W94609  31.965  16.254   0.890
22350W        W94610   2.371  30.937  14.858
22351W        W94611  23.002   7.298  14.870
22352W        W94612  13.245  38.531  13.457
22353W        W94613   7.347   0.767  11.610
22354W        W94614  12.801   4.753  12.527
22355W        W94615  32.442   3.840   4.128
22356W        W94616  42.822  39.000  14.945
22357W        W94617   5.830   3.363   2.216
22358W        W94618  29.444  10.632   2.752
22359W        W94619   3.815  10.194  12.394
22360W        W94620  21.094  27.507  10.904
22361W        W94621  30.033  44.281  10.595
22362W        W94622  42.022  16.304  11.574
22363W        W94623  27.671  21.036  12.386
22364W        W94624  23.619  21.072   4.601
22365W        W94625  13.618  17.629  12.516
22366W        W94626   3.237  14.131  13.504
22367W        W94627  12.229  16.811   0.833
22368W        W94628  14.117  40.316  11.102
22369W        W94629  10.758  19.054   4.295
22370W        W94630  27.517  34.879  13.380
22371W        W94631  16.791  37.841   2.836
22372W        W94632  29.575  15.787  12.406
22373W        W94633  18.563   9.840   1.378
22374W        W94634  35.405  24.598  11.520
22375W        W94635  44.270  21.522  12.925
22376W        W94636  36.974  18.177  13.332
22377W        W94637  39.040   4.817   9.974
22378W        W94638  13.179  30.096  14.396
22379W        W94639  33.607  29.490  11.565
22380W        W94640  34.954  37.072  13.535
22381W        W94641  21.062  40.047  12.524
22382W        W94642  13.638  17.183   2.190
22383W        W94643   3.876  13.839   3.266
22384W        W94644  16.073  31.986   0.805
22385W        W94645   9.803  19.169   0.791
22386W        W94646   6.689  23.124  14.804
22387W        W94647  14.792  42.378   2.308
22388W        W94648  21.084  15.802  13.895
22389W        W94649  36.988  28.448  13.933
22390W        W94650   9.169  29.065  10.970
22391W        W94651  18.691  23.492   4.264
22392W        W94652  20.094   1.369   1.897
22393W        W94653  33.089   5.214   1.421
22394W        W94654  17.558  42.301  14.814
22395W        W94655  17.231  11.371  13.815
22396W        W94656  17.280  15.808  11.943
22397W        W94657  12.346  30.426   3.691
22398W        W94658  34.013  18.749  10.913
22399W        W94659  30.972  18.111   1.431
22400W        W94660  31.114  13.692   4.168
22401W        W94661  32.094  30.462  14.786
22402W        W94662   8.389  39.336   4.601
22403W        W94663  32.550  28.545   3.384
22404W        W94664  15.229  26.633  13.368
22405W        W94665  38.554   4.816  11.044
22406W        W94666  30.967  35.522   0.790
22407W        W94667  44.798  16.646   4.763
22408W        W94668  26.597  34.981   0.348
22409W        W94669  10.706  23.560  12.036
22410W        W94670   1.903  20.038   5.237
22411W        W94671  36.951  27.578  11.555
22412W        W94672  24.053  22.653  10.141
22413W        W94673  25.652  23.114   2.902
22414W        W94674   8.314  26.133   2.886
22415W        W94675  35.580   5.409   2.892
22416W        W94676  20.256   5.299   0.938
22417W        W94677  14.340   3.935  12.868
22418W        W94678   8.282  11.344   1.721
22419W        W94679  43.302  28.156   4.184
22420W        W94680  17.230  44.952   1.373
22421W        W94681  23.205   3.306  10.594
22422W        W94682  18.790  37.528  12.895
22423W        W94683   6.844   2.767   1.277
22424W        W94684  14.682  12.787   4.123
22425W        W94685  33.577  18.159  14.402
22426W        W94686  21.168   2.961  12.985
22427W        W94687  23.562  20.764   3.180
22428W        W94688  18.613   1.407  11.517
22429W        W94689  41.920  33.593  13.878
22430W        W94690  39.913  43.774   3.280
22431W        W94691  13.678  41.392   3.166
22432W        W94692   8.755  34.057  12.418
22433W        W94693  24.562  34.600   1.770
22434W        W94694  20.178  30.545   3.679
22435W        W94695  39.960  19.112  13.970
22436W        W94696   6.242  22.593  14.419
22437W        W94697  11.837   6.722  13.937
22438W        W94698  22.168  11.705  11.501
22439W        W94699  13.258  33.926   2.190
22440W        W94700  41.832   7.385   3.659
22441W        W94701  31.963  31.572  10.443
22442W        W94702  26.988  30.088  13.812
22443W        W94703   6.920  21.658   3.849
22444W        W94704  11.255  37.037  11.511
22445W        W94705  32.572  35.454  13.929
22446W        W94706  38.870   1.846   1.814
22447W        W94707   7.273  21.728   4.618
22448W        W94708  35.536  19.602   2.346
22449W        W94709  34.054  11.255  12.991
22450W        W94710  41.447   3.882   3.151
22451W        W94711  39.357  37.082   3.697
22452W        W94712  15.819  33.409   4.225
22453W        W94713  24.068  34.093   2.389
22454W        W94714   0.422   3.268   4.722
22455W        W94715  14.295  38.936  13.997
22456W        W94716  16.093  42.821  13.336
22457W        W94717  22.616  31.469   2.796
22458W        W94718  40.851  17.104  11.416
22459W        W94719  16.232   4.888  12.978
22460W        W94720  37.046   1.780   0.395
22461W        W94721   1.940  29.441  12.370
22462W        W94722   9.867  25.105  14.489
22463W        W94723  15.628  36.378  13.825
22464W        W94724  17.106   5.916  12.042
22465W        W94725  11.354  20.236  13.988
22466W        W94726   2.949  42.028  12.953
22467W        W94727   9.222  36.970  13.431
22468W        W94728  10.307  12.260  13.542
22469W        W94729  26.193  17.240   3.283
22470W        W94730  13.145  11.785   1.272
22471W        W94731  20.239  37.580   4.681
22472W        W94732  32.550  13.826   0.870
22473W        W94733  14.828  37.457  13.359
22474W        W94734  39.814  39.349  10.481
22475W        W94735  39.030  20.658  13.060
22476W        W94736   8.673  37.370  10.581
22477W        W94737  13.151  31.931  14.914
22478W        W94738  38.458   9.182   9.593
22479W        W94739  40.939  25.121   3.373
22480W        W94740   6.424  28.045  14.862
22481W        W94741  40.817  17.290   2.379
22482W        W94742   3.316   6.765   0.248
22483W        W94743   1.754  35.043  13.361
22484W        W94744  40.978   5.859  11.597
22485W        W94745  42.390  13.752   4.803
22486W        W94746   9.812  37.430   3.308
22487W        W94747  27.550  44.450  12.481
22488W        W94748   3.954  24.521   2.229
22489W        W94749  12.354  26.077   3.275
22490W        W94750   9.867  44.970  11.950
22491W        W94751  41.984  28.090   0.916
22492W        W94752  39.851  27.117   1.326
22493W        W94753  18.660   9.850  14.944
22494W        W94754  34.415  14.260   0.822
22495W        W94755  33.520  16.598   4.239
22496W        W94756  32.904  35.032   4.815
22497W        W94757   2.300  34.526   4.305
22498W        W94758  12.167   6.282  14.479
22499W        W94759   0.830  11.234   1.935
22500W        W94760  38.443  14.695   3.252
22501W        W94761   9.351  43.976   4.811
22502W        W94762  30.038   1.414   4.171
22503W        W94763  41.514  22.624   4.799
22504W        W94764  44.446  41.321   3.667
22505W        W94765   7.308  12.637   2.738
22506W        W94766  39.556   7.698  13.412
22507W        W94767  34.953  40.006  14.024
22508W        W94768  10.647  27.593   0.272
22509W        W94769  35.549   8.208  11.431
22510W        W94770   5.693  36.388   1.852
22511W        W94771  21.257  41.973  12.536
22512W        W94772   1.736   3.907   1.405
22513W        W94773  12.146   5.834   4.262
22514W        W94774  14.303  37.519  11.563
22515W        W94775  23.700  40.801   2.215
22516W        W94776  35.039   8.319   4.823
22517W        W94777  16.804   7.907   0.278
22518W        W94778  34.412   1.817   0.253
22519W        W94779  12.695  29.466  11.597
22520W        W94780  15.651  11.642   1.424
22521W        W94781  31.522  42.312   1.358
22522W        W94782  17.656  44.774  12.923
22523W        W94783  43.885  18.604   4.191
22524W        W94784  32.891  42.522   0.392
22525W        W94785  29.013  29.561  14.026
22526W        W94786   5.195  33.446  11.583
22527W        W94787   4.917  22.126   4.682
22528W        W94788  24.661   7.187  11.036
22529W        W94789  13.843  14.705   5.226
22530W        W94790   5.336  26.595   2.742
22531W        W94791  18.607   4.926  14.489
22532W        W94792   1.849  35.502  14.767
22533W        W94793  43.963  36.484   2.669
22534W        W94794  42.924  16.231   4.171
22535W        W94795  12.717  24.558  10.433
22536W        W94796  19.739   6.280  13.002
22537W        W94797   7.332  13.764  14.897
22538W        W94798  19.221   8.284   9.974
22539W        W94799  38.437  21.733  11.493
22540W        W94800  41.449  43.423   1.736
22541W        W94801  38.000  30.415  12.474
22542W        W94802   0.463  34.557  12.920
22543W        W94803  13.720  41.802  11.048
22544W        W94804  38.343   2.375   3.763
22545W        W94805  39.833   6.746   0.422
22546W        W94806  14.834  39.486  11.531
22547W        W94807  28.492  40.383   1.260
22548W        W94808  17.755  18.740  10.509
22549W        W94809  25.100  13.108   2.180
22550W        W94810  40.471   4.710  11.929
22551W        W94811   8.327  21.600   0.943
22552W        W94812  20.230   8.283  10.087
22553W        W94813  23.502  29.091  11.118
22554W        W94814  43.328  19.647   3.326
22555W        W94815  23.580   2.864   3.239
22556W        W94816  17.264  37.430  10.156
22557W        W94817  20.130  42.462   0.856
22558W        W94818  12.253  24.192   0.765
22559W        W94819   6.188  25.145  14.021
22560W        W94820   6.857  17.300   1.787
22561W        W94821   3.913  17.582   0.826
22562W        W94822  20.659   7.226  12.500
22563W        W94823  31.914   4.819  13.504
22564W        W94824   0.378  17.121   3.305
22565W        W94825   5.878   8.792   0.268
22566W        W94826  42.923  33.047   9.956
22567W        W94827   7.291  24.094   2.791
22568W        W94828  19.621  21.643   0.953
22569W        W94829  13.116  32.636   4.321
22570W        W94830  29.588  25.035   2.316
22571W        W94831   3.771  40.916   0.397
22572W        W94832   0.443  25.530   1.248
22573W        W94833  27.012  10.321  13.919
22574W        W94834  22.053  24.076   2.756
22575W        W94835  40.034   0.821  14.453
22576W        W94836  13.150  21.599   2.212
22577W        W94837  37.369  23.679   0.448
22578W        W94838  20.149  34.949   3.350
22579W        W94839  31.065   2.814  13.307
22580W        W94840  22.029   4.450   4.649
22581W        W94841  19.158   8.835  14.326
22582W        W94842  36.552  41.357   0.940
22583W        W94843  38.383  27.951  11.035
22584W        W94844  39.502  34.889  13.849
22585W        W94845  38.365  41.808  12.985
22586W        W94846  17.755   3.410  12.006
22587W        W94847  15.727  13.769  14.810
22588W        W94848  22.036  27.065   2.697
22589W        W94849  43.353  42.343  11.373
22590W        W94850  34.958  18.646  11.384
22591W        W94851   2.731  10.860   1.370
22592W        W94852  40.355  31.107   0.249
22593W        W94853  20.110  20.661   4.116
22594W        W94854   3.442  29.170   2.789
22595W        W94855  29.633  11.303  14.429
22596W        W94856  37.494  13.699   0.874
22597W        W94857  15.291  39.326   1.385
22598W        W94858  10.329   1.397  14.931
22599W        W94859  28.518   8.260  13.870
22600W        W94860  25.968  13.280   4.291
22601W        W94861  43.938  28.630  14.302
22602W        W94862  38.492  36.894   3.724
22603W        W94863  30.489  23.524   4.253
22604W        W94864  10.827  12.672  10.431
22605W        W94865  35.375  17.573  12.351
22606W        W94866  37.885  24.021  14.511
22607W        W94867  23.566  36.917   0.451
22608W        W94868  13.616  18.146   2.838
22609W        W94869  39.452  19.224  11.501
22610W        W94870  29.145  17.686   0.422
22611W        W94871  41.793  19.269   1.302
22612W        W94872  22.727  30.041  14.862
22613W        W94873  36.967  23.017   4.223
22614W        W94874   8.761  44.272  13.955
22615W        W94875   8.188   5.886  13.531
22616W        W94876  25.091  27.685   3.745
22617W        W94877  30.116  32.509   5.160
22618W        W94878  33.389  37.581   4.179
22619W        W94879  19.146  10.295   1.369
22620W        W94880  23.134  35.951  12.536
22621W        W94881   7.360  26.468   4.265
22622W        W94882   1.326  40.479   4.654
22623W        W94883   5.821  27.097   4.253
22624W        W94884  44.477  28.443  12.383
22625W        W94885  30.042   2.766  14.912
22626W        W94886  13.208  40.895   2.348
22627W        W94887  17.124  44.339  11.428
22628W        W94888   3.443  16.092  12.062
22629W        W94889  13.327  11.265   1.299
22630W        W94890   9.251  14.329  10.143
22631W        W94891  44.285  27.988   2.206
22632W        W94892  22.220  12.633  11.919
22633W        W94893  13.314   7.864   2.236
22634W        W94894   1.842  25.033   2.873
22635W        W94895   8.877  12.722   9.920
22636W        W94896  28.142  42.351  12.516
22637W        W94897  37.070  34.511  14.963
22638W        W94898  44.815   9.709   2.419
22639W        W94899  39.544  27.110   4.664
22640W        W94900   5.320  21.666  10.960
22641W        W94901  37.031  31.104  13.926
22642W        W94902  24.180  39.337  12.402
22643W        W94903  39.868   9.205   2.292
22644W        W94904   9.753  37.436   1.260
22645W        W94905  18.617  19.157   1.371
22646W        W94906   8.800  43.483  11.566
22647W        W94907  11.256  37.041  14.005
22648W        W94908  44.417  25.538   3.386
22649W        W94909  42.438  42.923  10.586
22650W        W94910  18.134  29.106  13.921
22651W        W94911  27.084  15.243  11.523
22652W        W94912  17.172   5.424   3.220
22653W        W94913  34.375  21.728   1.787
22654W        W94914  18.109  41.826  13.309
22655W        W94915  31.974   7.174  13.324
22656W        W94916  21.183  24.512  10.492
22657W        W94917  27.606  25.184   4.133
22658W        W94918  25.203  42.356  11.396
22659W        W94919  16.746   4.225  11.439
22660W        W94920   1.359  20.748  12.344
22661W        W94921  17.226   0.338   4.734
22662W        W94922   6.398  14.744   2.807
22663W        W94923  23.049   0.916  12.549
22664W        W94924   6.779   6.890  12.433
22665W        W94925   5.716  18.774  14.395
22666W        W94926  15.291  39.981   4.608
22667W        W94927  24.508  33.512   4.755
22668W        W94928  22.186  28.436   5.609
22669W        W94929  19.164  14.685   3.172
22670W        W94930  40.546  15.267   2.349
22671W        W94931  24.494  39.411   1.265
22672W        W94932  16.646  17.726  10.449
22673W        W94933  35.506  43.913   1.296
22674W        W94934  24.676  44.441  13.504
22675W        W94935   7.830  10.817   4.774
22676W        W94936  10.342  24.710  12.938
22677W        W94937  41.906  20.177  11.991
22678W        W94938  24.217  27.670  12.023
22679W        W94939  36.436   7.667  12.354
22680W        W94940  36.925  44.955  14.867
22681W        W94941  32.422   4.396  13.800
22682W        W94942  42.952   6.709  13.366
22683W        W94943  23.010  35.911   4.633
22684W        W94944  12.145  44.852  12.069
22685W        W94945  38.936   4.340  14.435
22686W        W94946  13.658  23.006   4.687
22687W        W94947  40.031  42.832  11.984
22688W        W94948   7.722  33.924   2.196
22689W        W94949  16.109  39.834   2.355
22690W        W94950  26.592  18.058   4.270
22691W        W94951   7.801   6.875   3.652
22692W        W94952   1.894  22.736   4.764
22693W        W94953  21.041  17.245  10.465
22694W        W94954  24.132  11.632   1.841
22695W        W94955  11.220   3.761  11.557
22696W        W94956  42.964  18.119   0.916
22697W        W94957  23.719  37.511  11.605
22698W        W94958  20.651  43.400   4.683
22699W        W94959  24.565  33.482  13.394
22700W        W94960  27.036   8.784  12.997
22701W        W94961  23.144  19.539  14.889
22702W        W94962   9.807  44.975   3.664
22703W        W94963   7.368   3.300   4.157
22704W        W94964  18.264  10.722   4.324
22705W        W94965   1.803   1.962  10.572
22706W        W94966  25.523  29.044   1.760
22707W        W94967   7.277   4.231   0.294
22708W        W94968  38.391  20.722  14.432
22709W        W94969   4.777  34.937  14.834
22710W        W94970  36.507  26.510   3.162
22711W        W94971  30.163  28.102   0.785
22712W        W94972  27.568  37.065   2.288
22713W        W94973  25.144  12.655  12.351
22714W        W94974   7.868  11.674   1.272
22715W        W94975  26.004  25.131  12.986
22716W        W94976  18.200   8.756   4.671
22717W        W94977  24.175  41.364   3.345
22718W        W94978   5.309  11.324   3.152
22719W        W94979  25.618   4.741  13.311
22720W        W94980  35.488  24.574   0.318
22721W        W94981  36.564  14.337   1.437
22722W        W94982  39.929   1.296  14.827
22723W        W94983   9.389  20.695   2.774
22724W        W94984  10.312  10.816  13.039
22725W        W94985  34.614  36.407  10.951
22726W        W94986  26.206  20.730   4.137
22727W        W94987  43.976  22.006  10.518
22728W        W94988  18.102  22.605  10.965
22729W        W94989   5.689  17.061  13.367
22730W        W94990  16.113   3.945  11.462
22731W        W94991  38.858  17.655  12.445
22732W        W94992  15.316  27.134   3.813
22733W        W94993   9.673  44.860   0.403
22734W        W94994  21.231   5.729   0.879
22735W        W94995  14.717  11.213  14.342
22736W        W94996  25.473  42.949  14.475
22737W        W94997  44.341  21.534  14.797
22738W        W94998  30.975  19.192   4.825
22739W        W94999  15.169  24.677  10.609
22740W        W95000  17.595  12.688  14.027
22741W        W95001   9.268   5.270  13.872
22742W        W95002  25.662   1.466  12.480
22743W        W95003  22.068   8.258   1.311
22744W        W95004  30.139  20.139   1.924
22745W        W95005  17.250   1.445  13.943
22746W        W95006  29.948  19.127   0.378
22747W        W95007  22.113   2.249   4.296
22748W        W95008  12.120  32.897   4.703
22749W        W95009  33.557  39.330  10.566
22750W        W95010  27.007  30.470  13.829
22751W        W95011  30.135  22.141   2.820
22752W        W95012   2.863  23.117   0.314
22753W        W95013  23.042   4.838   2.813
22754W        W95014  20.564  42.029  12.021
22755W        W95015  15.712  38.519   1.434
22756W        W95016  13.261  18.688  13.318
22757W        W95017   4.260  37.084   2.843
22758W        W95018   7.289  36.446   4.350
22759W        W95019  14.751  12.115   1.411
22760W        W95020  38.824   7.339   1.325
22761W        W95021  11.768  38.463  13.036
22762W        W95022  10.682   9.711  13.519
22763W        W95023   6.346  43.000   2.307
22764W        W95024   2.403  39.954  12.931
22765W        W95025  40.021  27.624  12.854
22766W        W95026  29.949  32.976   2.893
22767W        W95027  15.637  17.161  11.378
22768W        W95028  13.727  24.693  13.925
22769W        W95029  29.653  25.138  14.776
22770W        W95030  13.662  34.472   2.676
22771W        W95031  24.695  30.038   2.410
22772W        W95032  33.919  14.321   4.294
22773W        W95033  30.489  14.107   1.718
22774W        W95034   9.730  37.007   3.710
22775W        W95035  25.071  10.264  13.407
22776W        W95036  21.585  15.150  14.375
22777W        W95037   7.838  10.260  13.534
22778W        W95038  10.298  37.390  13.426
22779W        W95039   0.416  40.917  11.947
22780W        W95040  30.095  36.443   0.296
22781W        W95041  16.239  25.603   1.276
22782W        W95042  29.164   7.749  14.514
22783W        W95043  17.731   8.659   0.423
22784W        W95044  43.775   2.284  11.916
22785W        W95045  27.163  41.850   5.681
22786W        W95046  37.565   6.214  13.336
22787W        W95047  38.501  44.281  10.511
22788W        W95048   0.896  18.650   0.753
22789W        W95049  43.366  38.827  10.445
22790W        W95050   9.200  12.737  13.398
22791W        W95051  22.168  35.988   4.164
22792W        W95052  20.644  38.418   2.385
22793W        W95053   3.842  31.952  13.438
22794W        W95054  20.146  14.331   0.920
22795W        W95055  39.439   2.365   1.373
22796W        W95056  24.544   9.785   3.797
22797W        W95057  35.893  22.059   0.758
22798W        W95058  23.079  38.487  12.515
22799W        W95059   5.811   8.287  12.850
22800W        W95060   5.781   9.174  11.504
22801W        W95061   6.354  44.368   1.754
22802W        W95062  34.431  42.307   3.747
22803W        W95063  13.653  28.078   2.898
22804W        W95064   6.699  43.454   0.801
22805W        W95065  24.628  39.963   0.789
22806W        W95066  27.080   8.839   2.726
22807W        W95067   7.209   7.826   0.913
22808W        W95068  34.591  35.004   1.431
22809W        W95069  38.936  19.617   2.330
22810W        W95070  40.399  16.727   2.197
22811W        W95071  40.386  24.990  13.481
22812W        W95072  35.914  30.150  12.944
22813W        W95073  13.627  15.771   4.298
22814W        W95074  36.957  23.211   3.648
22815W        W95075  29.533  41.927  11.453
22816W        W95076  17.572   2.289   0.406
22817W        W95077  21.196  12.830  12.851
22818W        W95078   8.767   7.248   4.343
22819W        W95079  31.406  11.291   2.182
22820W        W95080  23.652   0.781  12.554
22821W        W95081  30.520  29.952  12.975
22822W        W95082   1.277  19.052  12.470
22823W        W95083  38.411   0.955  12.872
22824W        W95084   0.426  19.592  12.514
22825W        W95085  13.629   4.331  13.914
22826W        W95086  41.812  20.135   2.813
22827W        W95087   7.872  43.796  14.360
22828W        W95088   6.767  10.828  10.463
22829W        W95089  16.231  12.691  12.405
22830W        W95090  36.531  31.914   4.271
22831W        W95091  31.409  34.911   3.163
22832W        W95092  23.699  26.991  13.547
22833W        W95093  10.670   9.303   1.233
22834W        W95094   5.407   8.248  10.580
22835W        W95095  10.769  39.528   3.183
22836W        W95096  39.996  20.767  14.852
22837W        W95097  14.263  30.943   0.837
22838W        W95098  15.709  33.554  13.895
22839W        W95099  18.666  11.319   3.756
22840W        W95100   9.385   4.223  11.093
22841W        W95101  26.146  38.027   2.243
22842W        W95102  36.072  21.650   0.866
22843W        W95103  39.394  19.684  11.475
22844W        W95104  16.790  17.069   0.345
22845W        W95105  23.547  23.023   4.791
22846W        W95106  36.417  13.644  10.530
22847W        W95107  29.114   9.798   0.461
22848W        W95108   6.224  26.995  14.486
22849W        W95109  11.343   1.259  13.333
22850W        W95110  30.450  25.501  12.339
22851W        W95111  15.608  34.035   2.842
22852W        W95112   0.980   5.735   2.229
22853W        W95113  15.303  41.475  11.446
22854W        W95114  23.230  23.215  10.638
22855W        W95115  40.354  21.676  12.048
22856W        W95116   7.193  26.201  10.556
22857W        W95117  24.036  24.521  12.899
22858W        W95118  42.469  27.161  12.011
22859W        W95119  21.160  39.957  10.104
22860W        W95120   4.741  43.786   4.767
22861W        W95121  13.758  29.553   4.182
22862W        W95122  31.560  13.315   1.398
22863W        W95123  44.847  29.009   1.253
22864W        W95124  13.251   6.684   0.873
22865W        W95125   1.865  23.131  10.976
22866W        W95126  13.624  12.358   0.474
22867W        W95127  29.948   1.466  12.491
22868W        W95128   0.765  38.968   1.253
22869W        W95129   3.225  21.750   1.794
22870W        W95130  15.118   6.690   2.804
22871W        W95131  35.563  25.068   4.327
22872W        W95132   1.937  34.429  13.514
22873W        W95133  25.153  23.491  14.826
22874W        W95134   3.343  29.167  11.441
22875W        W95135  23.231  41.411   4.778
22876W        W95136  43.892   6.830  12.015
22877W        W95137   5.413  23.663   4.268
22878W        W95138   0.963  20.684  13.064
22879W        W95139  39.398  39.977   3.788
22880W        W95140   5.271  35.571  14.291
22881W        W95141   5.338   3.886  13.521
22882W        W95142  12.832  13.730   3.812
22883W        W95143  27.017   5.196   4.260
22884W        W95144  40.329  24.627  11.493
22885W        W95145  29.085  24.577  14.325
22886W        W95146  20.182  33.546   3.832
22887W        W95147   0.807  26.500   2.707
22888W        W95148   6.381  11.774  14.032
22889W        W95149   5.906  36.864   0.952
22890W        W95150  44.280  25.581  13.336
22891W        W95151  18.193  37.839  13.501
22892W        W95152  37.945  28.464   0.840
22893W        W95153   0.906  28.939  10.607
22894W        W95154   0.450   9.220  12.885
22895W        W95155  10.774  38.511   4.779
22896W        W95156  39.486  33.103  12.061
22897W        W95157   3.354  15.129   2.889
22898W        W95158  21.062  11.800   4.689
22899W        W95159  29.095  20.077   1.442
22900W        W95160  21.251  38.522  10.464
22901W        W95161  26.474  22.601   2.840
22902W        W95162  17.091   1.914  13.481
22903W        W95163  24.175  31.127   0.473
22904W        W95164  37.852   1.363   4.345
22905W        W95165  24.504  28.636   4.312
22906W        W95166   5.846  33.074  14.844
22907W        W95167  29.018   4.742   4.656
22908W        W95168  29.503  19.558  14.873
22909W        W95169  11.663  41.328  11.972
22910W        W95170  28.996  14.210   3.755
22911W        W95171  19.568   9.740  13.528
22912W        W95172  21.690  41.456   0.470
22913W        W95173  41.881   4.843   0.743
22914W        W95174   6.393  35.454  14.347
22915W        W95175  37.349   3.951  11.510
22916W        W95176  29.994  20.668   2.181
22917W        W95177  29.150  11.260  13.796
22918W        W95178  16.143  11.690  14.390
22919W        W95179  20.698  16.710   2.247
22920W        W95180  38.403  41.857   2.779
22921W        W95181  16.243  12.624  13.335
22922W        W95182   9.177   0.896  13.927
22923W        W95183   6.915  22.673   4.199
22924W        W95184  14.652  10.257   1.851
22925W        W95185  39.023  29.624  11.108
22926W        W95186   3.902   1.965  10.547
22927W        W95187  16.264  19.585   3.194
22928W        W95188  19.277  25.170   2.261
22929W        W95189   0.794  22.680  12.950
22930W        W95190  25.117  40.035   3.705
22931W        W95191  21.636  24.164  14.912
22932W        W95192   8.800  14.639  14.793
22933W        W95193  26.686  33.577  14.387
22934W        W95194  33.954  23.088   0.902
22935W        W95195  44.461  14.779  13.317
22936W        W95196   0.324  44.466   3.638
22937W        W95197   7.285  32.025  13.503
22938W        W95198  25.072  29.166   2.326
22939W        W95199  26.518  33.585   4.795
22940W        W95200   8.371   9.777   4.745
22941W        W95201  29.497  38.936   0.320
22942W        W95202  21.129   9.783   2.767
22943W        W95203  36.090  27.536  12.508
22944W        W95204  21.017   7.371  13.335
22945W        W95205  12.689  23.094  12.020
22946W        W95206  28.436  20.541  13.870
22947W        W95207   5.836  29.653  10.424
22948W        W95208  19.763  10.855   3.846
22949W        W95209  25.542  23.213  13.382
22950W        W95210  35.989  15.630   5.184
22951W        W95211  25.063   1.388  11.905
22952W        W95212  24.080  21.182   2.721
22953W        W95213  42.294  10.346  14.924
22954W        W95214  25.556  10.177  13.530
22955W        W95215  28.130  10.788   0.908
22956W        W95216   0.277  30.002  11.961
22957W        W95217   7.287  34.050  13.490
22958W        W95218  39.848   9.153   2.863
22959W        W95219  39.342  26.999   1.848
22960W        W95220  33.083  16.636   1.236
22961W        W95221  28.478  30.978   2.238
22962W        W95222  37.952   1.309  11.529
22963W        W95223  40.900   8.874  12.456
22964W        W95224  16.625  31.139   3.344
22965W        W95225  38.053  36.592   0.802
22966W        W95226  15.259  17.114   4.760
22967W        W95227  11.709  38.893   4.203
22968W        W95228  23.645  23.123   1.812
22969W        W95229  26.957  12.214   2.813
22970W        W95230  30.954   9.782   1.217
22971W        W95231  29.945  17.714   1.844
22972W        W95232  40.962   1.877   0.930
22973W        W95233  10.815  36.041  14.771
22974W        W95234  23.016  30.120   0.860
22975W        W95235  30.971  28.557   1.699
22976W        W95236  16.671  33.539   3.725
22977W        W95237   8.333  34.120   4.278
22978W        W95238  41.007   3.826   0.309
22979W        W95239  38.337  30.061  10.493
22980W        W95240  21.057  41.859  11.611
22981W        W95241   4.226  19.615  14.819
22982W        W95242  26.967  12.344   3.777
22983W        W95243  18.663  24.214   2.829
22984W        W95244  34.597   4.858  10.611
22985W        W95245  19.039  37.848  13.449
22986W        W95246   1.298  33.914   3.814
22987W        W95247   7.380  44.282   2.838
22988W        W95248  33.990  39.360  12.535
22989W        W95249  17.722  11.784  10.904
22990W        W95250  25.021  44.304  13.898
22991W        W95251  42.454  29.663   4.818
22992W        W95252  24.534  32.587   0.320
22993W        W95253  36.540   7.671   2.774
22994W        W95254  24.697  10.717  10.421
22995W        W95255  14.312  44.816   0.740
22996W        W95256   7.854  25.541   0.743
22997W        W95257  13.621  33.006   3.348
22998W        W95258  34.525  17.182  14.801
22999W        W95259  23.059  31.413  10.589
23000W        W95260  29.069   6.740   3.158
23001W        W95261  25.500  38.006   1.775
23002W        W95262  40.896  43.457  11.024
23003W        W95263  29.025   9.799   2.813
23004W        W95264  42.795  42.006  13.032
23005W        W95265  35.467   9.244  13.823
23006W        W95266  33.025  30.092  10.427
23007W        W95267   9.823  30.080  13.357
23008W        W95268  28.002  34.559  10.155
23009W        W95269  37.564   5.703   1.391
23010W        W95270  44.276  31.106  11.469
23011W        W95271  44.478  41.413   4.182
23012W        W95272  16.696  13.698   2.901
23013W        W95273  40.529  10.359  13.543
23014W        W95274  18.165  26.531  10.149
23015W        W95275  25.642  19.687   4.830
23016W        W95276  10.809   4.205   0.447
23017W        W95277  40.894  41.308  13.985
23018W        W95278  28.072  30.921  14.989
23019W        W95279   6.697   0.749  14.344
23020W        W95280   6.355   2.814   3.844
23021W        W95281   3.335  16.720  11.372
23022W        W95282  27.556  27.073   1.854
23023W        W95283  31.424  30.920   4.260
23024W        W95284  43.481  10.213   1.345
23025W        W95285   3.350  21.225  13.920
23026W        W95286  41.896  28.674   3.357
23027W        W95287  15.711  29.464   3.346
23028W        W95288  31.609  19.745   2.805
23029W        W95289  44.347  43.902  14.962
23030W        W95290   0.329   6.292  11.931
23031W        W95291   5.244   9.356   1.380
23032W        W95292   9.795  21.554  10.471
23033W        W95293   0.346  23.676  11.876
23034W        W95294   6.412  32.608   2.196
23035W        W95295   7.391  17.165  10.631
23036W        W95296  21.027  27.681   9.586
23037W        W95297   8.179  39.382  14.887
23038W        W95298  10.236  39.530   4.165
23039W        W95299  30.603  38.842  11.973
23040W        W95300  11.786   8.693  14.953
23041W        W95301  42.450  42.433   1.740
23042W        W95302   0.359  20.729  11.006
23043W        W95303  20.754  32.554   1.784
23044W        W95304  41.438   4.859   1.424
23045W        W95305  33.599   8.812  11.016
23046W        W95306  41.508   2.464  13.433
23047W        W95307  26.124   7.277  12.465
23048W        W95308  20.612  26.688   0.768
23049W        W95309  28.442  15.258   0.756
23050W        W95310  32.074  34.451   1.256
23051W        W95311  13.201  30.100   5.253
23052W        W95312  25.542   2.289  14.980
23053W        W95313  19.547  19.187   4.274
23054W        W95314   2.295  36.399  11.939
23055W        W95315  17.216  29.661  11.018
23056W        W95316  24.565  43.343  12.953
23057W        W95317  29.502   4.786   4.682
23058W        W95318  36.073  23.121  12.483
23059W        W95319  38.373   7.191   1.450
23060W        W95320   5.311   3.281  13.908
23061W        W95321  37.020  26.479   1.798
23062W        W95322  40.896  10.199   4.245
23063W        W95323  13.166  10.190  14.953
23064W        W95324  16.568  30.493   4.195
23065W        W95325  22.523  13.687   1.256
23066W        W95326  41.798  29.127   1.807
23067W        W95327  11.138  28.055   0.281
23068W        W95328  41.033  14.810  10.600
23069W        W95329  31.111  29.556  14.839
23070W        W95330  30.462   9.724  14.870
23071W        W95331  13.737   0.837   2.813
23072W        W95332  30.476  32.904   2.384
23073W        W95333   0.440  17.099  13.913
23074W        W95334  40.404  34.927  13.541
23075W        W95335  23.150  25.118   0.774
23076W        W95336  23.177  39.353   3.644
23077W        W95337  16.769  42.503  14.775
23078W        W95338  38.391  32.096  14.022
23079W        W95339  41.870  44.979  13.917
23080W        W95340   2.951   7.360   3.337
23081W        W95341  31.070  37.335   4.192
23082W        W95342   3.318  13.327  13.802
23083W        W95343  34.544  12.304  11.598
23084W        W95344  35.910  22.105  13.413
23085W        W95345  23.086  41.011  12.874
23086W        W95346  22.133   1.830  14.946
23087W        W95347   1.334  23.657  14.890
23088W        W95348  43.896  21.628  13.516
23089W        W95349  28.437  42.999   2.367
23090W        W95350  22.237  40.383   1.710
23091W        W95351  42.848  10.302   3.649
23092W        W95352  11.817  32.981  11.017
23093W        W95353  42.490  38.967   0.284
23094W        W95354  40.801   8.281   1.771
23095W        W95355  19.539  10.777  14.944
23096W        W95356  41.872  23.520  12.963
23097W        W95357  30.555  19.625  14.504
23098W        W95358  40.823  37.441  12.951
23099W        W95359  43.374  20.232  11.101
23100W        W95360  12.839  35.494   4.697
23101W        W95361  34.393  37.941  11.447
23102W        W95362  17.140  36.390   0.407
23103W        W95363  16.246  12.129   0.953
23104W        W95364  25.996  16.645  14.910
23105W        W95365  20.152  27.675   4.761
23106W        W95366  43.979  26.018  13.006
23107W        W95367  43.892  29.431   4.729
23108W        W95368  31.451   5.335   4.342
23109W        W95369  36.060  42.999   0.826
23110W        W95370  31.951  30.632  13.022
23111W        W95371  22.627   1.483   3.308
23112W        W95372  28.613  39.544   3.167
23113W        W95373  13.762  25.588  10.898
23114W        W95374  25.093   5.358  11.524
23115W        W95375  31.611  37.419   4.291
23116W        W95376   4.769  17.171   3.752
23117W        W95377   9.840  42.912   3.798
23118W        W95378  23.732  13.714  13.490
23119W        W95379  17.267   3.758   4.723
23120W        W95380  10.856  33.563   0.452
23121W        W95381   5.211   8.277   2.786
23122W        W95382  12.841  33.965  14.809
23123W        W95383  23.670  23.173  10.457
23124W        W95384  11.812  37.511   1.849
23125W        W95385  30.641  19.109   4.614
23126W        W95386  24.579  28.078   9.477
23127W        W95387  10.222  39.334   1.412
23128W        W95388  19.723  38.543   1.432
23129W        W95389   9.325  32.558  11.488
23130W        W95390   2.754  21.717   2.399
23131W        W95391  14.700  15.582  14.345
23132W        W95392  17.124   8.286  12.431
23133W        W95393   6.273  12.769  13.987
23134W        W95394  34.920   0.988   3.842
23135W        W95395  34.863  42.883  12.534
23136W        W95396  44.887  14.319   2.190
23137W        W95397   6.290   3.806   1.699
23138W        W95398   5.303  30.048  14.828
23139W        W95399  15.677   3.459  10.138
23140W        W95400  39.021   8.385   0.791
23141W        W95401   7.892  35.861   0.378
23142W        W95402  11.846  16.705   3.799
23143W        W95403  15.091  28.072   2.206
23144W        W95404  36.412  15.665   0.924
23145W        W95405  34.476  13.175  14.444
23146W        W95406  15.150  27.649   9.511
23147W        W95407  33.088  35.573   0.926
23148W        W95408  35.978  41.360   1.253
23149W        W95409   1.889  40.342  13.798
23150W        W95410  12.823  13.691   3.374
23151W        W95411  16.190  13.336   3.690
23152W        W95412  19.546  15.232   3.693
23153W        W95413  31.476   6.886  13.999
23154W        W95414  26.952  31.017   4.183
23155W        W95415  13.792  20.248  11.857
23156W        W95416   0.405  31.553  12.529
23157W        W95417   3.752  24.671   4.186
23158W        W95418   9.176  33.494   0.912
23159W        W95419  43.489  43.915  13.023
23160W        W95420  32.616  44.293  11.525
23161W        W95421  24.147  17.091  14.999
23162W        W95422  19.595  41.394  13.528
23163W        W95423   6.757  42.329  10.963
23164W        W95424  14.237   5.193   2.736
23165W        W95425  24.212   5.410  12.401
23166W        W95426  40.026  20.057   0.437
23167W        W95427  38.430  24.586   1.694
23168W        W95428  22.692  19.778   0.416
23169W        W95429  30.969  11.140   4.348
23170W        W95430  37.573  37.544   2.238
23171W        W95431  23.522  19.679  13.475
23172W        W95432  29.491  13.674  12.529
23173W        W95433   8.177  12.613  11.443
23174W        W95434   8.182  22.543   4.348
23175W        W95435  22.053  19.092  12.985
23176W        W95436  31.602  23.017  13.005
23177W        W95437  18.076  31.556  14.972
23178W        W95438  19.746  40.501   2.385
23179W        W95439   2.453  14.338   0.386
23180W        W95440  32.593   0.273   1.228
23181W        W95441  36.368  32.427  13.887
23182W        W95442  37.556  23.610  11.558
23183W        W95443  38.029  14.226  14.425
23184W        W95444   7.711  34.496   1.774
23185W        W95445  16.573  14.622   2.717
23186W        W95446  22.219   9.192  11.974
23187W        W95447  17.587  15.326   3.749
23188W        W95448  25.476  41.473  13.829
23189W        W95449  11.318  24.606  14.344
23190W        W95450  21.240  36.078   2.698
23191W        W95451  16.142  15.118   2.344
23192W        W95452   4.405  23.048   1.806
23193W        W95453  32.015   7.413  11.436
23194W        W95454  22.119  29.102  10.131
23195W        W95455  43.355  35.382  11.110
23196W        W95456  44.848  22.669  12.535
23197W        W95457   1.924  16.300  10.888
23198W        W95458  35.549  12.179   2.248
23199W        W95459   3.421  32.125  11.543
23200W        W95460  29.020  17.724  12.956
23201W        W95461  23.159  13.695   1.807
23202W        W95462  29.089   4.829   4.349
23203W        W95463  22.007  16.630  10.560
23204W        W95464  39.526  12.136   3.800
23205W        W95465   1.369  27.125   3.162
23206W        W95466   3.413  14.705  14.479
23207W        W95467  24.657   6.231  11.431
23208W        W95468  28.181  30.049  11.560
23209W        W95469  14.791  25.689   0.811
23210W        W95470  20.664  26.535  12.451
23211W        W95471   5.830  33.893  11.466
23212W        W95472  43.468  24.162  12.036
23213W        W95473  24.976  35.945  11.457
23214W        W95474  19.642  40.481  11.609
23215W        W95475  23.009  41.874  14.938
23216W        W95476   3.246  32.584  11.110
23217W        W95477  15.256  19.766   2.345
23218W        W95478  38.461  11.768  12.500
23219W        W95479   6.294  21.143   3.758
23220W        W95480  24.622  28.674  12.401
23221W        W95481  39.939   7.855   2.724
23222W        W95482  24.114  44.467   2.682
23223W        W95483  34.908   3.403  14.353
23224W        W95484  22.182  36.980   0.806
23225W        W95485  23.044  15.194  12.010
23226W        W95486  21.565  16.202   0.337
23227W        W95487  17.721  27.989   0.872
23228W        W95488   6.822  39.947   2.901
23229W        W95489  10.692   9.251   3.264
23230W        W95490  28.135  38.986  14.467
23231W        W95491  10.721  18.154   1.757
23232W        W95492  27.599  17.291  10.935
23233W        W95493  39.541  25.992  14.346
23234W        W95494   4.226  26.197  10.026
23235W        W95495  30.543  37.496  10.625
23236W        W95496  17.182  41.465  10.493
23237W        W95497  13.732  32.474  13.511
23238W        W95498  42.813  22.246   9.947
23239W        W95499  16.704  17.127  11.516
23240W        W95500  43.471  26.600  12.370
23241W        W95501  12.288   4.715  14.504
23242W        W95502  10.685  39.902  14.920
23243W        W95503   6.216  32.935   4.186
23244W        W95504  23.226  17.270   2.677
23245W        W95505  32.413  10.752   0.373
23246W        W95506   3.919  44.887  11.076
23247W        W95507   4.800  41.834   4.745
23248W        W95508  19.217  35.371   2.791
23249W        W95509  15.746  37.473  14.408
23250W        W95510  27.061   4.944  12.394
23251W        W95511   2.267   2.353   4.766
23252W        W95512  40.365  27.011   0.966
23253W        W95513  11.854   5.435  11.084
23254W        W95514  30.599  25.629   0.870
23255W        W95515  24.489   7.739  14.310
23256W        W95516  25.474   7.291  13.310
23257W        W95517   0.922  33.474   2.846
23258W        W95518  37.580   1.421   3.189
23259W        W95519   9.658  28.496   3.159
23260W        W95520   7.814  33.995   1.212
23261W        W95521  33.946  12.639  13.417
23262W        W95522  26.993   6.393  13.876
23263W        W95523  18.153  42.019   3.197
23264W        W95524  32.021  39.431  11.427
23265W        W95525  11.225  26.188   2.701
23266W        W95526   2.921  13.670   4.673
23267W        W95527  39.499  31.904  13.821
23268W        W95528  24.030  13.638   2.786
23269W        W95529  21.617  28.464  13.902
23270W        W95530  34.511  40.025   3.799
23271W        W95531  18.701  27.077   0.338
23272W        W95532  31.109  31.527  10.999
23273W        W95533  22.593  28.938   3.196
23274W        W95534   8.843  40.982  12.868
23275W        W95535  20.118  33.895  10.540
23276W        W95536  34.532   2.727  11.443
23277W        W95537  33.927  34.524  13.041
23278W        W95538  12.229  43.825  13.885
23279W        W95539  30.961  44.923   3.323
23280W        W95540  12.149  22.224  12.509
23281W        W95541   8.769  44.994   2.751
23282W        W95542   4.859  15.250  14.453
23283W        W95543   8.768  14.184  14.414
23284W        W95544  43.475  17.714   4.782
23285W        W95545  34.943   5.910   2.415
23286W        W95546  30.518   8.715   1.250
23287W        W95547  32.962   3.448   0.738
23288W        W95548  40.529  26.628  12.368
23289W        W95549  14.164  17.625   4.797
23290W        W95550  32.981   1.810   4.258
23291W        W95551  34.492  25.059  12.435
23292W        W95552  38.044  43.880  13.922
23293W        W95553  11.621  15.325  13.059
23294W        W95554  26.091  36.014   2.890
23295W        W95555   2.762  29.631   0.923
23296W        W95556   8.191  18.667  11.111
23297W        W95557  29.151  40.508   4.215
23298W        W95558  37.427   9.295   4.348
23299W        W95559  11.735  33.454  11.500
23300W        W95560  22.514  16.572   3.280
23301W        W95561   0.892  36.538  13.388
23302W        W95562   3.364   7.387  11.530
23303W        W95563  14.770  25.696  13.343
23304W        W95564  23.523  21.022  13.432
23305W        W95565   2.413   2.402  13.049
23306W        W95566   4.700  26.558  10.512
23307W        W95567  15.084   6.314   0.937
23308W        W95568  17.621  38.928  12.936
23309W        W95569  44.293  30.604   3.241
23310W        W95570  16.156  11.825  12.984
23311W        W95571  25.983  36.375  12.380
23312W        W95572   6.306   2.327   4.136
23313W        W95573  29.500   6.776   4.141
23314W        W95574  14.100  44.806   2.817
23315W        W95575   7.372  29.148  10.404
23316W        W95576   4.922  25.539  13.828
23317W        W95577  23.058  31.116   3.681
23318W        W95578  18.751   7.208   5.197
23319W        W95579  43.305  19.641  14.024
23320W        W95580   9.889  28.123   2.773
23321W        W95581  34.100  34.546   3.204
23322W        W95582  19.280  33.001   4.199
23323W        W95583   2.418  44.903   4.712
23324W        W95584  15.778  15.595   4.298
23325W        W95585  15.656  26.009  11.378
23326W        W95586  28.173   9.859  12.040
23327W        W95587  42.874  20.184  11.987
23328W        W95588  13.736  17.181  12.557
23329W        W95589  18.074   8.657  13.973
23330W        W95590  16.587   0.261  12.919
23331W        W95591  24.157  28.562  14.013
23332W        W95592  30.074  13.297  10.535
23333W        W95593   0.860  31.087   3.767
23334W        W95594  11.863  24.105  11.480
23335W        W95595  31.091   0.952   3.746
23336W        W95596  37.390  16.751  14.456
23337W        W95597  25.997  14.296   1.781
23338W        W95598   5.392   6.694  13.973
23339W        W95599  43.965  30.629   0.734
23340W        W95600  40.518  17.223   2.895
23341W        W95601  22.649  44.871   2.749
23342W        W95602  16.798   5.766   3.696
23343W        W95603  36.062  39.423  13.004
23344W        W95604   5.739  41.939  11.527
23345W        W95605   7.171  34.415   4.787
23346W        W95606  36.517   2.295   2.236
23347W        W95607  37.349  21.087   4.196
23348W        W95608  36.011  17.705  11.054
23349W        W95609   1.855  17.145  14.031
23350W        W95610  30.646   2.892   2.264
23351W        W95611  23.513  28.013  11.035
23352W        W95612   0.274   6.815   2.200
23353W        W95613  36.975  12.793   0.774
23354W        W95614  24.073  38.058   3.765
23355W        W95615  21.174  38.458  14.355
23356W        W95616  20.557  30.138   0.477
23357W        W95617  33.012  35.478  14.849
23358W        W95618  18.258  30.479   0.925
23359W        W95619  11.292  27.089  12.547
23360W        W95620  19.683  43.993   3.288
23361W        W95621   3.422  44.860   3.658
23362W        W95622   0.796  33.511  13.499
23363W        W95623  34.386  28.996   2.851
23364W        W95624  11.265   9.680  14.968
23365W        W95625  16.621  44.840  14.994
23366W        W95626  43.766  19.082   2.405
23367W        W95627  38.568  14.217  13.974
23368W        W95628  42.022  19.104  14.994
23369W        W95629  26.659  36.586  14.902
23370W        W95630   9.702  12.792  14.859
23371W        W95631  19.768  24.534   1.737
23372W        W95632   2.381  34.049  10.511
23373W        W95633  27.956  38.547  12.428
23374W        W95634  35.476  26.677  13.824
23375W        W95635  43.872   8.159  13.920
23376W        W95636  39.367  37.459  12.434
23377W        W95637  15.163   0.303   0.770
23378W        W95638   7.305   5.702   2.198
23379W        W95639  21.121   7.908   0.947
23380W        W95640  36.565  32.438  13.385
23381W        W95641  29.001  18.592  10.525
23382W        W95642  36.933  43.819  10.581
23383W        W95643  21.227  31.515   4.712
23384W        W95644  37.023  14.163   1.908
23385W        W95645  14.830   9.213  11.902
23386W        W95646  22.684  28.063   2.214
23387W        W95647  19.248  33.467   0.817
23388W        W95648  36.363  21.681   3.232
23389W        W95649  35.877  18.644   4.744
23390W        W95650   3.860   7.385   1.774
23391W        W95651  37.932   9.312  14.020
23392W        W95652  44.844   5.213  14.364
23393W        W95653  40.018  13.240   4.344
23394W        W95654  44.886  25.672   2.401
23395W        W95655  13.274  36.474  10.623
23396W        W95656  16.207  17.798  13.056
23397W        W95657   3.409  12.310   1.835
23398W        W95658  43.437   0.493   0.749
23399W        W95659  18.079  44.491   2.414
23400W        W95660  34.390  15.230   3.739
23401W        W95661  28.561  36.037   2.825
23402W        W95662  28.037   8.685  11.903
23403W        W95663   4.791   6.302  10.425
23404W        W95664  36.928  36.424  13.440
23405W        W95665  17.158  33.886  14.508
23406W        W95666  21.211  22.609   4.808
23407W        W95667   3.391  37.850  12.947
23408W        W95668  35.006  43.367  14.781
23409W        W95669  14.723  40.405  12.043
23410W        W95670  22.705  35.495   1.214
23411W        W95671  39.047   5.404   2.179
23412W        W95672  20.678   8.864  13.329
23413W        W95673   4.868   9.311   4.740
23414W        W95674  16.686  20.596  14.902
23415W        W95675   1.860  40.995  11.022
23416W        W95676  35.490  17.589  11.493
23417W        W95677  39.377  35.030  13.506
23418W        W95678  23.695   0.411  13.007
23419W        W95679  27.145  20.180  10.906
23420W        W95680   5.417  13.713   1.287
23421W        W95681  34.574  19.145  13.488
23422W        W95682  29.487  29.106  10.910
23423W        W95683  21.663  39.998   0.731
23424W        W95684   9.364  37.044  11.986
23425W        W95685   0.457  42.882   0.332
23426W        W95686   1.943   8.721   3.285
23427W        W95687  17.614  18.749  11.539
23428W        W95688  38.414   4.344  14.974
23429W        W95689   3.939  31.477  11.395
23430W        W95690  44.393  37.382   3.148
23431W        W95691  42.005   4.847   3.864
23432W        W95692  36.055  16.583   2.732
23433W        W95693   4.221  11.669   4.631
23434W        W95694  32.037  14.132  10.912
23435W        W95695  31.491  43.343   3.801
23436W        W95696  30.128  42.304  13.495
23437W        W95697  40.459  33.114  13.027
23438W        W95698  21.666  13.243   2.900
23439W        W95699  34.545  39.414   4.636
23440W        W95700  13.347  29.583   2.849
23441W        W95701  17.567  41.376  14.473
23442W        W95702  44.432  33.439  11.098
23443W        W95703  37.459  22.725   1.305
23444W        W95704  27.524  12.178  13.934
23445W        W95705  33.109   1.422   2.264
23446W        W95706  36.465  15.622   4.135
23447W        W95707   3.280  40.319  13.391
23448W        W95708  17.626  14.194   3.684
23449W        W95709  22.065  10.875  14.295
23450W        W95710  22.659  35.603   3.826
23451W        W95711  21.525  27.584  11.389
23452W        W95712  16.264   2.926  12.415
23453W        W95713   6.421  29.624  14.393
23454W        W95714  44.458  33.936   1.898
23455W        W95715  21.238  17.269   3.658
23456W        W95716  15.163  38.562  11.554
23457W        W95717  13.122  35.902  12.522
23458W        W95718  18.590  18.197  10.624
23459W        W95719  14.278  37.074   1.245
23460W        W95720  13.612   5.270   2.231
23461W        W95721  27.670   2.726  14.426
23462W        W95722  19.773  12.143   3.731
23463W        W95723  27.595  18.156  12.027
23464W        W95724  21.195  14.270  13.441
23465W        W95725  32.053  28.620   3.365
23466W        W95726  37.959  18.550  12.078
23467W        W95727   7.329   9.848  13.919
23468W        W95728   1.964  16.285  13.015
23469W        W95729  32.116  35.044  13.470
23470W        W95730  22.548  40.851   1.377
23471W        W95731  12.356  16.142  12.525
23472W        W95732  19.586   4.720  14.917
23473W        W95733  29.928  28.590  11.532
23474W        W95734  14.618  41.823  10.507
23475W        W95735  26.554  20.127  12.488
23476W        W95736   4.214  27.101   0.253
23477W        W95737   0.374  41.324   1.222
23478W        W95738  42.816  29.088  12.497
23479W        W95739  14.122  40.980   1.240
23480W        W95740   7.172  26.460   5.136
23481W        W95741  26.616   3.936  12.894
23482W        W95742  23.135   4.765  14.031
23483W        W95743  11.675  44.496   3.829
23484W        W95744  33.618   5.212   0.303
23485W        W95745  38.934   0.270  14.411
23486W        W95746  14.601  16.111  14.280
23487W        W95747  24.519  42.870  12.450
23488W        W95748  18.066  43.905   0.736
23489W        W95749   1.809  40.545   2.278
23490W        W95750  18.134  40.434  14.982
23491W        W95751  30.513   6.735   2.828
23492W        W95752  44.267  21.750   1.254
23493W        W95753  17.629  28.674  11.478
23494W        W95754  15.585  23.559   1.909
23495W        W95755   5.296  15.086  13.485
23496W        W95756  24.589  38.416  10.569
23497W        W95757  42.939  36.510   1.385
23498W        W95758  40.410   2.932  10.538
23499W        W95759  18.210  34.498   3.296
23500W        W95760  23.686  11.284  10.998
23501W        W95761  29.641  17.581   1.831
23502W        W95762  43.416  19.072   0.936
23503W        W95763  17.729   6.411  11.045
23504W        W95764   6.196  38.905  12.401
23505W        W95765  22.215  27.176  11.857
23506W        W95766  17.613   5.362   3.807
23507W        W95767  41.331  16.105  10.412
23508W        W95768  18.051  38.448   2.283
23509W        W95769  44.415   7.713  13.898
23510W        W95770  26.956  39.522   0.828
23511W        W95771  39.988  15.307   1.399
23512W        W95772  37.512  32.457   4.289
23513W        W95773  13.347   6.206   0.866
23514W        W95774  10.702  21.043   0.903
23515W        W95775  23.668  42.921   2.817
23516W        W95776  33.542  21.206   1.319
23517W        W95777  27.127  32.095   1.768
23518W        W95778  44.974  29.154   4.306
23519W        W95779  26.648  36.357  14.435
23520W        W95780  43.992  16.152   2.263
23521W        W95781  29.523  21.041  14.835
23522W        W95782   1.380  38.834  14.779
23523W        W95783  41.389  39.560   3.788
23524W        W95784  44.847  21.756  14.402
23525W        W95785   1.446  43.801  10.983
23526W        W95786  28.164  41.851   2.321
23527W        W95787   7.386  41.356   2.752
23528W        W95788  31.594   5.362  13.483
23529W        W95789  15.221  44.807   3.777
23530W        W95790  32.542  10.773  11.449
23531W        W95791   7.297  42.929   4.160
23532W        W95792  41.366  30.090   3.835
23533W        W95793  34.057  26.550  13.938
23534W        W95794   2.432  22.055   4.814
23535W        W95795  30.421  10.836  11.049
23536W        W95796  31.152  33.444  13.894
23537W        W95797  33.421   1.421   0.429
23538W        W95798  15.122  24.642  10.945
23539W        W95799  28.643  15.104  13.456
23540W        W95800   0.745  14.143   4.186
23541W        W95801  37.987  20.155  14.450
23542W        W95802   1.430  27.684   3.646
23543W        W95803  15.740  33.440   1.889
23544W        W95804  22.135  32.904   2.335
23545W        W95805  10.697  12.650  14.487
23546W        W95806   1.925  15.289  10.917
23547W        W95807  38.538  29.036  13.877
23548W        W95808   7.207  13.348  14.784
23549W        W95809  27.639  11.754   1.845
23550W        W95810  11.722  32.100   1.712
23551W        W95811  17.178  20.655   2.183
23552W        W95812  36.485  32.602   4.614
23553W        W95813  31.406  12.780   2.190
23554W        W95814   6.774  24.118   3.339
23555W        W95815  13.651  42.827  13.484
23556W        W95816  39.391  12.808   4.720
23557W        W95817  26.561  28.644   3.801
23558W        W95818   4.327  40.910  13.904
23559W        W95819  28.591  11.721   3.687
23560W        W95820  12.336  27.627   5.176
23561W        W95821  44.303  11.177  10.998
23562W        W95822   1.957  38.550   2.202
23563W        W95823  20.638  17.068   0.474
23564W        W95824   4.245  33.393  12.038
23565W        W95825  20.654  34.487  12.346
23566W        W95826   0.743  25.687   2.287
23567W        W95827  31.056  29.579   2.675
23568W        W95828  23.229  15.257   3.174
23569W        W95829   1.822  25.082   4.614
23570W        W95830   6.359  14.664  12.083
23571W        W95831   5.724  43.361   3.249
23572W        W95832  35.395  12.188  14.510
23573W        W95833  30.920  38.906   0.923
23574W        W95834  19.549  34.096   2.213
23575W        W95835  34.948   4.278  11.092
23576W        W95836  10.861  42.795  14.980
23577W        W95837  21.235  24.583   5.295
23578W        W95838   2.251  16.571  13.398
23579W        W95839  39.943   6.231   2.204
23580W        W95840  34.895  24.627   2.189
23581W        W95841  39.972  12.707   4.289
23582W        W95842  30.985  39.410   2.830
23583W        W95843  19.073  16.149   4.258
23584W        W95844  35.519   7.189  14.825
23585W        W95845  11.809  37.520   4.139
23586W        W95846   4.330  22.153   0.249
23587W        W95847   6.277  33.896   3.734
23588W        W95848  30.525   4.761  12.901
23589W        W95849  38.389  34.005   4.798
23590W        W95850   7.674  17.728   1.905
23591W        W95851  14.238  32.620  11.448
23592W        W95852  22.540  35.034   4.137
23593W        W95853  44.792  37.555   0.856
23594W        W95854  23.180  35.905  14.803
23595W        W95855  28.989  29.043  13.390
23596W        W95856  25.575  29.466  14.391
23597W        W95857  38.967   6.920   0.326
23598W        W95858  37.557   6.725  12.571
23599W        W95859  42.033  12.677   0.285
23600W        W95860  28.518  41.531  14.298
23601W        W95861   4.902  18.767   2.411
23602W        W95862  19.252  13.627   3.384
23603W        W95863  19.625  22.658   2.758
23604W        W95864   2.736  38.366   0.798
23605W        W95865  43.500  12.163  14.785
23606W        W95866  42.847  16.282  14.917
23607W        W95867  19.607  12.135   4.714
23608W        W95868  13.644  22.502   2.704
23609W        W95869  34.374  41.913  12.071
23610W        W95870  24.122  37.390  10.929
23611W        W95871   1.927  33.053  11.464
23612W        W95872  39.457   0.855   3.231
23613W        W95873  28.541  15.197  11.544
23614W        W95874  18.545  12.800  14.310
23615W        W95875   0.810   5.921  13.951
23616W        W95876  12.825  11.720   2.736
23617W        W95877  33.900  21.537  12.465
23618W        W95878   9.291  29.998  11.426
23619W        W95879  41.312  15.783   2.197
23620W        W95880  33.429  22.161  10.419
23621W        W95881   1.854  26.555   4.749
23622W        W95882  28.492   3.251   1.833
23623W        W95883  11.653  36.984  12.958
23624W        W95884  43.499  37.040  10.447
23625W        W95885  10.797  39.028   1.299
23626W        W95886  29.098  32.607  12.944
23627W        W95887   0.951  43.409   0.815
23628W        W95888  11.292  24.522  13.308
23629W        W95889  17.281   1.435   3.638
23630W        W95890   6.784   9.769  11.070
23631W        W95891  41.413  42.327   3.245
23632W        W95892   3.407  26.030  10.523
23633W        W95893  22.504  39.863   3.279
23634W        W95894  27.958  23.073   0.432
23635W        W95895  10.301  24.640  12.452
23636W        W95896  40.968  30.104  14.825
23637W        W95897  21.661  32.509  13.922
23638W        W95898  32.512   1.246   2.880
23639W        W95899  11.680  28.125  11.123
23640W        W95900  42.510   2.468   3.155
23641W        W95901  22.057   2.421   0.473
23642W        W95902  36.467   9.771  13.433
23643W        W95903  29.598   1.765   0.888
23644W        W95904  15.608  19.159   0.333
23645W        W95905  10.306  26.108   2.845
23646W        W95906  29.517   1.370  13.908
23647W        W95907  11.363   6.813   2.364
23648W        W95908  15.593  33.555  14.980
23649W        W95909  39.850  26.136   2.883
23650W        W95910  16.243  14.727   1.869
23651W        W95911   2.431   3.453  11.903
23652W        W95912   6.826   4.357  11.866
23653W        W95913  21.067  15.258   2.879
23654W        W95914  31.540   1.884   4.614
23655W        W95915  44.893   9.855  10.958
23656W        W95916  40.366   8.740  12.929
23657W        W95917  40.954  29.966   4.732
23658W        W95918  19.183   9.694  11.960
23659W        W95919  40.391  23.623  10.638
23660W        W95920  35.997   0.422   1.827
23661W        W95921  37.415  43.906  10.541
23662W        W95922  34.456  14.231   4.118
23663W        W95923  34.515  35.937   4.634
23664W        W95924  38.863   3.891   1.311
23665W        W95925  38.942  35.038   2.319
23666W        W95926   0.332  38.540   1.900
23667W        W95927  38.015  43.463  14.786
23668W        W95928  30.495  17.569   2.347
23669W        W95929  11.360   2.792  12.405
23670W        W95930   3.265  11.189   3.374
23671W        W95931  17.711  20.624  13.957
23672W        W95932  40.996  18.273  11.600
23673W        W95933   8.400  15.183   3.839
23674W        W95934  17.228   5.704   0.395
23675W        W95935  12.145   1.765  11.605
23676W        W95936   1.738  34.032   2.805
23677W        W95937  24.571  25.205  14.021
23678W        W95938  36.349  30.028   3.741
23679W        W95939   3.743  26.057  12.575
23680W        W95940  31.930  17.653  12.462
23681W        W95941  31.477  15.708   0.265
23682W        W95942  29.604  17.280  10.480
23683W        W95943  21.616  36.923  13.436
23684W        W95944  21.578   9.863  11.871
23685W        W95945   2.760  21.193  11.919
23686W        W95946  19.769  20.768   1.745
23687W        W95947  25.206  33.088  14.784
23688W        W95948  19.768  20.557  11.903
23689W        W95949   0.987  43.915   2.270
23690W        W95950   9.189  38.064  14.949
23691W        W95951  25.560  33.400  11.597
23692W        W95952  10.145   8.750  11.609
23693W        W95953  21.525  35.562   0.741
23694W        W95954  30.478  32.493  11.129
23695W        W95955  36.487  21.021   1.238
23696W        W95956  14.680  11.744   5.188
23697W        W95957   9.182  10.662  14.333
23698W        W95958   4.313  23.677  14.991
23699W        W95959  42.925  42.474   4.610
23700W        W95960  22.212  34.437   2.729
23701W        W95961  12.748   3.271  13.316
23702W        W95962  40.824  20.740   4.160
23703W        W95963  21.717  20.038  10.908
23704W        W95964  14.322  34.016  12.032
23705W        W95965   0.889  15.289   0.326
23706W        W95966  28.096   1.973   5.175
23707W        W95967   4.835  10.797  14.335
23708W        W95968  44.991  21.647   0.351
23709W        W95969  30.606   9.249  12.419
23710W        W95970  39.472  40.418   2.195
23711W        W95971  15.172   1.849   2.899
23712W        W95972  16.128  26.508  13.490
23713W        W95973  41.458  28.100  10.515
23714W        W95974  30.940  32.508  11.490
23715W        W95975  19.669  37.506   1.421
23716W        W95976  37.431  32.469  11.591
23717W        W95977   9.697  19.590  14.765
23718W        W95978  31.518  26.977   3.274
23719W        W95979  42.299  38.008   3.344
23720W        W95980   9.644   3.353  11.037
23721W        W95981  36.442  34.996   5.194
23722W        W95982  26.701  18.612   2.253
23723W        W95983   0.840  15.648  13.859
23724W        W95984  13.682  32.041   4.122
23725W        W95985  41.918  27.169   0.827
23726W        W95986  24.587  21.212   2.897
23727W        W95987  38.501  18.286   1.772
23728W        W95988  32.063  20.526  11.404
23729W        W95989  19.106  11.720  13.404
23730W        W95990  32.461   6.721   0.815
23731W        W95991  43.488  41.921   4.341
23732W        W95992  39.497  16.199   0.833
23733W        W95993  13.678  20.742  12.962
23734W        W95994  15.277  43.790  11.493
23735W        W95995   7.682   4.768  12.854
23736W        W95996  16.146  13.342   1.319
23737W        W95997  25.082  11.763  11.562
23738W        W95998  21.093  31.081   3.279
23739W        W95999  22.666  42.289   4.728
23740W        W96000  23.043  31.959   1.825
23741W        W96001   4.385  37.576   0.290
23742W        W96002  43.280   6.890   3.647
23743W        W96003  38.048  42.884  10.427
23744W        W96004  44.833  20.178   1.834
23745W        W96005   1.887  34.401  14.837
23746W        W96006  29.641   4.341   1.695
23747W        W96007  44.295   6.700  13.872
23748W        W96008  16.720  34.500  12.477
23749W        W96009   3.451  20.707   2.810
23750W        W96010  31.080   9.712   4.712
23751W        W96011   2.934   2.830  11.507
23752W        W96012  37.555  16.090  12.407
23753W        W96013  12.149   5.832   1.886
23754W        W96014  39.949   8.858  13.793
23755W        W96015  33.061  32.604   3.167
23756W        W96016  40.938  34.961  14.819
23757W        W96017  36.014  34.933   4.753
23758W        W96018   8.336  43.321  12.849
23759W        W96019  20.581  39.970  13.991
23760W        W96020   4.855  33.434   2.828
23761W        W96021   3.444  13.222  11.375
23762W        W96022  18.550  35.994  11.563
23763W        W96023  16.100   4.708   2.685
23764W        W96024  12.228  22.158  14.842
23765W        W96025   1.769  12.131   3.348
23766W        W96026   5.371   6.912   4.641
23767W        W96027  23.987  30.589   1.894
23768W        W96028   8.186  25.469  14.874
23769W        W96029  30.416   3.844   2.354
23770W        W96030   2.273  28.660   4.289
23771W        W96031   5.908   7.672   3.256
23772W        W96032   0.748  19.042  12.905
23773W        W96033  22.608  40.044   9.956
23774W        W96034   0.976   5.350   2.405
23775W        W96035  10.694   3.904   3.845
23776W        W96036  22.210  20.704   2.728
23777W        W96037  27.540  21.585  10.979
23778W        W96038  24.071  12.776   0.285
23779W        W96039  40.811  14.290  11.008
23780W        W96040  22.016   9.860  14.808
23781W        W96041  19.079   9.202   9.934
23782W        W96042   4.300  14.672  10.592
23783W        W96043  11.803   7.710  12.513
23784W        W96044   0.812  44.327  11.871
23785W        W96045  35.888   3.788  11.093
23786W        W96046  38.899  25.142   3.315
23787W        W96047  28.503  19.216  13.374
23788W        W96048   0.750  25.598   2.850
23789W        W96049   0.346  34.082  13.875
23790W        W96050   3.786  20.058   1.398
23791W        W96051  43.408  34.965  14.477
23792W        W96052  36.411   2.409  13.457
23793W        W96053  17.062  26.144  10.975
23794W        W96054  30.114  36.432   4.239
23795W        W96055  26.177  34.566   2.883
23796W        W96056  28.447  22.609   3.834
23797W        W96057  12.311  30.559   0.776
23798W        W96058  41.943   4.794   2.230
23799W        W96059   6.186  24.121   0.732
23800W        W96060  35.374  15.712   3.261
23801W        W96061  23.104  34.033   2.760
23802W        W96062  28.003   5.854  13.314
23803W        W96063  19.540  31.554   4.147
23804W        W96064  29.144  30.517   2.823
23805W        W96065  17.656  14.172   3.177
23806W        W96066  35.458   7.374   4.642
23807W        W96067  35.528  34.515   4.615
23808W        W96068  20.674  29.602   2.285
23809W        W96069  22.067  28.029   5.734
23810W        W96070  18.676  35.107   0.877
23811W        W96071  42.985  36.536   4.680
23812W        W96072   9.822  40.476  14.313
23813W        W96073   2.304  19.664   3.706
23814W        W96074  38.928  42.985  14.341
23815W        W96075   0.940  10.736  11.602
23816W        W96076   5.897  20.551  13.421
23817W        W96077   9.772  22.680   3.307
23818W        W96078   1.897   2.354   4.633
23819W        W96079  18.161  28.500  13.817
23820W        W96080  17.769   1.871   2.887
23821W        W96081  18.659  15.241   2.241
23822W        W96082   5.223  17.217  10.502
23823W        W96083  40.801  22.056  13.391
23824W        W96084  21.648  35.496  13.026
23825W        W96085   9.356  37.416  14.410
23826W        W96086  22.686   2.927   1.805
23827W        W96087  29.137  37.075   1.704
23828W        W96088  39.560  35.382  10.912
23829W        W96089  43.505  37.853   2.342
23830W        W96090  10.160  13.183  11.063
23831W        W96091  38.405  31.022  14.428
23832W        W96092   9.669  35.548   2.233
23833W        W96093   9.236   6.223   1.263
23834W        W96094  39.534  40.396   1.836
23835W        W96095  44.005  15.783  10.492
23836W        W96096  21.132  19.210  10.542
23837W        W96097  28.614  43.406   2.705
23838W        W96098   1.909  29.491  11.564
23839W        W96099  43.787  11.824  13.313
23840W        W96100  12.821  42.784  14.411
23841W        W96101  24.006   8.867  11.966
23842W        W96102  28.086  38.539   1.325
23843W        W96103  19.701   0.442   3.385
23844W        W96104  36.364  24.053   1.219
23845W        W96105  16.709  33.438   2.851
23846W        W96106  32.525  29.130  10.631
23847W        W96107  38.489  12.298  14.370
23848W        W96108   1.858  15.789  13.954
23849W        W96109   0.297  18.699   0.785
23850W        W96110  13.714  12.801  13.879
23851W        W96111   2.469   8.294   3.153
23852W        W96112  21.737   1.393  12.886
23853W        W96113  40.421  19.095  12.495
23854W        W96114  14.336   6.752   3.842
23855W        W96115  38.363  14.274   0.302
23856W        W96116  15.292  13.204  13.881
23857W        W96117  10.381  15.670  13.388
23858W        W96118  15.105  23.719   0.743
23859W        W96119  30.060  41.891  13.948
23860W        W96120   1.360   7.699   1.719
23861W        W96121  38.844  19.154  12.926
23862W        W96122   0.838  37.080  11.487
23863W        W96123   1.265  34.445  13.836
23864W        W96124  35.551  15.224   4.235
23865W        W96125   3.840  26.110   4.607
23866W        W96126  32.946  40.920  13.902
23867W        W96127  43.868   6.712   4.650
23868W        W96128  35.512  19.235  11.930
23869W        W96129  21.156  22.119   2.709
23870W        W96130  39.983  12.674  12.537
23871W        W96131  38.401  32.510   0.278
23872W        W96132  31.028  44.833  11.465
23873W        W96133  31.428   3.778   2.260
23874W        W96134  33.546  34.982  14.403
23875W        W96135  30.569   7.899   4.340
23876W        W96136   2.754  33.957  12.446
23877W        W96137   9.201   7.814  14.007
23878W        W96138  21.751  35.364  13.903
23879W        W96139  18.232  13.211  12.905
23880W        W96140  24.691  18.282   2.842
23881W        W96141  44.454   5.766  11.043
23882W        W96142  44.828  32.421   2.204
23883W        W96143  20.216  34.025   4.671
23884W        W96144  34.546  28.111  10.976
23885W        W96145  28.085  40.012   1.848
23886W        W96146  11.159   4.755   2.197
23887W        W96147  35.061  38.909  14.821
23888W        W96148  30.606  31.626  12.912
23889W        W96149  27.959  25.614   2.857
23890W        W96150  20.048  39.809  12.379
23891W        W96151   2.950  38.990  11.976
23892W        W96152   8.800  29.448  13.436
23893W        W96153   9.650  15.177   3.242
23894W        W96154  35.442  31.474  11.974
23895W        W96155  19.050  37.388  13.502
23896W        W96156  27.046  32.103   4.224
23897W        W96157  14.628  43.765  12.933
23898W        W96158  28.114  43.968   3.668
23899W        W96159  24.587   9.209   3.326
23900W        W96160  26.187  15.186   3.774
23901W        W96161  11.143  12.126   4.263
23902W        W96162  38.527  29.518   2.277
23903W        W96163  36.051  18.783   5.244
23904W        W96164  43.352  26.008  11.494
23905W        W96165   9.226  33.917   0.390
23906W        W96166  29.032  34.483  14.491
23907W        W96167   1.779   0.295   3.666
23908W        W96168  30.036  44.957   0.356
23909W        W96169  44.501  16.584   1.840
23910W        W96170  13.267  26.657   0.866
23911W        W96171  43.011  40.845  12.058
23912W        W96172  40.338  20.754   4.298
23913W        W96173  35.009  42.798   1.926
23914W        W96174  41.906   1.840  13.841
23915W        W96175  19.634  36.443  12.510
23916W        W96176  37.965   8.749  14.867
23917W        W96177  22.649   9.197  13.338
23918W        W96178  19.131   7.727  10.529
23919W        W96179   0.357  43.897  12.087
23920W        W96180  25.981  10.240   1.784
23921W        W96181   7.908  22.186  13.840
23922W        W96182  44.372  42.012   2.779
23923W        W96183  20.142  16.290  13.035
23924W        W96184  40.028  16.285  14.843
23925W        W96185  28.014  16.746   3.700
23926W        W96186   3.916   9.171   0.317
23927W        W96187  32.564  41.899   0.821
23928W        W96188   5.209  40.368  14.400
23929W        W96189   0.953  16.124   2.723
23930W        W96190  41.813  25.098   5.217
23931W        W96191  20.668  11.231  12.877
23932W        W96192  26.607  19.566  11.528
23933W        W96193  34.907  27.047  10.571
23934W        W96194  20.161  16.206   4.828
23935W        W96195   6.877  39.061  13.026
23936W        W96196  13.831   9.173  10.599
23937W        W96197  27.580  12.678   4.647
23938W        W96198  33.457  18.571   0.350
23939W        W96199  41.890  17.776  10.992
23940W        W96200  30.434   3.240  10.951
23941W        W96201  28.034  41.929  11.858
23942W        W96202  32.528  42.783   3.158
23943W        W96203   0.791  22.253   4.341
23944W        W96204  39.900  41.507   3.669
23945W        W96205  18.635  14.651   1.917
23946W        W96206  34.545  42.991   0.849
23947W        W96207  11.356   6.881  12.008
23948W        W96208  13.623  38.070  11.957
23949W        W96209  24.097  27.173   5.212
23950W        W96210  26.460  25.472   3.333
23951W        W96211  35.930   0.450   3.308
23952W        W96212  10.256  20.647   2.874
23953W        W96213   5.318  20.536   2.705
23954W        W96214  37.490   5.792   3.701
23955W        W96215  40.459  40.940  10.433
23956W        W96216  17.207  22.165   3.245
23957W        W96217  39.043  12.718   2.330
23958W        W96218   5.780   2.353  14.361
23959W        W96219   8.304   5.734   1.304
23960W        W96220  23.072  22.533  11.976
23961W        W96221  13.224  24.064   1.442
23962W        W96222  31.644  15.682   3.857
23963W        W96223  17.282  19.705  10.901
23964W        W96224   4.731  37.968  12.415
23965W        W96225  29.502  17.596   4.763
23966W        W96226  39.344   4.435  14.898
23967W        W96227  20.669  24.717   1.787
23968W        W96228  16.273  23.239   2.210
23969W        W96229  27.632  27.449   1.734
23970W        W96230   2.930  19.207  13.439
23971W        W96231  22.224   7.763   0.350
23972W        W96232   3.822  20.217  13.852
23973W        W96233   8.271  13.711  10.456
23974W        W96234  32.583  35.070  12.342
23975W        W96235   1.808  20.028  10.448
23976W        W96236  44.821  29.926   2.859
23977W        W96237   4.380  37.845  13.004
23978W        W96238  37.460  41.826   1.925
23979W        W96239   6.408   5.755   3.260
23980W        W96240  16.097  43.514  10.411
23981W        W96241  36.965  29.428   3.751
23982W        W96242  12.196   5.349   1.902
23983W        W96243   0.945  23.701   4.261
23984W        W96244  21.748  12.807  12.979
23985W        W96245  23.684  29.603   4.817
23986W        W96246  37.377  23.139  10.952
23987W        W96247  20.121   0.402   1.747
23988W        W96248  15.697   2.942  12.996
23989W        W96249  43.306  24.000  10.632
23990W        W96250  18.599   8.239   2.396
23991W        W96251  19.074  34.614  12.981
23992W        W96252  14.724   7.704  14.031
23993W        W96253  25.043  14.627  13.476
23994W        W96254   5.886   6.287  13.011
23995W        W96255   8.357  11.808  11.962
23996W        W96256  16.655  15.285  10.132
23997W        W96257  30.964   6.310  11.092
23998W        W96258  31.120  27.534   2.185
23999W        W96259   9.168  21.232   4.261
24000W        W96260  21.694   7.285   3.845
24001W        W96261  37.388   5.309  12.488
24002W        W96262   0.784  31.603  12.579
24003W        W96263   2.857   8.808   1.788
24004W        W96264  12.334  27.486   2.899
24005W        W96265  37.981  35.860  10.900
24006W        W96266  11.231  38.075   0.922
24007W        W96267  12.804  16.193  13.942
24008W        W96268  16.142  14.654  13.934
24009W        W96269  39.945  30.021  14.960
24010W        W96270  43.486  43.398  12.888
24011W        W96271  40.808  26.018   3.234
24012W        W96272  34.896  37.077  14.955
24013W        W96273  15.588   5.689  13.312
24014W        W96274  17.303   8.683   3.286
24015W        W96275  33.461  12.234   1.929
24016W        W96276  19.739  33.609  10.888
24017W        W96277  26.079  38.551   1.444
24018W        W96278  38.333   9.738   2.302
24019W        W96279  15.694  38.404   3.346
24020W        W96280  13.152  20.565   2.811
24021W        W96281  23.726  14.257   2.307
24022W        W96282  38.450  42.012   1.222
24023W        W96283  42.393  22.562  12.879
24024W        W96284   6.338  10.669  10.562
24025W        W96285  39.451  29.462  12.019
24026W        W96286  10.773  15.236   3.373
24027W        W96287  18.104  37.458  12.379
24028W        W96288  14.296  19.561  11.398
24029W        W96289   7.796  11.709   0.254
24030W        W96290   2.886  13.275   1.709
24031W        W96291  32.984  30.004   1.265
24032W        W96292  18.197   5.207   3.378
24033W        W96293  31.495   9.183  11.068
24034W        W96294  12.846  32.058  10.632
24035W        W96295  39.320  17.183   1.861
24036W        W96296  43.429  44.802   3.318
24037W        W96297  24.070  14.334   9.935
24038W        W96298   2.335  20.253  13.860
24039W        W96299  30.054  16.140   0.297
24040W        W96300  12.298  21.708  12.533
24041W        W96301  43.970   1.302  13.527
24042W        W96302  23.696   0.486   0.918
24043W        W96303  34.057  16.288  12.086
24044W        W96304  35.423  22.224  14.384
24045W        W96305  32.966  26.055   3.346
24046W        W96306  44.788  32.094   2.797
24047W        W96307   4.378  25.986  13.503
24048W        W96308  18.233  16.243   2.780
24049W        W96309   6.885  42.852   4.625
24050W        W96310   1.848  26.003  11.015
24051W        W96311  16.212  36.542   1.737
24052W        W96312  16.769  41.825   1.714
24053W        W96313  39.049  38.927  14.889
24054W        W96314  39.541  29.091   0.915
24055W        W96315  14.782  28.040  13.417
24056W        W96316  19.698   3.881   2.662
24057W        W96317  41.462  14.695   3.759
24058W        W96318   3.735  13.344  13.446
24059W        W96319   4.307   4.217  12.554
24060W        W96320   0.447  42.442   3.737
24061W        W96321  12.673  26.571  14.960
24062W        W96322  12.239   7.683   0.906
24063W        W96323  32.583   0.253   2.872
24064W        W96324  13.265  24.049  12.517
24065W        W96325  34.385  11.656   0.766
24066W        W96326   8.280  43.386  14.782
24067W        W96327  24.508  31.898  14.859
24068W        W96328  17.150  13.127   2.708
24069W        W96329   2.874  40.535   4.744
24070W        W96330  20.695  39.926  12.989
24071W        W96331  22.616  26.102   1.427
24072W        W96332  10.731  41.008   0.254
24073W        W96333  16.205  40.951   0.822
24074W        W96334  10.837  16.252  11.975
24075W        W96335  23.711   3.794  11.003
24076W        W96336  38.856  13.732  13.375
24077W        W96337  23.210   1.913   2.338
24078W        W96338  11.203  15.307  14.876
24079W        W96339  24.124  31.098  14.464
24080W        W96340   5.255  38.360   3.222
24081W        W96341  21.715   5.416   2.697
24082W        W96342  10.203   6.846  13.002
24083W        W96343  32.635  18.181  14.357
24084W        W96344  19.695  40.313  14.988
24085W        W96345   1.746  29.582   4.264
24086W        W96346  35.059   3.812  11.022
24087W        W96347  29.573  15.622   4.722
24088W        W96348  19.689  29.153   1.906
24089W        W96349  29.935  39.961   0.426
24090W        W96350  28.662  32.409   2.864
24091W        W96351   0.356  44.894  13.357
24092W        W96352   6.342   9.337  12.045
24093W        W96353  42.810  25.127   0.414
24094W        W96354  21.681   7.824  12.086
24095W        W96355  34.418  26.147   0.923
24096W        W96356  27.010  39.007  12.366
24097W        W96357  30.481  34.430   2.298
24098W        W96358  18.784  41.957  13.033
24099W        W96359   6.837  37.919  14.788
24100W        W96360  35.379  29.593  14.850
24101W        W96361  32.990  32.960   2.361
24102W        W96362   2.945  24.174   1.714
24103W        W96363  19.773  21.032  14.325
24104W        W96364  28.055   0.396  12.975
24105W        W96365  32.119   4.229  10.431
24106W        W96366  31.898   5.270   1.704
24107W        W96367  14.812   2.951  12.459
24108W        W96368  24.644  14.709   1.440
24109W        W96369  34.942  24.133  10.067
24110W        W96370  39.840   8.164   0.847
24111W        W96371  27.177  38.974   4.296
24112W        W96372  10.373  31.121  13.908
24113W        W96373  42.355   1.969   0.916
24114W        W96374  29.516   1.907  13.910
24115W        W96375  28.164  23.554  11.385
24116W        W96376   4.291  17.574   0.459
24117W        W96377  39.505   4.878  10.615
24118W        W96378  43.934  43.764   3.241
24119W        W96379   3.433  41.483   2.218
24120W        W96380  37.409  23.510   4.795
24121W        W96381  44.290  18.782  14.406
24122W        W96382  17.206   7.318   2.788
24123W        W96383   8.721   1.897  12.908
24124W        W96384   5.251  29.025  10.507
24125W        W96385  42.422   0.356  13.478
24126W        W96386  36.008  20.710   2.679
24127W        W96387  35.483  28.535  12.576
24128W        W96388   7.348  14.730  11.885
24129W        W96389   9.267   1.906   0.358
24130W        W96390  17.094  31.528   4.184
24131W        W96391  30.164  44.501  11.455
24132W        W96392  38.073  40.331  11.095
24133W        W96393  33.398   8.750   0.727
24134W        W96394  36.948  11.820  11.374
24135W        W96395   0.885  34.478  14.956
24136W        W96396   1.961  18.181  13.874
24137W        W96397  18.246  41.922   2.765
24138W        W96398  17.775  13.236   0.409
24139W        W96399  33.552   3.331   0.907
24140W        W96400  18.557   8.757   1.290
24141W        W96401   3.235  34.898  13.910
24142W        W96402  31.101  31.570   0.876
24143W        W96403   8.253  23.498   3.243
24144W        W96404  33.566  36.979  13.952
24145W        W96405  20.036  43.792   1.919
24146W        W96406   1.447  25.105   2.694
24147W        W96407  32.524   7.369   1.345
24148W        W96408  36.556  30.916   4.724
24149W        W96409  34.966  30.489   4.722
24150W        W96410  15.114  28.661   2.381
24151W        W96411   4.387  16.082  10.508
24152W        W96412  33.408  29.517  14.903
24153W        W96413  39.992  16.777   2.339
24154W        W96414  17.157  25.508   1.379
24155W        W96415   1.919   5.877  12.886
24156W        W96416  25.215   6.210   0.964
24157W        W96417  16.093  40.458  13.812
24158W        W96418  43.772  17.763   0.919
24159W        W96419  34.965  21.195  10.064
24160W        W96420  44.378  44.364   0.905
24161W        W96421   9.799  37.974   4.741
24162W        W96422  30.040   3.324  13.930
24163W        W96423  32.494  21.550  11.554
24164W        W96424  38.481   9.208  13.928
24165W        W96425   1.243   6.770  11.995
24166W        W96426  14.118  33.567   2.844
24167W        W96427  27.949  29.053  12.543
24168W        W96428  10.651  10.143   3.349
24169W        W96429  11.665  12.174  11.957
24170W        W96430  11.771  32.903   4.656
24171W        W96431  38.942  31.566  14.986
24172W        W96432  11.779  11.702  13.476
24173W        W96433  15.752  26.163   4.277
24174W        W96434  32.565  30.976  11.967
24175W        W96435  42.292   2.831  11.550
24176W        W96436  13.126  42.411  13.337
24177W        W96437  24.981  23.230  11.121
24178W        W96438   5.322  27.966   5.146
24179W        W96439   8.885  16.306  12.854
24180W        W96440  24.712   4.844  11.516
24181W        W96441   0.965   7.783  10.629
24182W        W96442  18.684  44.004   4.751
24183W        W96443  30.454  35.926   2.320
24184W        W96444  25.474  20.053  10.428
24185W        W96445  38.455  38.048   1.858
24186W        W96446  33.601  41.421   1.211
24187W        W96447   0.884   9.221  12.475
24188W        W96448  44.979   8.829   1.419
24189W        W96449   2.927  42.505  12.894
24190W        W96450  30.000  30.953   0.433
24191W        W96451  43.315   6.805  10.568
24192W        W96452   6.901  30.641  13.859
24193W        W96453  10.306   1.796   0.752
24194W        W96454   9.651   6.273   2.250
24195W        W96455   9.782  44.442   4.308
24196W        W96456   7.897  25.997  10.505
24197W        W96457   5.307  44.498   0.321
24198W        W96458  35.997  44.880  12.036
24199W        W96459  10.149  31.640  11.516
24200W        W96460  25.698  15.291  13.387
24201W        W96461  30.020  34.002   2.359
24202W        W96462  20.752  34.986   1.727
24203W        W96463  26.056  27.058  10.582
24204W        W96464   7.897   4.876   1.904
24205W        W96465  25.514  30.124  14.906
24206W        W96466  38.008   6.736   0.800
24207W        W96467  39.934  36.529   0.379
24208W        W96468  19.168  12.272   3.260
24209W        W96469  14.206  15.679   2.833
24210W        W96470  38.919  12.176   3.780
24211W        W96471  15.644  28.985  11.985
24212W        W96472  24.724  17.600   2.901
24213W        W96473   0.270  34.088   1.243
24214W        W96474  43.407  35.419   4.185
24215W        W96475  27.628  22.229   2.711
24216W        W96476  11.775  21.516  14.410
24217W        W96477  39.867  13.723   1.747
24218W        W96478   1.248   5.385  12.410
24219W        W96479  15.323  29.176   1.829
24220W        W96480   2.434  41.443  12.508
24221W        W96481  23.733  42.928  12.451
24222W        W96482  26.653   6.770   4.261
24223W        W96483   6.701   4.813   1.236
24224W        W96484  11.208  30.927   2.253
24225W        W96485  28.076  35.998  13.352
24226W        W96486  36.526  10.329  10.592
24227W        W96487  25.566  15.151   1.741
24228W        W96488   4.249  22.231  13.877
24229W        W96489  34.376  28.604  10.975
24230W        W96490   5.846  30.630  11.953
24231W        W96491  28.108  12.740   5.210
24232W        W96492  25.123  35.094  12.076
24233W        W96493  37.943  38.552   3.854
24234W        W96494   5.838   9.318   3.648
24235W        W96495  28.555  43.329  13.439
24236W        W96496  40.523   3.791  10.571
24237W        W96497   7.778  11.748  12.982
24238W        W96498   2.339   1.260  10.969
24239W        W96499   7.182   0.908   0.327
24240W        W96500  44.472  33.411   1.788
24241W        W96501   2.764  35.856  13.026
24242W        W96502  16.579  24.516   1.236
24243W        W96503  33.123   7.826   4.224
24244W        W96504  27.079  16.608   3.754
24245W        W96505  24.654  12.214  11.546
24246W        W96506   2.827  18.649   0.333
24247W        W96507   2.810   3.335  11.590
24248W        W96508  35.999  38.365   2.196
24249W        W96509  40.522   4.391   0.433
24250W        W96510  26.957  13.194   0.966
24251W        W96511   2.873  25.497   2.666
24252W        W96512   7.694  15.798   0.482
24253W        W96513   7.685   9.763   3.209
24254W        W96514   8.291   1.767  12.489
24255W        W96515  19.138  42.298  12.543
24256W        W96516  39.004   3.779  14.384
24257W        W96517  19.223  35.374  12.575
24258W        W96518  12.355  12.618   4.734
24259W        W96519  15.701  30.640   3.149
24260W        W96520  37.930  21.032   3.163
24261W        W96521  11.237  21.590  13.454
24262W        W96522  13.119  42.443  10.457
24263W        W96523  30.914  10.244  13.968
24264W        W96524  43.021  24.156   1.411
24265W        W96525  28.959  31.450   9.963
24266W        W96526  17.111  41.457  14.849
24267W        W96527  41.855   4.881  10.126
24268W        W96528  31.038   2.843  11.430
24269W        W96529  41.314  43.505  13.315
24270W        W96530  34.486  16.220   0.779
24271W        W96531   0.885  39.419   1.710
24272W        W96532   1.461   1.967  14.309
24273W        W96533   5.742  31.048  13.375
24274W        W96534  37.445  41.020   4.196
24275W        W96535   5.343  21.740   3.306
24276W        W96536  30.639  18.268  12.838
24277W        W96537  16.283  37.851   4.726
24278W        W96538  23.116  37.056  10.420
24279W        W96539  19.040   2.341  10.627
24280W        W96540  23.126  29.026   0.284
24281W        W96541  16.626  34.595   4.815
24282W        W96542  42.946  34.959   0.797
24283W        W96543  14.783  33.615  10.079
24284W        W96544   6.744  38.015  10.500
24285W        W96545  15.739  25.676   1.433
24286W        W96546  15.246  33.556  14.494
24287W        W96547   5.883   2.448   2.321
24288W        W96548  44.785  33.940  11.881
24289W        W96549  16.174  34.605  13.958
24290W        W96550  39.901  42.799  12.551
24291W        W96551   5.720  33.478   1.815
24292W        W96552   4.798  25.704  12.482
24293W        W96553  39.536  26.184  12.440
24294W        W96554  27.094   1.962  14.974
24295W        W96555  16.138  20.740   3.150
24296W        W96556  19.122  23.707   2.732
24297W        W96557   2.818   8.295  14.292
24298W        W96558  23.520  12.688   4.687
24299W        W96559  20.675   3.855  10.503
24300W        W96560  19.698  43.834  12.430
24301W        W96561  18.283   6.363   0.897
24302W        W96562  13.266  18.297   0.277
24303W        W96563  19.190  23.161  12.378
24304W        W96564  39.837  10.171   4.121
24305W        W96565  32.972  40.018   2.366
24306W        W96566   7.415  41.534  10.422
24307W        W96567  36.994  22.660  13.530
24308W        W96568   3.929  15.662   0.843
24309W        W96569   7.872  11.635  12.469
24310W        W96570  12.208  10.721   2.408
24311W        W96571  29.470   1.875  14.295
24312W        W96572   1.954  22.179   1.907
24313W        W96573   8.747  26.561   1.702
24314W        W96574  15.725   3.275  14.319
24315W        W96575  34.478  17.101   1.291
24316W        W96576  44.863  32.074   3.313
24317W        W96577   6.760  25.623  12.481
24318W        W96578  20.712   9.858  12.000
24319W        W96579  23.490   1.757   0.432
24320W        W96580  13.812  32.983   2.697
24321W        W96581  15.697  14.648  10.465
24322W        W96582  19.606  20.167   4.836
24323W        W96583  29.038  34.113   4.781
24324W        W96584   7.281   0.787   2.751
24325W        W96585  31.053  14.747  11.970
24326W        W96586  19.271  26.478   2.740
24327W        W96587  41.958  25.662   2.829
24328W        W96588  30.640   0.493   3.841
24329W        W96589  26.134  39.530   0.920
24330W        W96590  26.999  21.616  12.436
24331W        W96591  16.792  30.529   4.669
24332W        W96592  17.796  34.075   1.299
24333W        W96593  14.115  35.854  14.835
24334W        W96594   7.866   3.218  13.805
24335W        W96595  25.533  42.919  12.565
24336W        W96596   3.889  38.848  14.857
24337W        W96597  24.984  30.028   2.212
24338W        W96598  16.786  18.546   0.359
24339W        W96599  29.613  11.830   1.698
24340W        W96600  37.569  14.283   2.200
24341W        W96601  39.924   2.855   0.474
24342W        W96602  36.079  14.217  11.474
24343W        W96603  10.655  12.345   3.710
24344W        W96604  27.070   0.869   0.370
24345W        W96605  38.001   3.925  11.511
24346W        W96606  17.726  29.974  13.501
24347W        W96607   8.381  33.014   3.301
24348W        W96608   8.773  15.618  11.382
24349W        W96609   6.201  19.629   4.354
24350W        W96610  17.259  17.182  11.522
24351W        W96611  36.944  24.671  12.905
24352W        W96612  22.721  25.552   0.865
24353W        W96613   6.207  41.852   0.893
24354W        W96614  17.774  37.366   4.135
24355W        W96615  11.270  14.184   0.479
24356W        W96616  27.061  35.921  14.404
24357W        W96617  10.737  11.764   0.293
24358W        W96618   3.787  31.496  10.925
24359W        W96619  14.214  39.955   3.867
24360W        W96620  22.652  25.659  10.053
24361W        W96621  37.359   8.883   0.875
24362W        W96622   3.717  23.673   2.290
24363W        W96623  35.098  31.431   4.239
24364W        W96624  16.758  21.100   0.946
24365W        W96625  36.881  38.354  12.880
24366W        W96626  41.533  30.610   3.744
24367W        W96627  26.658  29.064  11.892
24368W        W96628   7.267  24.031  11.451
24369W        W96629   7.374  25.043  10.494
24370W        W96630  40.303  36.399  11.926
24371W        W96631  10.654  19.123   0.469
24372W        W96632   2.860  40.808  10.452
24373W        W96633  18.702  10.653  14.895
24374W        W96634  30.469   5.868   3.211
24375W        W96635  22.705  26.622  12.500
24376W        W96636  43.954   4.317  12.434
24377W        W96637  44.976  27.659  12.359
24378W        W96638   7.806   9.345   0.863
24379W        W96639  33.623  21.568  14.453
24380W        W96640  14.820  43.496  12.418
24381W        W96641  44.970  25.513  10.911
24382W        W96642  18.271   0.983  14.801
24383W        W96643  41.537  20.674   4.632
24384W        W96644  24.079  22.615   4.126
24385W        W96645  17.116   5.901   3.853
24386W        W96646  14.799   4.331   4.686
24387W        W96647   7.330  43.331   3.840
24388W        W96648  14.320  10.138  13.505
24389W        W96649   4.817  23.184  14.322
24390W        W96650  16.568  38.035  11.495
24391W        W96651   2.785   6.807   4.630
24392W        W96652   8.274  32.595  11.433
24393W        W96653  38.009  22.212   2.358
24394W        W96654  34.377  39.356  10.606
24395W        W96655   4.823  17.234  12.001
24396W        W96656  37.353  28.044  11.958
24397W        W96657  17.714  10.303   1.820
24398W        W96658  27.550  19.710  13.393
24399W        W96659   6.775  19.224   0.472
24400W        W96660   2.463   4.847  11.900
24401W        W96661  42.019  23.184  11.455
24402W        W96662  35.982  22.142  13.050
24403W        W96663  20.537  17.173  14.766
24404W        W96664  13.346  18.567  10.454
24405W        W96665  42.387   5.295  11.893
24406W        W96666  18.137  14.627  12.910
24407W        W96667  43.994  38.956   3.358
24408W        W96668  30.557  14.635   1.222
24409W        W96669  23.177  24.625   1.365
24410W        W96670  40.928  25.040  11.095
24411W        W96671  26.573  33.057   4.148
24412W        W96672  16.687  29.582   0.319
24413W        W96673   2.946  23.588   0.418
24414W        W96674  18.079  36.961   3.152
24415W        W96675  36.067  29.481   2.682
24416W        W96676   0.487   6.182   4.221
24417W        W96677  18.700  36.050  13.477
24418W        W96678  17.700  22.503   2.850
24419W        W96679  40.876  24.609  12.026
24420W        W96680  16.579  28.534  13.330
24421W        W96681  20.740  17.249  12.438
24422W        W96682  38.017  12.820  11.077
24423W        W96683  15.783  21.548  14.010
24424W        W96684  37.068  22.729   0.790
24425W        W96685  32.556  11.685   2.193
24426W        W96686   6.751  34.413  12.864
24427W        W96687  37.509  42.862  10.624
24428W        W96688  27.027  31.529   4.815
24429W        W96689  16.233  13.281  13.444
24430W        W96690  35.890  40.484   1.786
24431W        W96691   2.839  44.455  14.903
24432W        W96692  24.202  28.164   1.876
24433W        W96693  41.423  12.813  14.002
24434W        W96694  20.112  42.812   4.318
24435W        W96695  14.800  11.686   9.968
24436W        W96696  34.513   8.793   1.923
24437W        W96697  10.191  29.593  14.020
24438W        W96698  30.064   8.815  12.861
24439W        W96699  20.768  33.616   4.809
24440W        W96700  10.168   0.800  12.366
24441W        W96701  11.228   5.287   4.683
24442W        W96702  21.026  29.154   0.273
24443W        W96703   6.701  41.384   0.269
24444W        W96704  14.802   2.293   1.766
24445W        W96705  21.689  28.612   1.899
24446W        W96706  12.636  31.122  10.538
24447W        W96707  34.440  30.553  11.380
24448W        W96708  21.570  21.143   4.257
24449W        W96709  30.056  23.005  13.985
24450W        W96710  35.525  31.634   0.873
24451W        W96711   2.431  24.707  12.341
24452W        W96712  44.936  21.585   2.261
24453W        W96713  22.645  25.591   9.642
24454W        W96714  38.442  10.870  12.003
24455W        W96715   9.694  19.248   0.395
24456W        W96716   1.437  14.218  13.941
24457W        W96717  26.033  16.703  11.118
24458W        W96718  16.766  14.200   2.352
24459W        W96719   0.978   9.352  13.367
24460W        W96720   6.887  19.774   3.208
24461W        W96721  30.102  30.930  12.518
24462W        W96722  20.698  22.997   1.860
24463W        W96723  13.264  15.224   5.777
24464W        W96724  13.766  12.357  14.901
24465W        W96725  43.461  24.141   0.440
24466W        W96726   4.366  38.365   0.917
24467W        W96727  31.599   3.838   3.812
24468W        W96728  42.365  32.996   1.404
24469W        W96729   0.371  20.740   2.285
24470W        W96730   9.224   9.798  10.988
24471W        W96731  42.790  25.668   1.908
24472W        W96732  32.444  24.506  11.958
24473W        W96733  42.452   9.273   3.673
24474W        W96734  16.758  19.724   3.251
24475W        W96735  25.215  23.666  12.361
24476W        W96736   7.317  44.799   0.444
24477W        W96737   9.687  21.074  10.955
24478W        W96738   9.701  19.704  10.996
24479W        W96739  17.281  33.058  13.960
24480W        W96740  25.626  27.085  12.490
24481W        W96741  33.900  26.009  14.309
24482W        W96742  16.163  21.646   1.838
24483W        W96743   8.852  16.090   0.924
24484W        W96744  28.532  41.801  13.921
24485W        W96745   0.473   6.259  14.997
24486W        W96746  24.640  37.391   0.956
24487W        W96747  36.857   1.446   1.227
24488W        W96748  27.961  21.537  13.036
24489W        W96749  39.370  35.514  12.373
24490W        W96750   1.866  31.054   0.355
24491W        W96751   6.194   8.326  12.889
24492W        W96752  23.095  31.066   4.702
24493W        W96753   6.754  41.407   4.684
24494W        W96754   4.751  31.483  10.984
24495W        W96755  16.123   7.327  14.798
24496W        W96756  28.988  41.313   1.237
24497W        W96757   3.219  18.239   2.712
24498W        W96758  38.819  38.041   4.262
24499W        W96759   0.934  43.791  13.490
24500W        W96760  36.968  13.183  10.576
24501W        W96761   2.795   8.770   2.222
24502W        W96762   5.832   2.230   3.310
24503W        W96763   4.767   1.483  13.484
24504W        W96764  15.247   6.835   0.259
24505W        W96765   5.896  13.209  11.479
24506W        W96766  34.389  19.771  11.007
24507W        W96767  29.150   4.895  14.004
24508W        W96768  38.840   9.830  14.376
24509W        W96769  42.878   2.749  12.907
24510W        W96770  11.247   3.812  10.584
24511W        W96771   7.338  20.204  14.828
24512W        W96772  40.989  37.886  11.043
24513W        W96773  26.963   5.218  13.875
24514W        W96774  43.461  38.360  12.844
24515W        W96775  18.140  18.558   3.829
24516W        W96776  32.523  43.404   4.810
24517W        W96777  22.150   9.858   2.371
24518W        W96778  24.191  43.870  11.107
24519W        W96779  18.661   8.885   0.734
24520W        W96780  33.572  19.254   0.865
24521W        W96781  12.319  30.639   1.763
24522W        W96782  42.783  16.298  11.386
24523W        W96783  18.106   6.355   4.643
24524W        W96784  16.171  15.254  12.348
24525W        W96785  35.541  31.144  14.759
24526W        W96786  30.020  29.169   0.781
24527W        W96787  26.553   7.335  13.883
24528W        W96788  22.224  20.690   5.100
24529W        W96789   0.871  41.872  10.518
24530W        W96790  42.323  10.639   0.244
24531W        W96791  34.880  33.527   3.351
24532W        W96792  15.240  29.127   2.800
24533W        W96793  33.620  32.103   0.306
24534W        W96794   8.889  32.993   0.375
24535W        W96795  14.687  17.727   3.342
24536W        W96796  24.141  39.059   1.321
24537W        W96797   1.449  27.640   2.716
24538W        W96798  22.655  33.529   4.289
24539W        W96799   7.744  24.713   3.324
24540W        W96800  21.524   9.685  12.357
24541W        W96801  44.894   1.938   0.367
24542W        W96802   9.392   1.971  12.082
24543W        W96803  16.618  37.080  12.835
24544W        W96804  21.262  39.949  13.812
24545W        W96805  41.953  34.444  14.425
24546W        W96806  31.405   2.799   0.258
24547W        W96807  41.902  17.206   3.743
24548W        W96808  11.218   4.365  14.840
24549W        W96809   9.285  24.699  12.989
24550W        W96810   0.872   9.369  10.993
24551W        W96811  29.484  29.020   0.936
24552W        W96812  19.726  20.240   4.284
24553W        W96813  30.090  28.132   4.163
24554W        W96814   1.346  43.445  12.075
24555W        W96815  39.443  43.279  13.887
24556W        W96816  16.568  41.843  12.402
24557W        W96817  41.455  11.246   4.191
24558W        W96818   0.835  26.548  13.524
24559W        W96819  42.824  41.372   0.874
24560W        W96820  41.792   2.322   4.141
24561W        W96821  21.206   8.310  13.998
24562W        W96822   5.821  20.253   2.878
24563W        W96823   7.351  24.717  14.815
24564W        W96824  29.979   1.964  10.644
24565W        W96825  10.735  42.372   0.278
24566W        W96826  34.396   2.443  14.950
24567W        W96827  31.083  43.825  11.446
24568W        W96828  17.157  41.882  14.008
24569W        W96829  19.665  17.127   0.253
24570W        W96830   4.329  32.132  11.458
24571W        W96831  27.036  41.924  13.972
24572W        W96832  21.219  38.940   0.772
24573W        W96833  24.073  14.636  12.439
24574W        W96834  19.060  13.604   4.739
24575W        W96835  13.614  43.813  13.920
24576W        W96836  16.642  29.959   2.765
24577W        W96837  19.542  21.634   4.838
24578W        W96838  20.116  17.709   3.180
24579W        W96839  23.212  30.458  13.399
24580W        W96840  17.672   0.297  12.505
24581W        W96841  39.332  27.674   4.169
24582W        W96842   2.296  19.265  13.962
24583W        W96843  43.441   3.325  12.355
24584W        W96844  16.638  40.046   4.233
24585W        W96845   4.237  37.056  12.997
24586W        W96846  30.458  29.494   2.204
24587W        W96847   9.328   3.344   3.156
24588W        W96848  29.976   1.441  13.983
24589W        W96849  44.479  38.520   4.618
24590W        W96850  18.163  28.003  11.586
24591W        W96851  15.112  23.052   3.310
24592W        W96852  35.031  41.904   3.372
24593W        W96853  33.525  25.555  12.435
24594W        W96854  16.775  32.511   0.899
24595W        W96855  29.473  35.956  13.508
24596W        W96856  34.972  38.012   2.314
24597W        W96857  27.008   0.906   0.858
24598W        W96858   0.797   2.262  14.931
24599W        W96859  21.544   6.402   1.249
24600W        W96860  42.477  30.013  11.909
24601W        W96861  27.580   2.321   0.418
24602W        W96862  44.994  26.496   4.665
24603W        W96863   9.361  16.582  12.922
24604W        W96864  20.139  31.146   2.313
24605W        W96865  30.419  35.951   0.325
24606W        W96866  22.020  41.963  11.071
24607W        W96867  32.986   6.900   0.779
24608W        W96868  26.111   7.293  13.906
24609W        W96869  44.869  10.339   4.697
24610W        W96870  37.412  29.530  13.820
24611W        W96871  15.294   5.861  13.834
24612W        W96872  10.355  20.670  11.104
24613W        W96873  37.896  32.060   2.664
24614W        W96874   4.394  11.710  11.950
24615W        W96875  22.140  20.103   2.404
24616W        W96876  32.458  27.600  13.511
24617W        W96877   4.863  12.220  12.391
24618W        W96878  32.082  39.816  10.962
24619W        W96879  20.722  32.988  11.869
24620W        W96880  31.520  22.524  13.502
24621W        W96881  41.452  30.524   4.753
24622W        W96882  39.517  19.253  13.849
24623W        W96883  12.149   8.165  13.797
24624W        W96884   9.751  14.172   0.944
24625W        W96885  21.063   9.177  10.974
24626W        W96886  31.570  38.363  11.547
24627W        W96887  34.035  10.209  12.543
24628W        W96888  19.649  27.951   4.163
24629W        W96889  40.841  12.613   4.733
24630W        W96890  24.977  33.528  14.780
24631W        W96891   4.844  36.503  10.472
24632W        W96892  30.030  42.416  10.491
24633W        W96893  29.552  33.458   2.391
24634W        W96894  16.114  11.173  13.377
24635W        W96895  19.707   5.359  13.021
24636W        W96896  12.770  10.770   2.764
24637W        W96897   6.292  20.596   4.652
24638W        W96898  16.739  14.295   3.672
24639W        W96899  26.058  16.674   3.710
24640W        W96900   4.709  40.318  13.307
24641W        W96901  15.819   2.459  12.842
24642W        W96902   2.323  35.948   1.731
24643W        W96903  44.342  15.179   4.256
24644W        W96904  21.145  32.022   2.292
24645W        W96905  32.478   5.734   2.757
24646W        W96906  35.026  14.232   0.440
24647W        W96907  38.896  36.404  12.089
24648W        W96908  27.521   6.286   0.797
24649W        W96909  43.914  27.006   1.381
24650W        W96910   9.803  10.345  12.987
24651W        W96911  16.764   5.238   0.376
24652W        W96912   9.813   5.791   2.805
24653W        W96913  25.475  17.579   2.735
24654W        W96914   6.367  14.236   3.652
24655W        W96915   8.403  35.009   4.720
24656W        W96916  12.274   6.818   3.340
24657W        W96917  16.672  31.402  14.786
24658W        W96918  21.143  10.808  14.502
24659W        W96919   8.883  19.683  12.393
24660W        W96920  32.066   6.335   2.236
24661W        W96921  37.838  25.511  12.350
24662W        W96922  11.319  34.951   0.263
24663W        W96923  19.569  27.502   0.289
24664W        W96924  27.467  28.040  11.395
24665W        W96925   4.277  20.612   0.844
24666W        W96926  25.517  30.600   0.425
24667W        W96927  42.394  40.896   1.364
24668W        W96928  31.012   0.471   2.377
24669W        W96929  37.836   9.758   1.898
24670W        W96930  13.652  43.401   4.735
24671W        W96931  34.584   6.741  11.013
24672W        W96932  22.138   0.266  14.456
24673W        W96933  20.100  28.953  12.073
24674W        W96934  21.148  27.043  13.515
24675W        W96935  28.458   4.302   0.273
24676W        W96936  11.141   9.725   4.807
24677W        W96937  32.005   4.311  11.019
24678W        W96938  31.631  34.006  13.898
24679W        W96939  26.015   8.295   1.314
24680W        W96940  17.708  26.160  14.898
24681W        W96941   1.750  31.995  14.286
24682W        W96942  12.212  27.195  12.449
24683W        W96943  41.847  21.092   0.451
24684W        W96944  35.883  13.801  12.362
24685W        W96945   1.276  24.077   3.663
24686W        W96946   8.868  15.822   3.284
24687W        W96947   8.674  28.953   3.822
24688W        W96948  15.817  35.870   2.275
24689W        W96949  11.704  21.635   2.356
24690W        W96950  26.511  13.309   5.178
24691W        W96951  13.663  41.792   4.728
24692W        W96952  42.493  22.021   2.373
24693W        W96953  26.987  40.333   5.148
24694W        W96954  32.636   1.877   0.838
24695W        W96955  25.134  28.157   0.248
24696W        W96956  40.965  29.134  10.902
24697W        W96957   3.857   5.403  10.914
24698W        W96958  44.418  36.532   3.760
24699W        W96959  37.425  26.124   2.736
24700W        W96960  21.528  25.007  11.518
24701W        W96961  31.114  13.351   3.709
24702W        W96962   6.229  16.229   0.478
24703W        W96963  40.398  13.169  12.004
24704W        W96964  19.283  24.038  10.452
24705W        W96965   4.411  25.177  10.918
24706W        W96966  15.311  44.767  12.381
24707W        W96967  42.894  24.579  13.450
24708W        W96968  27.163  39.359   3.857
24709W        W96969   2.947  39.354  12.931
24710W        W96970  33.471  43.482   2.860
24711W        W96971  24.202   1.955  10.102
24712W        W96972  10.297  31.493   3.650
24713W        W96973   8.752   7.765  11.531
24714W        W96974  27.643  25.552  14.415
24715W        W96975  10.683  19.258  13.536
24716W        W96976   2.315  17.715  10.422
24717W        W96977  14.125  29.006  13.828
24718W        W96978  39.047  38.068  11.946
24719W        W96979  21.744  35.951  14.427
24720W        W96980  40.915  25.991  11.932
24721W        W96981  36.024  18.739  13.014
24722W        W96982  32.469  40.984   2.787
24723W        W96983   4.751   8.250  13.482
24724W        W96984   7.853  19.763  10.158
24725W        W96985  28.155  18.193   0.939
24726W        W96986  18.556  17.175   1.819
24727W        W96987  13.739  26.513  14.846
24728W        W96988  18.610  29.167  14.350
24729W        W96989  22.111  19.770  14.447
24730W        W96990  41.312  30.928  14.494
24731W        W96991   0.791  17.270   3.655
24732W        W96992   4.386  29.434   4.159
24733W        W96993  29.050  30.940   3.206
24734W        W96994  31.499   3.806  11.097
24735W        W96995   6.883  29.079  14.431
24736W        W96996  21.238  25.048  14.004
24737W        W96997  13.781  22.669   3.800
24738W        W96998  35.575  16.739   1.409
24739W        W96999   1.482  19.079   1.928
24740W        W97000  17.733  25.176  13.479
24741W        W97001   5.417  25.580   5.209
24742W        W97002   2.935  26.107   3.805
24743W        W97003  28.555  36.459  10.598
24744W        W97004   2.742  44.388   1.812
24745W        W97005  29.116  14.155   4.318
24746W        W97006   3.771  28.975  13.825
24747W        W97007  28.590   5.847  12.347
24748W        W97008  13.803  19.219  13.471
24749W        W97009   5.432   3.218   3.796
24750W        W97010  18.263   7.285   5.224
24751W        W97011  21.654  20.740   0.924
24752W        W97012   3.774   5.902  12.831
24753W        W97013  22.733  22.658   2.194
24754W        W97014  13.831   6.251   4.719
24755W        W97015  10.744  39.839  11.900
24756W        W97016   5.371  34.054   3.845
24757W        W97017  28.475  14.686   2.213
24758W        W97018  15.586   0.853   3.168
24759W        W97019  41.795  38.017  11.916
24760W        W97020   1.805  38.537  10.953
24761W        W97021  12.852  11.787  12.477
24762W        W97022  11.140  26.050  12.416
24763W        W97023  26.032  21.142   1.899
24764W        W97024  15.118  33.000   0.769
24765W        W97025  18.668  23.206  10.459
24766W        W97026  21.654   2.269   4.631
24767W        W97027  33.957  33.434   2.301
24768W        W97028  31.996   4.737   0.386
24769W        W97029  38.426  21.167   0.313
24770W        W97030  38.069  38.053  14.953
24771W        W97031  39.403  32.134   0.250
24772W        W97032  25.533  43.943   1.751
24773W        W97033  12.623  12.710   3.784
24774W        W97034  39.451  42.914   1.770
24775W        W97035  36.478  31.504   4.137
24776W        W97036  22.070   5.343   2.338
24777W        W97037  29.612  44.418   0.264
24778W        W97038  10.185  29.570   0.475
24779W        W97039  19.114  18.692   1.758
24780W        W97040  19.766  35.552   0.423
24781W        W97041  25.553   1.873  14.816
24782W        W97042  23.708  27.483  13.352
24783W        W97043  38.052  18.655  12.845
24784W        W97044  24.617  30.917   4.181
24785W        W97045  23.114  34.449   0.830
24786W        W97046  41.813  35.377  13.053
24787W        W97047  17.261   3.338   1.267
24788W        W97048  24.151  20.215  13.315
24789W        W97049  12.643  39.826   0.873
24790W        W97050  36.937  15.287  14.964
24791W        W97051   1.298  27.179  13.465
24792W        W97052   4.729   3.410  13.856
24793W        W97053  42.512  18.054   4.723
24794W        W97054  24.228  43.947  10.442
24795W        W97055  27.563  16.673   0.465
24796W        W97056  28.631  40.473  11.555
24797W        W97057  33.932   3.926   4.161
24798W        W97058  19.672  11.198  12.472
24799W        W97059  24.611   8.878   0.369
24800W        W97060   0.766  10.854  13.038
24801W        W97061  42.779  16.690  13.409
24802W        W97062   6.841  42.002   4.707
24803W        W97063  37.871  19.604  14.403
24804W        W97064   3.722  39.499  14.309
24805W        W97065  20.546  18.575  13.527
24806W        W97066  34.061  27.641  10.932
24807W        W97067   1.814  14.674  14.440
24808W        W97068  26.621  37.386   4.274
24809W        W97069  42.864  35.891  12.575
24810W        W97070  38.514  19.115  14.353
24811W        W97071  27.691  41.945  11.561
24812W        W97072  29.059  35.036  14.771
24813W        W97073  40.036  30.468   4.708
24814W        W97074  29.139  37.523   4.770
24815W        W97075  16.718  39.929  11.541
24816W        W97076  41.405   4.209  13.003
24817W        W97077  33.451  29.046  14.894
24818W        W97078  30.995   0.883   1.240
24819W        W97079  17.116  14.096   4.809
24820W        W97080  31.515  10.870   2.896
24821W        W97081  27.973  28.663  11.501
24822W        W97082  26.511  40.520   3.828
24823W        W97083  16.635   0.457  13.883
24824W        W97084  36.997  13.215   1.838
24825W        W97085  21.185  17.616   3.811
24826W        W97086  31.568  11.757  12.841
24827W        W97087  12.781  41.971   4.352
24828W        W97088  13.696   3.949  12.525
24829W        W97089  20.165  29.923  11.918
24830W        W97090   9.728  35.880  14.275
24831W        W97091  17.115   9.174   4.632
24832W        W97092   5.370   8.386  12.994
24833W        W97093  32.431  37.342   2.745
24834W        W97094  29.526  19.747   3.149
24835W        W97095  24.230  17.271   1.804
24836W        W97096  30.944  34.611   1.775
24837W        W97097  11.736   0.418   0.961
24838W        W97098  35.057   4.794  11.004
24839W        W97099   5.717   9.262   4.148
24840W        W97100  10.861  43.851  12.407
24841W        W97101  27.535   9.826   0.857
24842W        W97102  11.779  32.907   0.468
24843W        W97103  35.358  32.406  13.011
24844W        W97104  14.661  30.949  14.292
24845W        W97105  25.492  33.065   0.333
24846W        W97106  25.001  16.697   2.730
24847W        W97107  16.734  19.191  12.357
24848W        W97108  30.516  15.249   0.357
24849W        W97109  26.975  32.634  11.561
24850W        W97110  36.881  42.399   0.324
24851W        W97111  43.447  13.610   1.382
24852W        W97112  24.646  20.185   0.901
24853W        W97113  16.260   1.430  11.073
24854W        W97114  42.013  31.055   0.935
24855W        W97115   7.350  42.379  12.435
24856W        W97116  22.646   5.731   3.636
24857W        W97117  11.149  33.064  14.915
24858W        W97118  39.314  34.592   1.294
24859W        W97119  30.480   0.436  13.471
24860W        W97120  21.662  38.977   4.272
24861W        W97121  24.148  13.611   4.252
24862W        W97122   9.698  21.754  13.001
24863W        W97123  22.595  30.015   0.400
24864W        W97124  34.433  37.951  12.037
24865W        W97125  16.776   2.257  12.880
24866W        W97126   7.366  39.326   0.353
24867W        W97127  25.199  30.036  11.981
24868W        W97128  14.323  43.773   0.320
24869W        W97129  37.339  25.607   2.880
24870W        W97130  22.593  42.418   3.867
24871W        W97131  23.984  40.925   1.322
24872W        W97132  30.608  21.202   4.662
24873W        W97133  43.790  20.194  13.939
24874W        W97134  42.013  18.110  14.815
24875W        W97135  13.347  31.515   4.807
24876W        W97136  21.018  28.499   2.306
24877W        W97137  33.994  17.780  14.833
24878W        W97138   8.837  43.430  13.939
24879W        W97139  28.573  14.663  14.922
24880W        W97140  11.291  29.456  10.589
24881W        W97141  13.336  33.411  10.610
24882W        W97142  17.713  28.663   1.380
24883W        W97143  37.486   6.781   3.172
24884W        W97144   8.772   4.333  14.363
24885W        W97145  34.972   6.425   0.279
24886W        W97146  41.925  21.118  11.539
24887W        W97147  19.247   6.228  13.028
24888W        W97148  35.410   4.837   1.700
24889W        W97149  14.753  23.015   4.643
24890W        W97150   2.311  28.652  14.327
24891W        W97151  38.549  39.457  12.866
24892W        W97152   7.709  43.980  12.364
24893W        W97153   5.343  40.495   3.203
24894W        W97154   9.302  27.464   0.465
24895W        W97155  26.562  18.547   3.646
24896W        W97156  18.144  42.314   2.802
24897W        W97157  40.547  36.553   0.279
24898W        W97158  11.292  31.554  11.390
24899W        W97159   1.780  33.053   0.778
24900W        W97160  38.047  28.122  10.961
24901W        W97161  23.160  35.575  13.482
24902W        W97162  19.125   5.738  13.512
24903W        W97163   4.745  42.346  11.953
24904W        W97164  38.489  24.002   0.933
24905W        W97165  44.808  40.917  14.406
24906W        W97166  34.070  21.562   4.337
24907W        W97167  38.990  36.993   4.207
24908W        W97168  15.095  28.641  14.438
24909W        W97169   3.389  23.686  13.964
24910W        W97170   3.856   6.714  12.498
24911W        W97171  40.338  18.126  11.418
24912W        W97172  19.158  40.405   0.827
24913W        W97173   2.884  14.617   0.841
24914W        W97174  32.426  37.540   4.230
24915W        W97175  23.675  17.789   1.436
24916W        W97176   3.761  39.005  12.539
24917W        W97177  28.045  13.638   1.696
24918W        W97178  17.725  11.775   2.297
24919W        W97179  42.898  44.475   1.822
24920W        W97180  27.967  32.551  14.436
24921W        W97181   9.871  16.275   1.447
24922W        W97182  14.315  22.072   0.922
24923W        W97183  43.773  12.839   4.159
24924W        W97184   1.344  13.718   1.878
24925W        W97185   1.324   1.483   3.269
24926W        W97186  11.647  37.340  10.607
24927W        W97187  19.244  19.048   2.209
24928W        W97188   2.800   7.285   3.787
24929W        W97189  25.494  14.608   1.875
24930W        W97190  20.575  34.066  13.043
24931W        W97191  18.240  44.499   4.794
24932W        W97192  36.914  19.112  13.408
24933W        W97193  25.507   4.442   4.208
24934W        W97194  44.310  14.267   0.913
24935W        W97195   0.304  43.405  13.383
24936W        W97196  37.911  22.197   3.210
24937W        W97197   2.430  24.080   5.301
24938W        W97198   4.733  22.708   1.320
24939W        W97199  12.247  15.197   0.876
24940W        W97200   9.156  18.670  14.317
24941W        W97201  30.614  21.130   0.414
24942W        W97202  41.301   5.296   4.148
24943W        W97203  26.566  14.646   1.913
24944W        W97204  24.486  37.505   0.315
24945W        W97205  34.529  23.055  12.825
24946W        W97206  17.775  35.009   4.637
24947W        W97207   5.701  26.631   4.720
24948W        W97208  22.572  14.307   0.417
24949W        W97209  19.780  12.293  14.778
24950W        W97210  15.582  13.697   4.732
24951W        W97211  37.016  28.518  14.900
24952W        W97212  12.816  22.138  11.582
24953W        W97213  33.523  38.412   1.904
24954W        W97214   2.923   9.707  11.475
24955W        W97215  11.774  13.796  14.841
24956W        W97216  28.536   4.923   4.154
24957W        W97217   1.245  20.106  14.439
24958W        W97218   5.809  33.117   3.257
24959W        W97219  19.063   8.243   2.714
24960W        W97220  14.817  10.222   4.704
24961W        W97221  44.760   1.966  10.622
24962W        W97222   8.309  21.593   3.783
24963W        W97223  14.623  18.241  13.801
24964W        W97224  20.526  17.616   4.713
24965W        W97225   6.327  38.401  10.599
24966W        W97226  31.912  41.300   4.748
24967W        W97227  41.476  11.300   3.661
24968W        W97228  24.081  36.384  11.517
24969W        W97229  35.458   3.414   3.863
24970W        W97230  29.105  19.603   3.865
24971W        W97231  22.093  19.709   4.788
24972W        W97232  15.157  14.101   5.136
24973W        W97233  16.198  17.616   1.232
24974W        W97234  35.560  19.539   0.359
24975W        W97235  39.397  41.797   0.395
24976W        W97236   4.727  23.594  14.031
24977W        W97237   8.749  20.132  12.968
24978W        W97238  33.874  31.509  11.389
24979W        W97239  22.546  35.099  13.890
24980W        W97240  27.006  17.746   2.186
24981W        W97241  22.109  25.180   4.181
24982W        W97242   9.770   8.793  13.798
24983W        W97243  44.497  21.123  13.998
24984W        W97244  32.059  44.805  13.048
24985W        W97245   7.723  18.706   4.208
24986W        W97246  34.521   4.392  13.980
24987W        W97247   3.414   0.344   1.741
24988W        W97248  19.766  24.671  12.566
24989W        W97249  22.144  17.205  13.484
24990W        W97250  14.644  22.120   1.401
24991W        W97251  39.402  20.596   2.867
24992W        W97252   8.856  21.173   0.416
24993W        W97253  24.159  39.047  14.421
24994W        W97254  33.950  17.671   2.203
24995W        W97255  33.531  31.040  13.877
24996W        W97256  28.615  28.937   4.614
24997W        W97257  13.251  22.118  12.050
24998W        W97258  40.523   1.288  10.479
24999W        W97259  31.444  14.592   2.898
25000W        W97260  27.691  29.167   0.732
25001W        W97261  36.917  42.838   2.721
25002W        W97262   1.758  13.770   3.226
25003W        W97263  12.709  16.177  14.903
25004W        W97264  36.538   5.914  10.609
25005W        W97265  28.107  17.601  14.328
25006W        W97266  20.738   3.318   5.321
25007W        W97267  43.811  15.598  11.579
25008W        W97268   3.338  23.099  12.354
25009W        W97269  26.588  11.198  11.990
25010W        W97270  16.138  24.054  11.078
25011W        W97271  35.073  32.574   3.631
25012W        W97272   7.411   2.372  11.094
25013W        W97273   3.439  12.844   3.775
25014W        W97274   1.479  41.930   1.934
25015W        W97275   0.408  21.219   2.767
25016W        W97276   9.218  36.871  12.518
25017W        W97277   9.653  24.185  13.534
25018W        W97278   9.216  10.827  12.967
25019W        W97279   1.744   8.874  10.996
25020W        W97280   9.676  40.413  13.442
25021W        W97281   2.269  23.015   1.756
25022W        W97282  14.225   0.280   0.785
25023W        W97283   2.723  40.329  14.334
25024W        W97284  15.254  19.670  13.828
25025W        W97285  27.039   5.425   0.296
25026W        W97286  25.049   0.371  11.961
25027W        W97287  38.523  23.566  14.886
25028W        W97288  28.554   9.177   2.807
25029W        W97289  18.609  13.181   4.688
25030W        W97290  18.162  27.517  14.313
25031W        W97291  43.006  23.183   3.279
25032W        W97292   7.364  17.578   3.691
25033W        W97293  17.136  34.111  14.793
25034W        W97294  41.403  33.969   0.748
25035W        W97295  18.144  27.558   2.247
25036W        W97296  10.155  38.896   1.252
25037W        W97297  44.347  13.350   2.365
25038W        W97298  32.396  41.447   0.294
25039W        W97299   6.746  21.750  14.465
25040W        W97300  44.959   3.778   4.696
25041W        W97301  30.122  37.490   0.905
25042W        W97302   6.724   1.312   3.759
25043W        W97303   2.765  25.089   0.949
25044W        W97304  24.132  17.269   4.183
25045W        W97305  38.391  17.606   3.233
25046W        W97306  36.039  20.718  11.602
25047W        W97307  23.066   6.303  13.023
25048W        W97308  19.656  35.410  13.851
25049W        W97309   4.404  43.483  11.031
25050W        W97310  44.425  39.453   2.378
25051W        W97311   0.921  39.895   0.395
25052W        W97312  35.521   2.740  11.447
25053W        W97313  25.051  33.522  13.462
25054W        W97314  25.192  10.771  11.968
25055W        W97315  41.903  14.293   0.340
25056W        W97316  23.987  23.073   4.203
25057W        W97317  10.178  32.416  13.868
25058W        W97318  18.596  32.109  14.897
25059W        W97319  19.699  26.591  13.831
25060W        W97320  10.210  37.969  11.570
25061W        W97321   0.940   2.463  10.409
25062W        W97322  14.300  38.571   0.792
25063W        W97323  30.975  10.238  12.577
25064W        W97324  28.629  25.172  14.358
25065W        W97325   5.417  12.356   2.265
25066W        W97326   4.748  34.555   2.684
25067W        W97327  17.630   3.721  11.508
25068W        W97328  29.578  36.348  12.530
25069W        W97329  27.471  11.696  13.545
25070W        W97330  35.040   3.370   5.236
25071W        W97331  13.829  24.121   3.699
25072W        W97332  23.669  40.889   0.364
25073W        W97333  30.646  17.297  14.766
25074W        W97334  13.787  31.536  11.071
25075W        W97335   8.313  13.756   4.698
25076W        W97336  18.153   3.774   1.770
25077W        W97337  12.611   9.372  14.018
25078W        W97338  15.656  44.755   3.280
25079W        W97339  41.329   2.939  10.645
25080W        W97340  20.188  13.671   4.321
25081W        W97341  44.302   1.406   0.857
25082W        W97342  13.707   3.857  13.340
25083W        W97343  34.866  42.926  10.645
25084W        W97344  25.540   4.416   2.314
25085W        W97345  14.130   6.182  13.919
25086W        W97346  18.718  33.879   0.847
25087W        W97347   8.282  26.142   1.336
25088W        W97348  34.579   3.258   3.846
25089W        W97349  10.340   3.304   3.175
25090W        W97350  19.280  12.136   2.720
25091W        W97351  18.616  38.392   2.303
25092W        W97352  29.648   6.879  13.392
25093W        W97353  39.552  19.184  11.119
25094W        W97354  29.142  41.974   0.939
25095W        W97355  20.072   8.751   0.368
25096W        W97356  12.653  22.094   1.269
25097W        W97357   5.218  30.559   4.242
25098W        W97358   9.790   3.908   0.461
25099W        W97359  23.493  40.036  10.905
25100W        W97360  31.528  12.806   2.838
25101W        W97361  10.382  37.400  13.023
25102W        W97362   8.221  15.586   1.338
25103W        W97363  20.622  42.011   3.315
25104W        W97364   6.355   6.388  11.978
25105W        W97365  20.223  23.000   1.420
25106W        W97366  39.990  12.213   1.338
25107W        W97367   9.228  39.041  14.764
25108W        W97368  20.043  35.001  10.635
25109W        W97369   1.387   7.828   0.941
25110W        W97370  22.153  23.511  13.425
25111W        W97371  37.385  38.042   1.295
25112W        W97372   1.945  25.712   3.206
25113W        W97373  42.487   0.444  11.104
25114W        W97374  31.107   3.946   1.781
25115W        W97375   5.420   3.919   4.635
25116W        W97376  26.486   0.376   4.281
25117W        W97377  43.838  22.538   1.420
25118W        W97378   6.866  28.139   9.938
25119W        W97379  30.082  32.480  11.892
25120W        W97380   6.824  20.116   0.936
25121W        W97381  20.690  26.599  14.475
25122W        W97382   4.876  19.752   4.296
25123W        W97383   8.211  11.824  14.373
25124W        W97384  28.066  42.508  14.405
25125W        W97385  32.917  36.977   1.876
25126W        W97386  22.571  15.234   1.741
25127W        W97387  42.281   8.311   1.331
25128W        W97388  44.766  25.546  10.468
25129W        W97389  41.476  31.055  13.485
25130W        W97390  18.580  42.964  13.936
25131W        W97391  16.640  25.093  11.485
25132W        W97392   0.390  42.514  11.374
25133W        W97393  22.050  39.881   0.264
25134W        W97394  24.548   2.891  10.412
25135W        W97395  15.240   9.345  14.453
25136W        W97396   9.259  40.920   0.745
25137W        W97397   7.269  25.156  14.818
25138W        W97398   6.385  43.887   2.289
25139W        W97399   6.205  12.194   0.935
25140W        W97400   7.785  24.006  10.554
25141W        W97401  23.723  15.628   2.337
25142W        W97402   9.776  29.933   3.230
25143W        W97403   9.843  42.942  11.918
25144W        W97404  37.071  17.791   1.847
25145W        W97405   1.871  34.014  13.405
25146W        W97406  36.445  32.906   1.787
25147W        W97407  31.544  31.149   1.768
25148W        W97408  24.131   8.889   1.224
25149W        W97409   4.412  18.569  14.779
25150W        W97410   2.413  26.569  10.057
25151W        W97411  12.670  40.052   1.784
25152W        W97412   0.401  21.152   0.305
25153W        W97413  40.004   6.720   1.314
25154W        W97414  10.638  19.689  10.607
25155W        W97415  20.590   0.873   4.818
25156W        W97416  43.951  31.973  11.947
25157W        W97417  22.107  22.732  13.332
25158W        W97418   0.310  34.061   2.280
25159W        W97419   2.792  42.500  10.912
25160W        W97420  30.606  38.440   1.224
25161W        W97421  33.071   5.369  13.428
25162W        W97422   4.399   3.817   2.892
25163W        W97423  40.530   1.774   2.328
25164W        W97424  36.456  43.450  14.959
25165W        W97425   6.699   3.830  14.902
25166W        W97426  13.755  11.324  12.528
25167W        W97427   6.731   8.215  13.871
25168W        W97428  34.992  20.122  12.566
25169W        W97429  13.826  28.930  11.856
25170W        W97430  41.365   2.310   1.364
25171W        W97431  31.475   0.265   3.855
25172W        W97432  36.958  12.703  10.474
25173W        W97433  24.072  15.177   3.784
25174W        W97434  24.158  12.197  12.016
25175W        W97435   5.814  12.723  10.538
25176W        W97436  19.191   1.969   4.616
25177W        W97437  15.811  14.825  12.009
25178W        W97438  40.003  20.157  13.351
25179W        W97439  14.622  26.649   3.204
25180W        W97440  22.182  38.047  12.988
25181W        W97441  31.934  17.190  11.080
25182W        W97442  22.600  13.316  13.901
25183W        W97443  15.620  27.504  10.941
25184W        W97444   2.957  21.702  14.421
25185W        W97445  24.609   0.370  14.781
25186W        W97446  28.661  32.425   4.142
25187W        W97447  17.614  35.073   2.336
25188W        W97448  19.173  35.360  13.915
25189W        W97449   9.808  18.549   0.811
25190W        W97450  21.690  18.784   3.747
25191W        W97451  42.320  42.954  12.573
25192W        W97452  15.239  16.723   5.097
25193W        W97453  17.770  32.985  10.418
25194W        W97454   1.772  27.564   4.257
25195W        W97455  41.355   1.265   0.758
25196W        W97456   7.291  10.878   3.240
25197W        W97457  43.335  22.028  11.393
25198W        W97458  16.210  13.715   4.253
25199W        W97459  27.118  22.690   2.386
25200W        W97460  24.716   7.857   4.721
25201W        W97461  12.184  35.482   0.444
25202W        W97462   8.298  33.892  14.891
25203W        W97463   0.882  13.695   0.293
25204W        W97464  21.615  43.448   1.347
25205W        W97465  31.536   2.906  12.545
25206W        W97466  25.013  39.840   5.106
25207W        W97467   0.874  24.606   0.424
25208W        W97468  16.134  34.075   3.685
25209W        W97469  27.026  43.338   3.195
25210W        W97470  30.070   9.875  11.572
25211W        W97471  40.312   9.226   1.436
25212W        W97472   6.202  42.017   3.836
25213W        W97473  30.037  37.581  12.546
25214W        W97474  33.117   4.374   2.662
25215W        W97475   7.818  11.346  13.934
25216W        W97476  40.523  32.931   4.700
25217W        W97477  43.370  18.075  12.849
25218W        W97478  23.530  41.518   1.877
25219W        W97479  31.634  13.202  13.984
25220W        W97480  14.260   6.345   1.281
25221W        W97481   1.238  35.434   4.634
25222W        W97482  16.646  24.132   2.707
25223W        W97483  34.034  19.104   2.858
25224W        W97484  31.071  32.112  12.562
25225W        W97485  37.898   8.360   4.775
25226W        W97486  16.789  16.281  13.963
25227W        W97487  21.747  26.121   2.742
25228W        W97488  22.525  26.082   0.856
25229W        W97489  28.088  15.822  14.471
25230W        W97490  39.517   9.388  13.856
25231W        W97491   5.219   0.800   4.316
25232W        W97492  44.009  38.481   4.710
25233W        W97493  42.998   2.324   2.362
25234W        W97494  12.800  21.214  10.053
25235W        W97495  18.614  24.609  13.056
25236W        W97496  40.945  22.693   1.935
25237W        W97497  40.398  28.052  11.406
25238W        W97498  11.190  23.006   1.310
25239W        W97499  28.034  32.121   0.267
25240W        W97500   6.412  41.492  11.015
25241W        W97501  14.613   1.347  12.496
25242W        W97502  14.676  19.123  13.356
25243W        W97503   7.782  42.453  12.460
25244W        W97504  10.677  32.392  14.868
25245W        W97505  13.842   5.252  13.056
25246W        W97506   4.918  40.910   1.231
25247W        W97507  33.514   6.400  11.458
25248W        W97508   6.881   1.300  12.881
25249W        W97509  27.126   5.917  12.419
25250W        W97510  28.025  40.516   0.403
25251W        W97511  32.505  23.678  12.949
25252W        W97512  38.408   7.341  13.411
25253W        W97513  17.678  11.366   1.867
25254W        W97514  36.878   3.825  11.032
25255W        W97515  37.479  29.019   1.746
25256W        W97516  15.720  11.846   2.199
25257W        W97517   7.721  33.463   0.483
25258W        W97518  20.694  10.799   4.776
25259W        W97519  10.347  35.441  12.092
25260W        W97520  40.008   8.837   4.115
25261W        W97521  21.128   0.876  14.475
25262W        W97522  32.107   6.412   4.712
25263W        W97523   8.353  11.169  12.839
25264W        W97524  19.174  12.832   4.187
25265W        W97525  35.371  16.288  12.007
25266W        W97526  24.020  43.376   2.256
25267W        W97527  41.875   5.363   4.256
25268W        W97528   6.729  37.445  11.596
25269W        W97529  10.329  15.810  12.462
25270W        W97530  18.642  44.271   3.212
25271W        W97531  13.185   0.268   4.821
25272W        W97532   5.695  31.428  12.464
25273W        W97533  44.943  20.170   2.819
25274W        W97534   5.847  35.014  11.966
25275W        W97535  11.677  38.479   0.833
25276W        W97536   4.929  26.055   1.267
25277W        W97537   0.283  36.992   2.875
25278W        W97538   1.265  14.309   1.821
25279W        W97539  37.077   4.434  14.349
25280W        W97540  31.041  40.322  10.620
25281W        W97541  27.983  11.227   1.911
25282W        W97542  36.426   2.260   2.799
25283W        W97543  44.410  38.548   3.701
25284W        W97544  16.251   8.291   0.842
25285W        W97545  34.557  12.154   4.662
25286W        W97546  21.073  44.977   2.270
25287W        W97547   5.850   3.725  12.490
25288W        W97548  25.968  14.648   1.422
25289W        W97549  14.232  31.056  12.469
25290W        W97550  26.106   2.281  13.809
25291W        W97551   8.803  42.415   1.237
25292W        W97552  24.602  27.170  12.487
25293W        W97553   3.879   7.840  12.345
25294W        W97554  33.126  33.574   4.335
25295W        W97555  14.641  37.548  11.888
25296W        W97556  20.065  33.076   4.812
25297W        W97557  40.502  36.998  11.968
25298W        W97558  22.604  37.554  11.983
25299W        W97559   4.408  37.833   4.214
25300W        W97560   2.923   5.240  12.055
25301W        W97561  11.657  39.324   3.336
25302W        W97562  23.007  32.573   0.413
25303W        W97563  22.198  23.565   2.279
25304W        W97564  31.586  37.525  11.041
25305W        W97565  32.913   4.815   3.810
25306W        W97566   7.796  37.565   2.864
25307W        W97567  18.608   7.295  13.048
25308W        W97568   3.735   6.697  10.498
25309W        W97569   0.354  17.653   2.378
25310W        W97570  44.423  29.106  14.375
25311W        W97571   5.812  14.162  14.278
25312W        W97572   4.381  14.700  11.998
25313W        W97573  33.098  34.066  12.437
25314W        W97574  16.716  11.260   3.347
25315W        W97575   3.727  18.075  13.521
25316W        W97576  27.032  36.873  14.296
25317W        W97577  25.569  37.384   1.933
25318W        W97578  13.775  16.263  11.451
25319W        W97579  11.292  16.717   0.888
25320W        W97580  25.155   9.252  11.019
25321W        W97581  14.701   5.719   0.396
25322W        W97582  24.051  15.306  12.405
25323W        W97583  44.952   1.304  13.463
25324W        W97584  14.220  42.002   0.944
25325W        W97585  25.592   3.360  13.842
25326W        W97586  22.544  31.447   3.370
25327W        W97587  31.610  30.908   5.292
25328W        W97588  10.749  14.749   0.444
25329W        W97589   7.761  30.499   1.921
25330W        W97590  13.176  33.513   3.759
25331W        W97591  44.863  10.663   1.316
25332W        W97592  29.548   8.716   1.795
25333W        W97593  27.494  31.602  10.981
25334W        W97594   1.824  12.201   4.717
25335W        W97595  34.395  18.751   0.465
25336W        W97596  16.283  24.526  12.418
25337W        W97597  22.113  31.997  11.877
25338W        W97598  31.561  38.561   1.443
25339W        W97599  14.229  12.151  13.490
25340W        W97600  44.392  17.577  11.109
25341W        W97601  38.455  37.393   3.384
25342W        W97602  29.058  35.533   1.800
25343W        W97603  18.164  33.880  14.976
25344W        W97604  17.662  34.463   3.274
25345W        W97605  16.211  38.440   2.883
25346W        W97606  40.016  31.512  11.974
25347W        W97607   8.850  10.747  13.917
25348W        W97608  42.377   1.447   4.148
25349W        W97609   5.359  34.571  13.383
25350W        W97610  11.734  36.080   3.867
25351W        W97611  36.509  32.931  12.405
25352W        W97612   8.890  29.503  12.965
25353W        W97613  18.766  29.650  11.546
25354W        W97614  33.595  20.574  11.599
25355W        W97615   9.226  20.167  11.066
25356W        W97616  21.022  23.508   2.719
25357W        W97617  38.001  18.274  11.034
25358W        W97618  38.551   0.821  10.429
25359W        W97619  20.108   5.819  12.425
25360W        W97620  19.537  13.830  13.408
25361W        W97621  32.536  25.508  12.913
25362W        W97622  10.323  17.798   5.168
25363W        W97623  42.840   9.210   0.855
25364W        W97624  13.169  27.980  14.844
25365W        W97625  17.716   8.757  10.527
25366W        W97626  32.003  28.944   3.173
25367W        W97627   9.754   7.244  14.306
25368W        W97628   4.857  38.881  11.926
25369W        W97629  42.909   8.683  13.814
25370W        W97630  24.480  33.452  14.965
25371W        W97631   8.269  21.712   2.741
25372W        W97632   8.868  41.919  10.450
25373W        W97633   9.691  42.368  11.945
25374W        W97634  18.734  22.648  14.281
25375W        W97635  37.003  29.477   0.399
25376W        W97636   9.336  44.888  11.581
25377W        W97637  41.309  39.046  10.581
25378W        W97638  35.996   8.891  14.819
25379W        W97639  32.913  37.906  12.460
25380W        W97640  29.423  12.659   2.301
25381W        W97641   9.821   1.376  14.803
25382W        W97642  31.485  35.447   1.354
25383W        W97643   3.740  26.538   1.831
25384W        W97644  22.521  13.169  13.467
25385W        W97645  26.542   1.907   4.781
25386W        W97646  28.954  25.169  13.477
25387W        W97647  30.913  30.150  14.819
25388W        W97648  41.038  34.982   1.750
25389W        W97649  26.598  43.998   4.811
25390W        W97650  32.947  40.407   4.120
25391W        W97651  34.965  11.337   1.243
25392W        W97652   8.694  33.550  12.833
25393W        W97653  25.969  42.024   3.181
25394W        W97654  28.120  31.471   4.235
25395W        W97655  36.002  20.718   5.791
25396W        W97656  23.115  18.223   1.873
25397W        W97657  37.863   4.812  12.911
25398W        W97658  36.962  33.038   1.914
25399W        W97659   0.820  18.051   0.875
25400W        W97660  43.409   9.352   3.349
25401W        W97661   7.864  25.702  13.390
25402W        W97662  34.914  14.246  11.414
25403W        W97663   2.906  29.048   3.208
25404W        W97664  23.687   5.298   0.770
25405W        W97665  32.027  17.610   1.240
25406W        W97666  38.430  36.493  12.973
25407W        W97667  14.239   3.353  13.491
25408W        W97668   2.454   4.208   0.301
25409W        W97669  26.197   3.215   2.301
25410W        W97670  26.534  14.198   5.131
25411W        W97671  33.499  36.975  13.380
25412W        W97672  15.578  27.579  14.999
25413W        W97673  26.513  21.737  12.580
25414W        W97674  41.973  22.711   2.394
25415W        W97675  27.957  13.664   2.891
25416W        W97676  37.881   5.429  11.560
25417W        W97677  25.591   6.412  13.364
25418W        W97678   0.918  43.868  10.513
25419W        W97679  10.142  38.828  13.390
25420W        W97680   3.836  38.401  10.411
25421W        W97681   5.258  40.846  11.507
25422W        W97682  37.526   7.266   9.988
25423W        W97683  12.719  19.700  11.913
25424W        W97684   4.385  41.438  13.041
25425W        W97685  20.581  33.979  12.427
25426W        W97686   0.399   4.851  10.916
25427W        W97687  42.027  39.008  10.998
25428W        W97688  40.847  13.205   4.193
25429W        W97689   9.764  37.518  11.456
25430W        W97690  35.068  26.647  12.823
25431W        W97691   9.678   3.768   3.665
25432W        W97692  11.662  15.110   4.260
25433W        W97693   2.957  15.290  12.069
25434W        W97694   2.375  29.939   4.696
25435W        W97695  44.956  12.128  14.812
25436W        W97696  32.529  41.501   2.847
25437W        W97697  39.063  21.697  11.107
25438W        W97698  43.850  11.863   1.737
25439W        W97699  12.210  44.415   1.437
25440W        W97700  30.991  16.293   4.117
25441W        W97701  23.128  32.895  10.521
25442W        W97702  32.952  41.968   1.217
25443W        W97703   9.160  19.742  10.535
25444W        W97704   8.681  39.537  12.554
25445W        W97705  34.977   4.414  12.449
25446W        W97706  24.984  44.289  10.976
25447W        W97707  40.929  31.441   2.383
25448W        W97708  43.869   1.765  12.410
25449W        W97709  30.480  21.616  12.843
25450W        W97710  17.283  43.335   2.338
25451W        W97711  26.600  11.684   0.733
25452W        W97712  21.119  40.991   3.830
25453W        W97713  31.095   6.354   1.768
25454W        W97714  14.200  17.284  11.507
25455W        W97715  35.484  11.856   0.764
25456W        W97716   0.919  17.221   5.112
25457W        W97717  18.093   5.741  10.461
25458W        W97718   8.322  27.462   2.287
25459W        W97719  10.773  35.878   3.242
25460W        W97720  11.724  22.678  10.634
25461W        W97721  44.878  31.105   3.278
25462W        W97722  20.077  44.834   2.202
25463W        W97723  25.012  43.002   3.679
25464W        W97724   9.227  38.827   0.320
25465W        W97725  39.000  18.715  12.404
25466W        W97726  11.662  18.172  14.004
25467W        W97727   7.262  37.373  11.406
25468W        W97728  22.621  15.634  13.406
25469W        W97729  13.682  30.567  12.047
25470W        W97730  15.323  16.114  14.765
25471W        W97731  18.176  16.594   4.781
25472W        W97732   5.823  27.606   1.732
25473W        W97733   1.938  36.013   4.676
25474W        W97734  33.082  19.547  14.321
25475W        W97735  37.084  14.141  12.063
25476W        W97736  43.809   7.282  14.412
25477W        W97737  36.929  44.812   1.308
25478W        W97738  13.658  11.308   2.819
25479W        W97739  31.152  15.645   4.767
25480W        W97740  33.416  29.077  10.461
25481W        W97741  43.990  41.927   1.278
25482W        W97742  41.006  36.915  11.933
25483W        W97743  35.035  31.444   3.311
25484W        W97744  17.692  25.606   3.379
25485W        W97745  14.127  31.938   0.789
25486W        W97746   2.232  11.208   3.223
25487W        W97747  42.385  36.900  11.548
25488W        W97748  43.270   8.895   2.419
25489W        W97749  22.666  32.532   4.708
25490W        W97750  15.709  11.679   3.241
25491W        W97751   0.848  14.326  12.509
25492W        W97752   3.265   7.246  11.888
25493W        W97753  27.457  40.045   3.752
25494W        W97754  34.092  13.711  12.943
25495W        W97755  34.092  40.053   3.726
25496W        W97756  11.205  26.017   1.726
25497W        W97757  43.937  37.549   0.420
25498W        W97758   2.253  30.546  13.997
25499W        W97759   5.825   0.923   1.721
25500W        W97760  16.245   9.225   0.354
25501W        W97761  36.961  39.022  11.425
25502W        W97762  19.685   1.752   0.252
25503W        W97763   3.232  25.520   2.317
25504W        W97764   7.804   6.407   0.957
25505W        W97765  38.408  29.623  10.493
25506W        W97766  29.969   5.314   0.852
25507W        W97767  44.769  37.568  14.368
25508W        W97768  16.264  14.655  14.330
25509W        W97769   3.941  26.952   4.625
25510W        W97770  18.062  17.635  11.591
25511W        W97771  40.972  31.604  13.543
25512W        W97772  21.034  18.585   4.265
25513W        W97773  26.543  13.276   2.782
25514W        W97774  16.682  42.492  12.095
25515W        W97775  31.085   5.878  11.454
25516W        W97776   0.391  37.455  13.801
25517W        W97777  36.445   7.829   4.224
25518W        W97778  14.643   6.904  11.068
25519W        W97779  37.847   3.864  10.614
25520W        W97780  10.381  39.937   4.618
25521W        W97781  16.279  34.469  13.375
25522W        W97782  32.912   8.833  14.892
25523W        W97783  36.887  29.613   2.700
25524W        W97784   1.758  24.142   3.646
25525W        W97785  29.435  17.649  14.870
25526W        W97786  30.421   9.718  11.949
25527W        W97787  30.013   9.253   3.170
25528W        W97788  26.995  30.530  12.528
25529W        W97789  26.992  36.979  12.999
25530W        W97790  21.083  41.993   4.167
25531W        W97791   1.734  32.077   4.241
25532W        W97792   4.209   0.935   3.211
25533W        W97793   7.858  14.704  14.443
25534W        W97794   2.335   7.683   4.213
25535W        W97795   2.823  32.635  13.847
25536W        W97796  13.646  41.824  13.422
25537W        W97797  13.677  11.805   3.284
25538W        W97798  21.628  30.498   5.222
25539W        W97799   2.734   8.275   1.245
25540W        W97800  44.819  21.114  14.350
25541W        W97801  17.211  25.184   1.441
25542W        W97802  34.477  20.534   1.875
25543W        W97803  40.848  23.622  11.989
25544W        W97804  11.220   5.909   4.821
25545W        W97805  29.552  29.014   3.341
25546W        W97806  33.995  39.822  14.334
25547W        W97807  19.183  28.157  12.890
25548W        W97808  44.356  14.227  14.817
25549W        W97809  29.142  18.261   3.250
25550W        W97810  22.558  17.599   2.876
25551W        W97811  26.186   2.919   0.269
25552W        W97812   4.775  28.945  11.021
25553W        W97813  36.883  23.188  13.354
25554W        W97814  42.032  31.486  11.473
25555W        W97815  39.483   6.256  10.973
25556W        W97816  21.628  38.971   2.265
25557W        W97817  20.174  21.072   2.748
25558W        W97818  20.053   0.428   4.690
25559W        W97819  17.624  24.548  10.933
25560W        W97820  11.302   4.424  13.475
25561W        W97821  16.762  40.906   2.222
25562W        W97822  44.997   6.397   1.222
25563W        W97823  40.974  27.953   0.729
25564W        W97824  16.180  37.517   2.415
25565W        W97825  34.411  28.470   3.694
25566W        W97826  39.462  19.611   3.247
25567W        W97827  30.547   8.402   0.849
25568W        W97828  43.799   8.277  11.510
25569W        W97829  39.369  28.492   2.305
25570W        W97830  30.036  13.731  13.022
25571W        W97831  40.383   8.328  14.765
25572W        W97832  31.593   9.773   1.257
25573W        W97833   7.734  25.590   3.152
25574W        W97834  31.975  43.453   4.710
25575W        W97835  16.283  25.023   3.837
25576W        W97836  13.157  37.339   9.958
25577W        W97837  15.718  14.182   9.609
25578W        W97838   9.746  20.170   1.376
25579W        W97839  27.518  27.975   0.883
25580W        W97840  22.131  32.525   0.384
25581W        W97841  28.960  24.196   2.849
25582W        W97842  31.419  42.848   0.463
25583W        W97843  17.186  11.178   2.766
25584W        W97844  42.975   0.444   1.857
25585W        W97845  10.233  21.139   0.416
25586W        W97846  34.909   7.385   2.250
25587W        W97847   2.269  31.512  11.060
25588W        W97848  20.735  17.800   0.749
25589W        W97849  29.442  18.263  11.371
25590W        W97850  37.853  16.237  14.901
25591W        W97851  10.365   2.413  11.893
25592W        W97852  43.940  19.677   4.214
25593W        W97853  10.171  11.796   2.306
25594W        W97854  20.209  44.777  14.810
25595W        W97855  18.627  25.569   1.227
25596W        W97856  40.421   5.238  11.416
25597W        W97857   1.852   1.756   3.741
25598W        W97858  17.118  18.164  12.365
25599W        W97859  41.966  12.319   2.669
25600W        W97860   5.302  15.111   2.413
25601W        W97861  43.838  28.592   2.293
25602W        W97862  15.659  24.213   0.837
25603W        W97863  11.261  20.258   0.415
25604W        W97864  40.524  14.786  14.488
25605W        W97865  26.005  17.099   1.325
25606W        W97866  16.267   0.828  11.523
25607W        W97867  15.100  13.768   1.722
25608W        W97868   7.834  25.503  10.909
25609W        W97869   5.732  33.569  14.318
25610W        W97870  29.665  18.267  14.026
25611W        W97871   3.348   9.890  11.383
25612W        W97872  20.700  11.179  10.569
25613W        W97873  34.870  39.454   0.915
25614W        W97874  42.830  10.860   2.701
25615W        W97875  13.707   3.385   1.267
25616W        W97876  23.083  21.142  12.979
25617W        W97877  12.323   6.198   2.785
25618W        W97878  31.610  10.336  13.426
25619W        W97879  17.191  32.107   2.336
25620W        W97880  38.539  29.514   3.645
25621W        W97881  30.546  14.203  13.500
25622W        W97882  10.734   3.884  12.065
25623W        W97883  12.281  11.809  12.877
25624W        W97884  28.934  32.430   3.725
25625W        W97885  13.147  41.483   1.769
25626W        W97886  41.479   7.296   3.796
25627W        W97887  26.540  19.620   4.140
25628W        W97888  12.822  10.212  13.000
25629W        W97889  12.327   1.246  12.527
25630W        W97890  41.531  13.198  12.841
25631W        W97891   0.788   9.689  14.022
25632W        W97892  38.904   0.346   0.362
25633W        W97893  20.660  43.455   0.751
25634W        W97894   2.472   4.735   2.680
25635W        W97895  33.605  42.350   4.236
25636W        W97896   1.877  43.398  11.947
25637W        W97897   9.362  20.264   0.390
25638W        W97898  39.400  15.161   4.121
25639W        W97899  43.854  42.845  11.024
25640W        W97900  12.118  25.067  12.522
25641W        W97901  36.075   6.376   4.659
25642W        W97902  17.237  42.300  12.444
25643W        W97903  28.942   2.458   3.277
25644W        W97904  35.022  17.576  13.962
25645W        W97905  38.888  17.731  14.411
25646W        W97906   7.847  32.058  13.803
25647W        W97907  17.599  14.144   4.341
25648W        W97908   8.808  26.128  11.058
25649W        W97909  19.216  28.671  12.849
25650W        W97910  30.027  25.639   0.884
25651W        W97911  44.426  14.744   4.228
25652W        W97912  44.470   4.304   3.181
25653W        W97913  31.452  31.981  14.880
25654W        W97914  25.687  17.090   2.276
25655W        W97915  32.631  13.830   4.642
25656W        W97916  26.080   1.904  10.464
25657W        W97917   3.361  10.645   0.929
25658W        W97918  25.619  44.398   2.294
25659W        W97919  12.709  35.498  13.970
25660W        W97920  27.642   3.814  14.333
25661W        W97921  39.975  13.326   3.340
25662W        W97922  37.389  16.081  14.826
25663W        W97923  31.517  44.900   1.769
25664W        W97924  15.182  44.440  10.995
25665W        W97925  37.436  26.197  14.953
25666W        W97926  10.248  43.840  12.852
25667W        W97927  23.719  20.748   0.946
25668W        W97928  23.543  42.432   0.254
25669W        W97929   3.398  26.018   4.144
25670W        W97930  30.431  23.999  12.431
25671W        W97931  20.766  42.813   4.274
25672W        W97932  29.558  12.232  11.021
25673W        W97933  27.974  10.356  10.465
25674W        W97934   1.799  10.774   3.746
25675W        W97935   1.391  42.355   1.784
25676W        W97936  44.324  43.836   0.243
25677W        W97937   3.878  16.800  10.479
25678W        W97938   6.339  16.194  13.979
25679W        W97939  39.482  39.519  14.875
25680W        W97940   3.881  33.443  13.914
25681W        W97941  15.623  42.800  10.597
25682W        W97942  11.369  33.531  12.970
25683W        W97943  31.100  27.466   4.291
25684W        W97944  43.984   6.726   1.934
25685W        W97945   3.898  41.950   0.301
25686W        W97946  11.651  31.021  14.278
25687W        W97947  17.640  13.752  12.057
25688W        W97948  19.211   2.331  11.872
25689W        W97949  19.188  21.607  13.474
25690W        W97950  43.977  25.156  13.821
25691W        W97951  15.289  31.637   2.759
25692W        W97952  13.249  20.164   4.263
25693W        W97953  17.240  38.003   4.773
25694W        W97954  24.136  16.227   2.237
25695W        W97955  11.650  20.073  12.999
25696W        W97956  43.417  17.624   1.334
25697W        W97957  23.523  30.453  11.001
25698W        W97958  28.111  25.620  14.804
25699W        W97959   2.768   4.203   1.728
25700W        W97960   8.200  28.548  12.928
25701W        W97961   5.866   2.324   0.317
25702W        W97962  21.515  15.602  12.371
25703W        W97963  17.063  23.007  13.451
25704W        W97964   5.308  20.260  14.375
25705W        W97965  16.113  38.324   1.243
25706W        W97966  24.715  27.665   4.332
25707W        W97967  39.404  17.302  10.465
25708W        W97968   6.227   8.764   4.211
25709W        W97969  26.993  23.099  13.442
25710W        W97970   8.738  26.175   2.892
25711W        W97971  44.918   2.757   1.822
25712W        W97972  17.177  12.356  13.327
25713W        W97973   9.890   9.813   3.757
25714W        W97974   7.357  25.105   3.794
25715W        W97975   6.795   3.412  11.430
25716W        W97976  31.621  35.953   0.293
25717W        W97977  33.442  25.081   2.219
25718W        W97978  20.734  19.566  10.062
25719W        W97979  19.074  23.115  14.393
25720W        W97980   5.202  11.657  14.787
25721W        W97981  20.245  32.635   3.731
25722W        W97982  15.642  38.862  12.414
25723W        W97983  18.181  17.650   4.645
25724W        W97984  34.416  10.711  12.842
25725W        W97985  13.331  26.171   3.779
25726W        W97986  24.011  15.644  14.508
25727W        W97987  22.136  29.028  13.861
25728W        W97988  42.401  38.448   3.353
25729W        W97989  29.444  26.975   3.844
25730W        W97990  28.071  33.561   2.365
25731W        W97991   5.367  30.490   0.304
25732W        W97992  32.426  12.291   2.787
25733W        W97993  27.554  10.650   4.742
25734W        W97994  28.000  30.583   1.785
25735W        W97995   7.330   6.256  12.956
25736W        W97996  30.422   8.406   1.342
25737W        W97997  26.463  13.765   0.435
25738W        W97998  42.500  10.284  11.970
25739W        W97999   5.732  19.595  11.557
25740W        W98000   1.274  42.382   3.761
25741W        W98001   7.790  38.358  11.963
25742W        W98002  33.583  19.637   0.321
25743W        W98003  21.191  16.090   4.796
25744W        W98004  20.531  37.502  11.106
25745W        W98005  37.353  29.630   5.121
25746W        W98006  29.452   3.878   1.930
25747W        W98007  41.942  42.985   4.808
25748W        W98008  28.627  34.499  10.895
25749W        W98009  18.633  24.147   4.248
25750W        W98010   6.196  36.925   2.831
25751W        W98011  17.587  15.223  14.514
25752W        W98012   7.752  23.233   2.686
25753W        W98013  35.403   9.231   4.793
25754W        W98014   9.279  30.157   1.393
25755W        W98015  36.097  40.904  13.838
25756W        W98016  17.204  25.970  14.416
25757W        W98017  16.276  29.000   4.343
25758W        W98018  15.599   7.240  11.951
25759W        W98019  30.474  10.206  11.073
25760W        W98020  20.078  22.533   4.331
25761W        W98021   0.797  41.315  10.008
25762W        W98022  26.546   6.335   3.336
25763W        W98023  19.698  33.405  14.894
25764W        W98024  24.509  24.507   0.795
25765W        W98025  25.528  37.950  14.437
25766W        W98026  10.142  15.101   1.241
25767W        W98027   5.783  17.255   0.964
25768W        W98028   7.405  16.785   0.864
25769W        W98029   3.415  24.103  14.834
25770W        W98030  26.542  16.779  14.431
25771W        W98031  12.220  28.647  11.949
25772W        W98032  34.044  11.207   3.367
25773W        W98033   4.823   3.302   4.179
25774W        W98034  18.183  35.997   0.772
25775W        W98035  30.624   0.860   4.763
25776W        W98036  16.185  24.062   2.857
25777W        W98037  37.970   1.733  11.109
25778W        W98038  43.427   3.919  14.825
25779W        W98039   4.779  26.602   0.464
25780W        W98040  41.422  22.009   0.296
25781W        W98041  14.169   0.403  11.559
25782W        W98042  23.657  36.086  11.531
25783W        W98043  44.753  15.796  14.323
25784W        W98044  24.048   2.384  12.419
25785W        W98045  13.734  43.856   1.373
25786W        W98046   9.319  19.122  13.832
25787W        W98047   7.257   4.840  14.330
25788W        W98048  40.898  10.235  14.837
25789W        W98049  29.926  41.380  10.970
25790W        W98050  41.983  24.222  11.380
25791W        W98051  15.667  31.015   0.288
25792W        W98052  28.479   8.235  11.940
25793W        W98053  44.447  26.115   1.714
25794W        W98054   7.853   7.726   4.241
25795W        W98055   7.312  25.081   1.274
25796W        W98056  19.588  34.918  13.313
25797W        W98057  19.079  16.699   1.858
25798W        W98058  14.656  14.106  12.478
25799W        W98059  29.562  11.240   0.735
25800W        W98060  44.331  21.089  12.512
25801W        W98061  27.596  35.880  12.466
25802W        W98062   0.897  25.184   0.765
25803W        W98063   1.744  33.072  14.320
25804W        W98064  11.743   2.371  12.368
25805W        W98065  23.989  34.373   2.178
25806W        W98066  10.205  32.886  11.055
25807W        W98067  28.496  42.419  14.326
25808W        W98068  19.537   6.862  11.377
25809W        W98069  19.139  32.585  10.634
25810W        W98070  24.577  28.535  13.538
25811W        W98071  41.390  15.584  14.322
25812W        W98072  42.477   0.309   4.737
25813W        W98073   8.377   4.937  11.539
25814W        W98074  12.731   4.363  11.104
25815W        W98075   6.828  16.275  11.373
25816W        W98076  16.229  28.447  12.508
25817W        W98077  11.859  44.349  12.956
25818W        W98078  30.634  44.757  14.430
25819W        W98079  13.132  13.285   2.391
25820W        W98080   3.727  23.665  10.478
25821W        W98081  14.170   4.781   3.655
25822W        W98082   2.255  24.103   4.154
25823W        W98083  23.024  24.648  11.023
25824W        W98084   8.197  31.580   3.258
25825W        W98085   2.275  33.968   3.805
25826W        W98086  18.177  33.397  11.034
25827W        W98087  34.084   8.183   4.215
25828W        W98088  13.276   9.174   3.251
25829W        W98089  30.923  40.806  10.897
25830W        W98090  21.700  11.224   0.884
25831W        W98091   4.409  37.963  10.439
25832W        W98092  26.554  15.208  12.883
25833W        W98093  18.117   1.967   4.798
25834W        W98094  24.007  33.097  13.339
25835W        W98095  43.789  43.820  12.492
25836W        W98096  41.958  43.932   2.767
25837W        W98097  27.158  37.354  14.913
25838W        W98098   1.945  31.636  14.980
25839W        W98099   3.782  17.708  14.343
25840W        W98100   5.387  21.189   1.788
25841W        W98101  30.955   4.886  14.867
25842W        W98102  22.209  13.611   2.329
25843W        W98103  12.207  39.447  11.903
25844W        W98104  26.077  38.568   0.279
25845W        W98105  23.491  21.703  10.643
25846W        W98106   6.423  24.979  13.441
25847W        W98107  16.129  38.077   3.834
25848W        W98108  26.061  14.204   0.295
25849W        W98109  23.126  16.760  13.355
25850W        W98110  43.909  40.945  13.523
25851W        W98111  20.591  24.980   3.631
25852W        W98112   4.805  39.403  10.624
25853W        W98113  40.926  38.863  12.560
25854W        W98114  37.400  13.766  13.804
25855W        W98115  31.616  38.569   4.719
25856W        W98116  39.384  17.794   3.163
25857W        W98117   3.733  31.907  14.935
25858W        W98118   5.798  38.827   1.434
25859W        W98119  24.636  17.138  14.412
25860W        W98120  15.808   5.352  11.994
25861W        W98121  40.899  13.631   3.336
25862W        W98122  23.546  28.083  12.364
25863W        W98123  27.153  20.124  13.848
25864W        W98124  36.960  37.912   2.335
25865W        W98125  12.202   1.794  14.898
25866W        W98126  20.708   6.824   1.288
25867W        W98127   5.900  27.956   0.844
25868W        W98128  25.504  15.231  11.106
25869W        W98129  10.176   2.817   4.598
25870W        W98130  36.500  44.439   4.757
25871W        W98131  44.360   7.341  12.946
25872W        W98132  33.510  14.791  10.563
25873W        W98133   8.733  28.611  12.542
25874W        W98134  35.982  31.053  13.992
25875W        W98135  30.625  36.950  13.005
25876W        W98136  19.712  36.972   2.791
25877W        W98137  33.449  41.409  10.066
25878W        W98138  44.932  18.586   3.294
25879W        W98139  23.132  31.578   2.827
25880W        W98140  36.002  40.419   3.276
25881W        W98141  37.478  42.780   0.822
25882W        W98142  23.723   9.686  11.453
25883W        W98143  16.134  43.414   0.926
25884W        W98144  14.258  26.589  14.021
25885W        W98145  37.929  34.917   0.285
25886W        W98146   5.756   6.360  13.516
25887W        W98147   8.667   6.184   2.180
25888W        W98148  34.563  25.126  13.379
25889W        W98149  24.085  19.181  13.336
25890W        W98150  28.579  27.053   2.192
25891W        W98151  23.504  39.475  12.552
25892W        W98152  25.163  16.249  10.511
25893W        W98153  19.720  11.702   1.292
25894W        W98154  27.581   2.463   1.328
25895W        W98155  37.993  32.514  14.354
25896W        W98156  22.574  40.502   4.682
25897W        W98157   7.331  43.421   2.688
25898W        W98158  28.511  22.715   4.768
25899W        W98159  19.203  23.659   4.319
25900W        W98160   6.391   3.813   0.806
25901W        W98161  40.450  35.599   3.662
25902W        W98162  18.592  27.960   4.816
25903W        W98163  16.123  12.770  13.046
25904W        W98164  13.304  44.001   3.773
25905W        W98165  23.182  16.258  10.916
25906W        W98166  21.178  25.598   4.287
25907W        W98167  35.435   2.759   2.203
25908W        W98168   8.387  24.681  12.911
25909W        W98169  13.277  36.029   1.736
25910W        W98170   7.228  22.710   2.858
25911W        W98171  36.062  34.885  13.448
25912W        W98172  35.439  14.750  11.397
25913W        W98173   0.265  40.974   1.917
25914W        W98174  38.067  19.105  12.006
25915W        W98175  43.450   4.441  12.011
25916W        W98176  39.505  18.593   2.259
25917W        W98177  26.609   0.978  12.007
25918W        W98178  15.227   8.731  13.985
25919W        W98179  17.139  13.689  12.443
25920W        W98180  25.073   5.366   0.272
25921W        W98181  30.005  40.990  12.564
25922W        W98182   1.773  34.371   3.838
25923W        W98183  33.600  12.724  10.090
25924W        W98184   1.927  21.620  12.481
25925W        W98185  33.023  40.933   2.218
25926W        W98186  41.423  43.978   0.364
25927W        W98187  33.403  32.599  13.925
25928W        W98188   2.741   6.421  10.508
25929W        W98189  27.054  35.983   3.750
25930W        W98190  19.085  33.070   4.739
25931W        W98191  11.336  32.534   4.683
25932W        W98192  42.429  33.935   4.793
25933W        W98193   3.761   3.392  12.830
25934W        W98194  44.363   7.746   4.192
25935W        W98195   8.372  10.303   0.431
25936W        W98196  39.560  33.548  11.124
25937W        W98197  12.814  10.183   2.853
25938W        W98198  31.490  33.602   3.185
25939W        W98199  10.377  33.034   0.900
25940W        W98200   9.873   4.868   0.400
25941W        W98201  21.217  35.985   2.295
25942W        W98202   1.833  21.156   1.783
25943W        W98203  14.267  37.888  13.795
25944W        W98204  31.086   3.734   0.816
25945W        W98205  22.245  16.746  11.528
25946W        W98206  25.016  36.016  10.419
25947W        W98207  26.545  10.790  11.875
25948W        W98208  36.092  15.258  11.988
25949W        W98209   4.235  24.157   2.351
25950W        W98210  35.584  41.409   1.448
25951W        W98211  27.472  17.616   4.222
25952W        W98212  32.497   6.360   1.290
25953W        W98213  18.785  20.651   3.722
25954W        W98214  34.963  26.488   4.696
25955W        W98215  20.169  11.823  11.019
25956W        W98216   9.351  15.237  13.992
25957W        W98217  27.644  37.984  11.931
25958W        W98218  20.229   0.835   4.605
25959W        W98219  18.717   2.770  11.547
25960W        W98220  14.692  12.646  13.533
25961W        W98221  42.871  22.590   4.764
25962W        W98222  37.548  17.678   2.748
25963W        W98223   9.182  42.488  11.380
25964W        W98224  28.178  24.135   4.740
25965W        W98225   0.387   7.192   0.730
25966W        W98226  24.572   8.201  12.860
25967W        W98227  17.576  40.994   3.696
25968W        W98228  37.917  27.609  11.065
25969W        W98229  40.934   3.730  12.399
25970W        W98230  22.121   0.978   3.233
25971W        W98231  10.311  20.636   0.414
25972W        W98232  10.160  35.949   2.182
25973W        W98233  12.696  17.241  12.022
25974W        W98234  32.913  31.140   0.754
25975W        W98235  14.326  33.413  13.868
25976W        W98236  42.833  31.583  12.089
25977W        W98237  32.121   0.328  13.934
25978W        W98238  11.666  41.538  13.947
25979W        W98239   8.223   9.186  13.038
25980W        W98240  10.352  23.023   2.702
25981W        W98241  27.177   8.659   4.745
25982W        W98242  19.611  40.019  12.506
25983W        W98243  21.601  38.046  11.557
25984W        W98244  31.507  32.067  11.101
25985W        W98245   6.401  10.307   4.224
25986W        W98246  19.660  11.808  13.891
25987W        W98247  35.360  26.622   0.342
25988W        W98248  14.191  41.907  10.965
25989W        W98249  44.287  21.708   4.689
25990W        W98250   4.778  16.783  11.984
25991W        W98251  34.541  21.710   4.781
25992W        W98252   6.701   5.770  13.388
25993W        W98253   3.920  10.698  13.060
25994W        W98254   7.214  18.606  14.862
25995W        W98255  11.200   5.428  11.437
25996W        W98256   8.832   5.410   0.419
25997W        W98257   4.219   0.366  13.978
25998W        W98258  23.547  40.324   3.646
25999W        W98259   7.821   2.462   1.721
26000W        W98260  10.724  21.155   1.434
26001W        W98261  39.947  21.712   2.716
26002W        W98262   6.750  25.605   2.847
26003W        W98263  27.487  25.477   2.272
26004W        W98264   7.347  17.122   4.792
26005W        W98265  20.191  20.616  10.526
26006W        W98266  14.597  28.960  12.494
26007W        W98267  25.539  17.170   3.172
26008W        W98268  43.421   7.187  13.433
26009W        W98269  25.194  20.567   1.922
26010W        W98270  11.663  31.983  14.401
26011W        W98271  28.634  38.881  14.948
26012W        W98272  40.843  24.013  13.530
26013W        W98273   1.822  12.650   4.166
26014W        W98274  22.214   4.296   0.942
26015W        W98275  16.752  37.450  13.495
26016W        W98276  33.965  20.660  14.813
26017W        W98277   2.293  16.659   3.244
26018W        W98278  25.981   6.251  12.555
26019W        W98279   0.335  13.835  14.968
26020W        W98280  22.055  34.595  12.580
26021W        W98281  27.615  42.826   2.286
26022W        W98282  11.735  23.519  14.898
26023W        W98283  12.360  17.716   0.470
26024W        W98284  38.925  42.822  12.505
26025W        W98285  35.407  17.291  14.483
26026W        W98286  25.624  16.686   3.637
26027W        W98287  30.424  29.954   3.690
26028W        W98288   7.311  14.290  10.501
26029W        W98289   4.220  22.054   2.727
26030W        W98290   7.696  20.633  11.407
26031W        W98291  19.539  11.722   3.838
26032W        W98292   0.769  18.618  13.883
26033W        W98293   0.359  27.033   4.728
26034W        W98294  17.674  13.122   1.772
26035W        W98295  31.497  18.555   3.647
26036W        W98296  19.191  30.568   3.732
26037W        W98297  30.624  41.828   4.722
26038W        W98298  38.511   3.282  10.492
26039W        W98299  40.826  33.011   4.601
26040W        W98300  32.904  43.306   4.718
26041W        W98301  24.100  32.938   1.372
26042W        W98302  40.303  41.970  10.450
26043W        W98303  20.058  42.478   1.448
26044W        W98304  34.067  25.034  13.430
26045W        W98305  26.956  11.622  12.373
26046W        W98306  22.166  12.652   0.439
26047W        W98307   4.790  27.517   2.901
26048W        W98308  21.701  26.017   0.464
26049W        W98309  15.659   1.319   1.817
26050W        W98310  13.830  34.593  11.510
26051W        W98311  34.115  12.254  11.115
26052W        W98312  44.846   1.364   3.182
26053W        W98313   7.211  38.961   2.739
26054W        W98314  33.982  19.230  12.472
26055W        W98315  36.371  29.145   2.392
26056W        W98316  14.738  29.958  13.331
26057W        W98317   5.725  26.694  10.914
26058W        W98318  40.418  38.825  10.619
26059W        W98319   0.770  13.325  13.008
26060W        W98320  38.543  30.045  14.491
26061W        W98321  44.379   3.945  10.999
26062W        W98322  26.489  22.064   1.330
26063W        W98323   2.283  22.022  13.859
26064W        W98324  23.629  35.876  13.523
26065W        W98325  16.614  11.788   2.315
26066W        W98326   4.756  26.100  11.012
26067W        W98327  21.109  40.994   3.349
26068W        W98328   0.291  39.060   2.402
26069W        W98329  29.128  19.740  13.984
26070W        W98330  20.256  33.511  13.866
26071W        W98331  19.764  24.181  13.379
26072W        W98332  34.544  22.704   2.385
26073W        W98333  22.180   8.391   3.376
26074W        W98334  11.159  41.293  13.435
26075W        W98335  43.953  31.645   2.811
26076W        W98336  22.739   3.857   3.171
26077W        W98337  38.373  43.848  12.017
26078W        W98338  35.600  36.943   4.261
26079W        W98339  38.912  30.517  13.436
26080W        W98340  40.407   0.761   3.664
26081W        W98341  28.495  24.083  10.503
26082W        W98342  35.062  40.992   3.836
26083W        W98343  12.658  12.197  12.557
26084W        W98344  29.452  29.651   1.222
26085W        W98345  39.429  16.233   4.748
26086W        W98346   5.812  12.202  11.969
26087W        W98347   9.731  32.394   0.467
26088W        W98348   4.840   5.797   0.286
26089W        W98349  34.098  37.086  14.817
26090W        W98350  43.384  41.901   3.234
26091W        W98351  12.141  22.239  13.399
26092W        W98352  17.276  33.578  13.319
26093W        W98353  42.028  39.429   4.185
26094W        W98354   0.985  10.645   1.882
26095W        W98355  43.854  44.314  11.897
26096W        W98356  25.704  39.318   5.633
26097W        W98357  27.478  21.036   2.888
26098W        W98358  23.603  33.009   3.345
26099W        W98359   4.300  30.626   1.281
26100W        W98360   1.897  37.535  10.444
26101W        W98361  33.593  38.858   3.654
26102W        W98362   2.243  33.113  13.332
26103W        W98363  40.423   2.730  14.354
26104W        W98364  17.604  38.436   4.698
26105W        W98365   5.428  32.009  11.082
26106W        W98366   3.433  43.923  11.912
26107W        W98367   4.265   8.373   0.342
26108W        W98368   7.352   9.738  13.009
26109W        W98369  28.490  40.524   2.344
26110W        W98370  28.116  32.459  14.010
26111W        W98371  15.127   3.338   1.810
26112W        W98372  35.537  15.653  11.103
26113W        W98373  44.448   2.360  13.812
26114W        W98374  19.720   6.319   2.896
26115W        W98375  12.359  21.127  12.946
26116W        W98376   3.327  39.983  12.409
26117W        W98377  22.679  10.313  11.860
26118W        W98378   1.742  19.710   0.331
26119W        W98379  29.985  32.065   5.319
26120W        W98380  25.148  39.910   1.212
26121W        W98381  32.048  15.115  11.117
26122W        W98382   8.744  44.411  14.366
26123W        W98383   3.329  30.466   1.325
26124W        W98384  14.284  27.502   5.650
26125W        W98385  43.830  33.944  13.538
26126W        W98386  44.931   3.900  14.819
26127W        W98387   7.738  17.226   2.385
26128W        W98388  37.567   8.711  11.113
26129W        W98389  11.276  25.056   0.388
26130W        W98390  44.906  20.619  13.886
26131W        W98391  41.981  11.780   2.247
26132W        W98392  42.287  31.935  10.130
26133W        W98393   4.823  38.878  12.514
26134W        W98394  11.798  43.392   0.430
26135W        W98395   0.403  27.653  12.501
26136W        W98396   2.381  43.001  11.999
26137W        W98397   8.845  18.635   0.830
26138W        W98398  34.547  12.625  14.881
26139W        W98399  17.240   7.236  10.581
26140W        W98400  43.952   5.214  13.888
26141W        W98401  28.569  23.024   4.829
26142W        W98402  24.990  44.260  12.511
26143W        W98403  39.510  12.722  13.979
26144W        W98404  43.295  29.079   4.636
26145W        W98405  18.637   6.295  10.562
26146W        W98406   7.274  38.481   1.422
26147W        W98407  12.698  40.463  14.455
26148W        W98408  33.925  17.692   0.286
26149W        W98409  16.800  40.422  12.379
26150W        W98410   1.786  11.760   2.760
26151W        W98411  33.442  13.803  10.158
26152W        W98412   6.416  38.911   0.830
26153W        W98413  25.011  22.730  10.561
26154W        W98414   3.883  12.304   3.274
26155W        W98415  43.883   5.882  10.626
26156W        W98416  36.076  33.076  10.484
26157W        W98417  19.155   4.811  13.941
26158W        W98418   2.831  15.324   1.261
26159W        W98419  31.592  42.973   2.360
26160W        W98420   6.764   4.773   1.756
26161W        W98421  30.504  19.231   3.260
26162W        W98422  33.568   4.804  12.447
26163W        W98423  13.832  23.178  11.499
26164W        W98424  27.537  17.760  12.343
26165W        W98425   1.394  12.781   4.675
26166W        W98426   8.705  31.931   1.221
26167W        W98427  34.550   1.857  13.990
26168W        W98428  29.146  33.459  11.410
26169W        W98429  22.688  34.870   0.954
26170W        W98430   6.744  24.588  13.819
26171W        W98431  44.329  21.542   4.197
26172W        W98432  12.673  29.957   3.374
26173W        W98433  18.758  15.612  10.450
26174W        W98434  37.982   5.412  13.362
26175W        W98435   9.754  26.559  11.010
26176W        W98436  31.972  13.766   0.925
26177W        W98437  25.700   5.375   4.141
26178W        W98438   0.317  25.143  12.389
26179W        W98439  27.507  42.289   0.410
26180W        W98440  33.924  21.223  14.776
26181W        W98441  34.407   1.829   3.635
26182W        W98442  30.454   0.429  14.465
26183W        W98443  14.231  15.252   4.160
26184W        W98444   9.216  42.489   1.926
26185W        W98445  21.709  20.765  10.488
26186W        W98446  42.345   8.882  10.619
26187W        W98447   8.676  10.217  14.810
26188W        W98448  19.075  10.701  11.416
26189W        W98449   8.255   6.218   4.711
26190W        W98450   4.869  31.114  11.379
26191W        W98451  41.472  11.718  13.821
26192W        W98452   4.821  15.631  14.865
26193W        W98453  19.761  27.533  14.459
26194W        W98454   9.357  39.016   4.137
26195W        W98455  38.425  11.325   2.722
26196W        W98456   8.885  38.850  10.917
26197W        W98457   1.927   2.234  13.854
26198W        W98458  25.215  21.516   4.175
26199W        W98459  28.676  25.134  12.475
26200W        W98460   5.817   3.234  10.545
26201W        W98461  33.909  15.788  13.324
26202W        W98462  10.754  33.477   1.211
26203W        W98463  39.916   4.756   3.253
26204W        W98464  31.633   2.431  13.398
26205W        W98465  15.643  44.374   3.245
26206W        W98466  34.922   4.215   3.280
26207W        W98467  40.404  28.646  11.446
26208W        W98468  37.362  35.965   2.205
26209W        W98469   0.888   7.830  14.770
26210W        W98470  44.997  15.197   4.184
26211W        W98471   4.853  26.589  12.012
26212W        W98472   6.348  37.350  14.910
26213W        W98473  26.597  11.216   1.888
26214W        W98474  40.943  27.554  11.909
26215W        W98475   3.274   9.677   4.726
26216W        W98476  37.020  11.157  12.084
26217W        W98477  13.249  43.488   2.365
26218W        W98478  34.600  30.608   0.855
26219W        W98479   9.309  38.424  12.846
26220W        W98480  43.333  23.649  13.013
26221W        W98481  11.216  28.524   2.772
26222W        W98482  31.450   0.899   1.246
26223W        W98483  41.494  12.686   2.327
26224W        W98484  28.643   2.395  14.023
26225W        W98485   2.907   1.830  13.933
26226W        W98486  41.811  19.664   4.757
26227W        W98487  24.048   8.262   1.326
26228W        W98488   3.415  32.587   1.778
26229W        W98489   7.221  31.086  11.910
26230W        W98490  28.603   6.916  11.000
26231W        W98491   0.306  35.401  10.937
26232W        W98492   1.428  25.150   3.305
26233W        W98493  38.564  20.244  12.092
26234W        W98494  28.981  29.146   2.324
26235W        W98495   1.854   8.193  10.907
26236W        W98496  24.136  20.747   3.685
26237W        W98497  44.942   1.243  14.276
26238W        W98498  14.699   0.749  14.824
26239W        W98499  31.957  44.464  10.438
26240W        W98500  37.016   3.930  11.594
26241W        W98501  40.922   0.885   0.347
26242W        W98502  38.929  42.959  11.430
26243W        W98503   0.333  13.166   2.736
26244W        W98504  34.937  36.488  13.538
26245W        W98505  24.609  24.532  11.009
26246W        W98506  24.075  17.741  10.984
26247W        W98507   2.842  43.958  14.912
26248W        W98508  20.186  27.682  12.978
26249W        W98509  42.967  44.987  13.795
26250W        W98510   4.385  17.099  12.906
26251W        W98511  26.062   5.346  11.513
26252W        W98512  18.069  36.388  11.472
26253W        W98513  11.683  21.146   4.302
26254W        W98514  44.847  21.610   3.793
26255W        W98515  24.671  15.265  10.963
26256W        W98516  34.061   3.779   0.376
26257W        W98517  21.682   3.946   0.843
26258W        W98518  15.635  22.606  10.900
26259W        W98519  19.538  18.583   1.295
26260W        W98520  32.109  16.182   4.795
26261W        W98521   2.330  18.667   1.898
26262W        W98522  21.666  12.217  13.807
26263W        W98523   9.326   6.309  10.611
26264W        W98524   9.360   1.817   0.761
26265W        W98525  44.263   1.801   4.616
26266W        W98526  32.409  16.227  10.488
26267W        W98527  21.680  23.562   0.768
26268W        W98528  22.652  24.205  10.463
26269W        W98529  13.664   9.844   4.290
26270W        W98530  36.081  24.581  14.281
26271W        W98531  28.661  30.413   3.647
26272W        W98532  28.086  14.216   2.403
26273W        W98533  38.417  12.833   2.212
26274W        W98534  10.873  31.086   1.384
26275W        W98535  15.642  11.675  14.827
26276W        W98536  44.328   0.290   3.323
26277W        W98537   0.328  39.389  12.046
26278W        W98538  41.937  19.283   4.718
26279W        W98539   3.777  40.506  12.885
26280W        W98540   2.469  31.527  11.386
26281W        W98541  33.586   0.830  12.875
26282W        W98542  33.505  19.606   1.805
26283W        W98543   1.786   9.851   3.346
26284W        W98544  10.205  44.398   1.742
26285W        W98545  37.499   5.336   2.402
26286W        W98546   4.876   9.795   2.812
26287W        W98547  33.903   1.776  12.067
26288W        W98548  16.234  21.640  13.503
26289W        W98549   6.236  17.667   2.683
26290W        W98550  28.070  29.002   4.749
26291W        W98551  25.652  13.252   0.790
26292W        W98552  41.348  27.154  11.512
26293W        W98553   6.243  44.836  12.008
26294W        W98554  36.366   5.893  13.992
26295W        W98555  28.618   9.221  13.955
26296W        W98556  21.745   1.318  14.918
26297W        W98557  36.043   8.797  10.461
26298W        W98558   2.278  30.559  14.974
26299W        W98559  26.459   4.765   1.321
26300W        W98560  31.021  15.627   2.856
26301W        W98561  29.028  16.190  10.634
26302W        W98562  27.189  14.800  12.505
26303W        W98563  15.299  40.858  13.031
26304W        W98564  13.121  29.666  12.067
26305W        W98565  34.579  32.066  14.514
26306W        W98566  17.253  26.137   1.805
26307W        W98567   8.317  23.204  13.475
26308W        W98568  20.034   0.386  10.567
26309W        W98569  35.526   9.303  14.279
26310W        W98570   0.431  19.559   4.696
26311W        W98571   1.359  16.255   2.724
26312W        W98572   5.763  12.679   1.816
26313W        W98573  26.498  22.088   1.883
26314W        W98574   7.902  32.105  10.500
26315W        W98575  37.369  41.862   4.812
26316W        W98576  39.445  17.738  11.899
26317W        W98577  35.503  13.246  13.407
26318W        W98578   7.271  25.048  12.453
26319W        W98579  34.980   1.349  12.925
26320W        W98580  33.027  23.671   1.398
26321W        W98581   3.950  22.722   4.602
26322W        W98582   5.288  35.911  11.608
26323W        W98583  44.477   3.901   2.195
26324W        W98584  11.740  27.953  13.985
26325W        W98585  39.363  32.962  10.616
26326W        W98586  10.315   3.911   1.319
26327W        W98587  33.901  31.121  14.328
26328W        W98588  41.991  31.983  11.048
26329W        W98589  24.226   6.858   4.290
26330W        W98590  38.889  18.751   1.811
26331W        W98591  23.136  15.206   1.790
26332W        W98592  19.284  18.092   2.385
26333W        W98593   6.882  34.881   0.743
26334W        W98594  28.594  30.632  10.949
26335W        W98595  16.268  43.789  11.950
26336W        W98596  16.217  12.711  12.091
26337W        W98597   1.381  10.633   2.835
26338W        W98598  33.045  38.960  13.917
26339W        W98599   0.810  31.939   2.261
26340W        W98600   6.219  39.021   1.927
26341W        W98601  24.183  26.680   5.223
26342W        W98602  26.694  10.727   4.625
26343W        W98603  44.835  24.021   2.720
26344W        W98604   3.794  40.484  13.846
26345W        W98605   7.685  10.791   3.711
26346W        W98606   9.340  23.576   3.746
26347W        W98607  41.308  40.421   0.346
26348W        W98608   3.427  28.169   1.346
26349W        W98609   0.434   3.449  11.926
26350W        W98610  34.532   2.334  10.614
26351W        W98611  44.958  44.831   1.932
26352W        W98612  33.062  27.115  12.389
26353W        W98613  22.706  28.046  10.584
26354W        W98614  12.328   9.173  10.428
26355W        W98615  23.679   0.361  11.382
26356W        W98616  16.713  31.413   3.281
26357W        W98617   8.292  32.026   3.860
26358W        W98618  24.587  34.898   0.886
26359W        W98619  18.766   3.769   2.785
26360W        W98620  33.479  14.245  13.428
26361W        W98621  12.359  23.192   1.927
26362W        W98622   7.251  15.787  12.396
26363W        W98623  21.713  36.539  10.974
26364W        W98624   2.257  11.238   2.885
26365W        W98625   6.791  16.154  12.954
26366W        W98626   6.892  26.179   3.247
26367W        W98627  16.253  28.451   4.233
26368W        W98628  24.485  34.977   4.174
26369W        W98629  44.406  27.020   0.911
26370W        W98630  29.575  27.171   2.790
26371W        W98631  16.121  38.909   1.845
26372W        W98632  13.232  19.062  12.861
26373W        W98633  24.026   8.249  14.842
26374W        W98634  42.789  22.245   0.745
26375W        W98635   0.300  44.001  10.513
26376W        W98636  18.777   7.792  14.924
26377W        W98637  12.249  40.429   3.799
26378W        W98638   1.922  39.387  11.546
26379W        W98639  29.477  15.264   1.864
26380W        W98640  32.587  31.445  11.916
26381W        W98641  18.108  11.220   2.226
26382W        W98642  27.601   0.809   2.880
26383W        W98643  40.435  33.019   0.304
26384W        W98644  14.818  13.779   1.255
26385W        W98645  36.854  42.285   2.313
26386W        W98646  41.305  26.977  10.590
26387W        W98647   3.332  32.456  13.961
26388W        W98648  15.124  27.151  10.440
26389W        W98649  44.982  23.096  10.643
26390W        W98650  41.941   7.698  12.502
26391W        W98651  44.325  28.040  14.841
26392W        W98652  17.084  27.536   1.797
26393W        W98653  12.156  28.127   0.949
26394W        W98654   5.375  21.097  14.807
26395W        W98655   9.884  21.640   4.657
26396W        W98656  14.744  27.645   3.275
26397W        W98657  29.667  27.981  10.428
26398W        W98658  25.605  22.723   3.223
26399W        W98659  36.385   7.230   5.266
26400W        W98660  25.139  44.917   0.256
26401W        W98661  11.313  35.564   2.826
26402W        W98662  14.750   2.945   4.771
26403W        W98663  33.602  15.641  13.519
26404W        W98664  11.809  40.310   0.322
26405W        W98665  11.306  29.935  10.602
26406W        W98666  27.054  19.604   1.350
26407W        W98667  36.440  38.023   4.137
26408W        W98668   5.761  35.396   3.202
26409W        W98669  28.101  11.655   2.230
26410W        W98670  34.492   5.861   0.379
26411W        W98671   3.322   0.289  11.457
26412W        W98672   9.817  19.280  14.434
26413W        W98673  39.421  22.693  11.082
26414W        W98674  29.040  10.295  11.125
26415W        W98675  41.409  36.870  13.912
26416W        W98676  24.611   6.865  12.953
26417W        W98677  22.598   8.179   1.828
26418W        W98678  15.189  36.487  10.961
26419W        W98679  32.061  25.182   0.826
26420W        W98680  19.639   2.943  11.458
26421W        W98681   4.329   7.177   1.236
26422W        W98682  23.577  41.980   0.300
26423W        W98683   2.276  35.940   0.262
26424W        W98684  26.173  11.250  13.486
26425W        W98685  44.887  13.177   0.467
26426W        W98686  12.189   2.807   1.371
26427W        W98687  17.798  13.277  12.512
26428W        W98688  22.610  19.536  14.442
26429W        W98689  18.630  32.522   3.361
26430W        W98690  23.495  32.027   1.916
26431W        W98691  37.004  27.138  10.531
26432W        W98692  13.246  30.954  12.043
26433W        W98693  38.862  38.954   3.787
26434W        W98694  29.983  13.747  12.053
26435W        W98695  31.899  44.876   0.354
26436W        W98696  17.754  31.449  13.994
26437W        W98697  17.161  13.309   1.932
26438W        W98698  10.674  25.650  12.399
26439W        W98699  37.949   6.785  11.892
26440W        W98700  14.622   6.698   1.885
26441W        W98701  26.537   5.371  14.005
26442W        W98702   6.201  29.032  13.470
26443W        W98703   3.891  34.443  14.462
26444W        W98704   7.729   0.955  12.352
26445W        W98705  18.052  34.888  13.324
26446W        W98706  18.243  15.278   0.899
26447W        W98707  41.490  14.222  13.326
26448W        W98708  38.426  14.823   4.336
26449W        W98709  44.450  29.638   2.807
26450W        W98710  22.544  11.181   1.863
26451W        W98711  37.566   0.258   1.449
26452W        W98712  34.409  31.556  14.373
26453W        W98713   6.310   3.790   4.739
26454W        W98714  41.495  21.588  10.548
26455W        W98715  43.014  15.742   0.260
26456W        W98716   9.692   2.392   4.700
26457W        W98717  12.845  32.005   1.281
26458W        W98718  38.877  34.447  10.575
26459W        W98719  26.552  44.284  13.910
26460W        W98720   2.805   8.344   3.361
26461W        W98721  40.369  39.543   0.452
26462W        W98722  37.380  41.461   0.927
26463W        W98723  32.090  15.779   0.920
26464W        W98724   1.310  25.577  11.495
26465W        W98725  32.528  10.283   2.284
26466W        W98726  10.697  30.161   0.402
26467W        W98727  40.338  20.584  10.606
26468W        W98728  39.486  17.595   3.754
26469W        W98729  14.610  38.353  10.630
26470W        W98730  43.807  10.152   3.750
26471W        W98731  13.640  32.979  12.551
26472W        W98732  15.118  14.106   1.391
26473W        W98733  30.954  43.286  11.582
26474W        W98734  36.420  27.980  10.983
26475W        W98735   0.976   2.421   0.927
26476W        W98736  42.493  24.613   0.429
26477W        W98737  40.888  29.461   1.368
26478W        W98738  16.710  25.625   4.681
26479W        W98739  22.081   6.207  11.603
26480W        W98740  38.009  24.184  12.530
26481W        W98741  13.337  44.368  14.403
26482W        W98742  27.476  13.668  14.808
26483W        W98743  30.656  32.489  13.873
26484W        W98744   3.278  27.018   2.680
26485W        W98745  37.535  32.025  10.005
26486W        W98746  37.337  31.559  13.010
26487W        W98747  12.684  42.288  12.346
26488W        W98748   5.765  27.531   4.709
26489W        W98749  16.714  12.829  14.833
26490W        W98750  27.508  11.335  11.545
26491W        W98751  36.962  38.848  11.105
26492W        W98752  18.111  34.574  13.027
26493W        W98753  13.229  29.424   1.374
26494W        W98754   7.405  27.470   1.926
26495W        W98755   6.763  17.763   0.732
26496W        W98756  23.007   8.675  13.331
26497W        W98757  29.941  29.644   3.233
26498W        W98758  12.121  42.311  10.493
26499W        W98759  21.531  34.914  12.093
26500W        W98760  29.517  42.359   3.191
26501W        W98761   7.763  11.783   3.630
26502W        W98762   8.206  25.607  12.915
26503W        W98763  17.244   4.417  13.383
26504W        W98764  23.223  18.088   0.340
26505W        W98765  27.047   9.195   0.482
26506W        W98766  14.101  34.051  14.001
26507W        W98767  33.490  39.325  13.844
26508W        W98768  42.844  29.609  13.868
26509W        W98769   2.388   2.387  12.070
26510W        W98770   7.257  36.035   2.362
26511W        W98771  15.788   8.302  13.355
26512W        W98772  28.666  40.435  12.340
26513W        W98773  11.349   8.277   2.350
26514W        W98774  22.615  22.706   1.764
26515W        W98775  17.149   0.413  10.026
26516W        W98776  43.477  44.954   2.298
26517W        W98777   8.312  24.525   2.189
26518W        W98778  11.199  18.685   4.645
26519W        W98779  18.747  44.812  12.386
26520W        W98780   0.452  28.636   4.211
26521W        W98781  22.095  17.711  13.866
26522W        W98782  42.453  19.616  13.439
26523W        W98783  20.232  11.757  10.044
26524W        W98784  34.503  37.853  13.033
26525W        W98785  16.307  13.272  14.843
26526W        W98786   6.699  21.683   0.873
26527W        W98787  17.587  12.750   1.764
26528W        W98788  12.613  20.695  10.605
26529W        W98789  42.849  24.528  10.587
26530W        W98790  29.541  42.948   3.355
26531W        W98791  29.424  20.726  12.420
26532W        W98792   3.356  33.566  14.413
26533W        W98793  32.142  31.455  13.969
26534W        W98794  19.122  24.988  12.007
26535W        W98795  26.614  38.043  13.837
26536W        W98796  28.462  44.996   4.344
26537W        W98797  43.770  19.779  11.415
26538W        W98798   4.802  29.425   0.477
26539W        W98799  44.393  39.328  13.925
26540W        W98800  27.567  29.045  12.960
26541W        W98801   1.834  14.338  12.881
26542W        W98802  38.875   9.736   0.351
26543W        W98803  13.119  32.907   2.713
26544W        W98804  37.403   1.260   0.906
26545W        W98805  38.920   6.817   9.539
26546W        W98806  19.698  39.915   1.323
26547W        W98807  17.268  24.497  11.892
26548W        W98808  23.003   6.283   4.274
26549W        W98809  30.158  23.192  13.532
26550W        W98810  22.033  33.120  14.319
26551W        W98811  28.436  35.973  14.810
26552W        W98812   8.761   8.864   1.929
26553W        W98813  41.360   4.440  10.430
26554W        W98814   4.750  22.226  10.143
26555W        W98815  15.802  41.028   3.802
26556W        W98816   9.336  30.450  10.937
26557W        W98817  25.987  23.040   4.629
26558W        W98818  32.565  27.057  12.985
26559W        W98819  40.347  27.121  11.532
26560W        W98820  44.785  21.590   4.353
26561W        W98821  15.297  27.179  13.507
26562W        W98822  25.656  12.818  10.641
26563W        W98823  20.731  27.631  11.926
26564W        W98824   2.358  14.296  13.897
26565W        W98825  28.073  30.506   5.660
26566W        W98826  39.847   8.818   1.711
26567W        W98827  31.120  39.886  12.860
26568W        W98828  22.012  10.144  14.496
26569W        W98829   4.266  26.032  14.811
26570W        W98830  30.134   0.256   3.272
26571W        W98831   9.890  37.382  14.301
26572W        W98832  42.378  28.593  13.969
26573W        W98833  23.135  28.121   3.637
26574W        W98834  34.961  15.788   3.309
26575W        W98835  18.208  37.416   1.241
26576W        W98836   3.309  44.342   3.784
26577W        W98837  20.585   8.282  12.061
26578W        W98838  42.885  28.060  11.503
26579W        W98839   0.382  20.233  11.867
26580W        W98840  22.557  32.076  14.459
26581W        W98841  34.111  37.424  12.436
26582W        W98842   2.836  35.083   1.228
26583W        W98843  12.637   1.910   3.867
26584W        W98844   3.249  15.601  10.015
26585W        W98845   7.879  22.739   1.865
26586W        W98846  33.424   1.479  11.418
26587W        W98847  14.787  23.232  10.496
26588W        W98848  11.861  29.608   4.290
26589W        W98849  23.562  12.277   1.741
26590W        W98850   3.267  16.609  12.466
26591W        W98851  22.078  22.541  10.041
26592W        W98852  44.447  18.723  11.404
26593W        W98853  15.631  13.759   1.393
26594W        W98854   0.935  28.044   3.302
26595W        W98855  20.589  43.766  12.552
26596W        W98856  26.204  25.214   4.283
26597W        W98857  15.089  41.336   3.304
26598W        W98858  30.102   6.305   0.280
26599W        W98859  41.968  16.133   3.810
26600W        W98860  16.167  28.056   0.896
26601W        W98861  21.596   6.400   2.351
26602W        W98862  38.473  21.240  11.593
26603W        W98863  34.526  14.205  14.334
26604W        W98864  35.016  23.565  11.932
26605W        W98865  11.626  44.452   1.343
26606W        W98866   3.837  24.978  13.332
26607W        W98867   5.731  28.155   0.353
26608W        W98868  29.508  36.438  14.308
26609W        W98869  10.671  38.071  11.101
26610W        W98870  27.071  38.825  14.380
26611W        W98871  43.851  20.571   2.342
26612W        W98872  30.647  34.045  13.360
26613W        W98873  25.529  12.735   2.765
26614W        W98874  10.875   9.341  10.406
26615W        W98875  38.547  44.973  12.347
26616W        W98876   0.402  23.607  12.932
26617W        W98877  26.533  27.496  14.887
26618W        W98878  17.276  42.988  11.006
26619W        W98879  32.986   3.875  13.985
26620W        W98880   7.357   6.679  14.974
26621W        W98881   8.170  30.099   2.402
26622W        W98882  41.859   0.333   3.302
26623W        W98883   5.391  14.612  12.832
26624W        W98884   7.181  41.964   2.761
26625W        W98885  10.772  15.598   1.729
26626W        W98886  44.464   5.193  12.878
26627W        W98887  42.510  43.968  13.481
26628W        W98888  13.823   3.847  14.945
26629W        W98889  30.523  41.397   2.866
26630W        W98890   7.727  40.015   3.382
26631W        W98891  26.168  27.498  14.348
26632W        W98892  17.170  37.949   0.892
26633W        W98893  16.757  21.615  12.403
26634W        W98894  18.101  32.624   4.676
26635W        W98895  30.141  40.900   3.811
26636W        W98896  16.146  33.981  10.629
26637W        W98897   1.817   1.419   2.196
26638W        W98898  43.341  35.503  11.924
26639W        W98899  17.218  23.728   4.799
26640W        W98900   9.266   2.745   1.709
26641W        W98901  12.638  31.919   4.748
26642W        W98902   8.189  43.441  10.409
26643W        W98903  22.596  39.842   1.416
26644W        W98904  19.636  11.650  11.449
26645W        W98905   0.419   7.771  10.500
26646W        W98906   0.816   0.818  10.638
26647W        W98907  25.568  17.772  12.911
26648W        W98908  32.008  44.922  12.468
26649W        W98909  30.996  18.274   2.347
26650W        W98910  35.881  25.158  11.979
26651W        W98911  17.702  27.550   4.269
26652W        W98912   8.170  21.553   3.347
26653W        W98913  28.941  44.365   0.274
26654W        W98914  24.092  41.356  14.793
26655W        W98915  16.186   3.736   1.259
26656W        W98916  32.411  12.176  14.792
26657W        W98917  21.564  32.102   2.314
26658W        W98918  10.177  33.042   5.285
26659W        W98919  14.205  43.859   4.125
26660W        W98920  25.647   6.722  12.994
26661W        W98921  13.193  27.079   4.712
26662W        W98922   4.227  31.610  12.039
26663W        W98923  19.586  42.415  14.280
26664W        W98924  29.481   7.347  14.026
26665W        W98925  21.512  12.745  14.852
26666W        W98926  34.077   4.262  14.931
26667W        W98927   6.292   1.955  14.993
26668W        W98928  28.478  25.685   0.936
26669W        W98929  22.226  34.487  12.031
26670W        W98930  41.816  21.580  12.870
26671W        W98931  13.819  33.057  13.472
26672W        W98932   9.203  31.483   0.324
26673W        W98933   6.236  22.706   2.383
26674W        W98934  26.969  40.522   1.742
26675W        W98935  39.930  37.077   4.274
26676W        W98936  43.824   8.724  14.835
26677W        W98937  21.132  28.621   0.726
26678W        W98938  17.657  14.237   1.347
26679W        W98939  42.973  31.949   4.797
26680W        W98940  18.745   9.382  10.485
26681W        W98941  13.137   6.218  13.975
26682W        W98942  33.062  10.296  14.985
26683W        W98943  35.401  39.025  12.385
26684W        W98944   8.346  44.298   3.337
26685W        W98945  42.949  14.187  14.337
26686W        W98946   7.313  22.024   2.373
26687W        W98947  26.532  40.841  10.489
26688W        W98948   1.765  16.074  12.415
26689W        W98949   0.808  30.570   2.293
26690W        W98950   6.337  18.188  12.406
26691W        W98951  11.194   5.708  10.499
26692W        W98952  27.027  13.287  10.581
26693W        W98953  30.978  17.069   1.321
26694W        W98954   0.788  37.024   3.218
26695W        W98955   7.323  37.444  12.421
26696W        W98956   3.391   9.647  13.369
26697W        W98957  23.209  39.844  14.412
26698W        W98958  10.872   7.841  13.974
26699W        W98959  35.457  40.489   2.382
26700W        W98960  43.770  12.837   4.676
26701W        W98961  23.232  34.995  11.028
26702W        W98962   4.355  10.259  12.866
26703W        W98963  34.604  13.186  11.499
26704W        W98964   0.783   1.824   0.304
26705W        W98965  35.857  24.113   3.634
26706W        W98966  44.285  29.050  12.487
26707W        W98967  35.072  12.345  13.923
26708W        W98968  39.959  23.563  11.394
26709W        W98969  29.505  12.323  12.535
26710W        W98970  32.022  36.051  10.474
26711W        W98971  10.668  25.204  14.873
26712W        W98972  17.718  42.032  14.870
26713W        W98973  38.034  15.155   1.426
26714W        W98974   2.413  33.595  10.526
26715W        W98975  20.119   7.374   0.955
26716W        W98976  38.041  26.629   3.378
26717W        W98977  40.939  40.864  10.919
26718W        W98978  22.074  25.994   9.469
26719W        W98979   0.835  12.711   1.724
26720W        W98980  41.998  13.815  13.040
26721W        W98981  29.927  36.907   1.389
26722W        W98982   7.678   6.225   4.291
26723W        W98983  12.185  18.605  14.811
26724W        W98984  42.909   9.857  13.828
26725W        W98985  37.023  34.457  11.507
26726W        W98986  22.654  38.395  13.023
26727W        W98987  28.161  23.230  13.043
26728W        W98988  10.163   0.303  11.436
26729W        W98989   6.385  35.444   2.678
26730W        W98990  40.428  10.669  13.014
26731W        W98991  21.132   3.844  12.031
26732W        W98992  36.950  21.566  14.449
26733W        W98993  31.506  26.618  13.830
26734W        W98994  43.375   0.753  12.376
26735W        W98995  42.946  30.969   2.392
26736W        W98996  25.660   5.281  11.515
26737W        W98997  33.594  14.775  11.449
26738W        W98998  26.175  26.554   0.797
26739W        W98999   1.271   3.805   1.830
26740W        W99000   6.806  28.468  14.420
26741W        W99001   4.396  12.342   2.674
26742W        W99002  12.252   4.398  10.508
26743W        W99003  39.424  24.669  14.492
26744W        W99004   8.282  25.009  12.824
26745W        W99005  32.931  14.169   4.676
26746W        W99006  38.978  27.989   3.775
26747W        W99007  42.795  27.085  12.066
26748W        W99008  37.403   8.334  10.451
26749W        W99009  34.901   1.277   0.302
26750W        W99010  34.055  36.992  14.006
26751W        W99011  31.624  16.603  12.463
26752W        W99012  17.298  43.965   4.251
26753W        W99013  38.532  13.657   0.952
26754W        W99014  23.522  26.140  11.926
26755W        W99015  11.239  23.721   1.302
26756W        W99016  25.199  40.307  14.513
26757W        W99017  19.558  11.318  13.530
26758W        W99018  27.543  24.116   4.342
26759W        W99019  26.592  44.485   4.775
26760W        W99020  22.712  39.060  13.875
26761W        W99021  39.536  11.299   2.327
26762W        W99022  41.481  44.996  14.325
26763W        W99023   6.915   9.177   2.744
26764W        W99024  24.156  39.963   3.829
26765W        W99025  41.987   3.235  10.151
26766W        W99026  30.521  42.862   0.918
26767W        W99027  11.181  34.043   4.830
26768W        W99028  40.502  29.015  10.991
26769W        W99029  17.729   0.385  10.492
26770W        W99030  15.126  21.217   0.308
26771W        W99031   6.181  27.505   4.709
26772W        W99032  13.635   6.923  12.996
26773W        W99033  18.594  11.846   3.278
26774W        W99034  12.790  24.597   2.416
26775W        W99035  11.157  11.288  13.868
26776W        W99036  33.561  42.312  11.551
26777W        W99037  22.187  10.149  12.858
26778W        W99038  39.004   1.917   0.311
26779W        W99039  29.169  41.401   2.275
26780W        W99040   8.350   3.255   2.742
26781W        W99041  36.946  37.423   1.329
26782W        W99042   6.870  28.667  11.372
26783W        W99043  20.635  24.219   2.314
26784W        W99044  21.030   8.394   0.438
26785W        W99045   7.399  26.633  10.479
26786W        W99046   8.875  38.399  10.610
26787W        W99047   4.240  13.804   2.374
26788W        W99048  37.485  20.169  13.032
26789W        W99049  10.733  29.010   2.406
26790W        W99050  29.173  27.498   0.425
26791W        W99051  42.334  33.545  11.498
26792W        W99052   2.779  14.618  10.442
26793W        W99053   7.172  40.857  14.931
26794W        W99054  20.700  14.713   3.699
26795W        W99055  16.605  30.614   2.876
26796W        W99056  30.006  18.702  14.917
26797W        W99057   2.879  41.915  14.367
26798W        W99058  35.578  43.872  13.367
26799W        W99059   0.746  42.326  13.362
26800W        W99060  42.289  14.660   4.833
26801W        W99061  43.512  24.183   1.849
26802W        W99062   3.365  41.413  10.414
26803W        W99063   1.899  41.506  12.484
26804W        W99064  19.658  29.647   2.676
26805W        W99065  28.637  26.507   4.201
26806W        W99066  26.483  18.207   0.844
26807W        W99067  38.327  34.962   4.150
26808W        W99068  30.510  18.695  14.780
26809W        W99069   3.341   9.151  14.023
26810W        W99070  44.004  12.272   3.310
26811W        W99071  27.473   8.282  11.906
26812W        W99072  36.049  34.564   0.323
26813W        W99073  23.078   5.319   1.430
26814W        W99074  16.707  43.355  11.097
26815W        W99075  11.252  10.339   3.853
26816W        W99076  15.198  25.632  10.486
26817W        W99077  37.497  10.645   2.732
26818W        W99078   2.766  39.895   1.248
26819W        W99079   1.791  42.293  13.960
26820W        W99080   0.463  16.646   0.257
26821W        W99081  15.714  37.966  11.117
26822W        W99082  20.236   5.827  10.019
26823W        W99083  23.723  44.274  12.910
26824W        W99084   9.297  22.225   0.365
26825W        W99085   3.335  17.787  13.413
26826W        W99086  10.180  42.954  14.846
26827W        W99087  10.369  20.252  14.313
26828W        W99088  44.790  21.226   3.857
26829W        W99089  28.052  29.504   1.828
26830W        W99090  31.083  40.416  13.359
26831W        W99091  23.545   8.262  13.840
26832W        W99092   7.359  10.360  14.836
26833W        W99093  32.559  31.992  11.102
26834W        W99094   6.758  40.921  11.955
26835W        W99095  23.008  31.007  11.396
26836W        W99096  20.046  32.404   2.195
26837W        W99097  13.712  41.519   3.719
26838W        W99098   9.716  18.124  14.279
26839W        W99099   8.222  33.563  13.826
26840W        W99100   4.309  12.799  10.602
26841W        W99101   9.686  24.145  13.857
26842W        W99102  16.318  22.733   2.207
26843W        W99103  35.908   2.943  11.034
26844W        W99104   5.292  28.621   0.740
26845W        W99105  30.916  33.567   2.846
26846W        W99106  35.959   9.729   3.665
26847W        W99107  17.286  27.092   3.337
26848W        W99108  22.252  13.328  13.846
26849W        W99109  26.975  28.592  11.872
26850W        W99110   4.368   9.292  12.429
26851W        W99111  39.998   9.665   4.188
26852W        W99112  42.958   0.369   3.194
26853W        W99113  28.616  17.286   3.209
26854W        W99114  13.187  18.577   1.725
26855W        W99115   9.875  23.141  14.868
26856W        W99116  37.882  12.807   2.781
26857W        W99117   2.426  37.554   3.283
26858W        W99118  18.249  10.684  14.338
26859W        W99119  20.730  21.115  14.366
26860W        W99120  19.097  14.819  14.282
26861W        W99121  14.169  29.978  11.481
26862W        W99122  23.043  44.960  12.361
26863W        W99123   0.371  10.183  14.862
26864W        W99124  30.486   5.301   1.801
26865W        W99125   1.457  42.788  11.534
26866W        W99126  15.647  15.773   0.412
26867W        W99127  20.577  29.951  14.481
26868W        W99128  34.405   0.754   0.732
26869W        W99129  28.018  26.121   0.280
26870W        W99130   4.736  38.477  13.877
26871W        W99131  43.896   3.944   0.939
26872W        W99132  19.710  12.175   2.777
26873W        W99133  21.040   9.166   2.796
26874W        W99134  40.854  26.984  14.417
26875W        W99135  17.794  44.297   0.396
26876W        W99136  39.919  34.899   1.229
26877W        W99137  29.119  20.273   3.310
26878W        W99138  29.499   8.778  11.012
26879W        W99139  30.610  23.027   4.765
26880W        W99140  28.568   2.296  10.513
26881W        W99141  31.517  29.173   1.925
26882W        W99142  24.567  44.269  13.856
26883W        W99143  24.631  25.714  10.590
26884W        W99144  15.617  41.434  13.995
26885W        W99145  41.792   6.234   1.910
26886W        W99146  26.465  39.844   2.714
26887W        W99147  33.907   9.764  10.529
26888W        W99148  16.212  31.552   3.633
26889W        W99149   9.321  12.361   2.850
26890W        W99150  26.108  42.842   2.179
26891W        W99151  29.029  16.087   1.221
26892W        W99152  25.632  24.185  11.946
26893W        W99153  40.314  10.282   4.129
26894W        W99154  12.283   0.923   0.318
26895W        W99155  12.155  24.605  11.901
26896W        W99156  44.419  22.033   4.336
26897W        W99157   0.302  42.289  14.355
26898W        W99158   3.238  19.732  13.011
26899W        W99159  12.621  18.188  12.880
26900W        W99160  11.345  22.086   2.289
26901W        W99161   1.373  34.021   4.758
26902W        W99162  21.629   7.287   0.835
26903W        W99163  41.310  30.120  13.405
26904W        W99164  44.969  35.522  10.458
26905W        W99165  28.593  44.001   1.787
26906W        W99166   9.282  26.577  13.462
26907W        W99167  30.444   0.789  10.964
26908W        W99168  19.240  28.606   3.672
26909W        W99169  10.245   7.846  13.547
26910W        W99170  39.870  28.599   0.442
26911W        W99171  24.222   8.723  14.777
26912W        W99172  20.193  44.427   3.721
26913W        W99173  40.547  37.434  11.884
26914W        W99174  19.662  23.997   3.164
26915W        W99175  23.541  25.979   9.938
26916W        W99176  30.132  39.500   3.243
26917W        W99177  14.146   8.860  11.420
26918W        W99178   3.878  40.820  14.304
26919W        W99179  39.338  19.540   1.899
26920W        W99180   1.914   7.376  13.867
26921W        W99181  10.182  36.435   2.259
26922W        W99182  35.468  37.481   2.743
26923W        W99183  37.840  29.950  11.892
26924W        W99184  23.052  43.773   0.314
26925W        W99185  43.920   3.275  13.008
26926W        W99186  44.503   5.825  13.412
26927W        W99187   0.964   3.283  13.871
26928W        W99188  15.117  17.740  14.768
26929W        W99189  24.177  16.593   0.317
26930W        W99190  37.528  38.972  12.576
26931W        W99191   5.842  17.746  13.519
26932W        W99192  43.980  11.173   0.293
26933W        W99193  20.191   8.395   0.308
26934W        W99194  18.721  34.371  11.405
26935W        W99195  12.310   2.762  13.422
26936W        W99196  22.670  26.000  14.441
26937W        W99197  32.544  17.637  10.509
26938W        W99198  27.038   6.828   1.761
26939W        W99199  30.080  20.578  14.400
26940W        W99200  41.323  11.681   4.820
26941W        W99201  35.013  12.310  13.536
26942W        W99202  24.642  28.638  10.486
26943W        W99203   7.331   5.326  14.452
26944W        W99204  43.808  25.696  10.900
26945W        W99205  13.772  21.131  11.434
26946W        W99206  13.721  19.615   4.185
26947W        W99207  44.444  26.182   4.743
26948W        W99208  36.518   9.305  13.386
26949W        W99209  26.647  39.816  12.965
26950W        W99210  37.004  31.974  10.583
26951W        W99211  39.879  25.639  10.945
26952W        W99212  13.668   7.844   4.628
26953W        W99213  14.258   0.940  12.013
26954W        W99214   0.286   5.887  11.913
26955W        W99215  18.710  15.292  14.468
26956W        W99216   9.173  39.820  13.858
26957W        W99217  26.073   2.773  10.891
26958W        W99218  30.062  12.847  12.383
26959W        W99219   5.751  28.458   5.113
26960W        W99220  28.481  26.178   0.943
26961W        W99221  22.691   3.305  10.104
26962W        W99222  27.171  17.789   3.806
26963W        W99223   0.353   6.283  10.512
26964W        W99224   8.719  37.570   0.753
26965W        W99225  13.697  20.566  13.493
26966W        W99226  12.117   4.865  11.007
26967W        W99227   2.738   2.377   2.207
26968W        W99228  12.677  28.061  13.796
26969W        W99229  18.783  29.561  10.559
26970W        W99230  22.504  28.996  10.589
26971W        W99231  26.188  31.511   4.767
26972W        W99232  41.333   4.382  11.029
26973W        W99233   2.418  14.142   1.267
26974W        W99234  24.121  18.742   2.863
26975W        W99235   4.223  19.232  14.953
26976W        W99236  44.890  32.893   3.775
26977W        W99237   9.278  40.822   1.298
26978W        W99238  25.081  23.222   2.803
26979W        W99239  29.535  17.601  13.510
26980W        W99240  27.588   3.741  14.814
26981W        W99241  18.680  38.048  14.375
26982W        W99242   8.200  42.818  12.374
26983W        W99243  34.505  21.618   3.157
26984W        W99244  35.964  14.227   1.295
26985W        W99245  28.673  35.924   1.709
26986W        W99246  41.952  22.605   2.678
26987W        W99247  38.018   8.708  12.085
26988W        W99248   1.798  38.396   3.347
26989W        W99249  38.541  18.172   3.313
26990W        W99250   2.288  44.312  12.086
26991W        W99251  43.864   3.357   2.255
26992W        W99252  10.819   5.425  13.921
26993W        W99253  43.999  18.122   0.796
26994W        W99254  37.383  13.260   3.386
26995W        W99255  39.547  31.074   4.760
26996W        W99256  21.541  31.013   2.669
26997W        W99257  18.282  15.273   0.276
26998W        W99258  24.574   4.441   0.931
26999W        W99259   6.895  23.135   1.926
27000W        W99260  29.082   4.756  11.039
27001W        W99261   6.678  24.698   3.194
27002W        W99262   7.368  23.718  14.969
27003W        W99263  31.606  12.844  12.428
27004W        W99264  28.987  26.119   4.244
27005W        W99265  25.605  35.096  11.975
27006W        W99266   4.738  22.525  10.003
27007W        W99267  34.410  10.197  14.400
27008W        W99268  28.979  33.572   2.355
27009W        W99269  38.037  32.544   2.359
27010W        W99270   4.761  44.843   2.790
27011W        W99271  37.904  15.645  12.506
27012W        W99272   2.312  41.863  10.489
27013W        W99273  37.970  15.612  14.013
27014W        W99274  10.714   3.262  13.458
27015W        W99275  22.660  25.148  10.632
27016W        W99276  13.131  18.772   4.305
27017W        W99277  18.725   1.877  13.505
27018W        W99278  38.022   4.724   0.385
27019W        W99279  41.011  37.547  13.432
27020W        W99280  19.169   7.303  12.838
27021W        W99281  33.080  15.271   4.828
27022W        W99282   0.463  21.627   4.193
27023W        W99283  25.123  35.994  13.970
27024W        W99284   2.265  40.471  11.918
27025W        W99285  34.399   2.431   1.754
27026W        W99286  31.594  30.109  11.032
27027W        W99287  43.443   4.275   2.901
27028W        W99288  21.550  17.616  11.420
27029W        W99289   5.199  38.540  14.903
27030W        W99290  19.701  40.381   4.232
27031W        W99291  14.309   4.718   0.798
27032W        W99292   2.903  38.513  11.052
27033W        W99293   8.359  32.522   0.953
27034W        W99294  40.938  27.961  12.416
27035W        W99295  41.327  12.116  12.498
27036W        W99296  26.695   4.888  10.464
27037W        W99297  42.810   9.182  12.958
27038W        W99298  41.940   5.933  14.829
27039W        W99299  38.336  17.099  12.466
27040W        W99300  42.512  20.118   3.345
27041W        W99301  13.322   7.873   3.689
27042W        W99302  30.421  28.124  10.949
27043W        W99303  22.045  29.531   3.697
27044W        W99304  31.100  16.315   1.728
27045W        W99305  11.658  21.128  11.489
27046W        W99306   4.263  18.692   1.315
27047W        W99307  40.390   0.263   4.267
27048W        W99308  30.520   5.925  10.899
27049W        W99309  34.567   0.442  10.620
27050W        W99310  17.749  28.440   2.335
27051W        W99311  37.930  38.412   3.342
27052W        W99312  13.207  42.912  13.393
27053W        W99313  41.803  32.469  14.429
27054W        W99314  24.979  24.122   2.336
27055W        W99315   8.693  10.191   1.699
27056W        W99316   7.308   7.205   4.699
27057W        W99317  36.982  24.167   2.684
27058W        W99318   0.817  20.564  10.122
27059W        W99319  41.943  12.173  12.424
27060W        W99320  41.877  29.964  14.942
27061W        W99321  23.004  23.150  13.884
27062W        W99322  32.538  11.769   1.349
27063W        W99323   5.932  22.740   0.332
27064W        W99324   3.928   8.798  11.895
27065W        W99325  26.655   0.435   2.667
27066W        W99326  11.731  31.085  11.565
27067W        W99327  38.838  44.374  11.954
27068W        W99328  24.644  34.991   1.755
27069W        W99329  17.163  25.610   3.347
27070W        W99330  17.679  33.892   4.241
27071W        W99331  19.573  26.095   1.411
27072W        W99332  32.989  34.098  12.000
27073W        W99333  39.472   5.717   3.240
27074W        W99334   9.376  31.024   3.326
27075W        W99335   9.710  24.535  12.525
27076W        W99336  12.203  28.041   3.694
27077W        W99337   3.266  37.938   4.720
27078W        W99338  15.696  34.510  10.155
27079W        W99339  36.044  37.915  12.561
27080W        W99340  19.051   7.756   4.148
27081W        W99341  16.230  42.469   2.732
27082W        W99342   7.301  37.461   2.415
27083W        W99343  11.804   4.736  14.809
27084W        W99344   6.772  26.534  13.428
27085W        W99345  24.502  32.011  12.050
27086W        W99346  12.225  33.468   0.906
27087W        W99347   9.653  38.555  12.089
27088W        W99348  24.975  35.074  10.628
27089W        W99349  22.605  25.526  12.392
27090W        W99350   4.250  44.868  10.428
27091W        W99351   7.876  17.641   4.828
27092W        W99352  41.829   5.794  10.912
27093W        W99353  32.636   8.800   0.749
27094W        W99354  34.014  33.115  13.872
27095W        W99355  15.275   7.373  13.315
27096W        W99356   5.759  30.007   4.256
27097W        W99357  42.456   5.322  14.305
27098W        W99358  16.313  14.133   2.254
27099W        W99359  40.532  13.319  14.311
27100W        W99360  13.823   9.154  11.579
27101W        W99361  39.902  20.050   4.324
27102W        W99362  31.908  38.989  10.089
27103W        W99363  28.656  41.042   4.694
27104W        W99364  19.284  15.806   3.785
27105W        W99365   9.254   1.935   3.177
27106W        W99366  44.413  10.825   3.868
27107W        W99367  35.542  43.450  12.501
27108W        W99368   6.873   5.925  11.931
27109W        W99369  10.213  32.554  10.477
27110W        W99370  15.223  10.372  14.504
27111W        W99371  38.980  37.414  12.480
27112W        W99372  23.124  17.262   1.718
27113W        W99373  27.116  12.663   2.382
27114W        W99374  20.751   9.243   2.681
27115W        W99375  32.069  13.652  14.480
27116W        W99376  44.445   5.322   0.420
27117W        W99377  27.580   7.412  13.938
27118W        W99378   7.861  29.509  13.053
27119W        W99379   0.359  18.055   1.240
27120W        W99380  11.864  36.427   4.818
27121W        W99381   8.296  34.569   4.738
27122W        W99382  10.331  30.454   2.820
27123W        W99383  37.981  40.347  14.484
27124W        W99384  39.553  33.422  13.431
27125W        W99385  41.440  22.742  14.899
27126W        W99386  17.601  36.092   1.848
27127W        W99387  41.811  13.727  11.496
27128W        W99388   0.967  22.123   0.854
27129W        W99389  22.222  25.562   2.692
27130W        W99390  26.592  36.870  13.014
27131W        W99391  26.611   5.730  10.054
27132W        W99392   6.850  20.213   1.806
27133W        W99393  32.913  18.745  13.307
27134W        W99394  30.987   1.317  13.832
27135W        W99395  29.080  13.222   4.268
27136W        W99396  22.029  12.713  10.565
27137W        W99397  30.520  33.983  14.479
27138W        W99398   1.874  34.871   2.255
27139W        W99399  22.546  21.587   3.826
27140W        W99400  39.525  37.056  12.349
27141W        W99401   0.385  42.889   3.845
27142W        W99402  26.675   3.388  14.795
27143W        W99403  29.978   0.340  14.028
27144W        W99404   4.435  39.896  12.823
27145W        W99405  11.251  44.451   1.929
27146W        W99406  32.126  36.467   2.783
27147W        W99407   2.738  18.575  11.594
27148W        W99408   7.725   4.217   4.259
27149W        W99409  36.515   8.387  12.432
27150W        W99410  42.348  20.219  14.390
27151W        W99411  39.992  20.253  14.426
27152W        W99412  24.148  16.224  13.405
27153W        W99413   5.289  38.479  13.501
27154W        W99414   6.225  42.482  14.310
27155W        W99415  38.046  23.134   3.267
27156W        W99416  17.636  17.728  10.626
27157W        W99417  24.982   5.839  13.815
27158W        W99418  20.041  32.012   0.786
27159W        W99419  28.482  31.480   0.287
27160W        W99420  36.012   0.800  14.895
27161W        W99421   4.222   4.772   0.257
27162W        W99422  20.056  32.971   4.136
27163W        W99423  16.795  43.974   3.221
27164W        W99424  40.891  32.124   1.344
27165W        W99425  11.731  16.144   3.182
27166W        W99426  44.439   6.812   0.450
27167W        W99427  38.376  10.801   3.326
27168W        W99428   3.288  29.165   2.373
27169W        W99429  33.499   4.763   4.651
27170W        W99430   0.345  13.240   0.896
27171W        W99431  11.363  21.613   2.869
27172W        W99432  34.002  29.606   1.384
27173W        W99433  37.547  16.190  10.518
27174W        W99434  23.183  16.240  10.568
27175W        W99435  38.022  32.916  10.541
27176W        W99436  17.238  15.188  12.861
27177W        W99437  35.920  23.537   0.898
27178W        W99438   8.765   4.832  13.533
27179W        W99439   1.828  35.103   4.806
27180W        W99440   9.232  24.143  11.547
27181W        W99441  36.062  10.814  14.297
27182W        W99442  33.951   1.812   1.753
27183W        W99443   9.695  27.575   1.397
27184W        W99444  17.259  15.746   5.300
27185W        W99445   9.858  23.172  10.444
27186W        W99446  10.330  29.041  12.996
27187W        W99447  34.091  24.698  10.433
27188W        W99448  26.628   7.666  13.033
27189W        W99449  40.462   3.435  10.155
27190W        W99450  43.372  34.484  14.470
27191W        W99451   8.213   5.246   4.597
27192W        W99452   0.297  26.543  13.887
27193W        W99453  32.968  39.965   0.918
27194W        W99454   7.307  15.749   3.701
27195W        W99455  41.845  38.450  11.566
27196W        W99456  23.084   7.862  10.918
27197W        W99457  41.469   9.729   4.601
27198W        W99458  39.327  42.325   3.374
27199W        W99459  25.050   0.982  13.548
27200W        W99460  13.301   7.392   2.827
27201W        W99461   9.244  14.597  10.433
27202W        W99462   5.752  33.046   4.800
27203W        W99463  29.624  27.000  12.515
27204W        W99464   9.682  32.003   1.852
27205W        W99465  43.459  19.138  14.851
27206W        W99466   4.346  27.183  13.919
27207W        W99467  33.388   6.289   2.300
27208W        W99468  14.605  43.428   2.691
27209W        W99469   5.354  28.080   2.887
27210W        W99470  32.519   1.915   4.769
27211W        W99471  20.225  16.579  12.936
27212W        W99472   8.300  22.604   2.771
27213W        W99473  40.509  37.463   0.451
27214W        W99474  42.445  37.920   0.871
27215W        W99475  19.616  21.626  12.459
27216W        W99476   8.779  22.238   0.282
27217W        W99477  38.846  32.584  13.421
27218W        W99478  30.062  14.328   1.873
27219W        W99479  26.693  24.700   3.379
27220W        W99480  37.367  27.137  13.456
27221W        W99481   2.749  12.260   3.255
27222W        W99482  31.638  39.891   1.422
27223W        W99483  44.009  10.718  11.572
27224W        W99484  35.386   0.402   2.390
27225W        W99485  21.554  16.763  13.823
27226W        W99486  43.842  38.073  12.887
27227W        W99487  14.249  25.540   0.939
27228W        W99488  30.454  13.831   4.803
27229W        W99489  36.493  33.080  13.013
27230W        W99490  38.893  23.696  13.799
27231W        W99491  22.007  31.095  14.789
27232W        W99492  15.675  21.692  12.407
27233W        W99493   8.692   1.438  10.643
27234W        W99494  31.923  18.625   3.333
27235W        W99495  44.332  35.498  10.572
27236W        W99496   9.678  11.156   2.763
27237W        W99497  44.372  16.277  11.591
27238W        W99498  22.712   0.927   4.230
27239W        W99499  22.601  18.583  12.895
27240W        W99500  43.919   4.330   1.823
27241W        W99501  31.445  15.255  12.513
27242W        W99502  27.018  29.561  12.892
27243W        W99503  34.393  17.757  10.127
27244W        W99504   6.358  35.467   0.870
27245W        W99505  15.590  14.637   2.226
27246W        W99506   4.792  19.089   0.356
27247W        W99507  25.986  25.187  10.933
27248W        W99508  40.980  33.405   3.324
27249W        W99509  30.014  34.933   1.755
27250W        W99510  10.160  18.663   4.802
27251W        W99511  39.874   5.268  13.847
27252W        W99512  34.523   7.322  13.525
27253W        W99513  41.850  33.478  14.503
27254W        W99514  33.938  40.409  12.866
27255W        W99515  29.053  40.052  12.032
27256W        W99516   5.263  25.496  14.473
27257W        W99517   8.683  42.332  11.011
27258W        W99518   2.226  35.582  11.033
27259W        W99519  13.832   3.947   0.911
27260W        W99520  33.404  14.301  12.435
27261W        W99521  18.580  40.373  10.588
27262W        W99522  25.547  27.606  12.046
27263W        W99523  31.977  28.031  14.930
27264W        W99524   8.231  13.731   0.734
27265W        W99525   5.355  21.030  14.510
27266W        W99526  40.914   6.780  12.470
27267W        W99527  24.023   7.770  14.021
27268W        W99528  16.639  38.453   3.180
27269W        W99529  16.297  39.444  14.865
27270W        W99530  38.374  26.649   4.694
27271W        W99531  24.492   6.826   4.726
27272W        W99532  14.218  12.332  11.857
27273W        W99533   8.694  34.417   1.270
27274W        W99534   4.324   8.791  13.007
27275W        W99535   2.260  38.862  14.838
27276W        W99536  14.259  10.838  10.919
27277W        W99537   2.349  40.425   1.417
27278W        W99538  40.514  28.110   0.849
27279W        W99539   3.759   3.839  14.946
27280W        W99540  40.306  24.682  14.866
27281W        W99541  16.590  43.366   0.325
27282W        W99542  34.568  35.009   0.821
27283W        W99543  44.994  18.738  11.113
27284W        W99544   1.879   0.275   2.303
27285W        W99545   9.749  27.468  14.834
27286W        W99546  13.271  39.929  11.587
27287W        W99547  43.458  16.258  14.782
27288W        W99548  21.728  14.784  10.618
27289W        W99549  38.389  15.823   1.258
27290W        W99550   7.259   1.471  13.350
27291W        W99551   2.361  18.710   3.300
27292W        W99552   7.199  18.282  13.875
27293W        W99553   0.830   0.814   4.654
27294W        W99554  18.253   6.274  14.773
27295W        W99555  28.670  30.080   5.242
27296W        W99556  30.932  15.817  10.131
27297W        W99557  38.861  42.806   2.832
27298W        W99558   8.813  33.592  12.473
27299W        W99559  33.066  43.942   1.229
27300W        W99560  29.607   7.307   4.336
27301W        W99561  27.676   9.290   3.302
27302W        W99562  34.962  15.629  14.987
27303W        W99563  34.980   4.796   1.894
27304W        W99564  38.539  43.501   1.251
27305W        W99565   4.900   8.205  12.981
27306W        W99566  17.084   5.228   1.856
27307W        W99567   6.680  31.535  12.056
27308W        W99568   6.864  24.122  11.124
27309W        W99569   5.198   7.903   3.156
27310W        W99570  41.388  18.561  14.965
27311W        W99571  27.167  18.266  14.440
27312W        W99572  25.661   3.442  11.051
27313W        W99573  23.548   3.323   1.899
27314W        W99574   1.965  19.657  14.907
27315W        W99575  23.687  11.806   2.257
27316W        W99576   8.302  27.632   3.859
27317W        W99577  27.003  22.134   1.394
27318W        W99578   6.377   9.330  11.609
27319W        W99579   9.214  20.597  10.507
27320W        W99580  15.735   7.772   3.651
27321W        W99581   1.420   6.254   2.826
27322W        W99582  19.759   7.779   0.243
27323W        W99583  22.664  33.121  11.000
27324W        W99584  17.629  38.534   1.848
27325W        W99585  22.077  16.202  12.543
27326W        W99586  42.985  26.053   1.710
27327W        W99587   8.682  33.539  13.512
27328W        W99588  38.465  19.672   3.699
27329W        W99589   0.312  18.573   2.275
27330W        W99590  19.609  36.544  12.060
27331W        W99591   3.285  13.776   1.370
27332W        W99592  15.279  33.951  13.418
27333W        W99593  14.234  14.332  14.031
27334W        W99594  33.929  31.087  13.955
27335W        W99595  30.479  40.894   1.343
27336W        W99596  17.251  44.794  10.407
27337W        W99597  36.420  12.145  11.006
27338W        W99598   1.316  17.639   1.850
27339W        W99599  44.460  29.045   1.764
27340W        W99600  41.498   3.824  10.970
27341W        W99601  18.222  26.470  14.023
27342W        W99602  41.495   1.421  12.014
27343W        W99603  34.912  28.078  14.758
27344W        W99604   6.295  40.023  14.916
27345W        W99605  44.270  26.621   5.144
27346W        W99606  38.493  26.590  11.566
27347W        W99607  42.350  38.553  13.428
27348W        W99608  14.164  10.710   0.948
27349W        W99609  41.454  35.490  10.508
27350W        W99610   4.865  23.532  12.933
27351W        W99611   6.903  20.139   4.640
27352W        W99612  31.449  40.033  10.575
27353W        W99613  41.306  25.624   0.867
27354W        W99614   7.741  35.487   4.125
27355W        W99615  25.124   6.886   4.228
27356W        W99616  37.002  39.519  10.446
27357W        W99617  14.806   9.702   2.813
27358W        W99618  23.185  24.129  13.001
27359W        W99619  25.008  42.496  11.046
27360W        W99620  38.451  34.980   4.692
27361W        W99621  36.913  19.752   4.157
27362W        W99622  35.864   6.847   4.642
27363W        W99623   6.242  28.966   3.685
27364W        W99624  15.604   1.294  14.347
27365W        W99625  32.549  33.952  12.384
27366W        W99626  32.405   3.875   0.919
27367W        W99627   5.911   1.376  11.928
27368W        W99628  32.013  13.820  13.878
27369W        W99629  22.142  18.608  12.023
27370W        W99630  26.086  28.539  12.842
27371W        W99631  19.603  18.741   2.230
27372W        W99632  25.569  40.341  13.378
27373W        W99633  23.077   5.850   4.656
27374W        W99634  43.335   6.786  13.972
27375W        W99635  42.955  37.512   0.456
27376W        W99636  37.903  11.231  11.037
27377W        W99637  40.872  39.063  10.554
27378W        W99638  10.691  21.597  12.916
27379W        W99639   7.332   4.369  10.486
27380W        W99640   9.339  25.056  13.365
27381W        W99641  24.714   2.263  12.056
27382W        W99642   9.292  13.304   4.198
27383W        W99643  23.075  11.222   2.212
27384W        W99644   6.294  12.853  13.391
27385W        W99645  16.713  21.219  13.847
27386W        W99646  32.128  16.178   2.324
27387W        W99647  21.752  43.964   2.221
27388W        W99648  26.577  34.577   4.618
27389W        W99649  40.363  11.218   3.756
27390W        W99650  15.781  25.485  10.939
27391W        W99651   4.391  16.799  14.898
27392W        W99652  28.642  29.964   2.214
27393W        W99653  34.380   5.292   1.905
27394W        W99654  40.527  12.187   1.355
27395W        W99655   3.889  22.113  10.533
27396W        W99656  20.212  37.578   4.220
27397W        W99657  19.767  30.129   4.745
27398W        W99658  44.819  12.139   0.349
27399W        W99659   9.699  23.529   4.319
27400W        W99660  31.002  38.459  13.419
27401W        W99661  37.933   9.358   0.454
27402W        W99662   5.416  28.139   1.803
27403W        W99663  27.466   5.355   1.372
27404W        W99664   3.269  43.867  14.344
27405W        W99665   5.775  35.036   0.275
27406W        W99666  28.555  30.050   2.890
27407W        W99667  40.019  27.181   4.274
27408W        W99668  22.666  39.970  11.057
27409W        W99669  30.473  19.286  10.550
27410W        W99670  29.499  32.040   2.787
27411W        W99671  19.583  24.151  12.516
27412W        W99672  31.595  15.283  10.433
27413W        W99673  23.492   0.945   3.800
27414W        W99674  34.372  31.531  12.965
27415W        W99675  29.118  11.693  11.483
27416W        W99676  42.389  11.628  13.546
27417W        W99677  17.682  26.693   3.341
27418W        W99678  30.052  39.554   4.740
27419W        W99679   7.183  23.604  12.434
27420W        W99680  36.061  24.581  13.022
27421W        W99681  42.328   9.684   1.273
27422W        W99682  40.806  29.165   0.914
27423W        W99683  13.658   8.738  14.430
27424W        W99684  34.981   2.371  12.345
27425W        W99685  11.783  27.459   3.315
27426W        W99686  12.343  36.499   4.800
27427W        W99687   4.445   1.245   1.380
27428W        W99688   1.894  34.494  12.867
27429W        W99689  38.559  12.238   3.357
27430W        W99690  32.460   3.433   3.193
27431W        W99691  19.565  14.649  11.113
27432W        W99692  25.581  16.663  12.998
27433W        W99693  19.176  39.412  13.494
27434W        W99694   9.729  25.191   1.754
27435W        W99695   5.883  35.976  11.103
27436W        W99696  14.288  20.121   0.753
27437W        W99697  12.337  28.050  10.976
27438W        W99698  28.934  14.269   0.944
27439W        W99699  35.882  17.153  14.811
27440W        W99700  32.982  40.429  14.937
27441W        W99701  31.147  38.422  10.967
27442W        W99702  24.215  23.232   0.886
27443W        W99703  42.916  38.364  13.468
27444W        W99704  21.515  26.177   5.252
27445W        W99705  22.581  36.424  12.878
27446W        W99706  21.724  12.768  14.303
27447W        W99707  22.148  20.051  12.460
27448W        W99708  22.111  12.818   4.643
27449W        W99709   9.263  18.227   4.746
27450W        W99710  43.994  11.831  12.479
27451W        W99711  15.320  29.620  13.024
27452W        W99712  12.294  27.687   0.930
27453W        W99713  14.812  19.672  12.339
27454W        W99714  22.250  21.109   3.304
27455W        W99715   8.379   1.334   4.252
27456W        W99716  23.986  20.203  10.953
27457W        W99717  16.268  29.439  14.009
27458W        W99718  22.067  22.629  10.595
27459W        W99719   8.334  34.385   1.803
27460W        W99720  43.458  21.561  13.359
27461W        W99721   7.805  18.751  14.760
27462W        W99722   5.785   0.327  12.474
27463W        W99723  21.094  35.406   2.677
27464W        W99724   4.360  32.472   4.611
27465W        W99725   5.217  21.041  12.859
27466W        W99726  33.460   3.885   3.163
27467W        W99727   1.961  42.005  14.015
27468W        W99728   4.711   3.326   3.158
27469W        W99729   3.443  31.108  11.572
27470W        W99730   6.767  14.818  11.558
27471W        W99731  22.066  36.561  14.443
27472W        W99732   9.168  29.031   4.651
27473W        W99733  15.615  38.350  11.988
27474W        W99734  22.103  11.806  13.477
27475W        W99735  10.834  27.959  11.491
27476W        W99736  25.565  26.960  10.981
27477W        W99737  23.549  42.002  13.404
27478W        W99738   6.292  44.905  13.491
27479W        W99739  25.541  15.676  14.362
27480W        W99740   9.318   2.400   4.622
27481W        W99741  23.719  15.693  11.996
27482W        W99742  32.950  10.662   3.755
27483W        W99743  14.104  36.584  14.770
27484W        W99744  17.657   5.251  13.320
27485W        W99745  32.400  39.026   1.743
27486W        W99746  39.357  29.479  11.598
27487W        W99747   2.749  10.215   4.670
27488W        W99748  26.110  34.966  10.404
27489W        W99749   0.258  24.209  10.978
27490W        W99750   8.884  28.077   2.706
27491W        W99751  35.061  39.844   2.758
27492W        W99752  19.138  37.865  12.400
27493W        W99753  26.668   2.279  13.914
27494W        W99754  39.321  13.618   1.788
27495W        W99755  10.298  14.819  12.048
27496W        W99756  10.182  10.209   3.755
27497W        W99757  37.435  25.062  14.458
27498W        W99758  21.699  42.385  12.895
27499W        W99759  40.839  32.541   1.909
27500W        W99760  22.183  38.453  12.967
27501W        W99761   9.303  42.908   3.235
27502W        W99762   3.899  25.691  13.381
27503W        W99763  43.921  18.600  13.064
27504W        W99764  37.076  16.752   2.790
27505W        W99765  17.757  37.005  12.382
27506W        W99766  40.409  33.519  11.116
27507W        W99767   0.782  39.415   4.808
27508W        W99768   5.323   7.871  10.498
27509W        W99769  20.690  32.548   3.680
27510W        W99770   8.851  43.892  12.523
27511W        W99771  32.003   0.489   0.246
27512W        W99772   4.801   1.385  10.509
27513W        W99773  38.492  21.194  12.415
27514W        W99774   5.336  44.463   3.221
27515W        W99775  23.652  36.477   2.819
27516W        W99776  38.975  40.365  12.061
27517W        W99777  19.763  22.696   0.899
27518W        W99778   3.372  41.974   0.770
27519W        W99779  41.037   5.829  13.539
27520W        W99780  42.384  13.248  13.400
27521W        W99781  39.828  23.153  10.499
27522W        W99782   6.400  34.570  12.954
27523W        W99783  40.509  43.374  14.496
27524W        W99784  29.131   8.771   5.138
27525W        W99785  17.741  26.976   0.754
27526W        W99786   3.859  41.922  13.857
27527W        W99787  31.449   8.296   0.904
27528W        W99788  39.922  17.599  14.331
27529W        W99789   2.829  35.535   1.787
27530W        W99790  32.415  22.055  12.538
27531W        W99791  26.593  41.473   1.849
27532W        W99792  16.591  25.143   3.151
27533W        W99793  40.534  30.491  10.091
27534W        W99794  32.470  44.306   0.274
27535W        W99795  41.332  21.081   4.621
27536W        W99796  13.203  21.690   4.224
27537W        W99797  30.453  35.101  12.448
27538W        W99798  39.408  31.484   3.736
27539W        W99799  43.971   5.837   2.672
27540W        W99800  24.081  41.355  11.541
27541W        W99801  15.700  29.086  12.540
27542W        W99802  42.861  44.977  13.390
27543W        W99803  24.974  24.551   3.867
27544W        W99804   8.293   2.772   1.241
27545W        W99805  26.153  11.865   0.325
27546W        W99806  43.880  41.482  14.884
27547W        W99807  29.165   1.796  11.882
27548W        W99808   9.349  12.182  13.946
27549W        W99809  22.699  19.623  14.003
27550W        W99810  36.049  30.107  13.329
27551W        W99811  26.643   1.869  12.540
27552W        W99812  35.586   2.875   0.312
27553W        W99813  28.451  26.170  12.937
27554W        W99814  10.356  21.075  13.323
27555W        W99815  37.470  36.398   4.719
27556W        W99816  35.452   5.426  14.996
27557W        W99817   1.768  19.688  10.430
27558W        W99818   1.956  43.816  10.476
27559W        W99819  40.440   7.401   1.921
27560W        W99820  20.647  33.094   0.411
27561W        W99821  32.926   5.418   3.294
27562W        W99822   4.785  38.466   0.296
27563W        W99823   0.810  17.087  14.918
27564W        W99824  17.663  30.520   4.636
27565W        W99825  37.911  24.480   4.789
27566W        W99826  23.167   6.810   3.675
27567W        W99827   7.815  42.009   2.664
27568W        W99828   1.872  10.800   0.411
27569W        W99829   5.293  31.052   2.694
27570W        W99830  36.439  15.213   2.210
27571W        W99831  37.003  21.041   2.870
27572W        W99832  32.095  19.255   2.391
27573W        W99833  31.516  17.098  10.620
27574W        W99834  31.098   1.773   3.716
27575W        W99835  24.166   1.757  10.530
27576W        W99836   7.190  30.909   1.736
27577W        W99837   7.879  27.546  13.364
27578W        W99838   8.685  30.457   0.747
27579W        W99839  10.143  16.729  12.383
27580W        W99840   0.385  17.608   3.696
27581W        W99841  21.718   9.289   4.716
27582W        W99842  41.455  31.964  14.765
27583W        W99843  42.332   8.288   0.944
27584W        W99844   6.384  33.960   4.144
27585W        W99845   5.863  26.097  14.324
27586W        W99846  30.974  35.054  12.920
27587W        W99847  26.639  10.707  10.471
27588W        W99848   0.252  29.664  10.568
27589W        W99849  23.555  23.094   3.352
27590W        W99850  37.962  12.362  10.889
27591W        W99851  25.644  33.950  14.370
27592W        W99852  27.581  30.540   1.778
27593W        W99853  26.657  26.161   4.714
27594W        W99854   7.845  33.583  12.352
27595W        W99855  19.773  24.003   2.865
27596W        W99856  27.523  27.466  14.850
27597W        W99857  29.530  16.642  10.029
27598W        W99858  17.684  25.992  10.481
27599W        W99859   4.357   2.751   3.860
27600W        W99860   0.353  17.192  11.520
27601W        W99861  23.541  14.776   3.258
27602W        W99862  22.122  19.253  11.128
27603W        W99863  14.210   4.391   1.373
27604W        W99864  32.061  41.954  12.922
27605W        W99865  24.592  16.271  12.519
27606W        W99866  21.195   4.430   1.832
27607W        W99867  43.341  40.323  10.537
27608W        W99868  30.934   8.803  11.607
27609W        W99869  29.507  38.868   9.970
27610W        W99870  35.467  36.451  11.567
27611W        W99871   9.352  35.941   3.152
27612W        W99872  31.918   6.743  14.343
27613W        W99873  12.210  15.314   1.379
27614W        W99874  12.725  11.264  14.355
27615W        W99875  40.349  24.170  10.529
27616W        W99876   9.786  13.173   3.780
27617W        W99877  38.001   5.219   3.324
27618W        W99878  37.007  33.442  14.439
27619W        W99879  41.810   0.454   1.371
27620W        W99880   9.289  39.814  14.388
27621W        W99881  10.652  25.974  10.969
27622W        W99882   3.880  19.768   4.265
27623W        W99883  22.511  18.614   3.677
27624W        W99884   9.301  39.539  14.278
27625W        W99885   3.440   7.762   5.299
27626W        W99886  42.376   2.797   2.350
27627W        W99887  36.091  31.638   0.844
27628W        W99888  37.572  41.469   3.680
27629W        W99889   5.292  33.877  11.942
27630W        W99890  39.847  31.899  14.455
27631W        W99891  20.151  14.146  13.397
27632W        W99892   8.748  14.595   2.318
27633W        W99893  28.615  18.203   2.263
27634W        W99894  15.220  23.996  14.434
27635W        W99895  32.451  23.061  12.517
27636W        W99896  13.195  38.837   4.213
27637W        W99897  43.896  32.136   3.376
27638W        W99898   4.261  43.286  13.824
27639W        W99899   3.342   3.804  11.424
27640W        W99900   6.345   7.771  12.407
27641W        W99901   4.757  10.843   0.770
27642W        W99902  39.961  12.651  12.020
27643W        W99903  43.373   2.231  12.986
27644W        W99904  14.281  18.591  14.309
27645W        W99905  43.299   3.899  10.969
27646W        W99906  21.055   1.774  10.619
27647W        W99907  20.269   9.829  14.440
27648W        W99908  31.032   5.762   0.432
27649W        W99909  26.495  30.984  13.025
27650W        W99910   6.725  33.112  13.931
27651W        W99911  35.422   6.779  10.900
27652W        W99912  13.334  18.065   4.275
27653W        W99913   9.832  32.429  11.885
27654W        W99914  38.895  24.001  11.522
27655W        W99915  23.237  33.383   4.795
27656W        W99916  43.824  11.214   4.682
27657W        W99917  20.614   0.945  14.469
27658W        W99918  26.191  20.532   3.242
27659W        W99919   6.346   8.769   3.847
27660W        W99920  37.020   6.416  13.841
27661W        W99921  16.188  21.711   3.251
27662W        W99922  16.307  35.942  12.981
27663W        W99923  32.959   9.152  11.499
27664W        W99924  11.846  36.918   1.840
27665W        W99925  17.708  12.190  11.009
27666W        W99926  42.943  25.541   2.699
27667W        W99927  13.714  11.211   1.344
27668W        W99928  29.055  39.345  12.943
27669W        W99929  42.290   0.436  12.486
27670W        W99930  38.908  21.036  12.397
27671W        W99931  12.797  23.035   4.811
27672W        W99932  24.984   3.915  13.416
27673W        W99933  11.163  13.215  14.775
27674W        W99934   3.412  34.865   3.158
27675W        W99935   4.218   8.174  13.987
27676W        W99936   9.266  25.109  11.877
27677W        W99937  10.157  29.599  12.488
27678W        W99938  10.793   0.304   1.437
27679W        W99939   0.256  40.417   1.805
27680W        W99940   2.267   4.740   3.344
27681W        W99941  29.010  38.045   4.149
27682W        W99942  41.299   9.227   3.654
27683W        W99943  15.804  20.133   4.719
27684W        W99944  10.183  37.466  10.415
27685W        W99945  24.056  38.983  12.433
27686W        W99946  28.151  29.644   2.835
27687W        W99947  36.382  25.710   1.384
27688W        W99948  20.236  19.147   4.242
27689W        W99949  19.257   4.362  12.377
27690W        W99950   9.677  33.616   2.411
27691W        W99951   8.226  12.350   1.744
27692W        W99952  36.934  18.099   1.362
27693W        W99953  34.011  35.878  11.450
27694W        W99954  30.929  19.128   1.722
27695W        W99955  22.691   1.393   0.422
27696W        W99956  22.098  10.312  14.003
27697W        W99957  36.047  29.611   2.371
27698W        W99958  12.208  20.591   4.264
27699W        W99959   1.448  15.800  14.916
27700W        W99960  10.711  26.564  14.022
27701W        W99961  34.575  38.508   4.295
27702W        W99962   3.892  39.354  11.455
27703W        W99963  30.602   9.182   3.652
27704W        W99964  24.147  29.560  13.476
27705W        W99965  38.492  26.682   0.963
27706W        W99966  19.680  21.599   2.341
27707W        W99967  25.670  37.525   3.658
27708W        W99968  31.509  11.189   0.760
27709W        W99969  33.494  20.656  14.414
27710W        W99970   8.669  36.033  14.810
27711W        W99971  13.182  35.033  14.994
27712W        W99972   5.392   6.350   4.703
27713W        W99973   5.314   2.794  13.053
27714W        W99974  22.196  17.083  10.532
27715W        W99975   8.379  23.684   0.339
27716W        W99976  16.608  39.537   0.405
27717W        W99977   1.422  22.560   3.275
27718W        W99978   8.747  33.580   4.228
27719W        W99979  12.699  43.326  14.970
27720W        W99980   1.354  15.087   4.129
27721W        W99981  16.761  21.699  11.999
27722W        W99982  38.496  11.686   2.331
27723W        W99983  40.875  15.737  13.951
27724W        W99984  39.496  15.672  14.760
27725W        W99985  12.341  19.053   3.850
27726W        W99986   7.187  21.255  10.514
27727W        W99987  35.009  10.238   0.480
27728W        W99988   5.286   2.339  13.980
27729W        W99989  26.022  24.217   4.691
27730W        W99990  26.162   3.807  13.406
27731W        W99991  26.545  39.970  11.586
27732W        W99992  17.793  28.444  10.623
27733W        W99993  41.870  36.495   2.728
27734W        W99994  34.435  27.147   0.318
27735W        W99995  37.337  43.831  13.371
27736W        W99996  36.929  13.820  13.365
27737W        W99997  28.668  14.295  12.499
27738W        W99998  12.632  15.760   3.808
27739W        W99999  41.352  26.031  10.968
27740W        W    0  13.325   8.312  13.512
27741W        W    1   6.843  28.112   3.777
27742W        W    2  41.393  12.780   0.284
27743W        W    3  12.690  21.719   2.314
27744W        W    4  27.008  36.923   1.888
27745W        W    5  26.976  31.081  13.840
27746W        W    6  19.641  36.464  13.858
27747W        W    7  19.682   6.864   1.715
27748W        W    8  41.011  31.017   4.155
27749W        W    9  44.912  39.430   2.756
27750W        W   10  26.638   2.882  14.338
27751W        W   11   3.247   9.356   2.356
27752W        W   12  22.659  29.173   1.872
27753W        W   13  11.765   2.471   2.204
27754W        W   14  27.635  25.683  13.837
27755W        W   15  44.900  16.704  12.992
27756W        W   16   4.277   4.425   3.208
27757W        W   17  44.310  30.997   4.668
27758W        W   18  11.199  41.016  13.975
27759W        W   19   2.749  40.366   1.773
27760W        W   20  28.058  37.371  13.882
27761W        W   21   8.359  36.960   3.787
27762W        W   22  31.619  42.835   3.802
27763W        W   23   5.747  33.949   0.951
27764W        W   24  33.497   0.858  10.404
27765W        W   25   2.858  10.166  11.588
27766W        W   26  33.411  41.017  11.861
27767W        W   27  29.600   6.790   1.214
27768W        W   28  35.482   9.849   2.349
27769W        W   29  27.968   2.389  12.960
27770W        W   30  21.554  16.116  10.969
27771W        W   31  28.611  33.402   2.337
27772W        W   32  25.198  18.649  14.960
27773W        W   33  25.682  25.670  10.937
27774W        W   34  30.067  35.932   4.162
27775W        W   35  13.654  17.637   4.607
27776W        W   36   1.957   2.852  14.352
27777W        W   37  19.139  26.160  11.931
27778W        W   38  39.837   2.328   4.188
27779W        W   39   6.369  16.278   1.729
27780W        W   40  41.349  32.584  13.334
27781W        W   41   0.970  39.036   2.792
27782W        W   42  43.342  17.158   4.627
27783W        W   43  39.832  17.199   1.801
27784W        W   44  12.628  34.527   3.629
27785W        W   45  36.509  21.515  12.828
27786W        W   46  38.831  26.973   2.779
27787W        W   47   6.229  28.994   9.551
27788W        W   48  37.509  36.068   3.654
27789W        W   49  40.323  18.697  13.805
27790W        W   50  36.033  37.384  12.964
27791W        W   51  41.918  30.944   1.726
27792W        W   52  44.772   3.938  12.891
27793W        W   53  36.065  38.867  12.943
27794W        W   54  36.874  24.182   4.611
27795W        W   55  30.587  20.616  13.375
27796W        W   56  34.885  10.343   3.857
27797W        W   57  10.258  11.170   4.658
27798W        W   58  37.856  33.558  10.454
27799W        W   59  14.722  12.773   3.848
27800W        W   60  36.074   4.840   4.763
27801W        W   61  30.481  31.630   3.822
27802W        W   62   8.283  44.918   3.171
27803W        W   63  34.873   5.859  10.452
27804W        W   64  26.483  24.522   1.730
27805W        W   65  18.590  35.918   4.336
27806W        W   66   3.882   0.934   1.342
27807W        W   67  33.533  30.518   5.208
27808W        W   68  34.385   0.467  11.861
27809W        W   69  11.714   6.247  14.826
27810W        W   70  34.981  28.442  12.405
27811W        W   71   3.899  42.834   5.320
27812W        W   72  38.395  13.698  13.995
27813W        W   73  25.184  18.682   2.723
27814W        W   74  37.487  37.924  11.124
27815W        W   75  31.074  36.579   0.447
27816W        W   76  38.415   4.421  12.402
27817W        W   77   2.342  38.827  11.425
27818W        W   78  36.914   5.372   2.842
27819W        W   79   7.721  39.338  12.834
27820W        W   80  36.846   4.235  10.633
27821W        W   81   4.416  17.776   4.825
27822W        W   82  12.224  28.969   5.163
27823W        W   83   8.185  24.721  12.569
27824W        W   84  19.260  33.933   2.884
27825W        W   85  32.897   6.726  11.919
27826W        W   86  19.113  29.629  11.506
27827W        W   87   1.478  11.137   4.824
27828W        W   88  22.518  10.661   2.264
27829W        W   89  35.081  22.647  11.397
27830W        W   90  14.710  26.691   2.373
27831W        W   91  29.011  15.689   0.348
27832W        W   92  34.511  16.206  12.363
27833W        W   93  44.260  13.329   4.738
27834W        W   94  21.605  35.004   4.736
27835W        W   95  20.617  40.431  13.538
27836W        W   96  29.553  41.442  12.936
27837W        W   97  41.508  20.056   2.847
27838W        W   98  20.649  43.934   4.745
27839W        W   99   1.976  24.580  13.839
27840W        W  100  35.418  21.642  11.611
27841W        W  101   1.264  29.115   2.841
27842W        W  102  10.262  23.690   0.387
27843W        W  103  36.058  11.718   0.248
27844W        W  104  31.626  38.540  12.086
27845W        W  105  37.879  23.541  12.857
27846W        W  106  16.229  41.381  13.825
27847W        W  107  28.008  17.192   0.830
27848W        W  108   9.342  36.917   4.330
27849W        W  109  24.632  31.124  10.429
27850W        W  110  19.048   5.362  13.793
27851W        W  111  21.070  26.652  13.816
27852W        W  112  44.887  38.945   3.811
27853W        W  113   2.909   5.690   3.283
27854W        W  114  30.482  17.624  11.927
27855W        W  115  41.859  30.909   3.865
27856W        W  116  29.991   9.855   0.274
27857W        W  117  35.455  13.184   3.352
27858W        W  118  25.686  35.023  11.023
27859W        W  119  17.299  36.085   5.278
27860W        W  120  44.906  34.097   1.703
27861W        W  121  41.935  15.680   3.835
27862W        W  122  28.162  41.011  10.434
27863W        W  123  10.858  34.570  10.495
27864W        W  124  20.190   9.841   2.337
27865W        W  125  32.035  33.528  11.494
27866W        W  126  28.118   8.207   2.689
27867W        W  127  37.944  11.766   2.827
27868W        W  128  20.215  38.365   2.191
27869W        W  129  28.438  16.161   2.316
27870W        W  130   1.797   5.342  12.074
27871W        W  131  22.639  29.162  14.377
27872W        W  132  22.202   5.360  11.029
27873W        W  133  11.344  23.148  12.954
27874W        W  134  39.478  38.533  14.295
27875W        W  135  33.465  36.874  13.022
27876W        W  136   7.884  44.359   4.605
27877W        W  137  30.068  38.372  13.457
27878W        W  138  29.940  31.145  11.077
27879W        W  139  44.769  26.574  12.982
27880W        W  140   0.331  25.705   0.317
27881W        W  141  31.413  34.082  10.482
27882W        W  142   3.425  20.577   4.836
27883W        W  143   2.829   7.411  11.879
27884W        W  144  31.479  16.097  12.922
27885W        W  145  43.807  33.463   3.638
27886W        W  146   7.207  33.423  14.960
27887W        W  147  20.126  16.079   2.825
27888W        W  148  43.847  28.052   3.249
27889W        W  149   4.715  20.058  14.807
27890W        W  150  12.129  40.850   1.384
27891W        W  151  33.620  23.694  11.015
27892W        W  152  23.985  40.042  12.352
27893W        W  153  40.454  34.115   3.359
27894W        W  154  43.468   6.880  14.408
27895W        W  155  15.281  34.591   4.235
27896W        W  156  14.113  13.653   2.807
27897W        W  157   6.358  35.567  11.963
27898W        W  158  40.437  17.649   0.249
27899W        W  159  34.060  20.065   4.662
27900W        W  160  44.804  25.488   4.231
27901W        W  161   7.707   1.877   1.262
27902W        W  162  12.827   3.829   0.399
27903W        W  163   7.863  37.438   2.342
27904W        W  164  29.514  11.860  13.996
27905W        W  165  33.511  41.908   4.782
27906W        W  166   5.702  34.929  12.397
27907W        W  167  36.867  33.117  10.495
27908W        W  168   3.253  21.251   2.349
27909W        W  169  20.193  17.108  12.954
27910W        W  170  22.108  29.965  11.564
27911W        W  171  19.601  39.830   4.700
27912W        W  172   1.873  17.609  11.050
27913W        W  173  11.156  37.431  10.072
27914W        W  174   9.776  36.571  14.317
27915W        W  175   9.152  21.080   3.255
27916W        W  176  41.422  39.544   2.261
27917W        W  177  18.287  21.525  11.480
27918W        W  178  32.899  44.949   2.243
27919W        W  179   5.914  37.879  11.949
27920W        W  180  32.115  32.888   3.300
27921W        W  181  38.839  18.112   3.226
27922W        W  182  31.147  35.546   1.905
27923W        W  183  16.094  33.598  14.395
27924W        W  184   8.735  14.647  12.868
27925W        W  185  12.285  36.377  10.944
27926W        W  186  26.029  14.322   2.249
27927W        W  187  35.956   1.890  13.995
27928W        W  188   4.883  40.911   4.147
27929W        W  189   4.243   5.810   3.334
27930W        W  190  20.531   5.722   4.773
27931W        W  191  21.161   3.294   3.341
27932W        W  192  24.576  12.645  13.321
27933W        W  193  27.454  43.970   1.928
27934W        W  194   3.253   4.375  13.502
27935W        W  195  44.957  42.426   4.711
27936W        W  196  35.579   9.722   1.863
27937W        W  197  39.351  38.388  14.854
27938W        W  198  19.223  31.081   3.701
27939W        W  199   3.840   8.712   0.421
27940W        W  200  20.530   9.298   1.885
27941W        W  201  35.392   7.339  10.608
27942W        W  202  33.428  16.610  10.128
27943W        W  203  39.847   3.710  14.780
27944W        W  204   7.805  12.632   2.350
27945W        W  205  10.376   6.239   4.637
27946W        W  206  35.068  11.828  14.415
27947W        W  207  11.205  44.265  12.461
27948W        W  208   3.242   5.879   4.770
27949W        W  209  23.193  42.796  13.458
27950W        W  210  15.646  15.272  11.577
27951W        W  211   9.660  31.560   2.342
27952W        W  212  32.623   2.339   1.380
27953W        W  213  10.308   5.881  10.080
27954W        W  214  19.576  41.831   0.328
27955W        W  215  26.953  16.275   4.150
27956W        W  216  39.937  29.618  14.472
27957W        W  217   6.756  26.034  11.103
27958W        W  218  14.649  27.642  12.378
27959W        W  219  12.141  30.587   0.259
27960W        W  220  41.458  25.160   4.210
27961W        W  221   1.783  11.651   4.217
27962W        W  222   8.223   3.806   4.226
27963W        W  223  33.947   6.278  11.107
27964W        W  224   2.793  25.590  11.922
27965W        W  225   2.331   8.786   4.706
27966W        W  226   6.794  35.033  12.005
27967W        W  227   3.909  16.590   0.742
27968W        W  228  41.359  21.585   2.828
27969W        W  229  39.453  30.140   1.748
27970W        W  230  36.529  20.053  13.993
27971W        W  231  16.631   4.887  12.543
27972W        W  232  11.154  17.175  12.347
27973W        W  233   1.908  42.976   2.353
27974W        W  234  16.588  22.564   1.804
27975W        W  235  28.465  36.373   4.113
27976W        W  236  42.522  21.079  10.996
27977W        W  237  30.516  15.633  12.426
27978W        W  238  14.605  23.546   3.855
27979W        W  239  40.368   0.483  13.364
27980W        W  240   4.235   8.281   1.840
27981W        W  241  39.974  16.749  12.372
27982W        W  242   1.296  42.503   2.185
27983W        W  243  23.550   6.207  12.067
27984W        W  244  41.491  15.320   1.374
27985W        W  245  25.084  28.521  10.947
27986W        W  246  11.240  13.233  10.413
27987W        W  247  42.804  26.979   0.399
27988W        W  248  15.761  28.512  11.491
27989W        W  249  35.086  27.476  11.607
27990W        W  250  28.970   4.316  10.960
27991W        W  251  43.888  36.551  13.977
27992W        W  252  32.544  36.090  12.950
27993W        W  253  41.482   1.407  13.049
27994W        W  254  44.793   0.341  10.934
27995W        W  255  24.171   5.342  12.043
27996W        W  256  42.872  32.493  14.397
27997W        W  257  25.702  27.592   4.792
27998W        W  258  30.038  37.984   2.705
27999W        W  259  36.489  24.515   4.823
28000W        W  260  43.827   8.883  10.601
28001W        W  261  31.640  23.179   4.678
28002W        W  262  26.595  44.811   3.749
28003W        W  263   6.247  44.862   3.707
28004W        W  264   8.326  14.626  12.421
28005W        W  265  18.221  40.432  13.982
28006W        W  266  42.917  44.000  13.312
28007W        W  267  43.350   7.230  11.068
28008W        W  268  19.640  34.429  11.085
28009W        W  269  43.484  22.739  12.350
28010W        W  270  33.079   6.896   1.266
28011W        W  271   5.820  28.616   5.740
28012W        W  272  15.821  31.010   2.288
28013W        W  273  30.925  13.839   1.823
28014W        W  274   4.803  34.483   4.761
28015W        W  275   0.885  31.434  10.564
28016W        W  276  39.509  26.690  13.310
28017W        W  277  31.608  26.054  13.846
28018W        W  278  22.558   8.655  14.499
28019W        W  279  39.891  33.983  11.410
28020W        W  280   0.909  23.211   4.777
28021W        W  281   6.217   2.775   3.306
28022W        W  282   9.291  20.228  11.518
28023W        W  283   9.709  40.482  11.401
28024W        W  284  40.928  42.833   3.164
28025W        W  285   9.249  40.325   2.700
28026W        W  286  20.127  42.902   4.835
28027W        W  287  32.433  12.638   3.245
28028W        W  288  37.914   3.246  12.460
28029W        W  289  10.877   7.319   3.705
28030W        W  290  37.505  22.558   0.881
28031W        W  291  34.407   1.757  14.987
28032W        W  292  25.154  15.794  10.949
28033W        W  293  18.697  15.146   1.868
28034W        W  294   0.363  42.910  13.014
28035W        W  295  20.181  37.981  12.500
28036W        W  296  22.997  38.342   1.730
28037W        W  297   2.428  24.541   3.269
28038W        W  298  39.056  32.420  14.908
28039W        W  299  35.003  21.073   4.236
28040W        W  300  44.931  25.661  13.397
28041W        W  301  38.492  11.665  11.589
28042W        W  302  21.713   6.205  11.932
28043W        W  303  20.536  44.933  14.342
28044W        W  304  35.989  13.300  11.483
28045W        W  305  39.997  29.999   2.755
28046W        W  306  17.254  34.576  13.940
28047W        W  307  34.039  27.113   4.179
28048W        W  308  17.107  21.746   3.381
28049W        W  309  43.950   8.753   1.850
28050W        W  310  21.520  22.007  10.509
28051W        W  311  12.232   3.389   2.191
28052W        W  312  40.489   6.807  14.981
28053W        W  313  42.398  15.733   2.411
28054W        W  314   8.356   2.288  11.868
28055W        W  315  19.628   4.875   1.221
28056W        W  316  44.942  13.805   2.863
28057W        W  317  29.618   0.958   2.724
28058W        W  318  40.801   1.481  14.277
28059W        W  319  21.707  31.985  12.835
28060W        W  320  43.881  40.400  10.973
28061W        W  321  12.243   4.728  11.943
28062W        W  322  22.732  38.376  14.762
28063W        W  323  13.182  14.152   3.755
28064W        W  324   7.867  21.211   2.696
28065W        W  325  29.605  22.504   2.808
28066W        W  326  37.974   6.901   9.507
28067W        W  327  34.101  11.731   2.251
28068W        W  328  44.777   4.806  13.494
28069W        W  329  36.380  16.186  13.012
28070W        W  330   7.220  38.002  13.532
28071W        W  331   3.804   8.815  13.807
28072W        W  332  21.050  40.997   1.266
28073W        W  333  33.417  19.092   4.316
28074W        W  334  23.984  38.884  13.796
28075W        W  335  12.678  10.261  10.561
28076W        W  336   0.372   0.302   0.417
28077W        W  337   2.412   1.310  13.931
28078W        W  338  22.634  18.221   5.668
28079W        W  339  36.857   9.751  14.923
28080W        W  340  40.433  26.546   3.868
28081W        W  341  39.345   0.464  14.889
28082W        W  342  33.117  40.482   3.307
28083W        W  343  15.085  26.578   0.765
28084W        W  344  24.157   4.730   0.901
28085W        W  345   9.802   0.487  11.910
28086W        W  346  15.594   1.266   4.337
28087W        W  347  18.270   4.247   0.319
28088W        W  348   2.773  38.377   4.720
28089W        W  349  19.590  17.584  13.980
28090W        W  350  23.048  27.622   2.806
28091W        W  351  31.987  22.009   0.967
28092W        W  352  30.658   0.752   1.379
28093W        W  353  24.616   9.726   4.668
28094W        W  354  30.003   4.396   0.946
28095W        W  355  33.974   4.407  11.585
28096W        W  356  11.333  10.835  14.373
28097W        W  357  12.727  42.442   1.916
28098W        W  358   2.935  37.379  11.544
28099W        W  359  38.023  12.329  11.960
28100W        W  360   4.916   3.324  12.912
28101W        W  361  37.433  15.180  11.462
28102W        W  362  34.597  36.436  13.318
28103W        W  363  34.954  34.409   1.790
28104W        W  364   1.391  22.225   4.684
28105W        W  365  28.620  39.527  11.498
28106W        W  366   0.936  25.134  11.028
28107W        W  367  40.499  42.833   0.283
28108W        W  368   1.443  40.818   3.295
28109W        W  369  22.197  38.516   4.257
28110W        W  370  25.970  38.008   1.893
28111W        W  371  16.776  40.399   0.872
28112W        W  372  15.620   6.771   3.644
28113W        W  373  29.561   0.884   0.903
28114W        W  374  35.003  38.369  10.924
28115W        W  375   0.363  31.620   0.910
28116W        W  376  17.256  27.489   3.742
28117W        W  377  20.602   8.310  12.539
28118W        W  378   6.899  10.153   0.406
28119W        W  379  38.421  31.949   3.766
28120W        W  380  32.548  12.296   2.319
28121W        W  381  38.049  10.826   5.632
28122W        W  382  10.872  43.322   2.210
28123W        W  383  20.750  25.004   0.729
28124W        W  384  40.999  11.670   0.917
28125W        W  385  17.283  24.062  12.489
28126W        W  386  15.141  11.211   4.334
28127W        W  387  19.251   2.334   3.829
28128W        W  388  11.694   2.419   0.467
28129W        W  389   7.794  27.135  10.917
28130W        W  390  15.250  15.587   4.729
28131W        W  391  23.666   9.149  14.461
28132W        W  392   8.179   1.743  11.486
28133W        W  393  41.029  37.011  14.367
28134W        W  394  41.035  28.568  12.049
28135W        W  395  44.933   2.320  12.570
28136W        W  396  42.310  11.779   1.359
28137W        W  397  44.317  39.372   1.857
28138W        W  398  23.009  43.325   3.298
28139W        W  399  32.921  21.077   3.654
28140W        W  400  40.983   4.893   4.271
28141W        W  401  14.653  35.402  13.317
28142W        W  402  28.486   7.863  12.972
28143W        W  403  34.924  29.130  13.994
28144W        W  404  30.983  41.422   0.877
28145W        W  405  32.465  43.275  13.521
28146W        W  406   9.209  41.004  12.876
28147W        W  407  43.977  32.397   0.944
28148W        W  408   9.185   1.770  14.505
28149W        W  409  15.759  29.104   1.311
28150W        W  410  33.397  38.462   4.642
28151W        W  411  27.460  15.669   0.245
28152W        W  412  27.677   1.760   1.394
28153W        W  413  32.616  29.015   0.329
28154W        W  414  18.760  24.223  11.424
28155W        W  415  40.383  44.782  11.003
28156W        W  416   4.349  29.650  13.987
28157W        W  417  42.901  29.634  11.430
28158W        W  418   3.281  19.247   3.752
28159W        W  419  12.221  15.250  11.506
28160W        W  420  37.992  10.816  12.447
28161W        W  421  18.163  21.139  13.976
28162W        W  422   2.911   9.199   3.846
28163W        W  423  33.980  13.650  13.362
28164W        W  424  37.385   5.356  12.976
28165W        W  425  18.575  32.552  12.497
28166W        W  426   1.348  41.505   4.727
28167W        W  427  27.532   7.823   3.298
28168W        W  428  10.167  44.412  12.427
28169W        W  429  42.948   3.400   0.790
28170W        W  430  36.041  20.219   4.761
28171W        W  431   9.826   8.272  10.952
28172W        W  432   5.285  11.271  14.314
28173W        W  433  24.158   3.793  11.419
28174W        W  434   7.747   0.914   3.758
28175W        W  435  40.374   8.225   4.658
28176W        W  436  41.816  11.346  14.847
28177W        W  437   1.756  11.747  12.916
28178W        W  438   0.389   1.478  12.946
28179W        W  439  34.536  32.135   2.346
28180W        W  440  26.571  38.548  10.452
28181W        W  441  34.376  21.631   2.678
28182W        W  442  44.840  22.701   3.322
28183W        W  443  44.779   0.433  13.882
28184W        W  444   0.885   7.778   0.771
28185W        W  445  39.479  10.231   1.329
28186W        W  446  21.126  10.236  13.031
28187W        W  447  20.702  19.070   4.284
28188W        W  448  36.376  16.809   0.281
28189W        W  449   2.752  37.893   4.310
28190W        W  450   5.355  10.286   4.828
28191W        W  451  28.095  39.978  12.340
28192W        W  452  34.613  33.517   2.410
28193W        W  453  41.514  16.621   3.759
28194W        W  454  13.331  31.592   1.729
28195W        W  455  37.358  36.885   2.344
28196W        W  456  10.282  42.452  12.397
28197W        W  457  12.660  15.305  10.532
28198W        W  458  43.431   7.311   2.735
28199W        W  459   3.448  12.346  13.503
28200W        W  460  13.197  42.524   1.824
28201W        W  461  18.272  13.110   1.792
28202W        W  462  30.070  42.387   4.214
28203W        W  463  28.471   6.742  14.468
28204W        W  464   7.249   3.788  13.850
28205W        W  465  38.944  40.543   2.744
28206W        W  466  23.219  27.559  13.975
28207W        W  467   6.417  41.905  10.536
28208W        W  468   9.231   6.725   0.358
28209W        W  469  38.478  24.502   3.790
28210W        W  470   8.727  22.718   3.824
28211W        W  471  21.523  21.264  10.589
28212W        W  472  43.981  25.649   4.304
28213W        W  473  37.907  20.648  13.862
28214W        W  474  18.780   3.869  14.801
28215W        W  475  41.886  34.559  13.494
28216W        W  476  14.792  39.977  14.980
28217W        W  477  15.765  23.102   1.897
28218W        W  478   0.292   2.837  11.439
28219W        W  479  39.055  19.713  14.512
28220W        W  480  27.561  30.009   4.742
28221W        W  481  29.528  33.512   1.890
28222W        W  482  10.672   2.745   1.854
28223W        W  483  27.647   4.742  12.089
28224W        W  484   1.268  36.068   0.765
28225W        W  485   4.430  10.162  11.391
28226W        W  486  11.805  21.608  10.973
28227W        W  487  33.620  31.550   3.700
28228W        W  488  23.502  12.294  13.031
28229W        W  489  15.286  38.870   1.399
28230W        W  490  41.999  35.480   0.891
28231W        W  491  14.604  27.671  13.853
28232W        W  492   5.421  27.144   3.181
28233W        W  493   9.826  22.615  13.834
28234W        W  494   0.956  35.407   1.388
28235W        W  495   5.795  19.056   4.175
28236W        W  496  32.469   4.835   2.244
28237W        W  497  12.204   7.244   0.378
28238W        W  498  23.495  10.217  10.497
28239W        W  499  17.268  34.524  13.362
28240W        W  500  10.670  27.485  10.471
28241W        W  501  29.005  42.390   4.195
28242W        W  502   3.320  24.142  11.058
28243W        W  503  18.160   6.189   2.349
28244W        W  504  12.668   1.285  13.895
28245W        W  505   5.756  33.403   2.850
28246W        W  506  39.546  38.354  11.466
28247W        W  507  20.530   7.820  13.028
28248W        W  508  25.595  35.418  11.536
28249W        W  509   4.762   6.770   2.687
28250W        W  510   1.921   6.821   0.397
28251W        W  511  25.974  44.285  13.971
28252W        W  512  22.587  25.965  10.042
28253W        W  513  10.736  31.534   2.340
28254W        W  514  27.026  29.123   0.952
28255W        W  515  20.224  14.712   2.768
28256W        W  516  22.112  29.072  12.479
28257W        W  517  42.982   8.691  13.369
28258W        W  518  43.923  44.984  10.932
28259W        W  519  34.612   8.901  13.008
28260W        W  520  37.918  33.416   2.212
28261W        W  521  28.471   9.817  11.431
28262W        W  522   8.709  17.588   3.353
28263W        W  523  13.800  14.156   5.269
28264W        W  524  28.118   3.827  12.576
28265W        W  525  18.657  23.056   2.395
28266W        W  526  40.447  39.065   1.368
28267W        W  527  44.874  27.516   1.353
28268W        W  528   9.236  32.130   4.772
28269W        W  529   7.372  12.348  11.530
28270W        W  530  20.161  42.806  14.315
28271W        W  531  16.202  34.510   3.336
28272W        W  532  29.994  22.192   4.131
28273W        W  533  12.358  33.514   2.323
28274W        W  534  15.798  33.027  10.482
28275W        W  535   7.175  33.086   1.922
28276W        W  536  19.652   5.364  14.781
28277W        W  537  18.195  17.678  12.519
28278W        W  538  33.590  38.446  10.634
28279W        W  539   4.855  41.827  12.000
28280W        W  540  11.811  39.320  10.438
28281W        W  541  16.743  16.262   4.723
28282W        W  542  17.802  34.421   2.892
28283W        W  543   4.909  20.749   3.827
28284W        W  544  23.563  35.515   4.745
28285W        W  545  23.016  19.136   0.392
28286W        W  546  10.669  19.696   3.292
28287W        W  547  24.517  16.764  14.801
28288W        W  548  44.990  12.187  13.892
28289W        W  549  15.167  25.111   0.946
28290W        W  550   0.373  38.347  14.863
28291W        W  551  40.517  17.232  13.518
28292W        W  552  39.384  30.162  14.337
28293W        W  553  35.398  13.119   0.819
28294W        W  554  24.108  44.880  10.907
28295W        W  555   1.846  21.157  12.898
28296W        W  556   3.772   0.314   0.737
28297W        W  557  12.351  28.079  13.050
28298W        W  558  18.085  26.592  11.606
28299W        W  559  10.787  30.925  11.480
28300W        W  560  40.369  12.218  14.514
28301W        W  561   5.691  29.581  11.539
28302W        W  562   4.794  29.477   2.720
28303W        W  563   4.795   7.219  12.456
28304W        W  564  32.541  29.055  10.901
28305W        W  565  14.723  23.732   4.185
28306W        W  566  10.780   0.885  12.420
28307W        W  567   7.886  34.411   2.758
28308W        W  568  18.611   5.705   3.804
28309W        W  569  18.547  25.015  10.014
28310W        W  570   4.247  44.915  12.087
28311W        W  571  28.555  23.603   1.888
28312W        W  572  41.854  32.112   0.780
28313W        W  573   4.418  27.060  10.902
28314W        W  574  35.531  31.898  13.001
28315W        W  575  17.297   1.740   0.258
28316W        W  576   9.882   0.962   3.817
28317W        W  577  21.643  11.329  11.450
28318W        W  578   6.207   3.444  14.409
28319W        W  579  11.228   7.203   3.795
28320W        W  580   8.161  36.054  13.985
28321W        W  581  14.232   3.867   3.291
28322W        W  582   8.161  10.760  10.980
28323W        W  583   5.367   4.937   4.189
28324W        W  584  30.152  25.053   2.392
28325W        W  585   2.345  43.001   2.724
28326W        W  586  21.550  13.218  12.911
28327W        W  587  11.709   2.961   2.256
28328W        W  588  22.669   5.891  12.001
28329W        W  589  15.175  23.009  14.008
28330W        W  590  37.036  13.745   1.211
28331W        W  591  10.324   3.318   4.185
28332W        W  592  39.486   3.913  10.466
28333W        W  593   9.792  40.913  12.907
28334W        W  594  24.197  33.581   4.727
28335W        W  595   6.378  33.035   1.913
28336W        W  596  13.761  29.130   1.240
28337W        W  597  16.693  41.369  12.002
28338W        W  598  21.628  24.014  10.514
28339W        W  599  38.442  28.016  14.434
28340W        W  600   1.273  28.182   2.777
28341W        W  601  31.480  23.489  10.405
28342W        W  602  24.178  37.026  13.476
28343W        W  603  35.377  25.595   1.334
28344W        W  604  22.587  34.502  10.996
28345W        W  605  31.040  21.664   3.777
28346W        W  606  21.147  15.736  11.883
28347W        W  607   6.238  41.035   1.878
28348W        W  608  33.078  44.370   3.803
28349W        W  609   6.207  24.520   2.270
28350W        W  610  15.124   9.671   2.354
28351W        W  611  38.468   0.463   4.179
28352W        W  612  29.974  20.117   0.895
28353W        W  613  23.678  22.590   0.891
28354W        W  614  11.217  36.875   1.303
28355W        W  615  33.075   6.752   1.904
28356W        W  616  36.016  25.216   1.326
28357W        W  617  32.929  14.284   3.292
28358W        W  618  36.404  26.095  11.424
28359W        W  619   4.945  12.808   1.786
28360W        W  620  28.520  15.744  14.462
28361W        W  621  12.345  41.830   3.254
28362W        W  622  24.086  22.720   0.825
28363W        W  623  10.142  34.911   4.746
28364W        W  624  38.950   6.886  10.567
28365W        W  625  16.090  27.046  12.470
28366W        W  626   1.806  44.323  14.385
28367W        W  627  28.541  34.107   0.885
28368W        W  628  24.631  13.314  13.398
28369W        W  629  18.771  28.068   3.323
28370W        W  630  31.578  12.252  11.398
28371W        W  631  18.662   4.792   4.200
28372W        W  632  16.246   1.903  11.436
28373W        W  633  21.623   4.773  10.574
28374W        W  634  13.678  15.261  10.973
28375W        W  635  14.114  33.450   2.233
28376W        W  636  23.710  15.686  13.018
28377W        W  637  43.449  35.446  13.813
28378W        W  638   1.906   2.915   4.344
28379W        W  639  20.554  21.722   4.771
28380W        W  640  29.541  27.089   1.253
28381W        W  641  10.165  15.287  10.494
28382W        W  642  12.341  41.024  10.510
28383W        W  643   6.234   0.856  11.865
28384W        W  644  17.629   9.664  13.355
28385W        W  645  16.712  12.351   3.674
28386W        W  646  42.005  16.124  13.846
28387W        W  647  42.868   9.719   0.905
28388W        W  648   0.947  37.467   4.688
28389W        W  649  14.173  17.086  11.056
28390W        W  650  21.045  22.564   5.273
28391W        W  651  20.145   2.345  14.771
28392W        W  652  38.332  42.422  12.508
28393W        W  653  35.944   4.805  14.337
28394W        W  654  13.110  43.880   2.812
28395W        W  655   4.904  22.509  14.481
28396W        W  656  40.935  15.785   0.880
28397W        W  657   5.918  31.552   0.395
28398W        W  658   9.306  43.014  14.845
28399W        W  659  24.497   3.835  13.887
28400W        W  660   4.908  36.023   3.259
28401W        W  661   2.455  28.513   2.182
28402W        W  662  17.226   6.388   2.715
28403W        W  663   2.324  13.306   4.309
28404W        W  664  40.485   8.675  10.644
28405W        W  665   0.755  15.311  10.928
28406W        W  666  33.485  25.205   4.741
28407W        W  667  40.466  35.892  14.798
28408W        W  668  26.676  42.931  11.022
28409W        W  669   1.348   2.374  12.444
28410W        W  670  33.983  17.710  11.487
28411W        W  671   1.274  38.001   4.651
28412W        W  672   5.804  21.043  12.059
28413W        W  673  23.148   3.230   4.137
28414W        W  674  13.761  33.554   0.337
28415W        W  675  38.338  34.069   2.231
28416W        W  676  11.765  37.506   3.271
28417W        W  677  43.274  16.573   2.184
28418W        W  678   5.246  37.580   1.712
28419W        W  679   0.910  31.934  14.509
28420W        W  680  24.196  17.627   0.449
28421W        W  681  22.056   6.266   1.273
28422W        W  682  26.171  29.656   2.219
28423W        W  683   9.682  30.653   4.241
28424W        W  684  44.273   0.758   2.389
28425W        W  685  28.647  25.130  11.478
28426W        W  686  36.446  39.000  13.810
28427W        W  687  34.944   7.760  12.463
28428W        W  688  14.824  28.013   3.780
28429W        W  689  27.164  27.658   3.785
28430W        W  690  37.551  32.037   4.242
28431W        W  691  12.810  38.008   0.330
28432W        W  692  19.730  27.610   4.789
28433W        W  693   3.240  25.548   2.884
28434W        W  694  14.196   4.408  11.071
28435W        W  695  44.483  22.045  10.582
28436W        W  696   6.385   9.820   3.262
28437W        W  697  41.872  39.969  12.544
28438W        W  698  24.616  16.301  10.937
28439W        W  699  14.661  34.013  12.863
28440W        W  700   2.302   7.814   1.847
28441W        W  701   1.928  10.302   3.200
28442W        W  702  23.040  10.269   3.146
28443W        W  703  24.128  39.334   4.632
28444W        W  704  40.016  12.193   0.299
28445W        W  705  38.061  33.899   4.233
28446W        W  706  39.878   1.286   2.328
28447W        W  707  17.083  44.427   5.167
28448W        W  708  25.170   5.758  14.833
28449W        W  709   9.301  27.976   2.206
28450W        W  710  22.575  14.247  11.014
28451W        W  711  40.810  34.484   2.678
28452W        W  712  38.520  17.688  13.341
28453W        W  713   6.259  29.556  12.903
28454W        W  714  15.097  36.351  14.371
28455W        W  715  12.301  33.551  12.084
28456W        W  716   7.279  17.618  13.484
28457W        W  717  28.080   6.766  10.626
28458W        W  718  31.505  37.460  12.955
28459W        W  719  43.004  34.391  13.930
28460W        W  720  41.431  39.054   4.225
28461W        W  721  31.043   4.893  13.339
28462W        W  722  18.108   8.659   9.536
28463W        W  723  30.567  35.072   2.843
28464W        W  724  33.955  24.571   4.694
28465W        W  725   4.439  29.092  10.513
28466W        W  726  13.204  15.145  14.850
28467W        W  727  37.061   9.165  11.465
28468W        W  728  38.860  30.005   2.385
28469W        W  729  26.674  18.718  13.429
28470W        W  730  24.679   2.784   0.842
28471W        W  731  28.980   7.173  10.556
28472W        W  732  17.241  11.327   2.357
28473W        W  733  37.972  18.138  12.869
28474W        W  734   7.849  13.196  13.988
28475W        W  735  35.022  36.521  14.799
28476W        W  736   7.786  26.038   0.297
28477W        W  737  39.013   3.358   5.283
28478W        W  738  25.970  17.228  12.386
28479W        W  739  31.093   0.335   1.382
28480W        W  740  37.847  19.736  11.118
28481W        W  741  40.351   1.317  13.361
28482W        W  742  44.960  25.522   3.647
28483W        W  743  43.399  10.342   0.445
28484W        W  744  44.873   2.368   0.367
28485W        W  745  40.884  19.071  10.408
28486W        W  746  39.431  37.480  10.607
28487W        W  747  18.055  12.359   0.875
28488W        W  748  14.187  16.098   4.797
28489W        W  749  20.088  13.692  12.091
28490W        W  750  24.625  27.562   3.720
28491W        W  751  26.142  17.753  14.393
28492W        W  752  36.964  26.144   0.434
28493W        W  753  28.087  15.660  11.903
28494W        W  754  16.619  30.535  11.446
28495W        W  755  10.844  35.531   2.359
28496W        W  756  22.551  31.938  13.838
28497W        W  757  18.088  10.843   2.767
28498W        W  758  16.168   5.925   1.238
28499W        W  759  19.609   8.396   0.936
28500W        W  760   9.389   0.479  12.066
28501W        W  761   4.443   2.841   0.757
28502W        W  762  11.360  12.348  14.306
28503W        W  763  44.399  28.023   4.716
28504W        W  764   6.355  26.533   0.907
28505W        W  765   6.188  35.416   4.221
28506W        W  766  17.607  20.258   2.886
28507W        W  767   1.321   5.325  13.492
28508W        W  768  21.589  21.241  11.100
28509W        W  769  13.242  35.072   4.655
28510W        W  770  11.658  38.036  12.417
28511W        W  771  44.412   1.462   4.815
28512W        W  772   6.833  19.612  12.510
28513W        W  773  16.627  10.859   0.372
28514W        W  774  26.664  14.148   4.749
28515W        W  775  33.526  21.167   1.722
28516W        W  776   2.437  23.679  10.423
28517W        W  777  32.605  37.432  14.923
28518W        W  778  37.426  37.421   0.469
28519W        W  779  18.069  11.673   0.801
28520W        W  780   4.266  31.475   2.242
28521W        W  781  17.664  24.091  14.829
28522W        W  782   0.429   8.894  14.806
28523W        W  783  32.416  16.292   1.791
28524W        W  784  34.083  24.690   3.285
28525W        W  785  28.543   2.899  14.946
28526W        W  786   8.871  11.669   3.350
28527W        W  787  15.276  18.568  14.405
28528W        W  788  35.534  39.425   3.367
28529W        W  789   6.679  38.894  13.890
28530W        W  790   6.831  10.269  11.990
28531W        W  791  34.948  41.904   1.914
28532W        W  792   7.800  25.003  11.940
28533W        W  793  37.048  31.121  13.411
28534W        W  794   6.319  13.271  11.094
28535W        W  795  44.784  12.257   1.888
28536W        W  796  35.376  41.428  13.436
28537W        W  797  41.791  44.329   0.735
28538W        W  798  36.914  20.748   0.329
28539W        W  799  12.745  22.218  10.438
28540W        W  800  16.717  35.068   1.733
28541W        W  801  30.649  11.307  11.588
28542W        W  802  24.069   0.864  14.489
28543W        W  803  11.204  19.554  11.125
28544W        W  804  22.724   6.807  10.161
28545W        W  805   6.780  28.084  14.427
28546W        W  806  22.087  17.271   2.854
28547W        W  807  43.965   7.676  11.456
28548W        W  808   4.219  19.613   0.777
28549W        W  809  41.860  36.997   3.702
28550W        W  810   8.744  38.457   2.744
28551W        W  811   3.779  17.559   3.347
28552W        W  812  16.165  38.537   4.806
28553W        W  813  28.515  28.934  13.542
28554W        W  814  40.842  37.861   2.239
28555W        W  815   1.895  35.369  12.990
28556W        W  816  32.406  13.740   2.347
28557W        W  817  43.882  38.338  13.939
28558W        W  818  19.573   8.787  10.493
28559W        W  819  16.785   5.305   1.210
28560W        W  820  43.869  24.659   0.382
28561W        W  821  38.522  33.926   2.793
28562W        W  822   2.894   0.831  13.481
28563W        W  823  35.476  38.854  14.924
28564W        W  824  36.500  20.604  11.386
28565W        W  825  24.639  18.644  10.433
28566W        W  826  29.659  40.832  14.784
28567W        W  827  19.545  44.495  13.062
28568W        W  828  32.448  13.750  12.852
28569W        W  829  15.281  31.950  11.604
28570W        W  830  25.139   0.959   3.633
28571W        W  831  22.067   8.713   2.315
28572W        W  832   2.294  21.123   5.112
28573W        W  833  24.174   9.388   2.285
28574W        W  834  28.080  14.121   0.298
28575W        W  835  23.031  22.096  12.451
28576W        W  836  15.703   1.388  13.972
28577W        W  837   2.855  35.064   3.799
28578W        W  838   6.398  37.845  12.015
28579W        W  839  13.740   6.379   0.870
28580W        W  840  32.128   1.361   0.284
28581W        W  841  40.320  43.513  14.787
28582W        W  842  28.150  24.511  13.433
28583W        W  843  28.111   0.981   0.460
28584W        W  844  38.890   3.402   4.813
28585W        W  845  31.453  27.110  12.995
28586W        W  846  38.506  19.649   0.482
28587W        W  847  35.929   0.951   5.219
28588W        W  848  28.454  31.534   1.830
28589W        W  849   8.322  24.147  11.477
28590W        W  850  41.852   2.306  12.949
28591W        W  851   4.724  37.944  12.070
28592W        W  852  11.202  25.073   3.679
28593W        W  853  22.065  36.422  13.059
28594W        W  854  15.812   7.258  10.550
28595W        W  855   6.300  30.617  12.539
28596W        W  856  25.190  17.186   3.296
28597W        W  857  43.804  42.902  11.373
28598W        W  858   0.970  19.062  13.877
28599W        W  859  34.078  40.416   0.404
28600W        W  860  22.699   6.795  14.864
28601W        W  861  35.563  35.053  13.536
28602W        W  862  35.943  31.559  11.604
28603W        W  863  18.160   0.304  11.574
28604W        W  864  36.395  18.096   0.760
28605W        W  865   2.435  17.649   1.904
28606W        W  866  19.744  22.208   1.751
28607W        W  867   9.884  16.269  13.902
28608W        W  868  40.497  34.038   0.867
28609W        W  869  29.463   4.820   2.221
28610W        W  870  27.174  21.130  12.872
28611W        W  871  11.346  22.105   4.637
28612W        W  872  22.133  19.727   3.229
28613W        W  873  29.174   0.334  12.077
28614W        W  874   9.773   6.682  11.067
28615W        W  875  24.056  35.578  14.835
28616W        W  876  27.081  36.883   4.188
28617W        W  877   5.289  27.632   0.332
28618W        W  878  29.958  27.145   1.912
28619W        W  879  14.218   7.719   3.190
28620W        W  880  22.510   5.746   1.746
28621W        W  881   2.470  26.650   2.319
28622W        W  882  36.501  37.557   2.864
28623W        W  883  14.139  37.519   5.229
28624W        W  884  26.090  21.575   0.815
28625W        W  885  18.086  20.255  10.566
28626W        W  886  10.806  18.693   1.296
28627W        W  887  31.033  24.036  11.545
28628W        W  888   7.194  36.001  14.996
28629W        W  889  38.567  33.427   0.453
28630W        W  890  14.279   2.230   0.271
28631W        W  891   7.375   1.278   2.771
28632W        W  892  20.715   0.774   3.779
28633W        W  893  25.470  35.358  10.941
28634W        W  894  15.779   7.381   2.356
28635W        W  895  18.103  29.938  11.567
28636W        W  896  23.207  15.115  12.866
28637W        W  897  16.800  10.694  11.608
28638W        W  898  12.739   1.308   1.915
28639W        W  899  21.588  25.614  13.929
28640W        W  900  11.744  39.454  12.420
28641W        W  901   0.843  20.129   0.828
28642W        W  902   9.737  28.140  12.532
28643W        W  903  19.111   2.848  13.842
28644W        W  904  18.126  32.515  13.334
28645W        W  905  25.680  29.144   0.258
28646W        W  906  13.726  36.951   0.400
28647W        W  907  12.783  38.462   2.882
28648W        W  908   5.778  21.110   0.750
28649W        W  909  33.036  21.738   4.664
28650W        W  910  36.407  21.753  12.518
28651W        W  911  33.932  29.068  14.305
28652W        W  912  41.811  27.137   4.115
28653W        W  913  35.924  31.451  14.349
28654W        W  914  10.839  26.077  12.569
28655W        W  915  14.131  37.542  12.911
28656W        W  916  18.229   4.252  13.994
28657W        W  917  16.177   6.849  11.479
28658W        W  918  35.919  15.642   2.670
28659W        W  919  35.486  17.751   9.959
28660W        W  920  27.614  22.542  14.466
28661W        W  921  44.811   1.332  12.004
28662W        W  922  39.468  22.503   3.207
28663W        W  923  16.609  21.700  12.886
28664W        W  924  23.043  17.240   0.256
28665W        W  925  13.805  32.510  12.457
28666W        W  926  17.128  21.544   9.982
28667W        W  927  19.130  24.584   0.963
28668W        W  928  31.567  25.600   3.224
28669W        W  929  31.565  10.208   4.749
28670W        W  930   4.384   5.880   0.775
28671W        W  931  15.196  27.505  12.514
28672W        W  932  10.663  37.013  13.442
28673W        W  933  17.199  27.550  13.491
28674W        W  934  35.945  20.204   0.346
28675W        W  935  22.626  17.702   1.715
28676W        W  936  26.623  37.430  10.515
28677W        W  937  28.124   2.738   2.768
28678W        W  938  25.007  37.923  11.036
28679W        W  939  21.620  15.226   3.677
28680W        W  940  13.208   9.394  10.535
28681W        W  941   6.183  41.474  10.456
28682W        W  942   6.390  28.533   2.350
28683W        W  943   1.873  27.602   1.332
28684W        W  944  30.072  38.381   0.451
28685W        W  945  13.650   9.662   4.701
28686W        W  946  23.092  22.206   1.280
28687W        W  947  33.476  24.524  11.435
28688W        W  948  17.265  35.107   2.366
28689W        W  949  26.668  25.552  12.929
28690W        W  950  42.462   6.252  14.454
28691W        W  951  41.480  22.177   3.665
28692W        W  952  15.622  39.454  11.421
28693W        W  953  34.424  17.154  14.311
28694W        W  954  32.421  14.264   0.810
28695W        W  955  10.340   4.872  14.766
28696W        W  956  22.728  37.426  10.615
28697W        W  957   2.282  19.616   1.450
28698W        W  958  28.476  30.574   2.232
28699W        W  959  24.522   6.211   3.240
28700W        W  960  33.462  31.075  13.327
28701W        W  961  36.550  13.610  13.393
28702W        W  962  39.346  15.179  14.350
28703W        W  963   9.340  40.020  10.075
28704W        W  964  39.408  31.555  13.804
28705W        W  965  34.565  13.661   4.130
28706W        W  966  17.242  44.779  10.925
28707W        W  967  26.581   9.299   3.282
28708W        W  968   0.810  15.261   3.804
28709W        W  969   1.859  38.834   2.249
28710W        W  970  14.154  23.166  12.553
28711W        W  971   8.705  17.726   4.339
28712W        W  972  14.693  37.511   0.336
28713W        W  973  36.041  12.764  13.323
28714W        W  974  27.082  30.583  10.631
28715W        W  975  15.773  30.602   2.306
28716W        W  976  37.394   5.841  13.346
28717W        W  977  23.015  43.456  14.917
28718W        W  978  40.823   8.829  10.916
28719W        W  979  17.281   7.718  12.014
28720W        W  980  38.010   3.748   1.929
28721W        W  981  11.176  10.720  11.572
28722W        W  982  33.605  12.844   2.313
28723W        W  983  20.145  11.359  13.347
28724W        W  984  22.156  17.658  12.050
28725W        W  985  44.415  35.923  14.031
28726W        W  986  23.499  28.449   9.605
28727W        W  987  20.617  20.063   0.737
28728W        W  988   3.853  26.610   2.234
28729W        W  989  11.809  14.268  12.497
28730W        W  990  17.651  13.791  14.928
28731W        W  991   7.666  33.418   3.357
28732W        W  992  17.580  12.335   3.748
28733W        W  993  19.245  19.127  13.841
28734W        W  994  22.031  22.126   2.819
28735W        W  995  21.728  43.991   4.307
28736W        W  996   0.468  15.111  10.972
28737W        W  997  26.585  13.138  12.341
28738W        W  998  21.061  15.737   2.849
28739W        W  999  44.422  43.502  14.417
28740W        W 1000  18.148  44.901  14.032
28741W        W 1001  31.083  19.040  10.507
28742W        W 1002   3.442   0.923   1.303
28743W        W 1003  41.884  34.098  11.576
28744W        W 1004  13.231  30.061   3.343
28745W        W 1005  35.424  15.095  12.902
28746W        W 1006  18.582   4.923  11.532
28747W        W 1007  42.971  21.572   2.796
28748W        W 1008  29.017   6.771  11.900
28749W        W 1009  17.221  32.562  12.542
28750W        W 1010  44.845   3.430  10.927
28751W        W 1011  37.357  32.130   1.399
28752W        W 1012  37.563  10.674  14.937
28753W        W 1013  39.979   5.926  13.966
28754W        W 1014  25.468  43.902  10.988
28755W        W 1015  42.503  33.040  12.485
28756W        W 1016  21.617  40.519  11.415
28757W        W 1017  36.532   8.297   3.155
28758W        W 1018  37.921   3.765   2.325
28759W        W 1019  36.911  23.692   2.690
28760W        W 1020  31.898  21.664   5.105
28761W        W 1021  36.076  12.812  11.887
28762W        W 1022  39.925   4.777   2.284
28763W        W 1023   3.907  28.465  12.956
28764W        W 1024  28.163  24.139   0.278
28765W        W 1025  39.356   7.363   3.301
28766W        W 1026   2.469   5.247   1.903
28767W        W 1027  17.295  13.150  10.416
28768W        W 1028  24.996  41.503  10.571
28769W        W 1029  37.400   5.829  11.531
28770W        W 1030  11.707  37.353  12.912
28771W        W 1031  12.209  39.466  10.409
28772W        W 1032  13.841  32.039   2.248
28773W        W 1033  36.457  10.846  14.886
28774W        W 1034  14.291  33.940   0.449
28775W        W 1035  16.107  13.307   0.417
28776W        W 1036   4.260  26.515  12.959
28777W        W 1037  12.359  27.545   3.288
28778W        W 1038  14.596   1.807  10.083
28779W        W 1039   1.971  41.497  14.848
28780W        W 1040  43.985  43.477  11.033
28781W        W 1041   4.433  11.256  13.009
28782W        W 1042  26.123  27.962  11.571
28783W        W 1043  19.666  15.664  13.448
28784W        W 1044  11.223   1.836   2.772
28785W        W 1045   0.971  17.652  12.481
28786W        W 1046   5.781  27.110   2.852
28787W        W 1047  12.184   8.666   2.743
28788W        W 1048  27.511  31.468  12.076
28789W        W 1049  37.483  34.409  11.002
28790W        W 1050  20.068  27.968   2.869
28791W        W 1051  25.082   3.810  14.333
28792W        W 1052  23.623  16.280  11.129
28793W        W 1053  11.862  31.492   3.190
28794W        W 1054  39.891   2.266  12.830
28795W        W 1055  22.244  13.673   0.932
28796W        W 1056  33.897  43.993  11.123
28797W        W 1057  21.596  34.369  11.484
28798W        W 1058  22.608  33.553   2.899
28799W        W 1059  14.637  20.696  10.604
28800W        W 1060  37.378   3.803  14.018
28801W        W 1061   6.708  40.890  13.938
28802W        W 1062  25.171  16.109  12.925
28803W        W 1063  25.030  44.470  10.591
28804W        W 1064  11.641   6.363   3.798
28805W        W 1065  39.424  25.045  10.440
28806W        W 1066  29.561  22.667  12.575
28807W        W 1067  33.458  38.489   0.836
28808W        W 1068  12.614  20.046   0.798
28809W        W 1069  29.536  10.255   3.308
28810W        W 1070  32.014  28.084  12.910
28811W        W 1071  25.978  27.187   1.280
28812W        W 1072  15.591   5.743  10.970
28813W        W 1073  21.543  22.615   3.341
28814W        W 1074  38.525  27.081   3.812
28815W        W 1075  27.502  40.460   0.315
28816W        W 1076   8.815  31.510  10.913
28817W        W 1077  23.524  34.461   4.815
28818W        W 1078  38.548  42.797  11.914
28819W        W 1079  20.059  34.037   2.393
28820W        W 1080  21.035  16.631   3.629
28821W        W 1081  24.527  23.083  12.864
28822W        W 1082  11.763  20.256   3.733
28823W        W 1083  26.998  25.678  12.496
28824W        W 1084  39.934  37.953  14.776
28825W        W 1085  36.461   6.849   3.325
28826W        W 1086  31.086  16.798  13.001
28827W        W 1087  33.581  25.520  10.405
28828W        W 1088  22.525   9.251  12.500
28829W        W 1089  30.125  12.287   1.213
28830W        W 1090  21.040   2.467  13.328
28831W        W 1091  41.012   7.884   2.298
28832W        W 1092   3.460   1.795  13.366
28833W        W 1093  14.590  33.940  10.969
28834W        W 1094  36.379  44.260   0.383
28835W        W 1095  11.139  43.917   1.431
28836W        W 1096  36.559  25.590   0.837
28837W        W 1097  39.830  24.626   4.230
28838W        W 1098  17.783  21.603   2.385
28839W        W 1099   8.711  11.859  14.009
28840W        W 1100  38.474  19.779   4.605
28841W        W 1101  32.941  30.441  12.550
28842W        W 1102   2.869  24.146   4.253
28843W        W 1103  11.353  26.512   1.365
28844W        W 1104  13.330  26.197  10.900
28845W        W 1105  21.017  23.994  12.360
28846W        W 1106  29.042  41.463  13.019
28847W        W 1107  20.219  33.553   4.272
28848W        W 1108  26.525  35.095   4.206
28849W        W 1109  31.517  13.253  11.590
28850W        W 1110  28.637   4.333   2.400
28851W        W 1111  19.677  38.053   3.788
28852W        W 1112  26.564  37.962   0.404
28853W        W 1113  43.394  22.612  13.810
28854W        W 1114  38.491   0.482  14.795
28855W        W 1115  40.001  44.825  11.086
28856W        W 1116  22.194  28.093   3.639
28857W        W 1117  13.669  39.041  10.443
28858W        W 1118  30.139  23.061   2.768
28859W        W 1119   1.795  12.715   2.328
28860W        W 1120  28.559  35.428  12.416
28861W        W 1121  31.443  36.533  13.886
28862W        W 1122  26.591  41.327   4.187
28863W        W 1123  19.264  10.636  13.796
28864W        W 1124  31.467   4.227  13.451
28865W        W 1125  30.954   9.350   2.184
28866W        W 1126  27.944  28.603  13.903
28867W        W 1127  30.617  19.599   0.358
28868W        W 1128  27.575   6.752  10.959
28869W        W 1129  12.306   0.751  14.989
28870W        W 1130  44.425  29.433  11.379
28871W        W 1131  18.552  19.068  12.509
28872W        W 1132  23.048  15.108   0.446
28873W        W 1133  37.934  25.154   4.320
28874W        W 1134  10.634  21.621   3.849
28875W        W 1135  33.485  42.031   1.272
28876W        W 1136  40.844   1.467  13.059
28877W        W 1137  30.067   5.219   1.787
28878W        W 1138  22.517  11.795  10.537
28879W        W 1139  44.952  21.119  11.493
28880W        W 1140  29.634  11.224  12.525
28881W        W 1141  12.670   2.266  12.885
28882W        W 1142  39.438   8.876   2.187
28883W        W 1143  38.893  26.049   4.268
28884W        W 1144  38.493  28.446   4.231
28885W        W 1145  30.067  29.529  11.046
28886W        W 1146  22.059  35.897  14.471
28887W        W 1147  44.442  22.658   0.800
28888W        W 1148  14.108  11.363  12.927
28889W        W 1149   8.893   1.268   2.727
28890W        W 1150  20.759  16.151   3.822
28891W        W 1151  24.692  40.510   5.120
28892W        W 1152   2.921  35.511  11.947
28893W        W 1153   7.198  25.052   0.325
28894W        W 1154  24.675  42.421   3.819
28895W        W 1155  25.571  37.052   1.696
28896W        W 1156  40.396  26.611   0.385
28897W        W 1157  22.062  22.169  13.449
28898W        W 1158  10.149   4.941   2.395
28899W        W 1159  36.566   6.823   4.620
28900W        W 1160  23.623  39.533  10.946
28901W        W 1161  20.046  11.630   1.835
28902W        W 1162  30.982   3.444   2.276
28903W        W 1163  18.147  15.273  14.765
28904W        W 1164  37.833   2.773   2.758
28905W        W 1165  24.519  36.416  13.496
28906W        W 1166   5.899  38.046   4.214
28907W        W 1167   6.850  34.105   0.873
28908W        W 1168   2.729  14.653   4.143
28909W        W 1169   2.437  39.967  13.545
28910W        W 1170  25.661  22.111  12.083
28911W        W 1171   9.726   2.314   4.184
28912W        W 1172  11.316  10.293   2.664
28913W        W 1173  14.772  16.596  14.972
28914W        W 1174  20.083   3.289  13.436
28915W        W 1175  11.693  17.193   3.828
28916W        W 1176  35.877  13.172  13.012
28917W        W 1177  43.288  29.509  10.566
28918W        W 1178   8.798  12.840   4.352
28919W        W 1179  32.454  18.762   0.418
28920W        W 1180  39.953   9.865   1.703
28921W        W 1181  22.507   8.326  14.468
28922W        W 1182  39.449   4.764  11.551
28923W        W 1183  27.653  20.536   2.278
28924W        W 1184   6.683   9.209  12.507
28925W        W 1185  43.489  32.422   2.303
28926W        W 1186  33.415  25.180   1.790
28927W        W 1187  15.088  18.062  10.580
28928W        W 1188   4.943  31.025   1.899
28929W        W 1189  28.122  17.710  11.525
28930W        W 1190  34.112  19.686  13.902
28931W        W 1191  44.758  14.732  12.043
28932W        W 1192  19.687  19.094  13.547
28933W        W 1193  44.007  21.558  12.520
28934W        W 1194  31.931   2.240  14.934
28935W        W 1195   7.215  36.500  13.032
28936W        W 1196  18.575  35.453   3.236
28937W        W 1197   1.971  31.463   0.933
28938W        W 1198  39.514   7.690   0.869
28939W        W 1199  37.409   8.173  13.365
28940W        W 1200   5.247  24.060   4.639
28941W        W 1201  21.551  35.055   1.756
28942W        W 1202  12.764  13.275  10.589
28943W        W 1203  24.181  19.058  10.960
28944W        W 1204  24.073  24.998   0.253
28945W        W 1205   9.347  17.162   2.839
28946W        W 1206  27.140  28.513   3.663
28947W        W 1207  27.485  37.958   2.827
28948W        W 1208  19.095  33.567  13.937
28949W        W 1209  27.157  42.396   2.763
28950W        W 1210  36.914  17.787   2.838
28951W        W 1211   9.191  28.655  14.803
28952W        W 1212  17.093  34.516  12.955
28953W        W 1213  15.169  41.950  12.342
28954W        W 1214  43.365  37.865  10.581
28955W        W 1215   7.877  37.492   4.131
28956W        W 1216  39.521  43.774   3.346
28957W        W 1217  34.376  22.114  13.811
28958W        W 1218  26.475  12.641  10.004
28959W        W 1219  20.583  10.638  13.469
28960W        W 1220  33.924  30.612   4.739
28961W        W 1221  22.246  11.275   3.657
28962W        W 1222  17.145  41.297   2.898
28963W        W 1223  17.072  26.486  12.433
28964W        W 1224   4.929  23.634  13.366
28965W        W 1225  44.502  34.532   2.364
28966W        W 1226  28.073   2.362  13.856
28967W        W 1227  18.660   3.329  10.981
28968W        W 1228  36.385  11.693   9.993
28969W        W 1229   5.849  35.071  14.383
28970W        W 1230  11.224  35.400  13.834
28971W        W 1231  21.596  42.958  11.469
28972W        W 1232  14.740  44.924   2.215
28973W        W 1233  29.993  14.260  14.794
28974W        W 1234  21.068  30.044  13.042
28975W        W 1235  21.061  10.660  11.115
28976W        W 1236  16.657  19.684  14.020
28977W        W 1237  37.977   7.788  11.577
28978W        W 1238  16.247  15.694   0.953
28979W        W 1239   8.750   7.691   3.788
28980W        W 1240  38.871   4.878  12.410
28981W        W 1241  16.302  13.113   3.306
28982W        W 1242  34.608   0.412  13.473
28983W        W 1243   9.226   8.350   2.368
28984W        W 1244  32.045  13.601   3.148
28985W        W 1245   6.798  28.595  14.875
28986W        W 1246  25.548   7.289  12.047
28987W        W 1247  11.671  24.490   3.252
28988W        W 1248   3.782  43.379  10.592
28989W        W 1249  19.620  33.042  10.930
28990W        W 1250  17.134  40.872   0.280
28991W        W 1251  43.805  26.674   0.414
28992W        W 1252   0.954   8.690  14.967
28993W        W 1253  27.011  27.605  12.457
28994W        W 1254   7.871  34.465   1.424
28995W        W 1255  23.125  41.503  11.430
28996W        W 1256  35.458  21.134  12.988
28997W        W 1257  13.721   6.327  12.877
28998W        W 1258  26.002  10.265  13.996
28999W        W 1259  35.984  20.054   5.176
29000W        W 1260   6.273  34.030  12.936
29001W        W 1261  24.114  30.011   2.840
29002W        W 1262  29.042  32.956   5.602
29003W        W 1263   0.884  43.769   4.197
29004W        W 1264  28.047  40.027   9.974
29005W        W 1265   4.254  28.129   0.367
29006W        W 1266  35.007  13.245   3.232
29007W        W 1267  34.984  28.114   4.780
29008W        W 1268  31.568  15.666  14.410
29009W        W 1269   7.350   8.200  10.535
29010W        W 1270  43.961  25.968   1.883
29011W        W 1271  10.701   2.778   2.273
29012W        W 1272   8.842  44.904  14.936
29013W        W 1273  17.219   9.389   3.847
29014W        W 1274  42.968  21.233  14.025
29015W        W 1275  43.386   0.912  11.613
29016W        W 1276  40.960  42.990   2.756
29017W        W 1277  10.352  31.470   2.308
29018W        W 1278  40.938  34.455  12.984
29019W        W 1279   1.965  33.552  12.040
29020W        W 1280   7.191  32.579   4.740
29021W        W 1281  22.100   7.402   4.612
29022W        W 1282  11.621   8.372   0.814
29023W        W 1283  29.486  36.861   0.322
29024W        W 1284  42.864  11.796  13.035
29025W        W 1285   8.366  14.824  13.894
29026W        W 1286  36.425  10.867  13.351
29027W        W 1287  17.164   2.892   1.227
29028W        W 1288  38.358   3.825   0.311
29029W        W 1289  15.654  41.484  10.141
29030W        W 1290  20.636  31.025  14.471
29031W        W 1291  36.353  11.727   4.117
29032W        W 1292   0.365   1.264   3.846
29033W        W 1293  26.513   4.912  14.278
29034W        W 1294  44.832   6.781  13.941
29035W        W 1295  32.110  23.988  14.918
29036W        W 1296  27.527  16.168   0.849
29037W        W 1297  32.391   9.779  14.987
29038W        W 1298  36.481  35.541  12.448
29039W        W 1299  22.167  42.837   0.818
29040W        W 1300  31.084  31.017  12.028
29041W        W 1301   9.652   5.815   0.336
29042W        W 1302  41.894  34.445   1.856
29043W        W 1303  35.013  20.692   2.786
29044W        W 1304  16.663   2.965  13.397
29045W        W 1305  38.837  27.995   0.966
29046W        W 1306  31.947  41.883   3.194
29047W        W 1307  25.541   0.291   3.721
29048W        W 1308  44.309  43.470   3.717
29049W        W 1309  19.711  41.890  10.460
29050W        W 1310   0.942  37.947  10.547
29051W        W 1311   4.779   3.249  12.539
29052W        W 1312  20.605   3.786  11.470
29053W        W 1313  17.681  25.539   2.193
29054W        W 1314  28.436  39.464   2.391
29055W        W 1315  36.411  40.906   3.240
29056W        W 1316   3.332  31.084  12.348
29057W        W 1317  31.422  31.481  11.106
29058W        W 1318   0.909  11.782   0.794
29059W        W 1319  22.540  43.837  10.643
29060W        W 1320  24.708  21.084   2.233
29061W        W 1321  29.089   7.319   1.859
29062W        W 1322   4.731  17.095   1.427
29063W        W 1323  26.669  15.146  12.091
29064W        W 1324  33.422  37.911   3.217
29065W        W 1325  33.381   0.903  13.817
29066W        W 1326  40.337  22.160  13.903
29067W        W 1327   1.461  34.436   0.279
29068W        W 1328  14.632  36.026  14.479
29069W        W 1329   6.397   1.275   0.939
29070W        W 1330  17.186   0.847   5.310
29071W        W 1331   6.755  36.395   1.791
29072W        W 1332   2.445  25.091  11.475
29073W        W 1333  21.681  26.701   0.374
29074W        W 1334  10.252  25.671  14.458
29075W        W 1335   5.724  12.708  12.392
29076W        W 1336  19.749   6.766  11.936
29077W        W 1337  37.927  39.430   0.888
29078W        W 1338  38.029  37.833  12.460
29079W        W 1339  33.076  20.129  12.024
29080W        W 1340  13.786  28.569   2.766
29081W        W 1341  33.386   7.179   3.168
29082W        W 1342  36.968   8.707   3.725
29083W        W 1343  42.473  43.011  12.893
29084W        W 1344   0.423  39.485  13.997
29085W        W 1345  17.696  34.516   1.905
29086W        W 1346  16.568  28.567  12.429
29087W        W 1347  15.196  16.659  12.532
29088W        W 1348  35.390   6.399  10.915
29089W        W 1349  44.360  28.947   2.842
29090W        W 1350   8.672   0.826   0.942
29091W        W 1351  20.224  11.834  14.892
29092W        W 1352  31.500  20.586  12.833
29093W        W 1353  32.543   5.753   3.651
29094W        W 1354  44.488  29.945  14.292
29095W        W 1355   9.375  40.832  11.903
29096W        W 1356  35.891  25.541  11.923
29097W        W 1357  25.052   0.362  14.963
29098W        W 1358  16.255  32.581  13.345
29099W        W 1359  42.000  42.491  14.403
29100W        W 1360   4.362   3.909   2.186
29101W        W 1361  35.071  10.780  12.876
29102W        W 1362  27.154   9.882   1.718
29103W        W 1363  15.208   6.909   2.339
29104W        W 1364  17.199  28.129  12.903
29105W        W 1365   1.954  16.633   0.752
29106W        W 1366  35.505  33.008  11.395
29107W        W 1367  16.249  28.498  14.386
29108W        W 1368   0.363  37.851   3.738
29109W        W 1369  32.957  38.849   0.840
29110W        W 1370  43.963  24.689   4.626
29111W        W 1371   9.804  35.856  10.961
29112W        W 1372  40.833   8.720   0.804
29113W        W 1373  37.481  38.963   2.748
29114W        W 1374  27.617  19.768   1.859
29115W        W 1375   5.805   8.835  12.430
29116W        W 1376  11.743   7.783   2.876
29117W        W 1377  35.109  38.034   1.766
29118W        W 1378  27.042  13.718   0.309
29119W        W 1379  12.636  28.155  11.934
29120W        W 1380  26.509   1.927   2.790
29121W        W 1381   5.820  18.597   0.426
29122W        W 1382  25.600   7.861   0.916
29123W        W 1383  42.950  36.956   0.803
29124W        W 1384  41.477  28.984  14.989
29125W        W 1385  28.445  28.152  14.454
29126W        W 1386  21.591  25.975  13.950
29127W        W 1387  33.019  32.076   2.393
29128W        W 1388  40.315   9.723   1.743
29129W        W 1389   2.325  35.448   1.321
29130W        W 1390   8.206  23.533  11.606
29131W        W 1391  35.561   9.669   0.818
29132W        W 1392  28.983  19.049  13.916
29133W        W 1393  25.002  22.635  12.464
29134W        W 1394  21.196  37.353   4.143
29135W        W 1395  31.599   6.715   3.150
29136W        W 1396  36.878  30.565   2.814
29137W        W 1397  42.290  17.251   3.367
29138W        W 1398  42.416  10.216  14.441
29139W        W 1399  40.305   6.248  14.457
29140W        W 1400  22.017  18.069   2.733
29141W        W 1401  20.256  16.800   4.166
29142W        W 1402  16.614   7.249  12.531
29143W        W 1403  15.647   4.226   2.842
29144W        W 1404  44.424  42.300  10.519
29145W        W 1405  29.442  35.407   2.807
29146W        W 1406  18.554   3.263   3.750
29147W        W 1407   3.802  41.438   1.751
29148W        W 1408   9.727   4.341   3.191
29149W        W 1409  33.568  25.135   3.378
29150W        W 1410  25.484  44.455  10.549
29151W        W 1411   8.217  11.622   0.730
29152W        W 1412  25.205  16.079   0.822
29153W        W 1413  16.201  26.596  11.120
29154W        W 1414  25.585  15.585   5.294
29155W        W 1415  37.450  38.539  11.947
29156W        W 1416  21.078  28.547   2.689
29157W        W 1417  24.068  30.572  12.516
29158W        W 1418  36.474   5.311  14.441
29159W        W 1419  34.061  42.472   2.354
29160W        W 1420  32.609  20.714  12.380
29161W        W 1421  40.460  24.492   4.615
29162W        W 1422  22.160  42.501   4.316
29163W        W 1423  27.997  44.282   0.750
29164W        W 1424  29.080   2.827   3.761
29165W        W 1425   3.752  32.082   3.706
29166W        W 1426   4.346  16.115   3.380
29167W        W 1427  35.866   6.354  14.345
29168W        W 1428  35.412  29.463  10.966
29169W        W 1429   3.889  36.550  14.347
29170W        W 1430   4.894  42.907  14.842
29171W        W 1431  11.851  39.057  10.512
29172W        W 1432  10.146   3.268  14.508
29173W        W 1433  23.526  12.795  11.400
29174W        W 1434  31.901  23.530  10.519
29175W        W 1435  29.490  35.476  10.434
29176W        W 1436  33.917  34.379   3.822
29177W        W 1437  26.674  41.853   5.595
29178W        W 1438  10.707  30.604   3.764
29179W        W 1439  31.435  23.219   2.313
29180W        W 1440  24.555  29.571  13.884
29181W        W 1441   8.827  44.265   0.323
29182W        W 1442   8.251  10.237   1.925
29183W        W 1443  22.598  18.678  13.478
29184W        W 1444   7.187  40.909   0.253
29185W        W 1445  44.925  29.576  11.010
29186W        W 1446  31.961  35.852  12.041
29187W        W 1447  41.849   2.791  11.048
29188W        W 1448  32.109   2.361  13.016
29189W        W 1449   0.784   5.850   1.785
29190W        W 1450  21.611  38.438   3.738
29191W        W 1451  35.583  38.556   1.363
29192W        W 1452  27.957  13.753   0.895
29193W        W 1453  42.842  40.393   5.263
29194W        W 1454  33.620  37.485   2.368
29195W        W 1455  13.637  33.093   1.217
29196W        W 1456  15.247  22.180  11.373
29197W        W 1457  34.398  11.757  13.817
29198W        W 1458   7.757  33.995  14.822
29199W        W 1459   4.810  26.676  10.969
29200W        W 1460   4.346  27.074   3.677
29201W        W 1461  35.100  43.486  13.994
29202W        W 1462  29.023  31.546   1.345
29203W        W 1463  14.646  24.718  11.471
29204W        W 1464  43.925  12.270   0.371
29205W        W 1465  21.722  32.093  11.378
29206W        W 1466  20.096  39.505   4.336
29207W        W 1467  16.702  36.958   4.605
29208W        W 1468  34.437  12.205  13.478
29209W        W 1469  37.919  39.443  12.967
29210W        W 1470  32.556  18.178  13.885
29211W        W 1471   8.335  15.629  10.536
29212W        W 1472  35.054   1.795   4.115
29213W        W 1473  41.788  22.209  10.431
29214W        W 1474  37.897  18.622  13.883
29215W        W 1475  39.451  44.967  12.016
29216W        W 1476  39.881   9.797  13.990
29217W        W 1477  33.458  30.445   1.754
29218W        W 1478  10.156  20.191  12.073
29219W        W 1479  20.051  27.579  10.446
29220W        W 1480  34.420  19.088  12.537
29221W        W 1481   2.242  15.705   0.904
29222W        W 1482   3.739  32.613   2.890
29223W        W 1483  14.257  36.858   9.945
29224W        W 1484   0.972  38.553  14.934
29225W        W 1485  13.116  31.641   3.704
29226W        W 1486  32.009  27.564  10.596
29227W        W 1487  18.783  12.223  11.027
29228W        W 1488   9.758   3.891  11.066
29229W        W 1489  28.134  17.132   4.169
29230W        W 1490   8.820  29.975  11.857
29231W        W 1491  29.071  20.651  13.327
29232W        W 1492  13.601  37.407   2.714
29233W        W 1493   4.914  16.255   2.337
29234W        W 1494  36.401  34.491  13.807
29235W        W 1495   2.352  37.020   0.373
29236W        W 1496   8.835  23.166  10.541
29237W        W 1497  38.470   8.318   2.355
29238W        W 1498  41.450  44.440   4.696
29239W        W 1499  40.870   5.286  14.299
29240W        W 1500  27.606  35.562  11.965
29241W        W 1501  43.414  14.166   3.269
29242W        W 1502  16.184  32.539  11.475
29243W        W 1503   2.745  17.148  13.943
29244W        W 1504  35.359  34.095  14.432
29245W        W 1505  38.484  30.062   1.805
29246W        W 1506  28.088   5.353   0.937
29247W        W 1507  11.370  42.002   1.405
29248W        W 1508  27.057  24.100  10.910
29249W        W 1509  34.880   1.792  14.022
29250W        W 1510   1.441  42.501  14.774
29251W        W 1511  17.076  44.425   2.769
29252W        W 1512  21.721  22.640   5.127
29253W        W 1513   7.304  20.041   2.847
29254W        W 1514  19.546  42.931  11.886
29255W        W 1515   4.907  22.616   2.763
29256W        W 1516   3.875  23.728  12.876
29257W        W 1517  19.727  27.964  11.555
29258W        W 1518  26.615   6.261  11.923
29259W        W 1519  28.956  41.971  12.401
29260W        W 1520   4.892  44.474  11.591
29261W        W 1521  26.024  14.301  11.604
29262W        W 1522  26.612  13.344  10.531
29263W        W 1523  19.085  41.996   4.134
29264W        W 1524  28.448  39.931  14.428
29265W        W 1525   6.428  23.606  14.426
29266W        W 1526  25.680  13.691  14.993
29267W        W 1527  28.528  40.996   3.791
29268W        W 1528  40.466  19.187  11.607
29269W        W 1529  34.026  37.906   3.236
29270W        W 1530  27.999  30.487  12.514
29271W        W 1531  39.361  43.931  12.003
29272W        W 1532  26.114  35.361  12.075
29273W        W 1533  23.085  21.234  10.439
29274W        W 1534  23.037  38.856   4.292
29275W        W 1535  12.247  44.863  10.559
29276W        W 1536  39.046  40.802  11.052
29277W        W 1537  28.582  21.210   0.795
29278W        W 1538  29.619  37.956   3.766
29279W        W 1539   7.211  28.145  14.444
29280W        W 1540  35.880  28.983   1.812
29281W        W 1541  24.607  29.093   3.296
29282W        W 1542  31.411  28.992  10.487
29283W        W 1543  35.882  44.815  13.029
29284W        W 1544   8.789   6.247  10.963
29285W        W 1545   4.395  33.442   0.390
29286W        W 1546  29.445  16.191   2.862
29287W        W 1547  13.796  29.515   4.635
29288W        W 1548  38.955  40.914   3.657
29289W        W 1549  24.166  18.177   9.948
29290W        W 1550  12.194  44.000   1.895
29291W        W 1551  39.452  12.260  12.034
29292W        W 1552  12.284   7.832   3.247
29293W        W 1553  12.131  15.636  13.451
29294W        W 1554   7.831  35.472  12.497
29295W        W 1555  16.310  31.556  10.483
29296W        W 1556  40.038  26.157  12.459
29297W        W 1557  20.128   0.837  12.061
29298W        W 1558   8.891  32.953  11.549
29299W        W 1559  16.302  22.056   4.815
29300W        W 1560  30.020  38.358   4.323
29301W        W 1561  36.855   0.780  13.889
29302W        W 1562  38.876  38.521   4.203
29303W        W 1563   8.777   1.353   0.850
29304W        W 1564  31.620  42.419   2.247
29305W        W 1565  27.475  24.089  11.905
29306W        W 1566  31.031  34.485  14.906
29307W        W 1567  30.544  20.267   2.839
29308W        W 1568  28.995  28.600  13.482
29309W        W 1569  28.570   3.849  12.424
29310W        W 1570  17.589  15.151  14.919
29311W        W 1571  13.344  16.268   1.367
29312W        W 1572   8.160   9.257  13.435
29313W        W 1573  11.663  38.559  12.544
29314W        W 1574  40.808   2.767   3.236
29315W        W 1575  24.190  43.454   3.175
29316W        W 1576  37.580  29.051   4.637
29317W        W 1577  43.952  24.679   3.304
29318W        W 1578  32.461  36.450  11.034
29319W        W 1579  34.573  33.504   1.734
29320W        W 1580  31.061  40.485   3.669
29321W        W 1581  25.529   6.704  14.514
29322W        W 1582   3.902  43.782   2.856
29323W        W 1583  43.450  22.027   2.902
29324W        W 1584  31.126  41.899  12.423
29325W        W 1585  21.083  38.874   4.147
29326W        W 1586  26.654   1.431   0.934
29327W        W 1587  19.119   3.797  12.463
29328W        W 1588  29.131   5.770  10.931
29329W        W 1589  26.075  38.038   0.843
29330W        W 1590  34.875   2.321  10.534
29331W        W 1591  26.594  40.340   0.809
29332W        W 1592  42.433  10.650   2.729
29333W        W 1593  39.861  42.778  11.387
29334W        W 1594  15.759  25.525   0.385
29335W        W 1595  24.118  27.134   4.604
29336W        W 1596  28.012   7.695  11.405
29337W        W 1597   5.426  29.982  11.124
29338W        W 1598  31.992   8.822  11.088
29339W        W 1599  32.992  42.811   3.745
29340W        W 1600  33.958  37.026   2.398
29341W        W 1601  24.690  29.536  12.553
29342W        W 1602  36.031   4.427  13.838
29343W        W 1603  20.260  33.887  12.500
29344W        W 1604  42.011   9.308   1.345
29345W        W 1605   7.309  33.009   0.470
29346W        W 1606  28.636   0.776  11.436
29347W        W 1607  32.109  24.002  12.476
29348W        W 1608  28.668  24.200  14.872
29349W        W 1609  40.034  36.965   3.736
29350W        W 1610  34.599  37.028   1.706
29351W        W 1611  13.345   5.312  14.023
29352W        W 1612  38.873  34.029  11.560
29353W        W 1613   8.661  26.132   3.685
29354W        W 1614  40.815   2.919   4.720
29355W        W 1615  24.185   8.752  13.527
29356W        W 1616  13.647  24.115  10.969
29357W        W 1617  28.456  21.197  10.586
29358W        W 1618  21.526  36.568   1.860
29359W        W 1619  31.032  31.904   5.217
29360W        W 1620  40.525  14.735   1.348
29361W        W 1621  37.856  23.607  11.905
29362W        W 1622  44.421  28.485  13.831
29363W        W 1623  32.577  33.617  12.363
29364W        W 1624  24.558  41.395   4.766
29365W        W 1625  17.611   8.816  12.375
29366W        W 1626  18.221  19.086   4.215
29367W        W 1627  30.978  16.086  14.851
29368W        W 1628  16.737  35.922  14.918
29369W        W 1629  16.279  14.796   4.197
29370W        W 1630  36.456  34.431   0.344
29371W        W 1631  18.184  17.107   1.897
29372W        W 1632  42.431  11.241  13.861
29373W        W 1633  15.235  33.912   3.810
29374W        W 1634  38.928  18.769  10.075
29375W        W 1635  27.488   2.371  11.567
29376W        W 1636  17.619  32.062   1.222
29377W        W 1637  14.752  20.224  11.126
29378W        W 1638   3.319  12.302   0.439
29379W        W 1639  22.053  30.565  14.893
29380W        W 1640  35.985  23.581   3.258
29381W        W 1641  36.004  18.637   9.654
29382W        W 1642   8.861  40.349  13.875
29383W        W 1643  17.297  12.704  12.831
29384W        W 1644   4.792  39.963   3.341
29385W        W 1645  37.344  30.931  12.562
29386W        W 1646  34.045  36.088  14.999
29387W        W 1647  28.075   1.285   0.746
29388W        W 1648  14.754  21.221   2.670
29389W        W 1649   1.458  39.338   0.258
29390W        W 1650   8.763  37.340   2.254
29391W        W 1651  31.517  37.839   2.739
29392W        W 1652  41.311  37.930   4.784
29393W        W 1653  30.468  23.125  13.441
29394W        W 1654  24.134  10.668  11.377
29395W        W 1655  12.298  43.425  11.858
29396W        W 1656  20.233  27.944  13.919
29397W        W 1657  19.581  25.005  11.094
29398W        W 1658  38.510   2.916  11.129
29399W        W 1659  21.547   2.856   3.309
29400W        W 1660  38.330  44.762   0.809
29401W        W 1661   4.715  25.964  13.862
29402W        W 1662  26.952  16.183  13.532
29403W        W 1663   6.292  44.948  13.941
29404W        W 1664   6.744  43.468   3.787
29405W        W 1665  34.001  34.075  14.456
29406W        W 1666  31.603  25.180  12.899
29407W        W 1667  27.970  15.238   4.631
29408W        W 1668   5.754  19.572  13.949
29409W        W 1669  32.901  16.759   3.340
29410W        W 1670  12.348  36.859  13.453
29411W        W 1671   3.741   5.874  13.505
29412W        W 1672  23.734   8.812  10.425
29413W        W 1673  40.872  31.100  13.030
29414W        W 1674  42.441  19.274  10.410
29415W        W 1675  26.571  25.564  13.463
29416W        W 1676  23.003  30.038   4.666
29417W        W 1677  24.116  22.215  12.578
29418W        W 1678   8.376  36.074  11.861
29419W        W 1679   3.944  25.171   0.326
29420W        W 1680  44.394  29.039  13.910
29421W        W 1681  43.485   9.323  13.466
29422W        W 1682   9.880  24.656  13.032
29423W        W 1683  36.552  26.991   1.874
29424W        W 1684  23.095  20.548   1.343
29425W        W 1685  10.152  29.120   0.827
29426W        W 1686  24.621   3.380   4.287
29427W        W 1687   5.229  23.174   2.689
29428W        W 1688   6.362   2.319   1.400
29429W        W 1689  41.809  35.080   1.441
29430W        W 1690   6.398  42.931   2.763
29431W        W 1691   9.795  40.411   2.726
29432W        W 1692   8.734   8.261  12.967
29433W        W 1693  29.613  24.591   1.303
29434W        W 1694  32.065  29.602  14.347
29435W        W 1695  22.602  11.139   0.878
29436W        W 1696  37.358  38.824  10.406
29437W        W 1697  25.209   0.457  13.015
29438W        W 1698  24.546  17.179  11.523
29439W        W 1699  42.281  20.535  11.439
29440W        W 1700   3.796  27.449   4.751
29441W        W 1701  44.398   0.836   3.643
29442W        W 1702  35.886  13.785   3.304
29443W        W 1703   5.329  37.901  10.422
29444W        W 1704  24.097  34.493  10.570
29445W        W 1705  21.705   8.335  13.477
29446W        W 1706  30.535  35.023  11.926
29447W        W 1707   8.748  25.111   1.283
29448W        W 1708   4.741  14.296  10.912
29449W        W 1709  36.442   7.738   3.259
29450W        W 1710   8.321  43.773  13.863
29451W        W 1711  29.937  42.950   4.144
29452W        W 1712  27.573   1.819  11.569
29453W        W 1713   9.269  32.487  10.497
29454W        W 1714  17.716  21.157   3.285
29455W        W 1715  17.251   5.335   0.957
29456W        W 1716   6.350  40.034   1.415
29457W        W 1717   9.754  35.917  10.601
29458W        W 1718   6.689  26.653  11.579
29459W        W 1719   8.282  42.326  11.455
29460W        W 1720  37.951  24.534   3.252
29461W        W 1721  32.992  17.699  12.527
29462W        W 1722   8.313   5.346  10.487
29463W        W 1723  22.628  22.067   0.436
29464W        W 1724  44.316  21.053  10.104
29465W        W 1725  12.745  39.039   3.638
29466W        W 1726  13.678  20.054   4.750
29467W        W 1727  20.060  30.994   4.246
29468W        W 1728  24.106  22.202  14.447
29469W        W 1729  23.559  16.621   0.807
29470W        W 1730  12.229  16.744   0.390
29471W        W 1731  44.485  42.972  10.506
29472W        W 1732   5.768  10.255  13.354
29473W        W 1733   9.389  15.605   0.297
29474W        W 1734   8.697   2.298   2.798
29475W        W 1735  11.851  26.652  14.786
29476W        W 1736  10.315   5.382  13.949
29477W        W 1737  39.392   9.795   2.364
29478W        W 1738  16.652  32.067  13.832
29479W        W 1739  40.989  20.562  11.012
29480W        W 1740  19.193   4.389   2.390
29481W        W 1741  35.084  20.191  13.797
29482W        W 1742  17.126  32.505   1.831
29483W        W 1743  20.705  37.367  13.482
29484W        W 1744  28.060  32.138   1.294
29485W        W 1745   7.795  39.539  10.618
29486W        W 1746  19.135  30.619   4.117
29487W        W 1747  21.706  39.408  14.784
29488W        W 1748  12.758   3.246  10.415
29489W        W 1749  24.635  35.480   2.371
29490W        W 1750  44.284  12.255  11.863
29491W        W 1751  40.807  16.647  12.937
29492W        W 1752  44.357  35.445   0.758
29493W        W 1753   6.706  15.678   0.269
29494W        W 1754  33.935   4.245  12.034
29495W        W 1755  27.545  22.125   3.828
29496W        W 1756  10.781   9.304  13.435
29497W        W 1757  31.548  18.066   2.691
29498W        W 1758  27.090   1.891   0.795
29499W        W 1759  41.980  14.179   0.830
29500W        W 1760  38.429  14.689   0.252
29501W        W 1761  36.361  34.462   4.120
29502W        W 1762  20.227  22.222  12.401
29503W        W 1763   9.318  38.955  12.345
29504W        W 1764  32.947  33.060  12.829
29505W        W 1765  13.620   2.803  12.038
29506W        W 1766  16.576  13.701   1.363
29507W        W 1767   3.409  41.463   2.892
29508W        W 1768   4.219  21.054   4.222
29509W        W 1769  13.183   1.976  13.503
29510W        W 1770  41.897  24.008   5.216
29511W        W 1771  19.544  11.836   1.873
29512W        W 1772   3.814  24.008  10.631
29513W        W 1773   2.239   7.402   3.802
29514W        W 1774  34.404   4.248   4.812
29515W        W 1775  41.978  33.446   3.640
29516W        W 1776  42.924  14.174   4.671
29517W        W 1777  18.592  34.498   1.449
29518W        W 1778  24.529   9.727   2.796
29519W        W 1779  19.093   4.450   1.367
29520W        W 1780   0.971  36.570  14.440
29521W        W 1781  20.660  13.300  12.371
29522W        W 1782  36.573   4.744   0.762
29523W        W 1783   5.687  36.989  10.599
29524W        W 1784   2.876   0.390  14.867
29525W        W 1785  18.601  32.437   1.394
29526W        W 1786  20.547  43.896  14.301
29527W        W 1787  15.277  20.078  10.919
29528W        W 1788  39.824  38.350  14.449
29529W        W 1789  25.192  38.865  13.796
29530W        W 1790  26.100  23.152  14.779
29531W        W 1791  17.649   5.808   2.671
29532W        W 1792  37.027  35.469   4.154
29533W        W 1793  33.014  19.220  12.055
29534W        W 1794  36.042  43.778   0.409
29535W        W 1795  34.459  21.191   3.329
29536W        W 1796  43.510  37.470  14.912
29537W        W 1797  16.170  37.005  14.770
29538W        W 1798  16.811  37.416  13.920
29539W        W 1799   7.271   8.375  11.562
29540W        W 1800  43.997   3.889   3.321
29541W        W 1801  35.423   1.966  14.007
29542W        W 1802  18.561  20.675   2.848
29543W        W 1803  21.030  25.071   1.240
29544W        W 1804  13.241  32.940  10.484
29545W        W 1805  38.505  14.094  10.895
29546W        W 1806  22.186  44.759   3.864
29547W        W 1807  10.642  25.643   4.642
29548W        W 1808   9.649   4.305   2.258
29549W        W 1809  26.045  24.999  14.979
29550W        W 1810  25.002  10.845   4.239
29551W        W 1811   2.965  42.978   0.870
29552W        W 1812  26.113  35.047   1.900
29553W        W 1813   5.879  32.573  11.491
29554W        W 1814   6.709   9.759  11.455
29555W        W 1815  11.230   2.753  10.527
29556W        W 1816  19.709  42.352  13.009
29557W        W 1817  26.138  27.635   0.280
29558W        W 1818  26.504  35.899   3.193
29559W        W 1819  14.661  34.593   4.777
29560W        W 1820  23.026  15.623   0.792
29561W        W 1821  42.491  11.854  11.602
29562W        W 1822  27.617  37.532   2.314
29563W        W 1823  26.689   1.239   2.253
29564W        W 1824  25.637  43.811  10.547
29565W        W 1825   5.790  35.870   3.356
29566W        W 1826  11.142  22.577  12.828
29567W        W 1827  30.612  34.586  14.944
29568W        W 1828   1.892   0.425  14.309
29569W        W 1829  23.570   7.844  11.078
29570W        W 1830  15.632   8.348   4.210
29571W        W 1831  19.285  19.570   2.297
29572W        W 1832  42.444  34.465  13.856
29573W        W 1833  14.762  41.997   1.718
29574W        W 1834  24.043  42.521  14.378
29575W        W 1835  10.384  31.924  10.929
29576W        W 1836  30.453  44.858  14.970
29577W        W 1837   4.769  29.008  14.002
29578W        W 1838  25.184  17.649  11.593
29579W        W 1839  16.643  43.489  14.886
29580W        W 1840  41.392  41.413   1.800
29581W        W 1841  11.861  13.239  13.003
29582W        W 1842  38.406  43.379  12.934
29583W        W 1843  12.236  27.654  10.069
29584W        W 1844  21.146  44.900  14.791
29585W        W 1845  16.207  35.370   4.611
29586W        W 1846  10.741  29.950   1.277
29587W        W 1847  31.587  21.198   5.322
29588W        W 1848   4.731  33.460  10.500
29589W        W 1849   8.843   4.292  10.495
29590W        W 1850  24.535  29.161  11.862
29591W        W 1851   6.315   4.427   1.740
29592W        W 1852  34.937  40.314   3.791
29593W        W 1853   1.763  10.304  11.410
29594W        W 1854  26.585  32.413   1.447
29595W        W 1855   8.695  40.332   3.148
29596W        W 1856  33.402  32.072  11.024
29597W        W 1857  32.528   7.711   2.195
29598W        W 1858  31.010   5.407   3.787
29599W        W 1859   0.437  24.137  11.978
29600W        W 1860  44.451  28.016  13.348
29601W        W 1861   4.883  37.509   1.804
29602W        W 1862   1.429  40.368  12.345
29603W        W 1863  21.141  20.673  11.080
29604W        W 1864  27.104  39.401  13.515
29605W        W 1865  31.462   1.410  10.541
29606W        W 1866  13.126  20.198  14.794
29607W        W 1867   4.275  40.415   4.723
29608W        W 1868  31.935  17.678   0.859
29609W        W 1869   5.715  24.191   4.817
29610W        W 1870  33.618  11.151  12.908
29611W        W 1871  37.437  14.231  11.524
29612W        W 1872  33.071  19.779  14.889
29613W        W 1873  16.791  32.445  11.045
29614W        W 1874   3.394  11.783   1.884
29615W        W 1875  43.864   1.390  10.428
29616W        W 1876  28.039   9.174  13.459
29617W        W 1877  32.608   0.287  12.876
29618W        W 1878  16.117   3.374   2.903
29619W        W 1879  11.796  27.639   0.376
29620W        W 1880  32.141  23.201  12.963
29621W        W 1881  13.741  21.637   0.925
29622W        W 1882   5.386  13.317   1.822
29623W        W 1883  24.712  12.325   2.373
29624W        W 1884  35.976   7.288  14.010
29625W        W 1885  21.159  12.132   4.323
29626W        W 1886  41.795  31.991  10.441
29627W        W 1887  20.096   4.297   2.345
29628W        W 1888  21.701  21.155   5.790
29629W        W 1889   8.731  17.731   1.224
29630W        W 1890  41.401  41.334  13.368
29631W        W 1891  44.758  17.190   2.214
29632W        W 1892  18.711   3.876   3.293
29633W        W 1893  22.690   8.671   1.885
29634W        W 1894  25.131   6.905  12.415
29635W        W 1895  28.114   8.251   5.229
29636W        W 1896  36.478  42.822  12.855
29637W        W 1897  12.650  27.105   2.672
29638W        W 1898   1.848  28.537  11.611
29639W        W 1899  31.463  27.457  13.874
29640W        W 1900  11.261   0.873  13.345
29641W        W 1901  32.903   1.311  12.472
29642W        W 1902  34.600   6.383   1.325
29643W        W 1903  28.175  33.923  12.372
29644W        W 1904  19.572  38.341   4.834
29645W        W 1905   5.279   5.424  14.499
29646W        W 1906  37.517  40.532  11.588
29647W        W 1907   9.730   8.807  12.828
29648W        W 1908  10.846  28.550  14.490
29649W        W 1909  27.649  43.384   4.153
29650W        W 1910  36.060   3.450   3.720
29651W        W 1911   2.469  40.384   2.261
29652W        W 1912  22.587  13.758  10.902
29653W        W 1913  26.545  30.458  12.405
29654W        W 1914  26.625  19.061   0.433
29655W        W 1915  33.062   2.395  11.548
29656W        W 1916  26.976  31.516   1.272
29657W        W 1917  30.585  16.190  10.944
29658W        W 1918  10.359   2.913  11.932
29659W        W 1919  30.570   8.666  14.293
29660W        W 1920   9.353  43.304   2.777
29661W        W 1921   5.773   7.368   0.900
29662W        W 1922  31.965  41.004   3.758
29663W        W 1923  40.961  37.561  14.342
29664W        W 1924  24.038   8.774  12.448
29665W        W 1925  43.302   7.871  13.814
29666W        W 1926  16.262   6.862   1.756
29667W        W 1927  13.245  30.533  10.991
29668W        W 1928  40.454  29.964  13.333
29669W        W 1929   6.241  41.806  14.397
29670W        W 1930  35.868   9.381   5.099
29671W        W 1931  12.194  17.082  14.405
29672W        W 1932   5.908  11.208   1.918
29673W        W 1933  19.226  15.663  14.442
29674W        W 1934  32.103  26.652  12.537
29675W        W 1935   7.821  18.773  11.873
29676W        W 1936  34.994  19.223  13.810
29677W        W 1937  23.558  31.413   2.878
29678W        W 1938  32.566   0.923   0.292
29679W        W 1939   7.827   5.713  14.786
29680W        W 1940  34.414   2.354   2.315
29681W        W 1941  11.265  13.710  11.575
29682W        W 1942  26.080  34.120   3.328
29683W        W 1943  11.783  26.039  13.353
29684W        W 1944  37.552  13.831  14.494
29685W        W 1945  25.095  18.768   4.271
29686W        W 1946   8.768  43.000   2.886
29687W        W 1947  15.743  18.549   0.342
29688W        W 1948  40.898  17.611  14.366
29689W        W 1949  34.398   2.296  10.906
29690W        W 1950   1.327  11.687  13.992
29691W        W 1951   0.782  39.915  10.509
29692W        W 1952  13.299   9.334  11.979
29693W        W 1953   4.858  28.575  13.991
29694W        W 1954  35.027  26.630  10.081
29695W        W 1955   8.819  34.596  14.862
29696W        W 1956  31.922  18.751  13.500
29697W        W 1957  28.523  19.284   3.745
29698W        W 1958  14.195  11.632  13.478
29699W        W 1959  28.120   2.432   4.672
29700W        W 1960  18.153  35.080  14.467
29701W        W 1961  30.010   2.268  13.332
29702W        W 1962  21.078  34.906  13.957
29703W        W 1963  12.802  39.007   2.764
29704W        W 1964  13.175  15.809   5.321
29705W        W 1965  12.196  37.355   4.638
29706W        W 1966  16.728  22.146   0.933
29707W        W 1967   0.934   0.787   5.133
29708W        W 1968  33.593  29.437  13.818
29709W        W 1969  10.869  24.002  14.016
29710W        W 1970  16.188   1.320   3.632
29711W        W 1971  26.127   0.837   3.307
29712W        W 1972  23.724   4.854   0.436
29713W        W 1973  31.609  22.211   0.952
29714W        W 1974  36.565  36.420  11.576
29715W        W 1975   2.931  42.358   2.417
29716W        W 1976  18.753  44.932   3.726
29717W        W 1977  18.708   7.868   9.968
29718W        W 1978  11.802  13.141   2.791
29719W        W 1979  15.707  34.949  14.328
29720W        W 1980  20.141  13.336   0.391
29721W        W 1981  28.032   1.391   4.664
29722W        W 1982  38.940   3.443  13.383
29723W        W 1983  35.110  14.662   2.350
29724W        W 1984  14.113  29.523   4.298
29725W        W 1985  16.646  41.790   1.272
29726W        W 1986  37.441   5.379   2.888
29727W        W 1987  32.000   4.856  10.503
29728W        W 1988  27.665   7.768   1.891
29729W        W 1989  31.992  19.725   0.381
29730W        W 1990  12.276  34.610  10.528
29731W        W 1991  15.591  36.410  14.800
29732W        W 1992  34.050  42.407   4.153
29733W        W 1993   5.230  25.984   3.272
29734W        W 1994  33.087  33.931  14.784
29735W        W 1995  11.281  27.603  12.855
29736W        W 1996  24.219  43.336  14.415
29737W        W 1997  24.536  33.588   0.313
29738W        W 1998  36.043   4.265   1.770
29739W        W 1999  16.714   2.724  11.904
29740W        W 2000  41.864  35.394  13.446
29741W        W 2001   8.897  38.565  12.514
29742W        W 2002  33.015  11.698  10.535
29743W        W 2003  23.502  41.974  12.052
29744W        W 2004  17.230  25.634   1.696
29745W        W 2005  44.948  44.932   3.218
29746W        W 2006   0.307   0.884   4.176
29747W        W 2007  15.712  30.567  13.991
29748W        W 2008  27.466  17.678   1.740
29749W        W 2009  20.112  27.475  14.849
29750W        W 2010   1.967   4.305   3.312
29751W        W 2011  32.618  26.602  12.478
29752W        W 2012  43.280  33.037   2.320
29753W        W 2013  17.164  29.011   1.304
29754W        W 2014  37.018  26.982   0.923
29755W        W 2015  31.444  17.637  11.612
29756W        W 2016  16.770  31.621   2.720
29757W        W 2017  15.290  25.480  14.359
29758W        W 2018   7.753  36.063  13.373
29759W        W 2019  14.680   7.699  12.566
29760W        W 2020  39.387  43.410   0.340
29761W        W 2021  30.573  16.273  13.906
29762W        W 2022   6.371  12.203  10.605
29763W        W 2023  14.690  11.747  13.520
29764W        W 2024  39.432  19.268   0.807
29765W        W 2025  11.626   4.359   3.359
29766W        W 2026  21.547  23.056   3.340
29767W        W 2027  18.749  16.796  14.771
29768W        W 2028  10.259  12.730  11.384
29769W        W 2029  15.671  19.146   2.318
29770W        W 2030  38.435  25.005  14.938
29771W        W 2031  26.959  41.459  10.985
29772W        W 2032  13.176  11.735   2.839
29773W        W 2033  34.533  37.906  11.064
29774W        W 2034  43.408  11.866  13.854
29775W        W 2035  32.072  27.650  14.770
29776W        W 2036   3.374  34.920   2.414
29777W        W 2037  25.514  38.901  12.900
29778W        W 2038  21.710  20.733   2.832
29779W        W 2039   1.906  32.574  10.940
29780W        W 2040   1.344   0.292   0.773
29781W        W 2041   7.388  41.367   1.810
29782W        W 2042  29.144  25.002   4.139
29783W        W 2043  39.388  29.473  12.994
29784W        W 2044  14.279  19.098   0.759
29785W        W 2045  40.857  29.455   2.376
29786W        W 2046   9.387  10.172   5.105
29787W        W 2047   3.872  19.200  11.109
29788W        W 2048  25.151   1.457   2.330
29789W        W 2049  24.075  14.790  11.901
29790W        W 2050  40.857  20.541  13.404
29791W        W 2051  35.050   0.475  13.494
29792W        W 2052  24.645  40.001   4.204
29793W        W 2053  25.969  37.061  12.564
29794W        W 2054   4.207  18.185  12.370
29795W        W 2055  28.957  13.747  11.936
29796W        W 2056  33.525   8.258   1.425
29797W        W 2057  38.038  16.594   3.809
29798W        W 2058   9.331  11.370   2.388
29799W        W 2059   9.356  21.109   0.368
29800W        W 2060  26.701   4.285  14.451
29801W        W 2061  37.535  32.106  10.931
29802W        W 2062  37.540   2.891   4.801
29803W        W 2063  13.333  16.191   4.660
29804W        W 2064  40.832  38.365  14.340
29805W        W 2065  32.591  27.543   2.811
29806W        W 2066  31.441   2.771   1.712
29807W        W 2067  35.907  14.630   0.925
29808W        W 2068  19.712  24.016   0.805
29809W        W 2069  43.012  30.109   1.837
29810W        W 2070  35.867  10.149  10.511
29811W        W 2071  17.111  32.608   4.255
29812W        W 2072  32.988  24.690  10.415
29813W        W 2073  11.650  42.929   1.211
29814W        W 2074  24.572  13.824   1.225
29815W        W 2075  13.724  34.104   4.695
29816W        W 2076   7.796  37.383  11.565
29817W        W 2077  33.590  42.917  14.021
29818W        W 2078  33.936   5.241   4.117
29819W        W 2079  43.979  37.839   4.698
29820W        W 2080   5.317  26.068  10.986
29821W        W 2081  27.086  31.003  12.381
29822W        W 2082  34.883  13.341  14.313
29823W        W 2083  24.716   4.259   1.286
29824W        W 2084  17.287  32.921  10.425
29825W        W 2085  30.057   3.342  12.560
29826W        W 2086  28.118  25.473  10.613
29827W        W 2087  10.770  25.188  12.888
29828W        W 2088  14.315  10.266  14.986
29829W        W 2089  35.980  44.900   0.919
29830W        W 2090  39.494  36.370   4.174
29831W        W 2091  29.931  23.023   4.136
29832W        W 2092  29.606  42.368  12.906
29833W        W 2093  11.280  18.169  14.446
29834W        W 2094  36.481   6.218  10.433
29835W        W 2095  19.770  32.968   4.803
29836W        W 2096   9.168   4.450   0.859
29837W        W 2097  26.683  19.060   1.329
29838W        W 2098  24.573  41.002  14.847
29839W        W 2099  44.404  20.079  11.928
29840W        W 2100  17.770  26.634   1.844
29841W        W 2101   8.363  40.822   4.731
29842W        W 2102  44.403   4.761   0.462
29843W        W 2103  19.606  17.294   0.919
29844W        W 2104  27.596  42.479  13.866
29845W        W 2105  25.676   6.345  14.775
29846W        W 2106  20.670  26.572   2.281
29847W        W 2107  38.897  32.538  14.470
29848W        W 2108  20.273  14.714  14.332
29849W        W 2109   3.927  14.812  11.959
29850W        W 2110  28.651  18.220  13.957
29851W        W 2111   1.889  24.550  11.499
29852W        W 2112  40.388  10.181  11.959
29853W        W 2113  36.514  12.233  14.456
29854W        W 2114   0.807  32.953  13.998
29855W        W 2115  44.349  36.911   4.289
29856W        W 2116  43.458   3.349   1.914
29857W        W 2117  22.652  13.624   0.964
29858W        W 2118  12.179  32.999   0.447
29859W        W 2119  23.719  43.493   2.739
29860W        W 2120  13.729  12.726   1.881
29861W        W 2121  43.893  17.211   0.942
29862W        W 2122  10.745   8.678  12.348
29863W        W 2123  19.575   2.364   0.399
29864W        W 2124  44.801  32.508   4.624
29865W        W 2125  18.069   0.808  11.561
29866W        W 2126  12.287  28.597   0.463
29867W        W 2127  35.873  16.696   4.612
29868W        W 2128   3.306  15.738   1.765
29869W        W 2129  13.128  37.050   1.816
29870W        W 2130   7.859   1.773   1.802
29871W        W 2131  22.691  38.850  11.505
29872W        W 2132  25.062  40.975  10.574
29873W        W 2133  20.590  30.968   1.809
29874W        W 2134   6.428   1.737   2.236
29875W        W 2135  24.206   4.827   9.991
29876W        W 2136  25.055  24.038  11.930
29877W        W 2137   9.240  29.538  13.951
29878W        W 2138  41.982  17.680  12.561
29879W        W 2139  15.268  18.600   3.789
29880W        W 2140  35.935  19.576  14.818
29881W        W 2141   1.939  10.784  10.404
29882W        W 2142   0.370  33.884  11.001
29883W        W 2143   4.891  43.950  10.604
29884W        W 2144  43.864  41.420  10.545
29885W        W 2145  20.029  11.168  13.052
29886W        W 2146  35.361  41.361   2.687
29887W        W 2147  13.117  22.519  14.001
29888W        W 2148   0.886  14.798   0.360
29889W        W 2149  20.100  14.634   1.298
29890W        W 2150  31.638  15.734  11.891
29891W        W 2151  25.501   9.328  14.326
29892W        W 2152  41.013  23.003  14.354
29893W        W 2153  28.960  12.212   3.151
29894W        W 2154   1.296  12.751   2.783
29895W        W 2155  19.100  41.911   2.403
29896W        W 2156   7.244  11.134   4.606
29897W        W 2157  34.497  38.072  12.532
29898W        W 2158  37.851  44.302  12.026
29899W        W 2159  21.171  34.022  12.348
29900W        W 2160  14.221  24.480   2.356
29901W        W 2161  43.270  29.612  12.386
29902W        W 2162  38.031  26.171   1.216
29903W        W 2163   5.202  31.116  11.608
29904W        W 2164   9.684  40.498   4.177
29905W        W 2165  38.355  32.085  13.435
29906W        W 2166   4.217   8.688   1.909
29907W        W 2167  16.663  12.271   4.640
29908W        W 2168   0.761  10.306   2.854
29909W        W 2169   0.360  42.894  11.392
29910W        W 2170  36.019  22.650  12.572
29911W        W 2171   3.796  22.174   3.775
29912W        W 2172  32.592  11.281   2.232
29913W        W 2173   3.733  22.669  14.967
29914W        W 2174  12.346  19.603   0.743
29915W        W 2175  37.577  31.033  13.048
29916W        W 2176   6.846   2.747  12.065
29917W        W 2177  14.317  43.893   2.748
29918W        W 2178  23.138   0.862   0.757
29919W        W 2179  14.284  27.469   5.101
29920W        W 2180  41.526  37.376  13.866
29921W        W 2181  11.855  40.452   2.404
29922W        W 2182  40.366   2.930   2.405
29923W        W 2183  41.531   3.342   2.701
29924W        W 2184  29.066   4.427   1.759
29925W        W 2185   0.827  31.945   0.924
29926W        W 2186  19.776  32.031   0.276
29927W        W 2187  20.086   4.835  11.567
29928W        W 2188   5.708  18.246  14.277
29929W        W 2189  29.960  22.201  13.846
29930W        W 2190  26.503  16.585  12.342
29931W        W 2191  35.393  20.724  12.529
29932W        W 2192  17.779   7.898  13.926
29933W        W 2193  40.439  11.649  14.291
29934W        W 2194   1.748   0.425   3.149
29935W        W 2195   5.206  44.347  14.954
29936W        W 2196  23.541  32.560   2.844
29937W        W 2197  16.126  10.381   4.783
29938W        W 2198  29.664  30.544  10.485
29939W        W 2199  21.201  21.077  10.031
29940W        W 2200  43.998  28.000   1.832
29941W        W 2201  28.169  33.451   0.783
29942W        W 2202  16.282  13.764   2.734
29943W        W 2203   4.230  22.223   1.270
29944W        W 2204  28.164  39.908   5.228
29945W        W 2205  18.781   0.780  14.290
29946W        W 2206   9.686  44.848   4.634
29947W        W 2207  24.012   7.384  13.472
29948W        W 2208  35.095  13.763  10.925
29949W        W 2209  40.955  24.489   3.162
29950W        W 2210  10.800  44.278   4.273
29951W        W 2211   6.275   9.229   1.409
29952W        W 2212   2.338  13.231   2.676
29953W        W 2213  44.861  38.980   4.283
29954W        W 2214  32.442   0.758   4.634
29955W        W 2215   6.717  20.590   0.256
29956W        W 2216  34.479  11.840  14.449
29957W        W 2217  11.671   9.207  14.908
29958W        W 2218  44.493  39.919   2.716
29959W        W 2219  26.549  40.966   3.681
29960W        W 2220  14.820  10.320  13.985
29961W        W 2221  41.942  43.420   4.785
29962W        W 2222  25.987  44.796  12.977
29963W        W 2223  13.756   5.295  11.458
29964W        W 2224  37.560  15.695   4.328
29965W        W 2225  17.296  25.175  12.449
29966W        W 2226   7.412   8.743   2.684
29967W        W 2227  23.133   5.328  13.865
29968W        W 2228  23.993  15.208  14.849
29969W        W 2229  11.789  22.032  10.488
29970W        W 2230  22.196  20.270  12.087
29971W        W 2231   7.185  22.513  10.624
29972W        W 2232   5.405  44.780   3.834
29973W        W 2233  41.877  24.542  14.388
29974W        W 2234  26.619  16.691  13.506
29975W        W 2235  26.958  40.869  11.373
29976W        W 2236  12.306  35.932  10.570
29977W        W 2237  35.105  13.821   2.319
29978W        W 2238  42.343  29.639   3.777
29979W        W 2239  37.928  37.991   0.938
29980W        W 2240  42.342  43.835  12.943
29981W        W 2241   0.972  22.643  11.059
29982W        W 2242  33.387  11.734   2.749
29983W        W 2243   0.265  32.087   1.368
29984W        W 2244  22.232  26.589   4.757
29985W        W 2245  43.018  20.752  12.827
29986W        W 2246  28.045  42.924  14.996
29987W        W 2247  44.778   8.720   2.679
29988W        W 2248   8.881  19.660  10.152
29989W        W 2249  37.877  25.545  10.528
29990W        W 2250  11.858   6.858   0.450
29991W        W 2251   3.919   7.392   5.312
29992W        W 2252   7.750  39.948  14.427
29993W        W 2253  24.611  16.780  11.516
29994W        W 2254  33.475   6.429  14.026
29995W        W 2255  21.522  29.665   3.166
29996W        W 2256  42.425  10.305  13.033
29997W        W 2257   6.331  20.745  12.937
29998W        W 2258  41.438  21.702  14.469
29999W        W 2259  25.703  12.185  11.009
30000W        W 2260  33.600  37.555   0.356
30001W        W 2261   2.376   3.952   0.387
30002W        W 2262  31.538  19.678  12.490
30003W        W 2263  26.635  12.666   0.462
30004W        W 2264  42.915  43.781   2.741
30005W        W 2265  33.483  31.434  14.350
30006W        W 2266   5.707  26.523  10.450
30007W        W 2267  33.002   8.168   3.381
30008W        W 2268   9.307   9.209  13.393
30009W        W 2269  24.606  14.602  10.966
30010W        W 2270   4.376   9.363  11.971
30011W        W 2271  31.622  28.570   1.713
30012W        W 2272  42.903  41.516  10.904
30013W        W 2273  27.082  41.891  14.425
30014W        W 2274  14.595  32.094  12.992
30015W        W 2275   1.340  16.753  10.503
30016W        W 2276  39.430  37.576  10.135
30017W        W 2277  26.460  35.368   1.267
30018W        W 2278  13.709  34.505   1.210
30019W        W 2279   0.797  21.079  12.476
30020W        W 2280  32.504  38.559  10.515
30021W        W 2281  25.061  24.655   4.604
30022W        W 2282   4.228   9.770  11.044
30023W        W 2283  42.989  11.664   4.126
30024W        W 2284  24.601  37.383   1.266
30025W        W 2285  30.597  14.252  11.125
30026W        W 2286  36.580  31.012  10.439
30027W        W 2287  13.107  38.004   4.634
30028W        W 2288  40.977   6.379   1.897
30029W        W 2289   7.740  37.405  12.363
30030W        W 2290   4.824  18.077   4.610
30031W        W 2291  36.087  17.578   4.120
30032W        W 2292  19.215  27.071   4.197
30033W        W 2293  42.493  41.378   3.689
30034W        W 2294  35.857   2.384   5.256
30035W        W 2295  43.460  43.906   3.319
30036W        W 2296   1.826   4.356   4.832
30037W        W 2297   0.489  34.096  10.494
30038W        W 2298   3.788  15.644  12.507
30039W        W 2299  11.765  37.901  12.004
30040W        W 2300   7.723  29.524   4.214
30041W        W 2301  25.597  13.618  12.370
30042W        W 2302  19.078  14.269  11.469
30043W        W 2303  35.010  44.400   1.264
30044W        W 2304   6.738  37.015  14.309
30045W        W 2305   8.373   8.196  13.464
30046W        W 2306   5.913   5.247   3.364
30047W        W 2307   1.950  18.742  12.955
30048W        W 2308  14.276   4.243   2.770
30049W        W 2309  42.852  20.250   2.367
30050W        W 2310   0.911  44.989  14.953
30051W        W 2311  11.804   2.818   4.322
30052W        W 2312  36.879  11.680  10.891
30053W        W 2313   3.824   1.424  13.449
30054W        W 2314   5.390  26.099   2.270
30055W        W 2315   0.839  30.011  10.586
30056W        W 2316  34.582   4.383  10.505
30057W        W 2317   7.830   8.832   0.343
30058W        W 2318  21.122  24.059   5.299
30059W        W 2319   3.259   0.367  13.850
30060W        W 2320  37.005   8.303  10.011
30061W        W 2321  34.490   6.778   3.152
30062W        W 2322   8.704  36.358   1.398
30063W        W 2323  27.025   3.903   3.354
30064W        W 2324   7.672  31.531   0.753
30065W        W 2325  20.550  11.282   0.903
30066W        W 2326  17.715  26.595  13.983
30067W        W 2327  10.705  36.046   2.205
30068W        W 2328  41.961  44.815   4.717
30069W        W 2329  21.244   7.713   2.847
30070W        W 2330   2.328  32.098   3.378
30071W        W 2331  22.188  38.451   2.668
30072W        W 2332  25.635   8.716   5.105
30073W        W 2333  40.798  42.928   3.803
30074W        W 2334  30.621  13.278   2.183
30075W        W 2335   6.790  19.638  14.282
30076W        W 2336  20.555   4.380   0.402
30077W        W 2337  27.952  43.494  14.832
30078W        W 2338  30.958  19.146  12.911
30079W        W 2339   8.171   6.346  13.980
30080W        W 2340  13.601  44.349   0.736
30081W        W 2341  18.144  33.431  14.406
30082W        W 2342  33.536  22.580   4.647
30083W        W 2343  29.960  35.938   3.862
30084W        W 2344  15.760  19.235   3.166
30085W        W 2345   8.691  15.298   2.261
30086W        W 2346  24.547  10.328   5.294
30087W        W 2347  12.340  31.144  14.894
30088W        W 2348   5.700  31.560  10.511
30089W        W 2349  34.104  43.293  10.502
30090W        W 2350  24.127  27.475  14.987
30091W        W 2351  43.369   0.443   4.118
30092W        W 2352  11.711  10.786  13.912
30093W        W 2353  24.617  24.154   0.403
30094W        W 2354  14.726  30.476  11.600
30095W        W 2355  44.978  15.819   1.388
30096W        W 2356  25.015  33.603   1.265
30097W        W 2357   5.746  13.168  12.478
30098W        W 2358  40.915  37.343   2.674
30099W        W 2359  17.228   1.390   0.790
30100W        W 2360  24.519  39.022   1.287
30101W        W 2361  11.802  23.641  10.930
30102W        W 2362   9.750  21.090  11.884
30103W        W 2363  41.415  13.120  11.407
30104W        W 2364  41.417  27.029   0.382
30105W        W 2365  21.042   7.176   0.809
30106W        W 2366  36.866  31.488   3.155
30107W        W 2367   6.803  34.048   4.223
30108W        W 2368  27.547   5.276   2.374
30109W        W 2369  29.941   4.276   2.201
30110W        W 2370  32.534  12.203  10.617
30111W        W 2371  35.371   9.884   3.161
30112W        W 2372  39.376  28.559   1.849
30113W        W 2373  21.549  31.459  13.975
30114W        W 2374  22.671  37.446   3.656
30115W        W 2375   8.854   5.847  12.853
30116W        W 2376  41.841  21.150  13.064
30117W        W 2377  22.566  34.053   2.775
30118W        W 2378  22.506  14.267  12.002
30119W        W 2379  15.755  11.184  11.022
30120W        W 2380  18.295  13.174   3.346
30121W        W 2381  35.950  35.382  14.352
30122W        W 2382  36.042  33.434  14.988
30123W        W 2383  16.126  39.899  14.512
30124W        W 2384  22.234  35.991  13.795
30125W        W 2385  22.578   4.217  10.962
30126W        W 2386  32.929  28.679  12.540
30127W        W 2387  18.662   7.254  10.453
30128W        W 2388  21.562  10.163  11.066
30129W        W 2389  10.731   5.313   0.252
30130W        W 2390  15.735   9.164   0.269
30131W        W 2391  16.308  24.669  13.383
30132W        W 2392  41.820  43.515  11.518
30133W        W 2393   2.906   1.735  11.014
30134W        W 2394   3.727  10.290   0.730
30135W        W 2395  19.638  10.662  13.460
30136W        W 2396   6.717  16.686  12.856
30137W        W 2397  10.813  23.619   0.880
30138W        W 2398   4.718   5.868  10.552
30139W        W 2399   6.908  36.417  10.492
30140W        W 2400  33.066   2.781   2.334
30141W        W 2401  13.167   2.436  12.948
30142W        W 2402  34.409   8.350  12.443
30143W        W 2403  16.235  14.678  11.997
30144W        W 2404  17.300  21.511  12.846
30145W        W 2405  21.678  20.186   4.611
30146W        W 2406  37.375   7.683   0.296
30147W        W 2407  30.459  14.232  14.434
30148W        W 2408  33.438  15.124   2.364
30149W        W 2409  26.639  41.382   0.335
30150W        W 2410   7.799  22.214   2.797
30151W        W 2411  11.213  30.095   3.324
30152W        W 2412   7.806  19.621  14.299
30153W        W 2413  19.733  31.530   1.708
30154W        W 2414  40.814   3.861  10.489
30155W        W 2415  21.636  11.815  12.854
30156W        W 2416   0.753  17.584  12.923
30157W        W 2417  41.915  27.537  11.378
30158W        W 2418  31.602   3.769  14.509
30159W        W 2419  22.515  15.215   0.337
30160W        W 2420  19.583  13.267  14.305
30161W        W 2421  40.996  25.603   4.320
30162W        W 2422   2.444  14.743   4.145
30163W        W 2423  20.224  39.912  11.897
30164W        W 2424   5.337  18.701   3.688
30165W        W 2425  17.756  20.208   1.819
30166W        W 2426  37.906  14.280  14.982
30167W        W 2427   4.889  29.923   4.293
30168W        W 2428  29.438  26.978  14.349
30169W        W 2429  10.329  10.174  12.946
30170W        W 2430   0.373  22.522   3.230
30171W        W 2431   1.281  28.981   3.191
30172W        W 2432  15.292  29.130   5.133
30173W        W 2433  43.269  11.706   2.374
30174W        W 2434  16.581   0.987   4.652
30175W        W 2435  23.205  40.912   2.208
30176W        W 2436  41.995  39.815   4.164
30177W        W 2437  42.385  40.982  13.337
30178W        W 2438  31.509  10.173  10.920
30179W        W 2439  40.893   7.881   3.246
30180W        W 2440   7.402  12.792   3.146
30181W        W 2441  33.412  15.675  12.050
30182W        W 2442  23.179  21.038   2.301
30183W        W 2443  12.137  37.018   2.254
30184W        W 2444  40.462   7.786   4.302
30185W        W 2445  15.816   8.395   2.290
30186W        W 2446  31.406   7.329   4.658
30187W        W 2447  22.127  18.099  13.922
30188W        W 2448  43.516  22.711   1.814
30189W        W 2449  39.380  37.362   3.352
30190W        W 2450   5.291  38.024  11.525
30191W        W 2451  16.140   2.948  14.456
30192W        W 2452   5.780  27.573  12.999
30193W        W 2453   4.289  25.640   1.917
30194W        W 2454  36.994   8.666  14.760
30195W        W 2455  30.063  24.029  10.405
30196W        W 2456  30.615   4.283   1.306
30197W        W 2457   7.391   5.795  13.515
30198W        W 2458  21.722  39.928   3.755
30199W        W 2459  10.365  27.621   1.812
30200W        W 2460  15.727  39.400   3.694
30201W        W 2461  13.682  13.133  13.948
30202W        W 2462  40.549   0.291   0.954
30203W        W 2463  42.346  15.614  10.538
30204W        W 2464  31.137  39.865  11.436
30205W        W 2465  43.406  24.495  14.839
30206W        W 2466  23.497  41.517   0.457
30207W        W 2467  43.468  29.110  14.365
30208W        W 2468  34.372   9.884   2.686
30209W        W 2469  19.673  10.704  12.939
30210W        W 2470  18.258  19.773  12.372
30211W        W 2471  32.469  33.521   3.674
30212W        W 2472  39.405  10.640  13.389
30213W        W 2473   6.358  31.927  11.507
30214W        W 2474   2.230  32.451  11.469
30215W        W 2475   5.403  17.194   0.476
30216W        W 2476  13.126  39.526   3.682
30217W        W 2477  42.410  17.297  13.451
30218W        W 2478  41.413   8.188  13.325
30219W        W 2479  22.609  29.518  12.831
30220W        W 2480  32.049  31.936  11.529
30221W        W 2481  13.302   1.924  10.081
30222W        W 2482  43.786  33.622  11.401
30223W        W 2483  36.043  23.600  11.478
30224W        W 2484  33.603  44.942  12.342
30225W        W 2485  29.491  25.574  11.045
30226W        W 2486  27.167  22.135  12.916
30227W        W 2487  28.444  29.455  12.346
30228W        W 2488  33.917  34.058   3.746
30229W        W 2489   2.845   9.695  12.875
30230W        W 2490  10.778  20.055  13.421
30231W        W 2491  39.345  35.073   1.381
30232W        W 2492  44.831  40.978   1.876
30233W        W 2493  43.798  11.212  13.006
30234W        W 2494  34.059   4.714   3.285
30235W        W 2495  31.644  37.505  13.981
30236W        W 2496  33.046   9.189  12.976
30237W        W 2497  16.316  10.788   0.960
30238W        W 2498  39.052  34.581   0.750
30239W        W 2499  34.919  39.374   4.651
30240W        W 2500  28.579  42.837   3.336
30241W        W 2501  30.969  17.796   3.708
30242W        W 2502  13.186  34.494   4.731
30243W        W 2503  11.303  42.808   1.284
30244W        W 2504  41.034  37.834  12.914
30245W        W 2505   9.183  36.905  12.898
30246W        W 2506  37.548  27.011  14.356
30247W        W 2507  32.048   5.355  12.441
30248W        W 2508  10.156   4.300   1.716
30249W        W 2509  35.900   3.722   3.246
30250W        W 2510   6.700  16.196  11.879
30251W        W 2511  40.482  44.348   5.170
30252W        W 2512  37.955  19.687   0.475
30253W        W 2513  41.008  39.339  12.458
30254W        W 2514  30.609  25.610  11.121
30255W        W 2515  44.790  23.728  13.512
30256W        W 2516  43.011  16.691  14.326
30257W        W 2517  37.017  31.614   0.885
30258W        W 2518  39.520   1.891  14.497
30259W        W 2519  41.487  12.764  11.579
30260W        W 2520  36.576  40.368  12.899
30261W        W 2521  24.995  17.077   4.329
30262W        W 2522  37.354  21.608   4.738
30263W        W 2523   9.699  21.634   1.443
30264W        W 2524  13.738  14.106   3.154
30265W        W 2525  43.511  40.319   4.351
30266W        W 2526   3.905  30.131  11.464
30267W        W 2527  14.175  13.148  14.468
30268W        W 2528  41.483   9.743   1.287
30269W        W 2529  14.119   9.219  13.911
30270W        W 2530   5.385  12.764   5.285
30271W        W 2531   8.184  10.678   2.868
30272W        W 2532  25.490  36.073  12.446
30273W        W 2533  36.976  40.976   4.342
30274W        W 2534  15.726  42.889   3.369
30275W        W 2535  30.940  24.586   0.326
30276W        W 2536  39.014  21.198  11.049
30277W        W 2537  29.047  43.289   0.293
30278W        W 2538   5.369  18.576  14.966
30279W        W 2539   5.412   1.337  12.054
30280W        W 2540   3.752  39.987   4.343
30281W        W 2541  36.526  36.430   0.817
30282W        W 2542  37.894  43.805  12.965
30283W        W 2543  43.960  14.799  14.013
30284W        W 2544   2.374  31.565   3.758
30285W        W 2545  23.491  38.527   4.690
30286W        W 2546  30.102  35.082   3.183
30287W        W 2547  10.376  34.917   1.712
30288W        W 2548  43.350  32.563  10.433
30289W        W 2549   0.438  40.418  12.027
30290W        W 2550  30.111  23.205   1.861
30291W        W 2551  24.106  22.612   2.698
30292W        W 2552   4.411  21.177  12.365
30293W        W 2553   6.307   6.312  10.612
30294W        W 2554  33.049  36.499   0.266
30295W        W 2555  14.240  10.355   3.726
30296W        W 2556  27.649  22.540  10.552
30297W        W 2557  12.826  33.908   4.836
30298W        W 2558  29.973   4.805   0.909
30299W        W 2559  34.396  43.429  13.995
30300W        W 2560  21.222  28.980   4.607
30301W        W 2561  41.357  15.698  12.566
30302W        W 2562  37.986  30.910  10.948
30303W        W 2563  22.715  34.959  14.276
30304W        W 2564  25.113  30.917   2.280
30305W        W 2565  21.169  11.338   1.754
30306W        W 2566  36.957  37.909  12.533
30307W        W 2567  16.642  32.604  12.350
30308W        W 2568   2.232  39.455   3.238
30309W        W 2569  27.015  16.115  13.957
30310W        W 2570  27.559  16.074  13.345
30311W        W 2571  39.876  34.888   2.761
30312W        W 2572   1.482  14.773   4.216
30313W        W 2573  26.532  24.513  14.334
30314W        W 2574  39.349  29.430  14.797
30315W        W 2575  17.606  34.516   0.308
30316W        W 2576  20.099  28.652  14.009
30317W        W 2577  22.723  28.136  12.459
30318W        W 2578   7.896  34.902   2.400
30319W        W 2579  22.501  10.242  10.908
30320W        W 2580  36.984  24.227   3.149
30321W        W 2581   3.744   2.391  10.614
30322W        W 2582   3.750  10.329  13.377
30323W        W 2583  27.153  13.203  13.820
30324W        W 2584  13.620  19.650  14.364
30325W        W 2585   7.411  30.992  12.560
30326W        W 2586  24.591   3.835  11.475
30327W        W 2587  30.621   1.838  12.940
30328W        W 2588   2.961  23.139  12.580
30329W        W 2589  25.672  25.120  14.368
30330W        W 2590   1.289  34.559  14.285
30331W        W 2591  44.306  44.001  14.290
30332W        W 2592  25.632  30.569   0.963
30333W        W 2593  37.516  40.818   0.744
30334W        W 2594   6.285  14.188  13.522
30335W        W 2595  22.252  34.919  12.081
30336W        W 2596  22.744  16.808   1.914
30337W        W 2597  13.205  40.371  13.878
30338W        W 2598   0.983  40.048   1.420
30339W        W 2599   0.341  36.350   4.747
30340W        W 2600  15.270  43.775   0.783
30341W        W 2601  25.601   4.275  12.939
30342W        W 2602  37.460   3.216  13.848
30343W        W 2603  11.311   7.846   0.920
30344W        W 2604  36.850   2.319  10.576
30345W        W 2605  27.557  32.428  10.152
30346W        W 2606  26.470  34.390  12.399
30347W        W 2607   4.846  12.341  14.476
30348W        W 2608  20.205  18.173   2.302
30349W        W 2609  17.727  28.953  10.552
30350W        W 2610  36.934  11.179  14.417
30351W        W 2611   7.788   4.284   3.255
30352W        W 2612  38.058   8.318   4.173
30353W        W 2613  23.195   2.297  14.449
30354W        W 2614  12.181  24.668   0.912
30355W        W 2615   8.187   8.854  10.450
30356W        W 2616   4.308  20.754  13.460
30357W        W 2617  43.938   2.795   4.633
30358W        W 2618  17.225  40.892   1.836
30359W        W 2619   4.897  36.925   1.823
30360W        W 2620   6.391   0.283  10.623
30361W        W 2621   9.324  34.439   1.226
30362W        W 2622  32.064   3.252   0.266
30363W        W 2623  39.354  10.698   0.279
30364W        W 2624  35.381  11.686  14.305
30365W        W 2625  41.479   1.239  14.769
30366W        W 2626   0.782  34.576   3.274
30367W        W 2627   5.866  25.092   9.924
30368W        W 2628  15.581  39.945  12.872
30369W        W 2629   7.850   6.423   0.291
30370W        W 2630  28.049   2.835  14.489
30371W        W 2631  19.116  39.854   3.631
30372W        W 2632  41.875  13.262  13.978
30373W        W 2633  31.562  27.690   2.223
30374W        W 2634  30.913  36.586  13.489
30375W        W 2635  13.343  18.180   9.934
30376W        W 2636  40.896  37.052  14.768
30377W        W 2637   8.258  26.087  10.598
30378W        W 2638  13.292   2.913  10.531
30379W        W 2639  16.242   5.323  12.012
30380W        W 2640  29.119  34.034   3.792
30381W        W 2641   7.379  22.545   1.772
30382W        W 2642  27.149  18.743  13.422
30383W        W 2643  43.462  23.491   2.414
30384W        W 2644  25.192  27.107  14.460
30385W        W 2645  10.163  24.514  10.586
30386W        W 2646   2.228  25.153  13.812
30387W        W 2647   4.744  42.448  13.052
30388W        W 2648   0.469   7.784   1.397
30389W        W 2649  35.521  13.753   3.341
30390W        W 2650   6.285  11.184  13.444
30391W        W 2651  30.101  40.820   2.690
30392W        W 2652   1.751   5.389  10.917
30393W        W 2653   7.803   8.251  11.597
30394W        W 2654   3.940  33.566   0.461
30395W        W 2655  12.659  44.003  12.999
30396W        W 2656   6.901  42.886   0.468
30397W        W 2657  41.508  28.971   3.268
30398W        W 2658  14.270  27.616   1.897
30399W        W 2659   0.926  25.061   2.805
30400W        W 2660   4.415  21.169  14.306
30401W        W 2661   3.893  28.444  11.101
30402W        W 2662   0.436  17.231   2.397
30403W        W 2663  37.351  13.785   4.163
30404W        W 2664  42.455  43.275   0.313
30405W        W 2665  26.664   1.416   1.214
30406W        W 2666  33.510  24.145  10.469
30407W        W 2667  15.711   2.961  10.582
30408W        W 2668  37.571   9.761  13.481
30409W        W 2669  28.948   2.263  12.360
30410W        W 2670  41.877  32.010   0.458
30411W        W 2671   3.271  34.920  10.524
30412W        W 2672  41.482  23.130  13.543
30413W        W 2673  30.152  41.888   0.942
30414W        W 2674  29.947  24.047   0.412
30415W        W 2675  24.064  14.332   4.744
30416W        W 2676  43.973  27.642   0.446
30417W        W 2677   6.857  27.587  11.371
30418W        W 2678  26.998  28.448   2.687
30419W        W 2679  40.330  30.596   3.251
30420W        W 2680  34.023  18.177   3.166
30421W        W 2681  41.499  30.505  10.631
30422W        W 2682  44.344   7.378  13.388
30423W        W 2683  19.700   5.836  14.900
30424W        W 2684  35.565  23.192   4.185
30425W        W 2685  35.595   8.822   4.706
30426W        W 2686   3.352   8.309   3.340
30427W        W 2687  32.894  41.017  12.432
30428W        W 2688   8.163   7.721   4.344
30429W        W 2689  18.688  40.412  12.846
30430W        W 2690  35.552   6.383   4.599
30431W        W 2691   3.866  20.225  11.519
30432W        W 2692  44.963  39.439  11.057
30433W        W 2693  27.648  20.061   0.813
30434W        W 2694   0.926   3.246   4.614
30435W        W 2695   8.686  33.579  10.593
30436W        W 2696  18.166  30.631  12.895
30437W        W 2697  11.663  23.578   0.908
30438W        W 2698  17.235  28.124   2.824
30439W        W 2699  30.066   1.334   1.836
30440W        W 2700  43.989   1.758   1.884
30441W        W 2701  16.617  39.003   2.236
30442W        W 2702  33.032  36.464   3.648
30443W        W 2703   3.847  27.113  11.563
30444W        W 2704  40.475  32.537  14.295
30445W        W 2705  43.328   0.291   0.287
30446W        W 2706   3.824  13.816   3.654
30447W        W 2707  27.557  11.842  14.501
30448W        W 2708  29.098  39.878   3.789
30449W        W 2709  16.297  15.258  14.993
30450W        W 2710  29.433   4.927  11.020
30451W        W 2711   4.446  31.056  11.543
30452W        W 2712  24.019   8.211  12.527
30453W        W 2713  13.693   8.247   1.775
30454W        W 2714  28.096  14.723  13.035
30455W        W 2715  12.766  35.073   3.693
30456W        W 2716  37.014  29.074   0.334
30457W        W 2717  34.557  24.172   3.199
30458W        W 2718  31.924   1.794   9.960
30459W        W 2719   9.314   4.774  13.531
30460W        W 2720  31.036  35.103   3.315
30461W        W 2721  30.604   6.918  13.003
30462W        W 2722  32.134   3.299   3.360
30463W        W 2723  15.757  44.968  12.878
30464W        W 2724  32.029   5.290  11.425
30465W        W 2725  38.878  43.488   2.719
30466W        W 2726   1.844  10.692   2.739
30467W        W 2727   8.170  12.629  12.863
30468W        W 2728  14.183   4.291   2.381
30469W        W 2729  24.691  34.430  10.579
30470W        W 2730  35.909  10.243  13.461
30471W        W 2731  41.393  37.977  14.443
30472W        W 2732   5.369   4.210   0.277
30473W        W 2733  27.143  44.940   1.817
30474W        W 2734  32.501  40.462   4.765
30475W        W 2735  34.926  16.665   2.277
30476W        W 2736  29.963  13.764  10.485
30477W        W 2737   6.225  10.215  14.425
30478W        W 2738   7.810  12.140   2.233
30479W        W 2739  17.614  20.608  11.452
30480W        W 2740  19.742  33.105   4.131
30481W        W 2741  42.458  35.528  13.522
30482W        W 2742  16.767  43.484   2.692
30483W        W 2743  16.247   3.926   3.654
30484W        W 2744  39.462  14.335  11.978
30485W        W 2745  10.146  10.239   4.227
30486W        W 2746   3.822   1.976   0.928
30487W        W 2747   5.860  12.328  14.857
30488W        W 2748  18.251  24.604   3.724
30489W        W 2749  15.268  24.690   4.621
30490W        W 2750  41.494  41.362   1.390
30491W        W 2751  13.303  43.335   3.712
30492W        W 2752  31.935  30.616   1.908
30493W        W 2753  36.521   1.889  13.895
30494W        W 2754  12.853   7.232   2.257
30495W        W 2755  28.062  21.646  10.537
30496W        W 2756  16.781  23.118  14.847
30497W        W 2757   0.777  30.539   3.348
30498W        W 2758  41.982   2.226  13.863
30499W        W 2759  44.498  21.683  10.448
30500W        W 2760  42.922   8.792   2.800
30501W        W 2761   9.864  40.052  14.437
30502W        W 2762  21.258  28.183  10.477
30503W        W 2763  14.276  11.266  11.952
30504W        W 2764   7.382   9.749   3.206
30505W        W 2765  30.087  39.955  13.361
30506W        W 2766   4.277  29.023  14.411
30507W        W 2767  24.176   6.681   1.431
30508W        W 2768  40.014   1.958   4.153
30509W        W 2769   0.480  13.740  11.019
30510W        W 2770  30.597  20.085  10.429
30511W        W 2771   1.847  30.618  14.983
30512W        W 2772  43.327  37.000  12.869
30513W        W 2773  38.324  29.002  10.410
30514W        W 2774  29.578  30.117  14.778
30515W        W 2775  35.363   1.306  12.080
30516W        W 2776  22.698  31.648   1.227
30517W        W 2777  33.581  37.365  13.447
30518W        W 2778   1.858  44.276  13.912
30519W        W 2779  27.689   1.967  10.632
30520W        W 2780   3.340  14.252  11.039
30521W        W 2781   9.670   3.239   0.353
30522W        W 2782  20.181  22.031   3.656
30523W        W 2783  18.687  25.997  13.839
30524W        W 2784   8.674  42.428   4.282
30525W        W 2785  25.663  31.107   1.429
30526W        W 2786   4.440  23.078  10.527
30527W        W 2787  34.006  40.840   2.879
30528W        W 2788  36.577  26.968   4.246
30529W        W 2789  14.697  38.861  14.317
30530W        W 2790  13.117  12.279  14.401
30531W        W 2791  23.087  28.045  10.464
30532W        W 2792   8.794  25.098  12.067
30533W        W 2793   3.855  28.947   1.711
30534W        W 2794   6.767  19.679   4.681
30535W        W 2795  38.034  32.623   0.442
30536W        W 2796  14.589  16.153  11.591
30537W        W 2797  44.945   4.709   2.766
30538W        W 2798   1.759  44.461  11.530
30539W        W 2799  12.685  22.101   1.850
30540W        W 2800  14.745  15.107  13.392
30541W        W 2801  44.347   0.767  14.967
30542W        W 2802  41.447  27.485   4.136
30543W        W 2803   4.782  35.487   4.758
30544W        W 2804  29.006  40.374  13.945
30545W        W 2805  11.307  23.593   3.189
30546W        W 2806  17.146  25.067   5.089
30547W        W 2807  20.173   1.388  11.908
30548W        W 2808  30.038  33.908  10.479
30549W        W 2809  39.392  21.642   3.638
30550W        W 2810  20.548  12.228   0.302
30551W        W 2811  30.012   4.847  14.824
30552W        W 2812  23.072  21.185  13.465
30553W        W 2813  19.098  26.615  11.611
30554W        W 2814   5.763   9.187  12.835
30555W        W 2815  20.157  26.703   4.759
30556W        W 2816   0.888  30.086   0.407
30557W        W 2817   0.316  37.876  11.503
30558W        W 2818  29.452   0.486   4.249
30559W        W 2819  24.676  16.607   1.247
30560W        W 2820  39.962  43.381  11.881
30561W        W 2821  28.669  17.588  10.514
30562W        W 2822  10.853  22.580  14.762
30563W        W 2823  44.832  26.965   4.773
30564W        W 2824   9.334  32.955   1.448
30565W        W 2825   2.365  37.406  13.394
30566W        W 2826  11.672  14.633   0.462
30567W        W 2827   6.250  39.431  12.939
30568W        W 2828  34.994  43.490   3.325
30569W        W 2829   0.282  44.488   1.226
30570W        W 2830   1.468  32.626   0.444
30571W        W 2831   0.457  37.505  14.332
30572W        W 2832  43.939  22.553   0.383
30573W        W 2833  38.378  35.407   3.354
30574W        W 2834  18.554  29.494   1.400
30575W        W 2835  26.127  42.856   3.701
30576W        W 2836  26.968  16.194  14.467
30577W        W 2837  39.484  18.194   2.286
30578W        W 2838  29.074  23.157   2.206
30579W        W 2839  32.064   9.767  10.014
30580W        W 2840  10.219  24.640  14.345
30581W        W 2841  17.182   7.755   3.712
30582W        W 2842  37.017   2.768   1.777
30583W        W 2843   3.371  14.260   1.864
30584W        W 2844  10.800   8.899  12.982
30585W        W 2845   3.938  14.124  14.326
30586W        W 2846  21.159   2.958  11.065
30587W        W 2847  39.841   0.381  11.022
30588W        W 2848  42.948  13.321   3.642
30589W        W 2849  44.267  16.204  14.789
30590W        W 2850  25.016  30.157  10.502
30591W        W 2851  24.539   0.415   1.414
30592W        W 2852  31.612  43.828   4.597
30593W        W 2853  25.687  18.647   3.766
30594W        W 2854  23.014  42.855   3.631
30595W        W 2855  13.312  17.767   0.453
30596W        W 2856   9.271  30.436  13.924
30597W        W 2857   5.284  36.044  12.481
30598W        W 2858  19.753   1.824  12.993
30599W        W 2859  32.970   7.219   2.705
30600W        W 2860  36.534  25.086  12.483
30601W        W 2861  27.174  12.259   4.811
30602W        W 2862  12.209  26.474   0.358
30603W        W 2863  18.651  10.762   4.239
30604W        W 2864   0.846  34.531  13.409
30605W        W 2865  38.460   9.671  10.050
30606W        W 2866  40.416  40.450  11.071
30607W        W 2867  42.869  29.053  13.471
30608W        W 2868   3.773  44.368  14.762
30609W        W 2869  19.175   9.342   1.280
30610W        W 2870  20.052  38.030   2.260
30611W        W 2871  29.522  40.490   1.387
30612W        W 2872  10.871  35.091   2.345
30613W        W 2873  31.944  21.143  13.532
30614W        W 2874  33.028  40.923  13.503
30615W        W 2875   6.279  16.189   2.683
30616W        W 2876   2.899  17.302  14.863
30617W        W 2877  17.663  18.285   4.625
30618W        W 2878  36.450   8.305   2.749
30619W        W 2879  31.058   1.881  14.330
30620W        W 2880  24.059   1.759   3.656
30621W        W 2881  23.719   9.369  12.447
30622W        W 2882  44.326  27.627   3.771
30623W        W 2883  32.065   5.723   4.317
30624W        W 2884  13.741   2.317  13.796
30625W        W 2885  14.770  37.070  12.924
30626W        W 2886  44.797  31.942  12.870
30627W        W 2887  34.541  16.117   4.247
30628W        W 2888   8.844  15.317  13.798
30629W        W 2889  34.612  12.245  14.023
30630W        W 2890   4.316  38.397  14.301
30631W        W 2891   7.674  18.684   2.376
30632W        W 2892  15.253   8.324  14.858
30633W        W 2893  28.494  42.300   0.468
30634W        W 2894  37.011  17.085  11.008
30635W        W 2895  16.668  27.111  14.290
30636W        W 2896  28.978  40.352   4.832
30637W        W 2897  20.134  11.366  12.391
30638W        W 2898  39.314  25.484   0.855
30639W        W 2899  37.982  28.958   4.297
30640W        W 2900   6.909  24.678   0.401
30641W        W 2901  27.114  10.812  11.499
30642W        W 2902  38.923  40.834   4.658
30643W        W 2903   0.759   3.868  11.064
30644W        W 2904  19.259   6.712  12.484
30645W        W 2905  32.885  27.966   4.186
30646W        W 2906  19.767   5.347  10.429
30647W        W 2907   8.338  33.380   2.225
30648W        W 2908   8.858  33.125  12.391
30649W        W 2909   0.973  23.016  13.965
30650W        W 2910  20.178  20.079   1.412
30651W        W 2911  11.224  15.782  11.949
30652W        W 2912  14.196  30.497  12.421
30653W        W 2913  42.421   6.758   2.826
30654W        W 2914  35.455  43.502   0.383
30655W        W 2915  25.608  20.558  12.004
30656W        W 2916  43.010  24.612   0.862
30657W        W 2917  35.070  40.872  13.801
30658W        W 2918  23.062   3.336  14.896
30659W        W 2919  38.879  38.907   1.434
30660W        W 2920  26.499  26.117  12.568
30661W        W 2921  39.360  44.318   0.430
30662W        W 2922  38.896  29.161  12.507
30663W        W 2923  29.469  42.372   2.215
30664W        W 2924  33.988   1.260  13.807
30665W        W 2925  38.896  25.217  13.948
30666W        W 2926   5.195  13.240   3.206
30667W        W 2927  27.473  24.090  11.046
30668W        W 2928  41.406  18.783   1.448
30669W        W 2929  28.653  15.708   2.796
30670W        W 2930  31.577  40.995   4.288
30671W        W 2931  44.757  28.586  13.480
30672W        W 2932  17.666  22.679  10.418
30673W        W 2933  28.940   6.308  10.443
30674W        W 2934  41.824  20.228   1.288
30675W        W 2935  42.505  23.635  14.022
30676W        W 2936   8.242  22.599   3.326
30677W        W 2937  13.599  34.081   3.735
30678W        W 2938  43.905  19.172  12.379
30679W        W 2939  33.607  36.425   0.733
30680W        W 2940  26.044  22.623  11.991
30681W        W 2941  43.783  29.154   1.837
30682W        W 2942  13.294   6.861  13.369
30683W        W 2943  38.389   6.789  11.038
30684W        W 2944  25.657  13.328   4.616
30685W        W 2945  43.381  13.228   2.325
30686W        W 2946  29.531  33.444  14.910
30687W        W 2947   2.745  18.712  14.385
30688W        W 2948  12.704  32.065  12.929
30689W        W 2949  21.532  13.618   3.825
30690W        W 2950  17.187   6.297   2.409
30691W        W 2951  13.299   7.737  14.351
30692W        W 2952  39.056  15.621   2.221
30693W        W 2953  32.920   1.420  10.500
30694W        W 2954  23.685  34.435   2.898
30695W        W 2955  40.503   1.354   3.171
30696W        W 2956  23.162   3.954  11.490
30697W        W 2957   7.247   4.793   0.442
30698W        W 2958  20.603  29.921   3.722
30699W        W 2959   1.816   6.850   4.341
30700W        W 2960   3.287   3.231  13.003
30701W        W 2961  39.016  34.983   3.356
30702W        W 2962  41.996  34.553   3.827
30703W        W 2963  29.458  31.616  12.514
30704W        W 2964   1.967  38.461   4.134
30705W        W 2965   1.924  31.011  13.339
30706W        W 2966  12.229  37.550   5.185
30707W        W 2967  44.364  30.009   9.990
30708W        W 2968  43.940  37.078   4.155
30709W        W 2969   7.370  14.213   2.280
30710W        W 2970   5.386   8.806   4.121
30711W        W 2971  21.040  13.702  13.053
30712W        W 2972  32.066  28.665   3.728
30713W        W 2973  38.564  17.072   3.840
30714W        W 2974  10.868  44.404   2.202
30715W        W 2975  13.700   1.972   3.374
30716W        W 2976  14.608  28.539  11.405
30717W        W 2977  28.098  17.632  14.989
30718W        W 2978   1.441   6.886  11.023
30719W        W 2979  25.060  38.039  13.829
30720W        W 2980  27.536  32.023  13.545
30721W        W 2981  26.191  27.024   2.777
30722W        W 2982   8.308  39.958   0.246
30723W        W 2983   6.865  29.979  12.959
30724W        W 2984  10.159  31.100  10.594
30725W        W 2985  15.328  12.636  14.782
30726W        W 2986   6.903  25.586   0.460
30727W        W 2987  43.461  33.900   2.296
30728W        W 2988  40.882  28.015  11.475
30729W        W 2989  30.413  28.089   0.354
30730W        W 2990  19.546   6.195  12.460
30731W        W 2991  22.220  12.185  13.816
30732W        W 2992  11.147  17.788  12.477
30733W        W 2993  15.610  11.760  13.028
30734W        W 2994  22.087  15.302  11.126
30735W        W 2995  14.663  17.087   3.809
30736W        W 2996  19.678   2.844  13.372
30737W        W 2997  37.037  42.863  12.368
30738W        W 2998   7.396  35.031  12.564
30739W        W 2999  35.912  34.997   2.838
30740W        W 3000  40.342  27.976   2.814
30741W        W 3001   3.907  33.903   1.914
30742W        W 3002  27.074  43.271  14.848
30743W        W 3003  26.516  16.751  13.916
30744W        W 3004  17.236  10.809  12.508
30745W        W 3005  20.711  22.237  10.430
30746W        W 3006   4.388   6.209   3.796
30747W        W 3007  27.946  23.048   1.715
30748W        W 3008  25.692  19.560   0.800
30749W        W 3009  40.828  25.078  14.490
30750W        W 3010   2.846  41.843  12.519
30751W        W 3011  19.166  44.877   1.320
30752W        W 3012   3.449  28.184  11.384
30753W        W 3013  26.560  17.174   4.213
30754W        W 3014  41.523  13.844  10.457
30755W        W 3015   9.661  39.004   3.222
30756W        W 3016  11.777   8.391  12.875
30757W        W 3017  31.130  17.209   3.301
30758W        W 3018  30.551  43.871   2.416
30759W        W 3019  38.476  16.724  11.865
30760W        W 3020   4.417  31.477   2.732
30761W        W 3021   4.855  44.411  10.989
30762W        W 3022  44.957   2.332   2.847
30763W        W 3023  32.404  13.792  12.537
30764W        W 3024  44.387  41.813  12.545
30765W        W 3025   6.250  33.068  10.907
30766W        W 3026  35.560  25.145   1.724
30767W        W 3027  39.833  34.447  13.025
30768W        W 3028  41.390  14.286   2.212
30769W        W 3029  30.549  32.406  10.574
30770W        W 3030   4.909  15.289   4.148
30771W        W 3031  29.057  38.538  11.856
30772W        W 3032  22.604  22.010  12.549
30773W        W 3033   4.844  10.378  12.366
30774W        W 3034  32.015   9.854  11.048
30775W        W 3035  43.823  14.665  14.299
30776W        W 3036   7.415  30.963   0.843
30777W        W 3037  11.622   5.267  14.018
30778W        W 3038  32.891  43.883   3.301
30779W        W 3039  25.474   7.810   3.303
30780W        W 3040  28.497  10.749  13.817
30781W        W 3041  32.426  38.881   3.194
30782W        W 3042   0.924  12.804   1.265
30783W        W 3043  23.019   7.377   3.845
30784W        W 3044   0.455  23.516  11.604
30785W        W 3045  17.256  35.965   4.603
30786W        W 3046  21.199   1.295  11.013
30787W        W 3047  24.059  24.487   2.284
30788W        W 3048  35.887  41.342  13.472
30789W        W 3049   9.373  14.758   3.744
30790W        W 3050  27.557  36.559   2.304
30791W        W 3051  41.803  15.290   1.828
30792W        W 3052   2.910  22.145  12.004
30793W        W 3053  31.508  44.001  11.091
30794W        W 3054   5.243  12.663  13.484
30795W        W 3055  30.145  38.447  13.848
30796W        W 3056  15.083  33.944   4.697
30797W        W 3057  15.676  31.545   1.289
30798W        W 3058  32.930  28.122  14.503
30799W        W 3059   7.285   7.232  14.510
30800W        W 3060  41.353  35.590  11.438
30801W        W 3061  19.556  25.128  11.923
30802W        W 3062  18.776   6.868   4.719
30803W        W 3063  26.078  41.477   4.168
30804W        W 3064  34.047  14.750   2.675
30805W        W 3065   0.932   6.850  11.396
30806W        W 3066  17.696  40.349   2.347
30807W        W 3067  11.709   6.704  10.586
30808W        W 3068  40.014  29.434   0.257
30809W        W 3069  16.595  23.641  13.430
30810W        W 3070  26.065  35.521  14.352
30811W        W 3071  30.088  37.937   3.307
30812W        W 3072  26.501  40.464   4.694
30813W        W 3073  33.046  30.576  11.487
30814W        W 3074  38.074  44.436   2.192
30815W        W 3075  16.289  19.572  12.824
30816W        W 3076   1.863  20.109   2.786
30817W        W 3077  21.611  43.379  12.914
30818W        W 3078   9.342  28.047   1.430
30819W        W 3079   9.738  36.924  14.997
30820W        W 3080  12.660  28.446   3.239
30821W        W 3081  25.680  23.651  11.600
30822W        W 3082   9.393  23.004  11.055
30823W        W 3083  12.775  32.631   1.808
30824W        W 3084  35.967  23.559   1.777
30825W        W 3085  33.526   3.942  12.861
30826W        W 3086  27.096  41.389   4.641
30827W        W 3087  17.686  40.324  13.989
30828W        W 3088  43.332  22.173   1.773
30829W        W 3089   6.866  35.057  10.985
30830W        W 3090  24.083   4.238   4.805
30831W        W 3091   2.835  31.473   1.875
30832W        W 3092   8.681  11.834   3.812
30833W        W 3093  19.763  43.842  14.462
30834W        W 3094  17.147  39.035   0.430
30835W        W 3095  17.702   2.301   3.254
30836W        W 3096  21.085  38.971   2.238
30837W        W 3097  37.978  32.930   4.213
30838W        W 3098  23.695  14.745   4.212
30839W        W 3099  29.568  29.157   5.266
30840W        W 3100  44.790  29.496   1.301
30841W        W 3101  12.800   7.762   1.277
30842W        W 3102  17.686  42.471  13.353
30843W        W 3103  43.770   3.771  13.430
30844W        W 3104  11.861  20.680  14.786
30845W        W 3105   1.948  37.937   0.822
30846W        W 3106  38.921  28.575   2.263
30847W        W 3107  33.601   4.877   1.896
30848W        W 3108   1.914  36.903  10.457
30849W        W 3109  35.583  10.842  14.865
30850W        W 3110  29.031  42.914  11.100
30851W        W 3111  27.060  32.974   2.726
30852W        W 3112   6.184  37.043   3.160
30853W        W 3113  36.084   1.366   4.683
30854W        W 3114  25.532   0.433  12.548
30855W        W 3115   3.254   6.859   0.765
30856W        W 3116  23.656  18.248  14.931
30857W        W 3117  30.992  26.095  13.436
30858W        W 3118  13.705   5.341   1.365
30859W        W 3119  39.467  36.081  13.454
30860W        W 3120  22.207   4.439  14.385
30861W        W 3121  39.416   6.348   3.669
30862W        W 3122   6.860  34.556   3.744
30863W        W 3123  10.654  19.542   2.765
30864W        W 3124  40.911   0.862  12.477
30865W        W 3125   6.206  37.032  12.401
30866W        W 3126  29.514  41.986  12.858
30867W        W 3127   4.709  15.813   2.708
30868W        W 3128   6.750  20.066  12.949
30869W        W 3129  27.487  10.289   2.242
30870W        W 3130  14.285  31.435  13.342
30871W        W 3131  14.204  39.359   3.810
30872W        W 3132   8.818  23.560  10.629
30873W        W 3133  44.468  12.168  13.898
30874W        W 3134  26.509   9.818  14.311
30875W        W 3135  38.829  12.204  11.530
30876W        W 3136  35.078  12.158  12.973
30877W        W 3137  31.609  14.791   0.746
30878W        W 3138  35.422  30.447   0.830
30879W        W 3139   8.393  27.460   1.738
30880W        W 3140   2.827  38.351  10.482
30881W        W 3141   6.381   2.434  14.362
30882W        W 3142  27.583  42.302  12.579
30883W        W 3143  33.944  35.430  13.987
30884W        W 3144   5.411   4.412  13.874
30885W        W 3145  19.074  26.140   3.329
30886W        W 3146  23.080   8.288   0.818
30887W        W 3147  37.522  12.616   3.749
30888W        W 3148   7.336  28.026  13.039
30889W        W 3149  28.932   7.210  12.341
30890W        W 3150  37.507  18.071  11.559
30891W        W 3151  30.999  16.147   4.616
30892W        W 3152   4.314   4.818   4.662
30893W        W 3153  34.936  35.051  12.551
30894W        W 3154   3.887  14.229  13.001
30895W        W 3155   6.362  40.036   4.117
30896W        W 3156  25.478  41.450   0.902
30897W        W 3157  34.065   4.791  11.099
30898W        W 3158  43.500  32.894  11.122
30899W        W 3159  11.643   6.874   4.317
30900W        W 3160  43.331  24.524  10.562
30901W        W 3161  11.673  17.126  14.429
30902W        W 3162   8.171  32.620   0.367
30903W        W 3163  39.953  41.808   0.928
30904W        W 3164  41.532  36.072  12.933
30905W        W 3165  26.103  38.914  11.113
30906W        W 3166  28.455  35.855   4.756
30907W        W 3167  19.199  38.917   3.703
30908W        W 3168  14.331  23.067  13.864
30909W        W 3169  44.316  29.131   1.383
30910W        W 3170  22.038  29.118   3.196
30911W        W 3171  12.222  34.964  10.890
30912W        W 3172  32.492   2.239  10.954
30913W        W 3173  10.284  17.178  13.951
30914W        W 3174   3.301   0.364   2.351
30915W        W 3175  29.441  30.594   3.650
30916W        W 3176  35.072  17.759  11.527
30917W        W 3177  32.006  20.080   2.735
30918W        W 3178   3.925   5.701   4.147
30919W        W 3179  25.077  14.729   4.733
30920W        W 3180  43.510  44.505   1.884
30921W        W 3181  15.610  33.097   2.878
30922W        W 3182  39.918  36.360  11.536
30923W        W 3183  26.600  28.444   0.300
30924W        W 3184  38.942  36.529  11.526
30925W        W 3185  33.104  25.501   4.350
30926W        W 3186  10.637  33.071  13.981
30927W        W 3187  34.408  29.005   1.708
30928W        W 3188  20.075   8.183  10.980
30929W        W 3189  35.933   3.386  11.545
30930W        W 3190  16.777  34.973  12.394
30931W        W 3191   9.253  27.061  12.949
30932W        W 3192  23.137  40.839  10.434
30933W        W 3193  25.663  44.474   2.738
30934W        W 3194  42.368  15.299   4.205
30935W        W 3195  28.179  26.599   0.733
30936W        W 3196  39.900  38.547  13.443
30937W        W 3197  27.011  26.006  12.549
30938W        W 3198  22.647  38.016   1.249
30939W        W 3199  14.303  22.679   3.793
30940W        W 3200   6.404  13.178  13.814
30941W        W 3201  33.058   1.357  11.016
30942W        W 3202   5.710  20.200  13.028
30943W        W 3203  25.038  34.477   4.217
30944W        W 3204  10.149  33.048   3.365
30945W        W 3205  42.426  39.537  13.373
30946W        W 3206  14.168  30.034  11.044
30947W        W 3207  23.112  17.099  13.454
30948W        W 3208  31.485  39.334  11.584
30949W        W 3209  16.163   0.960   4.287
30950W        W 3210   2.448   3.836   0.905
30951W        W 3211  43.310   5.799   1.708
30952W        W 3212  28.130  26.180  14.025
30953W        W 3213  37.863  19.679   3.362
30954W        W 3214  41.445  44.485  13.377
30955W        W 3215  11.800  36.356  13.446
30956W        W 3216  39.333  44.828   2.772
30957W        W 3217  31.115  33.974  11.515
30958W        W 3218   8.174  12.644   3.807
30959W        W 3219  19.262  32.637   3.809
30960W        W 3220  40.386  23.128   4.766
30961W        W 3221  25.967  34.068   2.284
30962W        W 3222   6.772  32.535   3.164
30963W        W 3223  43.889  10.219  14.899
30964W        W 3224  34.106  28.610  12.401
30965W        W 3225  39.951  17.189  11.055
30966W        W 3226  12.721  11.784  11.463
30967W        W 3227  36.367  16.255   0.903
30968W        W 3228   1.431  27.169   2.713
30969W        W 3229  19.672  35.934  13.045
30970W        W 3230  18.111  18.757   0.320
30971W        W 3231  14.325  10.300  11.057
30972W        W 3232  24.033   0.828   4.192
30973W        W 3233  36.942  42.963  12.003
30974W        W 3234  17.269  41.949  11.613
30975W        W 3235  30.460   0.471   2.217
30976W        W 3236  16.659  35.908   3.155
30977W        W 3237  22.565   6.306   0.297
30978W        W 3238  21.101  16.176   1.925
30979W        W 3239  15.677  30.636  13.334
30980W        W 3240  37.404   4.772  11.889
30981W        W 3241  35.903  19.146   3.831
30982W        W 3242  26.672   5.893   1.820
30983W        W 3243  21.168  22.521   3.662
30984W        W 3244  14.618  29.107   0.944
30985W        W 3245  43.361  37.480   4.275
30986W        W 3246   5.280  19.707   4.350
30987W        W 3247  31.933  36.933   3.315
30988W        W 3248   1.267  39.868  10.982
30989W        W 3249  43.283  33.528   0.314
30990W        W 3250  38.528  33.923   0.789
30991W        W 3251  20.265  17.620   0.936
30992W        W 3252   6.424  39.015   4.658
30993W        W 3253  27.482  40.979  14.867
30994W        W 3254  42.963   5.695   1.447
30995W        W 3255  32.425  37.539   0.735
30996W        W 3256  29.665  44.877  11.109
30997W        W 3257   7.342  43.834  12.954
30998W        W 3258  21.753   5.871  13.897
30999W        W 3259  44.996  15.159   3.385
31000W        W 3260  44.426  34.967   5.318
31001W        W 3261  27.449  12.279   0.753
31002W        W 3262   4.303  11.307   3.152
31003W        W 3263  17.240   0.434  10.584
31004W        W 3264  37.403   2.770  14.954
31005W        W 3265  43.270   5.763  12.447
31006W        W 3266  41.876  36.024   3.260
31007W        W 3267   4.732  24.158  11.583
31008W        W 3268  16.707  29.563  13.319
31009W        W 3269  38.002  30.567   3.759
31010W        W 3270   3.727   4.815  13.336
31011W        W 3271  18.217   5.814  14.472
31012W        W 3272   9.777  29.511   1.798
31013W        W 3273  42.476  33.034   0.367
31014W        W 3274  39.502  16.608   1.253
31015W        W 3275  14.702  41.438   3.354
31016W        W 3276   4.854  12.319   1.848
31017W        W 3277  17.169  19.615  14.293
31018W        W 3278  29.618  29.582   2.382
31019W        W 3279  23.153  31.494  13.814
31020W        W 3280  43.454  41.451  12.985
31021W        W 3281   3.268   3.337   0.384
31022W        W 3282  14.313  37.531  12.030
31023W        W 3283  27.646  41.449   1.848
31024W        W 3284   7.380  22.030   1.421
31025W        W 3285  40.468  15.134  12.926
31026W        W 3286   6.731  33.440   4.298
31027W        W 3287   7.744  42.415  14.336
31028W        W 3288  35.487  15.324  10.447
31029W        W 3289  14.294  10.677  13.957
31030W        W 3290  10.804  41.352   2.405
31031W        W 3291  23.555  12.780   1.842
31032W        W 3292  35.962  29.435   3.385
31033W        W 3293   8.866  16.714   2.323
31034W        W 3294  34.115  26.496  11.604
31035W        W 3295   3.816   7.855   2.720
31036W        W 3296   1.866  11.823   3.316
31037W        W 3297  26.574  28.064   1.721
31038W        W 3298  34.060  29.032   0.372
31039W        W 3299  35.096  28.023  13.860
31040W        W 3300   0.800   4.847  14.358
31041W        W 3301   5.354  16.285   4.744
31042W        W 3302  14.658   1.399   0.468
31043W        W 3303  34.095  40.922  14.830
31044W        W 3304   8.265  36.915  10.570
31045W        W 3305  34.032  22.658   1.794
31046W        W 3306   8.334  44.464   1.445
31047W        W 3307  16.573  12.230   1.445
31048W        W 3308  33.439  22.576  12.577
31049W        W 3309   2.461  16.156   3.373
31050W        W 3310  33.121  15.114   2.847
31051W        W 3311  31.112  15.208   0.406
31052W        W 3312   8.388  27.486   5.315
31053W        W 3313  10.672  27.975  14.460
31054W        W 3314  24.481  15.282   0.259
31055W        W 3315  21.157   2.420   4.134
31056W        W 3316  23.003  39.504  10.510
31057W        W 3317  34.061  27.171  11.041
31058W        W 3318  42.445  13.619   4.349
31059W        W 3319  19.626  26.533   1.806
31060W        W 3320  38.906  16.782   4.191
31061W        W 3321   2.266  13.751  12.574
31062W        W 3322  18.190  35.504  13.936
31063W        W 3323  36.000  40.026  14.384
31064W        W 3324  26.141  12.139   0.745
31065W        W 3325  10.244  10.166  12.465
31066W        W 3326  29.980   1.399  12.873
31067W        W 3327  26.030  16.761   0.728
31068W        W 3328  35.922  26.644   3.372
31069W        W 3329  31.016  27.615  11.404
31070W        W 3330  28.955   0.323   3.165
31071W        W 3331  29.166   8.231  13.817
31072W        W 3332  36.866   7.728   0.751
31073W        W 3333  28.509  25.492  12.357
31074W        W 3334  21.522  24.042  11.510
31075W        W 3335  31.017  34.121  11.121
31076W        W 3336  15.116  19.629  13.380
31077W        W 3337  20.246  39.859   0.857
31078W        W 3338  29.637  32.089  14.864
31079W        W 3339  18.681  17.744   1.379
31080W        W 3340  29.649  27.620   3.300
31081W        W 3341   8.880   1.803  10.600
31082W        W 3342  24.092  42.398  13.007
31083W        W 3343  38.993   9.755   2.761
31084W        W 3344   7.382  24.139   0.464
31085W        W 3345  21.695   1.928   4.165
31086W        W 3346   2.861  10.849   0.346
31087W        W 3347  13.686  18.614  11.509
31088W        W 3348  37.535   1.417  10.544
31089W        W 3349  19.135  30.968   0.754
31090W        W 3350  29.066  31.531   1.822
31091W        W 3351  29.613   6.758   1.823
31092W        W 3352   2.233   1.824  14.396
31093W        W 3353  19.721  35.951  12.389
31094W        W 3354  43.357  35.894  14.840
31095W        W 3355  44.476  37.456   2.336
31096W        W 3356  41.458  33.957  12.878
31097W        W 3357  35.564  15.772   2.902
31098W        W 3358  38.380   3.243  13.795
31099W        W 3359  21.667  14.117  14.492
31100W        W 3360   4.379  28.083   4.761
31101W        W 3361  39.336  21.056   4.695
31102W        W 3362  35.388   9.654  14.866
31103W        W 3363  14.312  36.407  10.604
31104W        W 3364   9.382  30.485   0.286
31105W        W 3365  10.139  12.629   0.380
31106W        W 3366  40.539  28.105  12.341
31107W        W 3367  23.572  26.137   4.320
31108W        W 3368  19.627  24.080   2.360
31109W        W 3369   0.399  32.621   2.855
31110W        W 3370  15.788  25.497  12.077
31111W        W 3371   1.443  35.015   0.363
31112W        W 3372  21.153  19.735  12.449
31113W        W 3373  16.679   4.353  11.067
31114W        W 3374  20.209   8.746  10.968
31115W        W 3375  26.699  33.395  12.068
31116W        W 3376  30.624  15.139  12.499
31117W        W 3377   2.248   6.419  14.793
31118W        W 3378  44.818  11.822   3.184
31119W        W 3379  24.700  38.003  13.892
31120W        W 3380  22.620   5.917  11.101
31121W        W 3381  11.275   1.833  10.568
31122W        W 3382  16.713  12.202  12.918
31123W        W 3383   6.802   6.331   3.367
31124W        W 3384  34.408  27.032   1.422
31125W        W 3385  15.132  29.483  10.438
31126W        W 3386  40.985  14.611  12.443
31127W        W 3387  32.403  30.157  11.371
31128W        W 3388  33.437  13.253  11.904
31129W        W 3389   5.895  13.257  12.875
31130W        W 3390  12.264  14.808  10.642
31131W        W 3391  37.057   6.913  14.365
31132W        W 3392  12.674   4.236  11.921
31133W        W 3393  36.017   8.265  11.966
31134W        W 3394  29.102  41.338   1.787
31135W        W 3395  11.711  37.845   2.888
31136W        W 3396  18.664   0.803  12.887
31137W        W 3397  36.893  36.497   3.170
31138W        W 3398   2.389  20.121   3.189
31139W        W 3399  27.111   6.768  14.787
31140W        W 3400  10.837  36.406  12.360
31141W        W 3401  16.809  24.563  14.933
31142W        W 3402  19.578   1.318  10.484
31143W        W 3403  32.928  21.569  12.567
31144W        W 3404   8.301  34.585   0.795
31145W        W 3405  23.616  36.974   3.750
31146W        W 3406  26.053  41.028  12.873
31147W        W 3407  25.988  12.654   0.943
31148W        W 3408  19.661  14.218   4.726
31149W        W 3409  17.268  44.319   3.868
31150W        W 3410  33.504  41.382   2.371
31151W        W 3411  39.856  36.507  12.839
31152W        W 3412  42.515  33.913  13.886
31153W        W 3413  44.278  35.453   3.756
31154W        W 3414  30.995  22.589   3.290
31155W        W 3415   5.284  37.350   0.959
31156W        W 3416  21.017  31.539  10.915
31157W        W 3417  37.836   1.281   1.735
31158W        W 3418  43.496   2.853  10.462
31159W        W 3419  29.918   1.970  13.929
31160W        W 3420  44.463  35.496   3.318
31161W        W 3421  39.932  23.681   0.288
31162W        W 3422  40.492  21.217   0.814
31163W        W 3423  31.021  15.160  10.503
31164W        W 3424  12.162  43.452  13.947
31165W        W 3425   8.278   4.908  13.372
31166W        W 3426  42.816  36.999  10.974
31167W        W 3427   7.894  23.121  12.870
31168W        W 3428  26.514   0.758  11.022
31169W        W 3429  40.924  26.140  13.521
31170W        W 3430  38.374  10.193  12.034
31171W        W 3431  39.912   4.408   4.776
31172W        W 3432  28.967  36.431  10.453
31173W        W 3433  34.561   4.354  11.514
31174W        W 3434  27.116  38.036  10.432
31175W        W 3435  21.631   4.895  13.979
31176W        W 3436  28.141  17.290   2.248
31177W        W 3437   2.259   9.730  11.572
31178W        W 3438  40.453   6.898   4.807
31179W        W 3439  43.848  43.962  10.450
31180W        W 3440   2.451  31.465   0.795
31181W        W 3441  25.696  11.300   0.810
31182W        W 3442  14.790  21.668  13.853
31183W        W 3443  21.073   6.265  10.600
31184W        W 3444   3.838  15.621   2.303
31185W        W 3445   6.315  11.857  10.101
31186W        W 3446  32.108  32.405  13.320
31187W        W 3447   7.255   9.247   0.755
31188W        W 3448  37.902   6.877  10.440
31189W        W 3449   9.320  16.743  10.412
31190W        W 3450  35.926  11.243  13.329
31191W        W 3451  26.048   6.381   2.876
31192W        W 3452   3.861   5.894   0.257
31193W        W 3453   4.808  13.182  11.419
31194W        W 3454   1.860   4.810  12.351
31195W        W 3455  16.579  30.113   3.238
31196W        W 3456   4.275   8.882  11.003
31197W        W 3457   4.395  33.617   2.822
31198W        W 3458  41.526  40.394   1.394
31199W        W 3459   4.372  36.533   1.333
31200W        W 3460  30.031  20.229  10.980
31201W        W 3461   6.749  32.553   1.898
31202W        W 3462  37.341  34.927  11.457
31203W        W 3463  14.255  20.643  10.890
31204W        W 3464   6.823  15.741  14.427
31205W        W 3465  25.488  40.367  12.373
31206W        W 3466   5.764  31.093   3.360
31207W        W 3467  26.003  32.057   3.630
31208W        W 3468   2.266  38.476  11.955
31209W        W 3469  19.247  38.968  14.879
31210W        W 3470  23.717  28.074  13.021
31211W        W 3471   0.984  38.912  11.529
31212W        W 3472  23.691  12.349  14.360
31213W        W 3473  39.831  27.512  14.913
31214W        W 3474  42.024  17.645   0.412
31215W        W 3475  28.563  13.329   1.899
31216W        W 3476   7.403  16.184  10.986
31217W        W 3477   4.236  21.635  14.446
31218W        W 3478  39.343  12.362  13.846
31219W        W 3479  19.220  38.826   0.930
31220W        W 3480  21.049  12.777  14.911
31221W        W 3481  19.731   7.675  12.065
31222W        W 3482  11.165  34.096   0.423
31223W        W 3483  36.917  34.042   3.225
31224W        W 3484  24.051  11.194   1.229
31225W        W 3485  19.079   4.939  13.486
31226W        W 3486  32.400   6.827  10.413
31227W        W 3487   2.279  28.156  10.576
31228W        W 3488  37.530   6.262   5.200
31229W        W 3489   1.464  27.630  11.113
31230W        W 3490   0.468  22.550  12.024
31231W        W 3491  10.295  32.888   4.690
31232W        W 3492   1.841  10.738   1.290
31233W        W 3493  19.149  26.117  13.913
31234W        W 3494   6.828   8.361  14.342
31235W        W 3495  11.217  27.162   3.814
31236W        W 3496  30.129  28.972  11.929
31237W        W 3497  41.946  28.569   1.359
31238W        W 3498   5.722  11.145   2.832
31239W        W 3499  39.065  26.048   1.250
31240W        W 3500  26.987  20.768   0.878
31241W        W 3501  15.591  18.670  10.623
31242W        W 3502  25.178  35.906  10.972
31243W        W 3503  32.952  22.657   2.368
31244W        W 3504  25.097  30.077  13.029
31245W        W 3505  20.175   5.331  11.994
31246W        W 3506   7.798  39.967  10.410
31247W        W 3507  34.579   0.773  12.036
31248W        W 3508   3.799  40.419  10.477
31249W        W 3509  19.614  11.351   2.806
31250W        W 3510  38.326   4.204  10.942
31251W        W 3511   4.842  27.016  13.313
31252W        W 3512   0.968  21.150   2.707
31253W        W 3513   3.461  27.091  14.340
31254W        W 3514  12.841  44.872  11.909
31255W        W 3515  32.082  38.445  12.576
31256W        W 3516   0.947   8.754   5.197
31257W        W 3517  41.302  38.007   2.336
31258W        W 3518  12.799  16.799   1.316
31259W        W 3519  15.293  34.983   0.458
31260W        W 3520  23.566  32.955   2.817
31261W        W 3521  44.365  18.779  10.432
31262W        W 3522   2.944   0.888   1.809
31263W        W 3523  40.378  27.520   1.848
31264W        W 3524  18.244  32.031  10.539
31265W        W 3525  24.495  33.908  12.979
31266W        W 3526  27.474  29.442  12.882
31267W        W 3527   9.187  16.635   0.732
31268W        W 3528  32.016  24.591   1.245
31269W        W 3529  34.604  21.082   4.222
31270W        W 3530  33.492   9.218   1.924
31271W        W 3531  23.518  10.730  14.856
31272W        W 3532  35.457  27.107   0.358
31273W        W 3533  39.957  39.919   0.245
31274W        W 3534  38.401  34.479   1.883
31275W        W 3535  22.242  15.632   2.222
31276W        W 3536  31.437  16.210   4.619
31277W        W 3537  18.685  44.421  10.915
31278W        W 3538  30.448  43.435  12.930
31279W        W 3539   8.296  12.316   2.887
31280W        W 3540  39.353  17.598  14.784
31281W        W 3541  20.145   9.859   2.893
31282W        W 3542   6.419   1.746  12.076
31283W        W 3543   4.875   8.672   2.180
31284W        W 3544  16.731  24.984   4.344
31285W        W 3545  41.380  23.704   3.226
31286W        W 3546  39.423  11.802  12.369
31287W        W 3547  26.534   0.262  10.101
31288W        W 3548  42.520   3.951   4.684
31289W        W 3549  30.521  30.983   1.419
31290W        W 3550  24.121  31.106  11.522
31291W        W 3551  30.586   4.441   0.798
31292W        W 3552  32.575   5.922  14.423
31293W        W 3553  28.970   4.888  13.391
31294W        W 3554  12.824  36.571  12.489
31295W        W 3555  29.958  38.915  13.399
31296W        W 3556  35.583   8.223   0.798
31297W        W 3557  36.441  11.775  11.856
31298W        W 3558  15.786  25.981   3.321
31299W        W 3559  35.502  37.458  14.317
31300W        W 3560  41.391  24.533   0.268
31301W        W 3561  28.564  19.160  14.484
31302W        W 3562  33.941  26.019   3.804
31303W        W 3563  15.223  18.268  14.790
31304W        W 3564  27.961  36.069   0.450
31305W        W 3565  27.947   6.424  13.545
31306W        W 3566  24.676   0.339   2.320
31307W        W 3567   3.829  32.889   3.302
31308W        W 3568  23.544   1.301  12.831
31309W        W 3569   4.269   5.317   2.864
31310W        W 3570  25.670  10.777   4.155
31311W        W 3571  26.975  38.017   4.607
31312W        W 3572  27.584  11.811  11.421
31313W        W 3573  30.505  41.296  11.924
31314W        W 3574  26.027  29.081  12.372
31315W        W 3575  21.081   2.870  11.862
31316W        W 3576   1.277  13.698  14.978
31317W        W 3577   5.826  18.687  11.020
31318W        W 3578  24.156  29.138   1.788
31319W        W 3579   3.788  32.600  14.970
31320W        W 3580  40.803  42.520  14.393
31321W        W 3581  30.549   6.677   1.394
31322W        W 3582  35.011  41.919   0.783
31323W        W 3583  24.551   0.864  10.628
31324W        W 3584  18.108  25.702   0.791
31325W        W 3585  24.206  21.733   0.805
31326W        W 3586   4.875   2.263  11.551
31327W        W 3587   6.754  42.454   1.817
31328W        W 3588  44.380   9.728   1.715
31329W        W 3589  40.040   5.922   2.185
31330W        W 3590  22.168  15.113  14.837
31331W        W 3591  40.470  35.887  10.460
31332W        W 3592  29.956  12.664   1.836
31333W        W 3593  23.722  37.524  13.419
31334W        W 3594  35.948  10.175  12.088
31335W        W 3595   8.260  19.681  14.353
31336W        W 3596  18.071  25.571   1.786
31337W        W 3597  38.396  27.081  13.021
31338W        W 3598  42.286  12.166   4.778
31339W        W 3599  39.015  23.065   1.819
31340W        W 3600  24.076  35.043  13.012
31341W        W 3601  20.231   4.248  14.276
31342W        W 3602  41.469  34.937   1.842
31343W        W 3603  32.978  34.926  14.836
31344W        W 3604   2.776  10.669  12.426
31345W        W 3605  10.808   9.196   0.297
31346W        W 3606  33.878  31.925   0.964
31347W        W 3607  26.577  11.762  14.872
31348W        W 3608  29.008  22.620  13.947
31349W        W 3609  25.116  35.462  11.048
31350W        W 3610  29.965  31.927  14.895
31351W        W 3611  30.917  42.830   0.959
31352W        W 3612   7.673  26.175   9.446
31353W        W 3613  30.152  31.497  10.004
31354W        W 3614  26.978  37.045   4.721
31355W        W 3615   5.408  15.106   1.881
31356W        W 3616  27.678  40.416   1.224
31357W        W 3617   6.233  23.003   3.341
31358W        W 3618  13.153  30.472   4.131
31359W        W 3619  23.157   9.224   1.311
31360W        W 3620  42.818  13.133   0.448
31361W        W 3621  11.827   5.267  12.028
31362W        W 3622  41.357  30.645  13.828
31363W        W 3623   8.678  40.909   0.466
31364W        W 3624  22.126  39.857  12.927
31365W        W 3625  38.836  37.467   2.729
31366W        W 3626   7.268  38.460   4.289
31367W        W 3627   4.400  21.139  12.027
31368W        W 3628   7.691   7.831  12.987
31369W        W 3629  18.558  38.508  11.871
31370W        W 3630  36.424  16.139   0.299
31371W        W 3631  32.990  40.973  10.556
31372W        W 3632   1.899  24.140   0.411
31373W        W 3633  13.636   1.394   1.815
31374W        W 3634  23.680  26.029  10.625
31375W        W 3635   4.816   3.297  11.953
31376W        W 3636  44.882  31.476   4.253
31377W        W 3637   8.892  25.497   4.658
31378W        W 3638  44.811  25.174  13.848
31379W        W 3639  11.359  25.995  14.423
31380W        W 3640  19.731  32.555   4.640
31381W        W 3641  35.493  43.286  14.296
31382W        W 3642  11.218   1.464   0.309
31383W        W 3643  41.419  37.411   3.805
31384W        W 3644   5.220  14.661   3.227
31385W        W 3645  36.569  19.645   0.875
31386W        W 3646  39.355  27.607  11.388
31387W        W 3647  18.640  17.094  13.825
31388W        W 3648  19.086  22.999  11.590
31389W        W 3649  34.897  26.097  13.938
31390W        W 3650  14.779  15.252   0.827
31391W        W 3651   0.841   9.758  11.907
31392W        W 3652  13.675  26.091  12.991
31393W        W 3653  43.305  26.111   4.739
31394W        W 3654  29.057  12.329  12.028
31395W        W 3655  18.622  10.249   4.113
31396W        W 3656  36.360  41.002  14.490
31397W        W 3657  36.976  14.787  10.951
31398W        W 3658   0.451  24.659   4.608
31399W        W 3659  42.816   1.934   0.447
31400W        W 3660  39.509  44.272  10.956
31401W        W 3661  16.602  31.147  10.421
31402W        W 3662  22.509  38.010  11.880
31403W        W 3663  10.151  35.076   3.671
31404W        W 3664  32.945  41.803   0.905
31405W        W 3665   8.710   8.658   4.286
31406W        W 3666  39.957  19.161   4.230
31407W        W 3667   3.416  11.235  11.045
31408W        W 3668  22.120  13.666  12.005
31409W        W 3669  10.808  26.612   2.793
31410W        W 3670  21.573  37.372  13.831
31411W        W 3671  39.942  21.213  12.934
31412W        W 3672  13.764  17.094   5.658
31413W        W 3673  13.351  31.027   0.409
31414W        W 3674   7.237   9.887  12.442
31415W        W 3675  24.976   5.212  13.473
31416W        W 3676   4.384   6.338  14.350
31417W        W 3677   5.688  38.511   2.361
31418W        W 3678   0.961  42.469   1.211
31419W        W 3679  25.544  32.944   4.735
31420W        W 3680   5.693   9.889  13.366
31421W        W 3681  23.524   9.774  13.501
31422W        W 3682  13.710  40.359  12.973
31423W        W 3683   8.814   2.364   1.409
31424W        W 3684  25.084  12.637   1.370
31425W        W 3685  27.453  28.118  14.012
31426W        W 3686  10.251  34.369   2.831
31427W        W 3687   3.368  18.612   0.289
31428W        W 3688  29.642  13.756   3.265
31429W        W 3689  44.897  29.470   3.855
31430W        W 3690  43.483   2.357   4.302
31431W        W 3691  27.601  22.544   3.209
31432W        W 3692  17.202  10.289   2.217
31433W        W 3693  30.629  29.572  11.935
31434W        W 3694   1.744  38.459  11.420
31435W        W 3695  11.816  11.345  12.055
31436W        W 3696  42.021   4.771   3.335
31437W        W 3697  44.817  14.597   3.232
31438W        W 3698  41.937   4.207   3.818
31439W        W 3699   3.276   2.327   0.334
31440W        W 3700  38.843  33.957   0.918
31441W        W 3701  10.267  22.696   0.279
31442W        W 3702  40.828  44.988   3.354
31443W        W 3703  16.155  42.295  10.486
31444W        W 3704   2.470  15.577  13.315
31445W        W 3705  14.650  31.429  13.961
31446W        W 3706  44.990  22.556   1.433
31447W        W 3707  38.521  20.650   0.362
31448W        W 3708  35.069  40.973  12.829
31449W        W 3709  29.125  38.361   4.139
31450W        W 3710   4.888  32.508  14.286
31451W        W 3711   3.806  18.078  10.618
31452W        W 3712  37.076  43.862   4.262
31453W        W 3713  41.811  23.664  12.561
31454W        W 3714  37.547  27.010   4.641
31455W        W 3715  21.557  30.091  14.323
31456W        W 3716  20.532   6.397   2.788
31457W        W 3717  25.536  22.679  11.014
31458W        W 3718  16.779  10.206  14.480
31459W        W 3719  39.508   2.446   3.275
31460W        W 3720  25.153  33.966  14.790
31461W        W 3721  30.075  23.147  11.982
31462W        W 3722  23.564  12.707  13.910
31463W        W 3723   2.925  17.760   3.239
31464W        W 3724  22.632   6.710  14.030
31465W        W 3725  20.273  30.597   2.834
31466W        W 3726   3.842   2.831   3.333
31467W        W 3727  29.588  15.276  13.975
31468W        W 3728  17.572  35.022   0.746
31469W        W 3729  20.619  19.062  14.892
31470W        W 3730   4.944  27.119  14.774
31471W        W 3731  16.781  30.078   4.245
31472W        W 3732   6.818  26.172  14.939
31473W        W 3733   0.429  12.643   2.331
31474W        W 3734  18.098   7.809   5.571
31475W        W 3735  21.721   1.849  13.415
31476W        W 3736   8.736  40.859   3.382
31477W        W 3737  23.173  28.680   0.769
31478W        W 3738  15.129  17.682   4.713
31479W        W 3739  15.280  24.617  12.061
31480W        W 3740   8.253  15.824   2.193
31481W        W 3741  15.744  10.314  11.902
31482W        W 3742  23.221  44.971  10.464
31483W        W 3743  26.194  44.883  12.407
31484W        W 3744  34.441  32.078  11.969
31485W        W 3745   0.414  41.465  14.008
31486W        W 3746  24.571  44.779  14.795
31487W        W 3747  25.188   4.862  12.535
31488W        W 3748   8.187  29.620   1.750
31489W        W 3749  27.985  42.006   3.793
31490W        W 3750  43.394  43.308   0.866
31491W        W 3751  36.083   0.462   2.695
31492W        W 3752  38.379   6.210  11.980
31493W        W 3753   9.205   8.801   0.255
31494W        W 3754   6.720  21.200   2.806
31495W        W 3755  26.671  34.564   1.899
31496W        W 3756   7.232  10.879  13.881
31497W        W 3757  13.132  28.555   2.782
31498W        W 3758  34.483  11.302   0.736
31499W        W 3759  30.519  39.372   4.762
31500W        W 3760  39.809   6.718   3.275
31501W        W 3761  19.570  41.951   2.747
31502W        W 3762  33.127   9.207  13.384
31503W        W 3763  21.597   6.190  10.504
31504W        W 3764  21.182  35.588  10.639
31505W        W 3765  32.587  43.963   4.829
31506W        W 3766  38.063  26.487   0.270
31507W        W 3767  25.536  21.035   4.822
31508W        W 3768  20.067  44.456  11.876
31509W        W 3769  15.673  40.304   4.656
31510W        W 3770  39.000   2.414  14.481
31511W        W 3771  27.190   1.941  11.093
31512W        W 3772  12.306  40.545   1.390
31513W        W 3773  31.439  31.439  13.354
31514W        W 3774  17.670  19.538   2.803
31515W        W 3775  39.959  16.265  13.356
31516W        W 3776  18.684  14.819   0.855
31517W        W 3777  41.927  39.486   4.637
31518W        W 3778   0.948  15.640   0.921
31519W        W 3779   8.706  32.064  12.437
31520W        W 3780  23.538   6.325   0.814
31521W        W 3781   7.184  33.534  14.500
31522W        W 3782  14.669  34.378  14.777
31523W        W 3783  32.414  31.110   1.901
31524W        W 3784   4.357  24.700  14.491
31525W        W 3785   4.786  44.308   1.817
31526W        W 3786  26.473  10.687  13.343
31527W        W 3787  26.618  37.499  13.545
31528W        W 3788  24.520  20.763  10.496
31529W        W 3789  21.227  44.882   1.736
31530W        W 3790  36.566   7.860  12.061
31531W        W 3791   2.903   4.737   0.728
31532W        W 3792  11.265  39.940   1.791
31533W        W 3793  42.307   2.379  14.860
31534W        W 3794   0.799  40.400   5.250
31535W        W 3795  14.698  35.874  12.364
31536W        W 3796  12.776  28.023  14.494
31537W        W 3797  18.559   3.800  13.414
31538W        W 3798   9.855  21.683  14.401
31539W        W 3799   1.822  43.398  13.359
31540W        W 3800   8.215   9.222   1.442
31541W        W 3801  39.355  34.552  13.870
31542W        W 3802   0.284   6.701  13.856
31543W        W 3803  29.939  21.616  11.582
31544W        W 3804  25.093  33.595   2.370
31545W        W 3805  42.033  33.528  14.945
31546W        W 3806  44.384  22.717  11.459
31547W        W 3807   1.435  10.651  11.436
31548W        W 3808   0.982  35.590   1.797
31549W        W 3809  28.621   5.789   3.696
31550W        W 3810  32.541  35.979   3.308
31551W        W 3811  21.533  22.702  14.381
31552W        W 3812   0.751  15.641   3.639
31553W        W 3813  18.250  34.874   4.760
31554W        W 3814   7.739  21.602  12.026
31555W        W 3815  39.890   8.396  10.478
31556W        W 3816  20.235  18.709   3.829
31557W        W 3817  12.171  32.072   3.267
31558W        W 3818  16.795  35.942  13.477
31559W        W 3819  37.979  22.688   1.913
31560W        W 3820  18.619  41.807  12.412
31561W        W 3821   2.852  16.296  12.885
31562W        W 3822   5.264  37.355   3.711
31563W        W 3823  41.428   8.664   1.788
31564W        W 3824  29.053  32.886  11.538
31565W        W 3825  21.130  15.300  13.317
31566W        W 3826  41.843  17.250   4.699
31567W        W 3827  31.998  11.210  11.978
31568W        W 3828  13.282  15.736  11.557
31569W        W 3829  43.438  14.789  12.831
31570W        W 3830  11.215  36.567  14.982
31571W        W 3831  22.090   1.373  11.080
31572W        W 3832  20.635  44.272  14.855
31573W        W 3833  16.777   6.343  10.441
31574W        W 3834  34.522  44.271   4.279
31575W        W 3835  20.572  19.761   2.405
31576W        W 3836  21.651  41.979  12.929
31577W        W 3837  31.956  30.964   1.916
31578W        W 3838  36.455  37.051   2.353
31579W        W 3839  32.907  29.941  14.865
31580W        W 3840   0.314   3.297  13.505
31581W        W 3841  43.488  17.140   3.286
31582W        W 3842  36.917  20.699   4.276
31583W        W 3843  32.443  20.091   1.725
31584W        W 3844  37.059   0.361   2.837
31585W        W 3845  26.461   8.807   2.677
31586W        W 3846  10.716  33.544   4.165
31587W        W 3847  12.329  11.335   1.436
31588W        W 3848   5.224   1.481   3.699
31589W        W 3849  26.013  35.015   2.306
31590W        W 3850   6.735  42.813  11.093
31591W        W 3851   1.774  39.404   0.474
31592W        W 3852  34.571  23.583   4.289
31593W        W 3853  33.499   0.939  14.977
31594W        W 3854  18.153  14.666  11.423
31595W        W 3855   1.878  41.031   3.727
31596W        W 3856   6.699  38.976  10.896
31597W        W 3857  30.611  31.036   1.797
31598W        W 3858   8.230   4.844   3.802
31599W        W 3859   6.327  21.169   2.674
31600W        W 3860  40.818  24.107   3.784
31601W        W 3861  10.345  17.774   0.925
31602W        W 3862  26.497  29.022   0.908
31603W        W 3863   0.912   3.283   0.867
31604W        W 3864  10.821  36.540  13.537
31605W        W 3865  30.563  34.107   1.713
31606W        W 3866  23.044   9.309  11.960
31607W        W 3867  17.092  12.611  10.603
31608W        W 3868  24.030  38.053   2.289
31609W        W 3869  25.079   9.154   2.359
31610W        W 3870   7.415   9.786   1.334
31611W        W 3871   8.170  18.219   3.171
31612W        W 3872  19.148   2.741  12.394
31613W        W 3873  12.779  31.135   3.692
31614W        W 3874  21.613   8.354   3.320
31615W        W 3875  12.336  39.362  11.455
31616W        W 3876  16.207   4.261   1.248
31617W        W 3877  39.549  34.887  11.492
31618W        W 3878   9.839  38.409  14.029
31619W        W 3879  42.510  43.929  14.909
31620W        W 3880  18.140   5.916   1.369
31621W        W 3881   0.461  20.163   3.641
31622W        W 3882  39.507  31.475  14.442
31623W        W 3883  28.436   7.194  12.898
31624W        W 3884  10.680   2.905  10.946
31625W        W 3885  18.094  38.925   3.314
31626W        W 3886   5.839   4.412   4.249
31627W        W 3887   2.344  35.871  14.961
31628W        W 3888  12.688   4.263  12.912
31629W        W 3889  40.491  10.823   3.168
31630W        W 3890  17.128  15.683  12.534
31631W        W 3891  20.652  10.756   0.478
31632W        W 3892  23.213  12.139   1.419
31633W        W 3893  34.055  30.991  11.867
31634W        W 3894   7.668   2.239  12.353
31635W        W 3895  30.578  26.093   4.266
31636W        W 3896  37.474  38.567   1.407
31637W        W 3897  40.906  20.121  12.015
31638W        W 3898  10.238  15.746  10.157
31639W        W 3899  20.096  37.576   3.330
31640W        W 3900  14.775  19.224   3.200
31641W        W 3901  24.213  32.944  10.601
31642W        W 3902  26.582  26.149   2.686
31643W        W 3903   1.454  35.543  10.973
31644W        W 3904   0.904  17.652   1.402
31645W        W 3905  40.925   4.876  13.444
31646W        W 3906   4.303  12.672   1.217
31647W        W 3907   0.448  24.230   1.362
31648W        W 3908   7.247  35.926   4.322
31649W        W 3909  34.549   7.266   3.182
31650W        W 3910  11.145  42.873   0.751
31651W        W 3911  32.442   4.744  13.019
31652W        W 3912   8.329  12.155  13.349
31653W        W 3913  32.987  19.669   4.273
31654W        W 3914  19.218   0.804   0.912
31655W        W 3915  11.280  12.644  14.471
31656W        W 3916  20.202   6.195  11.405
31657W        W 3917   0.907   1.848   1.327
31658W        W 3918   3.326   8.884  12.967
31659W        W 3919  15.132  29.476   3.697
31660W        W 3920  17.243  27.618   4.354
31661W        W 3921   6.861  18.628  14.806
31662W        W 3922  10.854  23.222  10.614
31663W        W 3923  37.572  18.275  13.548
31664W        W 3924   5.219  17.750  13.904
31665W        W 3925  22.709   3.808   4.816
31666W        W 3926  24.010  18.622  10.980
31667W        W 3927  15.792  34.074   1.754
31668W        W 3928  36.086   5.438   4.701
31669W        W 3929  31.522  20.270   3.835
31670W        W 3930   9.724   3.719  14.018
31671W        W 3931  33.006  39.931  14.934
31672W        W 3932   1.378   7.389   4.265
31673W        W 3933  22.138  41.975   1.705
31674W        W 3934  24.065  35.900  10.461
31675W        W 3935  26.524  26.680  13.542
31676W        W 3936  22.067  16.781  10.981
31677W        W 3937  24.177  36.486   3.203
31678W        W 3938   3.951  25.981   0.298
31679W        W 3939  27.481  29.150   2.310
31680W        W 3940  15.273  32.075   2.699
31681W        W 3941  30.642  25.075  11.527
31682W        W 3942  43.485   8.763   2.666
31683W        W 3943  20.170   1.873   1.735
31684W        W 3944   8.163  25.086  14.389
31685W        W 3945  31.607  40.899  12.480
31686W        W 3946  12.683  32.593  13.395
31687W        W 3947   5.343  19.578   2.295
31688W        W 3948  10.681   8.301  12.517
31689W        W 3949  24.041  13.663   3.375
31690W        W 3950  30.977  36.909   0.340
31691W        W 3951  43.467  41.375  11.524
31692W        W 3952  44.389  18.155  11.977
31693W        W 3953  33.908  16.807  10.610
31694W        W 3954   0.280  33.893   3.257
31695W        W 3955   0.438  27.079  11.449
31696W        W 3956  27.952  16.129  11.522
31697W        W 3957  15.159   6.279   0.440
31698W        W 3958   3.221  18.138  11.539
31699W        W 3959  32.898  18.237   3.824
31700W        W 3960  30.111   3.908   3.722
31701W        W 3961  44.953  41.034  13.033
31702W        W 3962  34.109  10.745  11.596
31703W        W 3963  41.035  13.269  14.775
31704W        W 3964   2.233  41.957  12.366
31705W        W 3965  37.570  36.550   4.139
31706W        W 3966  11.131  43.377  13.900
31707W        W 3967  42.931  44.838  12.998
31708W        W 3968  22.020  13.742  12.872
31709W        W 3969   5.409   1.394   2.862
31710W        W 3970  22.163  12.741   2.240
31711W        W 3971  36.521  20.165   4.274
31712W        W 3972  19.243  43.381   0.726
31713W        W 3973  12.174   8.298   3.270
31714W        W 3974   6.903  11.746  11.512
31715W        W 3975   7.355   5.308   3.724
31716W        W 3976  39.374   8.353   4.653
31717W        W 3977   5.839   0.982  14.918
31718W        W 3978  32.596  34.489  12.894
31719W        W 3979  38.038   1.940  11.978
31720W        W 3980  14.641  39.841  12.895
31721W        W 3981  25.187  43.991  11.964
31722W        W 3982   4.298  37.439  10.999
31723W        W 3983  28.104  31.610   1.738
31724W        W 3984  11.154   5.380   3.225
31725W        W 3985  18.670  16.202   1.319
31726W        W 3986  32.563  12.696  10.416
31727W        W 3987  12.808  12.165   4.779
31728W        W 3988  26.578  30.066  10.440
31729W        W 3989  23.557   2.316   1.876
31730W        W 3990  33.512  25.101  13.414
31731W        W 3991  26.175  17.302   2.188
31732W        W 3992  43.474  15.681   4.803
31733W        W 3993   1.807  21.711   4.226
31734W        W 3994  10.243  20.537   0.754
31735W        W 3995   0.890  36.498  11.076
31736W        W 3996   4.853  16.598  14.758
31737W        W 3997  16.230  16.120   4.142
31738W        W 3998  43.272   3.261  11.101
31739W        W 3999  24.614  40.512  11.044
31740W        W 4000   4.228  20.041  13.373
31741W        W 4001  18.091  30.961   2.765
31742W        W 4002  42.292  42.946   0.909
31743W        W 4003  23.502  11.641  13.964
31744W        W 4004  27.496  35.053   4.132
31745W        W 4005  38.392   7.778  10.948
31746W        W 4006  22.621  10.829  12.554
31747W        W 4007  28.456  33.943   2.315
31748W        W 4008  12.348   1.381  12.044
31749W        W 4009  28.569  40.055   2.258
31750W        W 4010  41.439  43.892   0.848
31751W        W 4011  12.354   0.249   4.355
31752W        W 4012   7.230  22.524  11.099
31753W        W 4013   3.333   6.385  11.036
31754W        W 4014  11.150  10.760  11.965
31755W        W 4015  20.739  19.769  10.515
31756W        W 4016  27.656  33.129   3.352
31757W        W 4017  27.454  16.141   1.288
31758W        W 4018  44.312  11.707   4.610
31759W        W 4019  28.955  24.163   1.833
31760W        W 4020  36.988   3.745   3.169
31761W        W 4021  21.153   6.184   5.091
31762W        W 4022  41.792  23.497   3.798
31763W        W 4023  43.797   0.890   4.764
31764W        W 4024  28.174  42.992   3.805
31765W        W 4025  21.757  35.988   1.903
31766W        W 4026   2.261  34.571   0.931
31767W        W 4027  35.014   0.947   9.976
31768W        W 4028   6.899  38.386  13.835
31769W        W 4029  24.070  37.955  10.554
31770W        W 4030  29.035   2.852  11.885
31771W        W 4031   0.276  32.999  11.374
31772W        W 4032  15.719  14.227   0.768
31773W        W 4033   5.796   0.427   4.743
31774W        W 4034  19.758  41.010  12.490
31775W        W 4035  27.582  21.190   0.849
31776W        W 4036   7.245  40.030   2.249
31777W        W 4037   3.936   2.815  11.054
31778W        W 4038  10.873   3.917   0.366
31779W        W 4039   2.758  35.034  13.896
31780W        W 4040  36.486   0.353  13.819
31781W        W 4041  16.292  16.213  13.344
31782W        W 4042  32.523  35.959   4.208
31783W        W 4043   7.869  11.801  11.531
31784W        W 4044  36.962  24.531  14.319
31785W        W 4045  11.709  23.561   3.721
31786W        W 4046  31.627  13.835   4.238
31787W        W 4047  36.562  22.049   0.754
31788W        W 4048   8.337  24.995   3.667
31789W        W 4049  41.035  39.847  13.343
31790W        W 4050  15.693  12.622  10.476
31791W        W 4051  11.693  38.917   3.730
31792W        W 4052   2.948  44.464  11.085
31793W        W 4053  10.247  10.670  14.971
31794W        W 4054   2.880  22.232   1.764
31795W        W 4055  43.772  35.416  10.960
31796W        W 4056   6.423  31.462  13.852
31797W        W 4057  27.613  12.770   1.322
31798W        W 4058   7.240  24.039   3.276
31799W        W 4059   9.800  21.205  14.314
31800W        W 4060  16.273  36.853  13.957
31801W        W 4061  17.231  11.363  14.866
31802W        W 4062  11.789   9.186  11.889
31803W        W 4063  36.481   3.740   4.320
31804W        W 4064   2.430  31.575   4.224
31805W        W 4065  19.179  30.972   0.285
31806W        W 4066  12.682  28.930  11.527
31807W        W 4067  30.566  40.516   2.703
31808W        W 4068  41.429  37.462   3.237
31809W        W 4069  27.578  18.570   4.168
31810W        W 4070  12.177  13.661  11.000
31811W        W 4071   5.316  14.223  14.953
31812W        W 4072   0.912  33.519   0.409
31813W        W 4073  27.671  15.650   4.683
31814W        W 4074   8.715   7.886   0.310
31815W        W 4075  38.546  15.222   3.279
31816W        W 4076  29.972  30.503  14.003
31817W        W 4077  24.012  10.760  12.008
31818W        W 4078  37.067  41.907   2.770
31819W        W 4079   5.863  30.500   4.805
31820W        W 4080  20.260  38.532  11.989
31821W        W 4081   7.768   4.723   4.619
31822W        W 4082  36.003  36.375  11.072
31823W        W 4083   3.895  30.644   5.205
31824W        W 4084  13.776  42.816   0.902
31825W        W 4085  42.430  32.543  12.007
31826W        W 4086  23.702  16.092  14.416
31827W        W 4087  27.190  34.898  13.873
31828W        W 4088  32.509  17.711  11.960
31829W        W 4089   8.227   7.260  12.466
31830W        W 4090  10.878  18.102  14.318
31831W        W 4091  22.209  13.338  13.540
31832W        W 4092   3.446  33.994   1.252
31833W        W 4093  19.678   5.416   1.858
31834W        W 4094  19.712  23.197   0.785
31835W        W 4095  29.504  16.187  13.825
31836W        W 4096  31.528  40.904  10.947
31837W        W 4097  23.180  27.068  10.580
31838W        W 4098  34.945  41.956   4.153
31839W        W 4099  27.029   9.282  12.824
31840W        W 4100  24.718   3.432   4.779
31841W        W 4101   4.745  42.499   0.736
31842W        W 4102  14.158  20.166  14.441
31843W        W 4103  36.531   0.470   1.243
31844W        W 4104   7.765  27.633  14.274
31845W        W 4105   9.168  35.361   0.341
31846W        W 4106  14.286  13.742   2.204
31847W        W 4107  39.043   3.775  10.600
31848W        W 4108  37.004  27.544  14.445
31849W        W 4109  20.710  21.533   4.316
31850W        W 4110   9.681   0.298  10.491
31851W        W 4111   8.161  35.411  12.548
31852W        W 4112  40.370  20.195  14.014
31853W        W 4113  44.951  14.742   0.740
31854W        W 4114  17.186  19.664   3.233
31855W        W 4115  27.633   9.733   4.328
31856W        W 4116  16.767   7.290   4.685
31857W        W 4117   6.742  30.133   3.769
31858W        W 4118   9.890  34.049   2.190
31859W        W 4119  35.870  35.529   2.181
31860W        W 4120  23.700  10.207  13.879
31861W        W 4121  21.639  32.140   3.790
31862W        W 4122  11.358   7.175  14.908
31863W        W 4123  14.636   2.900  13.482
31864W        W 4124   9.733   9.236  14.282
31865W        W 4125  41.867  31.535  14.835
31866W        W 4126   5.777  36.564  11.547
31867W        W 4127  12.705  14.597   4.307
31868W        W 4128  28.114   1.950   0.807
31869W        W 4129  40.819  28.003   0.370
31870W        W 4130   7.839   2.330   5.244
31871W        W 4131  15.589  29.139   1.806
31872W        W 4132  16.641  15.664   3.726
31873W        W 4133  35.909  20.127   0.792
31874W        W 4134  35.103  39.883  13.363
31875W        W 4135  40.882  38.821  12.082
31876W        W 4136  24.561  40.025  13.824
31877W        W 4137  41.014   5.251   3.857
31878W        W 4138  19.659  16.073  13.542
31879W        W 4139  20.718   3.311   0.793
31880W        W 4140   5.837  31.978  10.590
31881W        W 4141  32.956  18.216  13.480
31882W        W 4142  10.807   0.407  14.016
31883W        W 4143   4.704   4.765  12.974
31884W        W 4144   1.305  26.674   1.308
31885W        W 4145  11.757  36.561   1.295
31886W        W 4146   6.252  36.030   1.758
31887W        W 4147  43.869   4.806   4.293
31888W        W 4148  27.462  17.106  13.929
31889W        W 4149  40.961  32.115   4.204
31890W        W 4150  29.659  37.395  10.490
31891W        W 4151  19.731   2.358  14.294
31892W        W 4152  24.619   0.956   2.731
31893W        W 4153  37.336   5.292  11.391
31894W        W 4154  22.075   7.834  11.528
31895W        W 4155  37.964   7.194   4.254
31896W        W 4156   1.928  20.230  14.484
31897W        W 4157   4.707  44.891   0.269
31898W        W 4158  30.564   3.340   1.839
31899W        W 4159  43.817  16.197   4.633
31900W        W 4160  20.117  19.152  11.573
31901W        W 4161  37.340  11.823  13.455
31902W        W 4162  37.885   3.945  12.029
31903W        W 4163  30.151   0.345   1.913
31904W        W 4164  14.206  26.077  10.919
31905W        W 4165   8.743  37.507   0.244
31906W        W 4166   6.821  15.741  12.439
31907W        W 4167  34.096  44.864   2.267
31908W        W 4168  43.439  13.151   1.719
31909W        W 4169  12.252  35.576   2.810
31910W        W 4170  31.533   3.310   2.338
31911W        W 4171  27.012  21.707  14.011
31912W        W 4172  41.435  30.972   3.253
31913W        W 4173  23.123   6.307   2.282
31914W        W 4174  31.915   1.925   4.235
31915W        W 4175  19.123  38.863  14.317
31916W        W 4176   7.381  44.808  12.046
31917W        W 4177  38.077  30.415   2.311
31918W        W 4178  42.857  39.024  11.963
31919W        W 4179   6.182  25.578  11.376
31920W        W 4180  14.193  11.841  14.019
31921W        W 4181  11.185  36.896  13.055
31922W        W 4182  13.139  24.576  11.991
31923W        W 4183  19.256  41.033   4.839
31924W        W 4184   4.813  38.909   2.203
31925W        W 4185  43.504  23.515  10.118
31926W        W 4186  16.223  34.573  14.350
31927W        W 4187  40.868  35.047  10.548
31928W        W 4188  38.998  18.789   2.234
31929W        W 4189   7.813  32.079   3.312
31930W        W 4190  22.113  31.061   1.903
31931W        W 4191  14.109   8.314   3.671
31932W        W 4192  42.928  36.923   4.175
31933W        W 4193  11.183   2.343  14.902
31934W        W 4194  21.667  44.269  14.822
31935W        W 4195   0.434  24.490   0.273
31936W        W 4196  17.081  31.549  10.946
31937W        W 4197  10.742  39.859   2.191
31938W        W 4198   2.722  14.339  14.400
31939W        W 4199  43.411  44.418   1.408
31940W        W 4200  29.108  13.237  14.349
31941W        W 4201  27.040  42.839  14.822
31942W        W 4202  29.657  17.193  14.418
31943W        W 4203  18.188   8.778  13.320
31944W        W 4204  25.079   0.298   4.192
31945W        W 4205  25.989   3.766   3.291
31946W        W 4206   5.788  26.574   3.790
31947W        W 4207   2.330  19.624  13.534
31948W        W 4208  39.814  36.908  13.348
31949W        W 4209  21.064  42.399   1.425
31950W        W 4210   8.311  33.076   1.793
31951W        W 4211  35.438   9.697  11.962
31952W        W 4212  28.616  12.663  11.004
31953W        W 4213  43.973  15.271   2.201
31954W        W 4214  11.764  19.066   0.807
31955W        W 4215  10.285  12.330   2.415
31956W        W 4216  27.107   8.855   4.113
31957W        W 4217  26.982  19.677  14.305
31958W        W 4218   0.449  14.159  10.923
31959W        W 4219  29.963  31.043   2.342
31960W        W 4220  23.221  14.147  14.834
31961W        W 4221  34.034  43.828  12.454
31962W        W 4222  13.290  38.046   2.684
31963W        W 4223  34.120   7.323   3.377
31964W        W 4224  10.339   9.785  12.037
31965W        W 4225  44.871  15.263  13.390
31966W        W 4226  22.710   2.938   3.288
31967W        W 4227  20.272  28.146   3.695
31968W        W 4228   1.892  10.155  12.390
31969W        W 4229  20.114  36.361  12.826
31970W        W 4230  16.125   8.698   4.648
31971W        W 4231  32.050   8.783   3.723
31972W        W 4232  11.308  13.249  13.914
31973W        W 4233  12.244  13.661  14.443
31974W        W 4234  28.521  36.410  12.499
31975W        W 4235  16.123   8.890  11.106
31976W        W 4236  26.072  42.301   2.783
31977W        W 4237  35.581  22.130   2.666
31978W        W 4238  23.186  19.232  10.432
31979W        W 4239  20.239  18.071  13.848
31980W        W 4240  27.596  16.671   1.316
31981W        W 4241  11.319  17.557  10.594
31982W        W 4242  17.701  44.851   1.786
31983W        W 4243  12.776   8.309  13.828
31984W        W 4244  27.646   3.945   2.856
31985W        W 4245  43.942  40.378  12.961
31986W        W 4246  44.365  19.044  14.796
31987W        W 4247  25.004  17.598  11.988
31988W        W 4248  11.716  25.595   4.646
31989W        W 4249  21.148  12.738  14.468
31990W        W 4250  21.556  15.203   1.234
31991W        W 4251  17.793  40.825  12.575
31992W        W 4252  39.543  34.551   4.338
31993W        W 4253   9.736  31.552  12.537
31994W        W 4254  39.449  15.229  10.988
31995W        W 4255   3.940   1.738   9.990
31996W        W 4256   4.771  41.505  12.546
31997W        W 4257   9.839  41.993  10.441
31998W        W 4258  19.092   6.762   3.171
31999W        W 4259  14.253  25.105  12.971
32000W        W 4260   7.697  34.105  13.383
32001W        W 4261  20.611  28.470  11.921
32002W        W 4262  22.181  35.075   4.183
32003W        W 4263  44.913  12.133  11.597
32004W        W 4264   6.803  13.270  11.570
32005W        W 4265   2.324  36.480   2.663
32006W        W 4266  35.097  23.605   2.277
32007W        W 4267  38.914  25.586   0.967
32008W        W 4268  36.433  17.277  14.310
32009W        W 4269  16.770  34.897   3.646
32010W        W 4270   9.320   9.167  12.026
32011W        W 4271  30.574  16.735   4.723
32012W        W 4272  28.062  26.501  11.100
32013W        W 4273  37.349   7.721  11.103
32014W        W 4274   0.276  36.401   2.240
32015W        W 4275  21.086   5.878  12.825
32016W        W 4276   2.285  24.707   1.446
32017W        W 4277  11.194  14.688   1.816
32018W        W 4278  20.553  22.618  13.006
32019W        W 4279  40.362  42.285  12.900
32020W        W 4280  33.417   9.656  13.021
32021W        W 4281  24.554  26.986   0.338
32022W        W 4282  35.570  34.999  14.895
32023W        W 4283  36.082  18.127   5.261
32024W        W 4284  24.479  18.162   4.133
32025W        W 4285  35.088  43.969  12.914
32026W        W 4286  35.378  20.642   1.240
32027W        W 4287   6.843  38.001  11.932
32028W        W 4288  34.998  14.202  14.856
32029W        W 4289  11.159  37.031   2.221
32030W        W 4290  25.179  23.232  12.476
32031W        W 4291  24.005  33.953   1.424
32032W        W 4292  15.230   4.323   0.340
32033W        W 4293  34.464  40.037  14.971
32034W        W 4294  14.601   2.286   4.349
32035W        W 4295  19.262  10.199   2.407
32036W        W 4296  24.125  24.543  14.495
32037W        W 4297  36.477  19.100  10.119
32038W        W 4298  36.087  18.569  13.377
32039W        W 4299  35.053  43.021  14.992
32040W        W 4300  40.395  22.583   3.232
32041W        W 4301  25.998  44.802  11.894
32042W        W 4302   1.933  17.565   3.803
32043W        W 4303  44.478  17.613  13.522
32044W        W 4304  19.729  29.512   1.749
32045W        W 4305   0.483  39.828   1.277
32046W        W 4306  15.621  24.983   3.847
32047W        W 4307  24.663  44.853   4.819
32048W        W 4308  20.607  12.807  14.030
32049W        W 4309   4.707  10.161   3.856
32050W        W 4310  15.180  18.703   1.867
32051W        W 4311  30.476  41.485  14.328
32052W        W 4312  41.306  38.353  14.021
32053W        W 4313  13.667  31.136  13.535
32054W        W 4314   7.890  44.011  11.383
32055W        W 4315  27.940  29.108   1.379
32056W        W 4316  12.786  23.159  14.487
32057W        W 4317   1.891   5.832  11.536
32058W        W 4318  20.260  34.497   0.746
32059W        W 4319   3.802   0.785  11.117
32060W        W 4320  14.737  28.630  12.916
32061W        W 4321  14.114  13.705  11.412
32062W        W 4322   4.903   6.354  10.956
32063W        W 4323  14.252  27.631   4.687
32064W        W 4324  34.084  40.026   0.427
32065W        W 4325  40.446   0.840  10.409
32066W        W 4326  16.670   4.704   0.938
32067W        W 4327  33.546  22.196  13.003
32068W        W 4328  16.591  12.647   0.887
32069W        W 4329  21.632   4.780   4.720
32070W        W 4330   7.172  30.139  10.620
32071W        W 4331   8.897  22.044   0.744
32072W        W 4332  37.022  44.891  14.008
32073W        W 4333  42.509  14.095   2.382
32074W        W 4334   7.187  11.667  11.058
32075W        W 4335  32.140  35.571   1.382
32076W        W 4336  19.627  29.979   3.767
32077W        W 4337   5.411  22.588   1.433
32078W        W 4338  42.299  41.795  13.444
32079W        W 4339  32.093  15.216   3.379
32080W        W 4340  31.018  12.303  13.963
32081W        W 4341  42.935  33.597   1.846
32082W        W 4342   9.360  14.242   1.870
32083W        W 4343  27.098  40.451  10.964
32084W        W 4344  18.272  31.644   3.223
32085W        W 4345  16.191  28.507   3.659
32086W        W 4346  12.729   4.297  13.823
32087W        W 4347  26.010  15.639  11.931
32088W        W 4348   6.681  24.631  13.430
32089W        W 4349  42.368  16.296   1.728
32090W        W 4350  39.409  19.124   0.316
32091W        W 4351  39.981  41.374  13.920
32092W        W 4352  32.395  28.472   1.421
32093W        W 4353  24.099  27.033  14.472
32094W        W 4354  17.298   5.372  13.357
32095W        W 4355   4.906  25.513   4.771
32096W        W 4356   3.223  15.759   2.303
32097W        W 4357  42.357  37.419  14.790
32098W        W 4358  21.598   9.665   3.346
32099W        W 4359  42.427  25.670   3.755
32100W        W 4360  25.981   4.422   4.680
32101W        W 4361  29.628  16.152  13.399
32102W        W 4362   4.729   6.828  12.454
32103W        W 4363   1.255   3.797  12.339
32104W        W 4364  31.541  33.972   2.798
32105W        W 4365  14.307  38.532   3.191
32106W        W 4366  43.503  32.975   4.236
32107W        W 4367  25.061   2.392   4.262
32108W        W 4368  30.060  20.101   3.761
32109W        W 4369  37.518   7.367   0.291
32110W        W 4370  22.627  38.390   2.839
32111W        W 4371  36.528  31.572   3.357
32112W        W 4372  24.227  40.033  13.941
32113W        W 4373   9.173  10.727  14.873
32114W        W 4374  23.581  36.418  12.875
32115W        W 4375  27.977   6.397  11.915
32116W        W 4376   4.429   3.308   0.927
32117W        W 4377  25.505  17.276   4.798
32118W        W 4378  11.245  30.634   4.655
32119W        W 4379  19.229  14.126  14.387
32120W        W 4380   2.426  26.034   0.916
32121W        W 4381  34.888  26.482   2.185
32122W        W 4382  39.552   3.328  12.852
32123W        W 4383  26.691  18.167  13.331
32124W        W 4384   9.174  22.639   3.282
32125W        W 4385   4.921   4.439   2.847
32126W        W 4386  35.391   0.901   0.825
32127W        W 4387  28.625   8.307   0.798
32128W        W 4388  25.606  26.036   0.312
32129W        W 4389  33.599  17.650  14.762
32130W        W 4390  26.567  11.324  11.577
32131W        W 4391  19.040  25.140   3.173
32132W        W 4392  42.336  37.521  13.449
32133W        W 4393  16.109  37.362  14.490
32134W        W 4394  13.695  32.029   0.281
32135W        W 4395  17.290  41.893   2.307
32136W        W 4396   2.843  12.646  13.011
32137W        W 4397  17.176   8.731   4.214
32138W        W 4398  32.590   7.408   3.274
32139W        W 4399   7.740  37.406  14.501
32140W        W 4400  43.503  15.583  14.402
32141W        W 4401  25.664  10.358   9.929
32142W        W 4402  33.545  32.074   1.220
32143W        W 4403  28.569  16.685   1.899
32144W        W 4404  26.183  42.855  13.459
32145W        W 4405   4.220  36.446   1.728
32146W        W 4406  35.497   4.383  11.093
32147W        W 4407  20.634  14.595   3.301
32148W        W 4408  27.044  21.052   2.328
32149W        W 4409  19.135  26.507  10.473
32150W        W 4410  30.122   6.245  11.986
32151W        W 4411  28.476  31.598   4.617
32152W        W 4412  15.689   9.723   0.480
32153W        W 4413   9.329  29.472  12.407
32154W        W 4414  23.055   8.190   4.634
32155W        W 4415  35.502  18.203   2.243
32156W        W 4416  31.558  34.584   1.822
32157W        W 4417  28.474  17.108  14.922
32158W        W 4418  28.175  25.520   0.843
32159W        W 4419  31.026  13.220   1.867
32160W        W 4420  23.162  39.882  10.926
32161W        W 4421   4.806  17.611   5.092
32162W        W 4422  44.867   9.742  12.031
32163W        W 4423  40.972  11.636   3.224
32164W        W 4424  33.619  30.621   3.869
32165W        W 4425  26.071  22.604   0.910
32166W        W 4426  41.354  19.769   3.811
32167W        W 4427   2.959   9.873   2.260
32168W        W 4428  22.659  27.561  12.975
32169W        W 4429  19.267   8.656  13.548
32170W        W 4430  15.765  44.754   1.839
32171W        W 4431  44.333  12.759   4.765
32172W        W 4432  39.377  15.694   1.807
32173W        W 4433  29.126   3.245   4.172
32174W        W 4434  39.546   8.377   3.337
32175W        W 4435  30.638  30.997   4.766
32176W        W 4436  16.133  28.972  10.419
32177W        W 4437   4.391  28.160   4.160
32178W        W 4438  21.078  43.514  14.763
32179W        W 4439  22.034  22.011   1.868
32180W        W 4440  28.014  32.108  14.933
32181W        W 4441  30.471  42.349   4.117
32182W        W 4442  38.495   7.382  12.538
32183W        W 4443  23.515  24.639   2.300
32184W        W 4444   9.681  44.875  10.494
32185W        W 4445  36.509  33.415   2.839
32186W        W 4446  12.685  30.039   4.702
32187W        W 4447  39.063  31.953   1.419
32188W        W 4448   7.775  29.083   0.794
32189W        W 4449  35.883  34.374   1.374
32190W        W 4450  12.165  28.937  10.585
32191W        W 4451   9.737  25.555   0.824
32192W        W 4452  42.485  16.689   0.833
32193W        W 4453  31.122   9.722   0.927
32194W        W 4454  34.866  22.153  13.518
32195W        W 4455   3.765   0.967   4.315
32196W        W 4456  21.547  14.152   2.364
32197W        W 4457  35.044  22.546   5.226
32198W        W 4458  24.549  34.006   4.269
32199W        W 4459  32.507  22.641  12.061
32200W        W 4460  12.136  18.202   1.312
32201W        W 4461  28.155  10.695   9.971
32202W        W 4462   1.913   6.421  11.458
32203W        W 4463  37.527  27.471  10.407
32204W        W 4464  34.060  20.524  10.504
32205W        W 4465  42.398  11.283   4.187
32206W        W 4466  36.468  31.470  13.027
32207W        W 4467  30.089  39.866   4.209
32208W        W 4468   9.721  37.502  11.899
32209W        W 4469  24.579   9.702  13.381
32210W        W 4470  28.498  30.002  13.902
32211W        W 4471  17.765   4.776  14.405
32212W        W 4472   5.265  12.186  10.455
32213W        W 4473  14.248   2.771   4.646
32214W        W 4474  11.622  19.675   1.841
32215W        W 4475   5.250  37.469  11.585
32216W        W 4476  36.412  39.954   1.241
32217W        W 4477  11.299  27.672   3.668
32218W        W 4478  27.621  21.532  12.862
32219W        W 4479  23.653  12.354   2.849
32220W        W 4480  19.265  21.679   3.709
32221W        W 4481  16.709  20.207   1.814
32222W        W 4482  27.042  30.582   0.319
32223W        W 4483  20.204  11.317   0.286
32224W        W 4484  39.898  38.932   0.737
32225W        W 4485  28.457  21.182   4.284
32226W        W 4486   1.364  26.202  10.935
32227W        W 4487  11.147  32.038  11.935
32228W        W 4488  44.967   9.358   2.779
32229W        W 4489  19.116  20.155  12.943
32230W        W 4490  35.582  18.661  11.558
32231W        W 4491  28.605   0.378  12.913
32232W        W 4492  28.600  43.898   2.293
32233W        W 4493  16.680   5.791  10.570
32234W        W 4494  31.904  32.407  13.046
32235W        W 4495  18.093  40.860  10.964
32236W        W 4496  17.561   5.383   1.327
32237W        W 4497  15.819  31.630  11.491
32238W        W 4498  27.053  25.471   2.197
32239W        W 4499  34.997  12.253   0.243
32240W        W 4500  10.179  12.841  12.419
32241W        W 4501  21.604  43.813   3.337
32242W        W 4502  16.583  24.019  12.092
32243W        W 4503  44.364  41.378   2.207
32244W        W 4504   5.302  44.369   3.790
32245W        W 4505  30.101   6.426   1.447
32246W        W 4506  33.985  37.429  13.417
32247W        W 4507   3.440  36.591   4.633
32248W        W 4508   3.728  37.387   2.390
32249W        W 4509   4.273  32.973   4.188
32250W        W 4510  36.940  13.336   4.313
32251W        W 4511  41.870   5.308  12.972
32252W        W 4512  32.042  36.879   0.469
32253W        W 4513  28.675  13.839   1.929
32254W        W 4514  21.668  27.094   2.350
32255W        W 4515  41.331  10.261  13.803
32256W        W 4516   5.716  44.965   3.665
32257W        W 4517  17.724  24.581   1.811
32258W        W 4518  35.004  36.950   4.667
32259W        W 4519  12.719   7.891  14.950
32260W        W 4520  11.261  15.619  13.907
32261W        W 4521  26.035  26.053  13.808
32262W        W 4522  26.557  15.251   2.680
32263W        W 4523  34.518  37.867   1.400
32264W        W 4524  14.642  41.483  10.021
32265W        W 4525  21.175  27.629  11.996
32266W        W 4526   3.290  35.554   4.252
32267W        W 4527  25.652  23.626   2.260
32268W        W 4528  29.084  44.773  13.026
32269W        W 4529  13.251  40.964  13.912
32270W        W 4530  10.841  11.360   4.741
32271W        W 4531  12.668  12.675  10.430
32272W        W 4532  28.156  41.401   1.830
32273W        W 4533  20.623  28.996  11.927
32274W        W 4534  24.569  33.061   3.662
32275W        W 4535  41.953   2.727  12.025
32276W        W 4536  18.218   8.309  11.391
32277W        W 4537  16.072   4.210  12.032
32278W        W 4538  39.901  26.558  11.486
32279W        W 4539  21.054  11.268  12.422
32280W        W 4540  41.928  14.824  12.459
32281W        W 4541  38.855  28.933   1.299
32282W        W 4542   9.288   7.252   4.645
32283W        W 4543  20.565  20.749   5.683
32284W        W 4544  20.753  36.866  13.991
32285W        W 4545  16.119  28.539  11.410
32286W        W 4546  20.196  39.389   1.778
32287W        W 4547   5.383  26.483  14.851
32288W        W 4548  20.077  26.181   1.752
32289W        W 4549  11.218  43.989  12.865
32290W        W 4550   6.194  24.623  14.779
32291W        W 4551  12.697  16.684   3.748
32292W        W 4552  20.655  26.513   0.382
32293W        W 4553  37.342  34.457   2.671
32294W        W 4554  34.612   3.802  13.330
32295W        W 4555  25.017  29.163   3.636
32296W        W 4556  41.463  22.614   0.782
32297W        W 4557   0.838  19.098   3.211
32298W        W 4558  13.256   5.839  11.926
32299W        W 4559   6.869   8.750   4.268
32300W        W 4560  34.565  23.015   2.821
32301W        W 4561  36.978  11.822   3.862
32302W        W 4562  40.930  19.666   4.256
32303W        W 4563  13.298  26.619   1.695
32304W        W 4564  42.497  16.728  14.307
32305W        W 4565  13.707  14.691  12.983
32306W        W 4566  39.339  19.672  12.524
32307W        W 4567   7.722  37.556   4.750
32308W        W 4568  25.165  29.512   1.283
32309W        W 4569  14.827  29.029   2.403
32310W        W 4570  41.965  37.969   4.140
32311W        W 4571  39.495  29.093   1.397
32312W        W 4572   7.252  27.094   1.301
32313W        W 4573  16.702   9.742  14.928
32314W        W 4574  37.006  23.634   1.235
32315W        W 4575  34.544  39.989   2.178
32316W        W 4576   3.288   7.215  12.458
32317W        W 4577  21.230  23.501  11.974
32318W        W 4578  18.234  43.857  13.456
32319W        W 4579   0.336  20.769  13.898
32320W        W 4580  26.115  44.767   0.902
32321W        W 4581   7.211   2.740  11.372
32322W        W 4582  37.512  41.020   2.703
32323W        W 4583  42.446  29.552   0.368
32324W        W 4584  33.625  37.060   2.674
32325W        W 4585  29.049  43.310   3.783
32326W        W 4586  35.097  31.032  10.988
32327W        W 4587  15.200   9.226  14.771
32328W        W 4588  42.006  22.611  11.917
32329W        W 4589  43.788   7.266  13.987
32330W        W 4590  16.127  17.111   3.767
32331W        W 4591  34.376  13.187  12.514
32332W        W 4592  42.864  41.835  12.565
32333W        W 4593  23.084  26.975   1.334
32334W        W 4594   8.786  43.480  13.042
32335W        W 4595  11.785  14.694  12.476
32336W        W 4596   9.289   0.826  14.940
32337W        W 4597  22.708  42.802  13.523
32338W        W 4598  42.499  21.234   1.428
32339W        W 4599  28.930  25.051   2.822
32340W        W 4600  23.030  16.591  10.578
32341W        W 4601  11.288  16.737  11.115
32342W        W 4602  40.925   5.807  13.915
32343W        W 4603  13.238   4.919   9.930
32344W        W 4604  15.128   5.856   3.683
32345W        W 4605   5.278  28.541   3.336
32346W        W 4606   4.381  25.035   3.261
32347W        W 4607  38.359  25.091  12.057
32348W        W 4608   3.308  28.639  12.469
32349W        W 4609  43.821  33.428   1.417
32350W        W 4610   4.357  44.288  14.470
32351W        W 4611   4.814  19.720   1.732
32352W        W 4612  42.493  32.618  11.106
32353W        W 4613  43.345  38.956  10.046
32354W        W 4614  37.576   0.466   9.954
32355W        W 4615  28.130  16.118   0.404
32356W        W 4616  15.226   6.755   1.336
32357W        W 4617   5.844  15.711   1.888
32358W        W 4618  44.937  14.266   1.751
32359W        W 4619  36.075  12.829   3.827
32360W        W 4620  32.143  12.341  10.509
32361W        W 4621   4.342  38.359  14.763
32362W        W 4622  44.943  26.638  10.501
32363W        W 4623  22.731  43.871  13.932
32364W        W 4624  17.299   3.882  11.605
32365W        W 4625   3.734  36.846  11.469
32366W        W 4626  41.415  43.511  14.822
32367W        W 4627  25.682  35.883  10.499
32368W        W 4628  11.353  23.570  14.851
32369W        W 4629  12.808  35.391  11.929
32370W        W 4630  15.771   2.403  11.521
32371W        W 4631  33.039  21.539   3.253
32372W        W 4632  13.253  24.590  10.642
32373W        W 4633   0.392  37.440   1.380
32374W        W 4634  14.125  25.596   1.773
32375W        W 4635  17.172   6.865   3.319
32376W        W 4636  15.666  44.818   2.207
32377W        W 4637   5.817  25.196  11.582
32378W        W 4638  43.489  22.531   0.314
32379W        W 4639  28.059   7.711  10.012
32380W        W 4640  29.511  22.724  12.025
32381W        W 4641  34.401  24.059  12.967
32382W        W 4642  10.729  29.172  14.031
32383W        W 4643  40.350  19.748  11.548
32384W        W 4644  22.197  34.412   0.482
32385W        W 4645  18.296  38.374  13.979
32386W        W 4646  12.791  11.837   2.231
32387W        W 4647  35.857  30.442   2.776
32388W        W 4648   7.688  21.243  13.310
32389W        W 4649   5.757  24.514  10.960
32390W        W 4650  35.461  33.608   0.745
32391W        W 4651  29.531  34.612  14.021
32392W        W 4652  44.402  31.513   3.655
32393W        W 4653   2.458  29.485  12.086
32394W        W 4654  24.113  16.168  11.482
32395W        W 4655  39.345  28.599  10.616
32396W        W 4656  27.514  35.380  14.280
32397W        W 4657  42.834  40.904   2.706
32398W        W 4658  10.215  41.834   0.328
32399W        W 4659  42.508  40.925   3.326
32400W        W 4660   3.347   5.375   4.716
32401W        W 4661  27.547  26.677   3.747
32402W        W 4662  12.753  41.938  12.478
32403W        W 4663   7.201  40.340  12.947
32404W        W 4664   3.820  43.874  11.113
32405W        W 4665  41.359  33.501   3.219
32406W        W 4666  43.855   5.807  13.487
32407W        W 4667  16.784  27.987   2.869
32408W        W 4668  32.113   0.845   2.265
32409W        W 4669   6.727  23.194  12.888
32410W        W 4670  17.698  26.548   0.794
32411W        W 4671  34.572  31.512  11.121
32412W        W 4672  11.315  39.954  10.409
32413W        W 4673  16.748  40.335  13.941
32414W        W 4674  18.742   0.327  11.401
32415W        W 4675  22.637   0.955  14.020
32416W        W 4676  13.709  42.281  13.875
32417W        W 4677  35.005   3.405   1.227
32418W        W 4678  27.018  19.706   1.734
32419W        W 4679   0.915  29.578  12.047
32420W        W 4680  20.199  20.608   0.318
32421W        W 4681  18.585   8.716   2.817
32422W        W 4682   6.261  36.593  10.487
32423W        W 4683   4.421   4.204  10.629
32424W        W 4684  27.651   0.401   3.831
32425W        W 4685   9.307   6.839  13.513
32426W        W 4686  14.717  39.900   3.824
32427W        W 4687   0.774  39.442  12.959
32428W        W 4688  27.498  27.497  10.494
32429W        W 4689  10.722   2.250   2.791
32430W        W 4690  24.583  25.634  13.056
32431W        W 4691   1.260  30.160  13.324
32432W        W 4692   8.725  31.963   4.166
32433W        W 4693  18.273  43.400  12.342
32434W        W 4694  38.849  44.298  12.470
32435W        W 4695   6.705  28.477   9.976
32436W        W 4696  35.853  16.698   1.871
32437W        W 4697  41.508  23.167   2.324
32438W        W 4698   3.344  41.012   3.281
32439W        W 4699  37.871  37.925  10.457
32440W        W 4700  23.666  40.467   0.315
32441W        W 4701   0.817   3.824  11.490
32442W        W 4702   1.257   6.694  12.469
32443W        W 4703  10.205  34.045   2.822
32444W        W 4704  34.934   2.229   0.323
32445W        W 4705  36.899  32.485   3.276
32446W        W 4706  34.469  21.136   9.949
32447W        W 4707  18.678  26.989  10.617
32448W        W 4708  11.837  20.556   1.380
32449W        W 4709  14.126  15.676   3.863
32450W        W 4710  28.605   6.235   0.252
32451W        W 4711  31.925  42.527   3.238
32452W        W 4712  35.381   4.730  13.427
32453W        W 4713  31.947  43.020   0.958
32454W        W 4714  22.038  39.966   3.231
32455W        W 4715  22.046  42.305  12.074
32456W        W 4716   3.943   8.194  13.318
32457W        W 4717  24.568   1.949   1.826
32458W        W 4718  42.943  21.131   4.155
32459W        W 4719  44.353  28.477   3.738
32460W        W 4720  19.258   7.281  13.366
32461W        W 4721  32.036  39.937   4.150
32462W        W 4722   2.235   3.336  14.801
32463W        W 4723  11.725  32.907  14.769
32464W        W 4724  35.974   8.800   1.383
32465W        W 4725  34.120  11.716   3.795
32466W        W 4726   3.335   5.793  10.972
32467W        W 4727  15.757  13.783   4.115
32468W        W 4728   5.216  37.019   3.659
32469W        W 4729  19.052  31.109   3.293
32470W        W 4730   0.377   8.342  12.974
32471W        W 4731  13.628  10.304  12.924
32472W        W 4732  32.006  42.917   1.448
32473W        W 4733   5.307  28.473  13.822
32474W        W 4734   1.799  30.089   2.831
32475W        W 4735  38.824  33.520  11.955
32476W        W 4736  19.137   2.779  12.026
32477W        W 4737  35.986  34.918  13.870
32478W        W 4738  20.209   9.770  11.049
32479W        W 4739  38.847   5.790   5.240
32480W        W 4740  36.976  41.794  10.550
32481W        W 4741  22.652  29.037   4.685
32482W        W 4742  28.946  18.562  13.533
32483W        W 4743  37.467  38.890  14.359
32484W        W 4744  25.993  39.897  11.575
32485W        W 4745  41.535  41.012   0.419
32486W        W 4746  26.118  25.603   4.260
32487W        W 4747  18.103   9.223   0.372
32488W        W 4748  10.740  22.654   2.745
32489W        W 4749  13.628  43.906   4.637
32490W        W 4750  11.245   8.897   3.153
32491W        W 4751  20.739  37.420   1.214
32492W        W 4752  11.823  27.008   1.907
32493W        W 4753   9.771  23.634   2.723
32494W        W 4754  37.434  24.708   2.733
32495W        W 4755  44.493  18.287  12.459
32496W        W 4756  27.571  22.104  13.834
32497W        W 4757  37.913  12.233   0.323
32498W        W 4758  23.034   1.789   3.734
32499W        W 4759  41.519  24.608   1.398
32500W        W 4760  28.545  44.302  11.574
32501W        W 4761  40.536  14.124  14.865
32502W        W 4762   3.282  28.490   2.365
32503W        W 4763   7.715  33.410   5.124
32504W        W 4764  44.834  29.101   0.868
32505W        W 4765  12.742   7.392  10.590
32506W        W 4766  27.521  41.323  14.302
32507W        W 4767  25.554  40.814  13.027
32508W        W 4768  36.985  24.180  10.572
32509W        W 4769   9.714   9.712   2.385
32510W        W 4770  14.752  16.314   5.303
32511W        W 4771  15.667  27.597   3.307
32512W        W 4772  45.000  33.942  12.858
32513W        W 4773  17.295  42.805   0.900
32514W        W 4774  42.822  33.956  13.955
32515W        W 4775  36.875   6.786  12.556
32516W        W 4776   5.798  35.006  12.989
32517W        W 4777  31.591  39.816   0.967
32518W        W 4778  14.235  10.146   4.323
32519W        W 4779   9.251  12.146   1.386
32520W        W 4780   2.360  30.037  14.902
32521W        W 4781  38.485  13.280   1.320
32522W        W 4782   8.667   6.280  12.489
32523W        W 4783  22.090  43.435  11.411
32524W        W 4784  44.990   7.304   1.790
32525W        W 4785  31.425  38.563  13.942
32526W        W 4786  12.655   6.857  13.964
32527W        W 4787  21.512  16.671   1.352
32528W        W 4788  39.485  29.992   4.756
32529W        W 4789   6.713  12.766   2.277
32530W        W 4790  33.399  40.049  11.526
32531W        W 4791  39.022   8.309   3.180
32532W        W 4792  17.174  18.604   0.860
32533W        W 4793   4.911   9.262   1.721
32534W        W 4794  18.082  32.095   4.815
32535W        W 4795  25.545   4.701   1.421
32536W        W 4796  39.949  30.622  13.485
32537W        W 4797   9.858  20.078  10.408
32538W        W 4798   5.302  23.554   2.775
32539W        W 4799   8.269  32.460  13.446
32540W        W 4800  15.219  26.954   2.870
32541W        W 4801   4.736  35.423  12.458
32542W        W 4802  18.741  25.167   3.708
32543W        W 4803  22.683   2.239   0.831
32544W        W 4804  38.066  19.127  10.521
32545W        W 4805  44.832   1.800  12.395
32546W        W 4806  11.242  43.362   4.222
32547W        W 4807   8.814  12.278  14.299
32548W        W 4808  13.178  35.368   0.427
32549W        W 4809  25.498  44.824   4.259
32550W        W 4810   0.955  37.087   4.689
32551W        W 4811  37.033   7.220  13.521
32552W        W 4812  19.115   4.888   3.282
32553W        W 4813  27.652   7.387  11.042
32554W        W 4814  27.594  25.580  11.455
32555W        W 4815  36.368   5.413   0.481
32556W        W 4816  14.223  19.144  11.062
32557W        W 4817  43.391  22.155   2.257
32558W        W 4818  18.745  35.856  10.986
32559W        W 4819   0.438  11.128   4.805
32560W        W 4820  28.500  44.979   1.743
32561W        W 4821  19.238  27.445  13.803
32562W        W 4822  20.537  11.743  11.440
32563W        W 4823  43.010  12.202   3.818
32564W        W 4824   5.330  39.062   2.786
32565W        W 4825  20.574  30.442  12.552
32566W        W 4826  13.718  37.410   0.289
32567W        W 4827  26.185  18.254   1.830
32568W        W 4828  39.822   8.762  11.954
32569W        W 4829  43.928   4.871  11.520
32570W        W 4830  33.996  44.426   2.764
32571W        W 4831  31.075  11.350   1.267
32572W        W 4832  17.557  35.899  11.518
32573W        W 4833  12.349  41.799  12.874
32574W        W 4834  20.658  42.330  13.332
32575W        W 4835   0.458  29.164  14.293
32576W        W 4836  27.183  40.927  12.966
32577W        W 4837  40.449  17.686  14.387
32578W        W 4838  17.750  44.911  12.490
32579W        W 4839  12.793  35.998  11.588
32580W        W 4840  16.228   6.264   4.298
32581W        W 4841  32.522  31.961  11.530
32582W        W 4842  22.588  36.422   3.246
32583W        W 4843  37.359  26.587  14.793
32584W        W 4844  38.472  36.896   4.351
32585W        W 4845  39.058  11.171   1.935
32586W        W 4846  32.136  12.321  11.408
32587W        W 4847  34.392   0.317  13.049
32588W        W 4848  43.840  30.933  11.928
32589W        W 4849  23.567  41.867  14.964
32590W        W 4850  14.263  42.791   0.256
32591W        W 4851  43.472   1.955  12.941
32592W        W 4852  23.519  22.698   2.181
32593W        W 4853   1.895   1.367   1.798
32594W        W 4854  27.498  40.834   1.878
32595W        W 4855  36.531  22.747  13.498
32596W        W 4856  32.412  23.594  13.456
32597W        W 4857  35.559  14.766  13.315
32598W        W 4858  10.644  30.046  10.619
32599W        W 4859  37.843   6.377   4.653
32600W        W 4860   2.881  29.092  11.893
32601W        W 4861  28.007  31.046  11.539
32602W        W 4862  35.495   7.831  13.468
32603W        W 4863  31.524  11.692   0.363
32604W        W 4864  22.059  10.330   2.289
32605W        W 4865   5.922  19.276  12.449
32606W        W 4866  39.997  26.201  10.940
32607W        W 4867  32.521  42.964   0.839
32608W        W 4868  12.688  35.026   2.711
32609W        W 4869  16.668   6.344   0.860
32610W        W 4870  24.210  16.095  11.863
32611W        W 4871  16.671   6.896   5.194
32612W        W 4872  10.301  24.192  12.384
32613W        W 4873  17.153  43.343   1.807
32614W        W 4874  36.361  31.896   2.883
32615W        W 4875  25.982  18.143   3.664
32616W        W 4876  17.238  28.166   1.451
32617W        W 4877  18.271   9.378  14.344
32618W        W 4878  37.023   8.690   9.991
32619W        W 4879  26.650  13.611  13.359
32620W        W 4880   2.822  22.158  12.984
32621W        W 4881  23.016  21.169  12.050
32622W        W 4882  19.209  17.658  13.819
32623W        W 4883  13.159  28.548  14.820
32624W        W 4884  34.011  13.270  10.965
32625W        W 4885   9.834  36.371   4.202
32626W        W 4886  35.358  39.335  10.495
32627W        W 4887  23.011  32.015   4.135
32628W        W 4888  13.716  36.963   3.792
32629W        W 4889  13.801  29.438  14.412
32630W        W 4890  24.015  13.142   1.278
32631W        W 4891  13.810  16.742   2.400
32632W        W 4892  21.187  34.521  12.469
32633W        W 4893   1.921  28.952  12.406
32634W        W 4894  30.544  22.241  13.900
32635W        W 4895  40.801  42.331   3.761
32636W        W 4896  24.559  35.073   3.374
32637W        W 4897  41.037  31.629   4.277
32638W        W 4898   6.261  35.416   1.389
32639W        W 4899  39.912   6.194  10.918
32640W        W 4900  34.971  22.183  10.514
32641W        W 4901  18.654  38.396   1.865
32642W        W 4902  20.600  12.140   1.235
32643W        W 4903  20.146  24.685  10.970
32644W        W 4904  34.921  18.617   2.792
32645W        W 4905  43.937  18.546  13.429
32646W        W 4906  42.800  41.417   3.368
32647W        W 4907  22.522  14.711  12.874
32648W        W 4908  24.725   9.859   2.259
32649W        W 4909  26.973  44.269  10.155
32650W        W 4910   3.794  23.219   2.321
32651W        W 4911  14.220  27.998  13.311
32652W        W 4912   6.748   1.769  11.032
32653W        W 4913  34.498  41.031   2.274
32654W        W 4914  36.928  27.624   3.795
32655W        W 4915  28.083  43.807   0.873
32656W        W 4916   8.245   9.667   0.480
32657W        W 4917   1.284  20.763   4.826
32658W        W 4918   8.173   5.348   1.374
32659W        W 4919  41.325  15.132  10.460
32660W        W 4920  31.001  28.139  12.922
32661W        W 4921   2.948  38.941   3.225
32662W        W 4922   8.291  41.935   4.654
32663W        W 4923   2.838  24.484   3.695
32664W        W 4924  28.477  27.670   2.200
32665W        W 4925  19.606  15.718  10.599
32666W        W 4926  37.581  11.146  10.933
32667W        W 4927  26.587   6.287   0.946
32668W        W 4928   5.424  20.112   1.832
32669W        W 4929  29.665   1.854  13.468
32670W        W 4930  21.671  27.617   3.823
32671W        W 4931  20.052  29.160   0.462
32672W        W 4932  36.952   6.701   1.884
32673W        W 4933  43.914  27.570   3.312
32674W        W 4934  21.190  24.496   3.771
32675W        W 4935  36.041  43.853  10.570
32676W        W 4936  15.152  39.977   0.398
32677W        W 4937  19.751  15.613   0.395
32678W        W 4938  34.608  37.482  12.905
32679W        W 4939   6.196  11.787  12.559
32680W        W 4940  42.807   4.935   2.380
32681W        W 4941  11.179  16.253  13.862
32682W        W 4942   2.309  42.329   2.794
32683W        W 4943  30.061  17.716   4.746
32684W        W 4944  41.323  35.404  12.348
32685W        W 4945  22.607  21.024   4.831
32686W        W 4946  18.595   6.264  12.377
32687W        W 4947  10.742  11.802   4.795
32688W        W 4948  10.274  30.575  11.977
32689W        W 4949  31.515   1.758   1.902
32690W        W 4950  22.697  40.444  14.012
32691W        W 4951  10.349  14.773   4.253
32692W        W 4952  11.164   6.389  14.501
32693W        W 4953   0.920  40.383   0.323
32694W        W 4954   4.377  34.113   4.606
32695W        W 4955   9.859  14.675  10.953
32696W        W 4956   5.737  17.296  12.373
32697W        W 4957  44.301  19.676  11.067
32698W        W 4958  38.462  25.989   4.613
32699W        W 4959   5.266  31.527   2.376
32700W        W 4960  35.948   2.397  12.975
32701W        W 4961  41.534   9.870  10.454
32702W        W 4962  24.035  17.750  12.487
32703W        W 4963  19.702   0.450   3.772
32704W        W 4964  22.543  12.768  12.385
32705W        W 4965   1.374  24.124   1.874
32706W        W 4966  34.368  43.341   3.671
32707W        W 4967  13.138  13.350   0.412
32708W        W 4968  12.282  19.173  12.899
32709W        W 4969  21.253  11.829  12.852
32710W        W 4970  36.488  23.589  10.436
32711W        W 4971   8.842   9.852  12.074
32712W        W 4972   1.853  27.656  12.496
32713W        W 4973  21.692   5.818  10.422
32714W        W 4974   6.230  25.217   0.397
32715W        W 4975  44.966   9.830   4.201
32716W        W 4976   2.912  17.248  13.522
32717W        W 4977  27.528  30.081   1.927
32718W        W 4978  33.096  37.020   4.801
32719W        W 4979  27.567  27.049   4.724
32720W        W 4980  24.613  11.667  10.558
32721W        W 4981  21.160  32.622  13.027
32722W        W 4982  42.842  36.008   9.984
32723W        W 4983  30.920  25.071  12.364
32724W        W 4984   9.679  26.068   1.807
32725W        W 4985  42.918   0.489   2.359
32726W        W 4986  22.214  37.890   3.692
32727W        W 4987  16.661  13.740  14.467
32728W        W 4988  36.466  39.991  13.883
32729W        W 4989   9.330  23.559  13.356
32730W        W 4990  43.803  37.878   1.404
32731W        W 4991  23.495  28.455  13.472
32732W        W 4992  30.648  21.040   0.913
32733W        W 4993   3.919  22.720  11.925
32734W        W 4994   8.210  21.202   2.886
32735W        W 4995  24.050  40.404  13.458
32736W        W 4996  21.255   4.755   1.421
32737W        W 4997  18.781  25.151   1.234
32738W        W 4998   4.399  12.642   2.292
32739W        W 4999   6.836  41.432  10.524
32740W        W 5000   1.915  27.059  14.985
32741W        W 5001  37.510   1.304   1.396
32742W        W 5002  20.167  32.013  14.480
32743W        W 5003  28.035  13.669   4.253
32744W        W 5004  35.555   1.318   3.225
32745W        W 5005  23.228   4.244   3.653
32746W        W 5006   9.216  43.311   2.273
32747W        W 5007  33.523  43.299   0.751
32748W        W 5008  33.040  10.238   2.829
32749W        W 5009   4.857  31.443   0.275
32750W        W 5010   1.846   2.274  10.557
32751W        W 5011   2.825  19.167  13.057
32752W        W 5012  13.785  17.203  11.424
32753W        W 5013  15.697   0.940  13.997
32754W        W 5014   6.390   1.374   0.358
32755W        W 5015   4.218  42.928   5.195
32756W        W 5016   6.397  43.274   0.911
32757W        W 5017  12.128  44.824  14.781
32758W        W 5018  33.886  18.572  11.864
32759W        W 5019  16.675  30.083  13.521
32760W        W 5020  18.756  42.794   4.194
32761W        W 5021  27.943  21.665   4.229
32762W        W 5022  14.818  40.475  13.058
32763W        W 5023  38.324  28.153   0.257
32764W        W 5024  35.960  31.992   3.295
32765W        W 5025  28.583  39.887  10.450
32766W        W 5026  35.855  17.738  13.933
32767W        W 5027  16.120  34.399   2.819
32768W        W 5028  32.016  29.646  11.927
32769W        W 5029  32.057   8.686   0.392
32770W        W 5030  33.907  17.749  11.085
32771W        W 5031  20.224  15.626  11.005
32772W        W 5032  19.576  33.524  12.505
32773W        W 5033   2.901  19.547   3.689
32774W        W 5034   1.785  21.590  11.066
32775W        W 5035  12.612  28.654   4.282
32776W        W 5036  15.100  10.811   2.836
32777W        W 5037   7.260   4.390   0.732
32778W        W 5038  39.918  34.609  11.573
32779W        W 5039  36.059   3.864   5.171
32780W        W 5040  29.469  24.093  10.502
32781W        W 5041  12.842  43.976  14.019
32782W        W 5042  27.168   4.743   1.219
32783W        W 5043  31.466  39.984  13.395
32784W        W 5044  40.988  42.877  13.912
32785W        W 5045  40.988   2.245  12.366
32786W        W 5046   7.710  41.869   4.323
32787W        W 5047  31.406  17.773   1.279
32788W        W 5048  27.140  22.143   0.277
32789W        W 5049  31.556  15.814  12.877
32790W        W 5050   8.238  38.388  11.506
32791W        W 5051  30.976   1.400  11.435
32792W        W 5052   3.263   4.858  14.795
32793W        W 5053  27.173  11.866  13.352
32794W        W 5054  14.219  36.437   1.880
32795W        W 5055  35.032  18.273   2.202
32796W        W 5056   9.801  16.683  12.942
32797W        W 5057  32.032  41.457   0.370
32798W        W 5058   3.293  41.300  14.938
32799W        W 5059  20.259  43.832  14.913
32800W        W 5060  31.938  11.675  14.445
32801W        W 5061  21.618   5.229   4.834
32802W        W 5062  16.202  19.235  12.013
32803W        W 5063  14.664  23.168  11.502
32804W        W 5064  29.135   9.840   4.303
32805W        W 5065  31.031   7.894  14.998
32806W        W 5066   4.732   0.785   3.797
32807W        W 5067  18.585  13.331   0.903
32808W        W 5068  14.741  43.792   4.352
32809W        W 5069   7.353  25.658   0.939
32810W        W 5070  28.504  35.466   4.332
32811W        W 5071  33.392  39.396   1.276
32812W        W 5072   5.221  39.004  14.343
32813W        W 5073  30.627   2.300  14.886
32814W        W 5074  25.699  28.125   2.895
32815W        W 5075   3.926  37.505   5.247
32816W        W 5076   3.714  18.583   2.323
32817W        W 5077   2.364   8.307  11.557
32818W        W 5078  32.072  44.306  13.039
32819W        W 5079  27.569  19.152   2.896
32820W        W 5080  27.020  23.657  11.104
32821W        W 5081  29.920   3.906  11.458
32822W        W 5082  35.961  44.988   3.161
32823W        W 5083  12.783  42.484   4.266
32824W        W 5084  43.338  34.923  11.545
32825W        W 5085  11.180   7.181  14.464
32826W        W 5086  24.647   9.392  13.854
32827W        W 5087  40.935   6.784   3.331
32828W        W 5088  42.786  39.353  13.879
32829W        W 5089  12.258  31.926  11.914
32830W        W 5090   6.337  26.054   2.381
32831W        W 5091   1.294   1.900   3.209
32832W        W 5092  37.336  14.281   3.723
32833W        W 5093  39.396   0.335  11.011
32834W        W 5094  23.232   7.179   2.834
32835W        W 5095  14.271  43.968   1.768
32836W        W 5096  37.968  11.649   0.812
32837W        W 5097  36.073  31.100   3.334
32838W        W 5098  14.710   2.269  13.358
32839W        W 5099  28.598  14.182   0.275
32840W        W 5100  35.109  26.193  11.954
32841W        W 5101  39.542  43.858   4.626
32842W        W 5102   0.821  34.479  12.925
32843W        W 5103   7.866  38.927   5.263
32844W        W 5104  33.523  20.631  14.856
32845W        W 5105  41.291  21.576   4.270
32846W        W 5106   2.741  27.582  11.465
32847W        W 5107  18.584  10.153   1.372
32848W        W 5108   3.891  29.086   0.789
32849W        W 5109  41.013  17.769   0.770
32850W        W 5110   1.291   4.904  12.358
32851W        W 5111   9.705  22.204  10.422
32852W        W 5112   5.718  37.898  11.084
32853W        W 5113  42.511  13.317   3.851
32854W        W 5114  34.031  42.969  10.923
32855W        W 5115   2.457  37.934  10.986
32856W        W 5116  30.588  44.796  13.940
32857W        W 5117   5.722  13.163  10.994
32858W        W 5118  38.914  34.040  11.006
32859W        W 5119  18.674  42.290  12.529
32860W        W 5120  23.589  34.911   0.957
32861W        W 5121  13.153  26.562   2.294
32862W        W 5122   7.304  38.429   0.932
32863W        W 5123   4.365  20.576  12.409
32864W        W 5124  24.634  14.701   3.349
32865W        W 5125  12.728  29.628  14.894
32866W        W 5126  33.406  17.148   4.268
32867W        W 5127   0.832  15.293   1.732
32868W        W 5128  32.935  16.669  11.919
32869W        W 5129  10.183   4.804  10.985
32870W        W 5130  22.249  35.421   2.311
32871W        W 5131  29.659   5.744   3.805
32872W        W 5132  11.786  12.362  13.962
32873W        W 5133   6.244  38.025   2.776
32874W        W 5134  32.955  42.993  11.947
32875W        W 5135  15.203  31.500  14.933
32876W        W 5136  17.258  28.675  10.477
32877W        W 5137  43.802  37.430   3.781
32878W        W 5138  32.132  31.925   1.910
32879W        W 5139   0.892   7.710  11.517
32880W        W 5140  43.336   1.794  14.360
32881W        W 5141   9.804  18.238   4.623
32882W        W 5142  36.455  28.526  14.352
32883W        W 5143  44.317   3.299  14.794
32884W        W 5144  26.639   2.871   1.423
32885W        W 5145  18.722  20.592   1.395
32886W        W 5146  24.603  39.000  10.895
32887W        W 5147  38.520  17.080   2.191
32888W        W 5148  22.620  28.170   2.867
32889W        W 5149  18.772  31.427  14.907
32890W        W 5150  20.597   9.279  12.407
32891W        W 5151  19.651  31.406  10.423
32892W        W 5152   5.416  16.079   3.711
32893W        W 5153   6.218  28.073   9.476
32894W        W 5154  24.076  15.802   2.778
32895W        W 5155  35.418  21.234  14.470
32896W        W 5156   9.303   5.760  13.002
32897W        W 5157  42.515  34.370  10.914
32898W        W 5158  40.337  17.272  14.383
32899W        W 5159   4.914   7.416  12.060
32900W        W 5160   3.842  26.582   4.706
32901W        W 5161  18.629  42.461  11.001
32902W        W 5162  40.814  10.199  14.333
32903W        W 5163   7.860   4.815  13.799
32904W        W 5164   3.927  13.601  11.579
32905W        W 5165  10.763  21.185   3.825
32906W        W 5166   8.835  35.005  11.414
32907W        W 5167  15.777  40.987  10.927
32908W        W 5168  33.607   0.792   2.322
32909W        W 5169  33.487  32.929   0.441
32910W        W 5170  38.486  19.769  12.484
32911W        W 5171  14.292   1.466  14.463
32912W        W 5172  31.488   2.409  11.973
32913W        W 5173  44.474  14.205  10.937
32914W        W 5174  16.116  44.830   4.144
32915W        W 5175  29.473  20.143   4.201
32916W        W 5176  36.041  24.601   4.166
32917W        W 5177  40.482  13.712  14.327
32918W        W 5178  18.170   6.384  13.427
32919W        W 5179   1.739  40.821  10.532
32920W        W 5180  16.797   1.888  12.094
32921W        W 5181   6.804  20.253   1.294
32922W        W 5182  19.559  15.215  10.451
32923W        W 5183  18.233   1.788  10.473
32924W        W 5184  34.580   6.820  13.313
32925W        W 5185  44.370  40.412   4.131
32926W        W 5186  31.505   2.402   0.953
32927W        W 5187  18.570  22.685  13.833
32928W        W 5188  13.786  24.041  12.901
32929W        W 5189  32.930   0.742  13.944
32930W        W 5190  20.738  31.083  11.441
32931W        W 5191  26.131  19.216  11.406
32932W        W 5192  16.203  31.050  10.890
32933W        W 5193  13.110  24.224   3.791
32934W        W 5194   8.379   6.277  10.956
32935W        W 5195   5.200   9.887  13.975
32936W        W 5196  17.778   1.322   0.827
32937W        W 5197   1.452  26.040   2.349
32938W        W 5198   1.919  13.818  13.870
32939W        W 5199  44.812  26.977  14.815
32940W        W 5200  43.416  42.283   2.345
32941W        W 5201  30.999  36.410   0.919
32942W        W 5202  44.773  14.665  11.527
32943W        W 5203   4.377  10.835   0.830
32944W        W 5204  17.796   6.359  13.864
32945W        W 5205  33.984   7.395   0.412
32946W        W 5206  43.866   3.832  11.037
32947W        W 5207  26.192  34.116  14.901
32948W        W 5208  35.048   5.888   3.342
32949W        W 5209  28.640  32.550   5.579
32950W        W 5210   3.760  38.898  13.412
32951W        W 5211  16.182   3.274   0.949
32952W        W 5212  21.725  39.384  10.413
32953W        W 5213  44.312  41.924  11.025
32954W        W 5214  30.935   7.394   1.285
32955W        W 5215  13.715  44.847   1.377
32956W        W 5216   5.716  28.943   5.159
32957W        W 5217  27.940  17.076   4.758
32958W        W 5218  36.434  44.358   3.825
32959W        W 5219  20.104  11.710  13.354
32960W        W 5220   3.227   4.386  11.872
32961W        W 5221  23.617  34.495   1.723
32962W        W 5222  20.708  12.667  11.019
32963W        W 5223  27.966   1.758   0.449
32964W        W 5224  25.707   1.384  10.506
32965W        W 5225  37.987   0.436  14.003
32966W        W 5226   7.238  30.573  14.497
32967W        W 5227  23.045  42.992   2.396
32968W        W 5228   8.763  31.486  14.851
32969W        W 5229  34.890  40.048   1.307
32970W        W 5230  11.737  27.682   4.260
32971W        W 5231  39.996  26.010   1.855
32972W        W 5232  34.512  28.671  12.534
32973W        W 5233  17.713  33.910   2.799
32974W        W 5234   4.816  16.587   2.802
32975W        W 5235  33.026  26.088   3.787
32976W        W 5236  19.682   2.903  14.851
32977W        W 5237  16.268  40.448   2.712
32978W        W 5238  40.941  44.409  10.504
32979W        W 5239  20.262  25.026  14.929
32980W        W 5240  29.529  38.365  13.329
32981W        W 5241   2.859   0.857   3.852
32982W        W 5242  10.823  19.628   4.317
32983W        W 5243  15.808  30.439   2.813
32984W        W 5244  23.635  17.695   2.287
32985W        W 5245   1.978  33.936   4.820
32986W        W 5246   9.756   4.328   0.470
32987W        W 5247  15.253  26.499   1.250
32988W        W 5248  17.090   0.415  11.608
32989W        W 5249  30.482   5.372   0.321
32990W        W 5250  32.054  26.958  14.436
32991W        W 5251  16.170  42.504   0.279
32992W        W 5252  22.234   7.732   2.694
32993W        W 5253  12.782  31.616   0.812
32994W        W 5254  32.453   7.395  11.425
32995W        W 5255   7.730  44.428  12.512
32996W        W 5256  25.051  20.269   3.692
32997W        W 5257  20.131  20.202   4.820
32998W        W 5258   9.820  24.208   2.823
32999W        W 5259  36.930  31.051  10.451
33000W        W 5260  41.377  35.054  13.514
33001W        W 5261  12.628  26.095  12.463
33002W        W 5262  25.622   9.259   0.954
33003W        W 5263  41.495  42.321  14.958
33004W        W 5264  43.472   1.952   1.277
33005W        W 5265   8.346  19.729   3.658
33006W        W 5266  17.295  28.640  14.367
33007W        W 5267   4.302  36.441  12.496
33008W        W 5268  42.029  41.422  12.935
33009W        W 5269  31.087  43.344  13.444
33010W        W 5270  12.141  27.510  11.067
33011W        W 5271  25.188   0.954  14.492
33012W        W 5272   4.911  21.076  10.463
33013W        W 5273   2.330  27.082   2.264
33014W        W 5274  18.762  32.984   2.382
33015W        W 5275  25.495  33.081   1.324
33016W        W 5276  20.596  44.332  10.922
33017W        W 5277   7.303  28.434   0.429
33018W        W 5278   5.427  13.774   3.820
33019W        W 5279  33.097   3.235  10.598
33020W        W 5280  32.595   3.388   2.835
33021W        W 5281   1.814  21.656  13.526
33022W        W 5282  14.097  33.616   0.466
33023W        W 5283   1.852  25.589  13.973
33024W        W 5284   8.194  32.904   3.853
33025W        W 5285  40.396  38.880  13.041
33026W        W 5286  24.105  28.170   0.379
33027W        W 5287  32.392  37.390  12.455
33028W        W 5288  23.132  33.904   3.832
33029W        W 5289  26.569  22.144  10.559
33030W        W 5290   8.182  14.169   0.273
33031W        W 5291  15.244  30.920   1.805
33032W        W 5292  28.018  43.435   2.726
33033W        W 5293  28.583  16.679  13.880
33034W        W 5294  38.538  13.200  11.064
33035W        W 5295  20.122   8.204  13.004
33036W        W 5296  22.079  27.667  12.437
33037W        W 5297  34.523  25.585  12.547
33038W        W 5298   3.912  38.424  14.887
33039W        W 5299  32.455   7.299  12.461
33040W        W 5300  16.286  17.228   5.726
33041W        W 5301  17.797  36.079   3.258
33042W        W 5302  27.149   4.347   1.446
33043W        W 5303   4.843  11.128  10.924
33044W        W 5304  26.960  17.583  11.475
33045W        W 5305  30.529   3.710   2.754
33046W        W 5306  15.634  16.156  13.440
33047W        W 5307  24.556   8.386  10.421
33048W        W 5308  10.762  32.548  12.431
33049W        W 5309  31.045  38.009   3.865
33050W        W 5310  40.977  18.720  14.407
33051W        W 5311  38.368  42.527  12.035
33052W        W 5312  16.615  15.683   5.614
33053W        W 5313  37.551  17.759   4.143
33054W        W 5314  40.901   5.700   2.852
33055W        W 5315   1.260  31.022  13.815
33056W        W 5316  11.267  19.197  13.062
33057W        W 5317  38.496   3.329   1.813
33058W        W 5318  24.580  12.639   0.478
33059W        W 5319  24.724  20.066   3.759
33060W        W 5320  44.933  38.054   2.253
33061W        W 5321  30.490  27.152   2.377
33062W        W 5322  27.637  37.086   2.754
33063W        W 5323  38.394  14.330   0.876
33064W        W 5324   8.359  16.224  10.582
33065W        W 5325  16.272  39.993   2.715
33066W        W 5326  17.631   0.773   3.380
33067W        W 5327  14.652  11.220  10.423
33068W        W 5328  21.123  14.106  10.014
33069W        W 5329  21.707   3.393  11.469
33070W        W 5330  30.470   6.800   4.820
33071W        W 5331   0.867  42.298  12.049
33072W        W 5332  18.189  44.822  13.339
33073W        W 5333  39.343  35.425   2.733
33074W        W 5334   4.736  14.760  10.596
33075W        W 5335   0.771  12.248  11.980
33076W        W 5336  23.529   5.311  11.457
33077W        W 5337  14.241   3.277  14.352
33078W        W 5338   0.471   1.436  14.940
33079W        W 5339  12.741  23.143   2.267
33080W        W 5340   8.831  17.255   2.691
33081W        W 5341   4.400  39.971   2.401
33082W        W 5342  43.291  27.656  10.912
33083W        W 5343  38.989  34.586   4.354
33084W        W 5344  33.091  34.380  13.807
33085W        W 5345  10.174  29.496  13.055
33086W        W 5346   8.683   4.279   2.297
33087W        W 5347  36.375  34.418  11.062
33088W        W 5348  33.464  12.647   4.338
33089W        W 5349  15.797  33.384   0.838
33090W        W 5350  16.178  39.388   2.233
33091W        W 5351  30.502   3.878   3.825
33092W        W 5352  17.634  41.397  11.579
33093W        W 5353  26.490  14.809   0.959
33094W        W 5354  21.099   3.893  14.798
33095W        W 5355  42.828  27.993  13.965
33096W        W 5356   7.688  27.654  11.467
33097W        W 5357  26.145  37.906  11.401
33098W        W 5358  26.552   2.751  10.937
33099W        W 5359  16.808  22.014  13.869
33100W        W 5360   4.919  36.878  12.945
33101W        W 5361  40.823  17.288  13.037
33102W        W 5362  26.011  41.331   3.306
33103W        W 5363  37.066   0.444  11.064
33104W        W 5364  40.835  33.893  10.627
33105W        W 5365  10.309  13.312   3.677
33106W        W 5366  16.659  27.595   3.759
33107W        W 5367  13.326  10.143  13.030
33108W        W 5368   7.319  14.736  13.824
33109W        W 5369  34.087  19.185  14.505
33110W        W 5370  34.422  18.777  13.876
33111W        W 5371   7.264  17.790   4.784
33112W        W 5372  35.493  20.035   3.763
33113W        W 5373   7.728  39.459  10.947
33114W        W 5374   0.484  44.794  11.978
33115W        W 5375  16.288   7.826  11.964
33116W        W 5376  28.120  15.308  14.765
33117W        W 5377   6.281  36.986  14.880
33118W        W 5378   2.240  10.313   3.821
33119W        W 5379  44.865  42.002   3.254
33120W        W 5380  21.669  31.646   2.204
33121W        W 5381  42.989  21.027  11.002
33122W        W 5382  36.551  42.441  11.070
33123W        W 5383  35.987  27.978  12.079
33124W        W 5384  26.650  23.494   2.749
33125W        W 5385  32.416  18.053  12.016
33126W        W 5386  25.468   5.275  10.557
33127W        W 5387  27.526  12.223   4.291
33128W        W 5388   5.377  44.006   2.903
33129W        W 5389  14.240  20.168  13.403
33130W        W 5390  43.390  36.098  14.476
33131W        W 5391  41.843  44.322  14.801
33132W        W 5392  17.665  38.387   1.377
33133W        W 5393  18.588  30.632   4.338
33134W        W 5394   9.796  24.229  11.529
33135W        W 5395  13.326  19.180  13.428
33136W        W 5396  39.994   5.428  14.480
33137W        W 5397  22.148  21.120   4.193
33138W        W 5398  16.118  40.540   3.843
33139W        W 5399  36.942  20.758   4.798
33140W        W 5400   5.779  30.021  14.766
33141W        W 5401  24.192  36.557   1.340
33142W        W 5402  13.682  21.228   3.234
33143W        W 5403  27.026  35.534   4.693
33144W        W 5404  25.695  21.067   3.164
33145W        W 5405   6.389   7.669   0.895
33146W        W 5406  21.614  24.975   1.863
33147W        W 5407  34.563   1.248  10.527
33148W        W 5408  39.961  37.361  12.993
33149W        W 5409  31.465   5.796   4.150
33150W        W 5410   7.750  21.151   4.162
33151W        W 5411  38.071  13.815  14.472
33152W        W 5412  19.684   0.835  12.828
33153W        W 5413  27.982  36.055  11.588
33154W        W 5414   7.854  14.228  11.005
33155W        W 5415  13.840  41.000  14.428
33156W        W 5416   5.856   3.416   1.252
33157W        W 5417  12.771  18.622   2.262
33158W        W 5418   5.843   4.281  10.986
33159W        W 5419   3.778  15.309  13.034
33160W        W 5420  19.677   6.736   2.750
33161W        W 5421  21.687   4.838  12.963
33162W        W 5422  33.570  13.138  11.011
33163W        W 5423  41.940   9.706   4.690
33164W        W 5424  38.980  39.996  11.966
33165W        W 5425  32.039  29.439   2.246
33166W        W 5426  29.998   4.389  11.566
33167W        W 5427   6.816  23.656  12.078
33168W        W 5428  29.081   9.772   3.809
33169W        W 5429  38.523  13.157   1.883
33170W        W 5430  36.057  29.582   1.375
33171W        W 5431   4.302  34.016   3.785
33172W        W 5432   4.824  38.897  13.822
33173W        W 5433   6.842  39.944  10.956
33174W        W 5434  42.988  22.168   4.128
33175W        W 5435   2.796  16.694  13.011
33176W        W 5436   7.257  23.515  10.633
33177W        W 5437  38.365   5.789   1.437
33178W        W 5438  22.569  13.844   3.667
33179W        W 5439   9.733  37.542  14.777
33180W        W 5440   6.798  17.669  10.420
33181W        W 5441  18.132  25.993   2.689
33182W        W 5442  19.725  41.867  13.041
33183W        W 5443  44.935  41.338  10.458
33184W        W 5444  20.606   2.919   3.186
33185W        W 5445  38.894  24.683   3.237
33186W        W 5446  35.082   7.382  10.135
33187W        W 5447  23.135  18.057  14.951
33188W        W 5448  22.631   8.216  11.950
33189W        W 5449  15.702  38.451  14.483
33190W        W 5450  23.150  39.904  13.435
33191W        W 5451  15.680  19.639   1.346
33192W        W 5452  40.387  36.383   1.364
33193W        W 5453  18.645  33.992  14.441
33194W        W 5454  38.027  31.014   0.277
33195W        W 5455  28.497  42.798  12.477
33196W        W 5456  10.276  43.903  13.800
33197W        W 5457  25.995  19.222   0.903
33198W        W 5458  39.527   3.336  13.319
33199W        W 5459   0.975  24.991  11.520
33200W        W 5460  36.089  26.009  13.040
33201W        W 5461  40.893   5.346  11.966
33202W        W 5462  20.216  32.898   1.881
33203W        W 5463  38.520  37.016   0.259
33204W        W 5464   8.209  25.671   3.751
33205W        W 5465  40.894  17.253   3.857
33206W        W 5466  37.490  14.713   0.886
33207W        W 5467  12.211  33.924  10.976
33208W        W 5468   8.343  30.961   2.862
33209W        W 5469  13.656  17.588   2.258
33210W        W 5470  15.202  44.504  14.982
33211W        W 5471   6.400  24.036  14.981
33212W        W 5472  39.369  27.478   2.736
33213W        W 5473  28.572   5.933  13.814
33214W        W 5474  32.408  28.671  12.936
33215W        W 5475  27.963   8.728  13.842
33216W        W 5476  20.086  25.069   4.716
33217W        W 5477  33.509   0.830   1.872
33218W        W 5478  35.559  18.568  13.533
33219W        W 5479  11.169  16.134  11.427
33220W        W 5480   0.272   5.411  10.540
33221W        W 5481  17.644  33.592  14.973
33222W        W 5482  29.628  10.878   0.819
33223W        W 5483   5.313  44.304  12.960
33224W        W 5484  14.307  32.890  11.435
33225W        W 5485  10.138   5.290   4.274
33226W        W 5486  31.413   3.221  13.391
33227W        W 5487   9.764  30.544  14.369
33228W        W 5488   0.463  29.140   3.745
33229W        W 5489  40.318  25.179   3.773
33230W        W 5490  22.153   1.903  14.423
33231W        W 5491  36.883   0.443  11.995
33232W        W 5492  11.716  18.164  14.873
33233W        W 5493   2.295  25.694  13.000
33234W        W 5494  31.517  20.759   0.816
33235W        W 5495  27.951  21.545   1.368
33236W        W 5496  34.512  25.530   4.707
33237W        W 5497  31.459   8.817  14.776
33238W        W 5498  25.566   5.744   4.299
33239W        W 5499  30.622  14.722  13.543
33240W        W 5500  25.206  36.040   1.802
33241W        W 5501   4.765  10.300  14.767
33242W        W 5502  36.904   9.726   1.415
33243W        W 5503  34.040  21.515   3.688
33244W        W 5504  27.670   0.375  11.035
33245W        W 5505  42.336  29.995   2.386
33246W        W 5506  19.780   6.230  11.529
33247W        W 5507  15.769   7.282  14.843
33248W        W 5508  17.780  15.586   2.852
33249W        W 5509  35.986  37.398  13.865
33250W        W 5510  12.226   3.314  13.919
33251W        W 5511  29.109  18.190   0.318
33252W        W 5512  22.083  42.512   3.737
33253W        W 5513  40.039  39.846  11.426
33254W        W 5514  10.837  15.216   4.251
33255W        W 5515   5.357  38.354  12.535
33256W        W 5516  12.744  22.715  14.318
33257W        W 5517  44.800  12.221  10.592
33258W        W 5518  30.107  39.056   3.842
33259W        W 5519  42.813  33.464  13.427
33260W        W 5520  25.057  43.318   3.639
33261W        W 5521  28.185  31.068  10.933
33262W        W 5522  15.110  39.481  11.965
33263W        W 5523  14.747  32.920   4.689
33264W        W 5524   2.810  12.728  14.962
33265W        W 5525  15.182  18.681  11.433
33266W        W 5526  23.995  22.094   3.666
33267W        W 5527   9.367   5.779   1.694
33268W        W 5528   1.404  43.010   1.315
33269W        W 5529   1.411  15.771  11.968
33270W        W 5530  17.156   3.304  11.577
33271W        W 5531  24.993  16.566   0.333
33272W        W 5532  10.722  11.372  13.799
33273W        W 5533  32.472  32.987   4.218
33274W        W 5534  10.735   3.852  13.315
33275W        W 5535  39.470  34.375   5.264
33276W        W 5536   4.446  31.144  10.501
33277W        W 5537  15.299  38.908  10.124
33278W        W 5538  28.586   9.821  10.641
33279W        W 5539  33.410  35.991   2.679
33280W        W 5540  33.465   5.369  10.901
33281W        W 5541  13.688  39.549  11.559
33282W        W 5542  28.560  20.240   4.770
33283W        W 5543   6.212   9.256  12.867
33284W        W 5544  16.273  28.435  11.920
33285W        W 5545   3.374  33.455   1.825
33286W        W 5546  37.356  17.751  14.865
33287W        W 5547  14.628  26.575   3.789
33288W        W 5548  20.744  35.457  14.288
33289W        W 5549  41.041  21.018  12.966
33290W        W 5550  25.593   7.907  11.991
33291W        W 5551  42.431  21.595  14.841
33292W        W 5552  18.129   4.717  12.357
33293W        W 5553   7.207  18.583  10.572
33294W        W 5554  31.600  36.590  10.419
33295W        W 5555  16.073  16.231  11.381
33296W        W 5556  17.713  23.658  10.435
33297W        W 5557  12.342  11.720  14.345
33298W        W 5558  11.763  34.382  11.933
33299W        W 5559  25.639  14.629  12.495
33300W        W 5560  20.542  20.729   4.757
33301W        W 5561  35.087  10.717   4.691
33302W        W 5562  29.055   5.352   1.722
33303W        W 5563   5.718  16.637   1.250
33304W        W 5564  34.002   3.854  14.276
33305W        W 5565  36.454  30.468   2.902
33306W        W 5566  35.427  40.390  10.575
33307W        W 5567   3.422  29.537  12.020
33308W        W 5568   0.347  34.534   4.701
33309W        W 5569  25.183  41.853  11.105
33310W        W 5570  10.806  17.680   1.763
33311W        W 5571   3.835  13.117  12.447
33312W        W 5572  20.147  22.033   0.410
33313W        W 5573  14.653  17.697  14.462
33314W        W 5574  13.165  44.778  10.898
33315W        W 5575  24.585  29.939   1.441
33316W        W 5576  30.543  20.103  11.441
33317W        W 5577   6.382   9.702  14.395
33318W        W 5578  44.293  44.465  11.902
33319W        W 5579  32.101   0.263  12.075
33320W        W 5580  12.710  43.812   0.359
33321W        W 5581  35.567  39.412   4.226
33322W        W 5582  12.357  25.468  14.796
33323W        W 5583  36.860   6.286  11.063
33324W        W 5584  22.149  15.641   4.145
33325W        W 5585  21.577  25.526  14.865
33326W        W 5586   7.793   8.789  14.363
33327W        W 5587   7.303   3.880  10.892
33328W        W 5588   6.348  40.848  12.441
33329W        W 5589  38.985   6.218  11.888
33330W        W 5590  19.664  14.106   1.444
33331W        W 5591  14.781  12.118  11.054
33332W        W 5592  20.547  23.565  10.931
33333W        W 5593   8.762  34.614   0.391
33334W        W 5594  11.793  36.953  11.451
33335W        W 5595  17.679  32.414  10.950
33336W        W 5596  23.515  24.713  11.581
33337W        W 5597  28.451  33.489   4.770
33338W        W 5598  19.267   6.262  14.920
33339W        W 5599  25.180   9.663  13.973
33340W        W 5600   4.877  32.449  12.961
33341W        W 5601  15.698  28.102  11.552
33342W        W 5602  21.719  36.998   1.825
33343W        W 5603  12.655  13.279  11.590
33344W        W 5604  23.132  15.158  13.402
33345W        W 5605  42.855  40.474   1.786
33346W        W 5606  21.523  23.534   2.342
33347W        W 5607  41.380  16.772   0.474
33348W        W 5608  30.635  29.986   2.870
33349W        W 5609  26.614   0.825  14.364
33350W        W 5610  23.516  18.070   4.221
33351W        W 5611  14.227  16.737  13.431
33352W        W 5612  23.557  13.242   2.835
33353W        W 5613   2.433  28.526  13.919
33354W        W 5614  31.130  36.897   2.839
33355W        W 5615  28.015  19.772  14.789
33356W        W 5616  23.061  33.016  14.302
33357W        W 5617  19.669  30.157  11.492
33358W        W 5618  22.073  18.693  13.456
33359W        W 5619  18.225  23.097   2.680
33360W        W 5620   2.321  39.552  11.061
33361W        W 5621  40.541  42.998  10.605
33362W        W 5622  12.746  19.045   0.861
33363W        W 5623  36.096  35.437   1.417
33364W        W 5624  36.075  24.574  10.441
33365W        W 5625  37.393  23.192  14.791
33366W        W 5626  40.040  12.756   0.273
33367W        W 5627  17.174  33.011  12.077
33368W        W 5628  28.584  16.178   3.837
33369W        W 5629  41.525   5.759   3.318
33370W        W 5630  20.214  18.686  12.408
33371W        W 5631  24.174  41.808  13.430
33372W        W 5632  20.562  36.886  14.873
33373W        W 5633  27.987   6.788   3.656
33374W        W 5634  44.919  11.691   4.163
33375W        W 5635  10.161  40.809  13.366
33376W        W 5636  26.486   1.948   3.242
33377W        W 5637  37.008  33.491  12.497
33378W        W 5638  11.284   9.668  13.512
33379W        W 5639  34.493  32.082   3.852
33380W        W 5640  37.428  37.885   3.240
33381W        W 5641   6.880   2.752  14.467
33382W        W 5642   7.743  12.791  11.421
33383W        W 5643  30.142  11.709   2.798
33384W        W 5644   1.851  24.617  14.294
33385W        W 5645  41.391   8.728   0.376
33386W        W 5646  39.323  22.710  14.362
33387W        W 5647  29.426  24.060  13.970
33388W        W 5648  31.431  10.297  14.806
33389W        W 5649   5.752  16.719   0.282
33390W        W 5650  42.320  41.024   0.255
33391W        W 5651  13.137  37.548  12.902
33392W        W 5652   6.902  22.531   2.357
33393W        W 5653   5.747  40.476   4.801
33394W        W 5654  27.098  42.344  12.462
33395W        W 5655  14.145  28.448   3.837
33396W        W 5656  13.176   8.388  14.466
33397W        W 5657  44.274  13.182   2.868
33398W        W 5658  27.633  13.259   1.739
33399W        W 5659  26.699   4.354   3.271
33400W        W 5660  31.964   7.374   4.201
33401W        W 5661  23.677  14.269  12.856
33402W        W 5662  16.218  35.432   4.291
33403W        W 5663  32.049   1.752   0.830
33404W        W 5664  27.975   3.720   3.763
33405W        W 5665  29.579  30.973  11.501
33406W        W 5666  23.522  43.008  11.510
33407W        W 5667  30.626   9.852  13.538
33408W        W 5668  28.122   4.743   5.292
33409W        W 5669  33.543  12.170  12.448
33410W        W 5670  24.602  21.627  11.888
33411W        W 5671   3.913  38.451  13.472
33412W        W 5672  27.579  28.469   1.414
33413W        W 5673  13.192  19.267  14.339
33414W        W 5674   5.295  11.840   1.317
33415W        W 5675  25.625  10.747   3.241
33416W        W 5676  30.581  38.885   0.408
33417W        W 5677  18.212  17.301  12.999
33418W        W 5678  39.863   4.402  12.339
33419W        W 5679  22.527  20.557  14.965
33420W        W 5680  41.879  38.530   1.908
33421W        W 5681   2.750   3.387   2.273
33422W        W 5682  23.069  12.310   3.292
33423W        W 5683  39.379  26.163  12.041
33424W        W 5684  40.895  34.921  11.950
33425W        W 5685  11.353   2.274  13.044
33426W        W 5686  14.187  22.725   2.880
33427W        W 5687  16.085  25.487  10.534
33428W        W 5688  44.803  27.153  10.903
33429W        W 5689  37.994  13.738   4.163
33430W        W 5690  32.448  19.611   4.836
33431W        W 5691  10.224  33.107  14.297
33432W        W 5692  38.481  16.208   0.967
33433W        W 5693   9.756  23.603  14.808
33434W        W 5694  23.016   7.181   0.443
33435W        W 5695  42.899  33.428  13.045
33436W        W 5696  33.909  24.164  13.546
33437W        W 5697  18.566  17.700  12.881
33438W        W 5698  39.900  13.801  14.950
33439W        W 5699   7.286  18.655  12.087
33440W        W 5700  44.466  34.917  14.969
33441W        W 5701   2.341   6.678  11.043
33442W        W 5702   4.805  39.323  10.012
33443W        W 5703  37.961  44.497  13.475
33444W        W 5704  20.671  36.364   1.348
33445W        W 5705  40.896  33.999   4.798
33446W        W 5706   7.870  42.887  11.096
33447W        W 5707  15.163   6.724  13.998
33448W        W 5708   6.189  25.679   0.412
33449W        W 5709  28.644  23.071  13.360
33450W        W 5710  14.804  43.390   3.674
33451W        W 5711  26.008  28.581  13.521
33452W        W 5712  42.778   4.944  10.526
33453W        W 5713  41.492   2.890  11.395
33454W        W 5714  28.565  28.995  14.004
33455W        W 5715  36.356  29.961   3.333
33456W        W 5716  29.927   1.363   0.260
33457W        W 5717  13.312   3.950   3.181
33458W        W 5718  33.555  31.067   0.839
33459W        W 5719  18.061  16.099  11.435
33460W        W 5720  21.658   7.854  11.542
33461W        W 5721  25.684  34.957  13.898
33462W        W 5722  39.031  20.526   0.900
33463W        W 5723   6.247  12.829  11.585
33464W        W 5724   3.801  11.319  12.557
33465W        W 5725  29.057   0.772   0.330
33466W        W 5726   1.302  43.472   3.656
33467W        W 5727  35.552  27.035  14.811
33468W        W 5728  33.423   0.758  12.377
33469W        W 5729  24.217  27.692   3.642
33470W        W 5730  10.163  35.887   1.213
33471W        W 5731  41.420  34.414   3.636
33472W        W 5732  34.516   9.201  12.060
33473W        W 5733   7.873  14.317   1.706
33474W        W 5734   0.805  27.497  12.966
33475W        W 5735  20.663  36.504  11.003
33476W        W 5736  34.867   4.754  11.433
33477W        W 5737  24.177  25.086   3.151
33478W        W 5738  24.996   6.842   4.634
33479W        W 5739  14.623   8.402   2.870
33480W        W 5740   9.388  32.501  12.578
33481W        W 5741  37.927  28.039  13.810
33482W        W 5742  40.382  42.517   4.630
33483W        W 5743  35.968  17.292  12.887
33484W        W 5744  41.842  14.734   1.297
33485W        W 5745  31.968  23.566  14.867
33486W        W 5746  25.219  32.425  12.079
33487W        W 5747  24.991  19.583   4.726
33488W        W 5748  35.861  38.487  10.458
33489W        W 5749   3.952   8.784   2.853
33490W        W 5750   6.261  24.985   1.707
33491W        W 5751  11.363  41.449   0.948
33492W        W 5752  11.337  12.731   4.272
33493W        W 5753  24.157  42.464   2.192
33494W        W 5754  39.847  18.112  12.892
33495W        W 5755  34.050  16.266  13.875
33496W        W 5756  23.106  37.974   0.272
33497W        W 5757   0.890   6.372   0.826
33498W        W 5758  23.492  18.128  12.060
33499W        W 5759  31.990  42.964  11.923
33500W        W 5760  22.708  12.360   1.406
33501W        W 5761  40.482  41.300  11.946
33502W        W 5762  25.144  30.534  12.906
33503W        W 5763  17.130   7.815   0.447
33504W        W 5764   0.814  25.015  10.580
33505W        W 5765  11.816   6.874   4.617
33506W        W 5766  32.019  19.208  12.436
33507W        W 5767   8.855  30.419   3.699
33508W        W 5768   6.683  26.055  13.499
33509W        W 5769  11.154  43.875  11.506
33510W        W 5770   9.225  10.148   3.837
33511W        W 5771  44.332  29.437  13.988
33512W        W 5772   8.741   0.902   2.210
33513W        W 5773  28.559   6.209  10.892
33514W        W 5774  43.389   2.279   1.279
33515W        W 5775  23.644  19.629  12.474
33516W        W 5776  38.418  44.274   2.327
33517W        W 5777  39.937  18.120  14.337
33518W        W 5778  31.914  28.525   2.833
33519W        W 5779  16.206  36.358   1.251
33520W        W 5780   2.790  38.524   1.241
33521W        W 5781  42.454  15.627   1.386
33522W        W 5782  19.552  20.203  14.393
33523W        W 5783  15.666  36.934  14.962
33524W        W 5784  19.722   1.822  12.560
33525W        W 5785   3.873  23.095   4.154
33526W        W 5786  25.064  33.061  10.513
33527W        W 5787  22.683  16.189   2.189
33528W        W 5788   4.442  40.463  11.508
33529W        W 5789   9.212  38.397   3.822
33530W        W 5790  11.624  34.970   3.640
33531W        W 5791   6.839  18.267  12.852
33532W        W 5792  42.328  23.050  14.958
33533W        W 5793   3.715  23.634   5.174
33534W        W 5794  22.685  42.940   1.238
33535W        W 5795  14.670  11.369   4.329
33536W        W 5796  40.323   1.862   0.343
33537W        W 5797  35.503  36.524  13.026
33538W        W 5798  14.297  11.359   0.413
33539W        W 5799  25.181  32.024   1.757
33540W        W 5800  39.029  36.363   4.149
33541W        W 5801  18.754  27.619  14.904
33542W        W 5802  30.540   3.316   2.664
33543W        W 5803   5.766  32.535   2.245
33544W        W 5804  37.390  27.970   5.152
33545W        W 5805   7.332   1.334   3.812
33546W        W 5806  38.457  30.511   4.786
33547W        W 5807  30.456  33.395   0.859
33548W        W 5808   4.765  19.157  13.833
33549W        W 5809  19.603  33.504   0.890
33550W        W 5810  39.924  34.469   3.165
33551W        W 5811   1.900  17.142  12.393
33552W        W 5812  36.571  25.141   2.317
33553W        W 5813   1.810  13.618  14.861
33554W        W 5814  34.419  21.148   2.881
33555W        W 5815  42.833  19.738   9.992
33556W        W 5816  26.483  42.866  12.377
33557W        W 5817   6.204  27.173  14.993
33558W        W 5818  11.196  33.474  10.925
33559W        W 5819  27.058   3.252  10.953
33560W        W 5820   7.343  21.726  10.644
33561W        W 5821  36.367   8.861  12.067
33562W        W 5822  10.715  22.173  11.583
33563W        W 5823  35.074  36.003  13.927
33564W        W 5824  35.105   2.759  11.468
33565W        W 5825  24.527   0.253  12.992
33566W        W 5826   8.248  42.010   3.344
33567W        W 5827  42.795  14.824   0.836
33568W        W 5828   4.719   8.388  11.564
33569W        W 5829   9.747   2.279  14.979
33570W        W 5830  37.006   5.345   4.832
33571W        W 5831   3.279  39.362   0.381
33572W        W 5832   3.897  38.833   0.418
33573W        W 5833  12.280   4.360   0.477
33574W        W 5834  42.404   6.868  12.033
33575W        W 5835  24.050   4.787  12.982
33576W        W 5836  27.620  40.356  14.444
33577W        W 5837  15.582  26.459   1.844
33578W        W 5838  21.222  30.126  13.951
33579W        W 5839   4.328   8.761   1.346
33580W        W 5840  35.533  23.187  12.892
33581W        W 5841  39.364  10.161  12.954
33582W        W 5842  15.655  12.163  13.437
33583W        W 5843  33.388   6.257  12.080
33584W        W 5844   0.419  37.444   4.281
33585W        W 5845  29.022  34.117  13.961
33586W        W 5846  16.736  41.789   4.821
33587W        W 5847  34.413   1.842  10.593
33588W        W 5848  39.433  35.448   1.755
33589W        W 5849   6.395  20.109  11.082
33590W        W 5850  12.626  21.741  12.840
33591W        W 5851  35.015  33.593   1.214
33592W        W 5852  13.110   2.787  11.898
33593W        W 5853   9.190   9.728   4.131
33594W        W 5854   5.904  11.817  14.497
33595W        W 5855   1.818  22.102  14.404
33596W        W 5856   2.887  23.120   2.816
33597W        W 5857   3.248  41.504   3.147
33598W        W 5858  12.718  15.087   2.351
33599W        W 5859  37.537   4.922   3.152
33600W        W 5860  33.111   6.191  11.384
33601W        W 5861  29.029   6.821   0.308
33602W        W 5862  40.321  36.070   0.423
33603W        W 5863  32.080  27.668   3.185
33604W        W 5864  24.617  27.631   0.344
33605W        W 5865   2.931   7.728   0.477
33606W        W 5866  22.068   3.710  12.918
33607W        W 5867  16.686  28.457   0.829
33608W        W 5868  39.433  38.024   2.764
33609W        W 5869   3.887  14.320   4.685
33610W        W 5870  24.482  44.775   0.848
33611W        W 5871  14.644  38.363   1.237
33612W        W 5872  39.349  40.356  11.858
33613W        W 5873  15.284   0.774  11.513
33614W        W 5874  41.796  32.905  10.940
33615W        W 5875  28.452  17.254   4.268
33616W        W 5876  42.359  19.753  14.015
33617W        W 5877   7.264  35.865  14.352
33618W        W 5878  20.634  18.210  14.800
33619W        W 5879   9.653  24.675   0.286
33620W        W 5880  34.513  37.459   4.705
33621W        W 5881  32.390  19.683   2.810
33622W        W 5882  13.683  29.572  10.502
33623W        W 5883  31.964   5.389  12.094
33624W        W 5884  33.981  41.860   3.300
33625W        W 5885  42.329  44.468  12.370
33626W        W 5886  41.336  25.679   3.292
33627W        W 5887   8.896  31.615  12.849
33628W        W 5888   2.777  36.902   1.885
33629W        W 5889   8.303   2.832  13.913
33630W        W 5890   6.240  31.980  13.049
33631W        W 5891  38.382  27.474   2.347
33632W        W 5892  38.378  10.231   5.575
33633W        W 5893  14.173  11.782  11.453
33634W        W 5894  20.628   1.976   2.295
33635W        W 5895   0.413  15.098   4.769
33636W        W 5896   2.411  30.490  11.873
33637W        W 5897   8.839   1.398   1.280
33638W        W 5898  40.027   7.759  11.451
33639W        W 5899   4.372   0.892   4.628
33640W        W 5900   7.812  38.906   4.152
33641W        W 5901  27.994   8.832   2.237
33642W        W 5902   3.885   5.691   0.795
33643W        W 5903  27.963  43.919  10.052
33644W        W 5904  26.543  17.287   1.833
33645W        W 5905  12.152  33.565  14.429
33646W        W 5906  43.793  34.953  12.022
33647W        W 5907  24.548  35.438  12.828
33648W        W 5908  24.083  30.109   0.892
33649W        W 5909  17.159  34.024   1.735
33650W        W 5910  25.531  24.596  10.531
33651W        W 5911  17.151  29.534   1.838
33652W        W 5912  16.721  26.686  12.414
33653W        W 5913  33.409  31.091   2.732
33654W        W 5914  21.157  14.147  13.958
33655W        W 5915  22.685  30.498   2.292
33656W        W 5916  43.332  16.299  13.478
33657W        W 5917   5.345   2.368  11.123
33658W        W 5918  27.688  35.908  13.426
33659W        W 5919  35.941  40.960  10.548
33660W        W 5920  23.723  10.830  12.389
33661W        W 5921  30.043  23.630   3.204
33662W        W 5922  12.761  21.751  13.462
33663W        W 5923  32.420  44.982  13.391
33664W        W 5924  36.477  24.153   0.734
33665W        W 5925  25.524  27.002  13.049
33666W        W 5926   1.449   8.350  13.835
33667W        W 5927  14.176  27.598   0.775
33668W        W 5928  20.565   0.479   4.617
33669W        W 5929  15.104  40.340   1.225
33670W        W 5930  19.217   4.352   0.801
33671W        W 5931  33.431  17.139   1.869
33672W        W 5932  38.819   2.837  12.936
33673W        W 5933  20.243  42.844  12.835
33674W        W 5934  23.189  27.134  13.367
33675W        W 5935  23.208  39.931   0.863
33676W        W 5936  22.080  16.616  11.891
33677W        W 5937   1.792  29.474   0.922
33678W        W 5938   1.284  16.742   2.815
33679W        W 5939  43.273  43.794  10.558
33680W        W 5940  15.145  25.083  11.602
33681W        W 5941  41.318  13.635  13.499
33682W        W 5942  25.993  21.524  12.039
33683W        W 5943  14.604  28.170  14.394
33684W        W 5944   7.197  28.521   1.317
33685W        W 5945  38.066  39.910   2.373
33686W        W 5946  32.895  23.697  10.486
33687W        W 5947  16.712  10.734  10.905
33688W        W 5948  11.639  41.788  10.907
33689W        W 5949  27.622  36.431  13.795
33690W        W 5950  23.164  40.504  12.087
33691W        W 5951  23.545   0.457   2.299
33692W        W 5952  28.563   0.958  14.969
33693W        W 5953  25.601  26.033  10.896
33694W        W 5954  17.157  18.286  10.913
33695W        W 5955  21.224  22.572  14.783
33696W        W 5956  23.190  33.044  13.450
33697W        W 5957  36.410  39.874   2.363
33698W        W 5958   4.809  24.725   4.211
33699W        W 5959  41.510  32.001  14.032
33700W        W 5960  13.605  12.204  13.061
33701W        W 5961  23.035  33.579   0.445
33702W        W 5962  27.489  14.805  11.456
33703W        W 5963  34.519  33.001   4.720
33704W        W 5964  15.111  23.183  12.949
33705W        W 5965  36.914  36.361   2.823
33706W        W 5966   4.912   1.473   3.797
33707W        W 5967   0.872  10.141  14.830
33708W        W 5968   0.441  22.580   4.218
33709W        W 5969  12.241  10.311   3.206
33710W        W 5970  38.467  30.513  13.805
33711W        W 5971  27.595  18.790   3.861
33712W        W 5972  35.384  20.613   3.705
33713W        W 5973  41.429   2.308   2.744
33714W        W 5974  17.794  20.237  13.470
33715W        W 5975  38.839   4.287   0.254
33716W        W 5976  20.066  19.692  14.915
33717W        W 5977   0.890  19.620  13.918
33718W        W 5978  25.593  27.952   0.441
33719W        W 5979   0.385  25.177  13.847
33720W        W 5980   7.797  17.065  12.063
33721W        W 5981   1.966  29.545  12.993
33722W        W 5982  16.099  34.025  13.521
33723W        W 5983  15.594  20.064   0.766
33724W        W 5984  35.999   5.788   4.755
33725W        W 5985  18.286  35.383   1.825
33726W        W 5986   9.832  33.060  14.503
33727W        W 5987  36.388  39.952  14.449
33728W        W 5988  22.155  20.174  11.540
33729W        W 5989  38.416  43.901  11.440
33730W        W 5990  36.923  43.460  11.916
33731W        W 5991  31.437  35.991   2.791
33732W        W 5992  23.645  31.931   2.364
33733W        W 5993  17.176   3.751   1.376
33734W        W 5994   3.422  29.013  14.349
33735W        W 5995  17.676  19.773   2.196
33736W        W 5996  35.581   3.361   4.335
33737W        W 5997  20.190   0.961  10.894
33738W        W 5998  34.537  41.377  13.001
33739W        W 5999  26.951   6.749  10.938
33740W        W 6000  27.655   3.423  13.448
33741W        W 6001  35.567  16.288  12.534
33742W        W 6002  30.565  28.046   3.173
33743W        W 6003  22.715  27.998   3.227
33744W        W 6004  42.365  22.996  11.539
33745W        W 6005  25.689  12.309   2.256
33746W        W 6006   0.271  36.439  12.034
33747W        W 6007  12.818  22.660   2.890
33748W        W 6008  24.514  13.734   3.274
33749W        W 6009  33.405  21.205   2.696
33750W        W 6010  29.094  22.098  14.916
33751W        W 6011  34.489  13.781   2.824
33752W        W 6012   2.349  15.624   0.436
33753W        W 6013   5.347  12.242   4.766
33754W        W 6014  19.267  38.027  12.902
33755W        W 6015  29.424  42.878  14.903
33756W        W 6016  40.389   1.385   1.721
33757W        W 6017   8.848  35.421   3.214
33758W        W 6018   9.222  36.954  14.398
33759W        W 6019  14.313  12.681   2.405
33760W        W 6020  42.431  29.115  10.608
33761W        W 6021   7.215  43.494  14.010
33762W        W 6022  12.659  19.077  14.306
33763W        W 6023  10.365  35.405   1.703
33764W        W 6024   0.476   4.424   2.771
33765W        W 6025  31.536   9.310  14.779
33766W        W 6026  40.021   2.928   4.793
33767W        W 6027   6.338  19.665  14.435
33768W        W 6028  28.473   4.446  14.494
33769W        W 6029  37.514  31.142   5.177
33770W        W 6030  26.151  38.849   4.780
33771W        W 6031  44.402  18.090  14.414
33772W        W 6032   4.700  29.997   0.912
33773W        W 6033  22.628   3.216   4.783
33774W        W 6034  11.366  30.020  14.911
33775W        W 6035  35.584  43.821  10.469
33776W        W 6036   3.799  33.053   3.748
33777W        W 6037  15.596  35.360  10.631
33778W        W 6038  24.720  25.218  10.604
33779W        W 6039  23.211   6.758   2.723
33780W        W 6040  28.632  43.441  14.949
33781W        W 6041  21.729  31.932   1.275
33782W        W 6042   2.792  12.687   3.147
33783W        W 6043  18.195  43.901   0.362
33784W        W 6044  32.407  20.677   4.678
33785W        W 6045   6.369   7.681  10.453
33786W        W 6046  15.602  44.969  10.458
33787W        W 6047  12.217  38.883   2.802
33788W        W 6048   1.263  24.055  10.953
33789W        W 6049   4.758  24.094  11.044
33790W        W 6050  20.116  21.099   4.169
33791W        W 6051  23.604  10.381   4.308
33792W        W 6052   1.946  12.661  10.594
33793W        W 6053   5.693  39.936   0.967
33794W        W 6054  42.025  43.783   3.805
33795W        W 6055  10.811  30.542  14.445
33796W        W 6056   3.271  42.955   0.290
33797W        W 6057  35.872   1.381  10.624
33798W        W 6058  40.518  32.397  12.932
33799W        W 6059  14.787  26.502   0.348
33800W        W 6060  26.162  30.994  13.796
33801W        W 6061  39.886  19.624  13.951
33802W        W 6062  25.200  38.892  12.467
33803W        W 6063  28.064  13.603   2.395
33804W        W 6064  41.518   3.842   0.945
33805W        W 6065  35.491  31.950  11.606
33806W        W 6066  32.138   8.784  12.944
33807W        W 6067  10.834  33.930  14.387
33808W        W 6068  34.598  20.611  10.987
33809W        W 6069  43.998  37.060  10.641
33810W        W 6070  14.722  25.543   4.346
33811W        W 6071  39.898   5.225   4.247
33812W        W 6072  41.471   8.715  11.477
33813W        W 6073  27.536  21.138  14.825
33814W        W 6074  11.685  42.985  13.506
33815W        W 6075  25.597  16.219   0.945
33816W        W 6076   1.784  39.857  12.830
33817W        W 6077  25.572  27.611  11.606
33818W        W 6078  41.900  14.299  12.029
33819W        W 6079  30.431  40.335  10.909
33820W        W 6080  25.210  37.852   4.635
33821W        W 6081   8.352  42.500  13.399
33822W        W 6082  40.977  32.420  13.036
33823W        W 6083  15.614  20.651   4.212
33824W        W 6084  44.476  25.054   4.716
33825W        W 6085  32.410  17.671  13.975
33826W        W 6086  21.685  36.888   0.767
33827W        W 6087  15.730   7.677  11.125
33828W        W 6088  25.485  42.297  13.877
33829W        W 6089  40.039  14.769  12.028
33830W        W 6090   4.388   1.377  13.362
33831W        W 6091  38.865  20.652  10.901
33832W        W 6092   4.825  17.277   9.944
33833W        W 6093  12.241   0.913  12.029
33834W        W 6094  25.591  25.514  13.841
33835W        W 6095  20.063   3.314   5.278
33836W        W 6096   4.384  14.261  12.938
33837W        W 6097  15.722  23.017   0.362
33838W        W 6098   8.277  38.439   2.822
33839W        W 6099  29.650   0.916   9.983
33840W        W 6100  28.645   3.363  13.450
33841W        W 6101   9.761   5.793   2.364
33842W        W 6102   6.257  27.943   1.267
33843W        W 6103  30.630  17.215   2.716
33844W        W 6104   6.886  25.628   3.750
33845W        W 6105  44.336  11.726  12.023
33846W        W 6106  38.479   6.916   4.800
33847W        W 6107  15.590  15.782  14.886
33848W        W 6108   7.312  39.469  14.874
33849W        W 6109  18.723  20.725   0.928
33850W        W 6110  37.012  43.282   0.273
33851W        W 6111  41.503  33.541   4.801
33852W        W 6112  22.172  34.901   3.655
33853W        W 6113  17.251  28.148   3.655
33854W        W 6114  28.586  19.584   0.366
33855W        W 6115   1.297  18.201  14.893
33856W        W 6116   9.769   5.347  11.010
33857W        W 6117  36.898  36.437  11.476
33858W        W 6118  29.653  26.621  11.576
33859W        W 6119  27.995  13.696  14.912
33860W        W 6120  22.674  17.706  11.384
33861W        W 6121  43.419   9.653   1.864
33862W        W 6122  22.199  10.852  12.902
33863W        W 6123  19.247  37.548  11.607
33864W        W 6124  28.661  31.995   3.778
33865W        W 6125  28.112  33.425   5.308
33866W        W 6126  18.060  20.695  12.570
33867W        W 6127   8.164  17.161  14.991
33868W        W 6128  36.389  13.281   2.890
33869W        W 6129   7.909  37.490   0.476
33870W        W 6130  23.209   9.163   3.725
33871W        W 6131   3.306  14.734   4.703
33872W        W 6132  39.391  19.737   2.670
33873W        W 6133  43.977   4.912   4.627
33874W        W 6134   7.218  38.843  12.835
33875W        W 6135  19.074  14.628  13.545
33876W        W 6136  28.606  25.984  14.305
33877W        W 6137  25.542  34.959  10.552
33878W        W 6138  33.932  15.685   0.727
33879W        W 6139  37.928  22.151  13.970
33880W        W 6140  35.075  20.749   4.248
33881W        W 6141  37.917  22.038  12.095
33882W        W 6142  31.524  27.645   1.295
33883W        W 6143   0.315  17.657  10.519
33884W        W 6144  37.008  25.651   0.753
33885W        W 6145  37.941   9.780  14.402
33886W        W 6146  18.185  36.456   2.798
33887W        W 6147  33.878  23.053   2.217
33888W        W 6148   1.774   1.783  14.848
33889W        W 6149  40.529   3.234  11.522
33890W        W 6150  15.579  36.531  14.294
33891W        W 6151  35.470  27.525   2.296
33892W        W 6152  23.496  12.829  13.435
33893W        W 6153  39.924  25.082   2.732
33894W        W 6154  31.498   1.476   1.405
33895W        W 6155   9.770  22.600  14.824
33896W        W 6156   5.411  33.900   0.323
33897W        W 6157  26.563  24.986  12.061
33898W        W 6158  42.882  35.865   3.638
33899W        W 6159   3.237  35.854   2.838
33900W        W 6160  42.400  30.432  10.487
33901W        W 6161  10.365   4.895   0.462
33902W        W 6162   2.748   6.740   3.313
33903W        W 6163  10.699  42.939   1.441
33904W        W 6164  41.840  43.950   2.190
33905W        W 6165  12.241  29.967  11.454
33906W        W 6166   7.393   8.750  12.875
33907W        W 6167  41.924  18.669  14.011
33908W        W 6168   4.235  27.657   1.426
33909W        W 6169  29.477  11.637  11.539
33910W        W 6170  12.622  17.172   0.784
33911W        W 6171   7.903  21.034  11.408
33912W        W 6172  40.025  40.443  13.971
33913W        W 6173  43.306  29.639   1.322
33914W        W 6174  14.646   1.246   1.343
33915W        W 6175  20.658   3.289   2.823
33916W        W 6176  39.948  34.035  13.898
33917W        W 6177  11.708   2.916   1.279
33918W        W 6178  37.361   4.380   2.744
33919W        W 6179  27.652   6.887  12.426
33920W        W 6180   9.721  12.718   4.701
33921W        W 6181  37.559  37.990   2.709
33922W        W 6182  19.215  29.958  12.397
33923W        W 6183  29.149  28.931   1.220
33924W        W 6184  24.584  42.480   4.176
33925W        W 6185  19.653  19.744   3.746
33926W        W 6186  10.872  43.780   2.280
33927W        W 6187  21.524  43.879   0.445
33928W        W 6188  35.975  38.871  11.406
33929W        W 6189  33.426   8.664  13.931
33930W        W 6190   7.749  14.755   1.774
33931W        W 6191  10.241  29.555   4.783
33932W        W 6192  33.473  40.385  13.855
33933W        W 6193  37.875   4.820  14.974
33934W        W 6194  10.215  26.689   1.393
33935W        W 6195  40.511  33.114  13.342
33936W        W 6196   3.314   1.941   0.911
33937W        W 6197  17.215  18.253   3.304
33938W        W 6198  30.655  14.767  11.418
33939W        W 6199  40.436   9.731  13.797
33940W        W 6200  16.173  26.653  12.049
33941W        W 6201  16.280   4.348   4.247
33942W        W 6202  23.098  11.807   3.307
33943W        W 6203  20.058  23.221  11.444
33944W        W 6204  24.698  26.548  12.355
33945W        W 6205  27.684  18.692  12.487
33946W        W 6206  18.290  37.432  14.803
33947W        W 6207  41.936  14.688   2.303
33948W        W 6208   7.266  14.613  11.562
33949W        W 6209  28.132  35.917   2.291
33950W        W 6210  12.163  28.489   2.797
33951W        W 6211   3.368  22.630  13.992
33952W        W 6212  39.007  22.667   4.807
33953W        W 6213  17.628   4.713   0.393
33954W        W 6214   5.217  34.899   1.895
33955W        W 6215  37.412  17.237  12.867
33956W        W 6216  22.059  40.877   4.315
33957W        W 6217   4.796  29.051  14.376
33958W        W 6218  33.030  33.046   4.626
33959W        W 6219  16.162  18.572  10.640
33960W        W 6220  15.709  28.068  12.848
33961W        W 6221   8.771  38.940   4.299
33962W        W 6222  36.011  22.045  13.933
33963W        W 6223   8.214  35.569  13.338
33964W        W 6224  37.381  36.085   9.960
33965W        W 6225  44.468  26.554  14.008
33966W        W 6226   4.823   4.740   4.346
33967W        W 6227  42.940  44.848   4.342
33968W        W 6228  18.772  44.504  13.370
33969W        W 6229   7.361  12.800  14.842
33970W        W 6230  11.232   6.382   2.198
33971W        W 6231  35.394  20.105  13.980
33972W        W 6232  35.496  26.045   4.130
33973W        W 6233  23.503  30.537   0.290
33974W        W 6234  28.075   6.856  10.007
33975W        W 6235  24.213  20.598  12.362
33976W        W 6236  32.631   3.450   1.315
33977W        W 6237  42.337  15.773   0.361
33978W        W 6238  25.182  10.655   0.930
33979W        W 6239  34.547  26.599  11.413
33980W        W 6240  13.662   4.795   2.210
33981W        W 6241  29.589  12.320  14.387
33982W        W 6242  20.176  41.412  11.103
33983W        W 6243  21.139  37.078   3.692
33984W        W 6244  26.522   6.392  13.800
33985W        W 6245  30.597  12.253   1.794
33986W        W 6246  32.933  39.048  12.039
33987W        W 6247  37.878  42.333  13.835
33988W        W 6248  23.103  35.598   0.483
33989W        W 6249  44.007   8.761  10.992
33990W        W 6250  32.632  10.252   5.260
33991W        W 6251  26.502  26.204   1.322
33992W        W 6252  38.463  23.596  10.511
33993W        W 6253   9.714   1.887   4.316
33994W        W 6254  40.504  11.330  12.380
33995W        W 6255  40.407  36.974   0.921
33996W        W 6256  40.443  11.328  10.495
33997W        W 6257  40.826  15.264   1.341
33998W        W 6258   1.814  41.480  11.920
33999W        W 6259  35.379  38.971   3.721
34000W        W 6260  13.285  20.067   0.951
34001W        W 6261  19.091  39.447  12.034
34002W        W 6262   8.773  30.919  12.450
34003W        W 6263  40.028   4.426   2.784
34004W        W 6264   1.321  30.539   3.347
34005W        W 6265  17.142  30.124  14.850
34006W        W 6266  19.223  30.993  13.315
34007W        W 6267  15.597  44.306  12.871
34008W        W 6268   8.697  36.966  12.922
34009W        W 6269  23.699   4.904   0.816
34010W        W 6270   7.218   6.233   0.337
34011W        W 6271  22.082   5.925   1.743
34012W        W 6272  26.650  27.611  12.424
34013W        W 6273  26.054  26.674  12.957
34014W        W 6274  15.760  43.456  11.061
34015W        W 6275  21.546   2.956   4.621
34016W        W 6276   7.756  41.865   5.118
34017W        W 6277   2.400  37.043   4.617
34018W        W 6278  33.054  36.495   2.751
34019W        W 6279  23.064  18.094   4.701
34020W        W 6280  16.777   5.832   2.727
34021W        W 6281  13.752  35.534  11.520
34022W        W 6282  10.713  10.774  12.002
34023W        W 6283  21.086  30.007   3.222
34024W        W 6284  36.475  18.162   4.791
34025W        W 6285  35.501  11.750   3.734
34026W        W 6286   8.250  21.101   4.747
34027W        W 6287  21.688  19.138   2.181
34028W        W 6288  24.223   4.245  12.423
34029W        W 6289   8.794  34.458  13.427
34030W        W 6290  29.455   8.214   1.366
34031W        W 6291   9.727   4.826   3.294
34032W        W 6292   0.806  40.937  11.009
34033W        W 6293   2.917  18.234  13.338
34034W        W 6294  32.596  34.466  10.422
34035W        W 6295  31.108  19.192   3.162
34036W        W 6296  14.798  13.190   0.792
34037W        W 6297  15.272   5.209  12.998
34038W        W 6298   8.881  40.972  12.410
34039W        W 6299   9.688  31.058  14.423
34040W        W 6300  27.049   6.216   3.826
34041W        W 6301   6.858  16.732  12.574
34042W        W 6302  31.026  11.323  10.911
34043W        W 6303  18.787  37.525  10.589
34044W        W 6304  35.415  42.969   2.182
34045W        W 6305  16.582   5.904   1.910
34046W        W 6306  12.856  14.700   3.710
34047W        W 6307  21.248  36.355   2.680
34048W        W 6308  19.544  30.560   1.881
34049W        W 6309   7.224  22.602  13.932
34050W        W 6310  38.999  38.955  11.379
34051W        W 6311  39.879   4.340  11.520
34052W        W 6312   9.715  37.863   0.940
34053W        W 6313   7.346  36.989   2.750
34054W        W 6314   5.744  43.512  11.414
34055W        W 6315  40.309   3.417   2.314
34056W        W 6316  32.007  13.626  11.948
34057W        W 6317  39.345  32.529   1.237
34058W        W 6318  35.975  14.307  14.971
34059W        W 6319  20.750  10.768  14.286
34060W        W 6320  17.654  11.283  11.449
34061W        W 6321  24.557  33.068  12.507
34062W        W 6322  14.717   8.726  12.873
34063W        W 6323  38.839  10.314  13.888
34064W        W 6324   9.302  11.651   0.919
34065W        W 6325  11.658  25.630   0.475
34066W        W 6326  28.478   1.948  14.800
34067W        W 6327  28.051  14.277   2.825
34068W        W 6328   2.377  40.034   0.375
34069W        W 6329  13.120  42.989   5.260
34070W        W 6330  33.038  26.650  11.530
34071W        W 6331   4.450  37.486  13.987
34072W        W 6332  22.007  35.473   3.351
34073W        W 6333  29.430  44.367  11.126
34074W        W 6334   4.718  41.497   5.205
34075W        W 6335  21.675  33.913   3.325
34076W        W 6336  40.496  21.039   2.393
34077W        W 6337  31.920  31.530  11.107
34078W        W 6338  24.498  22.644  10.940
34079W        W 6339  35.505  34.013   0.346
34080W        W 6340   3.323  44.988  11.605
34081W        W 6341   7.819  36.051  10.465
34082W        W 6342   7.901  10.151  14.358
34083W        W 6343  39.854   2.730  13.350
34084W        W 6344  14.611  31.428  14.426
34085W        W 6345  20.699  44.969  14.895
34086W        W 6346  40.940  25.146   2.229
34087W        W 6347  44.888   8.267   4.704
34088W        W 6348  14.604   2.424   2.868
34089W        W 6349  22.735   9.887   3.250
34090W        W 6350   5.798  38.403   3.791
34091W        W 6351  18.734  23.119   0.757
34092W        W 6352  13.201  36.371   0.877
34093W        W 6353  41.442  18.750   4.679
34094W        W 6354  22.725   5.812   0.907
34095W        W 6355  30.926   2.858   3.655
34096W        W 6356   6.273   1.937   3.830
34097W        W 6357   7.733  24.175  12.439
34098W        W 6358  23.073  28.622   0.445
34099W        W 6359   9.288  11.195  10.094
34100W        W 6360  10.275  42.292   0.894
34101W        W 6361  13.119  24.093   3.189
34102W        W 6362  14.253  27.977   4.597
34103W        W 6363  41.945  44.909   3.658
34104W        W 6364   1.779  14.766   3.306
34105W        W 6365  11.695  21.713  13.482
34106W        W 6366  32.600  35.504   0.844
34107W        W 6367  33.057  18.176   2.841
34108W        W 6368   2.441  32.046   0.456
34109W        W 6369   2.943  31.441   0.435
34110W        W 6370  11.789  12.778   1.838
34111W        W 6371  39.527   2.778  11.877
34112W        W 6372  11.811  28.659  13.803
34113W        W 6373   6.839  41.314  12.542
34114W        W 6374  27.977   5.434   3.862
34115W        W 6375   2.922  12.254   2.756
34116W        W 6376  17.761  27.584   2.185
34117W        W 6377  16.652  20.230   4.640
34118W        W 6378  24.637  19.160  14.910
34119W        W 6379  35.025   0.475  14.965
34120W        W 6380  40.478   9.842  11.100
34121W        W 6381  26.553   8.216  10.909
34122W        W 6382  16.303  36.954   4.255
34123W        W 6383  17.653   2.390  13.828
34124W        W 6384  11.370  37.344   3.732
34125W        W 6385   9.348  13.675  14.461
34126W        W 6386  21.515  25.505  10.637
34127W        W 6387   6.836  31.524   0.418
34128W        W 6388  15.280  43.865   3.779
34129W        W 6389   3.812  15.761   3.643
34130W        W 6390  13.138  43.879  12.011
34131W        W 6391  37.558  39.422   1.840
34132W        W 6392  37.002  19.595  10.638
34133W        W 6393  15.729  36.590  12.065
34134W        W 6394  30.090  13.695   0.474
34135W        W 6395  11.718   4.908  10.529
34136W        W 6396  35.095  10.749   1.770
34137W        W 6397   3.224  43.890   4.193
34138W        W 6398  40.840  42.952   0.429
34139W        W 6399   9.204   9.305  11.417
34140W        W 6400  29.531  30.103   1.304
34141W        W 6401  25.549  16.603   2.214
34142W        W 6402  17.155  14.788   1.402
34143W        W 6403  14.251   9.790  11.387
34144W        W 6404  10.730  30.907  14.865
34145W        W 6405  19.637   1.754  11.562
34146W        W 6406  28.519  42.962   0.773
34147W        W 6407  39.957   4.771  11.076
34148W        W 6408  17.286  16.249   2.181
34149W        W 6409   8.671   0.821   0.420
34150W        W 6410  39.973  36.011  14.473
34151W        W 6411  26.616   8.863  11.954
34152W        W 6412  34.460  11.291  12.490
34153W        W 6413  19.080  23.565   1.697
34154W        W 6414  24.680   5.788  13.874
34155W        W 6415  43.764  41.304  14.398
34156W        W 6416  12.676  38.362  12.353
34157W        W 6417  40.422   5.786  14.448
34158W        W 6418  21.662  44.355   2.708
34159W        W 6419  16.131  11.753   0.322
34160W        W 6420   2.290   9.200  12.467
34161W        W 6421  33.514  17.614  11.445
34162W        W 6422  36.931   2.951   0.890
34163W        W 6423  37.083  37.506   0.756
34164W        W 6424   1.403  16.092  12.881
34165W        W 6425  14.120  15.654  11.489
34166W        W 6426  44.488  37.360   5.184
34167W        W 6427  23.718  41.333  14.842
34168W        W 6428   4.332  34.955   1.269
34169W        W 6429  19.581  16.300  12.062
34170W        W 6430  14.291  11.233  13.442
34171W        W 6431  18.187  32.604   2.805
34172W        W 6432   7.869  41.302  14.933
34173W        W 6433   1.344  23.506   4.734
34174W        W 6434  22.125  24.217  13.957
34175W        W 6435  23.565  43.478  14.332
34176W        W 6436  39.028   2.878  14.454
34177W        W 6437  40.409  15.773   4.602
34178W        W 6438  30.624  18.162  10.640
34179W        W 6439   1.749  31.025  12.024
34180W        W 6440  14.738  25.535   2.710
34181W        W 6441  24.676  27.963  13.028
34182W        W 6442  13.250  12.624   3.757
34183W        W 6443  28.958  42.469  12.525
34184W        W 6444  23.572   7.194   4.254
34185W        W 6445  21.153  11.775   0.802
34186W        W 6446  32.391  33.471  12.904
34187W        W 6447  39.545   6.812  10.945
34188W        W 6448  36.981  36.347  10.973
34189W        W 6449   7.725  42.964   3.344
34190W        W 6450   6.742   7.217  14.326
34191W        W 6451  28.644  18.557   0.408
34192W        W 6452  42.930  21.025  14.955
34193W        W 6453  11.719  26.575  11.111
34194W        W 6454  21.159  16.726  12.072
34195W        W 6455  33.528   9.693   1.305
34196W        W 6456  12.813  12.215  12.935
34197W        W 6457  18.263   2.947   3.683
34198W        W 6458  20.570  13.284   1.918
34199W        W 6459  36.564  14.824   1.926
34200W        W 6460  34.384  40.392  14.831
34201W        W 6461   0.859  15.642   5.270
34202W        W 6462  12.297   1.954  12.075
34203W        W 6463  29.107  43.013   4.166
34204W        W 6464  15.105   5.879  11.855
34205W        W 6465   0.492   0.403   0.825
34206W        W 6466  25.218  43.900  13.496
34207W        W 6467   9.160  34.570  13.431
34208W        W 6468  34.070  10.174   3.680
34209W        W 6469  27.453  39.045   0.780
34210W        W 6470  11.659   1.442  12.566
34211W        W 6471   2.354  14.819   2.252
34212W        W 6472  30.654  18.739  13.317
34213W        W 6473  11.345  13.640   4.681
34214W        W 6474  35.927  22.637  11.920
34215W        W 6475  27.950  10.758   4.235
34216W        W 6476  22.605  19.737   3.676
34217W        W 6477  36.360   0.302   2.754
34218W        W 6478  19.678  36.041   4.727
34219W        W 6479   3.921  36.992  14.501
34220W        W 6480  43.854  30.611  14.794
34221W        W 6481   2.275  21.678   1.389
34222W        W 6482   6.246  20.622   1.710
34223W        W 6483  41.904  39.065  13.449
34224W        W 6484   6.328   0.976  12.926
34225W        W 6485  20.626  32.635  10.560
34226W        W 6486   4.839  25.099  12.367
34227W        W 6487  14.656  31.595  11.098
34228W        W 6488  29.595  24.060  13.514
34229W        W 6489   5.235  43.427  14.415
34230W        W 6490   6.886   5.266   2.820
34231W        W 6491  24.543  20.122   2.237
34232W        W 6492  35.554  41.032   0.475
34233W        W 6493  19.269  23.547   0.816
34234W        W 6494  40.484  18.262   3.687
34235W        W 6495  42.411   6.796  14.361
34236W        W 6496  25.657  18.665   3.301
34237W        W 6497  18.171  10.315  13.841
34238W        W 6498  24.684  24.094  14.297
34239W        W 6499   4.372   9.264   4.234
34240W        W 6500  32.895  23.514   3.375
34241W        W 6501  43.515  37.033   3.346
34242W        W 6502  44.761  44.473   1.927
34243W        W 6503  41.330  23.511  10.577
34244W        W 6504  26.992  35.429   1.750
34245W        W 6505  25.003  39.848   3.218
34246W        W 6506   2.885  44.010  13.481
34247W        W 6507   8.756  34.569   2.887
34248W        W 6508  28.471  17.067   2.777
34249W        W 6509  20.211  34.004   3.230
34250W        W 6510  37.934  35.458  14.478
34251W        W 6511   8.663  25.497  13.957
34252W        W 6512   8.340  40.377   2.712
34253W        W 6513  38.887  23.511   4.663
34254W        W 6514  18.234  17.205  13.446
34255W        W 6515  40.377   9.876  11.908
34256W        W 6516   1.401  17.559  12.048
34257W        W 6517  24.691  13.322  14.898
34258W        W 6518  21.132   2.311   0.749
34259W        W 6519  42.024   9.267  13.026
34260W        W 6520  27.625  17.624  13.359
34261W        W 6521  44.891   5.709  11.949
34262W        W 6522  19.705  40.391   1.851
34263W        W 6523  13.297   0.458   2.267
34264W        W 6524   9.393  15.133  10.490
34265W        W 6525  18.786  11.332  11.874
34266W        W 6526   1.881   8.787  12.405
34267W        W 6527  35.006  32.553  14.942
34268W        W 6528  30.115  37.483   3.214
34269W        W 6529   3.845   6.738  14.400
34270W        W 6530  23.210  23.044  13.313
34271W        W 6531  42.419  31.550   1.722
34272W        W 6532  34.420  30.488   4.197
34273W        W 6533   2.740  14.238  12.369
34274W        W 6534   9.271  20.124  13.030
34275W        W 6535  23.499   2.910   1.280
34276W        W 6536  37.963   2.857   3.261
34277W        W 6537   1.764  30.536  12.495
34278W        W 6538   7.843  44.929  12.427
34279W        W 6539   8.796   9.239  14.759
34280W        W 6540   7.394  42.003   0.919
34281W        W 6541   8.746  14.179  12.393
34282W        W 6542  27.052  37.909  12.871
34283W        W 6543  36.412   7.816   1.829
34284W        W 6544   7.227  40.941  10.989
34285W        W 6545   6.210  36.930  11.427
34286W        W 6546  24.049  28.047  10.936
34287W        W 6547  32.121  16.712   4.301
34288W        W 6548   1.924  17.104  11.562
34289W        W 6549   0.762  35.071   2.406
34290W        W 6550  18.198   1.363   4.712
34291W        W 6551  42.918   2.862  14.868
34292W        W 6552   2.910  31.037  12.389
34293W        W 6553   7.283  11.777   3.285
34294W        W 6554   4.737  27.944   2.860
34295W        W 6555  44.818  32.414  11.587
34296W        W 6556  30.972   1.322  12.043
34297W        W 6557  29.459  11.210  10.941
34298W        W 6558  40.922   2.314   2.414
34299W        W 6559   8.389  41.532   4.347
34300W        W 6560   9.160  30.112  14.966
34301W        W 6561  27.057  11.294  11.012
34302W        W 6562  23.144  32.976  13.829
34303W        W 6563   1.817  35.941   0.472
34304W        W 6564  16.671  27.117   3.864
34305W        W 6565  15.723   2.369   1.357
34306W        W 6566  37.566  20.125   1.886
34307W        W 6567  25.041  37.849  12.944
34308W        W 6568  39.966  33.427   3.356
34309W        W 6569  37.494   9.249  12.000
34310W        W 6570  16.101  17.736  12.086
34311W        W 6571  23.171  27.101  12.447
34312W        W 6572   4.906  16.650   0.744
34313W        W 6573  13.822  40.824  11.083
34314W        W 6574  30.125  33.005  14.864
34315W        W 6575  44.408  28.573  13.442
34316W        W 6576   0.449  20.682   1.797
34317W        W 6577  36.468   0.984   3.225
34318W        W 6578  36.513  18.169  11.101
34319W        W 6579  32.530  29.514  13.872
34320W        W 6580  15.760   5.754   0.908
34321W        W 6581  31.598   5.808  11.033
34322W        W 6582  18.586  26.490   3.226
34323W        W 6583  37.978   4.880  11.995
34324W        W 6584   9.154  29.630   4.253
34325W        W 6585   3.753  29.135  11.537
34326W        W 6586  17.628  41.870  10.626
34327W        W 6587  22.632   0.830   2.331
34328W        W 6588  44.491   6.919  14.960
34329W        W 6589  34.530  11.185  13.471
34330W        W 6590  30.982   8.734  14.840
34331W        W 6591  24.643  16.581   0.406
34332W        W 6592  16.642  14.691   0.831
34333W        W 6593  31.907   8.673   2.292
34334W        W 6594  23.050  14.147  12.087
34335W        W 6595  36.509   5.290  14.023
34336W        W 6596  38.022  11.132   1.419
34337W        W 6597  34.506   7.842   3.308
34338W        W 6598  11.182  12.296  13.973
34339W        W 6599  41.531   9.756  13.884
34340W        W 6600  23.987  13.810  10.479
34341W        W 6601  40.327  40.335  12.494
34342W        W 6602  29.004  25.612  14.892
34343W        W 6603  33.909  34.041  12.896
34344W        W 6604   6.207   1.250   1.342
34345W        W 6605  27.025  33.488   1.735
34346W        W 6606  42.001  15.650  11.028
34347W        W 6607  18.054  36.584   0.851
34348W        W 6608  13.805  42.311   2.265
34349W        W 6609   8.212  38.947   4.291
34350W        W 6610  40.891  36.452   0.265
34351W        W 6611   9.722  13.832   1.716
34352W        W 6612  37.866  15.125  12.050
34353W        W 6613  18.162  29.954   0.364
34354W        W 6614  27.631  38.523   2.337
34355W        W 6615  17.786  18.199  12.987
34356W        W 6616  29.523  40.951   4.646
34357W        W 6617   7.717  43.501   4.195
34358W        W 6618  10.236  33.544  14.814
34359W        W 6619  42.440   7.398  12.027
34360W        W 6620  38.458  28.096   1.329
34361W        W 6621  31.137  42.434   0.400
34362W        W 6622  37.477  19.533  11.516
34363W        W 6623  27.663  13.714  10.943
34364W        W 6624  35.592  29.979   1.432
34365W        W 6625  30.113   5.850  10.478
34366W        W 6626  27.554   1.355  10.533
34367W        W 6627  40.848  22.184  12.343
34368W        W 6628  26.685  21.540   2.317
34369W        W 6629  12.822   2.352  13.356
34370W        W 6630   2.939  23.697   0.801
34371W        W 6631  15.611  24.996   5.306
34372W        W 6632  17.240   9.672   4.697
34373W        W 6633  21.647  18.706  11.881
34374W        W 6634  21.650  29.954   2.829
34375W        W 6635  42.289  35.480   3.850
34376W        W 6636   6.789   1.289  10.934
34377W        W 6637   7.253  32.049  11.005
34378W        W 6638  43.414   7.243   4.613
34379W        W 6639  13.731  11.789   4.767
34380W        W 6640  14.785   4.868   3.347
34381W        W 6641  39.935   0.941  11.609
34382W        W 6642  26.010  35.047   4.734
34383W        W 6643  34.882   2.837  14.506
34384W        W 6644   6.761   9.890  12.531
34385W        W 6645  19.231   7.188   1.365
34386W        W 6646  28.044  13.719   3.270
34387W        W 6647   1.761  33.904   1.247
34388W        W 6648  31.466  35.588  11.066
34389W        W 6649  20.670   5.362  13.363
34390W        W 6650   3.290  40.540   3.257
34391W        W 6651   0.776  14.746  11.430
34392W        W 6652  30.018  25.638  13.808
34393W        W 6653  44.293  24.059  10.904
34394W        W 6654  29.638   5.715  13.453
34395W        W 6655   1.830  39.354  12.905
34396W        W 6656   9.359   0.802  12.995
34397W        W 6657  15.802  40.493   2.312
34398W        W 6658  26.080  32.993  11.551
34399W        W 6659  39.851   2.944  14.021
34400W        W 6660  14.696  40.366   3.315
34401W        W 6661  35.015  37.553  10.153
34402W        W 6662  36.457  29.133  14.424
34403W        W 6663  18.709   5.222   3.859
34404W        W 6664  25.173  11.626   3.653
34405W        W 6665  20.149  13.780   0.445
34406W        W 6666   0.404   4.266   1.253
34407W        W 6667  10.297  17.273  13.064
34408W        W 6668   1.285   7.801  10.922
34409W        W 6669   2.242  16.779  14.358
34410W        W 6670   6.814  30.497   0.765
34411W        W 6671  14.320  34.432  12.437
34412W        W 6672  15.648  12.833   1.351
34413W        W 6673  13.654   2.259  11.581
34414W        W 6674  30.919  41.397  14.508
34415W        W 6675  31.073  42.937  10.042
34416W        W 6676  20.101  13.107   3.335
34417W        W 6677  15.275   5.199   3.788
34418W        W 6678  37.565  12.302  13.995
34419W        W 6679   0.922   8.242   2.419
34420W        W 6680   2.851  35.373  14.821
34421W        W 6681  37.561   1.272   3.842
34422W        W 6682   3.284  34.096   2.858
34423W        W 6683  23.511   7.853   0.785
34424W        W 6684  25.113  33.875   2.790
34425W        W 6685   8.387   5.815  12.013
34426W        W 6686  10.164  22.661  10.968
34427W        W 6687  21.547  38.069   1.911
34428W        W 6688  27.006  28.620   4.710
34429W        W 6689  37.998  13.806   3.370
34430W        W 6690   2.903   5.438   3.866
34431W        W 6691  38.878  18.201  14.331
34432W        W 6692  20.241  38.348  10.450
34433W        W 6693  20.691  18.718   4.828
34434W        W 6694  18.791  10.762  11.433
34435W        W 6695  22.520   1.826  13.534
34436W        W 6696  17.783   9.716   0.373
34437W        W 6697  32.008  14.280   0.798
34438W        W 6698   4.270  25.682  14.341
34439W        W 6699  24.557  25.553   2.321
34440W        W 6700  13.281  36.349   0.379
34441W        W 6701  27.135  36.552  12.439
34442W        W 6702   9.313  18.050   1.887
34443W        W 6703  12.181   2.874  10.510
34444W        W 6704  43.007  17.128  13.539
34445W        W 6705  16.279  34.061  12.069
34446W        W 6706   1.415  27.628   0.946
34447W        W 6707  42.398  32.590   3.352
34448W        W 6708   0.475   7.327   4.819
34449W        W 6709  30.978  18.704  11.104
34450W        W 6710  20.085  22.082   4.660
34451W        W 6711   3.362  18.240   4.216
34452W        W 6712  19.053  18.270   4.703
34453W        W 6713   2.873  24.615   3.364
34454W        W 6714  42.338  13.199   0.828
34455W        W 6715  20.265  32.524  11.472
34456W        W 6716  42.884  18.704   1.739
34457W        W 6717   3.909  40.460   0.801
34458W        W 6718   9.706  24.059  14.941
34459W        W 6719  30.420  26.175   2.896
34460W        W 6720   8.219  31.136   1.269
34461W        W 6721  10.818   5.241  12.470
34462W        W 6722  11.173   3.867  14.913
34463W        W 6723  42.885   4.366  14.832
34464W        W 6724   2.330  41.527  14.862
34465W        W 6725  25.977   3.858   4.276
34466W        W 6726  17.685  18.263   3.764
34467W        W 6727  26.571  15.626  14.373
34468W        W 6728  23.629  37.917   1.230
34469W        W 6729  43.003  17.205   2.257
34470W        W 6730  35.078  29.983   4.718
34471W        W 6731   1.807  32.538   0.813
34472W        W 6732  15.151  27.565   4.336
34473W        W 6733  25.567   1.859  10.477
34474W        W 6734  29.459  19.592   0.389
34475W        W 6735  33.606  13.200   4.273
34476W        W 6736  44.867  13.126   3.383
34477W        W 6737  32.046  16.204  13.952
34478W        W 6738  19.191  36.944  13.463
34479W        W 6739   5.850  33.877  13.382
34480W        W 6740  40.944  20.584  11.429
34481W        W 6741  24.719  35.082  10.470
34482W        W 6742   5.354  35.889  10.508
34483W        W 6743   6.830   8.307   4.781
34484W        W 6744  42.357  29.132   1.800
34485W        W 6745  41.966  10.801  11.518
34486W        W 6746   1.740  33.572  12.926
34487W        W 6747   8.694  33.967  13.451
34488W        W 6748  39.426  44.889   0.318
34489W        W 6749  25.138  18.204   1.748
34490W        W 6750  41.445  15.749  14.831
34491W        W 6751  12.141   7.720   2.344
34492W        W 6752   7.817  31.549   3.376
34493W        W 6753  13.316  22.737   4.284
34494W        W 6754   1.421  12.757  11.446
34495W        W 6755  33.416  36.401   4.638
34496W        W 6756  25.595   8.225  10.974
34497W        W 6757  23.984  38.986   3.250
34498W        W 6758   7.673  15.329   3.738
34499W        W 6759  26.061  28.458  14.821
34500W        W 6760  12.165  15.631  14.367
34501W        W 6761  23.009  16.624   4.791
34502W        W 6762  23.162  10.254   4.694
34503W        W 6763  24.724  41.328  10.432
34504W        W 6764  37.939  18.179   1.903
34505W        W 6765  40.017  31.145  14.915
34506W        W 6766  16.734  37.932  10.892
34507W        W 6767   0.823  43.946   1.892
34508W        W 6768   8.397   9.884   2.760
34509W        W 6769  19.688  17.590   1.826
34510W        W 6770   6.408  15.585   2.248
34511W        W 6771   4.794  35.395   5.183
34512W        W 6772  42.838  21.637  13.967
34513W        W 6773  15.250   1.384  13.395
34514W        W 6774  41.786  40.809   0.286
34515W        W 6775   8.828   7.371   0.297
34516W        W 6776  28.182  27.945  11.522
34517W        W 6777  44.753  14.331   1.305
34518W        W 6778   1.369  44.886  10.899
34519W        W 6779   8.163  35.057  10.533
34520W        W 6780  13.624   8.750  14.017
34521W        W 6781  19.584   5.239   9.645
34522W        W 6782  27.037  41.030  14.495
34523W        W 6783   6.218  22.716   1.776
34524W        W 6784   8.384  25.138   4.266
34525W        W 6785  34.001  34.110  10.962
34526W        W 6786  14.744  26.473  10.449
34527W        W 6787   1.899  38.841   3.726
34528W        W 6788  28.548  26.160  14.807
34529W        W 6789  18.120  44.481  14.961
34530W        W 6790  27.512  40.310  12.553
34531W        W 6791  21.729  44.960   4.260
34532W        W 6792   5.373   9.340  11.506
34533W        W 6793  15.254  12.630  11.547
34534W        W 6794   1.832  16.569   3.811
34535W        W 6795   0.774  44.805  14.512
34536W        W 6796   1.462  33.562   3.702
34537W        W 6797  44.453  40.397  12.894
34538W        W 6798  38.941  15.699   4.340
34539W        W 6799   3.912  30.627   4.129
34540W        W 6800  22.132  30.531  13.326
34541W        W 6801  10.722   8.842  14.955
34542W        W 6802   5.412  13.671  12.482
34543W        W 6803  14.780  23.734   1.875
34544W        W 6804  42.987  41.449  12.561
34545W        W 6805   5.778   0.810   1.250
34546W        W 6806  22.675   4.867  14.300
34547W        W 6807  38.380   5.858  11.408
34548W        W 6808  43.317  41.453   0.791
34549W        W 6809  32.427  40.973   0.742
34550W        W 6810  20.227   9.283   4.292
34551W        W 6811  32.943   4.782  10.608
34552W        W 6812  19.719   3.408   2.230
34553W        W 6813   3.818  26.684   4.236
34554W        W 6814  27.133  25.626  13.804
34555W        W 6815  10.375  14.231  13.011
34556W        W 6816   7.772  38.417  10.902
34557W        W 6817   7.705  19.572   4.680
34558W        W 6818  19.571  22.213  10.954
34559W        W 6819   6.279  44.332   2.765
34560W        W 6820  34.919  11.314   0.930
34561W        W 6821  27.487  10.342  10.643
34562W        W 6822  27.671  43.958  12.382
34563W        W 6823  44.359   4.371   0.750
34564W        W 6824  37.994   9.831   2.887
34565W        W 6825  17.272  21.568   0.925
34566W        W 6826  40.362  17.215   0.262
34567W        W 6827  32.619  32.459   1.761
34568W        W 6828  26.493  20.621  12.536
34569W        W 6829  21.146  10.344   2.725
34570W        W 6830  14.785   0.844  11.482
34571W        W 6831  21.643   7.704  12.353
34572W        W 6832  18.743  16.206   2.675
34573W        W 6833  21.219   8.310  11.612
34574W        W 6834   4.919  12.131   3.798
34575W        W 6835  24.690  19.094  14.376
34576W        W 6836  20.238   2.798  13.423
34577W        W 6837  41.028   8.791  14.358
34578W        W 6838  37.490   1.834   1.903
34579W        W 6839  44.260  33.612   1.438
34580W        W 6840  43.313   1.798   0.393
34581W        W 6841  16.235  22.086   2.348
34582W        W 6842  43.907  25.496   1.212
34583W        W 6843  28.135  36.928   1.801
34584W        W 6844  39.503  19.127  14.827
34585W        W 6845  16.754   7.735  12.869
34586W        W 6846  23.605  36.002  11.043
34587W        W 6847  43.950  23.203   1.911
34588W        W 6848  42.323   4.413   0.906
34589W        W 6849   0.982  30.915   1.768
34590W        W 6850  20.692  34.462  12.061
34591W        W 6851   5.318  23.214  11.568
34592W        W 6852  19.628   4.208   2.199
34593W        W 6853  23.680  43.930   0.963
34594W        W 6854  27.962  36.357  12.447
34595W        W 6855  22.558  18.574   3.159
34596W        W 6856  41.000   0.475   2.272
34597W        W 6857  25.012   6.214  10.462
34598W        W 6858  33.536  30.564   2.893
34599W        W 6859   7.862   5.778   2.370
34600W        W 6860  40.829  40.310   4.688
34601W        W 6861  22.248   8.720  11.605
34602W        W 6862  38.977  32.070  13.868
34603W        W 6863  10.301   7.780   4.114
34604W        W 6864  27.179  25.099  11.475
34605W        W 6865  29.630  19.047   0.440
34606W        W 6866  34.505  32.394   4.164
34607W        W 6867  23.210   5.408   2.221
34608W        W 6868   2.960  21.617  11.049
34609W        W 6869  39.977  16.073  13.921
34610W        W 6870   0.411  17.728  11.486
34611W        W 6871   3.363  33.527  13.442
34612W        W 6872   2.463  29.624   0.816
34613W        W 6873  29.667  27.016  11.947
34614W        W 6874  17.640  37.454   2.280
34615W        W 6875   6.192   4.299   0.350
34616W        W 6876  35.975  26.520  14.813
34617W        W 6877   4.934   1.740   2.208
34618W        W 6878  30.008  34.547   0.789
34619W        W 6879  22.106  21.670   4.284
34620W        W 6880  21.227   2.468   3.182
34621W        W 6881   1.895  24.205  14.843
34622W        W 6882  14.214  24.690   1.310
34623W        W 6883  12.177  16.682  14.477
34624W        W 6884   4.936  43.932  11.054
34625W        W 6885   4.753  41.877  11.039
34626W        W 6886  36.953  19.109  12.458
34627W        W 6887  10.779  28.086  13.434
34628W        W 6888   8.343  37.061  12.359
34629W        W 6889  14.228   3.865   0.281
34630W        W 6890   5.910  23.565  10.552
34631W        W 6891  11.312  14.615  11.889
34632W        W 6892   5.406   4.712  12.439
34633W        W 6893   7.370  24.976   4.336
34634W        W 6894  18.274   9.653   0.959
34635W        W 6895  26.158   3.305  14.011
34636W        W 6896  14.133  37.865  11.886
34637W        W 6897   5.281  40.019  12.971
34638W        W 6898  15.811  12.229   4.341
34639W        W 6899   2.833   2.897   0.338
34640W        W 6900  40.025  29.130  13.043
34641W        W 6901  30.639  30.616  13.360
34642W        W 6902   7.233  32.549   2.338
34643W        W 6903  11.776   7.304  10.579
34644W        W 6904  16.755   8.260   1.846
34645W        W 6905  40.835   6.207   2.319
34646W        W 6906  33.484   5.204  12.377
34647W        W 6907  30.427  34.051   1.274
34648W        W 6908  27.951  28.059   1.304
34649W        W 6909  14.658  41.487  11.924
34650W        W 6910  16.809  31.146  12.507
34651W        W 6911  43.304  29.014   0.757
34652W        W 6912  20.523  26.057  10.565
34653W        W 6913  32.414  17.179  12.914
34654W        W 6914  24.538  33.016   3.239
34655W        W 6915  29.593  33.044   5.253
34656W        W 6916  44.465  42.314   0.888
34657W        W 6917  19.728  21.698  11.105
34658W        W 6918  15.652   2.275  10.570
34659W        W 6919  10.302  24.133   5.304
34660W        W 6920  26.096  42.317   9.676
34661W        W 6921   8.353  41.372   3.200
34662W        W 6922  28.635  33.096  10.627
34663W        W 6923  32.635  13.239   9.968
34664W        W 6924  38.523   7.840  11.407
34665W        W 6925  27.027  20.073  11.477
34666W        W 6926  17.764   9.656  12.844
34667W        W 6927  11.732  10.192  14.378
34668W        W 6928  15.591  19.758  14.840
34669W        W 6929   8.378  17.301  12.554
34670W        W 6930  22.527   6.283  14.030
34671W        W 6931   6.306  17.157  12.505
34672W        W 6932  29.530  15.125  11.496
34673W        W 6933  43.445  27.635  10.461
34674W        W 6934   1.758  26.576  13.904
34675W        W 6935  41.007  25.156   4.316
34676W        W 6936   9.322   0.764   2.748
34677W        W 6937  33.506  17.594  12.454
34678W        W 6938  14.253  43.835  12.440
34679W        W 6939   6.869  26.678  14.827
34680W        W 6940  23.101  28.555  10.949
34681W        W 6941   1.384  37.949  12.879
34682W        W 6942  44.936  31.960  13.513
34683W        W 6943  30.456   2.866  11.108
34684W        W 6944  21.588  44.817  12.846
34685W        W 6945  35.974   9.794   4.199
34686W        W 6946  13.782  13.649   0.253
34687W        W 6947  37.018  28.117   2.778
34688W        W 6948  27.138  33.056   1.725
34689W        W 6949   6.375   0.842   4.640
34690W        W 6950  34.396  41.995   4.692
34691W        W 6951   8.816  25.690  14.484
34692W        W 6952   1.284  42.304  10.982
34693W        W 6953  19.732  30.591   3.276
34694W        W 6954   2.853  21.523  12.495
34695W        W 6955  37.533  11.846  12.068
34696W        W 6956  22.610  37.982   2.744
34697W        W 6957   5.894   0.291   4.245
34698W        W 6958  10.719  17.264   4.634
34699W        W 6959   6.225  25.054   5.091
34700W        W 6960  36.376  23.671   5.201
34701W        W 6961   1.394   9.653   2.178
34702W        W 6962   2.242  25.165   2.871
34703W        W 6963  39.367  43.904   3.768
34704W        W 6964  39.888  15.601  11.958
34705W        W 6965  23.053  33.532   2.710
34706W        W 6966   6.344   4.420   2.900
34707W        W 6967  32.962   3.429  12.844
34708W        W 6968  43.513  14.136   0.441
34709W        W 6969   5.834  32.593  12.532
34710W        W 6970   0.444   8.833   2.393
34711W        W 6971  20.089  18.252  13.377
34712W        W 6972  33.568   8.732   4.271
34713W        W 6973   1.770  43.786  12.954
34714W        W 6974  13.128  41.430  14.928
34715W        W 6975  43.340  42.896  11.606
34716W        W 6976  15.637  27.071   3.693
34717W        W 6977  28.650  35.961   3.711
34718W        W 6978  25.171   1.965  12.409
34719W        W 6979  36.960  21.027   1.747
34720W        W 6980  17.086   5.362   3.738
34721W        W 6981   1.364   8.783  14.014
34722W        W 6982  30.047   3.938   0.357
34723W        W 6983   0.852  19.284  11.860
34724W        W 6984  20.114   6.806  10.570
34725W        W 6985   1.358  39.009   4.240
34726W        W 6986  39.062  34.001  13.006
34727W        W 6987   3.931  16.612  12.527
34728W        W 6988   1.841  25.551   4.825
34729W        W 6989  26.200  36.019  10.900
34730W        W 6990  16.594  35.365   1.257
34731W        W 6991  37.506  25.647  14.303
34732W        W 6992  37.986   9.376   2.267
34733W        W 6993  24.704  32.891  11.906
34734W        W 6994  19.250  13.174  11.065
34735W        W 6995  42.988  40.380   0.869
34736W        W 6996  32.040  21.060  13.926
34737W        W 6997   0.805   0.463   4.208
34738W        W 6998  15.695  23.068  12.432
34739W        W 6999  17.765   8.742  12.095
34740W        W 7000  19.181  37.012   3.323
34741W        W 7001   7.709  15.132   4.716
34742W        W 7002  40.876  32.441  11.092
34743W        W 7003  21.083   7.897  12.532
34744W        W 7004  13.718  14.650   1.809
34745W        W 7005  37.517  33.976   4.169
34746W        W 7006  44.440  33.942   1.427
34747W        W 7007  11.708  23.577  12.080
34748W        W 7008  44.756  43.764   2.868
34749W        W 7009  30.026  37.947  13.003
34750W        W 7010  15.585  43.984  13.407
34751W        W 7011   8.713  30.627  10.912
34752W        W 7012   2.392  26.205  14.900
34753W        W 7013  13.117  35.534   3.801
34754W        W 7014  37.376  14.677   2.385
34755W        W 7015  43.006  28.547  13.532
34756W        W 7016  41.798   6.205  12.896
34757W        W 7017  26.132   5.421   4.813
34758W        W 7018  34.532  20.531   0.425
34759W        W 7019  10.649  42.480   3.340
34760W        W 7020  17.590  43.368  14.498
34761W        W 7021  20.618  12.690   1.847
34762W        W 7022  29.942  17.751  10.507
34763W        W 7023  41.323  29.530  14.341
34764W        W 7024  34.080  36.360   3.360
34765W        W 7025  38.934  32.120  11.095
34766W        W 7026   2.325  18.758  13.328
34767W        W 7027   0.867  24.009  11.985
34768W        W 7028  11.235  31.985   0.957
34769W        W 7029   5.896  29.424  14.814
34770W        W 7030   1.785  29.658  10.497
34771W        W 7031  31.077  12.618   4.138
34772W        W 7032  28.056   3.782   9.977
34773W        W 7033  27.626  44.473  11.457
34774W        W 7034   5.833  10.781  10.523
34775W        W 7035  44.403  17.143   2.853
34776W        W 7036  22.648  21.119  11.550
34777W        W 7037   2.343  15.667   9.941
34778W        W 7038   6.195   4.251  11.874
34779W        W 7039  33.389  36.404   2.189
34780W        W 7040  28.172  34.474   1.737
34781W        W 7041   3.934  14.618   2.878
34782W        W 7042  29.054   3.789  13.823
34783W        W 7043  24.154  23.694   4.686
34784W        W 7044   4.944  14.628   4.639
34785W        W 7045  44.988  35.582  13.803
34786W        W 7046   0.443   0.950  10.593
34787W        W 7047  21.045  26.647  13.401
34788W        W 7048  13.725   8.793   1.348
34789W        W 7049  24.660  17.566  14.376
34790W        W 7050   2.414   0.781  10.546
34791W        W 7051   9.681   8.899  11.077
34792W        W 7052  43.823  23.624  12.421
34793W        W 7053  42.482  44.285   1.751
34794W        W 7054   9.172  35.528  13.485
34795W        W 7055  18.570  15.089   4.181
34796W        W 7056  37.429  31.644   4.653
34797W        W 7057   3.251  11.309  10.479
34798W        W 7058  19.188  32.890  11.373
34799W        W 7059  34.917  35.396   3.257
34800W        W 7060  25.141   1.298  14.275
34801W        W 7061  43.318  40.973  14.910
34802W        W 7062  30.109  15.104   0.807
34803W        W 7063  25.003  10.866   1.921
34804W        W 7064  32.997  38.432   1.242
34805W        W 7065  32.042  25.990   0.822
34806W        W 7066  20.708  44.782   4.838
34807W        W 7067   6.868  30.960  14.366
34808W        W 7068   8.692   3.405   3.210
34809W        W 7069   0.842  32.977  12.897
34810W        W 7070  23.214  35.915  11.587
34811W        W 7071  22.575  18.630   1.779
34812W        W 7072  10.864  16.112  12.440
34813W        W 7073   6.256  23.722  11.863
34814W        W 7074  13.720  22.571  10.419
34815W        W 7075  42.840  10.669  12.580
34816W        W 7076  14.099  13.349   3.382
34817W        W 7077   2.732  38.052   3.667
34818W        W 7078  26.470  23.547   2.218
34819W        W 7079  43.505  16.638  13.889
34820W        W 7080  44.814  10.209  11.054
34821W        W 7081  14.304  13.237   2.812
34822W        W 7082   8.382  33.051   1.299
34823W        W 7083  36.006   3.726  14.344
34824W        W 7084  30.040   7.725   2.755
34825W        W 7085  12.165  10.296  14.337
34826W        W 7086  20.154  21.748   1.700
34827W        W 7087  36.044  36.066   2.816
34828W        W 7088  32.989  41.477  14.401
34829W        W 7089  16.199   8.400   4.686
34830W        W 7090  13.347   1.458  11.997
34831W        W 7091  30.986  44.872   2.799
34832W        W 7092  34.440  37.988   3.686
34833W        W 7093  12.848  35.383  10.410
34834W        W 7094  16.619  36.991   2.845
34835W        W 7095  44.323  41.321  13.005
34836W        W 7096  34.958  39.340   3.237
34837W        W 7097  16.624   5.917  13.499
34838W        W 7098  32.116  25.987  12.045
34839W        W 7099   5.334  26.477  10.516
34840W        W 7100   5.207   8.712   1.886
34841W        W 7101  37.078  22.140   0.844
34842W        W 7102  36.877  43.870   2.380
34843W        W 7103  33.001  39.885   3.868
34844W        W 7104  28.088  22.512  13.043
34845W        W 7105  40.027  23.044  13.545
34846W        W 7106  34.062  43.970   3.260
34847W        W 7107  33.034  14.171  13.876
34848W        W 7108   4.900  15.283   1.762
34849W        W 7109  39.511  26.051  13.438
34850W        W 7110  21.665  32.395  13.042
34851W        W 7111  12.155  10.297   0.464
34852W        W 7112  31.606  18.597   4.821
34853W        W 7113  23.085  17.759  14.957
34854W        W 7114  12.635   5.880   0.899
34855W        W 7115  31.419   1.744  13.313
34856W        W 7116  31.916   9.747   2.323
34857W        W 7117   0.427  36.427  13.033
34858W        W 7118  25.601  26.577  10.481
34859W        W 7119  26.479   9.768  12.363
34860W        W 7120   1.749  44.322   0.766
34861W        W 7121  25.142  33.466   3.735
34862W        W 7122  21.549  32.965  14.778
34863W        W 7123  25.671  38.991   4.192
34864W        W 7124  35.482  26.695   1.772
34865W        W 7125  12.210  17.609  10.460
34866W        W 7126  31.635   5.916   2.830
34867W        W 7127  18.740  25.606  14.997
34868W        W 7128  15.280  15.225  11.052
34869W        W 7129  18.218  22.034   1.244
34870W        W 7130  12.226  34.466  12.435
34871W        W 7131  18.106  23.521   2.878
34872W        W 7132  30.499  41.813   1.749
34873W        W 7133  17.256  21.054   1.379
34874W        W 7134  14.644   7.391  14.397
34875W        W 7135   7.718  21.650  10.920
34876W        W 7136  40.472  26.570   4.830
34877W        W 7137  33.899  19.065  13.038
34878W        W 7138  14.778  16.101   4.732
34879W        W 7139  16.242  42.792   2.329
34880W        W 7140  21.251   8.893  13.393
34881W        W 7141  38.910  21.745  12.024
34882W        W 7142  10.322   5.861  13.022
34883W        W 7143  15.719  34.463   4.311
34884W        W 7144  26.964  33.415  12.036
34885W        W 7145  18.710  34.924  12.069
34886W        W 7146  34.018  25.151  12.040
34887W        W 7147  17.780  13.169  14.389
34888W        W 7148  42.020  23.547   4.762
34889W        W 7149  31.452   6.347   0.877
34890W        W 7150  40.020  19.230  14.890
34891W        W 7151  39.402  14.613   4.708
34892W        W 7152  42.522   8.312   3.362
34893W        W 7153   7.879  24.051   4.318
34894W        W 7154  18.673  38.500  14.859
34895W        W 7155  43.424  38.394   0.849
34896W        W 7156  24.554  14.773   2.191
34897W        W 7157   9.770  19.668  10.416
34898W        W 7158  44.352  44.417  13.050
34899W        W 7159   4.752  26.623   1.341
34900W        W 7160  30.496  31.535  14.901
34901W        W 7161   3.758   7.403   0.306
34902W        W 7162  33.535  43.405  12.537
34903W        W 7163  17.097  20.183   0.846
34904W        W 7164   7.805   2.720  13.357
34905W        W 7165  14.295  37.849  10.600
34906W        W 7166  27.085  33.489  13.527
34907W        W 7167  10.142  38.888   4.172
34908W        W 7168   6.910  25.635  11.116
34909W        W 7169  17.555  11.260   3.869
34910W        W 7170  44.503  22.115   0.282
34911W        W 7171  23.553  42.775   1.753
34912W        W 7172  21.185  41.983   1.701
34913W        W 7173  43.355  17.198   0.294
34914W        W 7174  11.142  11.146  12.881
34915W        W 7175  36.365   1.440   3.793
34916W        W 7176  23.145  44.354   1.341
34917W        W 7177  24.086  28.495  14.349
34918W        W 7178   9.324  26.205  14.988
34919W        W 7179  18.201  40.020  10.617
34920W        W 7180  29.488  39.486  11.434
34921W        W 7181  41.996  28.491   4.619
34922W        W 7182  36.905  19.620   1.375
34923W        W 7183  12.176  17.293   4.650
34924W        W 7184   0.794  12.633   2.269
34925W        W 7185  23.024  22.569   1.408
34926W        W 7186   8.306  38.901  12.880
34927W        W 7187  21.757   4.248  13.821
34928W        W 7188  23.085  39.377  10.912
34929W        W 7189   0.275   6.703   0.479
34930W        W 7190  32.138   4.387  11.575
34931W        W 7191  28.664  37.516  10.414
34932W        W 7192  21.677  41.930   1.412
34933W        W 7193   1.294  24.204   0.474
34934W        W 7194  38.055  26.133   3.185
34935W        W 7195   6.871  29.573  12.554
34936W        W 7196  12.647  11.656   3.669
34937W        W 7197  10.147  32.106  13.376
34938W        W 7198   2.289  36.548  13.926
34939W        W 7199  42.469  21.086  10.118
34940W        W 7200  24.686   4.875  14.920
34941W        W 7201  37.405  16.770   0.899
34942W        W 7202  33.888  42.866  11.464
34943W        W 7203  40.047  23.075   1.723
34944W        W 7204  18.760  17.795  10.903
34945W        W 7205  34.935   3.228   0.395
34946W        W 7206  18.648  40.009   4.750
34947W        W 7207  44.938  22.094   4.691
34948W        W 7208  33.516  25.588   0.436
34949W        W 7209  13.609  37.574  12.367
34950W        W 7210  27.553   6.876  13.976
34951W        W 7211  12.829  10.677  14.023
34952W        W 7212   2.775  20.593  13.021
34953W        W 7213  44.922  42.815   0.868
34954W        W 7214   1.883  44.767  10.442
34955W        W 7215  31.453  10.376  12.402
34956W        W 7216  29.141  40.853  13.952
34957W        W 7217  10.650  32.919   2.864
34958W        W 7218  39.530   1.961  10.506
34959W        W 7219  19.156  44.889  11.384
34960W        W 7220  43.979   4.889  14.448
34961W        W 7221  31.132   9.717  12.012
34962W        W 7222   6.196   9.841   3.823
34963W        W 7223  26.980   7.708  14.332
34964W        W 7224  10.310  37.526   4.328
34965W        W 7225  10.382  14.113  14.956
34966W        W 7226  27.103  18.705  11.960
34967W        W 7227  15.800  32.533   1.886
34968W        W 7228   5.703  25.635  11.054
34969W        W 7229  43.291  15.688   1.301
34970W        W 7230  28.965  25.711   0.906
34971W        W 7231  16.599  17.254  14.358
34972W        W 7232  20.256  12.676  10.003
34973W        W 7233  43.490  31.458   4.201
34974W        W 7234  12.764  26.557  12.358
34975W        W 7235  14.322   1.471   4.207
34976W        W 7236   3.720  37.071   1.337
34977W        W 7237  30.626  38.408   1.774
34978W        W 7238  11.624  41.316  14.981
34979W        W 7239  30.041  14.186  12.376
34980W        W 7240   3.424  17.681  10.562
34981W        W 7241  23.001   1.970   0.935
34982W        W 7242  24.159   5.789  10.952
34983W        W 7243  40.496  27.118  14.357
34984W        W 7244   2.898  29.077   0.324
34985W        W 7245  44.407   6.682   2.215
34986W        W 7246  37.529  38.903  14.028
34987W        W 7247  44.926   1.478  12.394
34988W        W 7248  40.407  20.587   1.351
34989W        W 7249   8.885  35.866  10.410
34990W        W 7250   0.791  29.953   1.817
34991W        W 7251  31.568  26.020  11.084
34992W        W 7252   8.290   0.849   0.426
34993W        W 7253  40.053   3.717   1.298
34994W        W 7254  34.482  29.528  12.482
34995W        W 7255  10.169  38.547   2.781
34996W        W 7256   3.826  31.560   3.742
34997W        W 7257  33.446  29.485   3.172
34998W        W 7258  18.650   7.834  11.032
34999W        W 7259  12.351  10.300  11.971
35000W        W 7260  42.294  36.508   0.437
35001W        W 7261  36.531   0.488  13.392
35002W        W 7262  30.106  35.027   2.770
35003W        W 7263  42.872  26.028  11.578
35004W        W 7264   4.765  36.373   2.834
35005W        W 7265  12.680  10.250   0.324
35006W        W 7266  17.801  24.495  10.532
35007W        W 7267  44.442   8.197  13.042
35008W        W 7268  13.696  25.127   2.755
35009W        W 7269  19.672  40.412  13.526
35010W        W 7270  17.656  32.969  10.941
35011W        W 7271   7.238  23.635  13.345
35012W        W 7272  31.570  26.657  11.032
35013W        W 7273  12.216  39.049  14.337
35014W        W 7274  26.145  33.944  12.453
35015W        W 7275  43.883  26.994   1.915
35016W        W 7276  22.564  28.103   0.880
35017W        W 7277  39.059  33.981   1.431
35018W        W 7278  12.848  32.982  10.913
35019W        W 7279  27.469  12.630  12.558
35020W        W 7280  31.506  21.207  13.882
35021W        W 7281  18.713   0.351  10.940
35022W        W 7282  35.026  17.711  12.061
35023W        W 7283  40.468   5.279   3.853
35024W        W 7284  24.136  26.668  12.520
35025W        W 7285  25.657  21.538  13.350
35026W        W 7286  26.599  23.503  11.877
35027W        W 7287  22.996  28.513   3.180
35028W        W 7288  12.261  12.726  10.921
35029W        W 7289   0.974  19.581  12.470
35030W        W 7290  41.955  31.533   2.393
35031W        W 7291  15.746  11.641  14.445
35032W        W 7292   8.787  27.671  11.075
35033W        W 7293   7.395  37.438   1.239
35034W        W 7294  30.476   2.394   0.734
35035W        W 7295  18.668  39.963   4.232
35036W        W 7296  33.040  35.922  13.001
35037W        W 7297   4.341  40.360  12.377
35038W        W 7298   3.883   3.297  12.394
35039W        W 7299  33.078  16.618  13.441
35040W        W 7300  32.925  36.077   0.951
35041W        W 7301   4.376   7.861   2.367
35042W        W 7302  44.286  37.957  12.074
35043W        W 7303  16.681  19.132   2.878
35044W        W 7304  17.576  32.565  14.905
35045W        W 7305  16.290  34.874  13.822
35046W        W 7306  26.001  21.153  13.929
35047W        W 7307   8.379  24.723   4.134
35048W        W 7308  10.322  24.700   3.816
35049W        W 7309   1.453  18.581  12.869
35050W        W 7310  22.153  16.714   4.147
35051W        W 7311  26.569  13.788  10.934
35052W        W 7312   2.446  42.525  13.816
35053W        W 7313  37.348   8.266   1.359
35054W        W 7314  34.970   0.801  12.942
35055W        W 7315  37.495  33.115   1.701
35056W        W 7316   6.244   7.195  10.091
35057W        W 7317  21.217  13.700   2.190
35058W        W 7318  15.223  11.625  12.481
35059W        W 7319  35.471   8.663   4.345
35060W        W 7320  24.552   9.723  12.995
35061W        W 7321  10.224  13.155  11.387
35062W        W 7322  27.021  11.732  10.585
35063W        W 7323  35.043   1.855  11.862
35064W        W 7324   1.244  23.986  14.890
35065W        W 7325  22.609  16.685  13.801
35066W        W 7326   2.949  13.657   0.299
35067W        W 7327   0.379  32.998  14.977
35068W        W 7328   9.263  39.504  11.952
35069W        W 7329  30.033  35.871   0.811
35070W        W 7330  11.716  22.567   4.801
35071W        W 7331  29.985  14.785  13.321
35072W        W 7332  29.644  40.350  10.586
35073W        W 7333   4.244  23.139   3.816
35074W        W 7334  15.820  15.749   2.793
35075W        W 7335  38.325  21.245   3.729
35076W        W 7336   6.426  21.665  12.889
35077W        W 7337  18.071  33.439  14.940
35078W        W 7338  39.392  28.500   4.319
35079W        W 7339   1.882  29.470   0.352
35080W        W 7340  16.786  44.850  12.878
35081W        W 7341  37.872  13.841   1.707
35082W        W 7342  42.336   4.403   1.424
35083W        W 7343   7.211   2.771   4.706
35084W        W 7344  18.189  29.055   1.407
35085W        W 7345  42.451   6.314   2.378
35086W        W 7346  35.501   6.704   1.799
35087W        W 7347  13.255  37.507   4.346
35088W        W 7348  15.151  15.782   3.679
35089W        W 7349  29.009  15.756   3.691
35090W        W 7350  18.178  18.720  13.536
35091W        W 7351  18.174  35.078  11.865
35092W        W 7352  34.053  23.027  13.325
35093W        W 7353  22.025  16.268  11.462
35094W        W 7354  19.203  24.229  13.059
35095W        W 7355  16.079  18.619   1.742
35096W        W 7356  23.734  28.105  13.947
35097W        W 7357   4.942  15.177  13.374
35098W        W 7358  31.014   5.416  13.943
35099W        W 7359   0.327  28.031  12.894
35100W        W 7360  32.112   5.909   0.884
35101W        W 7361   9.269  30.625  13.369
35102W        W 7362  44.436  41.306   2.880
35103W        W 7363  31.000  34.563  12.478
35104W        W 7364  10.284  15.261  13.507
35105W        W 7365  27.640  19.205  13.382
35106W        W 7366  39.831   6.714   1.806
35107W        W 7367   4.932  18.263  13.350
35108W        W 7368  15.266  26.648   2.735
35109W        W 7369  32.019   6.798   3.683
35110W        W 7370   9.340   4.863   2.767
35111W        W 7371  20.271  39.422   3.248
35112W        W 7372  13.752  13.237   0.343
35113W        W 7373  16.144  12.795   1.745
35114W        W 7374  34.895  43.811  10.559
35115W        W 7375  29.520  24.999  12.083
35116W        W 7376  18.157  23.131  11.077
35117W        W 7377   9.171  12.668   0.794
35118W        W 7378  28.672  15.317  12.571
35119W        W 7379   4.320  28.593  11.016
35120W        W 7380  27.607   3.790   0.965
35121W        W 7381  36.060  29.138   3.178
35122W        W 7382   5.905  16.780  13.929
35123W        W 7383   5.301  36.487   1.887
35124W        W 7384  17.175  44.886   0.460
35125W        W 7385   3.346  17.703  11.596
35126W        W 7386  31.126  39.043   2.319
35127W        W 7387  23.186   0.326  13.958
35128W        W 7388  11.790  31.458   0.316
35129W        W 7389  25.642  24.130  10.568
35130W        W 7390  33.387  22.151   2.346
35131W        W 7391  12.314  31.102  14.507
35132W        W 7392  34.503  20.551   2.900
35133W        W 7393  12.738   9.746   4.141
35134W        W 7394  15.738  36.384  11.514
35135W        W 7395  40.433  18.688   1.803
35136W        W 7396  32.913  25.620  10.997
35137W        W 7397   2.812  29.943  11.962
35138W        W 7398  21.074  28.627  10.005
35139W        W 7399  43.813  26.521  11.552
35140W        W 7400   7.330  30.131  14.366
35141W        W 7401  22.741  18.144   3.636
35142W        W 7402  31.623   3.759  12.546
35143W        W 7403   4.237   8.732  14.773
35144W        W 7404  15.123  29.525   0.838
35145W        W 7405  29.613  12.613  10.084
35146W        W 7406  15.612  21.728   4.791
35147W        W 7407  29.029  37.458   0.481
35148W        W 7408   2.766   7.405   2.348
35149W        W 7409  19.607  30.110  10.606
35150W        W 7410   1.396   8.254  11.404
35151W        W 7411   6.866  37.921   3.356
35152W        W 7412  35.390  27.526  14.366
35153W        W 7413  31.036  34.423  14.335
35154W        W 7414   1.776  38.915   0.757
35155W        W 7415   0.359   2.242  10.586
35156W        W 7416  19.211  41.359  14.406
35157W        W 7417  28.137   8.894   5.303
35158W        W 7418  35.979   6.370  10.453
35159W        W 7419  22.518  35.036  10.945
35160W        W 7420  17.136  29.975  13.958
35161W        W 7421  17.688   9.797  14.941
35162W        W 7422   4.794  43.499  14.349
35163W        W 7423  44.972  41.305  12.839
35164W        W 7424  16.606  20.546   2.412
35165W        W 7425   8.884  29.490   5.138
35166W        W 7426   6.186  42.340  12.952
35167W        W 7427  42.837  36.449  11.906
35168W        W 7428  32.013  43.501  14.788
35169W        W 7429  11.133  41.371   3.223
35170W        W 7430  41.884  42.293  10.919
35171W        W 7431  14.657   4.897  11.037
35172W        W 7432  23.212   7.364  13.524
35173W        W 7433   3.758   5.760   1.210
35174W        W 7434  41.840  41.526  13.500
35175W        W 7435  10.817  35.007   0.808
35176W        W 7436  30.109  17.070  12.863
35177W        W 7437   1.909  21.594   2.763
35178W        W 7438   9.821  41.535   4.196
35179W        W 7439  36.096  24.543   0.251
35180W        W 7440  21.586   0.754  13.834
35181W        W 7441  28.679   9.759  13.492
35182W        W 7442  39.433  12.835   3.760
35183W        W 7443   1.299  42.295  12.547
35184W        W 7444   8.716  32.489   3.369
35185W        W 7445  20.207  14.835  11.452
35186W        W 7446  17.788   8.680   1.277
35187W        W 7447  39.332  31.448  13.365
35188W        W 7448  32.135  13.725  12.566
35189W        W 7449  31.579  23.211   2.803
35190W        W 7450  27.029  25.104   0.462
35191W        W 7451   9.384  19.685  13.520
35192W        W 7452  33.920  19.587   5.280
35193W        W 7453   8.284  40.453   4.802
35194W        W 7454   1.414   7.391  14.002
35195W        W 7455  38.519   6.281  12.410
35196W        W 7456   9.300  21.088  11.481
35197W        W 7457  10.171  22.997  14.974
35198W        W 7458  39.447   8.370   2.234
35199W        W 7459  27.175  14.645  10.492
35200W        W 7460  44.443   2.339  10.426
35201W        W 7461  33.575   9.871   1.718
35202W        W 7462  18.092  33.424   0.391
35203W        W 7463  42.446  13.672   2.785
35204W        W 7464   8.401   4.218  13.354
35205W        W 7465  41.820   1.924  11.536
35206W        W 7466  31.080   0.469  12.903
35207W        W 7467  30.452  33.024  13.396
35208W        W 7468  22.661  26.153  13.909
35209W        W 7469   0.861  20.056   1.298
35210W        W 7470  28.648   4.808  14.913
35211W        W 7471   0.272  39.845   3.816
35212W        W 7472  40.440  15.682   1.263
35213W        W 7473  38.054  19.643   4.242
35214W        W 7474  31.956  40.304   3.746
35215W        W 7475  40.492  13.234  12.995
35216W        W 7476  26.651  43.775   0.757
35217W        W 7477  39.449  10.334   3.656
35218W        W 7478   2.788   1.458   4.119
35219W        W 7479   1.935  27.053  14.508
35220W        W 7480  40.342  20.701   2.758
35221W        W 7481  29.656   8.375   2.390
35222W        W 7482   6.373  10.719   2.188
35223W        W 7483  29.430  37.439  10.969
35224W        W 7484  26.204   8.809   1.765
35225W        W 7485   2.228   2.226   3.868
35226W        W 7486  27.485  44.321   1.909
35227W        W 7487   3.313  22.546   0.922
35228W        W 7488  25.680  34.440  13.365
35229W        W 7489  35.498  36.583   2.317
35230W        W 7490  41.870  22.684  14.924
35231W        W 7491  15.821  20.745  10.584
35232W        W 7492  35.455  25.001  10.477
35233W        W 7493  25.998  14.827   4.173
35234W        W 7494  30.419   4.766  14.006
35235W        W 7495  12.836  15.822   4.303
35236W        W 7496  28.958  37.461   4.308
35237W        W 7497  18.686   6.793  13.390
35238W        W 7498   2.863   9.273  12.905
35239W        W 7499  13.660   1.758   0.783
35240W        W 7500   0.905  42.799   4.160
35241W        W 7501  13.345  10.765  12.998
35242W        W 7502   6.374  36.462   0.929
35243W        W 7503   3.366  43.858  10.065
35244W        W 7504  36.550  38.520   1.902
35245W        W 7505  27.658  26.676  12.959
35246W        W 7506   9.201  19.228  13.336
35247W        W 7507   7.905  13.665  11.061
35248W        W 7508  22.190   1.832   1.392
35249W        W 7509  32.936   5.387  10.529
35250W        W 7510  39.909  31.034   2.281
35251W        W 7511   3.812  39.538  12.875
35252W        W 7512  36.043  12.801   2.680
35253W        W 7513  26.600  21.543   0.304
35254W        W 7514  33.019   4.246  12.948
35255W        W 7515  31.631  34.478   4.180
35256W        W 7516   2.965  25.177  14.477
35257W        W 7517  36.880  30.480  13.397
35258W        W 7518  12.664  28.536  12.453
35259W        W 7519   6.394  40.932   3.843
35260W        W 7520  39.417  13.805   3.644
35261W        W 7521  25.046  43.440  12.515
35262W        W 7522   5.876   9.859   1.890
35263W        W 7523  10.273  26.673  11.608
35264W        W 7524  42.967  42.957   0.256
35265W        W 7525  13.621  29.931  13.945
35266W        W 7526   5.251  12.346  14.466
35267W        W 7527  12.768  15.228  11.991
35268W        W 7528  17.158  17.630   2.351
35269W        W 7529  25.666  13.657   3.853
35270W        W 7530  19.269  17.638  13.484
35271W        W 7531   0.909  12.257  12.348
35272W        W 7532  27.461  11.372  10.981
35273W        W 7533  20.743  13.129  12.078
35274W        W 7534  35.432   6.391   3.638
35275W        W 7535  30.996  16.074   1.376
35276W        W 7536  18.114  19.563   4.330
35277W        W 7537  30.514  16.589   0.409
35278W        W 7538  35.451  18.673   0.267
35279W        W 7539   9.309  44.989   2.370
35280W        W 7540  23.528  30.626   0.863
35281W        W 7541  37.395  42.945  12.376
35282W        W 7542   7.174  11.363  13.497
35283W        W 7543   8.760  15.600   2.268
35284W        W 7544  41.500  30.921   4.209
35285W        W 7545   9.211   3.313  13.952
35286W        W 7546  14.123  23.137  11.003
35287W        W 7547  26.205   8.221  10.461
35288W        W 7548  12.671  10.711   1.791
35289W        W 7549   1.882   2.228   1.861
35290W        W 7550  14.747   1.944  13.044
35291W        W 7551  18.076   8.197  12.914
35292W        W 7552  41.993  34.584  14.786
35293W        W 7553  32.958  10.264  13.803
35294W        W 7554   6.408  32.456  11.479
35295W        W 7555  15.737  32.397  12.410
35296W        W 7556  25.528  13.324  13.418
35297W        W 7557  34.486  29.553  10.618
35298W        W 7558  18.770  20.226   1.403
35299W        W 7559  11.171  16.260   4.203
35300W        W 7560  14.622  30.463  12.902
35301W        W 7561  15.146  25.005   3.367
35302W        W 7562  17.702   0.281  14.962
35303W        W 7563   1.851  10.363  10.015
35304W        W 7564  38.440  17.698  11.068
35305W        W 7565  10.706  20.151   4.165
35306W        W 7566  39.880  12.850  14.945
35307W        W 7567  14.226  41.848   1.884
35308W        W 7568  11.359  11.634  14.329
35309W        W 7569  16.603  39.879   0.935
35310W        W 7570   4.351   9.701   0.924
35311W        W 7571  35.094  26.666   4.122
35312W        W 7572  38.531  21.599  10.890
35313W        W 7573  27.537  10.796  13.814
35314W        W 7574  33.616   4.270   2.246
35315W        W 7575  41.359  38.918  11.082
35316W        W 7576  16.764  32.413  14.515
35317W        W 7577  31.598  17.307   4.171
35318W        W 7578  43.417  43.830   0.466
35319W        W 7579  37.975   0.471  11.502
35320W        W 7580  22.143  37.885   2.799
35321W        W 7581  15.629  15.216   3.705
35322W        W 7582   8.168  32.953   2.691
35323W        W 7583  30.957  27.080   1.805
35324W        W 7584  15.093  16.226  11.521
35325W        W 7585  16.633  27.524  10.642
35326W        W 7586  24.215  43.774   4.812
35327W        W 7587  39.315  43.792  13.864
35328W        W 7588  18.655   6.818  10.990
35329W        W 7589  44.816  27.466  14.975
35330W        W 7590  13.218  40.308   1.713
35331W        W 7591  18.593   2.247  10.555
35332W        W 7592  15.249  34.942  10.974
35333W        W 7593   9.286  31.413   3.747
35334W        W 7594  19.243  31.482  11.939
35335W        W 7595  35.869  37.985   4.747
35336W        W 7596   6.409  17.067  11.539
35337W        W 7597  15.744  38.328   4.717
35338W        W 7598  35.103  15.734  14.396
35339W        W 7599  19.616  14.111  10.488
35340W        W 7600  23.236   5.925  10.434
35341W        W 7601  33.462  37.003   9.977
35342W        W 7602  17.776  19.733  11.016
35343W        W 7603   2.938  10.816  14.496
35344W        W 7604   7.668  27.989   4.747
35345W        W 7605  36.025   5.902   0.279
35346W        W 7606  19.607  27.499  13.022
35347W        W 7607  25.177  41.009  13.524
35348W        W 7608   1.743   2.461   3.804
35349W        W 7609  43.859   6.422  13.358
35350W        W 7610  20.674  10.828   0.732
35351W        W 7611  35.406   0.442  14.918
35352W        W 7612  11.836  32.459  13.890
35353W        W 7613  33.498  23.574  13.480
35354W        W 7614  25.468  12.797   5.129
35355W        W 7615  15.249  44.491  12.356
35356W        W 7616  23.101   9.338   4.639
35357W        W 7617  14.108  19.752   4.753
35358W        W 7618  34.494  27.468  11.494
35359W        W 7619  33.622  37.846  11.117
35360W        W 7620  24.513  35.104  11.872
35361W        W 7621  35.384  32.469   3.759
35362W        W 7622   8.795  24.708  12.898
35363W        W 7623  43.845  13.128   0.795
35364W        W 7624  27.996   1.847  10.620
35365W        W 7625  34.410  42.799  11.371
35366W        W 7626  26.968  28.606  12.402
35367W        W 7627  26.619   2.962   0.843
35368W        W 7628   1.859  10.251  14.285
35369W        W 7629   5.303  12.359  13.891
35370W        W 7630   6.733   7.766  10.488
35371W        W 7631  35.368  32.423  11.580
35372W        W 7632  32.101  21.078   0.872
35373W        W 7633  26.166  19.575  10.581
35374W        W 7634  44.003  31.620   0.245
35375W        W 7635   0.416  21.223  11.884
35376W        W 7636   9.887  21.732   0.324
35377W        W 7637  38.400  13.234   2.181
35378W        W 7638  28.040  15.250  12.472
35379W        W 7639   5.794  42.389   4.814
35380W        W 7640  37.407   2.448  14.443
35381W        W 7641  20.716   1.464   1.271
35382W        W 7642  13.236   6.684   4.826
35383W        W 7643   4.730   9.337  11.379
35384W        W 7644  22.686  35.449  11.914
35385W        W 7645  19.279  18.755   3.720
35386W        W 7646  32.613  12.736   5.209
35387W        W 7647   6.183  16.105  11.423
35388W        W 7648  19.159  24.598   2.368
35389W        W 7649  35.973   2.747  11.951
35390W        W 7650  24.491  32.101   3.231
35391W        W 7651  36.368  13.834   3.271
35392W        W 7652  29.552  16.757   0.910
35393W        W 7653  36.496   0.749  10.409
35394W        W 7654  38.858  28.968   2.205
35395W        W 7655  31.119  30.981   1.754
35396W        W 7656  18.280  33.428   4.202
35397W        W 7657  24.126  43.912   3.688
35398W        W 7658  27.144  24.661   3.778
35399W        W 7659  25.172  19.713   2.668
35400W        W 7660  24.525  37.410  13.859
35401W        W 7661  18.560  21.662   1.796
35402W        W 7662  43.804  43.980   4.206
35403W        W 7663  27.454  10.684  13.334
35404W        W 7664  28.153  24.216   0.917
35405W        W 7665   3.303  35.906  14.823
35406W        W 7666  44.008   1.966   4.318
35407W        W 7667   1.948  15.104   3.259
35408W        W 7668   4.812  39.389  11.505
35409W        W 7669  21.102  35.044  10.541
35410W        W 7670  21.565   9.271  13.996
35411W        W 7671  22.201  29.975  13.458
35412W        W 7672   0.269   4.353  12.937
35413W        W 7673  10.824  10.749   1.290
35414W        W 7674  18.622  29.592   1.763
35415W        W 7675  44.816  15.634  12.032
35416W        W 7676  28.131  28.522  10.441
35417W        W 7677  39.481  20.537   0.752
35418W        W 7678  16.628  11.184   3.809
35419W        W 7679  27.451  39.902   2.760
35420W        W 7680  17.100  40.829   2.415
35421W        W 7681  22.537  38.404  10.635
35422W        W 7682  32.636  36.875   0.809
35423W        W 7683  31.631  12.664   0.253
35424W        W 7684  29.137   3.932  11.489
35425W        W 7685  33.083  44.420  13.975
35426W        W 7686  39.400  39.022  12.553
35427W        W 7687  26.543  39.810  14.829
35428W        W 7688   1.854  39.965  14.771
35429W        W 7689  22.741  43.443  14.326
35430W        W 7690   5.254  19.726   3.224
35431W        W 7691   1.929   1.941   3.261
35432W        W 7692   8.265  19.143  13.491
35433W        W 7693  24.993  34.436   2.677
35434W        W 7694  20.085  44.295  13.006
35435W        W 7695   9.795   6.841   3.706
35436W        W 7696   1.913  13.215  11.430
35437W        W 7697  44.462  15.125  11.385
35438W        W 7698  27.133  33.876  13.005
35439W        W 7699  33.901  24.591  14.456
35440W        W 7700  29.464  35.030  13.797
35441W        W 7701  42.500  26.171  10.586
35442W        W 7702   3.214   2.353   0.886
35443W        W 7703  34.889  37.576   3.710
35444W        W 7704  11.848  10.745   1.927
35445W        W 7705   6.313  23.157  13.453
35446W        W 7706  19.623  10.147  13.477
35447W        W 7707   7.794   7.381   1.880
35448W        W 7708  41.980  42.892  13.312
35449W        W 7709  37.071  11.791   1.806
35450W        W 7710  25.017  15.161   2.382
35451W        W 7711   1.366   8.894   4.159
35452W        W 7712  29.591  18.217  10.466
35453W        W 7713  26.564  42.287  11.961
35454W        W 7714   6.251  19.199  12.948
35455W        W 7715  34.981  35.987   4.120
35456W        W 7716  21.217  25.109   2.195
35457W        W 7717  23.148  29.929   3.664
35458W        W 7718   7.777   7.237   1.283
35459W        W 7719  42.481  11.622  10.533
35460W        W 7720  25.109  29.574  10.988
35461W        W 7721  24.164  12.636  10.082
35462W        W 7722  41.911   0.438  11.109
35463W        W 7723  18.145  32.442  10.564
35464W        W 7724  14.711  40.449  11.062
35465W        W 7725  14.226  25.197  11.050
35466W        W 7726  39.320  32.136   0.782
35467W        W 7727  44.807  35.876  10.979
35468W        W 7728  19.609  44.439   2.391
35469W        W 7729  12.129  10.176  13.999
35470W        W 7730  20.705  41.345   3.694
35471W        W 7731  21.229  40.998  13.413
35472W        W 7732  17.190  34.464  14.501
35473W        W 7733  34.992  27.159   4.809
35474W        W 7734  43.286   3.711  12.068
35475W        W 7735  42.288  22.617   0.379
35476W        W 7736   2.376   7.390   3.383
35477W        W 7737  29.081  12.119   0.415
35478W        W 7738  14.324  39.823  14.276
35479W        W 7739  34.067  21.686  13.357
35480W        W 7740  43.833  26.082   1.368
35481W        W 7741   4.934  16.124  12.546
35482W        W 7742  35.457   5.843   4.204
35483W        W 7743   5.415  19.773  13.986
35484W        W 7744  26.095   1.918  11.933
35485W        W 7745   0.980  28.135  11.407
35486W        W 7746  42.904  18.755   2.405
35487W        W 7747  42.287  44.481   2.200
35488W        W 7748   4.860   8.799   1.357
35489W        W 7749   4.809   3.930   1.881
35490W        W 7750   5.714   3.259   4.701
35491W        W 7751  41.396  19.768   2.286
35492W        W 7752  30.096  19.609  14.762
35493W        W 7753   4.732  22.090   3.232
35494W        W 7754  34.589  25.054  11.004
35495W        W 7755  32.906   4.292  13.842
35496W        W 7756  32.894   3.291   4.217
35497W        W 7757  17.250  21.698   3.855
35498W        W 7758  30.650  31.116   5.219
35499W        W 7759   3.742  31.616  10.627
35500W        W 7760   5.749   7.775   4.710
35501W        W 7761   8.868   1.256   3.203
35502W        W 7762  27.010  14.633   4.240
35503W        W 7763  41.442  26.592  11.967
35504W        W 7764  43.470  10.193  14.969
35505W        W 7765  19.592  22.173  11.570
35506W        W 7766  21.063  41.510   0.395
35507W        W 7767  19.692  13.253   2.273
35508W        W 7768   0.912  20.529  14.509
35509W        W 7769  13.705  12.643   3.296
35510W        W 7770  43.297  22.210   4.218
35511W        W 7771  18.099  44.439   1.352
35512W        W 7772   3.437  11.348  12.952
35513W        W 7773  34.965  37.927  13.490
35514W        W 7774  34.115  26.091  11.938
35515W        W 7775  35.091  13.149  13.940
35516W        W 7776  39.452  40.979   2.347
35517W        W 7777  18.060  35.988   0.266
35518W        W 7778   3.353  37.499   5.109
35519W        W 7779  28.091  36.473   4.319
35520W        W 7780   0.869  19.568  10.514
35521W        W 7781  30.603  32.888  12.001
35522W        W 7782  14.234  12.224  14.790
35523W        W 7783  24.228  12.757   1.354
35524W        W 7784   1.408  37.553   2.279
35525W        W 7785   4.756   2.779  14.844
35526W        W 7786  26.651  22.170  12.079
35527W        W 7787  21.664  31.932   2.676
35528W        W 7788  27.650  23.634   4.247
35529W        W 7789  12.216  28.185   0.305
35530W        W 7790   5.226  27.520   1.356
35531W        W 7791  30.010  30.599   4.161
35532W        W 7792  39.949  36.415   4.735
35533W        W 7793  22.513  40.960  10.587
35534W        W 7794  38.951  13.165  13.967
35535W        W 7795  18.131   6.350   2.840
35536W        W 7796  21.682  31.969  11.976
35537W        W 7797  24.119  34.097   4.666
35538W        W 7798   2.805   4.924   3.262
35539W        W 7799  10.324   5.865   2.407
35540W        W 7800  18.151  44.874  10.912
35541W        W 7801  34.421  20.547   2.269
35542W        W 7802  35.451  22.108  11.430
35543W        W 7803  23.159  28.598   3.857
35544W        W 7804  17.166   9.780  13.912
35545W        W 7805  24.111  33.009   3.754
35546W        W 7806   7.814  16.586  10.981
35547W        W 7807  33.451  36.404  12.568
35548W        W 7808   2.418   0.326  11.894
35549W        W 7809  15.651  33.909   5.153
35550W        W 7810  23.048  32.022   0.946
35551W        W 7811  11.295  37.444  10.608
35552W        W 7812  41.004  10.750  11.608
35553W        W 7813   8.316  27.962  14.031
35554W        W 7814  19.051  32.072  11.536
35555W        W 7815  29.511  33.015   0.834
35556W        W 7816  12.732  30.452   2.180
35557W        W 7817   0.756  17.214   4.278
35558W        W 7818  14.810  30.020   1.730
35559W        W 7819  30.490  33.043  10.890
35560W        W 7820  35.465  21.607  12.886
35561W        W 7821  37.385  30.997   1.287
35562W        W 7822  44.299  39.504  12.558
35563W        W 7823  21.681  17.738   3.711
35564W        W 7824  17.693  37.010   4.605
35565W        W 7825  37.995  39.884   1.931
35566W        W 7826   0.816  42.943  12.050
35567W        W 7827  40.390  37.456  13.495
35568W        W 7828  13.744  44.455   3.722
35569W        W 7829   8.249   4.395  11.855
35570W        W 7830  32.033   6.241   4.130
35571W        W 7831  41.295  12.255  13.047
35572W        W 7832  42.422  23.503   3.630
35573W        W 7833   1.952  30.157   4.259
35574W        W 7834  16.248  30.550  11.575
35575W        W 7835  29.055  38.508   0.421
35576W        W 7836  30.014  23.225  11.537
35577W        W 7837  31.498  38.905  12.405
35578W        W 7838  12.146   0.758  12.884
35579W        W 7839   5.881  11.310  10.454
35580W        W 7840   3.840  33.611   1.840
35581W        W 7841  43.388   8.663  10.480
35582W        W 7842  33.975  40.912   3.202
35583W        W 7843  44.851  27.514   2.679
35584W        W 7844   2.913  14.743  14.924
35585W        W 7845  21.206  41.451   4.140
35586W        W 7846  19.082  11.255  11.897
35587W        W 7847  26.117  14.204   1.357
35588W        W 7848   7.890  24.541   2.757
35589W        W 7849  35.560  13.313   1.272
35590W        W 7850   9.238  11.742   0.452
35591W        W 7851  36.370  32.545   0.249
35592W        W 7852  30.096  20.749   1.927
35593W        W 7853  15.823  17.792   5.666
35594W        W 7854  16.188   7.261   0.959
35595W        W 7855  23.106  34.100  12.448
35596W        W 7856  19.762  25.675  11.992
35597W        W 7857   9.196  26.600   2.412
35598W        W 7858   5.251  37.992   4.722
35599W        W 7859   1.452  43.819  14.275
35600W        W 7860   5.231   9.674   2.896
35601W        W 7861   5.834  37.542  11.061
35602W        W 7862  39.553  40.854  10.449
35603W        W 7863  28.476  38.365  14.426
35604W        W 7864  11.318  36.046  11.501
35605W        W 7865  44.389  33.021   0.471
35606W        W 7866   4.724  17.595  10.973
35607W        W 7867  13.333  30.657  13.367
35608W        W 7868   8.359  35.533   2.881
35609W        W 7869  25.020  37.062  13.519
35610W        W 7870  16.732  32.929  11.461
35611W        W 7871  34.422  30.559   3.213
35612W        W 7872  21.683  28.575   0.269
35613W        W 7873   7.353  16.174   1.808
35614W        W 7874  24.543  11.275   4.248
35615W        W 7875  10.356  36.587  12.008
35616W        W 7876   4.247  12.344   1.427
35617W        W 7877  18.702  43.802   2.821
35618W        W 7878   8.284  24.214  12.061
35619W        W 7879   7.845  34.554   3.326
35620W        W 7880  36.408  14.153  12.938
35621W        W 7881  24.093  30.558  13.391
35622W        W 7882  30.010  11.673  11.516
35623W        W 7883   3.760  23.118  14.869
35624W        W 7884  15.264   1.367  10.955
35625W        W 7885  16.656  39.048  12.462
35626W        W 7886  13.609  32.090  10.476
35627W        W 7887  28.104  39.370  12.362
35628W        W 7888  30.137  40.467  13.533
35629W        W 7889  27.020  27.622  14.452
35630W        W 7890  14.128  26.495   4.705
35631W        W 7891  24.047  25.102   3.841
35632W        W 7892  30.026  33.412  13.460
35633W        W 7893  42.456  25.144   2.318
35634W        W 7894  17.099  38.958  12.354
35635W        W 7895  41.788  39.357  14.492
35636W        W 7896  37.443  39.823  12.951
35637W        W 7897  11.250  41.519   2.409
35638W        W 7898  32.920   9.852   1.316
35639W        W 7899  38.004  13.792  13.485
35640W        W 7900  43.783  17.765   4.644
35641W        W 7901  40.421  33.103   3.357
35642W        W 7902  42.420   7.678  12.473
35643W        W 7903   3.880  43.441   4.697
35644W        W 7904  24.109  24.197   3.784
35645W        W 7905  35.533  33.105   1.916
35646W        W 7906  41.511  18.628   3.708
35647W        W 7907  40.892  10.728   1.430
35648W        W 7908  27.056  16.596   0.949
35649W        W 7909   3.337  25.074   2.869
35650W        W 7910  35.566  11.822  13.842
35651W        W 7911  19.067  17.129  10.957
35652W        W 7912  35.067  23.637   3.228
35653W        W 7913  44.416  17.124   2.335
35654W        W 7914  28.602   3.856  10.421
35655W        W 7915  23.991  12.139  12.492
35656W        W 7916  44.790  38.512   4.638
35657W        W 7917  23.531  33.445  13.335
35658W        W 7918  23.116   1.812   4.605
35659W        W 7919   0.811  12.811  12.493
35660W        W 7920   3.437  44.801   4.132
35661W        W 7921  25.618  19.677  14.857
35662W        W 7922  16.791  26.554  13.411
35663W        W 7923  12.121  16.811   2.756
35664W        W 7924   0.889  15.194  11.445
35665W        W 7925  42.924  44.917   0.357
35666W        W 7926  35.043  25.557   2.797
35667W        W 7927   6.257   5.727   1.261
35668W        W 7928  27.948   1.340  11.561
35669W        W 7929  35.366  23.698   1.444
35670W        W 7930  14.783  13.689   0.764
35671W        W 7931  36.385  44.786   4.824
35672W        W 7932  40.330  42.950  12.539
35673W        W 7933   6.291  32.096  10.910
35674W        W 7934   1.847   7.880   3.198
35675W        W 7935   3.821  27.561  11.523
35676W        W 7936  40.938  17.610   2.800
35677W        W 7937   5.907  41.316  11.101
35678W        W 7938  38.842  19.257  12.528
35679W        W 7939  23.490  44.952   3.737
35680W        W 7940  30.431   2.240   4.274
35681W        W 7941  19.253  25.550   4.304
35682W        W 7942  41.492  10.687   3.226
35683W        W 7943   9.386  32.976  10.485
35684W        W 7944  35.088  39.493  12.384
35685W        W 7945  41.007  11.775  14.319
35686W        W 7946  34.969  25.469  11.868
35687W        W 7947  32.894   2.410  12.039
35688W        W 7948  20.701  12.691  10.538
35689W        W 7949  16.568  34.577  10.454
35690W        W 7950  24.556  17.593  12.550
35691W        W 7951  31.422   2.353   0.296
35692W        W 7952  19.711   7.772   4.280
35693W        W 7953  10.733   0.747   3.149
35694W        W 7954   1.732   1.332   3.861
35695W        W 7955  42.813  30.985  12.022
35696W        W 7956  44.999  14.704  10.592
35697W        W 7957  11.332  37.466   1.910
35698W        W 7958   7.906  28.128  10.060
35699W        W 7959   7.323  19.103   2.239
35700W        W 7960  17.778  34.022  12.381
35701W        W 7961  36.068  41.802   1.710
35702W        W 7962  14.714  28.487   9.921
35703W        W 7963  29.460  35.082   3.279
35704W        W 7964  28.567  11.341  11.019
35705W        W 7965  43.332   1.390  13.858
35706W        W 7966  11.349  18.295  13.795
35707W        W 7967  25.577  25.520   2.867
35708W        W 7968  37.437  26.675  12.516
35709W        W 7969  12.138  22.668   3.778
35710W        W 7970  34.028  40.549   4.144
35711W        W 7971   0.298  33.621  11.867
35712W        W 7972  15.140  42.382   2.816
35713W        W 7973  42.909  15.140   3.292
35714W        W 7974  39.037  21.190   3.851
35715W        W 7975  39.329  35.519  10.458
35716W        W 7976  32.068  28.101  11.940
35717W        W 7977  20.141  31.491   0.307
35718W        W 7978  10.234  40.877   4.328
35719W        W 7979  22.192  38.488  14.507
35720W        W 7980  30.998   6.405   3.377
35721W        W 7981  16.259   9.395  11.015
35722W        W 7982  37.393  15.598   3.331
35723W        W 7983  22.742  26.513   4.169
35724W        W 7984  42.433  31.457  10.481
35725W        W 7985   7.778  22.117  11.372
35726W        W 7986  14.613   7.850   3.718
35727W        W 7987   5.851  25.166   2.259
35728W        W 7988  33.506   3.716  10.606
35729W        W 7989  32.122  21.691   4.815
35730W        W 7990  37.067   7.680   3.779
35731W        W 7991   3.254  35.891   4.271
35732W        W 7992   6.250  13.301  14.835
35733W        W 7993  40.917  13.141   4.631
35734W        W 7994   5.878  32.540  11.992
35735W        W 7995   5.416  28.956  13.446
35736W        W 7996  22.673  12.224   4.326
35737W        W 7997  36.432  11.278  13.803
35738W        W 7998  23.218  37.493   4.150
35739W        W 7999  40.446  10.341  14.444
35740W        W 8000  20.224  13.152  13.917
35741W        W 8001  34.898  33.549   5.276
35742W        W 8002  40.424  12.713   1.376
35743W        W 8003  25.484  32.448  13.884
35744W        W 8004  16.617  37.885  12.940
35745W        W 8005  39.845  44.273  10.605
35746W        W 8006  38.445  18.639  12.966
35747W        W 8007   2.452   0.878  11.501
35748W        W 8008  32.558   3.757   2.257
35749W        W 8009  28.996   6.764  10.467
35750W        W 8010  34.974  37.459   4.259
35751W        W 8011  18.705  34.371   4.810
35752W        W 8012  40.519  27.947  14.904
35753W        W 8013   4.355   9.282   4.629
35754W        W 8014   2.881  38.879  10.499
35755W        W 8015  43.795   5.687  11.073
35756W        W 8016  35.459   1.952   1.327
35757W        W 8017  22.130  20.637   9.519
35758W        W 8018  16.298  24.485  10.952
35759W        W 8019   1.349  38.562   4.184
35760W        W 8020  28.464  38.985   2.824
35761W        W 8021  26.955  11.308  12.374
35762W        W 8022  40.003  37.528   5.110
35763W        W 8023  17.737  13.830   2.843
35764W        W 8024  26.640  24.103  14.473
35765W        W 8025  22.507  30.561  12.571
35766W        W 8026  41.511  20.175   4.348
35767W        W 8027   9.299  34.937   3.829
35768W        W 8028  34.011   7.406  13.837
35769W        W 8029  20.176  28.942   3.256
35770W        W 8030  26.098   1.815  13.851
35771W        W 8031  15.594  14.263  10.632
35772W        W 8032  23.993  18.293   1.904
35773W        W 8033  25.211  25.099  11.463
35774W        W 8034  10.711  44.850  11.863
35775W        W 8035   4.330   2.937  12.060
35776W        W 8036  44.974  37.937   3.796
35777W        W 8037   4.789   5.231  13.050
35778W        W 8038  20.620  34.381  14.349
35779W        W 8039  21.575  12.272   1.265
35780W        W 8040  23.103   0.306   4.227
35781W        W 8041  32.442  11.673   0.894
35782W        W 8042   4.320  33.878  11.127
35783W        W 8043   8.874   5.859  11.397
35784W        W 8044  27.052  28.493  13.825
35785W        W 8045  24.062  19.100   4.786
35786W        W 8046  34.427  27.603  12.985
35787W        W 8047  22.011   6.860  14.966
35788W        W 8048  44.313  28.149   3.769
35789W        W 8049   3.359  19.169  11.522
35790W        W 8050  15.187   1.440   4.130
35791W        W 8051  12.748  24.668   1.888
35792W        W 8052  25.189  43.410  14.337
35793W        W 8053  36.930  17.732   1.399
35794W        W 8054  38.946  41.304   3.319
35795W        W 8055  41.888  31.629   3.833
35796W        W 8056  37.409  19.178  12.994
35797W        W 8057  27.014  39.514  11.460
35798W        W 8058   5.793  26.971  13.442
35799W        W 8059  34.872  12.284   3.819
35800W        W 8060   8.662  12.753   0.877
35801W        W 8061   8.755  17.623  14.455
35802W        W 8062  26.016  10.371  14.507
35803W        W 8063   5.822  43.783  13.995
35804W        W 8064   3.262   2.750  11.472
35805W        W 8065   8.278   9.291   1.851
35806W        W 8066  43.344  11.720  11.506
35807W        W 8067  12.140  26.964   0.282
35808W        W 8068  17.259   8.864   4.750
35809W        W 8069  22.046   8.296  10.407
35810W        W 8070  16.618   5.396  10.499
35811W        W 8071   1.454  37.076  12.057
35812W        W 8072   6.921  15.264  13.357
35813W        W 8073  25.710   7.799   2.729
35814W        W 8074  39.952  14.209  12.385
35815W        W 8075  12.341  11.667   1.372
35816W        W 8076   6.689   1.824  12.080
35817W        W 8077  29.515  29.130  12.913
35818W        W 8078  28.528  15.713  11.873
35819W        W 8079  29.624  12.181   0.819
35820W        W 8080  23.540   8.746   0.458
35821W        W 8081  39.956  23.201  11.127
35822W        W 8082  43.328  29.439  12.068
35823W        W 8083  40.446  10.368   1.770
35824W        W 8084  10.315   2.248   2.206
35825W        W 8085  44.323  33.031  10.075
35826W        W 8086   4.215   5.194   2.287
35827W        W 8087  39.897  11.639   1.324
35828W        W 8088   2.819  15.759  12.942
35829W        W 8089  18.623   6.306  14.981
35830W        W 8090  22.725  25.475  11.955
35831W        W 8091  10.808  30.576   2.217
35832W        W 8092  17.722  24.214  11.606
35833W        W 8093  39.049  42.435  12.852
35834W        W 8094  41.404  22.593   0.267
35835W        W 8095  30.017   0.491   2.717
35836W        W 8096  31.479  16.643   0.778
35837W        W 8097  29.001  33.410   0.454
35838W        W 8098  40.876  14.761   4.328
35839W        W 8099  15.750   3.910  13.949
35840W        W 8100  12.835   3.399  14.375
35841W        W 8101  23.540  44.301   2.263
35842W        W 8102   4.740  34.401  10.940
35843W        W 8103  23.148  30.610  13.837
35844W        W 8104  27.569   4.820  14.313
35845W        W 8105  30.949   6.296  12.556
35846W        W 8106  17.774  44.785  11.078
35847W        W 8107  25.041  27.147   1.799
35848W        W 8108   5.929   1.950  14.287
35849W        W 8109  41.524  15.244   4.738
35850W        W 8110  10.278  36.935   0.808
35851W        W 8111  32.575  29.013   2.687
35852W        W 8112  24.072  32.130   2.742
35853W        W 8113  44.503  42.462  13.818
35854W        W 8114   1.401   4.222   4.233
35855W        W 8115  18.199   1.421   1.777
35856W        W 8116  37.052   9.357  12.402
35857W        W 8117  37.433  35.002   1.922
35858W        W 8118  27.684  44.002  12.029
35859W        W 8119  37.579  15.189  13.370
35860W        W 8120  14.593  22.084  12.362
35861W        W 8121  16.675  15.233   5.773
35862W        W 8122  32.949   3.431   1.382
35863W        W 8123   6.297  42.030   3.178
35864W        W 8124  31.048  29.440   2.250
35865W        W 8125   3.839  24.478  10.530
35866W        W 8126  16.786  36.956  10.626
35867W        W 8127  17.629  42.946   2.710
35868W        W 8128  33.607  44.309   1.821
35869W        W 8129  34.520  13.164  11.098
35870W        W 8130  22.679  35.545  13.991
35871W        W 8131  22.239  11.821   2.850
35872W        W 8132  22.596  41.438  13.883
35873W        W 8133   9.387  12.296   3.630
35874W        W 8134   4.349  30.464   4.177
35875W        W 8135   4.929  24.624  12.878
35876W        W 8136   3.913  39.903   3.751
35877W        W 8137   7.268  31.927   4.632
35878W        W 8138  43.841   6.343   1.927
35879W        W 8139   9.188  11.282   1.735
35880W        W 8140  28.637  34.513  12.559
35881W        W 8141  13.680   4.352   3.251
35882W        W 8142  13.327  15.639   3.819
35883W        W 8143  20.104  27.509  13.366
35884W        W 8144   1.910  36.958  14.508
35885W        W 8145   5.252  31.566  13.850
35886W        W 8146  14.163   6.410  12.971
35887W        W 8147  28.023  28.974   3.227
35888W        W 8148  37.035  38.930   1.709
35889W        W 8149   9.754   8.250  12.530
35890W        W 8150  31.461   8.181  14.438
35891W        W 8151  20.185   8.838  11.447
35892W        W 8152  23.196   3.777  12.012
35893W        W 8153  11.740   2.449   0.778
35894W        W 8154  24.587  16.633   0.753
35895W        W 8155  10.820  16.111   1.764
35896W        W 8156  17.801  21.028   4.168
35897W        W 8157   1.400  29.622  14.953
35898W        W 8158  24.211   8.895  13.054
35899W        W 8159  26.114  13.727   3.206
35900W        W 8160  28.655   7.864  11.105
35901W        W 8161  14.161  31.608  11.512
35902W        W 8162  39.384  24.634   4.672
35903W        W 8163  40.335  35.929   3.660
35904W        W 8164   8.267  25.018   1.728
35905W        W 8165  27.021   9.263  11.003
35906W        W 8166  34.586  15.277   1.753
35907W        W 8167   7.395  14.742  14.324
35908W        W 8168  33.009  23.497   3.663
35909W        W 8169  39.425  26.655   3.315
35910W        W 8170  31.590   4.349  10.891
35911W        W 8171  10.806  32.628   1.904
35912W        W 8172  42.779  10.257  12.088
35913W        W 8173  44.268  35.510  14.424
35914W        W 8174   7.276  18.257   1.212
35915W        W 8175  17.569  32.932   3.842
35916W        W 8176  32.485  21.155  13.007
35917W        W 8177  30.935  35.393   3.703
35918W        W 8178  33.602  15.256   0.872
35919W        W 8179  14.136  24.662   4.834
35920W        W 8180  43.928   7.850  12.914
35921W        W 8181  12.833  15.222  12.508
35922W        W 8182  44.949  19.621   2.834
35923W        W 8183  17.202  41.369   1.767
35924W        W 8184  43.412  24.609  12.010
35925W        W 8185   3.340  19.059  12.019
35926W        W 8186  34.992  21.726   5.786
35927W        W 8187   4.738  11.181   4.340
35928W        W 8188  35.532   0.300   2.860
35929W        W 8189  29.589   1.312   1.426
35930W        W 8190  25.485  16.166  12.355
35931W        W 8191   7.756  37.897  10.532
35932W        W 8192  25.137  26.672  14.915
35933W        W 8193  42.825  42.879  10.981
35934W        W 8194  28.547  35.939  13.511
35935W        W 8195  43.432  15.675   2.387
35936W        W 8196   3.409  25.042   1.840
35937W        W 8197  17.764  19.721   3.260
35938W        W 8198  12.226  10.750  10.957
35939W        W 8199  35.891   4.411   0.408
35940W        W 8200  42.384  36.016  12.974
35941W        W 8201  26.559  22.630   3.848
35942W        W 8202  37.549  31.468  11.096
35943W        W 8203  27.480  32.504   2.893
35944W        W 8204   0.914  25.128   5.204
35945W        W 8205  34.119   8.279  14.430
35946W        W 8206  36.438  41.354  11.504
35947W        W 8207  27.654  14.102   2.719
35948W        W 8208  28.471  39.879   3.688
35949W        W 8209  32.983  28.497   3.310
35950W        W 8210  37.977  34.449  10.597
35951W        W 8211  19.576  36.997  10.532
35952W        W 8212  32.122  13.228   3.720
35953W        W 8213   5.728  14.819   3.276
35954W        W 8214  30.640  22.618  11.114
35955W        W 8215  17.612   3.330  10.082
35956W        W 8216   2.372  38.347  10.581
35957W        W 8217   3.273  16.628  10.628
35958W        W 8218  37.012   0.822   3.644
35959W        W 8219  31.993  10.842  13.370
35960W        W 8220   9.394   2.254  14.970
35961W        W 8221  35.443  26.111  13.791
35962W        W 8222  34.979  41.039  14.763
35963W        W 8223  36.083   6.863   1.872
35964W        W 8224  37.977  22.635   4.698
35965W        W 8225  12.285  41.929  11.419
35966W        W 8226  28.090   9.782   4.149
35967W        W 8227  15.771  18.663  14.392
35968W        W 8228  18.745  10.182   2.329
35969W        W 8229  19.174  28.567   1.254
35970W        W 8230  26.645  19.223   1.775
35971W        W 8231   2.931  18.762  12.476
35972W        W 8232   4.449  23.077  13.347
35973W        W 8233  38.927  15.611   2.734
35974W        W 8234  24.091   4.352   1.722
35975W        W 8235  41.424   3.911  13.404
35976W        W 8236  20.165  44.884   4.817
35977W        W 8237  44.890   2.427  13.922
35978W        W 8238  35.948  31.101   0.244
35979W        W 8239  21.740   8.693  14.832
35980W        W 8240  39.533  13.823   2.198
35981W        W 8241   3.345   5.902  12.901
35982W        W 8242  27.621  11.777   1.294
35983W        W 8243  44.976  31.990  14.981
35984W        W 8244  34.513  25.216   5.115
35985W        W 8245  36.004  16.749  10.587
35986W        W 8246  22.208  42.814   4.610
35987W        W 8247   0.859  28.014  14.452
35988W        W 8248   5.368  35.852  13.309
35989W        W 8249  41.535  17.635   4.636
35990W        W 8250   9.735   3.235  10.412
35991W        W 8251  36.033   5.789  13.542
35992W        W 8252  40.460  30.160  10.412
35993W        W 8253  31.115   2.240   3.272
35994W        W 8254  36.422  27.087  14.305
35995W        W 8255  39.460  43.895  11.470
35996W        W 8256  14.195  26.012   1.712
35997W        W 8257   0.951  12.682   0.385
35998W        W 8258  35.557  36.930   3.328
35999W        W 8259  34.065   9.662  11.536
36000W        W 8260  35.587   8.177   2.744
36001W        W 8261  31.476  31.456   1.325
36002W        W 8262  14.686  20.688   4.149
36003W        W 8263  39.980   0.884  13.040
36004W        W 8264  21.213  14.752   5.089
36005W        W 8265  21.544  18.674  10.083
36006W        W 8266   5.318  27.547  13.860
36007W        W 8267  42.443  38.433  12.412
36008W        W 8268  36.377  33.536  11.883
36009W        W 8269   9.807   9.236   1.713
36010W        W 8270  28.001  26.527   1.820
36011W        W 8271  40.897  34.494  11.094
36012W        W 8272  38.022  40.025  10.629
36013W        W 8273  23.188  12.720  11.917
36014W        W 8274  15.596   4.227  14.405
36015W        W 8275  43.779  38.883   4.627
36016W        W 8276   8.244  24.180   0.436
36017W        W 8277   9.683  13.838   4.817
36018W        W 8278  40.310   9.716   3.285
36019W        W 8279   8.806  33.008  13.503
36020W        W 8280  41.459  41.394  11.997
36021W        W 8281  28.501  12.222  12.909
36022W        W 8282  11.274   1.750   0.953
36023W        W 8283  30.012  35.461   3.279
36024W        W 8284   3.334  36.544   3.299
36025W        W 8285  16.187  11.314   2.384
36026W        W 8286  10.203   7.795   4.723
36027W        W 8287  13.634  24.704   0.961
36028W        W 8288  22.018   4.440  12.507
36029W        W 8289  17.565  16.642  10.981
36030W        W 8290  21.254  19.189   3.370
36031W        W 8291  39.359   3.230  13.829
36032W        W 8292  44.362   7.253  14.321
36033W        W 8293  30.413  34.386   4.162
36034W        W 8294  28.561  39.993   4.294
36035W        W 8295   5.800  22.586   4.809
36036W        W 8296  39.941   7.828  10.974
36037W        W 8297  44.888  16.195   3.824
36038W        W 8298  43.476  12.806   0.253
36039W        W 8299  13.132   6.404   3.825
36040W        W 8300  29.115   5.911   2.307
36041W        W 8301   1.891  27.998  11.869
36042W        W 8302  28.520   1.399   1.291
36043W        W 8303   2.303  12.234   3.295
36044W        W 8304  35.602  40.328   0.395
36045W        W 8305  38.352  16.293   4.815
36046W        W 8306  16.099  23.671   1.770
36047W        W 8307   9.711  12.848   0.395
36048W        W 8308  29.152  20.080  14.828
36049W        W 8309   2.437   8.810   5.291
36050W        W 8310  28.056  27.498  11.933
36051W        W 8311  36.987  13.660  12.997
36052W        W 8312  32.538  11.651   9.951
36053W        W 8313   3.295  35.023   3.732
36054W        W 8314  19.147   9.660   0.833
36055W        W 8315  41.296  42.010  11.563
36056W        W 8316  38.422  15.091  12.087
36057W        W 8317   3.344  11.757  11.867
36058W        W 8318   1.342  14.721   0.361
36059W        W 8319  18.237  27.145  12.490
36060W        W 8320  31.500  12.676  12.922
36061W        W 8321   8.349  17.717  11.554
36062W        W 8322   9.724  19.564   0.842
36063W        W 8323  30.594  35.360   3.253
36064W        W 8324  41.505  44.760  12.358
36065W        W 8325  21.118  42.520   0.376
36066W        W 8326  13.161  20.579   1.369
36067W        W 8327  21.260  28.570  12.887
36068W        W 8328  16.170  13.687   3.286
36069W        W 8329  31.550  20.179  14.022
36070W        W 8330  28.967  16.735   3.768
36071W        W 8331  11.227  20.754   2.742
36072W        W 8332   7.699  38.359   3.363
36073W        W 8333   9.761  34.497   1.782
36074W        W 8334   1.237  38.519  12.063
36075W        W 8335  26.464   7.875   2.231
36076W        W 8336  14.306  17.300  12.829
36077W        W 8337   2.342  12.760   2.751
36078W        W 8338  43.017   8.247   0.795
36079W        W 8339  10.198  28.952  14.831
36080W        W 8340  15.796  43.462   0.291
36081W        W 8341   2.242  33.986   1.828
36082W        W 8342  43.388  18.214  11.035
36083W        W 8343   6.399   5.335   4.206
36084W        W 8344   9.193  21.037  10.055
36085W        W 8345  23.497  36.526  10.448
36086W        W 8346  18.190  43.839   1.775
36087W        W 8347  14.811   4.758  10.612
36088W        W 8348  41.870   4.860   1.298
36089W        W 8349   1.312  17.649   2.275
36090W        W 8350  30.523   9.866  10.559
36091W        W 8351   5.377  34.586  12.033
36092W        W 8352  15.737  35.059   3.716
36093W        W 8353  11.742  21.641  12.453
36094W        W 8354  34.066  36.066   0.896
36095W        W 8355  20.071  30.611  13.962
36096W        W 8356  34.543  34.454   3.263
36097W        W 8357  24.044  10.703   0.958
36098W        W 8358  17.093  29.125  12.416
36099W        W 8359  35.913  16.741   1.376
36100W        W 8360   4.443   7.865  12.370
36101W        W 8361  22.507   0.436  12.542
36102W        W 8362  27.562  38.992   1.808
36103W        W 8363  22.699  28.959   4.134
36104W        W 8364  30.084   3.811  10.529
36105W        W 8365  22.578   4.796  12.491
36106W        W 8366   8.737  22.145  12.860
36107W        W 8367   1.925  35.603  13.514
36108W        W 8368  32.541   1.734   3.772
36109W        W 8369  24.520  13.311   3.165
36110W        W 8370  15.642  23.717   2.788
36111W        W 8371   4.274  39.464  13.945
36112W        W 8372  40.400  11.249  11.960
36113W        W 8373   0.852  17.669  14.885
36114W        W 8374  42.461  25.156  11.578
36115W        W 8375  31.146  36.423   1.720
36116W        W 8376  33.025  18.559  10.486
36117W        W 8377   5.896   0.445   3.238
36118W        W 8378  19.262   6.680  12.971
36119W        W 8379   7.213  30.657  11.029
36120W        W 8380  24.088   1.441  14.369
36121W        W 8381  42.821   6.206   4.351
36122W        W 8382  17.070  34.976   5.180
36123W        W 8383   0.281   6.752   2.756
36124W        W 8384   5.741  23.073  10.983
36125W        W 8385  31.977   2.311   4.639
36126W        W 8386  44.931  31.598   2.197
36127W        W 8387  11.291  40.428  11.958
36128W        W 8388  20.102   2.455  12.347
36129W        W 8389   1.961   7.866  11.584
36130W        W 8390   0.415  29.464  14.411
36131W        W 8391  16.595  18.602  11.100
36132W        W 8392  36.531   6.854   2.260
36133W        W 8393  32.984   0.939   2.209
36134W        W 8394   5.791   2.773   4.610
36135W        W 8395  35.553  23.157  13.874
36136W        W 8396  39.821  20.180  14.926
36137W        W 8397  36.949   4.235   4.745
36138W        W 8398  36.556  38.824  14.857
36139W        W 8399  12.823  21.254   3.156
36140W        W 8400  25.578  31.573   4.629
36141W        W 8401  34.527   7.259  12.024
36142W        W 8402  28.087  14.629   3.295
36143W        W 8403  14.650   7.207   3.378
36144W        W 8404   1.376  43.467  12.404
36145W        W 8405  23.135  41.433   0.768
36146W        W 8406  12.267  21.227  13.527
36147W        W 8407  42.483   5.351  14.916
36148W        W 8408  40.494  37.979  13.984
36149W        W 8409  14.181  14.772   5.209
36150W        W 8410  29.121  22.184   4.213
36151W        W 8411  31.090  16.741   1.355
36152W        W 8412  24.992  41.997  12.505
36153W        W 8413   1.313  26.970   1.923
36154W        W 8414  18.280  43.977   2.871
36155W        W 8415   5.755  33.013   0.335
36156W        W 8416   6.239  44.812  12.555
36157W        W 8417  13.200   1.835  12.367
36158W        W 8418   0.919  33.538   1.313
36159W        W 8419  40.481   3.921   4.330
36160W        W 8420  29.048   2.817   1.441
36161W        W 8421   0.287   2.928  14.352
36162W        W 8422  19.633   9.353  14.389
36163W        W 8423   4.905   7.754   3.854
36164W        W 8424  21.642  27.148  13.531
36165W        W 8425  13.194  11.790  14.795
36166W        W 8426  10.338  38.903   3.318
36167W        W 8427  15.089  41.900   0.470
36168W        W 8428   5.418  33.988  13.811
36169W        W 8429  43.327  32.047  11.925
36170W        W 8430  12.260   8.698  11.482
36171W        W 8431  21.173  18.260   2.798
36172W        W 8432  34.984  40.468   1.795
36173W        W 8433  23.605  20.746  12.978
36174W        W 8434   0.349  33.609  13.996
36175W        W 8435   9.222  28.576   3.711
36176W        W 8436  26.075  41.392  12.080
36177W        W 8437  28.122  28.166   3.194
36178W        W 8438  29.000  10.868  14.018
36179W        W 8439  17.296   3.458   3.155
36180W        W 8440  35.893  36.953  14.511
36181W        W 8441   3.327  14.159   1.339
36182W        W 8442  13.615  23.060   1.277
36183W        W 8443  11.687   6.380  11.873
36184W        W 8444  38.870  10.382   4.178
36185W        W 8445  11.766   8.673  10.517
36186W        W 8446  39.553  31.418   1.446
36187W        W 8447  18.290  10.794  11.097
36188W        W 8448  13.830   0.358   1.922
36189W        W 8449  26.499  30.423  13.325
36190W        W 8450  38.398   5.744  11.124
36191W        W 8451   8.353  35.030   3.158
36192W        W 8452  44.950  32.131  13.970
36193W        W 8453   9.653   7.325  10.502
36194W        W 8454  41.485  13.674   3.785
36195W        W 8455  33.944  25.083   3.312
36196W        W 8456   1.463  26.031   2.831
36197W        W 8457   2.466  32.937  12.850
36198W        W 8458  35.553   0.866  12.890
36199W        W 8459   1.300  34.919   2.411
36200W        W 8460  15.161  34.583   0.404
36201W        W 8461   0.417  10.844   1.217
36202W        W 8462  13.222  30.025   5.686
36203W        W 8463   4.769   8.660   3.800
36204W        W 8464  36.003  36.563  10.414
36205W        W 8465  12.857   9.712   3.175
36206W        W 8466  17.577   6.785   4.329
36207W        W 8467  13.208  34.495  13.392
36208W        W 8468  13.604  23.059  13.528
36209W        W 8469  34.428   3.262   1.712
36210W        W 8470   5.301  26.991   1.232
36211W        W 8471   0.989   5.400   4.838
36212W        W 8472  38.490  38.354   3.720
36213W        W 8473   4.861   6.676   2.317
36214W        W 8474   8.293  22.634  13.351
36215W        W 8475  25.992  20.528  14.338
36216W        W 8476  32.975  23.054  14.473
36217W        W 8477  36.557  25.970  10.585
36218W        W 8478  29.453  30.421  11.442
36219W        W 8479  26.117  35.485   3.634
36220W        W 8480  23.623   7.326  13.835
36221W        W 8481  16.767  26.692  12.049
36222W        W 8482  37.868   8.359  14.402
36223W        W 8483  15.105   5.304  11.566
36224W        W 8484  37.048  19.246   0.911
36225W        W 8485  41.850   4.405  14.289
36226W        W 8486   6.903  36.042   1.210
36227W        W 8487  36.073  41.445   0.362
36228W        W 8488  16.143  29.931   2.280
36229W        W 8489  30.545  42.326  12.577
36230W        W 8490  43.510  23.594   1.760
36231W        W 8491  22.690  25.582  14.889
36232W        W 8492  33.900  35.541  14.424
36233W        W 8493  11.243  24.553   2.811
36234W        W 8494  24.027  18.280   3.314
36235W        W 8495  13.805  38.515   2.255
36236W        W 8496   0.405  37.850   2.815
36237W        W 8497  14.210  20.192  12.833
36238W        W 8498  38.989   2.935   2.264
36239W        W 8499  20.691  28.618   3.266
36240W        W 8500  38.354  43.867  14.437
36241W        W 8501  13.606   3.825   4.766
36242W        W 8502  25.662   1.356  14.973
36243W        W 8503  18.289  20.186  14.300
36244W        W 8504  14.758   6.717  12.371
36245W        W 8505  34.497  34.024   4.156
36246W        W 8506  13.308  18.641  11.078
36247W        W 8507  11.203  44.327  13.997
36248W        W 8508  24.197  26.553  14.375
36249W        W 8509   0.268  42.931  14.284
36250W        W 8510  41.002  33.985  13.816
36251W        W 8511  16.099  18.097   0.776
36252W        W 8512  15.601  38.014  14.300
36253W        W 8513  41.524  33.056   1.727
36254W        W 8514  13.227  26.183   2.818
36255W        W 8515  22.168  29.099   2.342
36256W        W 8516   5.266  44.938   3.356
36257W        W 8517   0.457  10.731  11.573
36258W        W 8518  43.363  34.501  11.533
36259W        W 8519  40.922  18.099  14.996
36260W        W 8520   8.893   1.855   0.726
36261W        W 8521  31.512  14.613   3.712
36262W        W 8522  11.686  10.745   2.830
36263W        W 8523   6.308   5.210   0.301
36264W        W 8524  43.377   2.885  14.876
36265W        W 8525  31.567  40.388   2.371
36266W        W 8526  24.589   4.904  13.822
36267W        W 8527  36.027   3.348   4.304
36268W        W 8528  10.381   6.845   5.309
36269W        W 8529  15.132  10.782  14.949
36270W        W 8530  28.529  37.919  10.447
36271W        W 8531  32.483   9.263   2.684
36272W        W 8532  19.165  34.579  11.580
36273W        W 8533   1.408   5.817   2.405
36274W        W 8534  16.213  25.573   2.726
36275W        W 8535   7.767  21.717   1.293
36276W        W 8536  15.582  29.492   1.442
36277W        W 8537  34.904  34.601   4.348
36278W        W 8538  34.599  35.105  12.462
36279W        W 8539  20.172  33.455   1.810
36280W        W 8540  24.511  22.200   0.968
36281W        W 8541  20.185  10.749  13.028
36282W        W 8542  24.102  21.618   1.694
36283W        W 8543  12.650  14.734   2.710
36284W        W 8544   6.915  10.859   2.676
36285W        W 8545  29.652  32.530   0.900
36286W        W 8546  35.866  37.072   2.222
36287W        W 8547   9.194  20.549  13.048
36288W        W 8548  25.023  39.509  12.041
36289W        W 8549  37.896  23.990   3.724
36290W        W 8550  21.032  32.418   4.287
36291W        W 8551  31.898  25.691  10.601
36292W        W 8552  16.793   2.760   0.771
36293W        W 8553  18.565   8.855   1.770
36294W        W 8554  30.611  20.242   3.186
36295W        W 8555  18.788   2.331  13.933
36296W        W 8556  32.937   9.253  12.578
36297W        W 8557   2.349  27.945  12.057
36298W        W 8558  13.229  13.700   4.627
36299W        W 8559  31.585  30.989   2.829
36300W        W 8560  15.230  17.659   1.799
36301W        W 8561   1.738  13.173   0.291
36302W        W 8562  42.958  14.761   3.863
36303W        W 8563  24.037  39.901   1.276
36304W        W 8564  13.250  33.117   0.726
36305W        W 8565  33.893  26.658  14.282
36306W        W 8566  20.208  37.403  10.924
36307W        W 8567  15.591  38.430   5.306
36308W        W 8568   5.320  12.745   2.707
36309W        W 8569  36.987  16.632   3.259
36310W        W 8570  29.152  13.339  10.486
36311W        W 8571  14.640  34.408   4.210
36312W        W 8572  44.344  17.598  14.445
36313W        W 8573  17.114   6.262   3.209
36314W        W 8574  19.594  30.062   2.417
36315W        W 8575  31.137  14.159  14.495
36316W        W 8576  18.179   1.354  10.540
36317W        W 8577   4.277  31.910   1.850
36318W        W 8578  25.663  14.663  13.964
36319W        W 8579  15.216  29.930  10.509
36320W        W 8580  23.076  34.374   4.701
36321W        W 8581  44.883  38.869  13.427
36322W        W 8582  12.203   8.679  14.417
36323W        W 8583  16.578   2.927  10.972
36324W        W 8584  44.917  20.652   0.391
36325W        W 8585  32.138  18.070   4.694
36326W        W 8586  17.254  14.590   0.850
36327W        W 8587   8.326  23.681  13.460
36328W        W 8588  34.012  26.574  12.922
36329W        W 8589   9.836  30.064   2.289
36330W        W 8590   9.686   5.824  12.863
36331W        W 8591   2.400  18.702   3.803
36332W        W 8592  13.202  13.821  11.566
36333W        W 8593   3.357  33.031   3.287
36334W        W 8594  18.557  10.242  14.864
36335W        W 8595   7.385  23.110   2.255
36336W        W 8596  26.163  35.381   4.669
36337W        W 8597  11.223  25.094  12.859
36338W        W 8598  42.356  34.425   3.853
36339W        W 8599  29.475   5.736   1.351
36340W        W 8600  22.731  11.266  13.900
36341W        W 8601   5.432  25.031  10.989
36342W        W 8602  37.413  41.990  11.372
36343W        W 8603  37.049  36.916  11.425
36344W        W 8604  25.524  20.118   4.281
36345W        W 8605   9.219  42.918  14.022
36346W        W 8606  41.498   3.352   3.365
36347W        W 8607  41.328  25.113  10.423
36348W        W 8608  38.026  19.239  14.305
36349W        W 8609   9.200  24.479   0.830
36350W        W 8610  37.455  17.209  14.298
36351W        W 8611  35.451  28.183   0.482
36352W        W 8612   9.741  24.052   3.275
36353W        W 8613   9.163   6.320   3.365
36354W        W 8614  26.542   7.363  14.400
36355W        W 8615  13.719  42.866  11.899
36356W        W 8616  38.566   0.925   0.308
36357W        W 8617   7.323  15.288   0.448
36358W        W 8618   8.835   0.466   3.865
36359W        W 8619  42.315  34.903   0.806
36360W        W 8620   7.859  32.617  11.386
36361W        W 8621   0.475  31.489  14.765
36362W        W 8622   1.793  20.038  12.028
36363W        W 8623  38.401  25.155   0.800
36364W        W 8624  20.219  35.102   2.855
36365W        W 8625  20.630  37.989  13.493
36366W        W 8626  42.823  19.766   0.426
36367W        W 8627  28.628  30.148  10.148
36368W        W 8628  38.896  40.503   4.790
36369W        W 8629  27.132   8.349   4.738
36370W        W 8630  11.328  43.445  11.898
36371W        W 8631  36.443  10.355   3.839
36372W        W 8632  12.256   5.258  10.976
36373W        W 8633  27.090  28.177   9.966
36374W        W 8634  34.526  26.599   9.971
36375W        W 8635  39.542   2.418  11.392
36376W        W 8636  29.475   0.471  12.964
36377W        W 8637  40.820  39.521   1.326
36378W        W 8638  16.123  22.049   1.381
36379W        W 8639  43.956   1.824  12.036
36380W        W 8640  15.799   7.228   1.853
36381W        W 8641  43.297  27.657  11.916
36382W        W 8642  30.514  15.619  11.968
36383W        W 8643  35.029  27.685   4.612
36384W        W 8644  14.155   7.197  12.435
36385W        W 8645  43.835  19.197   4.134
36386W        W 8646   6.781  31.474  13.372
36387W        W 8647  27.691  38.568  10.526
36388W        W 8648  27.197   1.281   3.219
36389W        W 8649  33.458  13.706  14.904
36390W        W 8650  36.094   4.372  12.005
36391W        W 8651  18.620  25.610   4.610
36392W        W 8652  13.267  20.543   4.675
36393W        W 8653  42.970  15.604  13.308
36394W        W 8654  26.691  17.691   2.290
36395W        W 8655   6.276  23.677  13.830
36396W        W 8656  36.073  35.064   2.196
36397W        W 8657  39.473  10.694   3.195
36398W        W 8658  38.372   6.878  12.517
36399W        W 8659  29.453   2.752   0.846
36400W        W 8660  33.412   4.447  14.954
36401W        W 8661  34.059  36.087  12.464
36402W        W 8662  28.950  43.506   4.709
36403W        W 8663  24.168   1.968   5.195
36404W        W 8664  41.816  16.164  11.075
36405W        W 8665  30.947  29.535   4.763
36406W        W 8666  25.173   6.838  12.998
36407W        W 8667  41.470  11.213   3.239
36408W        W 8668   1.925   3.245  13.322
36409W        W 8669  22.594  24.006  10.939
36410W        W 8670  18.776  15.260   2.802
36411W        W 8671  41.485  36.035  12.515
36412W        W 8672  13.147  33.036  12.953
36413W        W 8673  25.047  34.120  12.487
36414W        W 8674  44.402  21.586  13.841
36415W        W 8675   7.234  31.537   4.124
36416W        W 8676  31.924  14.321   9.993
36417W        W 8677  38.967  20.606  13.363
36418W        W 8678  43.878  43.020  11.899
36419W        W 8679  14.748  34.934   0.355
36420W        W 8680  25.172  20.223  13.055
36421W        W 8681  11.827  29.472   2.309
36422W        W 8682  28.528  38.478  12.993
36423W        W 8683   2.288  32.009  13.827
36424W        W 8684   0.375  27.614   4.188
36425W        W 8685   2.829  24.012  14.474
36426W        W 8686  25.692  43.436  11.550
36427W        W 8687   3.758  13.612   2.809
36428W        W 8688  42.002  33.465   0.339
36429W        W 8689  23.082  42.366  12.049
36430W        W 8690  42.331  28.602   1.728
36431W        W 8691   5.428  29.090  14.952
36432W        W 8692  35.489  12.709   4.131
36433W        W 8693  17.767  23.133  14.377
36434W        W 8694  29.090  37.046   3.323
36435W        W 8695   3.741  30.113  14.820
36436W        W 8696   2.319  33.550   2.686
36437W        W 8697  39.399  12.324  11.023
36438W        W 8698  20.104  36.961  12.365
36439W        W 8699   3.435  34.098  13.530
36440W        W 8700  20.733   6.874  12.095
36441W        W 8701  33.124  26.139  11.951
36442W        W 8702   9.885  39.377  11.461
36443W        W 8703   1.394   8.778   2.754
36444W        W 8704  12.125  39.493   0.865
36445W        W 8705  25.548  13.607   4.243
36446W        W 8706   3.793  42.886  11.128
36447W        W 8707  28.676  32.467   0.448
36448W        W 8708  42.411   1.770  10.937
36449W        W 8709  22.671   8.755  14.874
36450W        W 8710  15.243  17.638   5.160
36451W        W 8711  10.162   4.364   4.792
36452W        W 8712  14.827   0.369   2.192
36453W        W 8713  34.581   2.431  13.396
36454W        W 8714  17.299  32.451   0.847
36455W        W 8715   0.382  30.909   3.331
36456W        W 8716  10.745  24.613   4.196
36457W        W 8717  27.576   4.914  11.002
36458W        W 8718  23.519  11.365  13.488
36459W        W 8719  36.001  29.526  14.318
36460W        W 8720   7.751  35.428   4.773
36461W        W 8721  39.531  41.787   3.794
36462W        W 8722  43.769  31.094   3.356
36463W        W 8723  27.685  19.674   3.275
36464W        W 8724  44.427   7.362  10.568
36465W        W 8725   6.896   7.239  14.977
36466W        W 8726  23.697  40.373   4.281
36467W        W 8727  25.150   2.267  12.069
36468W        W 8728  19.706  29.470   3.218
36469W        W 8729  44.401  10.370  12.540
36470W        W 8730  36.542  20.523  13.986
36471W        W 8731  33.958  13.203   3.316
36472W        W 8732  21.183   1.862   3.193
36473W        W 8733  34.922  43.283  14.400
36474W        W 8734  15.614  37.956  11.570
36475W        W 8735   4.924  32.088  14.334
36476W        W 8736  32.594  18.077   3.148
36477W        W 8737  44.301  31.009  14.319
36478W        W 8738  11.683  33.077  10.075
36479W        W 8739  41.449  17.267   4.148
36480W        W 8740  10.365  40.921   0.323
36481W        W 8741  42.937  18.256  14.839
36482W        W 8742  44.385  37.009   0.767
36483W        W 8743  34.438  42.454   4.210
36484W        W 8744   3.449  24.549   1.888
36485W        W 8745  26.000  36.395  10.981
36486W        W 8746  10.306  24.563   0.438
36487W        W 8747   3.898   0.289   3.727
36488W        W 8748   4.815   2.245  12.518
36489W        W 8749  31.052  42.936  11.105
36490W        W 8750  42.430  40.536  11.584
36491W        W 8751  41.985   4.921   2.857
36492W        W 8752  18.719  34.986  14.486
36493W        W 8753  22.995  35.970   0.404
36494W        W 8754  43.426  44.757   4.214
36495W        W 8755  39.999  31.905   1.387
36496W        W 8756  38.518  33.953  11.026
36497W        W 8757   7.195  13.224  12.427
36498W        W 8758  37.464  18.641  12.913
36499W        W 8759  37.546  31.468  13.903
36500W        W 8760  39.875  38.864  11.997
36501W        W 8761  29.451  39.020   4.663
36502W        W 8762  38.545  19.209  13.457
36503W        W 8763  20.141  36.488   4.783
36504W        W 8764   3.315  29.655   4.242
36505W        W 8765  40.008  43.467  10.597
36506W        W 8766  29.943  22.241  12.504
36507W        W 8767  18.547  38.053   1.762
36508W        W 8768  42.317  10.356   4.266
36509W        W 8769  19.191  16.610  12.038
36510W        W 8770  14.660  36.404  12.501
36511W        W 8771  34.460  29.074  12.020
36512W        W 8772  30.965  34.472   1.451
36513W        W 8773   5.825  44.435   2.826
36514W        W 8774  40.021  42.942  10.957
36515W        W 8775   7.747  30.603  13.480
36516W        W 8776   3.948   4.446   2.406
36517W        W 8777  40.808  28.095   2.331
36518W        W 8778  30.558   3.754   1.840
36519W        W 8779   4.715  11.662   1.798
36520W        W 8780  10.275  21.118   3.190
36521W        W 8781  36.988  21.541   3.255
36522W        W 8782  12.235  33.559  13.512
36523W        W 8783  39.491  17.223  13.832
36524W        W 8784  41.843  10.192  12.064
36525W        W 8785  19.061  37.553  14.434
36526W        W 8786   4.241  39.465   4.319
36527W        W 8787  35.876   3.352   1.372
36528W        W 8788   5.277   1.969  12.964
36529W        W 8789  26.685  29.983   4.328
36530W        W 8790   1.333  28.473   0.405
36531W        W 8791  34.485  19.628  11.595
36532W        W 8792  28.035  18.554   2.417
36533W        W 8793  42.298  38.887   1.335
36534W        W 8794  24.101  44.769  10.416
36535W        W 8795  25.615  15.814   0.889
36536W        W 8796  41.828   5.241  10.973
36537W        W 8797  23.172  16.317   4.804
36538W        W 8798   7.334  29.148  12.429
36539W        W 8799  44.782  41.818  14.370
36540W        W 8800  28.669   6.835   0.385
36541W        W 8801   0.449   7.371  12.453
36542W        W 8802  34.523  31.559   3.341
36543W        W 8803  14.782   3.302   4.349
36544W        W 8804  23.034  21.692  11.116
36545W        W 8805  11.653   9.752  11.461
36546W        W 8806  21.671   9.753  14.914
36547W        W 8807   3.448  14.227   4.216
36548W        W 8808  42.509   9.733  13.841
36549W        W 8809   1.345  36.384  14.772
36550W        W 8810   4.712  20.217  14.450
36551W        W 8811  13.762  43.491  10.514
36552W        W 8812  34.073   3.951  13.047
36553W        W 8813  38.394  30.155  13.424
36554W        W 8814  17.082  41.848  10.615
36555W        W 8815  36.568  13.246   1.766
36556W        W 8816   8.722  36.375  13.544
36557W        W 8817  25.090  38.429  11.884
36558W        W 8818  22.210   9.199  14.888
36559W        W 8819  43.823  12.749  11.587
36560W        W 8820   1.312   2.451  10.545
36561W        W 8821   1.968  39.515   3.743
36562W        W 8822  24.134  20.697   2.702
36563W        W 8823   3.270   2.935   0.929
36564W        W 8824  25.624   1.334  13.331
36565W        W 8825   0.765   9.316   4.189
36566W        W 8826  40.932  26.159   1.239
36567W        W 8827  36.580  16.786  13.929
36568W        W 8828   6.805  32.625   0.349
36569W        W 8829  14.601  23.683   2.708
36570W        W 8830  27.106  14.294  13.860
36571W        W 8831  20.612  31.564  13.857
36572W        W 8832  15.296  28.603  11.503
36573W        W 8833   3.273  35.364   2.293
36574W        W 8834  41.438  13.214   4.631
36575W        W 8835  29.513   5.902  14.936
36576W        W 8836  34.096   6.403   2.211
36577W        W 8837  36.487  40.380   2.808
36578W        W 8838  40.913  25.066   2.683
36579W        W 8839   7.876  27.089  13.990
36580W        W 8840  13.621  31.039   3.185
36581W        W 8841  28.107  15.629  12.896
36582W        W 8842   7.843  27.591  11.120
36583W        W 8843  32.990   7.235   1.699
36584W        W 8844  27.962   1.453  12.970
36585W        W 8845  44.971  43.811  13.478
36586W        W 8846  42.510   4.277   0.331
36587W        W 8847   2.768  21.132   3.728
36588W        W 8848  21.144  35.946  11.056
36589W        W 8849  18.655  39.048   0.320
36590W        W 8850  30.483   7.390  12.042
36591W        W 8851  37.981  30.910   3.160
36592W        W 8852   7.324   4.911  12.093
36593W        W 8853  17.775  42.009  13.410
36594W        W 8854  39.011  28.460  13.911
36595W        W 8855  26.564   6.843   3.802
36596W        W 8856   5.211  27.640   5.320
36597W        W 8857  43.497  18.069   3.250
36598W        W 8858  26.038   9.317  10.618
36599W        W 8859  25.203  25.541  11.490
36600W        W 8860  41.871  40.475  12.028
36601W        W 8861  33.468  21.196  14.425
36602W        W 8862  44.435   3.242   0.442
36603W        W 8863  44.988  21.051   2.258
36604W        W 8864   6.421  40.973   3.265
36605W        W 8865  31.043   7.218  10.049
36606W        W 8866   0.435   5.696   1.408
36607W        W 8867   1.293  13.293  11.577
36608W        W 8868  15.199  17.085   2.241
36609W        W 8869  25.562   7.760  14.940
36610W        W 8870  23.091  14.781  12.351
36611W        W 8871  15.111   4.923   1.435
36612W        W 8872   9.330  41.015   3.257
36613W        W 8873  31.645  10.700  10.960
36614W        W 8874  19.120  16.595  14.275
36615W        W 8875  27.613   1.386   1.922
36616W        W 8876  33.617  28.522   1.718
36617W        W 8877   4.437   2.736  12.389
36618W        W 8878  12.234  30.652   2.380
36619W        W 8879  33.890  42.023  11.894
36620W        W 8880  28.131  15.578   0.449
36621W        W 8881  41.944  18.614   0.442
36622W        W 8882  25.683  10.194  12.052
36623W        W 8883  19.230  21.676  10.520
36624W        W 8884   6.870  10.205  11.468
36625W        W 8885  26.188  12.730  12.029
36626W        W 8886   6.333  25.169   2.722
36627W        W 8887   4.711  33.436   3.767
36628W        W 8888  40.549  44.432  13.337
36629W        W 8889   3.770  18.573  14.506
36630W        W 8890   9.220   7.720   1.779
36631W        W 8891   1.824  43.920   1.272
36632W        W 8892  15.145  33.513  14.935
36633W        W 8893  37.497  37.080  12.529
36634W        W 8894  17.093  20.687  12.036
36635W        W 8895  23.658  27.614   5.237
36636W        W 8896  14.132  23.104  10.426
36637W        W 8897  18.131  13.702  10.947
36638W        W 8898  38.841  44.991  10.428
36639W        W 8899  16.265   7.236  12.462
36640W        W 8900   8.706  31.930   3.305
36641W        W 8901  22.643  24.704   2.662
36642W        W 8902  11.816  44.428   0.345
36643W        W 8903  23.065   6.908  12.833
36644W        W 8904  26.078  37.432  14.451
36645W        W 8905  13.746   9.804  11.006
36646W        W 8906  33.532   5.249   4.138
36647W        W 8907   7.841  28.567  11.094
36648W        W 8908   9.768  35.035   1.696
36649W        W 8909  41.833  40.469  10.939
36650W        W 8910   9.853  42.297  10.644
36651W        W 8911  14.333   6.677   4.235
36652W        W 8912  43.957  35.505   2.409
36653W        W 8913  39.373  32.901   2.665
36654W        W 8914  31.012  18.548   0.782
36655W        W 8915  32.493  10.174  10.991
36656W        W 8916  43.002  44.379   0.825
36657W        W 8917  31.532  43.966  12.355
36658W        W 8918   5.251  10.700  11.492
36659W        W 8919  38.401  15.264   2.369
36660W        W 8920  27.191  14.638  11.028
36661W        W 8921  31.476   7.830  12.951
36662W        W 8922  41.324  43.391   3.791
36663W        W 8923   1.439   8.180  14.487
36664W        W 8924   0.432  20.049   1.424
36665W        W 8925  42.924  25.601  13.049
36666W        W 8926  16.182  25.658   1.710
36667W        W 8927  13.603   1.466  13.814
36668W        W 8928  20.139  28.088   0.472
36669W        W 8929  16.712  18.762  12.464
36670W        W 8930  41.397  39.507   1.232
36671W        W 8931  14.596  32.124   1.366
36672W        W 8932   0.869  38.033  10.943
36673W        W 8933  34.389  28.507   1.900
36674W        W 8934  44.376  26.191   4.141
36675W        W 8935  22.086  29.659  10.959
36676W        W 8936  28.475   5.420  13.826
36677W        W 8937  38.499   5.798  12.428
36678W        W 8938  41.930  40.926   4.705
36679W        W 8939  30.523  35.434  13.876
36680W        W 8940  37.042  23.633  13.500
36681W        W 8941  17.207  32.107  13.480
36682W        W 8942  39.044  11.298   0.747
36683W        W 8943  14.134   8.900   9.921
36684W        W 8944   6.888  30.615  14.815
36685W        W 8945  44.402   7.849   0.269
36686W        W 8946  16.182  25.592   3.232
36687W        W 8947  32.631  11.305  14.507
36688W        W 8948  30.602  33.899  14.899
36689W        W 8949  34.374  36.582   4.292
36690W        W 8950  29.166   8.893  10.970
36691W        W 8951   5.348  20.047   2.870
36692W        W 8952  18.153  40.804   1.449
36693W        W 8953  14.337  39.908  11.386
36694W        W 8954  15.660  26.600  10.059
36695W        W 8955  19.104  16.233  12.527
36696W        W 8956   6.696  24.549   0.786
36697W        W 8957  20.598   5.348  10.636
36698W        W 8958   3.916  32.894  13.802
36699W        W 8959   5.331  12.296  13.325
36700W        W 8960  34.906  43.911  11.948
36701W        W 8961  37.945  13.624   1.444
36702W        W 8962  15.799  28.164   1.321
36703W        W 8963  28.086  17.693  13.995
36704W        W 8964  27.511  18.095  12.924
36705W        W 8965  17.800  27.570   1.764
36706W        W 8966  22.171  41.970   4.354
36707W        W 8967  38.444  34.565  11.056
36708W        W 8968  15.137  22.074  10.537
36709W        W 8969  43.327   0.312  11.100
36710W        W 8970  40.810  38.995  11.425
36711W        W 8971  36.894  20.104   0.868
36712W        W 8972  37.895  42.346  12.455
36713W        W 8973  13.234  31.499   2.375
36714W        W 8974  34.055  10.691  13.886
36715W        W 8975  19.636  39.424  12.061
36716W        W 8976   5.411  42.424  12.364
36717W        W 8977  39.361  13.646  10.405
36718W        W 8978   7.397   6.400  10.994
36719W        W 8979  19.542  41.339   1.776
36720W        W 8980  31.985  27.642   2.741
36721W        W 8981  38.507   0.394   4.612
36722W        W 8982  38.900  13.800  12.990
36723W        W 8983  20.702  28.181  13.310
36724W        W 8984  39.468  10.755   0.732
36725W        W 8985  36.377  38.440   4.226
36726W        W 8986  35.470   3.768  14.793
36727W        W 8987  23.094  40.532  14.330
36728W        W 8988  17.145  24.691  13.338
36729W        W 8989  43.404  18.567   2.304
36730W        W 8990  22.140  38.857  11.938
36731W        W 8991  28.060  41.364  11.566
36732W        W 8992  38.509  20.681  11.542
36733W        W 8993  17.766  33.610   3.656
36734W        W 8994  30.117  17.296   4.189
36735W        W 8995  42.888  33.032   4.786
36736W        W 8996  35.392  28.576  10.624
36737W        W 8997  33.433  23.208  10.053
36738W        W 8998  14.137   3.935   5.129
36739W        W 8999  29.544  40.362  13.061
36740W        W 9000  40.372  26.464   2.183
36741W        W 9001  17.694   4.328  13.351
36742W        W 9002  22.216  20.751   3.205
36743W        W 9003  40.370  28.597   1.262
36744W        W 9004   2.311   5.255   4.114
36745W        W 9005   5.803  32.589  10.918
36746W        W 9006  30.000  43.786  13.001
36747W        W 9007  44.872  20.047  13.509
36748W        W 9008  34.541  14.326  12.094
36749W        W 9009  30.502   0.351  11.490
36750W        W 9010   9.362  13.349  10.501
36751W        W 9011  19.263  32.000  11.022
36752W        W 9012  30.950   7.804   3.867
36753W        W 9013   4.367  26.533  10.490
36754W        W 9014  12.213  15.206  13.014
36755W        W 9015  14.226   4.893  10.561
36756W        W 9016  44.875  19.239   1.314
36757W        W 9017  26.060   7.702   3.800
36758W        W 9018   5.709   2.888  13.532
36759W        W 9019  13.308   9.211   1.339
36760W        W 9020  43.783  21.725  13.968
36761W        W 9021   2.376  40.476  10.491
36762W        W 9022  24.538  17.127   3.212
36763W        W 9023  10.162  20.178   3.278
36764W        W 9024   3.339  32.117   5.099
36765W        W 9025  41.821  12.231   1.289
36766W        W 9026  40.427  22.094  12.440
36767W        W 9027   4.894   0.762   1.329
36768W        W 9028  13.734  28.647  14.491
36769W        W 9029  14.105  23.545   2.352
36770W        W 9030  33.422  11.686  12.994
36771W        W 9031  14.818  16.157  10.078
36772W        W 9032  30.548   8.789   4.164
36773W        W 9033  36.576  35.860  10.939
36774W        W 9034  13.143  24.552   4.713
36775W        W 9035   0.880  34.985   1.391
36776W        W 9036  24.198  29.502   1.801
36777W        W 9037  25.118  21.550   0.269
36778W        W 9038  26.485  38.902   2.189
36779W        W 9039  15.731  34.869  10.936
36780W        W 9040   6.192  25.207   3.349
36781W        W 9041  21.587  32.060  14.942
36782W        W 9042   9.345  18.545  13.365
36783W        W 9043  20.681   3.831  14.898
36784W        W 9044  42.998  43.467  11.444
36785W        W 9045  25.025  27.658  13.047
36786W        W 9046   2.447  15.646  12.943
36787W        W 9047   1.345  38.546  12.475
36788W        W 9048  34.376   1.253   0.374
36789W        W 9049  33.930  33.888   1.329
36790W        W 9050  27.988  40.487   3.816
36791W        W 9051  41.305  24.209   1.452
36792W        W 9052  33.021  27.484  13.021
36793W        W 9053  33.500  38.914  10.608
36794W        W 9054  18.181   1.823  11.860
36795W        W 9055  19.242   0.965  14.789
36796W        W 9056  11.157  44.316  10.506
36797W        W 9057  41.388  15.629  11.090
36798W        W 9058   2.799  32.582  12.033
36799W        W 9059  12.271  11.170   3.743
36800W        W 9060  14.701   9.305  14.484
36801W        W 9061  41.040  36.904   1.729
36802W        W 9062  13.263  25.471  13.052
36803W        W 9063   3.798  42.495  14.485
36804W        W 9064  10.245   2.458   1.901
36805W        W 9065   7.688   2.244  14.006
36806W        W 9066  15.130  27.074  11.541
36807W        W 9067  42.358  40.378  10.476
36808W        W 9068   0.277  31.556  13.471
36809W        W 9069  25.612  23.093   3.253
36810W        W 9070  29.482  32.952   2.770
36811W        W 9071  16.189  41.854  11.451
36812W        W 9072  33.130  37.909  11.121
36813W        W 9073  36.850   7.364   3.234
36814W        W 9074  30.478  25.567  13.863
36815W        W 9075   8.371  16.212  14.302
36816W        W 9076  15.785   3.451   4.280
36817W        W 9077   7.857  36.406   4.282
36818W        W 9078  25.157  41.492   1.251
36819W        W 9079  25.127  19.597  14.917
36820W        W 9080  44.960   9.350   3.796
36821W        W 9081   5.924  23.564   1.278
36822W        W 9082  40.054  14.317  11.539
36823W        W 9083   4.763  39.883   0.955
36824W        W 9084  32.004   7.881  10.468
36825W        W 9085  11.819  39.019   2.265
36826W        W 9086  21.158  24.620   4.790
36827W        W 9087  26.191  41.858   4.197
36828W        W 9088  14.700  21.554   0.832
36829W        W 9089  41.969  27.113   0.399
36830W        W 9090   8.854  29.986   2.707
36831W        W 9091  40.045   1.785   0.317
36832W        W 9092  10.850  25.491  13.388
36833W        W 9093   4.220   5.371   0.767
36834W        W 9094  44.755  37.060  13.492
36835W        W 9095  30.620  13.127   3.156
36836W        W 9096  11.796  22.168  13.891
36837W        W 9097  32.399  15.297  13.829
36838W        W 9098  28.166  37.001  12.039
36839W        W 9099  42.816  16.631  11.023
36840W        W 9100  40.875   1.252   0.459
36841W        W 9101  10.779   3.260   2.686
36842W        W 9102   5.904  17.801  12.353
36843W        W 9103  27.662  25.621   4.344
36844W        W 9104  35.090  11.811  11.038
36845W        W 9105   1.969   4.342  14.308
36846W        W 9106   4.261  19.282  12.028
36847W        W 9107  42.471  31.569   0.815
36848W        W 9108  17.120  17.170   3.640
36849W        W 9109  31.552  33.618   4.141
36850W        W 9110  42.832  43.418   3.720
36851W        W 9111  11.250   6.253  14.863
36852W        W 9112  40.353   6.273   3.846
36853W        W 9113  37.523  11.218  10.119
36854W        W 9114  44.435   3.315  11.405
36855W        W 9115  40.345  24.478   3.652
36856W        W 9116  43.787   5.325   1.896
36857W        W 9117  41.906   0.916   3.696
36858W        W 9118  11.161  22.721  10.478
36859W        W 9119  13.193  25.654  10.954
36860W        W 9120   5.199  25.012  11.521
36861W        W 9121  29.052  23.620   0.941
36862W        W 9122  31.538  26.642   3.798
36863W        W 9123  32.106  34.564   2.222
36864W        W 9124  30.465  20.074  11.124
36865W        W 9125  36.011   0.292  11.886
36866W        W 9126  27.616  42.817   4.703
36867W        W 9127  21.233  36.844   2.295
36868W        W 9128  31.502  14.771  14.968
36869W        W 9129  43.459   6.255   0.809
36870W        W 9130   7.180  11.271  11.010
36871W        W 9131   0.353  44.457  10.415
36872W        W 9132   0.362  11.758   4.691
36873W        W 9133  41.383  42.839  13.041
36874W        W 9134  37.384  44.849   1.913
36875W        W 9135  34.455  17.307   3.703
36876W        W 9136  11.289  23.526  11.027
36877W        W 9137   2.805  39.923   3.647
36878W        W 9138   3.760  19.763  12.507
36879W        W 9139   5.403  22.649   0.911
36880W        W 9140  43.866  37.358  12.396
36881W        W 9141  23.993  32.451   0.440
36882W        W 9142   3.944   3.831   1.218
36883W        W 9143  36.573  24.527  13.397
36884W        W 9144   0.791  19.689   4.278
36885W        W 9145   8.214  42.966  14.458
36886W        W 9146  36.402  32.629  14.899
36887W        W 9147  26.492   5.825   2.361
36888W        W 9148  10.376  11.799  14.831
36889W        W 9149  37.539  32.932   4.154
36890W        W 9150   1.907  44.873   1.761
36891W        W 9151  21.217  10.334   3.189
36892W        W 9152  43.274  19.564   5.120
36893W        W 9153  10.730  25.485   1.732
36894W        W 9154  25.540   9.821   3.256
36895W        W 9155  31.034  24.690  11.405
36896W        W 9156  11.851  39.839  10.027
36897W        W 9157  44.769  43.400   1.261
36898W        W 9158  32.573  27.971   4.147
36899W        W 9159   1.826   7.912   2.203
36900W        W 9160  17.636  21.134  14.002
36901W        W 9161  33.513  29.085   2.688
36902W        W 9162  38.904  41.388   9.984
36903W        W 9163  35.035  15.211  12.529
36904W        W 9164  20.727   1.283  12.001
36905W        W 9165  20.555  26.084   0.941
36906W        W 9166  39.932  30.416   1.287
36907W        W 9167  13.621  28.652   4.682
36908W        W 9168  31.574  26.120   2.819
36909W        W 9169  29.961   4.788   2.817
36910W        W 9170  33.606  37.874  11.972
36911W        W 9171  41.884  24.603  14.023
36912W        W 9172  28.591   7.182  11.914
36913W        W 9173  34.004  18.049   4.632
36914W        W 9174  27.475  23.690   0.243
36915W        W 9175  20.081  21.618   3.260
36916W        W 9176  11.335  26.137  13.544
36917W        W 9177   6.270  18.177  14.795
36918W        W 9178  22.057  22.224   1.403
36919W        W 9179   3.375  21.643  11.910
36920W        W 9180   8.720  16.266  10.516
36921W        W 9181   9.783   5.695   1.249
36922W        W 9182   5.930  20.617  14.031
36923W        W 9183  23.070   1.438   0.398
36924W        W 9184  23.736  10.303  12.846
36925W        W 9185  25.978   0.746  14.500
36926W        W 9186  44.910  44.418  10.895
36927W        W 9187  43.800  18.645  11.400
36928W        W 9188  34.112  27.046  12.843
36929W        W 9189  43.771  30.926  10.480
36930W        W 9190   2.278  40.971   4.182
36931W        W 9191  34.505   8.379  14.371
36932W        W 9192  16.258  39.015   4.350
36933W        W 9193   8.256  23.715   2.838
36934W        W 9194  40.881   4.935   3.355
36935W        W 9195  13.755  12.732  14.394
36936W        W 9196  31.424  19.099   2.239
36937W        W 9197  42.358  24.076  11.864
36938W        W 9198  43.921  43.510   3.805
36939W        W 9199  37.433  27.483  10.007
36940W        W 9200   5.807  20.733   0.338
36941W        W 9201   2.455  10.360   4.218
36942W        W 9202  28.452  44.932  11.079
36943W        W 9203  41.022  39.386  14.953
36944W        W 9204  22.228  39.009  11.076
36945W        W 9205  35.063  23.528   0.841
36946W        W 9206   7.254  29.618  12.018
36947W        W 9207  44.322  13.231   1.876
36948W        W 9208  10.264  21.731   2.204
36949W        W 9209  17.716  27.575  13.466
36950W        W 9210  32.450  14.332  14.480
36951W        W 9211  17.105  28.636   1.426
36952W        W 9212  10.311  18.560   3.792
36953W        W 9213  36.857  26.649   4.756
36954W        W 9214  43.424  15.631  10.091
36955W        W 9215  33.495   0.908   0.392
36956W        W 9216  17.776  37.864  13.475
36957W        W 9217   7.782   9.266  14.276
36958W        W 9218  21.551  22.184  13.948
36959W        W 9219   5.820  34.097   4.142
36960W        W 9220  34.520  24.142  12.486
36961W        W 9221   8.682  32.096  14.291
36962W        W 9222   7.415  27.036   0.811
36963W        W 9223  25.083   4.244  11.949
36964W        W 9224  24.537   7.853  10.499
36965W        W 9225  43.862   9.689  14.505
36966W        W 9226  29.984  36.520   3.709
36967W        W 9227   9.732  44.298  11.094
36968W        W 9228  26.587  33.541   5.206
36969W        W 9229  32.936  24.050  12.987
36970W        W 9230  30.438  42.933  11.586
36971W        W 9231  25.191   7.884   1.311
36972W        W 9232   4.393  15.607   2.325
36973W        W 9233   6.856  31.609  11.114
36974W        W 9234  11.367  29.634  13.450
36975W        W 9235  43.898   9.723  14.910
36976W        W 9236  20.221  36.926  13.795
36977W        W 9237  13.184  21.091   0.951
36978W        W 9238   0.338  35.452  10.476
36979W        W 9239  21.661   2.952   2.871
36980W        W 9240  40.362  40.855   4.800
36981W        W 9241  42.510  42.367   2.396
36982W        W 9242  12.823  19.106   2.389
36983W        W 9243  22.222  40.313   3.194
36984W        W 9244  36.519   0.879  12.394
36985W        W 9245  36.557   8.828  14.937
36986W        W 9246   1.435   9.201   0.859
36987W        W 9247   7.856  42.527   3.385
36988W        W 9248  12.334  19.571   3.660
36989W        W 9249  26.533  13.348   1.904
36990W        W 9250  14.269   6.259  12.470
36991W        W 9251  26.518  10.698   3.749
36992W        W 9252  25.554   7.871   1.721
36993W        W 9253  28.469  42.510   2.820
36994W        W 9254  31.490  29.427   4.822
36995W        W 9255  33.552   4.420   3.731
36996W        W 9256   1.853  40.018  10.966
36997W        W 9257  26.003  17.637  13.524
36998W        W 9258  44.939  41.019  11.971
36999W        W 9259  20.743   9.330  10.585
37000W        W 9260  17.115  32.558   3.696
37001W        W 9261  44.319  12.673  13.501
37002W        W 9262   3.866  26.022  13.978
37003W        W 9263  29.633  13.110   4.679
37004W        W 9264  33.078  39.834  12.384
37005W        W 9265  39.970   8.216   3.377
37006W        W 9266  21.722  23.518   3.746
37007W        W 9267  32.033  29.006   1.753
37008W        W 9268   9.223  27.103  14.338
37009W        W 9269  39.971  26.601  12.880
37010W        W 9270  29.500  14.187  13.048
37011W        W 9271  43.996  22.596  11.532
37012W        W 9272  38.066  37.416  13.311
37013W        W 9273  43.428  40.435  11.875
37014W        W 9274   9.869  30.629  12.374
37015W        W 9275   2.374  26.459  14.802
37016W        W 9276  14.261  30.495  10.945
37017W        W 9277  13.789  43.778   0.827
37018W        W 9278   9.294  43.942   2.833
37019W        W 9279  25.058  29.458   2.366
37020W        W 9280   5.210  28.510  11.559
37021W        W 9281  24.076   1.461  13.824
37022W        W 9282   6.812  11.172   1.311
37023W        W 9283  42.882  10.287   2.767
37024W        W 9284   0.258  11.338   0.780
37025W        W 9285  43.415  23.715   0.348
37026W        W 9286  30.069   2.815  12.495
37027W        W 9287  16.664  15.313  10.621
37028W        W 9288  42.840  27.530   4.142
37029W        W 9289  31.082  38.066  11.964
37030W        W 9290  27.446  33.467  13.984
37031W        W 9291  36.910  36.429   3.688
37032W        W 9292  29.495  35.936  11.989
37033W        W 9293   7.705  24.201   2.665
37034W        W 9294  33.501  43.938   4.764
37035W        W 9295  28.950  35.894   1.897
37036W        W 9296  25.544   0.815  13.521
37037W        W 9297  27.052   4.380   1.899
37038W        W 9298  22.112  32.982   0.786
37039W        W 9299   1.849  18.790   5.191
37040W        W 9300  20.588  31.997   1.702
37041W        W 9301   9.218  15.774   2.389
37042W        W 9302  43.308  11.697   3.739
37043W        W 9303  21.168  18.071  12.890
37044W        W 9304  11.145   9.754  10.565
37045W        W 9305  28.503   1.911  13.907
37046W        W 9306  29.616  15.645  13.872
37047W        W 9307  15.257  39.529   2.386
37048W        W 9308  19.613  28.448  13.491
37049W        W 9309  40.490  17.147   2.264
37050W        W 9310  42.519  26.478  13.010
37051W        W 9311  21.065   8.864   1.808
37052W        W 9312  20.672   2.731  11.958
37053W        W 9313  28.648  28.492  11.908
37054W        W 9314  40.840   1.305   3.664
37055W        W 9315  40.034   3.266  12.081
37056W        W 9316  33.410  39.012   1.699
37057W        W 9317  36.489   7.377  10.034
37058W        W 9318  24.646  17.558   3.356
37059W        W 9319  33.565  20.124   2.764
37060W        W 9320  11.373  13.173  12.047
37061W        W 9321   3.796  42.454   4.273
37062W        W 9322  21.588  27.659  13.900
37063W        W 9323  33.946   5.409   0.833
37064W        W 9324  32.895   1.458  11.912
37065W        W 9325   0.338   0.985   3.806
37066W        W 9326  44.887  19.215   2.819
37067W        W 9327   8.196  10.168   3.222
37068W        W 9328  14.691  19.136  13.052
37069W        W 9329  19.598   5.303   3.248
37070W        W 9330  31.923  36.516  13.314
37071W        W 9331  33.941  41.437   1.917
37072W        W 9332  12.302   1.248   3.798
37073W        W 9333   5.394   0.461  10.625
37074W        W 9334  22.112  32.505  13.003
37075W        W 9335   3.384  37.461   3.222
37076W        W 9336   6.842  36.431   2.184
37077W        W 9337   5.357   6.281   3.847
37078W        W 9338  36.909  28.035   3.310
37079W        W 9339  39.532  18.743   0.253
37080W        W 9340  42.981  35.536  14.484
37081W        W 9341   5.388  25.134   4.330
37082W        W 9342  38.050  22.100   2.869
37083W        W 9343   0.343  12.724  12.398
37084W        W 9344  28.540  14.095   2.664
37085W        W 9345  15.627  19.545  13.508
37086W        W 9346  13.196  32.588   3.209
37087W        W 9347  28.941  13.230   1.923
37088W        W 9348  19.119  33.977   2.244
37089W        W 9349  39.928  28.659  14.344
37090W        W 9350  39.320   3.331   4.207
37091W        W 9351  25.038  34.477  14.960
37092W        W 9352  24.039  37.031  14.032
37093W        W 9353  27.985  14.296   3.825
37094W        W 9354  26.662   3.412   5.312
37095W        W 9355   7.876  31.409  14.346
37096W        W 9356  34.011  40.804   3.670
37097W        W 9357  28.606  31.614  11.058
37098W        W 9358  16.241  35.381   3.213
37099W        W 9359   3.922  44.758  14.386
37100W        W 9360   0.949   4.737  11.912
37101W        W 9361  28.664  17.224   2.351
37102W        W 9362  12.147  27.148   3.798
37103W        W 9363   3.425   5.329   2.735
37104W        W 9364  24.155  23.108   2.778
37105W        W 9365  41.454   9.734  10.975
37106W        W 9366  38.990  20.747   3.713
37107W        W 9367   5.782   3.456   0.350
37108W        W 9368  25.136  14.606   1.396
37109W        W 9369   5.316  21.251  11.374
37110W        W 9370   7.757   0.249  11.535
37111W        W 9371   7.261  41.950  13.823
37112W        W 9372  43.961  23.166  11.597
37113W        W 9373  11.631  22.035   2.326
37114W        W 9374  32.991  36.966   3.772
37115W        W 9375  17.199   0.274   1.310
37116W        W 9376  30.546  12.646  12.065
37117W        W 9377  21.613  25.186  11.998
37118W        W 9378  15.141  39.473  12.424
37119W        W 9379   8.830  35.083   2.289
37120W        W 9380  27.500   7.381   3.326
37121W        W 9381  35.862  24.974   1.792
37122W        W 9382  24.545  31.457  13.359
37123W        W 9383  10.727  40.530  13.997
37124W        W 9384  40.809  43.294  14.969
37125W        W 9385  32.971  37.508   2.812
37126W        W 9386   0.398   4.741  11.435
37127W        W 9387   0.920  24.979   4.267
37128W        W 9388  27.990   2.859  13.794
37129W        W 9389  12.357  32.919  10.996
37130W        W 9390  34.028  17.228  10.542
37131W        W 9391  10.154  24.661  13.498
37132W        W 9392  12.714   9.697   3.729
37133W        W 9393   3.389  40.820  12.045
37134W        W 9394  18.173  32.425   0.335
37135W        W 9395  25.140  11.764   1.349
37136W        W 9396  34.024  42.799  14.477
37137W        W 9397  38.511  34.030  12.974
37138W        W 9398   1.904   0.777  14.934
37139W        W 9399  37.347  16.800   4.701
37140W        W 9400   6.913  24.183   4.809
37141W        W 9401   6.858  28.493  12.830
37142W        W 9402  36.503  40.523  12.574
37143W        W 9403  19.701   6.756   4.663
37144W        W 9404   9.308  21.753  14.947
37145W        W 9405  41.868  28.597  11.481
37146W        W 9406   4.775  13.801   1.354
37147W        W 9407  44.753  10.371   0.801
37148W        W 9408   3.369  19.747   1.926
37149W        W 9409  14.319  16.598  11.509
37150W        W 9410   1.339   6.417   0.875
37151W        W 9411   0.804  15.790  14.780
37152W        W 9412  17.094  43.386   2.743
37153W        W 9413  13.751  33.930  12.093
37154W        W 9414   8.826  10.670  11.014
37155W        W 9415   3.880  32.404  11.089
37156W        W 9416  22.034  11.655   2.214
37157W        W 9417   5.781  26.686   1.745
37158W        W 9418  13.824  26.659   0.832
37159W        W 9419  20.121   5.743  13.959
37160W        W 9420  33.433   4.813   2.838
37161W        W 9421  30.599  39.966   3.200
37162W        W 9422  38.440  36.863  10.505
37163W        W 9423  17.243   1.383   3.146
37164W        W 9424  25.039  18.259  13.008
37165W        W 9425   6.909   1.910   4.165
37166W        W 9426   4.344  30.618  14.488
37167W        W 9427  16.270  24.556  14.329
37168W        W 9428  17.218   9.212  10.559
37169W        W 9429  22.109  12.141  11.051
37170W        W 9430  37.517  22.690   3.805
37171W        W 9431  31.096  36.878   3.286
37172W        W 9432   8.855  12.638  10.422
37173W        W 9433  13.201   6.876   1.334
37174W        W 9434   6.220  14.332   4.726
37175W        W 9435  13.678  31.419   4.810
37176W        W 9436   6.834  25.040  11.530
37177W        W 9437  28.987   1.735  10.490
37178W        W 9438  39.462  14.806   1.903
37179W        W 9439  33.890  41.538  11.561
37180W        W 9440  22.666   8.699   4.820
37181W        W 9441  14.774   2.315  13.894
37182W        W 9442  18.241   9.220  11.465
37183W        W 9443  16.785  37.959   3.296
37184W        W 9444  41.799   8.843   0.821
37185W        W 9445  15.688  27.075   1.769
37186W        W 9446   3.273   0.971  13.849
37187W        W 9447  21.738  15.133   0.946
37188W        W 9448  33.474   7.313   0.950
37189W        W 9449  27.540  30.005   9.635
37190W        W 9450  26.533  25.976   2.336
37191W        W 9451  10.326   7.300   2.761
37192W        W 9452  20.609  29.491  10.520
37193W        W 9453  19.564  37.478  11.549
37194W        W 9454  36.494  13.654   3.754
37195W        W 9455  10.697  12.795   2.386
37196W        W 9456  39.833  20.591   0.805
37197W        W 9457  14.327  33.103  10.447
37198W        W 9458   6.292  35.001   1.709
37199W        W 9459  24.019  15.234   3.238
37200W        W 9460  44.787  31.102   4.796
37201W        W 9461  10.800  16.625  12.422
37202W        W 9462  16.657  11.867   0.409
37203W        W 9463   4.739   7.348   0.959
37204W        W 9464  24.017  21.727   4.721
37205W        W 9465  10.814  18.273  13.390
37206W        W 9466  10.733  40.995   3.725
37207W        W 9467  14.632  40.362   2.768
37208W        W 9468   7.250  34.071   2.807
37209W        W 9469  42.439   3.948   0.291
37210W        W 9470  31.420  34.962   2.719
37211W        W 9471  35.516   5.724   3.784
37212W        W 9472  31.543  23.655   0.385
37213W        W 9473  32.439  14.320   1.706
37214W        W 9474  16.080  13.199  10.517
37215W        W 9475  24.511  28.982   3.685
37216W        W 9476  44.801  21.078  12.983
37217W        W 9477  31.001  40.348   1.238
37218W        W 9478  33.878   2.882  13.364
37219W        W 9479  28.559   6.217   1.915
37220W        W 9480  37.028  27.125   3.344
37221W        W 9481  34.899  18.664  10.541
37222W        W 9482  33.036  17.151  14.760
37223W        W 9483  42.943  38.371  11.082
37224W        W 9484  25.087  38.013   1.702
37225W        W 9485  40.416   4.740  10.939
37226W        W 9486  12.326  29.134   0.263
37227W        W 9487  12.122   2.347  14.814
37228W        W 9488  44.847  15.170   0.249
37229W        W 9489  33.598   9.153   2.401
37230W        W 9490  28.095  33.993   4.602
37231W        W 9491  22.708  26.968   4.231
37232W        W 9492   8.396  24.586  11.950
37233W        W 9493  20.188  19.178   3.329
37234W        W 9494  22.526  36.492  10.523
37235W        W 9495  14.752  39.543  13.525
37236W        W 9496  21.590  11.144  14.960
37237W        W 9497   1.366   7.353  10.485
37238W        W 9498  26.569  17.228  14.993
37239W        W 9499  43.850   9.203  10.599
37240W        W 9500   6.198  26.994   0.454
37241W        W 9501  19.692  28.522   4.242
37242W        W 9502  39.062  19.636   3.382
37243W        W 9503  18.789   8.858  11.094
37244W        W 9504  25.138   1.437   0.904
37245W        W 9505  27.972  27.681   1.334
37246W        W 9506  33.882   4.318  13.400
37247W        W 9507   5.421  33.898   1.347
37248W        W 9508  34.509  21.167   4.788
37249W        W 9509  32.055  13.720  11.085
37250W        W 9510   6.895  23.571  12.977
37251W        W 9511  20.615  17.725   3.218
37252W        W 9512   7.257   0.851  14.907
37253W        W 9513  36.000  34.960   0.363
37254W        W 9514  10.766  28.058  11.975
37255W        W 9515  25.165   3.891   0.755
37256W        W 9516  44.474   2.833  11.953
37257W        W 9517  31.498   3.795   3.162
37258W        W 9518   6.676  25.467   2.400
37259W        W 9519   6.364   5.415   1.698
37260W        W 9520  20.034  42.369   2.334
37261W        W 9521   9.390  24.997   2.294
37262W        W 9522  10.868  16.744  10.587
37263W        W 9523   3.852  34.942  10.959
37264W        W 9524  31.906  15.165  10.009
37265W        W 9525  29.064  36.018   0.343
37266W        W 9526  33.542   0.786   4.296
37267W        W 9527  20.677  44.415   3.780
37268W        W 9528  37.532  11.264   3.702
37269W        W 9529   2.418  43.367  12.348
37270W        W 9530  44.487  22.583  12.899
37271W        W 9531  15.252  43.331  11.453
37272W        W 9532  30.087   7.908  13.064
37273W        W 9533  12.702  44.292   4.224
37274W        W 9534  12.622  29.512   4.657
37275W        W 9535  24.160   4.257  11.376
37276W        W 9536   3.380  11.290   1.400
37277W        W 9537  33.482  15.151   2.859
37278W        W 9538  43.893  16.775  13.346
37279W        W 9539  36.888  23.023   4.721
37280W        W 9540  12.205  19.637  12.903
37281W        W 9541  27.566  18.585   4.710
37282W        W 9542  44.904  42.889   3.236
37283W        W 9543  21.195  21.718  12.990
37284W        W 9544  38.371  18.599  12.442
37285W        W 9545  38.437  11.794   4.755
37286W        W 9546  17.558  28.582  12.563
37287W        W 9547   5.246  43.443   0.736
37288W        W 9548  44.268  35.490  11.594
37289W        W 9549  24.090   2.351   4.305
37290W        W 9550  14.782  29.019   3.191
37291W        W 9551  34.098  19.184   1.313
37292W        W 9552   8.871  21.662   2.719
37293W        W 9553  13.292  38.947   2.847
37294W        W 9554  30.585  23.206   2.731
37295W        W 9555  31.111  17.698   3.198
37296W        W 9556  27.620  29.980   5.792
37297W        W 9557  21.262   7.208   3.680
37298W        W 9558  32.010   9.356  14.831
37299W        W 9559  32.571   0.924  10.934
37300W        W 9560  13.291  13.611  10.552
37301W        W 9561   0.422  22.514  11.089
37302W        W 9562  35.973  31.632   3.189
37303W        W 9563   9.364  23.044   0.940
37304W        W 9564   1.775  16.099   4.759
37305W        W 9565  25.166  12.843  14.826
37306W        W 9566  36.397  42.934  12.005
37307W        W 9567  26.502  34.591  13.398
37308W        W 9568  11.791  37.051  13.370
37309W        W 9569  32.894  11.737   1.763
37310W        W 9570  42.366  36.954  14.899
37311W        W 9571   4.347  36.476   0.309
37312W        W 9572  17.556  40.462  12.834
37313W        W 9573  24.114  28.176   4.699
37314W        W 9574  39.468  32.961   3.172
37315W        W 9575  22.612  31.430   4.673
37316W        W 9576  25.026  18.732  14.015
37317W        W 9577  35.371  44.817   0.290
37318W        W 9578  44.343   8.186  14.455
37319W        W 9579  39.533  11.369  14.318
37320W        W 9580   4.926  21.021   2.753
37321W        W 9581  28.548  36.878  10.566
37322W        W 9582   7.290  40.376  11.424
37323W        W 9583   8.400   5.777  12.907
37324W        W 9584  28.054  21.569  14.285
37325W        W 9585  18.576   2.398  14.814
37326W        W 9586  42.334  14.609   1.409
37327W        W 9587  22.533   2.843  10.547
37328W        W 9588  37.927  34.030  10.576
37329W        W 9589  23.725   7.855  12.968
37330W        W 9590  18.728  24.065   4.693
37331W        W 9591  20.080  43.456  10.591
37332W        W 9592   8.800  25.192  14.306
37333W        W 9593   7.249  29.004   4.651
37334W        W 9594   5.862   3.894   0.861
37335W        W 9595   4.891  36.090   0.299
37336W        W 9596  30.466  10.202   2.412
37337W        W 9597  36.859  40.869   0.408
37338W        W 9598  19.759   8.324  13.015
37339W        W 9599  41.796  43.849  10.513
37340W        W 9600  38.999  24.495   4.221
37341W        W 9601  15.292   5.746   1.804
37342W        W 9602   2.951   9.288   0.316
37343W        W 9603   8.308  36.447  12.377
37344W        W 9604   6.800  37.473   3.829
37345W        W 9605   4.280  33.045  12.480
37346W        W 9606   1.405  31.643  14.386
37347W        W 9607  20.078  23.162  13.386
37348W        W 9608  41.363  24.023   4.672
37349W        W 9609  16.806  14.790  13.510
37350W        W 9610  28.656  42.418   1.929
37351W        W 9611   6.207   3.332  10.449
37352W        W 9612  35.439  24.710   0.780
37353W        W 9613  33.502  21.554   2.804
37354W        W 9614   2.418   0.928  14.470
37355W        W 9615   0.479  27.528  10.527
37356W        W 9616   3.729  43.491   2.375
37357W        W 9617  25.678  39.467  10.487
37358W        W 9618   3.749  23.702   3.322
37359W        W 9619   2.918   4.859  10.496
37360W        W 9620   3.351   3.948   2.308
37361W        W 9621  33.035  37.479   5.238
37362W        W 9622  18.258  25.060  11.435
37363W        W 9623  22.017   6.230  14.296
37364W        W 9624  33.919  24.721  11.901
37365W        W 9625  21.226  33.584  12.861
37366W        W 9626  32.070  35.101  13.045
37367W        W 9627   8.734  14.302  10.434
37368W        W 9628  13.150  35.014  13.486
37369W        W 9629  27.520   2.275   3.845
37370W        W 9630  17.300   5.264   2.662
37371W        W 9631  26.570  35.042  14.920
37372W        W 9632  10.659  32.490   2.724
37373W        W 9633  13.348  40.396  13.511
37374W        W 9634  41.422  38.398   2.219
37375W        W 9635  42.509   9.330  13.369
37376W        W 9636  39.957  32.991   1.877
37377W        W 9637  14.163  23.226   4.636
37378W        W 9638  17.121  42.411  11.019
37379W        W 9639  33.402  25.067  11.406
37380W        W 9640  14.138  41.373  12.398
37381W        W 9641  17.724  39.855   0.796
37382W        W 9642  39.038  40.811   0.807
37383W        W 9643   0.920   4.396  14.430
37384W        W 9644  32.011  29.120  12.541
37385W        W 9645  17.131  19.194  11.931
37386W        W 9646  36.981  14.776  13.364
37387W        W 9647   5.326  22.566  14.944
37388W        W 9648  11.654  26.597   4.141
37389W        W 9649  43.920  27.050   4.670
37390W        W 9650   5.764  35.432  14.434
37391W        W 9651  14.694  34.505   0.903
37392W        W 9652   4.890  40.931  10.598
37393W        W 9653  37.555  33.939  14.330
37394W        W 9654  23.537   5.786   2.319
37395W        W 9655  39.465  17.068   3.650
37396W        W 9656  44.971  10.676   3.366
37397W        W 9657  39.319  14.622   2.179
37398W        W 9658  21.258  10.668  13.000
37399W        W 9659  16.226  13.661  13.910
37400W        W 9660  12.239  11.136   4.808
37401W        W 9661  16.287   8.845  10.439
37402W        W 9662  31.595  30.489  13.980
37403W        W 9663  20.595  18.112  13.507
37404W        W 9664  38.870  36.489  14.766
37405W        W 9665  10.740  38.868   0.892
37406W        W 9666   1.393  22.680  11.037
37407W        W 9667  37.443  32.130  14.003
37408W        W 9668  37.405  36.457   2.741
37409W        W 9669  30.070   1.735   2.386
37410W        W 9670  13.716  11.230  11.582
37411W        W 9671   8.243  14.144   1.918
37412W        W 9672   4.279  27.468   1.877
37413W        W 9673   6.356  19.637  13.907
37414W        W 9674  37.379  20.699  12.065
37415W        W 9675  40.469  36.036  12.508
37416W        W 9676  11.279  31.464   4.678
37417W        W 9677  39.937  25.130   0.750
37418W        W 9678  40.546  44.770   0.879
37419W        W 9679  21.511  15.617  12.879
37420W        W 9680  33.423  23.507  10.432
37421W        W 9681  44.266  12.728   4.337
37422W        W 9682  22.561  39.065   1.361
37423W        W 9683  10.356  17.647   3.645
37424W        W 9684  13.645  30.982   5.265
37425W        W 9685  12.200  14.732  13.455
37426W        W 9686  43.432  35.465   1.257
37427W        W 9687   9.665  34.062   0.349
37428W        W 9688   0.934  43.796  14.947
37429W        W 9689  19.211  32.024   3.861
37430W        W 9690  21.249   1.440   1.921
37431W        W 9691  44.897  35.058   4.735
37432W        W 9692  12.761  32.443  14.329
37433W        W 9693   4.224  37.055  11.916
37434W        W 9694   6.350   1.914   0.799
37435W        W 9695  12.187  25.084   0.805
37436W        W 9696  41.516  12.758  12.527
37437W        W 9697  30.621  43.291   1.429
37438W        W 9698   9.238  16.220   2.794
37439W        W 9699  15.320  18.118  13.849
37440W        W 9700  36.462  43.391  13.401
37441W        W 9701  37.072  13.626  10.500
37442W        W 9702  43.844  43.903   1.719
37443W        W 9703  44.319  12.172  11.087
37444W        W 9704  11.144   1.861   4.143
37445W        W 9705  38.437   7.737   1.332
37446W        W 9706  28.679  15.231   3.169
37447W        W 9707   3.345  19.120  12.407
37448W        W 9708   2.805   3.366   3.363
37449W        W 9709  16.754  31.945   4.150
37450W        W 9710  17.211  30.145   1.285
37451W        W 9711   1.281  16.768   0.348
37452W        W 9712   7.676   9.386   0.413
37453W        W 9713  15.149  18.148   3.383
37454W        W 9714  36.975  11.835   0.321
37455W        W 9715   9.330   6.911  13.851
37456W        W 9716  30.136  16.101  11.532
37457W        W 9717  40.896   7.753  10.527
37458W        W 9718  19.168  11.307  10.527
37459W        W 9719   0.418   0.924   2.400
37460W        W 9720  11.156  26.476  14.930
37461W        W 9721  14.234  34.384   4.130
37462W        W 9722  18.152   3.749   3.226
37463W        W 9723  25.178  12.249   4.336
37464W        W 9724  21.577  17.248   3.652
37465W        W 9725  34.102  23.191   1.762
37466W        W 9726  35.370   2.821   1.914
37467W        W 9727  33.574   4.821  12.066
37468W        W 9728  38.482  39.861  13.466
37469W        W 9729  36.974  39.955  13.467
37470W        W 9730  19.681  14.134  11.456
37471W        W 9731  13.318  35.920   1.240
37472W        W 9732  10.879   4.749  11.412
37473W        W 9733  31.969  27.509   4.318
37474W        W 9734  25.022  31.958   0.325
37475W        W 9735   5.765   7.396   2.796
37476W        W 9736  10.825   1.917  12.344
37477W        W 9737  37.935  31.047   1.871
37478W        W 9738  40.372  34.492   1.756
37479W        W 9739   4.264  43.313  14.809
37480W        W 9740  34.419   2.445   4.154
37481W        W 9741  34.939  10.277  10.909
37482W        W 9742  41.434   9.335  12.396
37483W        W 9743   6.424  39.524  14.940
37484W        W 9744  28.635  17.605  11.523
37485W        W 9745  39.914  14.698   3.155
37486W        W 9746  36.964  41.876  11.129
37487W        W 9747  27.984  44.008  13.490
37488W        W 9748  38.533   4.375   4.731
37489W        W 9749  27.148  13.142  14.980
37490W        W 9750  20.651  32.914  13.462
37491W        W 9751  21.710  36.894  10.516
37492W        W 9752  12.193  33.528  13.038
37493W        W 9753   2.312  28.122  14.381
37494W        W 9754  42.912  22.098   1.411
37495W        W 9755  29.667  31.454   2.387
37496W        W 9756  10.257  38.015   1.822
37497W        W 9757  29.117  30.089  10.496
37498W        W 9758  21.593  21.616   5.300
37499W        W 9759  36.066   8.880   5.227
37500W        W 9760  33.537  24.986   0.300
37501W        W 9761   5.218   6.680  11.555
37502W        W 9762  11.363  31.982   1.871
37503W        W 9763   1.756  14.607  10.539
37504W        W 9764  13.654  17.704  12.056
37505W        W 9765  20.034  21.165  12.924
37506W        W 9766  19.739  44.999   1.898
37507W        W 9767  28.584   8.260   1.311
37508W        W 9768  14.802  34.004  12.556
37509W        W 9769  39.423  28.544  11.587
37510W        W 9770  30.121   6.249  10.907
37511W        W 9771  21.633  40.945  11.870
37512W        W 9772   1.750  23.055  14.855
37513W        W 9773   1.944  15.741  12.024
37514W        W 9774  12.296  13.641  10.479
37515W        W 9775  12.754   5.434  14.275
37516W        W 9776   3.856  14.234   3.313
37517W        W 9777  13.642  44.381   3.254
37518W        W 9778  26.690  30.423  10.112
37519W        W 9779   8.190  23.732  14.300
37520W        W 9780  36.485  17.591  12.850
37521W        W 9781  11.366  12.784   0.842
37522W        W 9782   9.215  26.082   1.736
37523W        W 9783   0.882  30.956  14.372
37524W        W 9784  22.033  40.824   4.677
37525W        W 9785  11.800  28.083  14.813
37526W        W 9786   2.306  30.124  14.430
37527W        W 9787  20.129  31.100   1.372
37528W        W 9788  43.991  26.511   4.721
37529W        W 9789  36.921  11.269  11.562
37530W        W 9790  44.421  28.965   0.924
37531W        W 9791  41.860  17.746  10.513
37532W        W 9792  21.664  10.874  14.891
37533W        W 9793  32.559  36.028  13.330
37534W        W 9794  22.014  27.630  11.876
37535W        W 9795   6.195  19.158  14.949
37536W        W 9796  31.133  17.078   0.844
37537W        W 9797   9.197  12.193  11.040
37538W        W 9798  10.756  30.556   3.252
37539W        W 9799   4.699  28.957  11.989
37540W        W 9800  18.711  10.696   1.221
37541W        W 9801   4.854  35.905   0.790
37542W        W 9802   6.789   1.840   1.316
37543W        W 9803  16.089  42.831  12.055
37544W        W 9804  42.323  30.124  14.015
37545W        W 9805  13.345  41.506  11.569
37546W        W 9806  19.181  25.216   0.253
37547W        W 9807  16.139   4.934   1.806
37548W        W 9808   5.280  30.618  12.912
37549W        W 9809  29.524  41.481   0.368
37550W        W 9810  29.946  30.061   5.103
37551W        W 9811  14.703  13.257   1.842
37552W        W 9812  35.871  32.005   0.858
37553W        W 9813  19.608   9.353  10.474
37554W        W 9814  24.191   8.743   1.798
37555W        W 9815  16.116  11.671  14.945
37556W        W 9816  41.852   6.855   2.232
37557W        W 9817  23.032  36.517   4.667
37558W        W 9818  31.500  18.714   1.402
37559W        W 9819  26.084  27.672  12.071
37560W        W 9820  17.688  21.598   1.907
37561W        W 9821   2.793   7.171   2.826
37562W        W 9822  22.547  14.619   1.774
37563W        W 9823  15.141  29.632   5.608
37564W        W 9824   9.699   7.695   1.871
37565W        W 9825  34.419  34.612  12.891
37566W        W 9826   8.754   9.203   2.674
37567W        W 9827   0.929  17.182  14.396
37568W        W 9828  36.084  36.421  11.886
37569W        W 9829  42.864  23.675   4.686
37570W        W 9830  37.908  21.035   2.788
37571W        W 9831  29.014  13.808  14.373
37572W        W 9832  39.440   6.786   5.237
37573W        W 9833  10.762  40.380  10.597
37574W        W 9834  11.788  29.648   1.833
37575W        W 9835  39.856  15.676  11.043
37576W        W 9836  12.122  43.461   2.713
37577W        W 9837  15.159  31.581   0.302
37578W        W 9838  12.676  33.569   2.670
37579W        W 9839   4.902  20.587  11.107
37580W        W 9840  17.616  39.525  10.448
37581W        W 9841  35.945  31.638  10.909
37582W        W 9842  38.826  32.137   4.322
37583W        W 9843  44.928   9.207   2.193
37584W        W 9844  23.198  39.893   0.438
37585W        W 9845  22.157  30.575   3.634
37586W        W 9846  35.017  38.406   3.859
37587W        W 9847  26.648  27.983  10.979
37588W        W 9848  39.451  28.957   2.708
37589W        W 9849  33.929   5.420   2.666
37590W        W 9850  11.857  23.144   0.471
37591W        W 9851  36.988  35.086  11.051
37592W        W 9852  38.549  16.157  11.991
37593W        W 9853  43.871  41.326   3.751
37594W        W 9854  25.037   4.911  12.919
37595W        W 9855  15.586  29.052   0.801
37596W        W 9856  30.953  43.399   0.766
37597W        W 9857   4.742  30.051   0.346
37598W        W 9858  37.353   6.383   1.925
37599W        W 9859  20.136  36.517  14.926
37600W        W 9860  22.678  19.261  12.075
37601W        W 9861  44.889  10.660   4.343
37602W        W 9862  26.701  11.830   1.862
37603W        W 9863  38.886  13.267  11.889
37604W        W 9864  33.470  14.613  13.908
37605W        W 9865   3.391  20.133  10.491
37606W        W 9866  30.621  21.216   1.914
37607W        W 9867  24.695   1.241   1.727
37608W        W 9868   9.335   0.279  14.289
37609W        W 9869  32.399   0.408  13.465
37610W        W 9870  19.091   0.456  12.890
37611W        W 9871  18.286  25.550   2.410
37612W        W 9872  11.218  11.828  11.428
37613W        W 9873  34.379  38.922   1.435
37614W        W 9874  30.083  32.890  10.489
37615W        W 9875  22.502  38.889  11.011
37616W        W 9876  35.375  19.041  13.907
37617W        W 9877  28.065  12.223  12.399
37618W        W 9878   6.687  12.708   1.828
37619W        W 9879   2.352  10.875   0.471
37620W        W 9880  38.523   2.907   2.377
37621W        W 9881   5.229  24.561   3.236
37622W        W 9882  44.949  13.332  10.467
37623W        W 9883  39.917  38.066  12.065
37624W        W 9884   7.251  26.959  10.471
37625W        W 9885   8.309  32.028  10.888
37626W        W 9886  37.895  17.607   3.331
37627W        W 9887  29.427  42.821  11.602
37628W        W 9888  37.041  38.919   2.790
37629W        W 9889  17.136  35.484   3.228
37630W        W 9890  34.557  16.131  13.818
37631W        W 9891   8.754  24.711   1.916
37632W        W 9892  42.294   7.292  11.105
37633W        W 9893  39.850  36.378   2.891
37634W        W 9894  20.551  37.551  12.503
37635W        W 9895  40.019  12.225   2.722
37636W        W 9896  21.689   0.267  12.412
37637W        W 9897   8.322  30.155   0.339
37638W        W 9898  23.204  10.318  12.085
37639W        W 9899  13.619  40.913   1.310
37640W        W 9900  44.901  31.474   3.659
37641W        W 9901   5.392  36.356  14.767
37642W        W 9902   4.900  39.963   3.796
37643W        W 9903  12.122  19.706  10.938
37644W        W 9904  18.050  37.381  10.471
37645W        W 9905  24.601  33.435  10.988
37646W        W 9906  35.057  26.072  11.510
37647W        W 9907   0.967  27.036  10.947
37648W        W 9908  37.902  34.028  11.471
37649W        W 9909  43.431  10.714   3.179
37650W        W 9910   6.240   7.262  14.828
37651W        W 9911   2.448  42.495   2.387
37652W        W 9912  18.667  28.015   4.150
37653W        W 9913  41.964  38.446   3.152
37654W        W 9914  12.640   5.698   2.291
37655W        W 9915  29.486  29.579   5.230
37656W        W 9916  44.332  44.447   3.178
37657W        W 9917   8.793  19.114   4.322
37658W        W 9918   8.867  13.791   2.319
37659W        W 9919   4.864  20.655  14.334
37660W        W 9920   7.180   8.822   0.400
37661W        W 9921  43.328  26.088   0.318
37662W        W 9922  35.864  39.845   1.335
37663W        W 9923  14.615  35.501  12.370
37664W        W 9924  34.010  30.593   0.883
37665W        W 9925  40.418  25.974  12.418
37666W        W 9926   7.825  28.184  11.430
37667W        W 9927  43.508  18.550  14.830
37668W        W 9928  10.189   2.312  13.853
37669W        W 9929  34.978   2.331   3.199
37670W        W 9930  32.574  42.411   1.302
37671W        W 9931  36.585  17.573   1.393
37672W        W 9932   1.322   7.909   0.477
37673W        W 9933  44.757  33.612  10.959
37674W        W 9934  12.840  40.498  13.386
37675W        W 9935  24.200  39.845   5.191
37676W        W 9936   9.670  23.535  12.564
37677W        W 9937  41.450   2.266  13.990
37678W        W 9938  31.423  21.669  10.614
37679W        W 9939  33.977  15.654  11.078
37680W        W 9940  24.186   6.209  13.891
37681W        W 9941  13.771  14.209  10.479
37682W        W 9942  32.984   3.850   2.721
37683W        W 9943   2.290  35.541   2.267
37684W        W 9944  22.561  35.517   4.749
37685W        W 9945   7.745  43.472   0.268
37686W        W 9946  35.920  33.132  12.557
37687W        W 9947   5.887  32.916   2.319
37688W        W 9948  24.572  40.026   0.414
37689W        W 9949  23.001  10.838   4.729
37690W        W 9950  26.139  16.313   0.738
37691W        W 9951  10.188  17.294  10.547
37692W        W 9952   2.876  27.181   3.650
37693W        W 9953  41.475  15.189   2.339
37694W        W 9954  17.676  28.512   0.355
37695W        W 9955  24.999  14.658  11.014
37696W        W 9956  33.970  16.706  13.320
37697W        W 9957  21.116   6.186   0.424
37698W        W 9958  19.137  10.779  14.472
37699W        W 9959  19.073  27.035  10.590
37700W        W 9960   4.212  42.899  10.603
37701W        W 9961  19.210  40.051   4.350
37702W        W 9962  25.052   2.800   2.344
37703W        W 9963  10.281  39.492  13.412
37704W        W 9964   9.367  19.666  12.840
37705W        W 9965  28.675  33.960  10.983
37706W        W 9966  18.278  14.120   0.371
37707W        W 9967   8.833  26.182   4.726
37708W        W 9968  42.012  30.004  12.359
37709W        W 9969  42.890  19.101  14.385
37710W        W 9970  37.087  41.388  14.993
37711W        W 9971  39.035  39.396  14.281
37712W        W 9972  19.218   1.791   0.847
37713W        W 9973  37.392   6.225  14.770
37714W        W 9974  33.559  19.744   3.277
37715W        W 9975   7.668  38.010   1.748
37716W        W 9976  17.123  15.577   3.321
37717W        W 9977   8.701  18.063  14.274
37718W        W 9978  27.022  26.155  10.605
37719W        W 9979  41.034  33.405   1.334
37720W        W 9980  41.434  11.785   2.813
37721W        W 9981  27.036  37.833   3.727
37722W        W 9982  42.411  22.596   2.801
37723W        W 9983  13.256  24.634  11.107
37724W        W 9984   9.165  31.033   4.654
37725W        W 9985  19.066  34.043   3.204
37726W        W 9986  35.904  20.652   2.395
37727W        W 9987  20.105   7.749   5.761
37728W        W 9988  18.182  17.798  11.916
37729W        W 9989  35.924  25.467  12.960
37730W        W 9990  18.595  10.803  12.465
37731W        W 9991   4.820  41.816  13.440
37732W        W 9992  34.051  21.551   1.711
37733W        W 9993  42.029  11.184   4.753
37734W        W 9994  35.418  40.050  13.412
37735W        W 9995   6.745  37.908  14.477
37736W        W 9996  40.372  28.609  14.030
37737W        W 9997  42.282   0.834   3.766
37738W        W 9998  37.044  18.640  11.039
37739W        W 9999   3.348   3.835   1.232
37740W        W10000  30.658   5.343  12.915
37741W        W10001   2.827   1.318   4.612
37742W        W10002  41.969  32.450   3.861
37743W        W10003  43.446   8.769   4.190
37744W        W10004  28.524  30.029  13.003
37745W        W10005  14.325  30.944   0.341
37746W        W10006  35.596   3.442  12.408
37747W        W10007  35.377   9.390   3.306
37748W        W10008  28.473  17.275  12.026
37749W        W10009  27.628  29.022   4.715
37750W        W10010  35.096  31.552   0.909
37751W        W10011   8.322  17.196   0.744
37752W        W10012  16.732  43.793  13.535
37753W        W10013  11.268  13.308   2.372
37754W        W10014  34.961  37.550   5.272
37755W        W10015   1.777  25.700   1.417
37756W        W10016  12.680   7.817  13.038
37757W        W10017   7.394  10.233   1.859
37758W        W10018  29.481  16.812  14.874
37759W        W10019  20.645  31.522   0.887
37760W        W10020  34.450   5.920  12.072
37761W        W10021  19.185  16.284  13.976
37762W        W10022  23.051  34.394  12.938
37763W        W10023  11.841  17.710   1.814
37764W        W10024  24.505  19.041  13.316
37765W        W10025  38.339  23.167  14.857
37766W        W10026   0.773  41.801   3.188
37767W        W10027  15.087  22.658   1.266
37768W        W10028  15.102  40.866   1.704
37769W        W10029  26.526  14.744   2.403
37770W        W10030  32.941   1.849   0.458
37771W        W10031  21.747  33.937  11.443
37772W        W10032  10.202  43.354  12.001
37773W        W10033   3.880  44.475   4.207
37774W        W10034  16.603  11.206  13.357
37775W        W10035   4.780  27.640  13.885
37776W        W10036  16.807  34.380   3.258
37777W        W10037  30.062  35.982   2.367
37778W        W10038   9.385  23.552   4.202
37779W        W10039  15.128   9.781   3.709
37780W        W10040  12.307  23.713   4.613
37781W        W10041  25.602  41.997  12.839
37782W        W10042   8.900  23.124   4.824
37783W        W10043  11.655  26.057  14.019
37784W        W10044  43.967  22.176   1.406
37785W        W10045  42.410  16.663  13.899
37786W        W10046  29.633  23.993   5.228
37787W        W10047  12.201  35.532   3.328
37788W        W10048  26.589  34.606   4.312
37789W        W10049  15.222  30.597  10.944
37790W        W10050  30.984  19.775  10.926
37791W        W10051  42.462  28.441   4.143
37792W        W10052  40.361  33.612  13.967
37793W        W10053  36.523   2.870  12.417
37794W        W10054   0.435   7.258   2.384
37795W        W10055  20.545  35.998  14.424
37796W        W10056  28.671  37.469   2.887
37797W        W10057  24.014   8.291  11.577
37798W        W10058   5.927  25.695   3.240
37799W        W10059  33.971  24.514   0.765
37800W        W10060  42.990  23.659  13.392
37801W        W10061  40.945   7.871  12.496
37802W        W10062  29.554   6.833  14.895
37803W        W10063  33.098  22.066   0.480
37804W        W10064  15.585  11.318   3.850
37805W        W10065  37.503   5.202   3.370
37806W        W10066  15.770   7.824  11.426
37807W        W10067  14.686  28.457  11.900
37808W        W10068   1.759  15.609   4.826
37809W        W10069  34.614   6.830  12.550
37810W        W10070   5.438  23.528   1.745
37811W        W10071   0.749  18.700  11.559
37812W        W10072  21.230  35.583   3.814
37813W        W10073  10.370  10.798  11.506
37814W        W10074  17.738  16.287   0.849
37815W        W10075  24.169   2.928   0.249
37816W        W10076   7.904  29.440  14.766
37817W        W10077  18.250   3.371   1.801
37818W        W10078  22.114  38.045  13.914
37819W        W10079  18.075  19.227   0.343
37820W        W10080   6.923  19.611  11.589
37821W        W10081  17.189  17.256   2.779
37822W        W10082  44.844  21.207  13.830
37823W        W10083  34.949  41.296  14.817
37824W        W10084  32.431  26.617   0.285
37825W        W10085  11.299  18.261  14.895
37826W        W10086  40.483  26.578  12.030
37827W        W10087  22.033  27.654  10.585
37828W        W10088   8.187  10.653  14.423
37829W        W10089   0.409   0.937  11.017
37830W        W10090  10.184  13.691   0.777
37831W        W10091  12.708  39.886  13.548
37832W        W10092  32.503  33.388  14.499
37833W        W10093  42.300  17.239   4.632
37834W        W10094  16.569  24.130  11.399
37835W        W10095  23.704  31.462  10.927
37836W        W10096  43.379   4.236   1.259
37837W        W10097   9.374  22.076   3.792
37838W        W10098  16.154  44.280  12.036
37839W        W10099   9.808  23.230   0.410
37840W        W10100  17.594  32.413   4.776
37841W        W10101  36.382  26.462   0.903
37842W        W10102   8.777  34.020   3.820
37843W        W10103  39.866  18.175  13.380
37844W        W10104   8.891  11.646  11.116
37845W        W10105  42.913   8.681   0.299
37846W        W10106  34.863  16.119   3.771
37847W        W10107  32.499  11.819  12.044
37848W        W10108  37.425  34.071   0.900
37849W        W10109  32.043  32.113  10.044
37850W        W10110  20.758  33.395  13.419
37851W        W10111  24.504  25.533  14.911
37852W        W10112  44.470  37.853  11.399
37853W        W10113  13.836  30.938  10.092
37854W        W10114  30.634  38.428   2.371
37855W        W10115  28.016  33.126   1.702
37856W        W10116  12.311   8.291   0.939
37857W        W10117  10.278  32.069  14.318
37858W        W10118  26.695  14.228   2.419
37859W        W10119  33.001  40.871  14.505
37860W        W10120  29.475   6.846   3.643
37861W        W10121  34.585  23.636   2.271
37862W        W10122  14.334   9.309   0.933
37863W        W10123  44.439   8.766   4.701
37864W        W10124  36.079  40.400  13.530
37865W        W10125  12.627  39.482   3.706
37866W        W10126  17.145  12.636   2.180
37867W        W10127   6.342   7.194  11.487
37868W        W10128  27.945  11.814  14.018
37869W        W10129   0.466  43.966  13.005
37870W        W10130  44.007  14.675  10.998
37871W        W10131   1.841  30.556  10.468
37872W        W10132  23.046  13.233  13.545
37873W        W10133  33.412  20.273  12.419
37874W        W10134  10.826  34.997   3.670
37875W        W10135  27.134   9.829   0.421
37876W        W10136  10.860   2.311  10.626
37877W        W10137  14.249  27.609  14.346
37878W        W10138  42.525  30.985   4.254
37879W        W10139  37.068  25.494  12.933
37880W        W10140  38.541  28.447  10.468
37881W        W10141  28.565  22.042   1.920
37882W        W10142  18.621  12.238  14.794
37883W        W10143  13.813  13.766  12.388
37884W        W10144  15.179  43.338   3.260
37885W        W10145  22.222  19.064  10.075
37886W        W10146  41.867  38.830   1.399
37887W        W10147  29.642   1.956  10.151
37888W        W10148   6.288   4.912   0.285
37889W        W10149  17.169  42.527  11.485
37890W        W10150   8.712  34.970   1.226
37891W        W10151  19.096  39.845   0.425
37892W        W10152  42.314   2.467  11.066
37893W        W10153  31.634  21.212  12.361
37894W        W10154  15.690  18.715  12.489
37895W        W10155  13.135  41.962   0.358
37896W        W10156  18.604  13.789  14.926
37897W        W10157  14.168   4.349  11.439
37898W        W10158  38.446  28.085  13.003
37899W        W10159   6.858   9.713   3.380
37900W        W10160   4.835  28.632   4.816
37901W        W10161  17.707  17.647   2.740
37902W        W10162   8.336  40.495   4.207
37903W        W10163  30.058  32.520   2.847
37904W        W10164  13.631  38.856   1.908
37905W        W10165  13.696  20.172  14.305
37906W        W10166  10.268  12.830  12.080
37907W        W10167  25.987  22.501  11.011
37908W        W10168  24.049  12.622   5.124
37909W        W10169  17.232  33.541   0.280
37910W        W10170  44.927  10.276  10.600
37911W        W10171   8.717   3.798  11.082
37912W        W10172  15.777  31.529  13.808
37913W        W10173  17.290  14.768  14.842
37914W        W10174  40.343  34.952   4.721
37915W        W10175  14.764   3.857  10.929
37916W        W10176  21.247  40.350   0.889
37917W        W10177  15.702   7.396   4.727
37918W        W10178   0.363  17.694   4.794
37919W        W10179  23.045  21.253  10.092
37920W        W10180  22.095  13.832   4.670
37921W        W10181  24.481  44.962   3.702
37922W        W10182   9.871   0.871   4.622
37923W        W10183  26.570  18.207   1.913
37924W        W10184  15.697   5.286  13.462
37925W        W10185  16.737  15.790   4.120
37926W        W10186  43.889  40.315   3.867
37927W        W10187   7.329  33.018  10.891
37928W        W10188  21.567   3.260   1.279
37929W        W10189  28.493  16.278  14.982
37930W        W10190  17.111  18.274  13.029
37931W        W10191   8.331   2.966  11.981
37932W        W10192  21.735  22.556   4.206
37933W        W10193  33.458  33.556   2.246
37934W        W10194  33.976  10.243   4.694
37935W        W10195  34.891  44.489  10.568
37936W        W10196   2.941  27.493  13.432
37937W        W10197  26.122   2.372  11.939
37938W        W10198  13.216  12.676   1.271
37939W        W10199   2.268  12.649  10.433
37940W        W10200  44.906  27.132  14.314
37941W        W10201  33.525  24.541   3.721
37942W        W10202   0.854  11.258  14.282
37943W        W10203  27.063  11.788   0.372
37944W        W10204  30.085  26.131  13.522
37945W        W10205  12.845   1.425  11.398
37946W        W10206  19.056   9.337  10.611
37947W        W10207   8.267  29.607   0.252
37948W        W10208  12.625  12.706  14.316
37949W        W10209  34.010   6.786  14.024
37950W        W10210   9.203  19.669   5.314
37951W        W10211   9.158  30.962  10.991
37952W        W10212   2.258  15.703  14.896
37953W        W10213  34.587  30.984  13.009
37954W        W10214   1.869  38.381  12.392
37955W        W10215  24.555  29.517  11.077
37956W        W10216  22.682  36.550   4.216
37957W        W10217   4.442  28.600  12.365
37958W        W10218  18.089  28.498  10.995
37959W        W10219  19.159   8.696  13.947
37960W        W10220   7.240  21.101   1.213
37961W        W10221  15.271  13.805   9.574
37962W        W10222  17.653  36.027  12.990
37963W        W10223  34.375  20.593   4.749
37964W        W10224  35.001  31.531  13.013
37965W        W10225  26.539  19.674   4.745
37966W        W10226  41.530  42.403  11.928
37967W        W10227  37.370  42.019   3.250
37968W        W10228  14.132  37.937   2.181
37969W        W10229  38.551  25.598   2.218
37970W        W10230   0.469   4.828  14.469
37971W        W10231  24.540  24.981   2.310
37972W        W10232   7.178   0.361   0.451
37973W        W10233  11.219  32.048   0.443
37974W        W10234  27.069  22.519  13.426
37975W        W10235  23.647  28.091   4.696
37976W        W10236  26.051  41.908  11.947
37977W        W10237  15.656  14.828   0.821
37978W        W10238   5.357   7.871  13.927
37979W        W10239  41.890  14.291   1.791
37980W        W10240  14.675  14.683  12.501
37981W        W10241   8.853  39.024  12.452
37982W        W10242  41.936   3.895   0.313
37983W        W10243  12.246  41.025   0.317
37984W        W10244  32.892   4.945   2.354
37985W        W10245  27.950  17.261   1.265
37986W        W10246  37.582  24.658  12.423
37987W        W10247  39.400  18.145  10.907
37988W        W10248   6.719  36.038   0.798
37989W        W10249  18.683  30.116  11.084
37990W        W10250   6.872  43.004  14.806
37991W        W10251  23.060  44.952  11.382
37992W        W10252  43.963  37.550  11.867
37993W        W10253   7.694  35.466   1.820
37994W        W10254  27.692   2.834  14.941
37995W        W10255  44.365  41.297  12.408
37996W        W10256  40.453  13.251   2.250
37997W        W10257  20.091   2.940  14.424
37998W        W10258  11.229  11.789   2.671
37999W        W10259   2.761  27.492  13.034
38000W        W10260   3.892  11.755  12.468
38001W        W10261  43.430   7.377   3.733
38002W        W10262  10.753   1.731  13.464
38003W        W10263  37.542  34.956  13.402
38004W        W10264  32.538   2.816   4.642
38005W        W10265  24.504  29.988  14.396
38006W        W10266  37.565  30.977   3.698
38007W        W10267  15.813  27.089   5.200
38008W        W10268  41.516  18.093  12.925
38009W        W10269   7.741  29.119   4.253
38010W        W10270  32.546  36.383   2.801
38011W        W10271  41.321  15.673  10.559
38012W        W10272  35.976   4.840  10.644
38013W        W10273  21.225  20.606   1.831
38014W        W10274  41.813  19.143  10.514
38015W        W10275  10.185  20.550  14.299
38016W        W10276   0.285   7.911   3.795
38017W        W10277   7.801  41.957   3.244
38018W        W10278  26.038  19.176  11.989
38019W        W10279  43.403  29.133  12.823
38020W        W10280  10.214   1.302   4.172
38021W        W10281  18.759  37.441   3.324
38022W        W10282  24.024  27.149  12.399
38023W        W10283  12.740  24.487  11.100
38024W        W10284  39.963   2.464  12.490
38025W        W10285   5.856  32.066   0.384
38026W        W10286  26.143  19.109  14.795
38027W        W10287  28.978   2.410   1.742
38028W        W10288   8.675  40.983  11.862
38029W        W10289  16.707   3.286   5.110
38030W        W10290  17.303  20.149  14.822
38031W        W10291  39.960  44.405   0.402
38032W        W10292  18.276  20.578   2.216
38033W        W10293  23.710  27.577  14.510
38034W        W10294  34.102  21.627   2.380
38035W        W10295  21.102  36.089   4.351
38036W        W10296  16.293  16.636  13.379
38037W        W10297  18.676  22.099  14.899
38038W        W10298  29.654  31.916   5.263
38039W        W10299   9.256  32.969  12.552
38040W        W10300   9.715  17.560  12.373
38041W        W10301  30.159  36.999   3.318
38042W        W10302   7.815  15.726  10.522
38043W        W10303  42.876  36.455  11.428
38044W        W10304  32.891  36.548   1.442
38045W        W10305  31.581  23.535   0.853
38046W        W10306  32.574  23.214  10.512
38047W        W10307  25.043  17.680  14.305
38048W        W10308  36.098  36.908  12.889
38049W        W10309  20.035  25.160  10.043
38050W        W10310   8.792  33.456  11.934
38051W        W10311  14.258  39.056  12.531
38052W        W10312  17.190   2.728   4.136
38053W        W10313  27.063  10.210   2.799
38054W        W10314  20.270   7.300   0.333
38055W        W10315  34.377   4.403   2.338
38056W        W10316  39.505  12.307   4.346
38057W        W10317  39.904  20.131  11.541
38058W        W10318  38.337  29.561   0.924
38059W        W10319  17.226   1.818   4.811
38060W        W10320  31.439  44.362  11.034
38061W        W10321   4.876  14.668  13.812
38062W        W10322  19.140   9.221  12.066
38063W        W10323  21.127  32.991   5.239
38064W        W10324  35.984  24.055  10.898
38065W        W10325  12.797  43.771  10.524
38066W        W10326  32.013  41.455  14.435
38067W        W10327  34.493   3.858   2.371
38068W        W10328  28.453  36.513   1.790
38069W        W10329   4.358  41.920   1.780
38070W        W10330   7.417  14.637  12.560
38071W        W10331  41.902  42.805   4.344
38072W        W10332  22.144  13.270   4.829
38073W        W10333  18.745  39.827  13.431
38074W        W10334  35.537   8.706  14.409
38075W        W10335  26.493   6.713   0.244
38076W        W10336  38.553   8.708  12.977
38077W        W10337  24.511  39.382  11.526
38078W        W10338   2.830   6.333   4.225
38079W        W10339  35.926  29.119   2.351
38080W        W10340  40.026  29.465  12.867
38081W        W10341  24.220  20.152   2.195
38082W        W10342  21.725  20.116   3.358
38083W        W10343  37.408  27.621  14.281
38084W        W10344  15.640  17.185   4.160
38085W        W10345  28.494  13.630   4.741
38086W        W10346  10.749  28.638   1.715
38087W        W10347  22.672  26.037   2.199
38088W        W10348  34.897   3.275  11.010
38089W        W10349  22.036  24.606   0.462
38090W        W10350   3.869  44.945  13.797
38091W        W10351   1.925   2.744  11.088
38092W        W10352  26.660  39.485   1.861
38093W        W10353  26.990  26.114   3.202
38094W        W10354   2.749  26.980  12.513
38095W        W10355  32.095  36.529  13.990
38096W        W10356  27.490  31.623   2.675
38097W        W10357   7.786  19.054  11.021
38098W        W10358   9.313  36.910   3.226
38099W        W10359  43.500  15.300  14.766
38100W        W10360  26.052   6.308  10.511
38101W        W10361   0.981  10.166   1.827
38102W        W10362   8.699  41.872  13.480
38103W        W10363  11.643  30.540  12.833
38104W        W10364  22.087  44.320  13.539
38105W        W10365  15.581  33.052   2.287
38106W        W10366  32.435   6.333   0.282
38107W        W10367  22.217  23.231  10.478
38108W        W10368  27.192   8.188  14.297
38109W        W10369  35.495  13.815   1.322
38110W        W10370  26.047   6.396   1.933
38111W        W10371  34.587  44.294  12.875
38112W        W10372  17.787  21.164   2.836
38113W        W10373  14.660  35.937   3.325
38114W        W10374  21.063  29.136   1.756
38115W        W10375  13.757  23.093   2.306
38116W        W10376  40.343  22.698   4.259
38117W        W10377  24.526  27.958  14.406
38118W        W10378  30.637  31.983   4.758
38119W        W10379   3.250  11.345  13.386
38120W        W10380  21.206  25.172  11.975
38121W        W10381  23.140  43.018  14.856
38122W        W10382  35.011   2.392   1.217
38123W        W10383  12.170  40.833   2.395
38124W        W10384  16.572  29.476  10.541
38125W        W10385   1.801  33.386  11.591
38126W        W10386  31.433   0.965   1.804
38127W        W10387   4.312  26.147   5.237
38128W        W10388   3.234  23.570  12.826
38129W        W10389  34.469  23.733   3.180
38130W        W10390   1.934  39.357  14.851
38131W        W10391  37.892  11.138   2.413
38132W        W10392   8.865  18.643   4.331
38133W        W10393  38.426   9.301   4.224
38134W        W10394  39.860  26.692   4.173
38135W        W10395  34.968  38.840   2.716
38136W        W10396  21.180  17.653  14.410
38137W        W10397  11.215  16.723  12.564
38138W        W10398   5.721   4.780  13.863
38139W        W10399  23.626  16.180  14.908
38140W        W10400  15.220  30.037   1.819
38141W        W10401  28.450   2.729   3.870
38142W        W10402  33.597  37.526   0.838
38143W        W10403  29.454  21.214  12.437
38144W        W10404   0.449  18.601  13.476
38145W        W10405   9.175  18.214  14.349
38146W        W10406  37.559  36.364   0.956
38147W        W10407  40.001  40.354  14.843
38148W        W10408   8.190  33.410   2.718
38149W        W10409  22.249  14.622  11.399
38150W        W10410   5.721   6.228   0.881
38151W        W10411  35.416  24.676  13.471
38152W        W10412  21.088   1.896  12.367
38153W        W10413  31.088  25.201   0.266
38154W        W10414  22.570  36.949  13.831
38155W        W10415  41.916  10.182  11.123
38156W        W10416   2.868   1.878   3.160
38157W        W10417   9.378   0.769   1.219
38158W        W10418  26.151  32.404   4.153
38159W        W10419  27.090  24.213   3.821
38160W        W10420   9.669  42.968  14.935
38161W        W10421  16.117   9.313   2.882
38162W        W10422  13.822  26.161  10.441
38163W        W10423  38.458  40.477   4.838
38164W        W10424  18.072  11.623   0.361
38165W        W10425  23.131  37.555  12.521
38166W        W10426  38.898  31.926  14.847
38167W        W10427  11.720  31.613  12.043
38168W        W10428  20.639  31.946   0.903
38169W        W10429  40.361   6.276   2.880
38170W        W10430  39.900  24.078  11.456
38171W        W10431   8.862  33.464  11.061
38172W        W10432  42.832  40.522  10.456
38173W        W10433  36.475  14.153  10.404
38174W        W10434  20.090  14.673  13.931
38175W        W10435  30.602   5.900  12.540
38176W        W10436  10.151  24.539   1.279
38177W        W10437   9.708   3.727  12.543
38178W        W10438  29.446  10.720  14.837
38179W        W10439  41.896  19.595  11.960
38180W        W10440  28.169  26.021   3.240
38181W        W10441   9.267  32.086   0.845
38182W        W10442  30.112  16.646   3.835
38183W        W10443  22.662  18.642   0.380
38184W        W10444  20.193  30.112  13.819
38185W        W10445  36.881   4.934  12.545
38186W        W10446   7.854  23.705   9.954
38187W        W10447  30.151  28.566  14.434
38188W        W10448  31.565  27.107  14.941
38189W        W10449  24.088   1.732   2.327
38190W        W10450  44.957  22.616  14.874
38191W        W10451  11.689  25.626   2.217
38192W        W10452  33.076   9.303   2.265
38193W        W10453  26.476  22.585   0.350
38194W        W10454  17.187  12.833   3.239
38195W        W10455  21.662  13.633   3.256
38196W        W10456   6.856   7.242   3.751
38197W        W10457  19.695  23.219  13.949
38198W        W10458   4.790  20.576   4.684
38199W        W10459  17.143  15.164   0.367
38200W        W10460  34.566  12.731  10.518
38201W        W10461  39.470  11.176   2.901
38202W        W10462   4.884  41.371   2.815
38203W        W10463  21.102  15.232  12.952
38204W        W10464   3.806  26.985   2.231
38205W        W10465  27.963  19.675  13.530
38206W        W10466  18.282  13.726  13.895
38207W        W10467   9.845   7.296  12.953
38208W        W10468  43.791  22.165  12.080
38209W        W10469  18.616  21.524   4.785
38210W        W10470  44.483  34.079  13.517
38211W        W10471  24.602  14.134   3.242
38212W        W10472  42.939  41.794   4.216
38213W        W10473  39.362  23.089   3.736
38214W        W10474  43.316  19.585   0.470
38215W        W10475  44.921  20.119   1.372
38216W        W10476  42.316  35.096  13.904
38217W        W10477  28.560  18.112  12.993
38218W        W10478  24.049  30.453   0.336
38219W        W10479  38.023  10.192   5.666
38220W        W10480  24.661  33.045   4.267
38221W        W10481   8.332   6.854  11.981
38222W        W10482   8.357  14.618   3.170
38223W        W10483  40.015  27.073   3.335
38224W        W10484  16.145  33.599   4.179
38225W        W10485  24.222  26.649   4.208
38226W        W10486  24.094  16.600  10.984
38227W        W10487  41.919  16.120   4.177
38228W        W10488   2.354  39.002   0.352
38229W        W10489  30.482  44.476  13.940
38230W        W10490  16.078  40.816   3.791
38231W        W10491  24.617  11.784  12.380
38232W        W10492  43.354  42.381   1.761
38233W        W10493  40.891  21.515   0.948
38234W        W10494  11.650  25.984  12.572
38235W        W10495  20.634   5.794   1.219
38236W        W10496  17.220  25.670  11.398
38237W        W10497  42.017  19.168  14.510
38238W        W10498  38.458  25.529   1.428
38239W        W10499  10.700  28.508   0.404
38240W        W10500  14.193  36.023  12.534
38241W        W10501   8.290   3.915  12.863
38242W        W10502  20.135  36.956   1.374
38243W        W10503  16.172  18.645  11.493
38244W        W10504  34.408   7.394   0.378
38245W        W10505  12.644  34.508   1.927
38246W        W10506  43.766  10.168  14.278
38247W        W10507  31.583  19.083  14.789
38248W        W10508  36.521   0.847  14.321
38249W        W10509  43.339  31.081  12.508
38250W        W10510  16.086   2.294   3.802
38251W        W10511  26.532  19.085   2.238
38252W        W10512  12.250   9.749  13.910
38253W        W10513  35.884   4.350   2.329
38254W        W10514  27.634  24.187  11.439
38255W        W10515  22.146  31.461  13.491
38256W        W10516  38.406  27.554  14.333
38257W        W10517  42.024  13.218  12.458
38258W        W10518   5.321  16.237  14.962
38259W        W10519   5.848  24.614  14.414
38260W        W10520  20.622   3.427  11.560
38261W        W10521  39.410  29.960  11.070
38262W        W10522  13.221  35.978  10.561
38263W        W10523  39.956   2.384   4.709
38264W        W10524  27.972  35.396   1.893
38265W        W10525  13.683  33.902   4.258
38266W        W10526  16.295   7.863   2.291
38267W        W10527  44.778  13.675   3.854
38268W        W10528  28.109  19.119  14.005
38269W        W10529  43.951   5.413   4.149
38270W        W10530  25.623   2.957   1.437
38271W        W10531  22.654  34.866  11.883
38272W        W10532  15.704  13.324   3.854
38273W        W10533  44.839  42.333   0.341
38274W        W10534  29.095   2.832  12.379
38275W        W10535  30.107   5.249   1.431
38276W        W10536  23.530   1.238   4.626
38277W        W10537  22.663  41.538   2.799
38278W        W10538  44.280   3.420   3.355
38279W        W10539  42.512  21.584  12.446
38280W        W10540  34.599  14.835   3.272
38281W        W10541  23.550  22.059  14.885
38282W        W10542   2.449  24.998   4.350
38283W        W10543   0.890  23.547  12.092
38284W        W10544  15.202  37.581   4.664
38285W        W10545  38.513  10.773   5.293
38286W        W10546   6.410  13.841  14.960
38287W        W10547  11.300   9.696  13.791
38288W        W10548   0.758   0.932  13.425
38289W        W10549  18.185  34.466   1.293
38290W        W10550  30.517  12.655  10.606
38291W        W10551   0.950  44.950   0.881
38292W        W10552   7.186  22.685  12.871
38293W        W10553  32.460  23.621   0.886
38294W        W10554   5.294  36.560   0.265
38295W        W10555  27.166  38.551   0.813
38296W        W10556  27.054  40.980   1.438
38297W        W10557  13.791  35.465  10.538
38298W        W10558   0.888  18.733   3.288
38299W        W10559  38.870  39.874   0.962
38300W        W10560  31.482  34.431   0.905
38301W        W10561  36.062  21.706  11.433
38302W        W10562  12.799  12.209  14.314
38303W        W10563  26.671   0.948  11.375
38304W        W10564  24.992   1.343  11.513
38305W        W10565   4.813   8.311  14.351
38306W        W10566  20.737  15.228   4.750
38307W        W10567   3.440  24.163  14.304
38308W        W10568  14.606  27.120   4.160
38309W        W10569  10.671  24.129  14.276
38310W        W10570   0.898  32.421  12.044
38311W        W10571   6.344  19.620   3.179
38312W        W10572  17.784  27.986   4.124
38313W        W10573   5.390   6.342   3.230
38314W        W10574  17.572  22.540  14.397
38315W        W10575  22.201  25.160   2.725
38316W        W10576  44.362  37.903   0.881
38317W        W10577  23.143  24.493  14.476
38318W        W10578  32.056   2.418   2.894
38319W        W10579  40.380  37.075  14.944
38320W        W10580   0.839  14.180   9.953
38321W        W10581  18.780   6.197   4.293
38322W        W10582  25.008  20.202   3.336
38323W        W10583  16.740  35.359   3.859
38324W        W10584   2.795  19.279   2.781
38325W        W10585   5.207  30.415  13.483
38326W        W10586  13.684  11.726  12.444
38327W        W10587  14.190  35.373   3.850
38328W        W10588   2.781  10.782   2.678
38329W        W10589   5.291  21.512   3.817
38330W        W10590  39.958  12.645   3.357
38331W        W10591  35.928  24.214   3.385
38332W        W10592  12.289  12.689  14.280
38333W        W10593  10.837  40.337  14.997
38334W        W10594   5.699  20.229  10.936
38335W        W10595  39.893  31.125  14.339
38336W        W10596  25.204  17.728   3.653
38337W        W10597  37.966   4.343   4.807
38338W        W10598  18.609   5.413  14.813
38339W        W10599   2.305  12.130  14.486
38340W        W10600  39.337  34.093   3.755
38341W        W10601  16.782  25.506  10.533
38342W        W10602  11.816  44.359   2.186
38343W        W10603  15.136   2.293   1.854
38344W        W10604  20.193   3.428   3.694
38345W        W10605  19.169   6.394   3.333
38346W        W10606  41.938  33.001  13.427
38347W        W10607  12.624  36.450   2.709
38348W        W10608  36.019   9.365  14.862
38349W        W10609  24.147  21.679   4.137
38350W        W10610  24.150  38.526  13.814
38351W        W10611  17.283   2.878  11.859
38352W        W10612  19.261  29.540  12.574
38353W        W10613  31.425  24.094   1.293
38354W        W10614  12.317  21.227  11.881
38355W        W10615  44.849  35.565   0.376
38356W        W10616  17.269  25.049   4.710
38357W        W10617   9.200   7.869  14.295
38358W        W10618  15.633  22.200  13.794
38359W        W10619  32.118  44.010  14.312
38360W        W10620  39.822  39.013   1.899
38361W        W10621   2.280   4.748   3.827
38362W        W10622  23.690  32.542   3.659
38363W        W10623  17.756  30.436   0.801
38364W        W10624  43.318  38.072   1.735
38365W        W10625   1.826   6.287  10.484
38366W        W10626  16.082  41.974   2.902
38367W        W10627  20.571  13.248   0.892
38368W        W10628   3.862  15.767  11.532
38369W        W10629  16.295  33.431  13.063
38370W        W10630  28.149  33.623  14.939
38371W        W10631  37.988  35.910   2.258
38372W        W10632   4.307  26.700   5.182
38373W        W10633  10.217  24.560   4.608
38374W        W10634   5.898  41.843  14.326
38375W        W10635  36.052  37.576  14.370
38376W        W10636  39.464  28.037  11.856
38377W        W10637  31.107   3.835  10.928
38378W        W10638  16.313  42.308   1.406
38379W        W10639   8.295  36.954   4.689
38380W        W10640  19.778  37.386   0.821
38381W        W10641   1.953  40.901   4.633
38382W        W10642   7.829  18.637  12.484
38383W        W10643  28.011  27.163   2.222
38384W        W10644  20.160  43.790   4.321
38385W        W10645   8.204  32.055  13.318
38386W        W10646  21.101  44.311   1.257
38387W        W10647   4.288  35.418  10.426
38388W        W10648   8.285   3.915   1.873
38389W        W10649  26.967  41.399  10.423
38390W        W10650  13.720  35.894   2.276
38391W        W10651  28.970  15.790   4.325
38392W        W10652  42.417  21.690   0.899
38393W        W10653  24.136  33.011   4.787
38394W        W10654  28.514  24.649  10.550
38395W        W10655  38.332  22.522  13.333
38396W        W10656  31.121   1.256   4.604
38397W        W10657  26.106  20.263  14.860
38398W        W10658  13.260  26.189  11.977
38399W        W10659  25.964   2.286   4.814
38400W        W10660   6.742  31.463   1.230
38401W        W10661  34.914  19.768   4.330
38402W        W10662   5.839  33.015   3.715
38403W        W10663   1.909   4.433   0.467
38404W        W10664  31.896  32.142   4.619
38405W        W10665  17.783   9.651   3.671
38406W        W10666  29.051  10.640   3.708
38407W        W10667   6.196  36.420  11.097
38408W        W10668  40.398  40.953  13.000
38409W        W10669   2.464  17.217   0.245
38410W        W10670  44.275  31.421   3.317
38411W        W10671  21.594  14.132  13.827
38412W        W10672  25.688  29.924  14.362
38413W        W10673  17.620  30.519  10.451
38414W        W10674  22.617  36.521   0.245
38415W        W10675  33.039  25.704   3.692
38416W        W10676  33.492  41.455  13.318
38417W        W10677   0.889  41.487  11.057
38418W        W10678  28.527  30.542  11.932
38419W        W10679  42.302   6.709  13.527
38420W        W10680  37.452   1.965  10.989
38421W        W10681  26.681  13.663  11.925
38422W        W10682   8.369  38.416   1.907
38423W        W10683  39.051  15.793  12.841
38424W        W10684  26.579  38.464  10.967
38425W        W10685   6.376  27.648  14.880
38426W        W10686   2.890  31.558  10.914
38427W        W10687  30.620  30.923   2.367
38428W        W10688  31.019  12.122  13.537
38429W        W10689  23.512  36.883   3.319
38430W        W10690  21.563   1.766   2.366
38431W        W10691  21.209  22.116   3.342
38432W        W10692  11.649  40.515   3.304
38433W        W10693  14.320  27.517   2.234
38434W        W10694  13.808  25.185  11.992
38435W        W10695  33.461  18.569   0.814
38436W        W10696  13.306  37.516   1.361
38437W        W10697   2.249  44.857  12.429
38438W        W10698  42.994  12.184  12.880
38439W        W10699   0.775  12.706  10.920
38440W        W10700   9.765  27.141   4.317
38441W        W10701  14.312  25.704   5.245
38442W        W10702  20.160   7.729   1.919
38443W        W10703  28.090  26.980  10.518
38444W        W10704  10.281  20.051   0.761
38445W        W10705  44.949  43.508   2.894
38446W        W10706  43.951  21.168  12.967
38447W        W10707  28.970  44.804   3.684
38448W        W10708   5.792   0.798  10.422
38449W        W10709  26.000  31.551   3.806
38450W        W10710  28.479  13.185   2.390
38451W        W10711  35.386  39.942   1.398
38452W        W10712  21.074  19.184  14.785
38453W        W10713  36.368  23.513  11.404
38454W        W10714  32.118  41.465   1.381
38455W        W10715  43.480   6.424  13.990
38456W        W10716  25.528  43.347   0.286
38457W        W10717  15.246   0.936  13.861
38458W        W10718  22.568  14.184  12.472
38459W        W10719  30.086  23.216  10.433
38460W        W10720  37.433  12.299   1.292
38461W        W10721  17.556  10.384  10.945
38462W        W10722  12.326  24.506  14.413
38463W        W10723   2.377  34.107  14.855
38464W        W10724  22.016  40.430   0.268
38465W        W10725   8.754   2.266   1.907
38466W        W10726  18.270  24.146  12.974
38467W        W10727   3.740  19.210   1.262
38468W        W10728   3.448  12.634   4.719
38469W        W10729  39.832  35.868   2.306
38470W        W10730   4.324  43.951   0.422
38471W        W10731  40.842   6.729   2.370
38472W        W10732  24.138  21.653  11.525
38473W        W10733  28.504   4.413  13.478
38474W        W10734  12.695  20.679   3.827
38475W        W10735  27.651   5.820   2.411
38476W        W10736  29.474  42.908   3.857
38477W        W10737  12.352   3.385  10.592
38478W        W10738   8.378  16.190   4.341
38479W        W10739  14.791  44.881  14.362
38480W        W10740   0.266  35.047   1.303
38481W        W10741  17.800  42.896   3.198
38482W        W10742  33.893   8.878   0.385
38483W        W10743   8.780  42.373   3.845
38484W        W10744  22.158  31.030   1.298
38485W        W10745  27.995  12.259   0.746
38486W        W10746  11.138  18.679   1.865
38487W        W10747  11.642  27.068  13.336
38488W        W10748  18.233  40.934   2.200
38489W        W10749  32.566  12.812   0.250
38490W        W10750  40.928  41.037  14.471
38491W        W10751  39.834  27.628  11.971
38492W        W10752  16.711  37.002   1.836
38493W        W10753  29.169  20.049  12.055
38494W        W10754  20.765   2.409  14.450
38495W        W10755  44.308  30.556   2.849
38496W        W10756  17.164   7.311  14.022
38497W        W10757  40.548  27.666  13.001
38498W        W10758  39.556  36.071   1.746
38499W        W10759  21.757  18.645   4.772
38500W        W10760   0.283   8.259   0.349
38501W        W10761  10.826  24.067   0.908
38502W        W10762  39.028   2.417  11.860
38503W        W10763  26.053  43.836  14.822
38504W        W10764  27.112  40.919   2.336
38505W        W10765  39.374   9.868   0.896
38506W        W10766  41.298  31.965   3.805
38507W        W10767  12.321  43.350  14.421
38508W        W10768  24.101  18.139   2.394
38509W        W10769  11.805  10.244   0.438
38510W        W10770   2.239  27.157   4.747
38511W        W10771   5.284  44.919   0.261
38512W        W10772  29.052  36.431  14.302
38513W        W10773  27.576  40.405   0.853
38514W        W10774   4.778  40.822   3.835
38515W        W10775   4.389  14.125   4.726
38516W        W10776  44.910  32.949   4.832
38517W        W10777  28.600  39.959   1.891
38518W        W10778  28.105  28.535   4.150
38519W        W10779  12.719  15.201   2.663
38520W        W10780  26.052  18.233  14.439
38521W        W10781  16.781  36.384   2.834
38522W        W10782   9.813  33.002  11.940
38523W        W10783   2.227  29.618   3.277
38524W        W10784  10.143  21.641  10.643
38525W        W10785  10.704  11.752   1.282
38526W        W10786  27.154  28.499  14.831
38527W        W10787  13.221  29.658   3.833
38528W        W10788   8.812  32.498  12.920
38529W        W10789   0.939  41.901   4.258
38530W        W10790  43.893  14.643   3.693
38531W        W10791   5.408   6.364   2.381
38532W        W10792  37.015  18.058   1.911
38533W        W10793   3.410   2.855  14.513
38534W        W10794   7.348  37.542  14.808
38535W        W10795  26.495  38.971   0.859
38536W        W10796   7.296  44.379   0.869
38537W        W10797  39.354  32.553  12.563
38538W        W10798  38.057   6.212   1.212
38539W        W10799  31.082  11.699  13.534
38540W        W10800   7.911  22.645   2.875
38541W        W10801   2.838  21.024   0.915
38542W        W10802  42.787  44.448  14.002
38543W        W10803   7.829  43.365   1.899
38544W        W10804  26.075  43.955   0.467
38545W        W10805  14.599  28.164   0.898
38546W        W10806   9.326  22.607  12.520
38547W        W10807  15.601  21.534   0.321
38548W        W10808  37.517  10.286  11.505
38549W        W10809  41.828  42.963  12.457
38550W        W10810  28.444   3.749  11.545
38551W        W10811  19.125  21.694  10.906
38552W        W10812  44.259  39.939   2.305
38553W        W10813   9.843  17.608   4.207
38554W        W10814  28.043   1.872   3.694
38555W        W10815  22.587  31.989   4.816
38556W        W10816  14.327  38.564   2.295
38557W        W10817  25.680   7.296   9.954
38558W        W10818   9.817   3.868   0.835
38559W        W10819   3.317  30.569   3.153
38560W        W10820   0.755  29.030   1.712
38561W        W10821  37.909  23.702   1.383
38562W        W10822   9.330  28.454   3.276
38563W        W10823  41.912  44.958  13.484
38564W        W10824  30.966  35.563  10.487
38565W        W10825  43.272  18.074   0.349
38566W        W10826  27.524  28.574   3.316
38567W        W10827  15.629   3.858  12.569
38568W        W10828   6.790  27.486   3.723
38569W        W10829  29.551  14.649  10.584
38570W        W10830  15.111   1.745   1.318
38571W        W10831  34.022   7.889   0.387
38572W        W10832   1.755   1.433  14.909
38573W        W10833   5.311  35.378   4.735
38574W        W10834  43.970  30.913  12.417
38575W        W10835  14.811  14.276   3.710
38576W        W10836   1.806  26.021  12.531
38577W        W10837  44.389  22.025  14.922
38578W        W10838  17.741  43.328  13.907
38579W        W10839   1.813  24.226  14.419
38580W        W10840  40.451  44.501   0.904
38581W        W10841  42.863   8.836   4.137
38582W        W10842  32.933  20.623   3.684
38583W        W10843  27.457  44.297   3.173
38584W        W10844  25.211   4.229  13.026
38585W        W10845  39.850  40.845  11.026
38586W        W10846   4.810  22.230   4.342
38587W        W10847   1.359  29.969  13.052
38588W        W10848  42.397  35.032   3.651
38589W        W10849  16.238  16.638  14.406
38590W        W10850  17.648  11.781  14.800
38591W        W10851   7.884  23.589   4.282
38592W        W10852  16.746  33.116   4.209
38593W        W10853   4.901  28.015  11.887
38594W        W10854  29.570  23.695   3.261
38595W        W10855  40.452  13.259   4.684
38596W        W10856  40.363  42.804   1.437
38597W        W10857  29.588  25.077   4.743
38598W        W10858  36.347  11.210   3.768
38599W        W10859   7.344  14.801   2.804
38600W        W10860   9.252  31.570   2.405
38601W        W10861   7.686   5.880   4.212
38602W        W10862   5.713  28.084  12.499
38603W        W10863  32.964  40.919  10.967
38604W        W10864  36.928  30.521  12.015
38605W        W10865  24.139   2.911  11.936
38606W        W10866   4.883   5.324   0.729
38607W        W10867  18.055  41.331   1.879
38608W        W10868  31.022  24.216  13.828
38609W        W10869  18.296   7.810   2.682
38610W        W10870   1.741  15.752   3.682
38611W        W10871  30.657  21.043  14.304
38612W        W10872  32.900  44.367   0.434
38613W        W10873  36.036  12.219   4.672
38614W        W10874   3.367  11.306  13.920
38615W        W10875  15.609   4.371  10.922
38616W        W10876  29.172  21.664   2.187
38617W        W10877   9.788   5.286   1.386
38618W        W10878   1.753  19.535  12.049
38619W        W10879  39.814  24.060   4.317
38620W        W10880  28.996  20.685   1.425
38621W        W10881  25.109   7.293  13.510
38622W        W10882  39.449  36.518  11.106
38623W        W10883  15.754  37.382   4.631
38624W        W10884  23.550   6.836  14.471
38625W        W10885   7.682   9.259   3.312
38626W        W10886  13.166   4.405  11.980
38627W        W10887  44.764  24.545  10.998
38628W        W10888  44.880   8.673   3.355
38629W        W10889  19.232  27.664  13.462
38630W        W10890  14.231  14.163   0.360
38631W        W10891  43.984   0.381   1.362
38632W        W10892  17.141  43.946  12.862
38633W        W10893  29.978  14.768   4.327
38634W        W10894  39.471  17.715   0.875
38635W        W10895  33.483  30.030   0.786
38636W        W10896  31.514  29.039   4.140
38637W        W10897  25.108   3.259  12.468
38638W        W10898  18.280  42.956  12.032
38639W        W10899   4.345  34.498   4.759
38640W        W10900  34.416  15.209   1.255
38641W        W10901  16.289  21.563   2.330
38642W        W10902  28.979   2.741  14.345
38643W        W10903  43.473  10.797   0.877
38644W        W10904  27.139  41.457  13.827
38645W        W10905  37.346  33.574  14.317
38646W        W10906   9.228   7.715  13.359
38647W        W10907   1.948  14.324   3.252
38648W        W10908  28.610  42.776   1.242
38649W        W10909   5.789  36.479  13.936
38650W        W10910   4.376  36.419  10.624
38651W        W10911  19.587  34.397  12.547
38652W        W10912  36.852  32.056  14.945
38653W        W10913  11.331  43.766  13.483
38654W        W10914  17.130   7.399  11.568
38655W        W10915   8.382   8.729  12.852
38656W        W10916  11.196  17.181  13.427
38657W        W10917  26.558  21.248   4.804
38658W        W10918   6.264   2.279   3.689
38659W        W10919  44.898  43.343  11.104
38660W        W10920   1.903  40.508   3.301
38661W        W10921  19.122   1.934   1.852
38662W        W10922  20.237   2.337   3.666
38663W        W10923  31.553  43.936   4.281
38664W        W10924  31.927  12.736   0.768
38665W        W10925  12.322  38.891   0.809
38666W        W10926  34.883   9.744  12.517
38667W        W10927  29.621  16.290   0.966
38668W        W10928  23.640  32.629   4.304
38669W        W10929  21.536  23.081   4.810
38670W        W10930  30.108  32.020   3.347
38671W        W10931  21.757  28.116   2.193
38672W        W10932  11.224  31.151  14.418
38673W        W10933  22.013  17.075  14.980
38674W        W10934  29.539  26.192   0.754
38675W        W10935  22.638  43.302   4.255
38676W        W10936  19.671  12.304  10.987
38677W        W10937  11.274  44.938  13.050
38678W        W10938  44.905  25.028   2.413
38679W        W10939  44.934  22.656   0.793
38680W        W10940  21.066   7.748   0.330
38681W        W10941  44.927  22.161   3.649
38682W        W10942  33.615  11.363   4.649
38683W        W10943  35.026  19.205   3.852
38684W        W10944   2.804  43.415   1.697
38685W        W10945   5.266  38.869  10.521
38686W        W10946  28.062   7.771   4.332
38687W        W10947  34.502   3.324   0.784
38688W        W10948  43.975   4.436   2.282
38689W        W10949  26.492  38.068  10.510
38690W        W10950  13.331  33.896   1.230
38691W        W10951  23.150   8.771   1.431
38692W        W10952  43.463  28.096  10.067
38693W        W10953  12.814  43.914   2.345
38694W        W10954  38.038  22.146  11.521
38695W        W10955  20.647   8.211  13.422
38696W        W10956   8.788   0.851  13.429
38697W        W10957   0.254   3.818  14.888
38698W        W10958  19.152  29.169  11.972
38699W        W10959  19.656  33.961   3.670
38700W        W10960  27.982   3.439  13.826
38701W        W10961   7.907  18.754   2.832
38702W        W10962  22.194   0.327  13.460
38703W        W10963   2.838  18.663   2.352
38704W        W10964  20.709  33.942  14.967
38705W        W10965  40.402  22.564  11.858
38706W        W10966  23.709  42.849  13.352
38707W        W10967  15.291   0.292   4.238
38708W        W10968  34.009  42.388  12.393
38709W        W10969  26.105  22.252  14.277
38710W        W10970  23.518  21.681  11.913
38711W        W10971  16.674  21.034  11.932
38712W        W10972  17.199  15.089   0.922
38713W        W10973  32.541   5.743  11.477
38714W        W10974  13.805  22.246   2.691
38715W        W10975  32.936  36.355  13.034
38716W        W10976  23.722  33.877   4.647
38717W        W10977  20.724  15.673  14.310
38718W        W10978  23.690  30.480  11.507
38719W        W10979  20.187   0.306   0.827
38720W        W10980   6.333  32.393   1.281
38721W        W10981  24.539  39.908   2.869
38722W        W10982  25.658  27.518  14.279
38723W        W10983  24.183  33.060  12.093
38724W        W10984  29.590  11.727  11.868
38725W        W10985   3.337  21.160   4.796
38726W        W10986   0.984  17.628  10.966
38727W        W10987  37.418   4.896  11.504
38728W        W10988   7.255  23.203  10.440
38729W        W10989  27.564  14.158   0.755
38730W        W10990  17.237  44.837   0.830
38731W        W10991  20.087  35.060   1.876
38732W        W10992  39.937  18.746   0.293
38733W        W10993  10.239  22.731  12.911
38734W        W10994  20.537  41.416  11.097
38735W        W10995  41.461   3.857   1.343
38736W        W10996  30.016  20.593   0.254
38737W        W10997  33.508   4.432  10.447
38738W        W10998   2.304  36.572  13.328
38739W        W10999   5.786  28.505  13.441
38740W        W11000  27.972  11.767   3.348
38741W        W11001  19.202   5.764   9.973
38742W        W11002   6.918   6.910  10.495
38743W        W11003  32.131  14.802   4.732
38744W        W11004  11.332  36.434   0.438
38745W        W11005   1.836  41.027   0.454
38746W        W11006  22.551  26.497  14.375
38747W        W11007  28.944   2.805   4.642
38748W        W11008   0.896   5.288   4.347
38749W        W11009  31.420  16.137   3.773
38750W        W11010  30.003  29.925   3.268
38751W        W11011  12.184  37.938  12.994
38752W        W11012  44.489  26.511  10.156
38753W        W11013  43.789  12.182   1.801
38754W        W11014  44.878  37.064   3.211
38755W        W11015   4.260   6.688   2.188
38756W        W11016  12.667   7.887   0.905
38757W        W11017  23.502  27.449   3.279
38758W        W11018   1.259  25.013  13.491
38759W        W11019  36.037  16.188   3.666
38760W        W11020  15.710  38.886  12.975
38761W        W11021   9.283  18.558   0.255
38762W        W11022   1.915  21.707  12.824
38763W        W11023  22.052  23.723  12.445
38764W        W11024  41.393   9.850  14.306
38765W        W11025   1.798  13.106   4.223
38766W        W11026  25.577  28.537   2.312
38767W        W11027   7.853  11.786   1.805
38768W        W11028  35.461   9.160  10.931
38769W        W11029   7.278  31.545  12.999
38770W        W11030  22.679  14.601   3.781
38771W        W11031  22.564  28.051  12.858
38772W        W11032   5.755  39.896   4.656
38773W        W11033   7.300  23.057   2.843
38774W        W11034  37.021   0.861  11.923
38775W        W11035  14.306  12.195   3.800
38776W        W11036   0.303  42.379   2.323
38777W        W11037  22.201  23.668   4.336
38778W        W11038  13.752  10.265   3.165
38779W        W11039  23.680  12.276  10.635
38780W        W11040  35.935  27.072  12.392
38781W        W11041  38.429  34.879  13.453
38782W        W11042  28.185  13.691   3.799
38783W        W11043  23.598   3.304  11.882
38784W        W11044  33.060   1.324  12.941
38785W        W11045  36.921  28.034   3.649
38786W        W11046  25.085  41.499   2.882
38787W        W11047   2.890  25.156  11.073
38788W        W11048  21.107  12.709   3.683
38789W        W11049  32.567  15.135  10.435
38790W        W11050  21.200  19.098  14.396
38791W        W11051  37.544  17.646  12.836
38792W        W11052  32.398  28.629   0.884
38793W        W11053  21.684  31.975  10.910
38794W        W11054  35.436  29.663  10.578
38795W        W11055   0.251   3.300  12.545
38796W        W11056  36.891  21.756  14.017
38797W        W11057  20.198  26.699   4.284
38798W        W11058   9.805  31.477  10.641
38799W        W11059  29.044  32.904   4.193
38800W        W11060  40.387  39.832   2.790
38801W        W11061   1.911  19.178   0.338
38802W        W11062  11.813   1.810   2.232
38803W        W11063  13.131  15.135  14.279
38804W        W11064  31.153   0.886  14.026
38805W        W11065  22.709   7.714  10.510
38806W        W11066  24.507  32.098   2.886
38807W        W11067  44.397  41.355  13.499
38808W        W11068   3.884  21.194  12.006
38809W        W11069  33.054  31.149  10.630
38810W        W11070  43.782  16.196  12.929
38811W        W11071  22.718  26.621   0.288
38812W        W11072  38.041  35.950  12.909
38813W        W11073  36.460  34.966  10.477
38814W        W11074  31.504  20.269  11.889
38815W        W11075  44.306   7.378  13.845
38816W        W11076  22.165  42.786   2.860
38817W        W11077   6.733   0.271  13.426
38818W        W11078  34.107  35.482  14.949
38819W        W11079  36.954  14.163  14.499
38820W        W11080  35.404   8.901  11.396
38821W        W11081   1.448  43.802  13.052
38822W        W11082  18.699  18.061  12.523
38823W        W11083   7.308  15.757  12.862
38824W        W11084  24.008   0.748   0.738
38825W        W11085  31.403  12.235  14.394
38826W        W11086  37.079  33.436   0.379
38827W        W11087   4.913  43.790  13.409
38828W        W11088  37.997  19.229   2.318
38829W        W11089   2.435  31.006   2.199
38830W        W11090   4.351  41.846  13.445
38831W        W11091  30.156  44.920   1.741
38832W        W11092   2.286  25.972  14.360
38833W        W11093  20.213  10.185  12.824
38834W        W11094  10.372   5.330  12.981
38835W        W11095  10.736  32.406   0.256
38836W        W11096  32.964  14.656   0.418
38837W        W11097  20.049  20.208   4.165
38838W        W11098  19.724  41.507   4.124
38839W        W11099   5.351   5.358  12.539
38840W        W11100  13.730   1.962   2.313
38841W        W11101  16.577   4.375   3.213
38842W        W11102   9.242  16.237  12.076
38843W        W11103  20.050  21.672  13.474
38844W        W11104  30.011  26.601   0.289
38845W        W11105  16.275  28.183   1.378
38846W        W11106  14.697   5.731  11.056
38847W        W11107   5.363  13.328  14.416
38848W        W11108  16.615   0.871  10.943
38849W        W11109  24.502  10.662   0.856
38850W        W11110   0.319  30.413   2.869
38851W        W11111  16.593  27.517   4.663
38852W        W11112  44.896  24.152   3.756
38853W        W11113  41.874  36.943   1.266
38854W        W11114  26.065  21.102  11.900
38855W        W11115   0.405  21.521  14.297
38856W        W11116  31.412   6.314   3.714
38857W        W11117  33.953   8.326  10.521
38858W        W11118  26.665   3.775  11.542
38859W        W11119  25.533  37.013   2.392
38860W        W11120  33.599  28.068   1.795
38861W        W11121  37.338   7.246   1.381
38862W        W11122  15.250  44.336   2.348
38863W        W11123  41.441  10.694   4.811
38864W        W11124  37.835  11.691   2.348
38865W        W11125  43.378  34.490  10.978
38866W        W11126  32.084  21.095   4.219
38867W        W11127   1.854  30.459  11.097
38868W        W11128  40.459   7.320  13.949
38869W        W11129   1.480  40.345   1.866
38870W        W11130  24.613  43.493  13.412
38871W        W11131  14.626  25.203  14.969
38872W        W11132  13.323  33.510   0.256
38873W        W11133  33.399  36.526   1.227
38874W        W11134  13.207  20.077   3.329
38875W        W11135   5.236  42.432  14.872
38876W        W11136  38.439  20.273  10.524
38877W        W11137  14.759   9.690  14.984
38878W        W11138  38.834  43.985   1.410
38879W        W11139  13.620  33.404   1.826
38880W        W11140   2.251   7.229  12.063
38881W        W11141  40.520  43.021   3.847
38882W        W11142  26.519  13.699   1.258
38883W        W11143   6.805   5.762   2.838
38884W        W11144   2.263  26.059  13.328
38885W        W11145  24.697  28.632  12.977
38886W        W11146   1.317  33.975   1.915
38887W        W11147  38.826  25.023  10.502
38888W        W11148  36.917  41.421   0.848
38889W        W11149  25.092  14.612  11.903
38890W        W11150   1.778  12.360  10.498
38891W        W11151   1.740  44.001   4.316
38892W        W11152  29.931  25.174   3.169
38893W        W11153  34.544  23.175   0.479
38894W        W11154  24.505  42.844  13.325
38895W        W11155  20.562  13.601  11.038
38896W        W11156   8.745  33.031  12.968
38897W        W11157  27.108   4.856  12.042
38898W        W11158  17.196  42.963   4.260
38899W        W11159   5.814  25.987  12.346
38900W        W11160  18.175  31.929  12.525
38901W        W11161  25.539  39.420   4.692
38902W        W11162  29.049  14.121  14.877
38903W        W11163   4.278  34.868   4.262
38904W        W11164  18.604  25.024  10.910
38905W        W11165  38.042  43.331  12.874
38906W        W11166  38.522  37.439  14.883
38907W        W11167  31.920  15.815  10.636
38908W        W11168  27.690  32.966   4.310
38909W        W11169  19.658  10.354  12.959
38910W        W11170  42.288  29.955   0.871
38911W        W11171  29.607  24.081  12.554
38912W        W11172  16.612   9.749   0.928
38913W        W11173  34.474  26.482  11.906
38914W        W11174  23.663  41.357  14.491
38915W        W11175  27.059   8.753  13.817
38916W        W11176   3.902   6.288   2.214
38917W        W11177  17.110  16.226   4.263
38918W        W11178  10.695  15.707  11.862
38919W        W11179  14.721   2.807   0.393
38920W        W11180   1.421  27.610   0.475
38921W        W11181  35.556  37.479  10.498
38922W        W11182  15.165  31.547  10.464
38923W        W11183   6.320  23.043   3.693
38924W        W11184   7.677   1.426  11.113
38925W        W11185  27.948  34.964  12.369
38926W        W11186  43.863  40.984   1.793
38927W        W11187  13.296  13.147  11.543
38928W        W11188  14.625  39.982   2.413
38929W        W11189  18.192  34.909  12.960
38930W        W11190   0.754   6.194  10.990
38931W        W11191   1.959   8.686   4.285
38932W        W11192   3.324   0.421   3.237
38933W        W11193  17.117  44.441   1.836
38934W        W11194  36.904  30.032   4.304
38935W        W11195  14.742  38.897  12.038
38936W        W11196  29.097  16.569  12.974
38937W        W11197  18.770  39.915   2.891
38938W        W11198  38.531  10.700   1.756
38939W        W11199  13.250   2.848   4.132
38940W        W11200  25.189   5.427   3.683
38941W        W11201  14.705  28.081   5.274
38942W        W11202  20.037   0.353  11.103
38943W        W11203  16.711  28.976  14.355
38944W        W11204   0.371  33.513   1.326
38945W        W11205  32.017  14.248   2.683
38946W        W11206  39.926  12.122   4.757
38947W        W11207  21.565   0.390   2.244
38948W        W11208  23.237  11.828   0.731
38949W        W11209   2.262   4.900  13.321
38950W        W11210  12.819  34.407  13.516
38951W        W11211  43.327  31.103  13.904
38952W        W11212  11.824  16.685   2.847
38953W        W11213  13.180   8.248   1.447
38954W        W11214   6.361  44.762   4.750
38955W        W11215  26.056  11.621   2.283
38956W        W11216  36.983  20.219  13.910
38957W        W11217   1.421  24.611   0.906
38958W        W11218  15.145  18.120   1.927
38959W        W11219   2.302   7.672   2.339
38960W        W11220   0.392   6.907  11.463
38961W        W11221  20.725  42.775   0.842
38962W        W11222  43.841  22.524   3.826
38963W        W11223  40.427  23.591   3.696
38964W        W11224   6.919   3.396   1.915
38965W        W11225  44.366  35.048  13.348
38966W        W11226  30.005  42.995   1.381
38967W        W11227   6.292   3.737   2.283
38968W        W11228   0.863  40.371  12.045
38969W        W11229  33.476   6.789   3.299
38970W        W11230  37.499  19.101   3.806
38971W        W11231  37.984  11.193  11.407
38972W        W11232  39.380  22.015   1.784
38973W        W11233   0.776   6.207  14.465
38974W        W11234  40.363  25.990   3.331
38975W        W11235  36.993  10.851   3.772
38976W        W11236  44.765  18.078   2.370
38977W        W11237  22.541   5.866  12.883
38978W        W11238   9.744  13.111  10.990
38979W        W11239  40.840   0.975  10.572
38980W        W11240  20.547  29.094  14.509
38981W        W11241  26.050   3.443   3.170
38982W        W11242  35.954  33.058  11.474
38983W        W11243   8.779   3.350  13.962
38984W        W11244  33.472   8.339   2.362
38985W        W11245  40.008  37.373   4.752
38986W        W11246  36.370  36.376  11.995
38987W        W11247   0.887  15.712   1.234
38988W        W11248  27.101  34.513   4.771
38989W        W11249  20.049  24.617  11.472
38990W        W11250  21.566  36.044   3.829
38991W        W11251  28.604  38.545   3.230
38992W        W11252  39.427   6.385  12.841
38993W        W11253  25.063  29.501   3.148
38994W        W11254  20.749   2.920   2.371
38995W        W11255  32.615   9.391  14.500
38996W        W11256   4.732  28.942   0.801
38997W        W11257   7.356  44.937  11.407
38998W        W11258  42.994  39.945  13.866
38999W        W11259  34.479  33.585  12.382
39000W        W11260  33.453  13.599   0.797
39001W        W11261   7.367  24.637  13.428
39002W        W11262   1.331  36.092   4.227
39003W        W11263  35.563  10.228  14.005
39004W        W11264   9.646  42.978   0.961
39005W        W11265  34.881  10.306   1.287
39006W        W11266  38.363  23.091   1.318
39007W        W11267   1.923  23.505   4.794
39008W        W11268   0.811   8.671   0.903
39009W        W11269  15.159   9.161  11.115
39010W        W11270  18.087  23.696   0.776
39011W        W11271  34.490  19.534  14.891
39012W        W11272  35.062   2.787  11.099
39013W        W11273   4.394  15.133   3.175
39014W        W11274  44.357  39.544   3.255
39015W        W11275  10.368  21.540   0.481
39016W        W11276  11.215  31.634   2.900
39017W        W11277  10.861  26.611   2.190
39018W        W11278  12.153   5.263  12.988
39019W        W11279  18.152   0.405   4.813
39020W        W11280   5.409  12.758  11.047
39021W        W11281   0.356   4.787   1.738
39022W        W11282  40.503  10.366  11.426
39023W        W11283   5.883   1.777   3.801
39024W        W11284  36.962   2.753   0.291
39025W        W11285  24.573  38.351   1.836
39026W        W11286  12.760  10.694   0.919
39027W        W11287   3.875   0.319  10.539
39028W        W11288  42.793  19.211  10.561
39029W        W11289   4.905  44.756   1.830
39030W        W11290   8.883  21.522  14.886
39031W        W11291  37.500  25.675  10.506
39032W        W11292  33.565   6.859  11.471
39033W        W11293  29.088  23.188  11.937
39034W        W11294  15.775   4.874  13.476
39035W        W11295  20.162  21.069   3.192
39036W        W11296  33.959  23.682  11.035
39037W        W11297  24.168   1.358  11.108
39038W        W11298  38.857  22.032   0.830
39039W        W11299  24.620   0.968   0.811
39040W        W11300  40.040  26.193  14.946
39041W        W11301  36.389  40.406   1.711
39042W        W11302   8.162   7.873  13.389
39043W        W11303  43.937  16.708   0.359
39044W        W11304  43.946  12.632  10.577
39045W        W11305  19.042   9.745  14.477
39046W        W11306  33.440  28.446   3.336
39047W        W11307  38.881  21.526   0.335
39048W        W11308  44.384  43.430  11.009
39049W        W11309  41.448   6.882   4.772
39050W        W11310  12.687   7.328   1.411
39051W        W11311   5.781  15.326   3.212
39052W        W11312   9.261   0.826  11.961
39053W        W11313   7.405  19.277  12.471
39054W        W11314  29.527  29.443   1.736
39055W        W11315  11.767  16.167   0.843
39056W        W11316  37.902  32.896  13.393
39057W        W11317  25.218  39.322  13.427
39058W        W11318  38.031  15.605   0.746
39059W        W11319  14.309  41.412   1.255
39060W        W11320  23.081  18.180   2.365
39061W        W11321  21.551  19.197  12.407
39062W        W11322   8.239   1.337   2.772
39063W        W11323  18.718  18.711   2.210
39064W        W11324  23.081  12.762  14.853
39065W        W11325  34.999  36.874  12.028
39066W        W11326  32.908  41.884   3.309
39067W        W11327   9.704  17.291   2.723
39068W        W11328  19.045  26.681  12.857
39069W        W11329  27.966  34.439   4.286
39070W        W11330  43.018  19.218   1.763
39071W        W11331  16.761   8.365  14.919
39072W        W11332  33.591  40.029   0.909
39073W        W11333   5.291  25.116  14.381
39074W        W11334  31.413   1.371   2.669
39075W        W11335  22.657  21.740  14.820
39076W        W11336   8.771  38.478  12.922
39077W        W11337   8.324  29.921   0.967
39078W        W11338  11.265  10.788  10.470
39079W        W11339  27.472  11.334  13.020
39080W        W11340  18.166  36.919   0.436
39081W        W11341  22.996  10.737   2.277
39082W        W11342   3.417   5.274   3.199
39083W        W11343  11.368   6.242   3.215
39084W        W11344  31.104  17.740  14.763
39085W        W11345  18.118  31.509  12.093
39086W        W11346  23.199  42.366  13.050
39087W        W11347   8.704  14.597  10.404
39088W        W11348  42.882  29.641  14.857
39089W        W11349  26.636  29.989   3.316
39090W        W11350  41.466  20.574  12.879
39091W        W11351  18.130  13.248  11.520
39092W        W11352   0.816  19.616  14.513
39093W        W11353  35.536  18.052   3.851
39094W        W11354  27.568  23.610   1.298
39095W        W11355  41.364   6.417  14.503
39096W        W11356  41.894  26.641   2.713
39097W        W11357   8.328  39.990   2.182
39098W        W11358  18.772  36.352   3.343
39099W        W11359   7.905  17.738  12.565
39100W        W11360  42.873   0.892   4.203
39101W        W11361  21.745  16.142   1.356
39102W        W11362  44.784   0.749  10.902
39103W        W11363  27.142  12.625   2.883
39104W        W11364   4.226  23.000  14.294
39105W        W11365  42.323  18.162  14.489
39106W        W11366  38.489  26.630   0.479
39107W        W11367  21.232  26.047  12.870
39108W        W11368  31.462  36.485  14.391
39109W        W11369  11.796  30.941   0.774
39110W        W11370   3.936  30.566   1.868
39111W        W11371  42.401  42.879   1.916
39112W        W11372  37.020   5.325   4.250
39113W        W11373  44.320  14.663  14.492
39114W        W11374  36.350  34.380  12.966
39115W        W11375  40.432  40.373   1.365
39116W        W11376  39.338  24.076   3.848
39117W        W11377  21.032  42.811   4.775
39118W        W11378  17.557  12.644  12.452
39119W        W11379  10.315  16.142   3.293
39120W        W11380  37.937   5.236   4.299
39121W        W11381  33.409   9.167   4.195
39122W        W11382  10.268  38.890   5.182
39123W        W11383  37.453  12.186  10.581
39124W        W11384  43.516  11.639   4.660
39125W        W11385  38.357   3.451   4.622
39126W        W11386  44.280  25.169   2.217
39127W        W11387  16.783   9.306  14.505
39128W        W11388  38.432  13.761   3.353
39129W        W11389  36.987   3.262   4.769
39130W        W11390  42.856   8.774   5.292
39131W        W11391  14.101   9.236   1.702
39132W        W11392  24.574  27.948  13.531
39133W        W11393  22.734  23.671   2.203
39134W        W11394   2.387   5.313   3.717
39135W        W11395  20.076  25.192   1.263
39136W        W11396  13.111  30.989  10.894
39137W        W11397   8.166  21.632  10.543
39138W        W11398  15.237  19.205  14.838
39139W        W11399  26.516  11.198   9.992
39140W        W11400  34.991  27.078  11.954
39141W        W11401  30.045   9.394   0.932
39142W        W11402  40.001  21.731  12.849
39143W        W11403  41.457  20.532   0.864
39144W        W11404  35.024   9.261   1.719
39145W        W11405  36.546  16.596   4.724
39146W        W11406  38.069  34.559   5.208
39147W        W11407  36.016  25.640  10.888
39148W        W11408  36.044  20.731   1.755
39149W        W11409   4.828  41.945  11.537
39150W        W11410  26.594  27.991  12.991
39151W        W11411   6.682  14.181  10.537
39152W        W11412  16.279   0.370   0.906
39153W        W11413   1.937  22.555   0.319
39154W        W11414  39.016  37.915   3.164
39155W        W11415  36.564  20.722   1.398
39156W        W11416   7.738  39.903  11.471
39157W        W11417  20.712  28.180  10.573
39158W        W11418   9.294   4.254  12.935
39159W        W11419   3.327  38.492  14.924
39160W        W11420   4.388  13.139   2.676
39161W        W11421  16.159   8.682   5.167
39162W        W11422  34.373  18.718   1.442
39163W        W11423  12.205  27.612  14.795
39164W        W11424   5.740  15.084  10.953
39165W        W11425   1.803  37.830  14.488
39166W        W11426   4.275   2.425  10.523
39167W        W11427  20.559  38.003   0.773
39168W        W11428  36.891  33.884  14.760
39169W        W11429   2.389   9.253   1.785
39170W        W11430  32.975  20.259   5.209
39171W        W11431   8.231  27.669   4.329
39172W        W11432  41.950  22.090  14.787
39173W        W11433  20.605  41.356   3.332
39174W        W11434  38.552  21.529   4.333
39175W        W11435  19.056  43.765   4.724
39176W        W11436  17.198  38.889  10.503
39177W        W11437   6.897   5.849  12.356
39178W        W11438  29.503  33.067  10.535
39179W        W11439   3.225  31.568  11.482
39180W        W11440  25.110  18.183  13.990
39181W        W11441  41.359  40.484   0.750
39182W        W11442  26.463  26.188  14.942
39183W        W11443  32.087  40.907  12.984
39184W        W11444  20.208   2.262  12.826
39185W        W11445  35.998  41.437  12.045
39186W        W11446   8.259  42.775  14.983
39187W        W11447  11.347  31.049   1.704
39188W        W11448  39.849  20.120   4.838
39189W        W11449  25.682  31.996  10.145
39190W        W11450  10.239  44.931   3.364
39191W        W11451  34.002  17.061  10.094
39192W        W11452   2.849  41.938  14.959
39193W        W11453   9.320  36.029  14.846
39194W        W11454   4.300  16.670   1.233
39195W        W11455  26.518   7.249  13.427
39196W        W11456   7.708   4.762   3.817
39197W        W11457  22.723  22.103  13.501
39198W        W11458  12.760   1.738   0.351
39199W        W11459  11.802  42.388  11.032
39200W        W11460  10.250  15.668   4.317
39201W        W11461  15.613  42.936  12.419
39202W        W11462  30.017  16.639   1.437
39203W        W11463  18.090  28.592   4.162
39204W        W11464  42.415  30.040  12.494
39205W        W11465   1.414  39.557   3.338
39206W        W11466  15.209   8.393   0.742
39207W        W11467  13.139  35.935   3.289
39208W        W11468  43.309  37.883   0.964
39209W        W11469  40.041  24.203   1.712
39210W        W11470  16.608  36.386   2.178
39211W        W11471  32.896  28.507  10.983
39212W        W11472  30.543  15.604  13.528
39213W        W11473  43.910  18.786  13.873
39214W        W11474  21.170  16.580   3.364
39215W        W11475   8.839   3.812  14.835
39216W        W11476  11.636  34.462  10.045
39217W        W11477   8.388   2.849   2.342
39218W        W11478  30.061  29.055  10.900
39219W        W11479  30.960  23.991   0.899
39220W        W11480  16.572  43.012   3.855
39221W        W11481  25.112  28.533   0.912
39222W        W11482   4.767  30.531  13.498
39223W        W11483  37.003  15.266  14.368
39224W        W11484  35.390  16.622  13.017
39225W        W11485  40.465   8.741   1.731
39226W        W11486  18.573  14.696  12.968
39227W        W11487  20.087  41.949   2.883
39228W        W11488  13.319  30.610  12.067
39229W        W11489  13.839  27.116   9.568
39230W        W11490  13.184  10.869  10.602
39231W        W11491  22.696  33.980  12.371
39232W        W11492  28.499   5.338  10.493
39233W        W11493  10.724  39.904  13.049
39234W        W11494  21.098  29.059  11.997
39235W        W11495  44.489   6.230   2.886
39236W        W11496   8.893  19.660   0.782
39237W        W11497   2.414  13.221   2.252
39238W        W11498  16.609   8.813   3.767
39239W        W11499  20.704  21.555   1.809
39240W        W11500  30.487  16.659  14.472
39241W        W11501  40.044  16.569   3.687
39242W        W11502   1.900   4.936  12.863
39243W        W11503  12.670  37.885  13.816
39244W        W11504  44.503  25.663   0.326
39245W        W11505  26.581  17.094  13.798
39246W        W11506  26.076  23.081   2.220
39247W        W11507  28.969  31.455  12.404
39248W        W11508  10.704  19.180  12.356
39249W        W11509   6.735  42.883  13.515
39250W        W11510  12.694  26.096   4.786
39251W        W11511  37.408  43.454   0.932
39252W        W11512   0.828  37.482  13.477
39253W        W11513  31.016   5.753  14.827
39254W        W11514  34.011  16.741  14.306
39255W        W11515  39.816  36.051   0.242
39256W        W11516  39.903  15.253   0.284
39257W        W11517  31.581  36.084   3.849
39258W        W11518  35.968  24.639  14.940
39259W        W11519  24.708  43.453   3.207
39260W        W11520  38.055  37.044   0.311
39261W        W11521   3.363  42.994  13.532
39262W        W11522  31.993  33.621   0.878
39263W        W11523  29.593   9.248   3.368
39264W        W11524  17.662  40.483  12.395
39265W        W11525  29.601  42.884  10.575
39266W        W11526  40.380   9.311  14.489
39267W        W11527  24.074  41.012   3.332
39268W        W11528  34.601  44.484   2.890
39269W        W11529  37.549  29.490  11.385
39270W        W11530   3.770  35.381  13.322
39271W        W11531  17.670  43.856   3.380
39272W        W11532   8.688  40.017   1.236
39273W        W11533  37.885  14.667   4.174
39274W        W11534  20.726  19.049   9.557
39275W        W11535   8.810   6.240   2.835
39276W        W11536  10.238  10.343  13.984
39277W        W11537  21.083  40.391  13.386
39278W        W11538  23.643   5.298  10.530
39279W        W11539  21.583   3.265  14.504
39280W        W11540  21.164  22.163   4.203
39281W        W11541  14.163  13.700   0.434
39282W        W11542  24.220  35.496   1.378
39283W        W11543  44.361  12.704  14.770
39284W        W11544  27.641  39.313   3.725
39285W        W11545  11.752  32.500   3.360
39286W        W11546  26.118   4.886  12.348
39287W        W11547  12.190  33.618  13.952
39288W        W11548  31.931  11.312  10.551
39289W        W11549   8.169   7.258  14.869
39290W        W11550  15.678   5.234   1.389
39291W        W11551  38.826   5.803  10.470
39292W        W11552  21.067  31.643   0.850
39293W        W11553  14.804  24.585  14.390
39294W        W11554  22.148  22.612   1.891
39295W        W11555   3.273  24.048   4.747
39296W        W11556   2.757   2.458  11.049
39297W        W11557  39.407  20.612  14.414
39298W        W11558  43.860  20.622  13.056
39299W        W11559  24.565  27.475   2.884
39300W        W11560  35.030  16.235  11.568
39301W        W11561   9.160  24.676  13.950
39302W        W11562  44.368   4.243   4.709
39303W        W11563  30.037  21.544   1.927
39304W        W11564  18.247  43.861   4.262
39305W        W11565  28.614   3.824   3.386
39306W        W11566  38.071  10.351   3.863
39307W        W11567  10.183  34.487   3.322
39308W        W11568  26.660  21.142  12.984
39309W        W11569  38.334  25.482  14.775
39310W        W11570  32.405   4.883   2.815
39311W        W11571  29.606  43.362   4.754
39312W        W11572   7.863  13.675  13.358
39313W        W11573  30.110   2.939   3.201
39314W        W11574  22.157  34.605   0.750
39315W        W11575   2.290  37.077  12.454
39316W        W11576  40.049  10.870  13.901
39317W        W11577  13.118  36.522  13.372
39318W        W11578  25.017  43.939   3.673
39319W        W11579  37.033   4.400  13.927
39320W        W11580  21.658  27.477   3.387
39321W        W11581  16.702  25.035  13.438
39322W        W11582  42.482   2.345   1.889
39323W        W11583   1.451   3.408  14.396
39324W        W11584  18.070  39.998   4.128
39325W        W11585  11.664   9.357   3.366
39326W        W11586  10.360  35.908  13.837
39327W        W11587  29.088  12.183  14.850
39328W        W11588   2.910   0.364  11.894
39329W        W11589   5.223  30.090  10.428
39330W        W11590   2.303  44.293   4.708
39331W        W11591  12.345  26.140   4.800
39332W        W11592  13.839  30.521   9.957
39333W        W11593   4.273  32.085  12.579
39334W        W11594   9.263  19.175  11.426
39335W        W11595  34.093  42.029   2.216
39336W        W11596  36.551  23.491  10.931
39337W        W11597  43.776  12.769   0.449
39338W        W11598  42.787  25.031  14.806
39339W        W11599   6.914  13.724  12.422
39340W        W11600  39.502  18.238  10.562
39341W        W11601  12.642   2.240  12.390
39342W        W11602   1.300   6.716  13.060
39343W        W11603  29.448   5.275   1.227
39344W        W11604  11.668  31.938   3.748
39345W        W11605   1.759  31.127  12.356
39346W        W11606  42.877  28.143  12.482
39347W        W11607   0.370   8.285   1.304
39348W        W11608   1.780  13.181  12.534
39349W        W11609  12.251  42.829  13.435
39350W        W11610   6.286  12.783   0.795
39351W        W11611   5.330  14.655   1.719
39352W        W11612   0.934   1.757   3.251
39353W        W11613   6.288  12.213  14.842
39354W        W11614  17.583  25.647  10.914
39355W        W11615  39.313  32.011   2.279
39356W        W11616  16.797  15.285   0.444
39357W        W11617  17.261  39.879   3.350
39358W        W11618   2.896  31.502  12.410
39359W        W11619  23.566   0.780  10.952
39360W        W11620   5.751  42.845   3.646
39361W        W11621  11.159  29.056   1.931
39362W        W11622  22.699  15.222   3.325
39363W        W11623  42.342   3.399   3.210
39364W        W11624  18.166  20.612  14.924
39365W        W11625  40.991  18.651   4.346
39366W        W11626  42.013  24.034  12.079
39367W        W11627  19.721  42.872   4.135
39368W        W11628   8.317  35.382   3.207
39369W        W11629   3.368  14.767  14.830
39370W        W11630  10.852   1.943  11.067
39371W        W11631  12.704  37.862  13.400
39372W        W11632  29.124  15.169  13.842
39373W        W11633   0.827  31.547  13.809
39374W        W11634  40.367  19.717  10.541
39375W        W11635  28.565  29.123  12.032
39376W        W11636  18.266   5.340   2.892
39377W        W11637  28.580   5.815  10.997
39378W        W11638  19.630  24.120  14.930
39379W        W11639  37.463   9.309  10.527
39380W        W11640  35.986  36.000  12.840
39381W        W11641  12.216  43.500   4.658
39382W        W11642  14.795  18.068  12.455
39383W        W11643  26.543  10.764  11.518
39384W        W11644  35.535  33.975  12.487
39385W        W11645   7.682  39.559   1.813
39386W        W11646  37.442  12.300  12.575
39387W        W11647   4.255  15.629  10.546
39388W        W11648   3.818  22.197   2.314
39389W        W11649  12.283  35.918  11.563
39390W        W11650  38.019  25.714   1.881
39391W        W11651   9.317  10.699  12.014
39392W        W11652  31.423  31.063   4.814
39393W        W11653  21.712  20.713  12.363
39394W        W11654  34.600  15.677  12.905
39395W        W11655  15.104  37.497   0.422
39396W        W11656  31.037  30.958  13.056
39397W        W11657  24.981  42.498   5.083
39398W        W11658  22.655  23.207   1.260
39399W        W11659  29.127  27.110  14.322
39400W        W11660  17.577  26.108   0.299
39401W        W11661  30.979  11.747  12.437
39402W        W11662  11.854  29.653  11.536
39403W        W11663  22.996  22.540   2.770
39404W        W11664   5.349  34.450   3.380
39405W        W11665  37.886  34.531   0.441
39406W        W11666  17.221  15.629  10.524
39407W        W11667  27.550  41.884   4.650
39408W        W11668  13.303  43.787   4.303
39409W        W11669  24.510  20.116   4.639
39410W        W11670  17.228   5.752  14.879
39411W        W11671  21.671  28.067  10.966
39412W        W11672  33.126  16.087   3.266
39413W        W11673  34.428  22.218   4.187
39414W        W11674  29.480  41.449  14.432
39415W        W11675  17.234  34.913   1.286
39416W        W11676   6.289  11.266   4.331
39417W        W11677  10.215  24.037  12.065
39418W        W11678  44.878  29.924   2.375
39419W        W11679  40.515  22.581  14.996
39420W        W11680  28.667  34.604  13.530
39421W        W11681  42.848  27.632   1.309
39422W        W11682  34.984   6.684   3.332
39423W        W11683  44.350  17.107  14.809
39424W        W11684  13.230  25.973  10.612
39425W        W11685  22.549  28.003   4.251
39426W        W11686  27.585  11.235   0.428
39427W        W11687  16.660  29.592  12.847
39428W        W11688   2.906  40.439   3.815
39429W        W11689  42.836  40.952   1.340
39430W        W11690  21.035   3.765   4.179
39431W        W11691  32.488   2.463   0.386
39432W        W11692  10.234  19.726   4.703
39433W        W11693  41.372  36.999  11.960
39434W        W11694  32.626  42.292  12.409
39435W        W11695  10.169  16.677   1.767
39436W        W11696  23.075  20.213  13.443
39437W        W11697   3.333  26.149   3.750
39438W        W11698  25.133  25.019  11.895
39439W        W11699  36.844  18.172   3.248
39440W        W11700  40.334  41.798   3.278
39441W        W11701  40.434  11.835   2.204
39442W        W11702  32.995   9.743  12.500
39443W        W11703  11.156  32.588  11.874
39444W        W11704  31.559  18.674   0.429
39445W        W11705  36.454  17.658  11.074
39446W        W11706  36.460  25.521  12.391
39447W        W11707  24.075  39.424   0.764
39448W        W11708  11.372  12.628   3.868
39449W        W11709   5.786  42.869   0.367
39450W        W11710  32.062  32.463  10.449
39451W        W11711  25.540   4.417   3.639
39452W        W11712  44.903   4.896   4.838
39453W        W11713  34.006  35.427  11.390
39454W        W11714  30.110  29.114  11.463
39455W        W11715   4.307   1.321  13.885
39456W        W11716  44.885  40.855   0.862
39457W        W11717   0.870  41.320   4.349
39458W        W11718  12.839  30.525   3.732
39459W        W11719   0.414  13.223  13.968
39460W        W11720  20.734   9.779  14.467
39461W        W11721   3.924   1.734   5.308
39462W        W11722  23.635  11.830   1.267
39463W        W11723  15.675  39.021   1.388
39464W        W11724  23.574   3.888   2.409
39465W        W11725   9.736  21.038  13.414
39466W        W11726  20.535   3.905  12.346
39467W        W11727  12.284  29.998   3.727
39468W        W11728  31.072  27.609  13.931
39469W        W11729  36.457   1.430  13.892
39470W        W11730  25.477  43.437  14.028
39471W        W11731  26.079  27.665  12.492
39472W        W11732  40.429  26.205  11.515
39473W        W11733  33.393  18.250  14.766
39474W        W11734  23.609  30.471  12.518
39475W        W11735  16.623  36.367   1.734
39476W        W11736  44.988  43.409   4.254
39477W        W11737  16.702  40.538   4.673
39478W        W11738  17.183   1.462  12.068
39479W        W11739  33.066  38.956   4.349
39480W        W11740  38.063  33.007  13.816
39481W        W11741  41.864  35.903   3.840
39482W        W11742  20.095  22.619  12.500
39483W        W11743  39.000  28.026   3.383
39484W        W11744  41.398  34.398   3.201
39485W        W11745   5.313  42.409  13.368
39486W        W11746  32.067  12.276   0.875
39487W        W11747   3.857  18.648   3.720
39488W        W11748  16.721  12.324   3.160
39489W        W11749   4.207  36.546   2.837
39490W        W11750  17.577  18.564  12.524
39491W        W11751  12.758  25.150  11.386
39492W        W11752  44.491  16.703   3.776
39493W        W11753  31.926  35.446  10.919
39494W        W11754  36.487   8.402  14.453
39495W        W11755  14.156  39.559  13.351
39496W        W11756  40.341   1.336   2.359
39497W        W11757  32.498   8.661   1.891
39498W        W11758   8.675   1.896  10.011
39499W        W11759  31.039   5.432  10.550
39500W        W11760  37.986  13.259   3.826
39501W        W11761   3.915  44.931   1.373
39502W        W11762  10.372  17.256  10.910
39503W        W11763  43.368  23.557   4.176
39504W        W11764   6.688  39.977   0.441
39505W        W11765  10.234  38.501  14.425
39506W        W11766  24.026  22.157   4.791
39507W        W11767   8.806  35.541   4.788
39508W        W11768  15.245  26.208   4.824
39509W        W11769  31.917  30.586  12.348
39510W        W11770   5.221  44.468  12.068
39511W        W11771  21.538   5.741  11.568
39512W        W11772  44.380   4.871   3.828
39513W        W11773  42.953  21.746  13.337
39514W        W11774  24.196  11.797   4.813
39515W        W11775  12.126   6.700  12.089
39516W        W11776   4.808   3.875  11.097
39517W        W11777   3.750   5.195   4.198
39518W        W11778  44.259  14.763   2.735
39519W        W11779   7.210  16.670  14.438
39520W        W11780  17.578  34.043   4.614
39521W        W11781  29.666  18.777  13.369
39522W        W11782  26.062  21.120   1.391
39523W        W11783  15.706  14.710  14.459
39524W        W11784  27.679  25.502  12.080
39525W        W11785  26.067   8.255  14.466
39526W        W11786  25.133  32.117  12.411
39527W        W11787   0.357  25.074   0.465
39528W        W11788  21.658  12.346  14.476
39529W        W11789   4.925  29.522   3.186
39530W        W11790  24.191  28.945  10.921
39531W        W11791  37.574  33.017  12.082
39532W        W11792  12.306  29.942  12.412
39533W        W11793  30.114  11.624  10.429
39534W        W11794  39.839   3.803   3.294
39535W        W11795  32.077  14.774   0.423
39536W        W11796   3.823   0.450  14.907
39537W        W11797  16.743   4.246   1.800
39538W        W11798  29.156   4.430   1.417
39539W        W11799  24.599   9.280  12.368
39540W        W11800  34.950   5.825   2.831
39541W        W11801  34.012  44.769  13.976
39542W        W11802   2.328  24.676  10.977
39543W        W11803  26.500   0.888   2.669
39544W        W11804  35.392  10.308  14.763
39545W        W11805  25.172  25.603   4.807
39546W        W11806  27.607  36.371  12.420
39547W        W11807  19.630  23.689  12.949
39548W        W11808  16.211  38.347   4.205
39549W        W11809  18.703  34.542   3.790
39550W        W11810  30.982  16.267   2.416
39551W        W11811  26.469  35.920   4.204
39552W        W11812  38.480  39.052   2.415
39553W        W11813  19.272  38.002   3.711
39554W        W11814  42.373  26.983  14.988
39555W        W11815   8.376   8.706   2.674
39556W        W11816  36.933  15.289   2.381
39557W        W11817  31.497  23.611  14.781
39558W        W11818  34.117  36.384  11.904
39559W        W11819  44.340  11.368   4.347
39560W        W11820  20.763   4.343   2.696
39561W        W11821   5.920  37.021  14.490
39562W        W11822  29.049  39.862   2.209
39563W        W11823  18.261  18.101   3.807
39564W        W11824  11.850  15.641  13.409
39565W        W11825  10.765  27.147  14.918
39566W        W11826  13.633  23.094  14.475
39567W        W11827  24.706  13.258   0.965
39568W        W11828   1.781   2.353   1.237
39569W        W11829  20.676  20.072   5.657
39570W        W11830  35.590  36.486   3.170
39571W        W11831  10.711  27.673   4.774
39572W        W11832  24.051   8.859   0.289
39573W        W11833  43.864  38.842  12.489
39574W        W11834  12.653  10.337   1.297
39575W        W11835   8.675  18.714   2.793
39576W        W11836  42.775  36.475   2.347
39577W        W11837  41.304  16.696  11.000
39578W        W11838  40.976   5.693  12.496
39579W        W11839  28.035   8.371   2.201
39580W        W11840  27.446  37.952   1.926
39581W        W11841  22.713  17.267   4.602
39582W        W11842  42.467  21.095  13.006
39583W        W11843  31.415   8.661  11.525
39584W        W11844  18.069   2.298  13.339
39585W        W11845  11.755  23.126  11.476
39586W        W11846  42.988   2.951  12.012
39587W        W11847   3.264  38.884  12.063
39588W        W11848  40.479  37.541   1.845
39589W        W11849  10.632  11.224   3.780
39590W        W11850  36.894  41.962   0.879
39591W        W11851   6.288   6.874  11.461
39592W        W11852  11.289   6.736   1.737
39593W        W11853  30.531  36.485   3.191
39594W        W11854   7.788  38.862  14.359
39595W        W11855  11.288  38.825   4.799
39596W        W11856  34.083   7.820   3.718
39597W        W11857  25.630  15.609   4.146
39598W        W11858  16.253  17.261  12.829
39599W        W11859  37.907  39.969  13.970
39600W        W11860  37.540  40.861  12.041
39601W        W11861   9.663  17.593   0.484
39602W        W11862  29.552   4.741  14.812
39603W        W11863   9.186  41.914   3.360
39604W        W11864  24.701   0.949   3.790
39605W        W11865   3.817  16.151   3.820
39606W        W11866  12.338  12.718   0.749
39607W        W11867   9.279  36.535   3.707
39608W        W11868  20.164   4.699   2.774
39609W        W11869  44.883   6.317  11.929
39610W        W11870  33.978  38.898   2.307
39611W        W11871   2.908  34.579  12.015
39612W        W11872  18.589  39.360   4.629
39613W        W11873  16.664   0.389  11.551
39614W        W11874  30.586  32.482   2.206
39615W        W11875  26.618   7.196  12.966
39616W        W11876   4.276  25.210  12.506
39617W        W11877  25.178   5.220   0.842
39618W        W11878  23.197  16.144  13.944
39619W        W11879  33.119  38.048   4.777
39620W        W11880  19.564  13.197  10.421
39621W        W11881   9.170  13.677  11.971
39622W        W11882  25.663  30.993   2.830
39623W        W11883   6.376  17.738   2.265
39624W        W11884  33.053  39.414  13.001
39625W        W11885  11.798  29.541   4.633
39626W        W11886  15.108  37.871   1.397
39627W        W11887   2.398  12.741  10.969
39628W        W11888  38.842  32.613   0.848
39629W        W11889  38.909  29.045  11.095
39630W        W11890  23.172  32.137  11.881
39631W        W11891  33.623  19.639  13.029
39632W        W11892  41.846  42.978   2.838
39633W        W11893  18.642  12.839   1.255
39634W        W11894  34.921  20.130   1.365
39635W        W11895  16.683  37.433  13.017
39636W        W11896  33.921  21.587   3.311
39637W        W11897   8.197  26.553   0.471
39638W        W11898  10.672   4.700  14.320
39639W        W11899  40.024  14.705  14.464
39640W        W11900  41.334  32.428  10.551
39641W        W11901  43.779  40.997  12.369
39642W        W11902  26.183   0.461   2.249
39643W        W11903  23.124  30.559   1.312
39644W        W11904  28.557  21.658   3.208
39645W        W11905   4.927  36.392   3.703
39646W        W11906  34.017  13.261   2.887
39647W        W11907   8.246  43.398   4.251
39648W        W11908  36.005  38.482  14.449
39649W        W11909  35.945  42.454   3.163
39650W        W11910  31.978   6.359   3.729
39651W        W11911  12.154   4.322  11.053
39652W        W11912  42.873  41.474   2.395
39653W        W11913  41.797  35.004   4.283
39654W        W11914  14.797  34.384   5.160
39655W        W11915   4.347  26.623   1.383
39656W        W11916  32.421  11.291  13.919
39657W        W11917  20.164  19.160   3.665
39658W        W11918  37.582  34.926   3.793
39659W        W11919  38.339  14.684  14.814
39660W        W11920  40.355   6.244   3.241
39661W        W11921  26.599  35.570  12.541
39662W        W11922   6.258  35.937   5.236
39663W        W11923   7.834  23.235   1.387
39664W        W11924  27.574  19.657  10.420
39665W        W11925   1.907   6.898  10.888
39666W        W11926   3.215  10.330  13.985
39667W        W11927  13.238  16.700  14.955
39668W        W11928  27.074   3.753   1.279
39669W        W11929  22.222   3.733   3.387
39670W        W11930  11.137   7.325  13.000
39671W        W11931  17.198  26.085  12.460
39672W        W11932   5.356   3.919  14.489
39673W        W11933  28.537  33.960  12.516
39674W        W11934  14.324   8.717   4.612
39675W        W11935  21.211  18.626   0.460
39676W        W11936   6.233  11.348   3.252
39677W        W11937  36.029  34.580  10.422
39678W        W11938  25.213  27.136  11.593
39679W        W11939  33.995  25.610  14.759
39680W        W11940  39.812   5.705  12.991
39681W        W11941  13.223  40.409   3.157
39682W        W11942  31.142  34.562   0.966
39683W        W11943  11.316  33.092   0.317
39684W        W11944  35.999  28.559   0.391
39685W        W11945   8.381  35.950   4.831
39686W        W11946  18.293   1.733   0.374
39687W        W11947  18.118  16.123  14.837
39688W        W11948  21.080  32.489  11.866
39689W        W11949   3.238  37.474   1.713
39690W        W11950   9.734  14.307  13.798
39691W        W11951  30.954  26.584   4.263
39692W        W11952  40.036  13.738  11.502
39693W        W11953  14.599  12.848   0.887
39694W        W11954  28.093  30.109  13.833
39695W        W11955  39.908  14.294   0.762
39696W        W11956  43.776   0.353  11.608
39697W        W11957  24.165  30.428  11.856
39698W        W11958   9.181   1.349  13.377
39699W        W11959  16.701   6.321  13.519
39700W        W11960  40.369   5.688  11.915
39701W        W11961  11.147  13.107   4.691
39702W        W11962  29.460  34.036   0.341
39703W        W11963  42.935  39.401   2.862
39704W        W11964  13.208  35.007  12.507
39705W        W11965   5.719  30.657   4.288
39706W        W11966  27.472  17.608   2.873
39707W        W11967  16.711  24.594  13.525
39708W        W11968   7.315  15.125   2.763
39709W        W11969  32.613  19.592   0.866
39710W        W11970  16.598  12.667  13.321
39711W        W11971   3.313  38.870  13.462
39712W        W11972  37.505  29.554  12.481
39713W        W11973  31.564  12.267  13.908
39714W        W11974  35.458  36.879  13.053
39715W        W11975  34.379  37.935   2.332
39716W        W11976  19.222  15.780   2.756
39717W        W11977  40.861  10.846  13.439
39718W        W11978   4.769  23.693   1.750
39719W        W11979   4.890  26.200   1.862
39720W        W11980   8.345  25.077  14.938
39721W        W11981   9.647   1.912   0.927
39722W        W11982   5.718   8.342   3.336
39723W        W11983  37.926  14.623   1.388
39724W        W11984  33.572  21.734   0.843
39725W        W11985   9.337  35.568  10.993
39726W        W11986   0.424   2.882   3.290
39727W        W11987  38.047  18.624  14.993
39728W        W11988  33.095   7.388  13.401
39729W        W11989  32.443   7.715  10.405
39730W        W11990   1.377  27.626   1.913
39731W        W11991  43.976  29.554   0.860
39732W        W11992  41.031  42.280   1.906
39733W        W11993  14.329  14.693  14.476
39734W        W11994  22.567  42.978  12.876
39735W        W11995  28.484   8.792   1.326
39736W        W11996  12.344  19.574   4.759
39737W        W11997   4.393  38.978   4.730
39738W        W11998  25.205  41.024   2.335
39739W        W11999  14.751  15.757  14.011
39740W        W12000   1.338   7.378  14.840
39741W        W12001  44.426  29.647  10.626
39742W        W12002  41.422  15.609   4.185
39743W        W12003  10.288  35.444   2.790
39744W        W12004   9.359  18.095  12.440
39745W        W12005  40.962  25.587  11.565
39746W        W12006  16.722  10.651   2.204
39747W        W12007   9.214  21.757   3.764
39748W        W12008  19.641  29.669   0.912
39749W        W12009   1.414  28.089  11.859
39750W        W12010   2.855   7.414  10.953
39751W        W12011  29.004  24.192  12.896
39752W        W12012   5.734  43.435   3.651
39753W        W12013   5.387  11.787   1.826
39754W        W12014  43.507   6.405  12.884
39755W        W12015   2.800   7.867  12.892
39756W        W12016  11.690   1.868  11.436
39757W        W12017  29.503  16.587  10.948
39758W        W12018  42.940  44.796  12.429
39759W        W12019  35.559  20.109  11.979
39760W        W12020  20.723   1.967   0.887
39761W        W12021  40.806  35.405   1.212
39762W        W12022  41.027  16.136   0.484
39763W        W12023  38.390  17.211  11.571
39764W        W12024  21.035  33.460   4.316
39765W        W12025  41.988   5.411   3.354
39766W        W12026   5.402   8.281   0.331
39767W        W12027   1.445  38.467  13.934
39768W        W12028  10.233  26.680  10.628
39769W        W12029  30.644   3.918  11.392
39770W        W12030  14.701  20.096   4.671
39771W        W12031  37.514   6.889  13.892
39772W        W12032  35.872  19.274   0.908
39773W        W12033  11.197  31.979  10.461
39774W        W12034  39.344  32.488   4.600
39775W        W12035   4.385  20.664  11.522
39776W        W12036   4.844  17.700  12.445
39777W        W12037   1.836  27.635   4.834
39778W        W12038  20.712   8.272   4.740
39779W        W12039  25.514   6.868  11.904
39780W        W12040  26.026  29.111  13.346
39781W        W12041  14.096  23.077  13.495
39782W        W12042   3.740   4.879  12.970
39783W        W12043  42.497   9.266   3.340
39784W        W12044   1.312  34.088  14.351
39785W        W12045  25.000  12.661   2.261
39786W        W12046  35.949  18.056   2.283
39787W        W12047  22.697  17.585  10.022
39788W        W12048  20.627   6.809  14.460
39789W        W12049  36.061   9.351   3.704
39790W        W12050   9.885  15.732  11.491
39791W        W12051  38.866  40.891   4.219
39792W        W12052   8.768  23.580   3.173
39793W        W12053  15.094   2.424  14.934
39794W        W12054  31.968  41.419  10.160
39795W        W12055   6.353   7.878  12.895
39796W        W12056  38.016  15.624  10.952
39797W        W12057  24.986  13.222   2.879
39798W        W12058  24.553  24.161   2.191
39799W        W12059  40.008   9.287   3.269
39800W        W12060  27.000  42.023  11.424
39801W        W12061  20.045   6.331   9.623
39802W        W12062  42.323  22.704  14.777
39803W        W12063   6.237  28.005   5.568
39804W        W12064  12.794   1.303  14.851
39805W        W12065   8.378  11.329  10.915
39806W        W12066  21.645  12.774   0.292
39807W        W12067   4.761  32.916  10.076
39808W        W12068  13.249  33.025  13.808
39809W        W12069  33.498   3.432  10.447
39810W        W12070  13.177   6.253   4.278
39811W        W12071  24.034   8.769   3.324
39812W        W12072  39.392  28.453   1.233
39813W        W12073  22.518  22.557  13.048
39814W        W12074   7.786  14.602   4.337
39815W        W12075   7.288  34.866   4.262
39816W        W12076  25.126  36.984  12.850
39817W        W12077   3.920  19.177   0.426
39818W        W12078  43.300  15.317  11.570
39819W        W12079  17.126  29.164   2.685
39820W        W12080  27.595   0.834  12.029
39821W        W12081  34.956  39.892   4.153
39822W        W12082  22.547  28.654  13.925
39823W        W12083  29.040  26.667  11.475
39824W        W12084  29.471   2.804   2.232
39825W        W12085  23.168  38.505  10.614
39826W        W12086   5.891   1.962   4.817
39827W        W12087  42.032  21.558   0.318
39828W        W12088   9.158  29.473   3.382
39829W        W12089  31.412  32.501  11.096
39830W        W12090  37.467  12.305   0.806
39831W        W12091  26.995  13.237   1.235
39832W        W12092  31.636  29.424  10.945
39833W        W12093   7.268  24.227   4.617
39834W        W12094  14.140  40.509  12.909
39835W        W12095  17.304  40.996  14.475
39836W        W12096  26.120  42.316   2.344
39837W        W12097  16.783  40.364   2.698
39838W        W12098  30.961  27.588   1.328
39839W        W12099   9.782   8.396   0.923
39840W        W12100  40.871  43.911   2.389
39841W        W12101  23.615  25.687  13.807
39842W        W12102  26.518  11.293   3.320
39843W        W12103  19.653  37.943  14.778
39844W        W12104  36.370  24.050  11.905
39845W        W12105  11.181  18.111  11.026
39846W        W12106   3.265  43.355   0.438
39847W        W12107  17.801  18.587  11.918
39848W        W12108   3.374  10.183   3.695
39849W        W12109   5.333  23.682   2.290
39850W        W12110  32.551  12.221  12.871
39851W        W12111  13.223  28.946  12.439
39852W        W12112   4.214   8.659  13.399
39853W        W12113  17.654  18.632  14.921
39854W        W12114  22.737  28.673   5.601
39855W        W12115  14.181  43.438   1.856
39856W        W12116  26.980   7.908   4.141
39857W        W12117  33.992  44.363   1.714
39858W        W12118  38.537  38.502   3.346
39859W        W12119   7.227  40.339   1.356
39860W        W12120  22.511  44.322  11.424
39861W        W12121  19.267  33.084   3.240
39862W        W12122   9.838  41.293  12.911
39863W        W12123  40.979   3.319  11.578
39864W        W12124   8.302  29.105  12.934
39865W        W12125  39.033  24.004  14.987
39866W        W12126  23.653  35.571  12.509
39867W        W12127  31.551  41.970  11.041
39868W        W12128  28.982  19.605   4.601
39869W        W12129  41.884  23.535  14.438
39870W        W12130   4.226  36.381   4.831
39871W        W12131  28.048   1.444  11.977
39872W        W12132  10.356  13.733  14.943
39873W        W12133   2.367  19.636  14.861
39874W        W12134  29.609   1.942   4.167
39875W        W12135  22.621   4.724  10.953
39876W        W12136  29.948  35.587   1.906
39877W        W12137  39.949  41.854   0.273
39878W        W12138  24.196  42.848  14.824
39879W        W12139  38.426  25.986  10.547
39880W        W12140   6.687  22.010   2.712
39881W        W12141  31.050   4.226   4.698
39882W        W12142  24.215  27.063  14.911
39883W        W12143   6.879  10.791   0.250
39884W        W12144  28.450  31.027   0.288
39885W        W12145  22.593  29.172   1.396
39886W        W12146   3.735  40.446   2.782
39887W        W12147  21.140  39.815   2.224
39888W        W12148  26.533  27.538  14.464
39889W        W12149  43.470   4.785   1.724
39890W        W12150  24.522  24.682  14.792
39891W        W12151   3.338  27.449   0.400
39892W        W12152  37.557  22.677   5.086
39893W        W12153   3.784  43.968  11.544
39894W        W12154  27.137  36.040  12.997
39895W        W12155  40.524  41.940  12.962
39896W        W12156   3.759  18.212   2.290
39897W        W12157  39.421  41.949   2.283
39898W        W12158  18.202   5.258   4.180
39899W        W12159  33.048  35.023  13.498
39900W        W12160   4.903  14.622   4.191
39901W        W12161  27.037  25.470  12.877
39902W        W12162   9.890  20.176  14.476
39903W        W12163  18.274  16.675   1.301
39904W        W12164  28.520   0.980  11.084
39905W        W12165  16.181   6.789   3.191
39906W        W12166  22.578  38.459  13.464
39907W        W12167  22.068   3.330  10.956
39908W        W12168  15.193   6.346  12.464
39909W        W12169  23.181   6.728  12.467
39910W        W12170  31.031  29.107   9.959
39911W        W12171  30.952  42.298   3.299
39912W        W12172  26.049   2.833   2.667
39913W        W12173  11.775  29.986  13.360
39914W        W12174  17.207  31.921  11.877
39915W        W12175  25.622   0.250   3.361
39916W        W12176  40.980  43.271   1.362
39917W        W12177   5.220  29.626  13.825
39918W        W12178   9.805  40.010   4.668
39919W        W12179  35.031  20.106   2.731
39920W        W12180  43.833  41.435   1.915
39921W        W12181  14.726  16.213   0.947
39922W        W12182  23.712   3.440  14.401
39923W        W12183  35.516  29.018   2.675
39924W        W12184  12.801  42.418   3.367
39925W        W12185   8.182   5.197   2.228
39926W        W12186  37.857  10.648   0.754
39927W        W12187  28.581   9.671  13.802
39928W        W12188  21.213   8.857   3.287
39929W        W12189   1.964  37.936  12.001
39930W        W12190  41.988  13.225  14.510
39931W        W12191  13.160  17.296   2.667
39932W        W12192   4.427  30.539  12.403
39933W        W12193  35.964  34.973   1.868
39934W        W12194  34.948  23.597  12.984
39935W        W12195   1.334  36.366   0.364
39936W        W12196  35.909   8.160  11.508
39937W        W12197  20.230  14.822  10.563
39938W        W12198  22.605  40.384  11.079
39939W        W12199  32.584  32.396   1.212
39940W        W12200   0.393  26.064   4.144
39941W        W12201  41.007  35.939   3.308
39942W        W12202   3.255  16.647   1.298
39943W        W12203  44.445  13.804  12.388
39944W        W12204  14.829  40.487  10.442
39945W        W12205  14.203  26.170   2.792
39946W        W12206  43.881  17.161   3.684
39947W        W12207   2.843   3.935  14.460
39948W        W12208  42.453  10.697  11.407
39949W        W12209   0.978   6.261  12.401
39950W        W12210   2.311   1.379   0.846
39951W        W12211   7.740  39.046  12.505
39952W        W12212   4.254  21.253  14.948
39953W        W12213  16.314  39.944   1.718
39954W        W12214  15.742  39.811   4.234
39955W        W12215  26.569   9.382   2.206
39956W        W12216  34.556  40.397   3.803
39957W        W12217  28.942  13.731   3.718
39958W        W12218   4.771  30.984   4.291
39959W        W12219  22.587  12.223  12.558
39960W        W12220   0.886  26.675   0.349
39961W        W12221  31.055  34.974   3.797
39962W        W12222  40.438  15.708   9.990
39963W        W12223  15.731  40.018  10.975
39964W        W12224   7.320  41.991   2.202
39965W        W12225   5.773  19.078   3.276
39966W        W12226   8.826  37.458  10.144
39967W        W12227  13.157  28.522  13.858
39968W        W12228  16.194  10.163   2.771
39969W        W12229   8.373  17.765   2.316
39970W        W12230  39.451   9.716  14.897
39971W        W12231   0.421   1.769   1.881
39972W        W12232  42.523   8.219   0.424
39973W        W12233   0.883  40.459  11.052
39974W        W12234  40.363  25.616   0.369
39975W        W12235  29.043   0.931   3.253
39976W        W12236   9.290  27.590  14.924
39977W        W12237  38.843  10.344   1.764
39978W        W12238  23.718  19.763   2.771
39979W        W12239  34.117  34.467  14.765
39980W        W12240  21.667   5.744  12.889
39981W        W12241  31.109  29.587   5.198
39982W        W12242  23.675  31.564   0.366
39983W        W12243   9.229  43.000  12.091
39984W        W12244   7.769  26.021  13.832
39985W        W12245   6.246  20.248  14.001
39986W        W12246  44.948  43.314  14.464
39987W        W12247  31.021  33.936   3.187
39988W        W12248  14.243  32.949   4.143
39989W        W12249  26.174  10.324   0.276
39990W        W12250  43.878  18.736   2.340
39991W        W12251  39.550  34.388  11.027
39992W        W12252  33.425  13.309  12.873
39993W        W12253  27.637  32.068   0.463
39994W        W12254  43.926  26.471   4.307
39995W        W12255  32.630  25.591   1.896
39996W        W12256   1.386  26.459   1.733
39997W        W12257   3.810  16.318  12.967
39998W        W12258  10.335  37.964  10.418
39999W        W12259   2.346  29.006  11.901
40000W        W12260   2.960  17.197  12.853
40001W        W12261  41.876  10.694   4.802
40002W        W12262   6.384  11.685   0.301
40003W        W12263  15.296  11.325  14.030
40004W        W12264  14.786  44.797  14.967
40005W        W12265  31.619  35.464   0.425
40006W        W12266  34.508  25.599   3.224
40007W        W12267   5.200  26.699   4.833
40008W        W12268   6.677  24.628  11.925
40009W        W12269  23.227  24.512  12.405
40010W        W12270   8.366  14.211  14.847
40011W        W12271  31.465  33.113   1.370
40012W        W12272  33.876  36.000   2.323
40013W        W12273  33.959   3.300  14.361
40014W        W12274  29.082   0.294   0.350
40015W        W12275  18.089  14.633  14.966
40016W        W12276  15.749   9.814  12.474
40017W        W12277   0.831  41.366   3.288
40018W        W12278  35.539  20.639   2.817
40019W        W12279  11.278  43.899  12.522
40020W        W12280  11.725  41.894  11.373
40021W        W12281   8.728  43.844  11.485
40022W        W12282   6.746  18.150  11.908
40023W        W12283  21.216  27.177   0.317
40024W        W12284  12.132  19.737   0.313
40025W        W12285  26.693  34.371   3.369
40026W        W12286  22.163  43.943  11.560
40027W        W12287  43.424   3.836  13.796
40028W        W12288  34.947  22.598  10.045
40029W        W12289   8.269   0.826  12.544
40030W        W12290  39.337  21.547   2.723
40031W        W12291  26.043  24.480   1.704
40032W        W12292  38.010  26.129   0.749
40033W        W12293  16.209  32.610  12.540
40034W        W12294  29.432  11.757   3.289
40035W        W12295   6.396  15.747  11.372
40036W        W12296  27.130  11.346  11.995
40037W        W12297  31.041   3.352  11.433
40038W        W12298  10.737  40.956   0.874
40039W        W12299   0.456   2.803  12.541
40040W        W12300  28.165   7.284  12.386
40041W        W12301  30.612  34.091  11.535
40042W        W12302   3.303  26.172   1.739
40043W        W12303  16.774  32.989  13.525
40044W        W12304  24.026   6.881  13.943
40045W        W12305   2.848  11.824   4.709
40046W        W12306   2.471  34.451  13.971
40047W        W12307   4.332   0.348  12.360
40048W        W12308  13.791  15.233   9.993
40049W        W12309  12.340  13.113   2.809
40050W        W12310   7.271  24.686   1.277
40051W        W12311  12.852  32.967   3.304
40052W        W12312  15.650   2.919   0.882
40053W        W12313   1.286  26.660  12.901
40054W        W12314  16.298  29.536   1.299
40055W        W12315  20.560  41.001  14.282
40056W        W12316   4.246  35.417  11.379
40057W        W12317  12.749  18.588   0.774
40058W        W12318  11.203  27.078   0.301
40059W        W12319  27.061  12.174   0.828
40060W        W12320   9.698  43.995   2.313
40061W        W12321  32.900  33.022   4.174
40062W        W12322   2.858  40.326  12.858
40063W        W12323  31.983  16.196  14.863
40064W        W12324  40.800  24.223  13.793
40065W        W12325  19.044  14.266  10.588
40066W        W12326  20.193  20.130  12.023
40067W        W12327  28.140   8.333   4.710
40068W        W12328   2.907  31.112  12.983
40069W        W12329  28.538  22.583   9.992
40070W        W12330  31.090  36.402   4.197
40071W        W12331  18.264  17.208  11.535
40072W        W12332   8.257  40.480   2.399
40073W        W12333  29.018  30.646  12.084
40074W        W12334  18.644  26.623   4.690
40075W        W12335  28.568  21.063   5.170
40076W        W12336  23.192   8.284  14.778
40077W        W12337  23.150  20.099   0.775
40078W        W12338  34.985  10.793  13.889
40079W        W12339  38.974  17.657   1.337
40080W        W12340   6.915   9.881   2.241
40081W        W12341  29.470  15.765  14.796
40082W        W12342  44.301  40.522  13.918
40083W        W12343  38.425  22.571  14.350
40084W        W12344  15.774  20.132  10.551
40085W        W12345   2.905  23.062  11.940
40086W        W12346  32.446  34.108  11.542
40087W        W12347  18.213  37.962  10.912
40088W        W12348   7.730  15.257  13.920
40089W        W12349  38.377  44.849  10.525
40090W        W12350  43.962  38.552  14.509
40091W        W12351  41.489  16.580  14.807
40092W        W12352  33.455  42.383  12.838
40093W        W12353  15.211  39.498   1.868
40094W        W12354  12.633  42.011   0.962
40095W        W12355  41.396  23.016   3.837
40096W        W12356   6.831  35.426   0.341
40097W        W12357   6.288  25.208  12.935
40098W        W12358  41.353   2.782  10.956
40099W        W12359  39.442  17.304  14.501
40100W        W12360  17.274   4.276  12.441
40101W        W12361   8.397  27.544  12.934
40102W        W12362  14.100   7.179  14.372
40103W        W12363  42.978  20.659   3.168
40104W        W12364  22.148  32.135  13.371
40105W        W12365  12.172   2.335  14.404
40106W        W12366  39.320   2.804   3.225
40107W        W12367   7.217  25.167   3.219
40108W        W12368  36.429  17.232   2.796
40109W        W12369  24.503  39.471  12.413
40110W        W12370  31.460  38.359   2.777
40111W        W12371  42.289  23.553  12.496
40112W        W12372  28.489  10.309   0.944
40113W        W12373  32.951  28.980  11.855
40114W        W12374  44.332  37.427  14.377
40115W        W12375  19.255  17.235  12.841
40116W        W12376  11.346   8.361   4.784
40117W        W12377  16.112  12.144   3.241
40118W        W12378  23.520  11.733   4.726
40119W        W12379  14.192  19.721  11.116
40120W        W12380  34.573  38.527   1.719
40121W        W12381   8.848  41.330  10.127
40122W        W12382  15.263  30.010   0.480
40123W        W12383  28.076  19.728   2.248
40124W        W12384  29.935   3.881   4.624
40125W        W12385  28.486  36.456  11.041
40126W        W12386  34.979  13.312   4.603
40127W        W12387  40.975  13.713   0.437
40128W        W12388  20.158  44.262   2.795
40129W        W12389  40.315  32.914  12.506
40130W        W12390   8.812  16.722  14.957
40131W        W12391  17.085   4.901  10.984
40132W        W12392   7.346  41.985   1.856
40133W        W12393  34.610  12.142  14.796
40134W        W12394  36.395  44.325   2.341
40135W        W12395  41.353  30.954   2.242
40136W        W12396  25.973  30.971   3.224
40137W        W12397  23.695   4.807  13.922
40138W        W12398  22.180   2.263   1.267
40139W        W12399  28.556  23.229  12.468
40140W        W12400  26.072  37.950  13.959
40141W        W12401  35.013   7.883   2.834
40142W        W12402   1.781  32.906  10.956
40143W        W12403  16.620  37.543  11.479
40144W        W12404  33.568  10.873   2.329
40145W        W12405  28.102   6.252   2.883
40146W        W12406  21.615  30.510   1.712
40147W        W12407  29.589  20.117   2.804
40148W        W12408  19.201   5.395  10.102
40149W        W12409  44.285   8.778  14.916
40150W        W12410  41.350  24.640  12.560
40151W        W12411  36.409  43.868  13.450
40152W        W12412  31.912  30.586   0.308
40153W        W12413  23.502  21.617  12.888
40154W        W12414   8.830   2.945   2.755
40155W        W12415  16.224  13.623  12.854
40156W        W12416   2.775  33.993  11.468
40157W        W12417  24.196  40.359   2.751
40158W        W12418  34.997   2.929  13.502
40159W        W12419   2.441  13.200   4.699
40160W        W12420  22.541  30.617   3.830
40161W        W12421  40.535  31.481  14.891
40162W        W12422  36.979  34.503   4.662
40163W        W12423  34.948  25.701  10.955
40164W        W12424  16.594  31.075   0.863
40165W        W12425  28.962  38.514  14.843
40166W        W12426  22.037   9.202  11.051
40167W        W12427   8.205  26.630   4.684
40168W        W12428   2.838  18.063   3.738
40169W        W12429  41.865  23.647  13.976
40170W        W12430  42.846  39.373  13.388
40171W        W12431  39.340  14.176   1.395
40172W        W12432   3.743  41.400   0.278
40173W        W12433  21.056  22.076   4.756
40174W        W12434  38.453  14.169   1.317
40175W        W12435  13.603  14.301   2.213
40176W        W12436  32.411  33.957   3.755
40177W        W12437  38.448  11.339   3.871
40178W        W12438   7.191  39.424  11.025
40179W        W12439  32.976  18.130  13.976
40180W        W12440   8.741  33.020  14.029
40181W        W12441  28.138  25.647  12.437
40182W        W12442  42.493  32.601   2.350
40183W        W12443  42.366  16.118  10.997
40184W        W12444  18.594  28.563   1.269
40185W        W12445  33.988  17.148  12.982
40186W        W12446  31.014  16.312   0.304
40187W        W12447  21.163  28.568  13.791
40188W        W12448   2.468   1.758  11.918
40189W        W12449  22.134  38.399  14.808
40190W        W12450  11.335   7.377  12.008
40191W        W12451  32.029  19.614   1.242
40192W        W12452  33.117   7.765  13.378
40193W        W12453  23.120  28.076   0.730
40194W        W12454  37.052   3.918   0.313
40195W        W12455   8.278   0.378   2.251
40196W        W12456  35.495  33.547  14.492
40197W        W12457  39.062  10.823   1.773
40198W        W12458  22.567  32.950  14.975
40199W        W12459  40.812  17.749   1.286
40200W        W12460   9.271  12.249   1.744
40201W        W12461  14.734  27.687  10.537
40202W        W12462  37.904  29.104  10.909
40203W        W12463  11.698   5.208   4.631
40204W        W12464  33.433   2.289   1.701
40205W        W12465  26.606  10.194   2.677
40206W        W12466   6.787  40.531   1.300
40207W        W12467  38.063  29.425  12.838
40208W        W12468  34.009  36.439  13.978
40209W        W12469  19.105  37.943  12.001
40210W        W12470  25.217  22.699   5.180
40211W        W12471  31.093  38.549  11.470
40212W        W12472  16.674  18.154  12.369
40213W        W12473  41.987  26.000   3.802
40214W        W12474  28.139  17.606  12.444
40215W        W12475  43.512   0.756  13.810
40216W        W12476   9.849  20.058   2.770
40217W        W12477  17.081  28.127  10.079
40218W        W12478   0.364   9.863   3.691
40219W        W12479  28.987  11.641  14.872
40220W        W12480   8.892  44.872  13.382
40221W        W12481  36.523  16.642   2.819
40222W        W12482  40.415   7.345   0.967
40223W        W12483  20.071  24.500  12.415
40224W        W12484  28.541  15.586  10.639
40225W        W12485  44.868  20.168  12.567
40226W        W12486   5.268  37.437   4.132
40227W        W12487  30.937  35.970   0.905
40228W        W12488  22.702  39.832   4.220
40229W        W12489  11.160   8.187   4.288
40230W        W12490  34.504  39.964  12.838
40231W        W12491   0.850  20.233  13.024
40232W        W12492  35.423  44.438  10.154
40233W        W12493  11.180  44.306   0.771
40234W        W12494  10.653  39.354  12.367
40235W        W12495  42.950  11.756   3.320
40236W        W12496  40.312  34.538  14.362
40237W        W12497  20.701  22.061   4.785
40238W        W12498  34.036  29.595  12.890
40239W        W12499  44.787  30.110   4.245
40240W        W12500  29.028  23.559   1.732
40241W        W12501   0.779   5.697  13.510
40242W        W12502  16.596  21.148  14.871
40243W        W12503   3.303  38.993  11.092
40244W        W12504  22.627  31.616  11.012
40245W        W12505  16.602  31.037   2.380
40246W        W12506  43.435  32.414  14.279
40247W        W12507  20.086  41.444  13.431
40248W        W12508   6.796  31.111   1.735
40249W        W12509  19.256  31.035   4.598
40250W        W12510  25.071  12.712   0.890
40251W        W12511  24.159  34.896  12.074
40252W        W12512  33.513  34.569   2.244
40253W        W12513   5.780  31.973  13.971
40254W        W12514   1.975   5.434   0.889
40255W        W12515   5.856  15.758   4.665
40256W        W12516  38.422  41.980   4.315
40257W        W12517  43.477  39.026   1.916
40258W        W12518  12.825  31.403   0.324
40259W        W12519  11.287  37.062  14.823
40260W        W12520  11.357   9.313   1.260
40261W        W12521  42.397  27.509   3.276
40262W        W12522  15.592  42.798  11.483
40263W        W12523  21.619  15.268   4.763
40264W        W12524  38.326  10.257   1.233
40265W        W12525  41.810  37.970  14.938
40266W        W12526  16.077  37.998   0.826
40267W        W12527   6.280  20.666   2.338
40268W        W12528  20.580  20.162   3.822
40269W        W12529  23.096  38.850  11.892
40270W        W12530  14.163   6.769   0.837
40271W        W12531  44.375  18.569  11.972
40272W        W12532  21.200  23.519  11.018
40273W        W12533   9.750  16.785   3.293
40274W        W12534  41.330  24.590   4.297
40275W        W12535  31.123   3.262   4.325
40276W        W12536  22.211  14.279  13.321
40277W        W12537  34.439  28.630   4.740
40278W        W12538  37.087  21.545   1.906
40279W        W12539  15.199  31.038   0.345
40280W        W12540  34.594  15.625   2.293
40281W        W12541   9.368   6.350  10.954
40282W        W12542  14.666  13.329   3.737
40283W        W12543  25.664  37.383   4.737
40284W        W12544   3.826  21.142  13.952
40285W        W12545  41.963   0.857  11.859
40286W        W12546   6.892  27.006  12.087
40287W        W12547   6.415  13.243   1.816
40288W        W12548  28.007  12.735   2.693
40289W        W12549  24.479  37.438  12.868
40290W        W12550  14.591   0.780  10.963
40291W        W12551   9.167  23.079  13.927
40292W        W12552  37.552  10.152   2.756
40293W        W12553  11.221  43.775   3.258
40294W        W12554  40.478  18.562   0.284
40295W        W12555   7.911  41.513  10.936
40296W        W12556  23.547  19.187   3.350
40297W        W12557   9.691  19.604  12.486
40298W        W12558  30.132  12.718   1.221
40299W        W12559  24.122  16.733  10.463
40300W        W12560  12.776   1.251   3.705
40301W        W12561   0.282  18.713   2.888
40302W        W12562  13.826  39.527   2.825
40303W        W12563   8.201  31.604  12.951
40304W        W12564  22.618  18.647  12.564
40305W        W12565   0.878  40.031  14.918
40306W        W12566  34.405  18.186   3.826
40307W        W12567  35.369  41.498   4.264
40308W        W12568  31.148   5.688  11.966
40309W        W12569   1.349  25.585  12.510
40310W        W12570   4.875  10.698  14.833
40311W        W12571  18.737  22.220  11.587
40312W        W12572   3.316  42.387   0.299
40313W        W12573  40.485  30.070   4.612
40314W        W12574  11.192  10.652   4.207
40315W        W12575  31.511  23.153  10.889
40316W        W12576  42.436  44.775   1.890
40317W        W12577  27.151  31.055  13.454
40318W        W12578   3.908  31.444   0.801
40319W        W12579  37.890  36.398   1.323
40320W        W12580  13.658  17.761  12.938
40321W        W12581  39.812   6.184  13.309
40322W        W12582  18.185  36.082   2.204
40323W        W12583  41.491   1.392  13.939
40324W        W12584  20.033  44.496   3.149
40325W        W12585   8.734  36.474   2.346
40326W        W12586  22.079   4.765   2.780
40327W        W12587  21.103  10.298   1.448
40328W        W12588  19.241   5.707   1.715
40329W        W12589   9.698  19.593   3.264
40330W        W12590  15.819   5.274   1.877
40331W        W12591  18.767   2.854  13.874
40332W        W12592   9.779  27.081  11.996
40333W        W12593  35.460  17.295   2.378
40334W        W12594  16.721  42.992  13.343
40335W        W12595  38.941  40.864   1.444
40336W        W12596  39.433  15.747   3.672
40337W        W12597   6.895   2.341  10.952
40338W        W12598  33.953   7.181  11.893
40339W        W12599  13.297  11.843   3.723
40340W        W12600   9.287  18.698  14.990
40341W        W12601   7.391  37.559  12.962
40342W        W12602  22.688  27.137  13.891
40343W        W12603  17.112  14.812   3.706
40344W        W12604   2.319  21.691   2.411
40345W        W12605  33.583  13.687  10.525
40346W        W12606  35.886  15.601  10.642
40347W        W12607  18.653  13.687  13.949
40348W        W12608  41.923   1.964   1.857
40349W        W12609  24.046   8.363   4.731
40350W        W12610   7.904  24.486   1.298
40351W        W12611  29.927   6.749  13.799
40352W        W12612  18.101  20.594   0.411
40353W        W12613  25.629   2.378  14.499
40354W        W12614  41.997  25.495  10.995
40355W        W12615  43.875   6.779   2.211
40356W        W12616   1.790  15.593  10.524
40357W        W12617   7.772  34.942   2.741
40358W        W12618  38.476  25.477   1.823
40359W        W12619   5.750   5.884   4.292
40360W        W12620  42.024  30.154   2.785
40361W        W12621  36.997  17.560  10.619
40362W        W12622  15.674  16.105  10.432
40363W        W12623  44.431  10.706   2.262
40364W        W12624  28.496   0.793   3.225
40365W        W12625  22.071  11.740  11.865
40366W        W12626  25.482  32.030   0.323
40367W        W12627   4.854  28.155   0.900
40368W        W12628  43.776  30.087  14.909
40369W        W12629  13.811   6.851   1.234
40370W        W12630   7.849  31.024   3.234
40371W        W12631  10.297   3.371  11.125
40372W        W12632  23.491  21.188   3.694
40373W        W12633  23.556   3.343   5.109
40374W        W12634  30.000  40.950  13.389
40375W        W12635  30.991  33.104   3.867
40376W        W12636  42.415   0.265  12.033
40377W        W12637  29.533  32.412   3.162
40378W        W12638   6.724  19.222   0.940
40379W        W12639  22.998  22.732  10.595
40380W        W12640   3.415   1.349   3.642
40381W        W12641  33.579  18.167   0.769
40382W        W12642  26.098  44.822   1.311
40383W        W12643  33.071  43.999  11.449
40384W        W12644   7.371  37.435   3.744
40385W        W12645   7.241  33.626  12.436
40386W        W12646  16.200  32.557  14.961
40387W        W12647  10.168   4.870  10.435
40388W        W12648  14.096  31.141  11.465
40389W        W12649   3.892  30.431  12.851
40390W        W12650  29.510  11.668   0.294
40391W        W12651   1.921  17.667  11.467
40392W        W12652  15.732  14.212  10.995
40393W        W12653  20.569   2.266   1.313
40394W        W12654  17.117  21.231   4.141
40395W        W12655  40.044  39.921  11.033
40396W        W12656  38.043  14.305   1.901
40397W        W12657   7.754  37.017   4.117
40398W        W12658  26.482  11.710  10.979
40399W        W12659  42.012  42.891   0.363
40400W        W12660  27.477  31.579   0.728
40401W        W12661  17.273  33.574   4.336
40402W        W12662  24.194   6.912   2.841
40403W        W12663  16.100   8.328   4.218
40404W        W12664   0.373  42.356   4.176
40405W        W12665  26.016  19.283   1.387
40406W        W12666  23.679   6.325  10.589
40407W        W12667   2.390   7.665   1.278
40408W        W12668  24.651  32.593  14.876
40409W        W12669  22.073  33.025  10.500
40410W        W12670  41.887  37.933   1.850
40411W        W12671  17.647  20.592  13.043
40412W        W12672  30.507  20.580  12.345
40413W        W12673  12.742  21.091  13.530
40414W        W12674  25.660   9.847  11.600
40415W        W12675  35.875   0.847   1.795
40416W        W12676   2.469  38.011   4.248
40417W        W12677  44.964  35.499  11.378
40418W        W12678  41.441  44.340  14.846
40419W        W12679  40.003  17.106   4.294
40420W        W12680  20.709  34.570   4.332
40421W        W12681   8.769   3.877  12.950
40422W        W12682  31.915  24.158  14.400
40423W        W12683  17.555  36.532   4.117
40424W        W12684  36.915  11.790  12.400
40425W        W12685  23.069  36.041  14.008
40426W        W12686  43.479  27.177   4.133
40427W        W12687  27.648  17.172  13.055
40428W        W12688  36.919  32.454   0.799
40429W        W12689  11.243  38.545  14.494
40430W        W12690  11.188  16.271  14.485
40431W        W12691  23.601  24.508   0.259
40432W        W12692  39.361  36.903  12.089
40433W        W12693  15.597   6.350   4.201
40434W        W12694  22.565  44.408  12.427
40435W        W12695  21.258  38.964  12.479
40436W        W12696   1.889  29.500  11.953
40437W        W12697  38.555  24.119  11.469
40438W        W12698   0.829  14.687   1.750
40439W        W12699  27.113  34.924   2.892
40440W        W12700  43.009  17.602   0.784
40441W        W12701   1.460   3.895  12.954
40442W        W12702  14.294  36.885  13.872
40443W        W12703  12.688  29.452   1.256
40444W        W12704  38.866  19.744  10.066
40445W        W12705   5.374   6.249  13.903
40446W        W12706  42.007  17.105  13.468
40447W        W12707  35.565  30.941   1.221
40448W        W12708   4.359  21.136  11.512
40449W        W12709   8.272  40.817   4.155
40450W        W12710  10.163  18.096  10.101
40451W        W12711  36.375  35.857   1.354
40452W        W12712   1.254  44.420   2.229
40453W        W12713  24.188  32.010  12.414
40454W        W12714  20.656   4.431  14.377
40455W        W12715  23.654  35.041   4.227
40456W        W12716   3.360  18.190   2.254
40457W        W12717  25.039  28.485   2.761
40458W        W12718   3.785  36.989  12.443
40459W        W12719  43.765  42.978  13.897
40460W        W12720  14.311   9.382   0.284
40461W        W12721  20.251  13.140  14.448
40462W        W12722   7.677   1.952  14.309
40463W        W12723  12.690  36.531   1.886
40464W        W12724  27.059  41.899   4.820
40465W        W12725  32.901  23.526   0.437
40466W        W12726  40.462   7.903  10.090
40467W        W12727  29.534  23.220  11.929
40468W        W12728  17.741  32.507   3.374
40469W        W12729  22.595  29.983  13.871
40470W        W12730  35.088  42.914   0.380
40471W        W12731  36.424  37.505   0.822
40472W        W12732   6.235  16.129   3.338
40473W        W12733   2.818   6.274   1.865
40474W        W12734  22.087  44.469   2.693
40475W        W12735  44.889  11.351   4.693
40476W        W12736   3.403  16.100   2.315
40477W        W12737  39.515  43.008  13.495
40478W        W12738  27.604   1.277  11.953
40479W        W12739  29.648  16.615   3.652
40480W        W12740  11.194  25.625   0.778
40481W        W12741  31.919  28.563  11.471
40482W        W12742   9.214  15.112  11.976
40483W        W12743  24.511  13.237   2.860
40484W        W12744  36.457  39.939  13.043
40485W        W12745  27.173  27.997   3.354
40486W        W12746  21.574  34.940   3.774
40487W        W12747   0.262  22.186   1.900
40488W        W12748  26.506   4.870   3.277
40489W        W12749  25.520  29.660   4.302
40490W        W12750  13.107  29.493  11.608
40491W        W12751  40.406  10.263   5.207
40492W        W12752   8.270  17.297  10.940
40493W        W12753  26.101  31.009  12.050
40494W        W12754  31.000  37.463   2.267
40495W        W12755  31.505  35.411  10.583
40496W        W12756  14.340   7.889  13.474
40497W        W12757  30.580  42.959   3.652
40498W        W12758  35.059  13.707   3.796
40499W        W12759  14.145  14.809  13.313
40500W        W12760  13.239   4.716   1.931
40501W        W12761   2.954  43.994  13.949
40502W        W12762  21.092   5.860   4.267
40503W        W12763  34.990  22.694   3.711
40504W        W12764  30.007  25.493   0.462
40505W        W12765  23.177  12.205  13.396
40506W        W12766  10.252  44.914  11.065
40507W        W12767   2.320  13.804  11.432
40508W        W12768  22.571  39.885  10.636
40509W        W12769  31.507  11.242  12.442
40510W        W12770  25.666  11.816  13.940
40511W        W12771   9.784  25.538   2.265
40512W        W12772   8.803  19.613   0.388
40513W        W12773  10.823   4.883   2.683
40514W        W12774   5.912  20.681  12.916
40515W        W12775  42.783  18.117  11.895
40516W        W12776  24.686  11.185  10.999
40517W        W12777  24.126  42.024   3.332
40518W        W12778  36.531   5.368  11.588
40519W        W12779   6.293  15.729   5.167
40520W        W12780  15.721  43.514  13.415
40521W        W12781   3.857  14.293   1.748
40522W        W12782  20.535   6.700   2.259
40523W        W12783  23.987   1.483  13.500
40524W        W12784  25.659  44.761  13.862
40525W        W12785  29.661  17.289   2.759
40526W        W12786  40.032  28.450   0.742
40527W        W12787  24.043   9.307  13.899
40528W        W12788  36.587  23.992   0.295
40529W        W12789   0.843  16.301  10.959
40530W        W12790  36.854  21.693   4.309
40531W        W12791  36.347  12.848   1.236
40532W        W12792  27.515   0.902  10.948
40533W        W12793   6.383  18.186  14.028
40534W        W12794  33.421  26.677   2.867
40535W        W12795  44.341  40.403  14.807
40536W        W12796  16.200   6.815  11.067
40537W        W12797  33.428  28.459   0.259
40538W        W12798   4.323   9.772   0.390
40539W        W12799   5.819  39.372   2.670
40540W        W12800  30.482   9.862   2.878
40541W        W12801   3.396  23.552  10.631
40542W        W12802  27.457  40.343  11.406
40543W        W12803  32.991  41.490   2.696
40544W        W12804  16.200  39.503   4.319
40545W        W12805  21.544  39.051  10.890
40546W        W12806  41.367   0.389  10.573
40547W        W12807   2.959  43.772   0.922
40548W        W12808  10.194  39.865  10.935
40549W        W12809  31.474   7.364  11.388
40550W        W12810  18.064  13.755  11.443
40551W        W12811  10.807  33.424  10.159
40552W        W12812   3.719  33.017  10.491
40553W        W12813  37.571  38.439   3.213
40554W        W12814   0.920   3.907  12.957
40555W        W12815  30.656  14.280   4.831
40556W        W12816  19.749  43.849   2.324
40557W        W12817  34.922  16.102  12.022
40558W        W12818   6.399  22.685   3.688
40559W        W12819  43.001  40.964   2.276
40560W        W12820   9.194  43.286  10.560
40561W        W12821  41.809  18.598  11.466
40562W        W12822   7.715  29.155   2.892
40563W        W12823   0.265  27.513   3.807
40564W        W12824  28.082   1.382   4.266
40565W        W12825  25.185  27.085   1.445
40566W        W12826  27.051  12.803   3.760
40567W        W12827  32.619  35.587   3.246
40568W        W12828   1.823  44.784  14.958
40569W        W12829   2.388  42.801  12.474
40570W        W12830  32.549   9.279   0.377
40571W        W12831  12.211  33.453  11.446
40572W        W12832  33.471   1.968   4.294
40573W        W12833  31.945  20.544  13.852
40574W        W12834   0.472   5.904   4.202
40575W        W12835  23.037  39.818  13.000
40576W        W12836  43.422  12.248  13.380
40577W        W12837   9.729   0.387  13.811
40578W        W12838   3.427   5.415   1.815
40579W        W12839  40.515  38.493   0.793
40580W        W12840   2.879  36.390  11.477
40581W        W12841   5.373  14.117  14.437
40582W        W12842  13.774   2.927   4.708
40583W        W12843  30.073  35.493   1.443
40584W        W12844  20.575  44.833  13.417
40585W        W12845  21.076  14.256   1.821
40586W        W12846   8.734  21.704  14.355
40587W        W12847   7.312  23.025   0.407
40588W        W12848  12.769  28.155  14.996
40589W        W12849   9.664  36.995  14.303
40590W        W12850  12.847  39.988   2.729
40591W        W12851  34.959  25.052   1.332
40592W        W12852   8.340  40.898   3.631
40593W        W12853  34.880  10.272   2.363
40594W        W12854  34.418  28.081   3.273
40595W        W12855  30.029  36.948   2.346
40596W        W12856  15.750  41.920   4.690
40597W        W12857  25.482  31.935   2.202
40598W        W12858  12.723  20.145   1.352
40599W        W12859  21.548  19.240   4.220
40600W        W12860  33.077   9.197   1.332
40601W        W12861  34.112  19.195   0.885
40602W        W12862  43.352  24.978  12.503
40603W        W12863  14.672  35.079  14.807
40604W        W12864  42.514  36.473   2.682
40605W        W12865  16.216  29.168   2.847
40606W        W12866  42.518  22.682  11.058
40607W        W12867  44.927  43.502   0.782
40608W        W12868  15.618  44.006   4.604
40609W        W12869  18.226   8.709  12.877
40610W        W12870  28.984   5.920  14.836
40611W        W12871  33.919  25.535   1.922
40612W        W12872  29.160  29.091  10.938
40613W        W12873  23.235  36.387   3.269
40614W        W12874  18.120  23.210   0.914
40615W        W12875  24.080  14.689   4.795
40616W        W12876  22.713  24.110   0.781
40617W        W12877  21.632  26.684   2.313
40618W        W12878  16.143  44.275   2.674
40619W        W12879  14.163  21.040  12.402
40620W        W12880  22.205  33.606  10.986
40621W        W12881  30.578   2.729   0.765
40622W        W12882  31.938  19.685  12.826
40623W        W12883  19.260  43.444  12.966
40624W        W12884  43.995  40.969   4.298
40625W        W12885  39.455   5.919   1.372
40626W        W12886   7.820  38.542  12.561
40627W        W12887  35.592  30.162  12.992
40628W        W12888  32.991  36.063   4.617
40629W        W12889  15.785   1.825   1.804
40630W        W12890  19.651  26.001  12.976
40631W        W12891  42.984   5.388   0.913
40632W        W12892  10.289  22.590  12.071
40633W        W12893  37.990  20.058  14.028
40634W        W12894   2.248   2.941  11.989
40635W        W12895  10.814   2.393  11.080
40636W        W12896  24.563  35.391   3.316
40637W        W12897   9.725  23.690  11.442
40638W        W12898   3.937  23.032  14.430
40639W        W12899  10.721  13.730   4.290
40640W        W12900  39.029  16.725  13.514
40641W        W12901  22.651  35.967   0.804
40642W        W12902   7.305  13.222   3.646
40643W        W12903  41.878  32.082   1.410
40644W        W12904  28.082  34.027  13.404
40645W        W12905  27.049  26.539   0.368
40646W        W12906  32.947   7.345  10.583
40647W        W12907   0.364  32.960   4.162
40648W        W12908  40.002  27.086   0.433
40649W        W12909  30.526  35.962  11.573
40650W        W12910   0.279  12.236  12.832
40651W        W12911  14.801  34.478  13.954
40652W        W12912  11.176  34.025   2.188
40653W        W12913  28.678  19.275   4.705
40654W        W12914  20.174  34.527  14.828
40655W        W12915  34.449   2.826   1.768
40656W        W12916  24.593  38.015   0.431
40657W        W12917  44.907  14.737   2.688
40658W        W12918   6.751  43.359  13.514
40659W        W12919  14.243   3.279  10.508
40660W        W12920  23.646  16.701   4.803
40661W        W12921  28.010   4.719  11.006
40662W        W12922  24.180  14.259   3.172
40663W        W12923  41.943  40.919  10.497
40664W        W12924  32.411  17.119   3.674
40665W        W12925  23.674  27.610  10.428
40666W        W12926  43.842  18.255  11.489
40667W        W12927   1.809   4.857   0.851
40668W        W12928  37.371   2.834  10.581
40669W        W12929  38.840   9.309   5.298
40670W        W12930   6.921  22.549  11.415
40671W        W12931  20.097  16.773  12.474
40672W        W12932  19.244  21.140   3.302
40673W        W12933  13.708  39.840  14.022
40674W        W12934  25.709  37.909  10.524
40675W        W12935  25.526  11.358  13.949
40676W        W12936  21.670  34.435  14.812
40677W        W12937  16.580  27.193   2.759
40678W        W12938  14.180  11.827   1.228
40679W        W12939  44.824  14.830  14.376
40680W        W12940   6.701  35.599  10.566
40681W        W12941  42.021   8.229   2.282
40682W        W12942  22.054  19.642  13.917
40683W        W12943   6.702  19.282   4.265
40684W        W12944   7.338  19.774   0.248
40685W        W12945  35.861   4.704   1.383
40686W        W12946  34.006  26.501   1.843
40687W        W12947   7.727  40.988   1.735
40688W        W12948   3.936   0.750  11.885
40689W        W12949  18.582   5.855  12.482
40690W        W12950  25.962  15.613  12.505
40691W        W12951  19.735  33.523  11.542
40692W        W12952  40.542  31.408  14.388
40693W        W12953  28.551  31.484  14.001
40694W        W12954  15.620   6.427  13.395
40695W        W12955  29.127  27.479  14.793
40696W        W12956   8.305   8.167  11.941
40697W        W12957   4.371  34.374  14.831
40698W        W12958  14.321  36.064   4.767
40699W        W12959   6.817  13.305   2.178
40700W        W12960   7.303  33.882   3.372
40701W        W12961  11.687  40.039   0.828
40702W        W12962  10.364  32.505  11.085
40703W        W12963   6.251   7.800  13.337
40704W        W12964   1.408   3.428  12.571
40705W        W12965  30.066   5.219   4.345
40706W        W12966  32.956  19.092  14.915
40707W        W12967   1.267  16.301   4.224
40708W        W12968   4.859  39.374   0.314
40709W        W12969  20.229  34.594  12.983
40710W        W12970  14.302  15.757  10.007
40711W        W12971   5.845  16.249   2.286
40712W        W12972  26.971  44.882  12.459
40713W        W12973   2.414  36.939  14.959
40714W        W12974   4.253  44.854  11.530
40715W        W12975  23.997  35.566   2.746
40716W        W12976  42.367  36.559   3.284
40717W        W12977  25.986   8.800  10.948
40718W        W12978  10.677  26.135   3.231
40719W        W12979  15.691  34.039  12.386
40720W        W12980  24.640  31.148   1.230
40721W        W12981  35.042   6.877  11.611
40722W        W12982  30.980  21.150  12.364
40723W        W12983  13.774  43.765  14.378
40724W        W12984  40.416  23.593   0.447
40725W        W12985   9.267  14.631   1.839
40726W        W12986  15.622  28.947   0.445
40727W        W12987  17.299   5.370   4.150
40728W        W12988  38.890  42.284  14.798
40729W        W12989  30.012  18.123   1.870
40730W        W12990  35.385  19.752  10.634
40731W        W12991  27.664  29.666   0.789
40732W        W12992  42.430  20.106   1.907
40733W        W12993  36.349  13.829  10.977
40734W        W12994  30.976   8.761   1.335
40735W        W12995  21.127  11.272   3.275
40736W        W12996  32.049  41.306  11.978
40737W        W12997  21.746  24.608  14.425
40738W        W12998  10.382   9.856  14.465
40739W        W12999  15.675   7.346   1.213
40740W        W13000  25.639  18.163   3.631
40741W        W13001  23.513  27.690  14.907
40742W        W13002   8.213   1.287   4.798
40743W        W13003  27.063  27.179   4.300
40744W        W13004  25.213  37.853   0.841
40745W        W13005   6.313  26.684  13.960
40746W        W13006   1.444  36.403  14.304
40747W        W13007  36.864  40.008   0.856
40748W        W13008  22.027   8.733   3.155
40749W        W13009  23.088  17.080   1.280
40750W        W13010  36.406   0.494  11.954
40751W        W13011  25.499   8.368  12.999
40752W        W13012  32.515  40.001   4.189
40753W        W13013  26.199  16.094   1.372
40754W        W13014  37.470  25.553   4.350
40755W        W13015  33.899  28.961  11.049
40756W        W13016  41.868  40.327  12.992
40757W        W13017  24.172  23.125   1.700
40758W        W13018  23.122  34.987   3.778
40759W        W13019  44.894  41.340  13.449
40760W        W13020  32.052  33.498   0.242
40761W        W13021  44.879  27.088   3.637
40762W        W13022   5.356  23.582  13.975
40763W        W13023  39.390  31.477  13.024
40764W        W13024  27.582  20.746  10.941
40765W        W13025  28.047  39.376   4.171
40766W        W13026  37.011   5.762   2.674
40767W        W13027   5.387  32.508   3.215
40768W        W13028  10.689  21.517  10.466
40769W        W13029  26.038  16.256   1.881
40770W        W13030   8.835  10.165   1.404
40771W        W13031  26.014   9.383  13.369
40772W        W13032  10.720   4.442   4.658
40773W        W13033   2.259  11.845   0.274
40774W        W13034  40.525  40.430   5.195
40775W        W13035  38.827  32.505  13.885
40776W        W13036  25.665   9.858  12.081
40777W        W13037  10.867  24.137   4.628
40778W        W13038  30.618  28.139  13.846
40779W        W13039  30.652  44.761   1.266
40780W        W13040  29.471  11.721   2.398
40781W        W13041  38.391  19.188  12.522
40782W        W13042  36.499  30.496  13.548
40783W        W13043  31.453  40.526  14.852
40784W        W13044  13.815  38.868  12.364
40785W        W13045  24.513  12.710   2.186
40786W        W13046  31.404  29.125  14.397
40787W        W13047  28.604   1.782  11.425
40788W        W13048  21.626  26.053  14.285
40789W        W13049  28.994  36.562   3.781
40790W        W13050   8.228   0.842  12.050
40791W        W13051  19.559  32.957  12.004
40792W        W13052  43.897  41.834   4.276
40793W        W13053  23.546  26.642  12.828
40794W        W13054  11.735  24.584  14.025
40795W        W13055  11.781  36.348  14.489
40796W        W13056  10.340  36.393   4.806
40797W        W13057  41.817  42.293   3.732
40798W        W13058   9.734   9.704  12.368
40799W        W13059  10.236   9.217   1.769
40800W        W13060  18.097   7.760   4.312
40801W        W13061  42.281  29.115  13.371
40802W        W13062  20.122   9.389   0.278
40803W        W13063  39.506   3.753  11.556
40804W        W13064  43.878   6.807  14.352
40805W        W13065  26.027  18.065   3.185
40806W        W13066  34.578   4.828  13.360
40807W        W13067  44.901  34.869  11.506
40808W        W13068   8.834  29.611  14.031
40809W        W13069  40.946  14.664  12.890
40810W        W13070  29.150  32.566   1.214
40811W        W13071  29.073   8.778   4.793
40812W        W13072  43.007   7.847   2.732
40813W        W13073  29.071  25.681  13.437
40814W        W13074  39.812  11.273  12.956
40815W        W13075  42.992  30.647  14.990
40816W        W13076   3.399  40.469  10.966
40817W        W13077  43.313  25.635  11.485
40818W        W13078  36.523  13.634   2.894
40819W        W13079   7.402  22.137   3.227
40820W        W13080  19.610  36.363   2.390
40821W        W13081  37.421  42.411   4.713
40822W        W13082  10.285  10.864   3.148
40823W        W13083  38.905  34.908  14.813
40824W        W13084  13.188  39.407   1.832
40825W        W13085  22.739  25.481  10.956
40826W        W13086   8.667  36.593   2.674
40827W        W13087  10.720  23.111   1.340
40828W        W13088  24.634  15.212   1.915
40829W        W13089  37.022  26.581   3.289
40830W        W13090  11.740   5.815   1.289
40831W        W13091  28.050  31.016   0.383
40832W        W13092  42.458   1.803   1.421
40833W        W13093  26.197  31.498   3.148
40834W        W13094  15.780  24.526  10.645
40835W        W13095  10.718  25.153  13.825
40836W        W13096   4.702   3.727   0.433
40837W        W13097   0.429  14.315   4.196
40838W        W13098   2.831  44.377  14.427
40839W        W13099  35.600  26.147  13.423
40840W        W13100  42.387  41.377  11.982
40841W        W13101  43.450  12.340   3.751
40842W        W13102   6.311  18.600   5.260
40843W        W13103  26.204   8.692  10.062
40844W        W13104   7.741  14.210   2.806
40845W        W13105  24.163  20.615   5.203
40846W        W13106   5.717  31.983  11.064
40847W        W13107  42.848   7.788   5.105
40848W        W13108  17.767  19.594   4.740
40849W        W13109   7.198  30.609  11.996
40850W        W13110   0.945   3.269   3.643
40851W        W13111  21.689  36.409   2.211
40852W        W13112  22.184  28.581   5.235
40853W        W13113  30.016  29.662   5.180
40854W        W13114  26.026  31.480  11.440
40855W        W13115  10.711   6.228  13.831
40856W        W13116  34.571   4.795  11.482
40857W        W13117  16.698   3.941  14.462
40858W        W13118  36.527  41.826   4.702
40859W        W13119  30.619  19.558  12.455
40860W        W13120  39.518  33.532  11.504
40861W        W13121  27.012  23.726  13.795
40862W        W13122   8.743  42.882  13.451
40863W        W13123  21.118  28.524  11.889
40864W        W13124   5.251  26.176   4.828
40865W        W13125  26.586  26.495  13.983
40866W        W13126  41.470  18.675   2.336
40867W        W13127  17.283   1.303  10.978
40868W        W13128   0.374  40.312  12.485
40869W        W13129  12.206  35.394   3.716
40870W        W13130  40.352   7.392  11.604
40871W        W13131  39.948  17.243   3.213
40872W        W13132  18.636  29.989  12.510
40873W        W13133  44.855   3.320   2.181
40874W        W13134  15.583  27.609   2.776
40875W        W13135  22.220   0.435   0.379
40876W        W13136  18.196   1.356   2.218
40877W        W13137   4.845   8.259   4.802
40878W        W13138  14.746  43.372  12.067
40879W        W13139  41.818   6.365   0.255
40880W        W13140  14.161   9.861   4.198
40881W        W13141  10.750  43.882  11.475
40882W        W13142  19.719  21.254   0.456
40883W        W13143  24.039  19.131   9.934
40884W        W13144  39.846  25.100   2.332
40885W        W13145  11.815  28.480   3.282
40886W        W13146   5.272   2.333   4.727
40887W        W13147  42.803  44.437   4.620
40888W        W13148  34.494  26.614   4.234
40889W        W13149  22.139   6.242  12.465
40890W        W13150   1.301  34.869   2.868
40891W        W13151  14.302   5.879  11.049
40892W        W13152  11.626  25.126  11.117
40893W        W13153  27.102  27.587  10.969
40894W        W13154   8.180  31.901  12.049
40895W        W13155  33.955  27.975   4.789
40896W        W13156  10.661  17.706   2.902
40897W        W13157  38.366  41.499  14.973
40898W        W13158  31.926  26.983   3.180
40899W        W13159  23.498  26.154   3.651
40900W        W13160  10.356  38.514   3.825
40901W        W13161  33.068  11.183   3.763
40902W        W13162  41.889   6.230  10.906
40903W        W13163   2.949  23.711  13.049
40904W        W13164  14.790   2.874   0.743
40905W        W13165   4.903  27.014   1.832
40906W        W13166  18.222  35.578   1.430
40907W        W13167  40.013  10.359  10.417
40908W        W13168   9.245  21.172  13.815
40909W        W13169   7.758  43.936  10.557
40910W        W13170   9.258   3.216  12.512
40911W        W13171  13.672  42.845  12.977
40912W        W13172  39.964  33.590   2.781
40913W        W13173  10.805  38.412   3.864
40914W        W13174  12.240  29.439  13.028
40915W        W13175   0.479  38.408  10.903
40916W        W13176  23.137  33.458  10.444
40917W        W13177  32.526   4.755   1.841
40918W        W13178  15.253  40.322   0.727
40919W        W13179  17.100  11.215  13.486
40920W        W13180  40.043  30.555  10.545
40921W        W13181  20.751   0.429   1.372
40922W        W13182  17.684  29.484  13.906
40923W        W13183  10.204  25.474   0.435
40924W        W13184  22.224  39.325  13.338
40925W        W13185   0.927  38.063   2.386
40926W        W13186  44.970  20.198   4.836
40927W        W13187  17.561  36.359   2.387
40928W        W13188  39.976  11.725   0.349
40929W        W13189  24.693   1.846   0.308
40930W        W13190  19.691   2.799  13.864
40931W        W13191   6.250  41.482   1.784
40932W        W13192  31.411  41.395   4.698
40933W        W13193   2.766  42.330   0.407
40934W        W13194  42.801  10.873  12.959
40935W        W13195   9.286  35.979  11.863
40936W        W13196   8.880  43.855   4.259
40937W        W13197  23.226  40.801   1.772
40938W        W13198  38.342  41.512   1.302
40939W        W13199  28.442  32.934  13.996
40940W        W13200  21.240  16.172  11.868
40941W        W13201  40.014   5.738  10.431
40942W        W13202  22.622  42.406  13.311
40943W        W13203  35.051  32.526  11.074
40944W        W13204  33.983  20.182   3.785
40945W        W13205  27.174  35.939   3.182
40946W        W13206   2.770  20.175  11.537
40947W        W13207  29.439   0.331   2.689
40948W        W13208   7.343   5.885   2.747
40949W        W13209   1.939  42.458   0.411
40950W        W13210  22.553   1.962   4.618
40951W        W13211   4.744  40.393   2.723
40952W        W13212   0.468   3.774   0.819
40953W        W13213  39.035  35.003  10.600
40954W        W13214  37.568   2.725  13.351
40955W        W13215  17.652  16.788  14.437
40956W        W13216  17.761  23.136   3.697
40957W        W13217  22.035  39.010   3.819
40958W        W13218   9.212  34.908  12.943
40959W        W13219   8.765   8.341  10.498
40960W        W13220  27.081   9.858   3.319
40961W        W13221  17.595  22.044  12.074
40962W        W13222   8.253   4.361  12.500
40963W        W13223   2.376   8.792  14.827
40964W        W13224   6.276   5.932  11.087
40965W        W13225  14.665  36.371   4.174
40966W        W13226  35.446  35.930   2.843
40967W        W13227   7.832  20.676  14.000
40968W        W13228   3.451   3.731   4.745
40969W        W13229  32.418   5.837  10.533
40970W        W13230  19.582  36.468   1.275
40971W        W13231   3.864  17.094   2.230
40972W        W13232  12.174   3.398  13.453
40973W        W13233  35.394  22.684   1.733
40974W        W13234  31.949  19.612  13.820
40975W        W13235  30.601  36.429  11.461
40976W        W13236  14.325  23.733  12.052
40977W        W13237  37.019  34.985   3.372
40978W        W13238   2.410  16.609  11.025
40979W        W13239  14.818  17.649  11.555
40980W        W13240   5.834  43.777  10.427
40981W        W13241  25.604  33.015   3.206
40982W        W13242  26.516  27.447  13.041
40983W        W13243  30.095   1.368  11.550
40984W        W13244  41.792  13.646  10.997
40985W        W13245  11.235  20.627   3.344
40986W        W13246  18.600   9.252   1.928
40987W        W13247  37.082   1.822  12.972
40988W        W13248  18.666  13.188   4.234
40989W        W13249  23.014  28.021   4.614
40990W        W13250  10.348   1.365   2.238
40991W        W13251   2.725  27.007   4.123
40992W        W13252  21.658  26.647  14.412
40993W        W13253   1.401  10.732  12.346
40994W        W13254  31.053   8.361   0.412
40995W        W13255  35.561  16.630  12.517
40996W        W13256  40.839  24.549   3.842
40997W        W13257  19.079   8.877   5.273
40998W        W13258  20.136  31.517  11.090
40999W        W13259  11.358  27.100   2.384
41000W        W13260  23.720   2.394  13.323
41001W        W13261  19.153   9.665   4.293
41002W        W13262   4.297  34.883  10.591
41003W        W13263  34.921  15.246  14.814
41004W        W13264  19.253  37.022  12.546
41005W        W13265  30.140  30.599   2.414
41006W        W13266  20.666  31.641  10.545
41007W        W13267   4.821  11.755   5.221
41008W        W13268  12.810  34.410  11.973
41009W        W13269  42.389  36.848   2.808
41010W        W13270  30.975  42.975   2.717
41011W        W13271  44.403  21.198   3.836
41012W        W13272  36.869  33.400   4.693
41013W        W13273   6.329  26.080  13.412
41014W        W13274  13.739   4.723  11.528
41015W        W13275  27.058  26.528  13.381
41016W        W13276  29.476  22.572  12.868
41017W        W13277  37.065  31.622  13.791
41018W        W13278  25.138  27.591  12.348
41019W        W13279  24.205  29.620  12.856
41020W        W13280  16.744  27.069   2.324
41021W        W13281  10.214   9.826  10.999
41022W        W13282  34.451  17.183   4.265
41023W        W13283   9.838  28.958  11.601
41024W        W13284  39.036  17.606  10.448
41025W        W13285  44.307  22.035  11.010
41026W        W13286  16.804  15.742   0.730
41027W        W13287  40.814  34.050   4.251
41028W        W13288   3.259  30.459   2.781
41029W        W13289  14.671   3.312   1.294
41030W        W13290  29.488   0.382  11.442
41031W        W13291  40.406  20.141   0.449
41032W        W13292  13.767  31.100  13.925
41033W        W13293  36.884  33.475  10.565
41034W        W13294  42.841   4.230  12.954
41035W        W13295   9.185  30.011   3.273
41036W        W13296  28.645   0.453   0.473
41037W        W13297  42.949  23.185   0.774
41038W        W13298  22.713  23.664   0.256
41039W        W13299  26.050  41.977  14.026
41040W        W13300   6.194   4.741  10.568
41041W        W13301  18.644  30.590   4.673
41042W        W13302  25.985   9.387  14.451
41043W        W13303  21.514   2.256   3.708
41044W        W13304  32.454  34.424  14.377
41045W        W13305   8.403   6.371   4.303
41046W        W13306  11.332   6.718  12.956
41047W        W13307   0.936  22.999  12.493
41048W        W13308  14.307  15.203   0.450
41049W        W13309  12.828  27.488   0.365
41050W        W13310  44.366  30.927  14.809
41051W        W13311  13.174   1.344   1.754
41052W        W13312   1.455  28.450  10.907
41053W        W13313  33.894  34.868   3.288
41054W        W13314  32.604  18.686  13.480
41055W        W13315  37.514  10.757   3.363
41056W        W13316  33.037  38.859  13.487
41057W        W13317  26.976  30.043  14.452
41058W        W13318  37.898  13.282   1.364
41059W        W13319   5.388  30.909   3.834
41060W        W13320  34.031  24.056   2.359
41061W        W13321  39.836  31.019   0.431
41062W        W13322  20.215  10.813  11.938
41063W        W13323   4.766  38.493  12.460
41064W        W13324  36.953   5.280   0.249
41065W        W13325  40.937  18.703   3.275
41066W        W13326  11.708   4.306   2.817
41067W        W13327  22.528  43.989  14.429
41068W        W13328   5.840   2.350  11.378
41069W        W13329  22.220  22.017  10.069
41070W        W13330  20.753   3.928   2.722
41071W        W13331   9.153  17.580  13.814
41072W        W13332  44.261  39.926  10.031
41073W        W13333  14.111  19.736   9.999
41074W        W13334  42.426  17.239  11.542
41075W        W13335   2.339  11.142  12.936
41076W        W13336  27.167  43.430  13.981
41077W        W13337  19.712  24.653  14.840
41078W        W13338  17.120  21.737  13.800
41079W        W13339  23.124  11.714   2.683
41080W        W13340  19.666  29.159   0.758
41081W        W13341  13.834  19.717   0.863
41082W        W13342  34.983  39.020  13.405
41083W        W13343  44.806  40.396   0.754
41084W        W13344  25.469  44.329   1.408
41085W        W13345  13.241  15.244  12.087
41086W        W13346  24.063  18.618   3.783
41087W        W13347  10.866   2.904  12.959
41088W        W13348  32.550  12.719   2.679
41089W        W13349  21.679  10.853  12.396
41090W        W13350  39.973   8.217   0.356
41091W        W13351  22.522  24.101  12.402
41092W        W13352  25.991   5.305  10.518
41093W        W13353  12.356  19.746  14.997
41094W        W13354  33.563  33.382   1.212
41095W        W13355  21.598  43.270   2.853
41096W        W13356  12.203  26.516  13.931
41097W        W13357  29.130  11.250   2.679
41098W        W13358   1.435   3.398   3.658
41099W        W13359  17.144  12.327   4.672
41100W        W13360  40.836  11.799  11.005
41101W        W13361  16.308  39.864   3.668
41102W        W13362  18.143   8.365   2.273
41103W        W13363  38.007   1.961   4.803
41104W        W13364   9.382  42.866   2.899
41105W        W13365  27.036  14.288  10.907
41106W        W13366  41.433  18.123   1.218
41107W        W13367  36.383  27.017  13.461
41108W        W13368   6.717  26.479  14.347
41109W        W13369  41.368   2.423   2.369
41110W        W13370  22.018  18.176   4.672
41111W        W13371  37.379  38.539  13.373
41112W        W13372  19.677  36.061  12.063
41113W        W13373  39.913   6.896   0.815
41114W        W13374  26.082   5.894  12.973
41115W        W13375   1.905   7.682  14.868
41116W        W13376  13.787  30.431   5.715
41117W        W13377  33.382  18.698  14.308
41118W        W13378  38.460  23.023   3.303
41119W        W13379   9.865  33.993   0.850
41120W        W13380  31.997  15.164  12.509
41121W        W13381  26.162  17.132  10.924
41122W        W13382  18.071  27.197  10.891
41123W        W13383  42.526  42.491  14.485
41124W        W13384  22.031   0.952   2.796
41125W        W13385   8.406   8.766   2.327
41126W        W13386  21.175   0.960   1.912
41127W        W13387  25.062   6.413  13.033
41128W        W13388  10.713  23.031   0.356
41129W        W13389   6.337  10.633   1.445
41130W        W13390  44.826  32.469   3.164
41131W        W13391  40.995   6.857  13.914
41132W        W13392  15.750  42.298   0.407
41133W        W13393  39.382  19.760  10.538
41134W        W13394   5.313  17.638   0.813
41135W        W13395  27.124   3.924  10.936
41136W        W13396   8.861  14.189   2.386
41137W        W13397  38.054  24.108   2.227
41138W        W13398  33.878   2.782  10.610
41139W        W13399  35.603  20.630  12.001
41140W        W13400  26.536  25.528  12.528
41141W        W13401  31.478  19.041   3.346
41142W        W13402  32.637  21.067   0.948
41143W        W13403  17.140  11.270   1.819
41144W        W13404  39.511  44.957  13.836
41145W        W13405  43.316   4.912  14.306
41146W        W13406  39.984  35.381   0.313
41147W        W13407  26.661  39.516  14.996
41148W        W13408  14.339  19.664  10.642
41149W        W13409   5.326  32.110  13.391
41150W        W13410   4.421  35.078  14.900
41151W        W13411  21.696  10.744   0.329
41152W        W13412  34.950  22.140  14.020
41153W        W13413  10.210  16.075   4.680
41154W        W13414  31.625   5.430   4.836
41155W        W13415  12.700  35.498  12.462
41156W        W13416   5.278  25.477   0.398
41157W        W13417  17.584  12.355   0.853
41158W        W13418   2.962   3.268  12.458
41159W        W13419   2.877  35.923   2.790
41160W        W13420  17.764   7.799   2.242
41161W        W13421   9.305   2.935   1.392
41162W        W13422  43.830  15.118  14.955
41163W        W13423  33.615   5.435  14.309
41164W        W13424   5.828  12.845   1.439
41165W        W13425  10.789  44.890  11.520
41166W        W13426  12.206  34.586   0.452
41167W        W13427   7.706  10.715  13.496
41168W        W13428  28.590  38.951  10.970
41169W        W13429   2.751  39.847   0.931
41170W        W13430   9.393   8.356  13.527
41171W        W13431  30.591  25.144  10.948
41172W        W13432  10.704  27.011  10.531
41173W        W13433  34.406  28.486  11.929
41174W        W13434  29.104  24.513  10.469
41175W        W13435  12.352  18.558   2.340
41176W        W13436  39.998  32.049   1.888
41177W        W13437  24.492  14.309  11.595
41178W        W13438   2.417  43.772  14.790
41179W        W13439   5.255  10.347   3.870
41180W        W13440  36.407  27.987   1.445
41181W        W13441  38.973  28.635   3.755
41182W        W13442   9.382  24.585  10.607
41183W        W13443  21.145  26.076   5.756
41184W        W13444  33.530  33.048   3.171
41185W        W13445   1.935  30.003  14.975
41186W        W13446  32.524  41.901   1.881
41187W        W13447  41.810  27.052   1.215
41188W        W13448  32.522  21.097   0.316
41189W        W13449  38.846   4.373  10.633
41190W        W13450   9.690   4.257   2.804
41191W        W13451  42.890   0.259  12.863
41192W        W13452  32.569   2.893   3.641
41193W        W13453   7.722  13.146   0.361
41194W        W13454  15.114  32.464  13.334
41195W        W13455  14.181   8.349   0.484
41196W        W13456  39.865   1.326   0.938
41197W        W13457  10.824  44.380  13.491
41198W        W13458  16.572   9.719   1.777
41199W        W13459   8.820  17.568   4.681
41200W        W13460  27.566   1.799   3.362
41201W        W13461  10.364   9.825   1.846
41202W        W13462  10.152  27.197  13.391
41203W        W13463  14.830  27.131   2.888
41204W        W13464  27.461  11.312  13.468
41205W        W13465  18.079  25.645   4.656
41206W        W13466  31.075  31.152   4.227
41207W        W13467  19.083  41.822   2.829
41208W        W13468  42.954   4.265   1.708
41209W        W13469   5.290  28.526  14.509
41210W        W13470  15.804   8.701  14.818
41211W        W13471  38.485   1.394  14.969
41212W        W13472  44.759  34.533   2.367
41213W        W13473  34.963  23.065  14.301
41214W        W13474   1.758  20.255  12.417
41215W        W13475  17.569  34.587   3.718
41216W        W13476  11.716  34.532  14.344
41217W        W13477  32.095   7.230  12.538
41218W        W13478  43.394  15.765  11.411
41219W        W13479  10.818   8.843   4.605
41220W        W13480  29.925  13.252  14.811
41221W        W13481  41.897  18.566  10.481
41222W        W13482  31.430  37.467   3.691
41223W        W13483  43.997  26.600  13.904
41224W        W13484   1.866  26.996   3.161
41225W        W13485  11.649   3.755  11.998
41226W        W13486  41.309  41.367  13.037
41227W        W13487  34.086  11.214  13.347
41228W        W13488  12.670  21.065  11.609
41229W        W13489  35.096  38.046   1.276
41230W        W13490  13.750  28.630  14.924
41231W        W13491  23.097  20.677  12.343
41232W        W13492  15.127  15.129   3.737
41233W        W13493  28.016  38.047  14.374
41234W        W13494  27.970  27.040   3.315
41235W        W13495   7.394  14.323   3.293
41236W        W13496  23.174   4.422  12.999
41237W        W13497  38.830  31.419   2.849
41238W        W13498  36.067   9.789  10.891
41239W        W13499   3.937  22.501  14.485
41240W        W13500  15.122  40.503  13.523
41241W        W13501   1.281  31.572  13.833
41242W        W13502  12.639  17.677   3.744
41243W        W13503  23.582  29.470  10.628
41244W        W13504  10.183  35.589   5.187
41245W        W13505  25.163  15.688   3.276
41246W        W13506  13.305  33.468  14.812
41247W        W13507   3.755  41.879  12.094
41248W        W13508  43.469  33.388  10.481
41249W        W13509  15.726  25.978  13.894
41250W        W13510  32.953  15.747  12.049
41251W        W13511  37.866  34.041  11.958
41252W        W13512   7.873   2.460   0.937
41253W        W13513   8.308  34.463   3.726
41254W        W13514  21.194   8.692  10.074
41255W        W13515   3.852  39.516   0.430
41256W        W13516  38.972  30.006  11.004
41257W        W13517  43.874   9.652  13.900
41258W        W13518  42.838  43.423   1.751
41259W        W13519  30.546  33.103   2.839
41260W        W13520  16.227   6.387  11.603
41261W        W13521  21.259  32.411   1.363
41262W        W13522   9.195  21.717  13.833
41263W        W13523   3.342   2.298  14.820
41264W        W13524  37.542  42.986   4.607
41265W        W13525  37.532  13.302   4.752
41266W        W13526   7.205  43.346  14.413
41267W        W13527  24.711  16.587  10.580
41268W        W13528  39.919  16.751   4.773
41269W        W13529  35.375  27.167  14.488
41270W        W13530  12.284  34.425   2.264
41271W        W13531   4.394  13.264  12.914
41272W        W13532   4.392  39.034  10.536
41273W        W13533  32.610   1.944   1.357
41274W        W13534  43.376  21.034  10.033
41275W        W13535  25.982  10.176   3.664
41276W        W13536  14.178  19.047  11.886
41277W        W13537  28.992  28.494  14.871
41278W        W13538  32.579   6.820  11.005
41279W        W13539  16.781  40.524  11.017
41280W        W13540   8.809  31.991   1.862
41281W        W13541  31.997   0.912   4.834
41282W        W13542  26.559  24.576   2.285
41283W        W13543  29.447   1.330  12.038
41284W        W13544  21.707  11.297  11.050
41285W        W13545   3.349  14.653   1.812
41286W        W13546  40.807  42.898  14.348
41287W        W13547   3.846  44.790  13.045
41288W        W13548  20.135  23.194   1.759
41289W        W13549   1.967  23.593  11.905
41290W        W13550  14.138  12.806   4.641
41291W        W13551  34.999  34.554  12.359
41292W        W13552  14.184  29.600   1.715
41293W        W13553   8.787  12.738  12.097
41294W        W13554  15.695  39.898  10.492
41295W        W13555  41.834  33.079  12.839
41296W        W13556   6.887  38.861  10.556
41297W        W13557  13.299  36.927   3.182
41298W        W13558  37.994  37.511   4.746
41299W        W13559  35.010  24.203   4.656
41300W        W13560   8.319  30.911   4.783
41301W        W13561   9.191  31.566  13.539
41302W        W13562  28.142  44.455   0.319
41303W        W13563  21.162  17.090   1.397
41304W        W13564  27.526  33.051  14.912
41305W        W13565  43.961  16.661  12.426
41306W        W13566   7.209   4.252  11.553
41307W        W13567  28.058  33.897  14.494
41308W        W13568  23.599  40.429   1.860
41309W        W13569  28.483  15.103   2.731
41310W        W13570  13.298  21.183  13.385
41311W        W13571   8.370  39.861   1.218
41312W        W13572  24.669  26.139  11.101
41313W        W13573  37.459  17.708  10.895
41314W        W13574  19.718   4.877  13.978
41315W        W13575  36.930   3.318   2.799
41316W        W13576  34.976  37.018  12.542
41317W        W13577   7.204  11.192   2.834
41318W        W13578  21.096   1.237   4.222
41319W        W13579  16.574  44.956   1.278
41320W        W13580  12.310  23.026   0.751
41321W        W13581  31.093  26.559  11.444
41322W        W13582  17.617  32.101   4.826
41323W        W13583  24.197  11.756   3.204
41324W        W13584  40.381   5.323  12.408
41325W        W13585   6.759  37.506  11.023
41326W        W13586  35.888   5.361   1.882
41327W        W13587  13.173  32.032   4.613
41328W        W13588  12.221  44.492   2.296
41329W        W13589   5.781  29.496  13.913
41330W        W13590  39.467  29.481  12.365
41331W        W13591  35.373  34.402   0.797
41332W        W13592  28.996  43.317  14.854
41333W        W13593   6.713   7.882   2.684
41334W        W13594   4.719  39.526   1.864
41335W        W13595   0.806  31.470  13.058
41336W        W13596  31.537   3.422   2.663
41337W        W13597  35.059  11.796  13.017
41338W        W13598  32.094  23.213   4.695
41339W        W13599  38.478   1.820  14.317
41340W        W13600  35.081  27.998  12.579
41341W        W13601  36.524  36.025  11.525
41342W        W13602  37.972  32.622  10.893
41343W        W13603  34.868  16.676  11.095
41344W        W13604  10.715   7.762   4.815
41345W        W13605  40.501  35.024   4.300
41346W        W13606  33.556  35.028  14.879
41347W        W13607  43.994  32.038  13.352
41348W        W13608  23.676   7.809   2.729
41349W        W13609  10.284   9.386  11.598
41350W        W13610  43.276  11.279   3.664
41351W        W13611  15.588  22.058  10.468
41352W        W13612  21.611  40.035   1.213
41353W        W13613  22.542  17.606   3.747
41354W        W13614  44.466  15.655   2.870
41355W        W13615   6.886  25.110  12.552
41356W        W13616  28.482  28.563   3.219
41357W        W13617  33.080  27.086  11.395
41358W        W13618  15.745  32.406   2.721
41359W        W13619   8.214  31.030  12.542
41360W        W13620  24.174   6.346  13.523
41361W        W13621  32.445   1.781  12.845
41362W        W13622  18.202  19.117   2.301
41363W        W13623  23.098   7.400  10.914
41364W        W13624  17.216  10.246  14.866
41365W        W13625  23.489  29.102   4.219
41366W        W13626  27.485  25.992  13.395
41367W        W13627  42.818  42.419  14.450
41368W        W13628  28.125  10.283   0.435
41369W        W13629   7.804  35.466  12.832
41370W        W13630  35.931  11.193  12.979
41371W        W13631   8.798  15.707   1.407
41372W        W13632  15.680  34.400  14.803
41373W        W13633  36.969   5.302  13.837
41374W        W13634  33.441  11.295  10.077
41375W        W13635  38.531  21.758   2.348
41376W        W13636  17.778  10.331   3.839
41377W        W13637  32.031  19.173   1.700
41378W        W13638  36.479   2.380  11.866
41379W        W13639  20.636  31.442  12.053
41380W        W13640  39.897   9.207  12.953
41381W        W13641  27.554   6.877   3.667
41382W        W13642  26.623   3.298   1.210
41383W        W13643  24.055  44.937   1.890
41384W        W13644   6.284  38.425  10.916
41385W        W13645  37.480  40.032   4.202
41386W        W13646  19.693  43.413  10.406
41387W        W13647  32.036   0.872  12.825
41388W        W13648   3.755  14.802   1.804
41389W        W13649  13.199   8.846   0.415
41390W        W13650  36.948  23.194  12.378
41391W        W13651  31.587  29.628   3.703
41392W        W13652   6.272  33.049   2.772
41393W        W13653  16.759   8.304   2.207
41394W        W13654   6.717  23.685   1.364
41395W        W13655  12.726  22.107  14.935
41396W        W13656  31.538  36.898  13.950
41397W        W13657  28.977  32.432   9.530
41398W        W13658   0.958  39.867   0.828
41399W        W13659  18.645  36.561  10.990
41400W        W13660  30.112  38.560  14.780
41401W        W13661  26.993  19.131   4.260
41402W        W13662  21.669   6.348   0.834
41403W        W13663  19.656   5.895   9.974
41404W        W13664   3.727  12.850   3.848
41405W        W13665   8.227  18.182   2.287
41406W        W13666  23.215  20.186   3.172
41407W        W13667  37.542  28.528  11.024
41408W        W13668   6.303  34.463   5.296
41409W        W13669  31.531   9.779   0.464
41410W        W13670  14.145  27.111  13.794
41411W        W13671  17.163  26.148   2.278
41412W        W13672  28.129  31.642  11.977
41413W        W13673  27.676  14.308   2.335
41414W        W13674  25.479  14.190   4.326
41415W        W13675  38.336  10.227  14.879
41416W        W13676  18.235  27.570   4.146
41417W        W13677  24.629  44.485   1.361
41418W        W13678   9.804  14.595   3.246
41419W        W13679  24.605   8.668   2.891
41420W        W13680   0.401  18.715  14.768
41421W        W13681   2.770  28.494  13.029
41422W        W13682  21.073  20.091  12.533
41423W        W13683   5.428  30.913   0.926
41424W        W13684  36.553   6.271  12.092
41425W        W13685  17.569  21.520  11.506
41426W        W13686  35.000   8.666   4.724
41427W        W13687   2.281   0.298  10.612
41428W        W13688  36.351  16.776   3.717
41429W        W13689  20.676   2.793   1.735
41430W        W13690  44.318  34.598  14.872
41431W        W13691  44.362  40.525   3.371
41432W        W13692  16.257  39.834   1.302
41433W        W13693  12.177  44.452  11.919
41434W        W13694  29.513  31.451   9.934
41435W        W13695  28.477  40.361   0.435
41436W        W13696   3.720  25.707   4.274
41437W        W13697  14.268  20.623   3.709
41438W        W13698  32.120  27.578  13.366
41439W        W13699   4.212  24.208   0.305
41440W        W13700  11.225   0.872   4.632
41441W        W13701   4.917  22.722   2.261
41442W        W13702   4.788  36.090   4.129
41443W        W13703  42.437  20.525  13.493
41444W        W13704  20.763  43.426  11.929
41445W        W13705  33.077  35.449  14.495
41446W        W13706  13.106  15.685   0.357
41447W        W13707  38.959  40.964  11.934
41448W        W13708  16.188  34.893   2.239
41449W        W13709  27.149   3.403   3.856
41450W        W13710   2.411  38.968  12.907
41451W        W13711  25.485  17.158   1.394
41452W        W13712  43.505  16.702  14.401
41453W        W13713  42.021  10.310   0.439
41454W        W13714  21.693  27.975   4.257
41455W        W13715  22.203  31.488   2.298
41456W        W13716  34.046  13.617  10.413
41457W        W13717  36.406  37.519   5.225
41458W        W13718  44.414  31.519  11.879
41459W        W13719   2.472  42.862   0.419
41460W        W13720  30.930   0.417   2.743
41461W        W13721   1.251  11.756   3.238
41462W        W13722  12.700  42.959  10.496
41463W        W13723  39.911  29.610   1.253
41464W        W13724   9.883  42.473   2.725
41465W        W13725  42.794   3.795   2.199
41466W        W13726   1.958   1.342  13.461
41467W        W13727  36.446   5.894   3.729
41468W        W13728  16.721   3.424   3.285
41469W        W13729  30.641  27.088  12.445
41470W        W13730  24.091  14.594  14.902
41471W        W13731   9.250  14.117   1.392
41472W        W13732   3.216  39.424   0.810
41473W        W13733   0.260  31.993   1.805
41474W        W13734  26.581  32.439  11.431
41475W        W13735  30.998  17.741   4.734
41476W        W13736   8.316  17.618  14.498
41477W        W13737  15.271  11.735  13.542
41478W        W13738  19.248  26.464  11.933
41479W        W13739  12.807  17.065   5.194
41480W        W13740  28.986  42.946  13.434
41481W        W13741  31.011  32.888   2.246
41482W        W13742   8.817  40.384   4.335
41483W        W13743  36.560  36.064   0.431
41484W        W13744   1.825  36.459  13.993
41485W        W13745  15.656   5.841  10.638
41486W        W13746   1.890  14.315   2.180
41487W        W13747  13.224  28.006   3.668
41488W        W13748   9.655  26.020   2.253
41489W        W13749  20.623  41.881   2.243
41490W        W13750   1.761  42.944   0.940
41491W        W13751  26.042   7.279   3.361
41492W        W13752  36.928  28.672   0.773
41493W        W13753  26.672  24.186   1.814
41494W        W13754  43.827  13.624  12.057
41495W        W13755  22.203  19.104  12.554
41496W        W13756  40.310   7.366  12.913
41497W        W13757  16.173  38.343   3.703
41498W        W13758   3.910  28.098  11.954
41499W        W13759  25.984  13.801  10.937
41500W        W13760  39.035  21.176   2.880
41501W        W13761  42.380  19.743   2.857
41502W        W13762  18.545  26.509  13.388
41503W        W13763  43.857  27.999  11.570
41504W        W13764   4.701  41.031  13.515
41505W        W13765  43.433  27.584   1.834
41506W        W13766   5.297   7.884  14.939
41507W        W13767  15.640   3.254   5.091
41508W        W13768   5.854  38.504   3.173
41509W        W13769   6.218  25.665   3.340
41510W        W13770  16.087  31.425  12.989
41511W        W13771  39.317   6.256  10.419
41512W        W13772  27.575  22.636  12.910
41513W        W13773  21.667   2.836   2.411
41514W        W13774  10.849  27.606   0.749
41515W        W13775  20.080   3.755  11.085
41516W        W13776  39.901  12.798  10.450
41517W        W13777   7.335  44.450   4.131
41518W        W13778  31.514  43.797   1.291
41519W        W13779  16.589  22.567  14.920
41520W        W13780  41.507  18.173   0.454
41521W        W13781  29.039   7.901   2.268
41522W        W13782  21.555  27.616  10.586
41523W        W13783  19.135  16.109  13.431
41524W        W13784   7.863   8.272   1.423
41525W        W13785  26.573   8.216   1.334
41526W        W13786  20.541   4.206  14.914
41527W        W13787  41.036  26.515   4.620
41528W        W13788  21.038  37.470   0.870
41529W        W13789  21.089   3.290   4.671
41530W        W13790  25.041  34.453  14.015
41531W        W13791  10.833  16.600  14.505
41532W        W13792   6.359  32.137   0.965
41533W        W13793  22.141   8.296  14.835
41534W        W13794  37.840  41.415   4.229
41535W        W13795  41.899  41.966   2.886
41536W        W13796  38.352  10.765  11.046
41537W        W13797  13.641  27.081  10.623
41538W        W13798   4.413  18.712   0.828
41539W        W13799  26.657   5.693   1.255
41540W        W13800  19.255  12.739   0.928
41541W        W13801   2.404  14.589   3.701
41542W        W13802  39.889   3.430  10.530
41543W        W13803  34.885  40.325   3.260
41544W        W13804  42.305  27.983  14.297
41545W        W13805  34.545  44.456  14.481
41546W        W13806  15.162  10.870  13.957
41547W        W13807  26.701   6.720  14.930
41548W        W13808  15.184  24.599  12.969
41549W        W13809  25.057  22.566   0.902
41550W        W13810  35.074  14.713   4.354
41551W        W13811  27.191  30.153   2.199
41552W        W13812  30.991  36.078  10.018
41553W        W13813  13.761  22.562   4.649
41554W        W13814  43.952  11.326   1.917
41555W        W13815  40.883  33.463  12.067
41556W        W13816  42.980  23.637   0.828
41557W        W13817  18.271  35.866   3.660
41558W        W13818  36.865  22.664  11.970
41559W        W13819   4.895  35.513   2.710
41560W        W13820   4.900  44.475  12.031
41561W        W13821   6.854  41.318  13.379
41562W        W13822  38.855  14.781  12.479
41563W        W13823  25.087  17.667   1.699
41564W        W13824  29.169   8.244   1.740
41565W        W13825   4.939   9.708  14.794
41566W        W13826   1.885  30.488   1.836
41567W        W13827  30.482  29.982  13.804
41568W        W13828  13.180  43.503  10.504
41569W        W13829   3.285  44.891  13.333
41570W        W13830  16.784  23.012  13.486
41571W        W13831   3.278  39.402   3.214
41572W        W13832   9.810  40.864  11.578
41573W        W13833  32.402  27.607  14.777
41574W        W13834  31.931  13.605   2.375
41575W        W13835  19.575   7.674  14.770
41576W        W13836  25.112  41.810  11.931
41577W        W13837  28.092  40.374   5.235
41578W        W13838  10.327  22.105   2.853
41579W        W13839   8.819  13.178   5.294
41580W        W13840  44.395  43.401  12.430
41581W        W13841   3.900  39.029   4.655
41582W        W13842  17.638  38.511   2.736
41583W        W13843  29.057  23.694  12.404
41584W        W13844  10.773  12.192  11.055
41585W        W13845  30.639  28.568  11.552
41586W        W13846  22.021   5.231  13.812
41587W        W13847  17.591  37.364  14.787
41588W        W13848  12.637  30.928   2.890
41589W        W13849   1.842  24.486   4.783
41590W        W13850   5.428  37.865   1.297
41591W        W13851  28.157  18.707   4.119
41592W        W13852  21.199  15.100   4.274
41593W        W13853  18.782  23.128  14.387
41594W        W13854  35.430  37.392   4.309
41595W        W13855  10.723  16.679  11.922
41596W        W13856  29.666  36.083  11.591
41597W        W13857  39.044  41.461  14.289
41598W        W13858  34.083  24.689   4.232
41599W        W13859  41.297  19.251   1.747
41600W        W13860  37.543   4.313  10.021
41601W        W13861  18.174  32.957   3.291
41602W        W13862  36.405  39.017   3.320
41603W        W13863  36.477   7.381   2.374
41604W        W13864  20.634  41.296   4.739
41605W        W13865   2.459   5.295  14.294
41606W        W13866   0.455  24.516   1.842
41607W        W13867  34.584  24.182  11.397
41608W        W13868  20.250  19.071   0.362
41609W        W13869  29.927  28.649   3.256
41610W        W13870  29.116  34.100  10.935
41611W        W13871  41.788  20.142   3.380
41612W        W13872  29.542  32.423  13.378
41613W        W13873  22.223  30.525   1.313
41614W        W13874   6.721  26.655   4.655
41615W        W13875   9.186  35.942   1.322
41616W        W13876  37.917  18.177  14.344
41617W        W13877  12.174   5.839   2.833
41618W        W13878  19.537   7.182   2.888
41619W        W13879  42.499   0.442  10.545
41620W        W13880  22.743  29.430   5.317
41621W        W13881  23.711  38.412  13.503
41622W        W13882  29.460  35.004   2.356
41623W        W13883  29.951  15.282  10.557
41624W        W13884  22.571  37.399   1.931
41625W        W13885   8.162  26.118   5.590
41626W        W13886   6.318  12.617   4.627
41627W        W13887  31.066  36.024   5.186
41628W        W13888   4.358  26.471   2.249
41629W        W13889  29.425  34.383  12.478
41630W        W13890  26.519  44.882  10.427
41631W        W13891  23.211  26.071  12.967
41632W        W13892  13.249  27.691  14.017
41633W        W13893  25.583   0.247  12.831
41634W        W13894   6.917  29.624   4.238
41635W        W13895   8.844  37.362  13.352
41636W        W13896  23.729   6.704  13.525
41637W        W13897   8.402   2.392   3.334
41638W        W13898  33.390  39.061   4.814
41639W        W13899  39.430  41.312   4.254
41640W        W13900   5.338  14.238  11.874
41641W        W13901  25.559  31.584   4.253
41642W        W13902  37.081   5.381  14.775
41643W        W13903  44.372  36.423  10.100
41644W        W13904  17.617  42.939  11.550
41645W        W13905   0.289   8.768   5.108
41646W        W13906  22.600  31.529   0.402
41647W        W13907  14.645  25.163   0.324
41648W        W13908  28.073  37.532   2.808
41649W        W13909  15.590  16.704  10.895
41650W        W13910  30.084  15.329  14.380
41651W        W13911  10.874  12.156   1.724
41652W        W13912  32.054  28.987  11.513
41653W        W13913  40.346  34.569   4.607
41654W        W13914   4.871  31.406  14.398
41655W        W13915  26.696  31.626   1.741
41656W        W13916  15.608  39.878   3.748
41657W        W13917  25.016  22.006   3.212
41658W        W13918  19.130  23.069  13.541
41659W        W13919   7.859  36.496  10.935
41660W        W13920  13.765   7.725   2.412
41661W        W13921  11.297  27.039   0.789
41662W        W13922  19.054  29.484  14.854
41663W        W13923   1.818  40.913   1.439
41664W        W13924  13.234  22.109  13.530
41665W        W13925  28.621  44.462  13.530
41666W        W13926  27.657  36.080   0.332
41667W        W13927   3.334  31.955   4.624
41668W        W13928   0.914   6.889   3.677
41669W        W13929  33.531   3.404  13.335
41670W        W13930  33.954  13.121   4.292
41671W        W13931  23.675  11.838   0.450
41672W        W13932  36.841  40.861  12.351
41673W        W13933   1.874  30.069   0.956
41674W        W13934   4.850  24.575   0.766
41675W        W13935  37.376  26.463   4.302
41676W        W13936  13.108  43.948   0.851
41677W        W13937  34.589  20.170   1.317
41678W        W13938  34.107  23.494  12.083
41679W        W13939  16.303  23.673  14.787
41680W        W13940  16.159  18.627   4.766
41681W        W13941  12.154  17.061  14.023
41682W        W13942  30.161  21.253  13.938
41683W        W13943   3.873   7.675   4.720
41684W        W13944  40.915  26.498   0.919
41685W        W13945  35.920  16.240  12.487
41686W        W13946  22.140  16.781   0.457
41687W        W13947   6.264  16.793  12.866
41688W        W13948   5.921  18.065  12.929
41689W        W13949  34.586  16.642  12.001
41690W        W13950  23.641  30.589  13.031
41691W        W13951  16.242   1.961  14.983
41692W        W13952  16.222  20.227   1.906
41693W        W13953   1.787   1.820  12.503
41694W        W13954  40.458  36.037   2.821
41695W        W13955  35.574   9.260  10.490
41696W        W13956  33.466  25.116  10.478
41697W        W13957  14.681  23.031  13.979
41698W        W13958  24.660  35.894  12.389
41699W        W13959  15.611  25.056   0.398
41700W        W13960  33.496  14.785   4.668
41701W        W13961  24.191  44.436   4.286
41702W        W13962  15.700  10.679  13.363
41703W        W13963  27.525   9.680   1.866
41704W        W13964   7.669   2.905   1.263
41705W        W13965   8.294  44.894   2.663
41706W        W13966  41.949  34.096   4.261
41707W        W13967  13.166  41.496   2.349
41708W        W13968  13.689  19.138   0.951
41709W        W13969  35.459  31.041   4.163
41710W        W13970  24.621  43.880   2.212
41711W        W13971  44.366  44.499   5.248
41712W        W13972   6.799  41.981   0.917
41713W        W13973  13.685  39.810  12.953
41714W        W13974  19.675  44.418  10.613
41715W        W13975  18.783  19.057   2.819
41716W        W13976  14.194  12.820  14.422
41717W        W13977  17.789  31.480   2.213
41718W        W13978  30.161  25.184  14.391
41719W        W13979   8.660  12.248   4.209
41720W        W13980  32.548  18.243   4.354
41721W        W13981   3.314  26.136   3.156
41722W        W13982  25.054   5.193   2.362
41723W        W13983  16.766  32.520   2.877
41724W        W13984  36.080  27.192   2.270
41725W        W13985  34.984   0.468  14.428
41726W        W13986   8.812   1.344  13.367
41727W        W13987   4.855  10.770  11.059
41728W        W13988  43.434  15.602   3.660
41729W        W13989  39.371  39.479  14.485
41730W        W13990  40.888  38.547  14.977
41731W        W13991  16.118   4.918   0.438
41732W        W13992   6.736   8.732   2.880
41733W        W13993  16.801  20.616  11.445
41734W        W13994  23.207  25.970  10.929
41735W        W13995  34.500  27.122  12.961
41736W        W13996  16.135   1.408   1.813
41737W        W13997  32.947  26.172  11.117
41738W        W13998   1.750   3.842  11.960
41739W        W13999   9.690  11.277  13.801
41740W        W14000  16.763   0.390   4.599
41741W        W14001  42.836  13.773  10.555
41742W        W14002  31.621  25.048  14.857
41743W        W14003  12.785  33.424   4.728
41744W        W14004  32.925  19.043   4.599
41745W        W14005   9.648  28.678  11.435
41746W        W14006  19.582  19.119   4.814
41747W        W14007  34.970   7.813  13.989
41748W        W14008  19.269  40.967  11.509
41749W        W14009  20.117  25.014   3.816
41750W        W14010  34.891  14.618  11.074
41751W        W14011   0.832  28.996  14.385
41752W        W14012   8.796  18.087   4.332
41753W        W14013   5.790  39.511   3.353
41754W        W14014  36.869  16.646   0.956
41755W        W14015   4.817  31.929  12.919
41756W        W14016  43.994   8.847   1.219
41757W        W14017  13.213  38.053  13.345
41758W        W14018  20.048  17.163  14.015
41759W        W14019   8.327  16.677   2.243
41760W        W14020  14.773  41.292  11.480
41761W        W14021  10.283  36.446  14.501
41762W        W14022  34.519  39.361   0.259
41763W        W14023  33.496  17.756   0.879
41764W        W14024  40.344  14.606  10.507
41765W        W14025  23.054  33.381   4.120
41766W        W14026  13.610  34.410  12.353
41767W        W14027  26.022  21.637  12.850
41768W        W14028  21.727  25.480  11.967
41769W        W14029  16.089  27.648  11.888
41770W        W14030  44.269  22.648  10.937
41771W        W14031  14.142  35.036  14.902
41772W        W14032  26.051  40.901  11.532
41773W        W14033  19.588  22.587   4.672
41774W        W14034  36.529  25.061  12.977
41775W        W14035  20.549  13.336  10.914
41776W        W14036  23.703   2.757   4.701
41777W        W14037  15.817   6.851  13.508
41778W        W14038  10.813  15.328  12.499
41779W        W14039  27.143   2.336   1.284
41780W        W14040  44.897  17.264   1.807
41781W        W14041  13.171  23.555  14.782
41782W        W14042  11.290  17.136  10.930
41783W        W14043  12.218  20.674  13.985
41784W        W14044  33.025  22.113   3.825
41785W        W14045  39.818   6.382   4.820
41786W        W14046  37.401  19.638   3.819
41787W        W14047  23.580  24.087  14.491
41788W        W14048  10.713  13.112  12.015
41789W        W14049  16.715  35.580   0.387
41790W        W14050  31.107   4.370  13.044
41791W        W14051   8.295  13.155   2.409
41792W        W14052   7.260  31.921   3.837
41793W        W14053  26.517  41.975  13.409
41794W        W14054   7.408  21.027  11.477
41795W        W14055   3.899   4.434  12.551
41796W        W14056  31.900   5.765  13.991
41797W        W14057  31.536   2.383   1.216
41798W        W14058  21.021   5.406  14.473
41799W        W14059  36.518   3.327   1.313
41800W        W14060  26.168   3.813  11.976
41801W        W14061  18.064  38.445  11.373
41802W        W14062   8.281  40.912  13.805
41803W        W14063  39.417  33.466   1.346
41804W        W14064  25.976  17.073  11.556
41805W        W14065   1.759   9.789   1.740
41806W        W14066  11.700  37.468   5.252
41807W        W14067  19.093   4.435  11.536
41808W        W14068  22.245   7.390  11.540
41809W        W14069  16.702   3.255  12.016
41810W        W14070   6.237  28.142   5.228
41811W        W14071  23.694   0.438  14.315
41812W        W14072  26.167  38.068   3.362
41813W        W14073  13.606  36.055  14.393
41814W        W14074  28.068  14.195  12.950
41815W        W14075   2.949   0.906   0.912
41816W        W14076  28.486  32.035   2.318
41817W        W14077  29.665   0.335  12.094
41818W        W14078  34.015  44.461  11.021
41819W        W14079  30.143  24.695   0.448
41820W        W14080  15.714   0.411   3.212
41821W        W14081  21.228  12.237   1.715
41822W        W14082   4.350  26.197   3.700
41823W        W14083  42.812   5.249  12.476
41824W        W14084  27.501  43.460  13.482
41825W        W14085   2.850  28.511  13.394
41826W        W14086  16.648   7.185  13.390
41827W        W14087  13.305  39.339  14.456
41828W        W14088  28.109  33.472   1.815
41829W        W14089  21.070  44.299   5.249
41830W        W14090  14.229  33.583   4.803
41831W        W14091  37.545  17.580   4.603
41832W        W14092  25.082  26.959  12.403
41833W        W14093  30.450   7.345   0.779
41834W        W14094   4.429  15.618   4.790
41835W        W14095  29.107  31.111  13.064
41836W        W14096  18.255  21.591   1.870
41837W        W14097  35.474  42.914  10.929
41838W        W14098   8.174  13.836   2.292
41839W        W14099  44.795  43.461   0.357
41840W        W14100  32.472  27.001  14.317
41841W        W14101  19.609   5.291  10.108
41842W        W14102  27.120  17.070   3.782
41843W        W14103  28.634  32.063  13.469
41844W        W14104  26.993   2.889   3.827
41845W        W14105  17.087  32.554  13.806
41846W        W14106  28.185  36.354  11.532
41847W        W14107  15.585  40.495  14.955
41848W        W14108  13.299  30.573   5.274
41849W        W14109  33.587   1.813  11.502
41850W        W14110   5.897  16.223  11.524
41851W        W14111   4.355  20.557   3.185
41852W        W14112  24.977   8.830   0.327
41853W        W14113  19.231  34.538   1.381
41854W        W14114  16.172   2.897   3.830
41855W        W14115  34.605  40.916   0.258
41856W        W14116  40.500  14.136  12.096
41857W        W14117  23.038  10.351   3.802
41858W        W14118  24.607  37.344   3.181
41859W        W14119  36.087  22.219   1.819
41860W        W14120  11.209   9.802  14.501
41861W        W14121  32.077  43.350  11.479
41862W        W14122   9.692   2.804   1.779
41863W        W14123  16.151  24.553   1.289
41864W        W14124  39.448  18.656   2.701
41865W        W14125  26.058   4.436  12.497
41866W        W14126  26.559  34.012   1.759
41867W        W14127  13.223  42.817  13.041
41868W        W14128  19.111  42.004  14.978
41869W        W14129   5.928  20.245   3.692
41870W        W14130  19.772   7.322   0.804
41871W        W14131  31.548  23.232  14.900
41872W        W14132  33.111  40.981   3.840
41873W        W14133   4.730  24.714  14.923
41874W        W14134   6.231  34.494   4.755
41875W        W14135  43.284   1.252  11.490
41876W        W14136  26.568  36.477  11.415
41877W        W14137  43.969   0.311   4.114
41878W        W14138  14.284   0.858  14.920
41879W        W14139  41.448  26.065   1.442
41880W        W14140  44.451  32.557  12.572
41881W        W14141  32.555   7.736   1.424
41882W        W14142  26.530  24.003   2.254
41883W        W14143  43.499  26.970  14.291
41884W        W14144  29.584  43.989   4.628
41885W        W14145  13.706  35.038   3.645
41886W        W14146  24.612  19.721   3.690
41887W        W14147  19.581  44.919   2.277
41888W        W14148  33.880  12.202  14.957
41889W        W14149  21.548  38.984   4.785
41890W        W14150   2.944  17.239  10.911
41891W        W14151   0.455   7.749  11.047
41892W        W14152  16.655  10.295  14.975
41893W        W14153  12.742  30.601   5.101
41894W        W14154  27.662  30.104   5.283
41895W        W14155  20.076  11.187  10.633
41896W        W14156  24.045   3.375   0.886
41897W        W14157  42.792  12.328   4.612
41898W        W14158  41.028  34.390   1.244
41899W        W14159   7.835  23.046   4.269
41900W        W14160  10.811  11.170  14.283
41901W        W14161  25.589   6.404  12.973
41902W        W14162   8.750  35.039   5.113
41903W        W14163   9.213  27.502   1.752
41904W        W14164  21.175  25.506  14.279
41905W        W14165  19.671  14.307   3.191
41906W        W14166   9.362  33.981   3.274
41907W        W14167  30.076  27.065   2.361
41908W        W14168  10.213  24.157  11.371
41909W        W14169   3.423   9.820  13.912
41910W        W14170  36.916   8.365   3.702
41911W        W14171  37.451  42.011  11.094
41912W        W14172  19.671  32.908  13.899
41913W        W14173  40.036   7.227  12.533
41914W        W14174  17.226  33.076   0.900
41915W        W14175  33.485  12.835   4.663
41916W        W14176  11.159  30.455   0.839
41917W        W14177  38.497  30.012   2.342
41918W        W14178   6.386  13.803  14.372
41919W        W14179  17.272  30.004   3.164
41920W        W14180  26.014   2.807  13.514
41921W        W14181  42.785   1.336   0.906
41922W        W14182  20.625   1.371   0.292
41923W        W14183  41.359  12.137  14.763
41924W        W14184  35.371  14.265   3.731
41925W        W14185   4.938  28.544   0.361
41926W        W14186  22.167  34.496   3.185
41927W        W14187  42.336  33.957   3.212
41928W        W14188   4.723  15.099   0.844
41929W        W14189  10.648  27.598  14.516
41930W        W14190  28.659   9.816   1.814
41931W        W14191  16.577  22.526  13.888
41932W        W14192  29.063   4.782  11.603
41933W        W14193   6.284  14.221  12.349
41934W        W14194  39.315  12.130   3.246
41935W        W14195  34.043  31.029  12.412
41936W        W14196  38.029  18.109   4.758
41937W        W14197  32.032   3.230   5.301
41938W        W14198  38.564  39.377   2.797
41939W        W14199  20.148  43.994   3.231
41940W        W14200  35.448  19.261  14.893
41941W        W14201   5.796   3.448   1.930
41942W        W14202   7.215  39.993  14.885
41943W        W14203  14.592  23.161   4.178
41944W        W14204   0.354  17.113   1.326
41945W        W14205  39.545  19.178  10.449
41946W        W14206   6.208  16.735   1.374
41947W        W14207  14.709  38.474  11.483
41948W        W14208  16.133  17.153   1.872
41949W        W14209  21.745  35.558   0.306
41950W        W14210  17.607  30.024  12.905
41951W        W14211  13.211  27.991   5.162
41952W        W14212  29.048  21.555  13.963
41953W        W14213  38.827  39.930  14.373
41954W        W14214  42.806  38.014  14.020
41955W        W14215  20.273  17.121   2.750
41956W        W14216  13.845  32.505   1.716
41957W        W14217   6.908  26.036  12.897
41958W        W14218  44.345  16.110   3.183
41959W        W14219  16.599  35.059   4.837
41960W        W14220  32.526  31.578   4.161
41961W        W14221  33.965  21.521  14.871
41962W        W14222  29.595   9.675   0.348
41963W        W14223  37.564   3.300  11.072
41964W        W14224   1.481  16.291   0.257
41965W        W14225   2.359  42.294  11.119
41966W        W14226   3.261  30.971   0.253
41967W        W14227  39.450  36.478  12.579
41968W        W14228   7.693  18.589  12.892
41969W        W14229  41.909  22.039  13.940
41970W        W14230   1.902  28.552  13.841
41971W        W14231  25.080  18.233   4.707
41972W        W14232  43.461  39.865   2.285
41973W        W14233  10.817  22.117   2.892
41974W        W14234  12.841  22.149  12.032
41975W        W14235  29.519  36.006   5.274
41976W        W14236  16.298  42.007   1.344
41977W        W14237  35.914  36.351  11.507
41978W        W14238  40.850  11.351   2.695
41979W        W14239  18.684  17.062  11.611
41980W        W14240  10.246  15.147  11.122
41981W        W14241  41.481   2.266  11.565
41982W        W14242  26.657   0.345   1.400
41983W        W14243  41.342   0.324  13.064
41984W        W14244  28.553   4.392   3.700
41985W        W14245   3.851  21.080   1.265
41986W        W14246  20.578  21.143  11.038
41987W        W14247  32.028  13.608   0.379
41988W        W14248  33.125  21.228  13.380
41989W        W14249  39.521  13.784   3.175
41990W        W14250  40.425  41.374   3.268
41991W        W14251  42.989   9.231   1.361
41992W        W14252  35.378  26.016   3.258
41993W        W14253  11.742   0.430   1.339
41994W        W14254  35.989  23.033  12.902
41995W        W14255   0.952  35.533   2.746
41996W        W14256  24.106  38.895   0.311
41997W        W14257   8.817   7.336   3.800
41998W        W14258  29.055  22.744   1.849
41999W        W14259  32.986  17.714   4.643
42000W        W14260  44.274   1.887   5.260
42001W        W14261   2.389  18.158  12.976
42002W        W14262  41.320  23.162   2.888
42003W        W14263  32.124   6.213  10.574
42004W        W14264  36.847  18.724  13.427
42005W        W14265  42.827  12.296  12.017
42006W        W14266  44.838  11.180   2.257
42007W        W14267  23.598   8.775  11.569
42008W        W14268  25.668  28.668   2.814
42009W        W14269   9.230  29.033  11.385
42010W        W14270  41.970  20.049   3.871
42011W        W14271   6.706  33.607  11.405
42012W        W14272  40.509  18.293  12.067
42013W        W14273  27.048  31.440   3.375
42014W        W14274  19.649  44.857  10.478
42015W        W14275  28.104  38.833   2.353
42016W        W14276  30.941  27.029   0.957
42017W        W14277   4.219  27.570   9.956
42018W        W14278  23.495  42.369   4.722
42019W        W14279  33.518  19.543   5.104
42020W        W14280  28.608  17.302   4.688
42021W        W14281  18.167  27.027   3.218
42022W        W14282  25.203  12.318   4.610
42023W        W14283  19.125  17.799   4.697
42024W        W14284  26.641   4.235   3.725
42025W        W14285  34.869  12.138  11.529
42026W        W14286  15.739  16.614   0.893
42027W        W14287  26.983  11.245   4.763
42028W        W14288  16.769  16.158  12.007
42029W        W14289   4.808   1.835  12.460
42030W        W14290  37.416   3.216   5.242
42031W        W14291  25.648  38.517  14.317
42032W        W14292   9.800  42.387  14.508
42033W        W14293   9.740   7.875   2.838
42034W        W14294   3.221  14.238   3.835
42035W        W14295  22.505  33.055   0.476
42036W        W14296  25.022  27.097  10.412
42037W        W14297   3.218  12.318  10.504
42038W        W14298  16.651  39.463  10.467
42039W        W14299  34.118  14.243   0.349
42040W        W14300  26.685  23.147  11.482
42041W        W14301  10.163  44.779   4.347
42042W        W14302   4.337  17.589  14.416
42043W        W14303  21.566  40.052   2.766
42044W        W14304   3.301  39.809  12.055
42045W        W14305  16.177  44.477  14.305
42046W        W14306  21.548  30.588  10.958
42047W        W14307  24.614   5.274   4.220
42048W        W14308  35.931  24.592  10.956
42049W        W14309   3.334  32.606  13.329
42050W        W14310  40.319  19.774   5.215
42051W        W14311  16.189  27.608  12.580
42052W        W14312  10.819  44.309   9.993
42053W        W14313  14.692   7.775   2.276
42054W        W14314   6.351  34.499  11.045
42055W        W14315  43.305   7.892  12.440
42056W        W14316  20.736  43.880  11.102
42057W        W14317   1.476  44.323  10.592
42058W        W14318   8.745   0.400  11.862
42059W        W14319  37.568  28.119  13.409
42060W        W14320  43.985  20.173   3.277
42061W        W14321  21.044  30.908  11.078
42062W        W14322  17.303   2.376   4.700
42063W        W14323   6.423  25.544  14.365
42064W        W14324  27.158  17.132  12.924
42065W        W14325  17.685  26.959  11.129
42066W        W14326  26.076  26.649  12.560
42067W        W14327  33.537  33.923   1.776
42068W        W14328   7.183  19.765  13.963
42069W        W14329  38.328  40.826  11.446
42070W        W14330   7.870  39.399  13.493
42071W        W14331   9.311  14.663   1.444
42072W        W14332  18.679  41.324   4.631
42073W        W14333   7.879  36.455   4.715
42074W        W14334  29.448  36.960  10.636
42075W        W14335  31.947  35.019   4.830
42076W        W14336  21.534   7.873   4.154
42077W        W14337  13.833   2.437   1.387
42078W        W14338  20.250  42.459  10.537
42079W        W14339  22.679   7.256   4.686
42080W        W14340  26.151   8.176  13.471
42081W        W14341  14.142  15.580   2.318
42082W        W14342  33.555  36.070  10.887
42083W        W14343  29.038  16.182   2.667
42084W        W14344  33.018  15.127  11.055
42085W        W14345  31.032  38.464  14.819
42086W        W14346   7.413  11.866   4.795
42087W        W14347  12.739   1.768   1.229
42088W        W14348   3.805   7.754  13.351
42089W        W14349   1.775  34.529   0.768
42090W        W14350  19.238  21.603  14.029
42091W        W14351  41.860  23.515   1.246
42092W        W14352  16.118  26.580  13.797
42093W        W14353  27.608   9.697   3.671
42094W        W14354   5.431   3.230  14.432
42095W        W14355  18.727   5.752   1.352
42096W        W14356   0.306  31.064  14.858
42097W        W14357   9.721   3.457  14.450
42098W        W14358   8.686  13.131  12.953
42099W        W14359  25.662  27.142   4.603
42100W        W14360  40.345   1.313  11.039
42101W        W14361   5.930   0.904  12.993
42102W        W14362  15.192  43.317  10.605
42103W        W14363  17.755  30.502  11.455
42104W        W14364  30.964  27.652   1.719
42105W        W14365   5.693  33.453   2.405
42106W        W14366  36.578  34.047   4.636
42107W        W14367  32.069  32.901   0.348
42108W        W14368  22.134   7.361  14.971
42109W        W14369  38.395   8.389  12.907
42110W        W14370   5.767   9.775   4.751
42111W        W14371  33.558  13.840  12.344
42112W        W14372   9.180  28.495  12.376
42113W        W14373  15.638  27.465   4.701
42114W        W14374  31.515  33.484   1.699
42115W        W14375   7.414  25.962  14.811
42116W        W14376  44.945  41.412   3.683
42117W        W14377  21.032  22.660  11.891
42118W        W14378  13.611  17.214  11.085
42119W        W14379  10.374   1.741   3.331
42120W        W14380  27.646  39.543  14.489
42121W        W14381  29.470   4.760  10.432
42122W        W14382  17.104  33.520  11.908
42123W        W14383  27.140  43.906  12.924
42124W        W14384   7.862  30.980   2.184
42125W        W14385  24.563  42.934   1.866
42126W        W14386  43.806  31.494   0.919
42127W        W14387  30.511  22.996   2.184
42128W        W14388  28.049   7.331  14.447
42129W        W14389   0.366  35.887   3.671
42130W        W14390  36.518  29.155   3.846
42131W        W14391  37.870   0.816  13.533
42132W        W14392   5.434  19.748  10.600
42133W        W14393  26.702  10.813   4.154
42134W        W14394  37.487  43.329  13.336
42135W        W14395   5.705  40.981   0.314
42136W        W14396  10.865  39.332   2.311
42137W        W14397   6.803   6.285  11.424
42138W        W14398   1.464  34.909  10.459
42139W        W14399  42.306   2.938  10.421
42140W        W14400  34.084   0.817  12.020
42141W        W14401   2.404  22.037   1.795
42142W        W14402  35.512  42.352  11.128
42143W        W14403   3.318   7.744  12.551
42144W        W14404  27.630  26.652  12.567
42145W        W14405  20.236  36.095   4.114
42146W        W14406   5.397  13.185  13.996
42147W        W14407  37.038  29.123  14.940
42148W        W14408  13.719   5.817   0.925
42149W        W14409   1.294   6.898   3.382
42150W        W14410  17.692  36.536   3.192
42151W        W14411  10.818  12.653   1.279
42152W        W14412  39.558  15.701   4.277
42153W        W14413  44.464   9.884  13.961
42154W        W14414  13.345  23.653  13.001
42155W        W14415  15.608   1.826  11.497
42156W        W14416  26.633  44.820   1.321
42157W        W14417  30.047   2.261   4.161
42158W        W14418   7.347  38.031   4.803
42159W        W14419  28.561  15.730  11.559
42160W        W14420  11.634   6.302  13.852
42161W        W14421  23.198   6.401   1.909
42162W        W14422  27.474   0.428  13.403
42163W        W14423  17.116  17.117  14.287
42164W        W14424   2.246  34.555  10.632
42165W        W14425   4.370  22.618  11.438
42166W        W14426  34.976   6.377   2.331
42167W        W14427  18.187  37.870  13.899
42168W        W14428  32.923  12.615  10.445
42169W        W14429  33.486   1.976  14.935
42170W        W14430   0.366  14.280   4.628
42171W        W14431   0.379  24.583  11.114
42172W        W14432  28.611  35.011  14.363
42173W        W14433  26.571  38.428   3.847
42174W        W14434  12.131   2.922   2.244
42175W        W14435   9.807  40.893   1.371
42176W        W14436  36.096  18.182   3.229
42177W        W14437  32.125   6.749  13.850
42178W        W14438   1.469  11.850  11.889
42179W        W14439  41.941  12.764   2.727
42180W        W14440  25.044  38.835   0.450
42181W        W14441  26.467  36.511   2.741
42182W        W14442  17.068  16.113  10.148
42183W        W14443  14.733  29.455  11.098
42184W        W14444  44.840   4.405   0.341
42185W        W14445   6.914  44.942   1.729
42186W        W14446  38.409  39.938  12.567
42187W        W14447  44.955  23.091  11.991
42188W        W14448  29.101  29.480  11.052
42189W        W14449   7.833  11.189   0.296
42190W        W14450  28.458  23.118  13.901
42191W        W14451  37.084  25.978   4.737
42192W        W14452  14.108  35.424  13.843
42193W        W14453  40.998  11.630   3.673
42194W        W14454  36.865   3.380   0.436
42195W        W14455  33.035   8.655  10.533
42196W        W14456  23.704  31.915  13.503
42197W        W14457  29.646  13.170   3.359
42198W        W14458  22.248  23.706  10.435
42199W        W14459  21.676  13.734  13.433
42200W        W14460  41.920   3.442  11.967
42201W        W14461  24.503  14.309   1.395
42202W        W14462  11.864   9.243   1.300
42203W        W14463  20.251  25.006   3.162
42204W        W14464  17.258  10.361  14.392
42205W        W14465  40.386  26.025  14.020
42206W        W14466   5.749  10.694   0.735
42207W        W14467   5.825  31.906  14.977
42208W        W14468  13.115   1.945  11.378
42209W        W14469   6.700  36.479  13.996
42210W        W14470  18.269  42.319  12.864
42211W        W14471  16.780  23.986  13.874
42212W        W14472  21.570  13.340  13.426
42213W        W14473  29.920  12.291   4.716
42214W        W14474  40.837  40.948  12.578
42215W        W14475  17.717   0.883  12.427
42216W        W14476  37.560   6.357  12.469
42217W        W14477  43.380  34.501   0.786
42218W        W14478   0.854  28.549   1.232
42219W        W14479  32.601  11.353   0.848
42220W        W14480   8.693  37.518  14.828
42221W        W14481  41.343  36.428   2.835
42222W        W14482   8.290   9.386  11.438
42223W        W14483  15.319  44.488   0.905
42224W        W14484  14.260  33.417   4.354
42225W        W14485  34.403  32.064   4.149
42226W        W14486  16.180  25.068  11.443
42227W        W14487  21.207  28.932  14.427
42228W        W14488  43.458  22.707   3.291
42229W        W14489   9.387  25.966  13.927
42230W        W14490   7.314  33.576  12.847
42231W        W14491  22.565  17.201   0.295
42232W        W14492  30.512  31.442   2.226
42233W        W14493  37.965  44.278  10.643
42234W        W14494   0.960  42.357   2.253
42235W        W14495  41.427  12.704  14.888
42236W        W14496  21.645  11.257  14.493
42237W        W14497  20.164  10.243   2.854
42238W        W14498  35.906  18.149   5.740
42239W        W14499  22.136  34.404   2.385
42240W        W14500  27.977  23.700   2.389
42241W        W14501  16.076  13.808  11.097
42242W        W14502  35.427  22.566   4.185
42243W        W14503  14.691  39.954   0.788
42244W        W14504  37.501  19.045  14.285
42245W        W14505  42.312  25.104   3.777
42246W        W14506   5.803  39.353  11.871
42247W        W14507  12.705  35.091  12.046
42248W        W14508  25.130  44.008  14.853
42249W        W14509  24.987  15.291  12.417
42250W        W14510  18.276   4.724  10.452
42251W        W14511  24.543  14.747   3.742
42252W        W14512  40.034  18.612   2.343
42253W        W14513  19.750  24.574   4.320
42254W        W14514  23.179   7.747  10.507
42255W        W14515   1.916  40.375   2.794
42256W        W14516  16.698   5.360  14.894
42257W        W14517  10.168  26.023  13.821
42258W        W14518  31.506  39.016   0.271
42259W        W14519   0.794   4.916  13.387
42260W        W14520  16.188  36.947  14.412
42261W        W14521  22.740  15.651   1.880
42262W        W14522  10.872  29.123  14.438
42263W        W14523  37.520  27.114  10.599
42264W        W14524  12.631   7.763  10.984
42265W        W14525  40.900  36.971  10.930
42266W        W14526  12.283  38.459   2.296
42267W        W14527   5.878  36.539  13.440
42268W        W14528  36.871  35.495   4.707
42269W        W14529  40.802  17.240  13.514
42270W        W14530  40.039  29.549  13.341
42271W        W14531  17.279  24.597  14.340
42272W        W14532  22.532  35.462  10.478
42273W        W14533  20.762  21.058  10.010
42274W        W14534  33.029  16.686   1.912
42275W        W14535  28.640   4.408   1.865
42276W        W14536  38.861   9.151   2.671
42277W        W14537  17.227  38.444   3.645
42278W        W14538  29.605   7.743   1.365
42279W        W14539  23.241  26.643   3.288
42280W        W14540  14.788  23.187  14.866
42281W        W14541  10.289  19.171  10.072
42282W        W14542  39.434  41.885   4.794
42283W        W14543   0.808  33.522   1.902
42284W        W14544   0.846  30.477  13.409
42285W        W14545  29.955  13.248  13.061
42286W        W14546  24.690   3.952   1.415
42287W        W14547  20.749  29.008   4.219
42288W        W14548  15.747  32.511  11.007
42289W        W14549   8.881   5.431  12.053
42290W        W14550   9.653   1.875  12.377
42291W        W14551  14.754  25.094  10.941
42292W        W14552  31.027   3.923  13.808
42293W        W14553  15.627  29.622   5.311
42294W        W14554  17.099  35.484  13.406
42295W        W14555  11.311  39.944  14.487
42296W        W14556  25.613  25.488  12.566
42297W        W14557  22.738  24.497   1.926
42298W        W14558  18.276  32.496   1.879
42299W        W14559  35.033   8.404   3.821
42300W        W14560  11.817  10.747  12.459
42301W        W14561   5.919  12.724   3.720
42302W        W14562   7.209  30.949   3.790
42303W        W14563  23.995  12.155   3.265
42304W        W14564  20.099  15.121  11.015
42305W        W14565  32.539  19.084  11.008
42306W        W14566  31.088   1.342  11.026
42307W        W14567   5.311  24.185  11.572
42308W        W14568  41.811  27.687  12.019
42309W        W14569   7.862   2.870  12.869
42310W        W14570   1.386  19.130  12.947
42311W        W14571   4.701   4.222   4.267
42312W        W14572   8.863  34.400  13.809
42313W        W14573   2.245   4.304  14.839
42314W        W14574  20.030  12.810   5.245
42315W        W14575  37.929  41.921  13.041
42316W        W14576  39.020  10.376   2.217
42317W        W14577  32.062  29.938   2.366
42318W        W14578  23.674  20.649  10.603
42319W        W14579  10.721  40.406  11.957
42320W        W14580  12.346  13.726  11.969
42321W        W14581  30.087  13.670   1.890
42322W        W14582   2.848  36.021  10.462
42323W        W14583   0.470   0.839   0.483
42324W        W14584   5.280   6.773  11.117
42325W        W14585   9.345  13.687   1.381
42326W        W14586  19.212  32.397   0.965
42327W        W14587   8.247  27.551  12.096
42328W        W14588  17.699  38.031  10.420
42329W        W14589  14.226  10.822   1.387
42330W        W14590  13.791  16.266   1.860
42331W        W14591  14.101   1.932   0.375
42332W        W14592  23.185  11.623  11.609
42333W        W14593  33.906  40.334   2.714
42334W        W14594  41.020   1.259   0.938
42335W        W14595  28.979  13.305   3.847
42336W        W14596  10.655   0.261  10.998
42337W        W14597   5.339  33.451  10.555
42338W        W14598   3.255  17.620   3.699
42339W        W14599  12.253  24.086   1.231
42340W        W14600  16.757  15.270  11.894
42341W        W14601  43.866   7.801   2.804
42342W        W14602   1.922  17.143   2.692
42343W        W14603   6.340  26.482  12.354
42344W        W14604  14.760  14.600  13.488
42345W        W14605  36.440  19.117   2.262
42346W        W14606   4.779  36.413  12.381
42347W        W14607   0.812  19.108   1.412
42348W        W14608  26.002  27.134   1.834
42349W        W14609  18.670  15.601  14.414
42350W        W14610  20.536  30.560   1.259
42351W        W14611   9.706  13.148  10.568
42352W        W14612  23.570  43.493   4.208
42353W        W14613  32.009  23.100   0.369
42354W        W14614  11.629  15.737   0.312
42355W        W14615  34.082  35.593   1.244
42356W        W14616  36.004  44.762  11.431
42357W        W14617  40.512  40.886  11.939
42358W        W14618  43.793  44.482  13.522
42359W        W14619  14.184  20.557   0.849
42360W        W14620  26.483   3.316  13.438
42361W        W14621   4.817  11.198  11.993
42362W        W14622  40.506   8.234   0.771
42363W        W14623  41.412  36.577  12.031
42364W        W14624  29.974   9.782   3.782
42365W        W14625  43.401   4.326   4.768
42366W        W14626  30.509  17.642   1.720
42367W        W14627  25.071  33.953   3.349
42368W        W14628  19.242  38.390  10.570
42369W        W14629  11.742  32.105   3.314
42370W        W14630  29.042  27.519   2.341
42371W        W14631  36.362   8.233   9.512
42372W        W14632  25.168  37.005  10.982
42373W        W14633   4.343  25.476  13.021
42374W        W14634   3.856  30.923   3.364
42375W        W14635  31.072  19.097  11.010
42376W        W14636  26.032  24.559  11.533
42377W        W14637   9.721  28.631   2.713
42378W        W14638  40.926  33.983   0.260
42379W        W14639  34.949   7.763  11.373
42380W        W14640  19.283  42.330   3.356
42381W        W14641  43.434   6.810  12.932
42382W        W14642   5.701   0.376   1.215
42383W        W14643  27.015  14.309   4.727
42384W        W14644  40.418  33.035   4.347
42385W        W14645  16.285   5.691   3.351
42386W        W14646  12.341  12.857   3.228
42387W        W14647  12.664  25.656   2.746
42388W        W14648  20.767  33.424  14.299
42389W        W14649   0.761  41.434  10.631
42390W        W14650  34.092  24.580  12.843
42391W        W14651  43.492  14.235   3.828
42392W        W14652  28.444  33.957  13.873
42393W        W14653  22.690  44.388   0.314
42394W        W14654  39.459  11.838   1.351
42395W        W14655   6.750  20.158  11.116
42396W        W14656  24.115  25.470   4.226
42397W        W14657  42.401  36.978  13.011
42398W        W14658  34.048  29.136  12.862
42399W        W14659  32.109  30.128  12.524
42400W        W14660  33.937  34.381  11.467
42401W        W14661   8.234  18.752   1.909
42402W        W14662   5.407   1.286  10.433
42403W        W14663  39.359   9.352  13.467
42404W        W14664  30.158  26.025  10.592
42405W        W14665   5.832  44.436  12.919
42406W        W14666  17.066  20.119  12.422
42407W        W14667  21.523   8.389  10.562
42408W        W14668   0.808  33.107   1.764
42409W        W14669  13.671  39.536  11.993
42410W        W14670  38.399  15.721  11.999
42411W        W14671  30.617  13.329   5.177
42412W        W14672   6.367  23.214  11.514
42413W        W14673   3.227  17.795  14.341
42414W        W14674  33.545  27.169  14.857
42415W        W14675  10.272  16.655   0.793
42416W        W14676  13.687  30.463  13.878
42417W        W14677  39.341  22.193  13.972
42418W        W14678  27.570  33.430   0.479
42419W        W14679  33.591  26.063   0.779
42420W        W14680  21.561  24.488  13.996
42421W        W14681  32.981  16.273   2.857
42422W        W14682  25.015  11.210   0.832
42423W        W14683  40.418  21.678  11.059
42424W        W14684   0.336  11.791   3.857
42425W        W14685  29.542  10.171   2.202
42426W        W14686   5.746  36.071   2.293
42427W        W14687  31.619  41.298   1.444
42428W        W14688  23.149  26.600   0.840
42429W        W14689  31.429   0.965  10.939
42430W        W14690   6.840  36.579  12.826
42431W        W14691   5.321  31.051  13.813
42432W        W14692  26.486  26.596  11.382
42433W        W14693   0.827  26.598   0.880
42434W        W14694  41.300  10.247   4.687
42435W        W14695  22.068   0.830   0.831
42436W        W14696  21.062  26.539  10.520
42437W        W14697  28.620   1.906  14.395
42438W        W14698  12.806   6.209   4.245
42439W        W14699  15.624  13.140   1.714
42440W        W14700  13.322  41.485  10.043
42441W        W14701  39.939   9.277   3.720
42442W        W14702  38.029  40.848  13.507
42443W        W14703  16.229  44.276  13.439
42444W        W14704  29.998  11.242   1.431
42445W        W14705  17.580  44.913   1.398
42446W        W14706  17.751   7.732   0.828
42447W        W14707  14.629  39.829   4.265
42448W        W14708  40.354  12.281   2.402
42449W        W14709   5.690  26.515   0.760
42450W        W14710  35.064   7.194   3.718
42451W        W14711  44.299  12.355   3.687
42452W        W14712   3.850  13.714   0.408
42453W        W14713  23.588  41.852   2.820
42454W        W14714  17.696  21.538   1.374
42455W        W14715  32.528  26.479  13.833
42456W        W14716   3.886  14.807   0.316
42457W        W14717   0.471  40.492  14.509
42458W        W14718  23.560   0.430  11.924
42459W        W14719  32.400  43.446   0.770
42460W        W14720  16.802  16.647   4.692
42461W        W14721   9.889  36.969   4.736
42462W        W14722   4.249   9.812   3.289
42463W        W14723  34.565  39.510  11.388
42464W        W14724  20.629  34.549  13.509
42465W        W14725   4.262  12.351   4.262
42466W        W14726   2.826  20.096   3.191
42467W        W14727  34.995  14.273   5.293
42468W        W14728   3.909   3.230   1.431
42469W        W14729   9.705  32.545  10.407
42470W        W14730  13.276  30.586   4.699
42471W        W14731  22.208  11.768   3.684
42472W        W14732   3.852   2.345  13.505
42473W        W14733  26.965  43.475   1.415
42474W        W14734  25.680   3.255   4.270
42475W        W14735  44.947  13.215  14.834
42476W        W14736  40.389  10.363   0.410
42477W        W14737  21.169  21.185   3.858
42478W        W14738  39.996  24.071  12.391
42479W        W14739  28.178  17.605  13.372
42480W        W14740  37.882  12.194   0.878
42481W        W14741   8.361   8.832   3.657
42482W        W14742   1.815  42.460  14.809
42483W        W14743  21.210   1.408   2.897
42484W        W14744  15.621  40.410  10.417
42485W        W14745  10.861  43.320  14.877
42486W        W14746  11.246  31.913   3.233
42487W        W14747  31.097   3.453   4.742
42488W        W14748  20.575  20.677  12.029
42489W        W14749   6.358  24.074   4.671
42490W        W14750  18.223  22.214   4.203
42491W        W14751  32.487   7.742  11.875
42492W        W14752  39.556   5.811   2.825
42493W        W14753   0.944  40.810  13.972
42494W        W14754  24.648  19.576  13.994
42495W        W14755  27.162  35.875  10.893
42496W        W14756  27.142   6.290   4.609
42497W        W14757  22.076  23.512   0.250
42498W        W14758  14.681  12.301   1.718
42499W        W14759  30.474  44.337   2.682
42500W        W14760   9.729  19.724  13.431
42501W        W14761  41.881  25.475   4.791
42502W        W14762  20.612  35.951  12.415
42503W        W14763  15.641   1.781  14.415
42504W        W14764  38.947   9.773   5.774
42505W        W14765  37.983   8.791  12.934
42506W        W14766  17.129  27.048   2.316
42507W        W14767  12.220  21.626  12.953
42508W        W14768  35.062  11.660  13.313
42509W        W14769  15.821  20.181   1.844
42510W        W14770  18.752  30.043   2.256
42511W        W14771  32.046  29.480  12.456
42512W        W14772  11.667  28.951   5.138
42513W        W14773   6.310   4.428  10.963
42514W        W14774  29.002   3.283   2.712
42515W        W14775   6.771  36.973   1.786
42516W        W14776  25.081   0.258   0.927
42517W        W14777  44.809  16.681   4.320
42518W        W14778   5.906  42.468   3.863
42519W        W14779  20.686   0.250   4.249
42520W        W14780  31.482  14.278   0.882
42521W        W14781  10.653  10.148   3.724
42522W        W14782  34.381   2.275  11.857
42523W        W14783  25.049   9.371   0.402
42524W        W14784  23.136  25.586  12.043
42525W        W14785  35.405   3.886   1.424
42526W        W14786  17.284  20.596   4.163
42527W        W14787  40.339  21.719  13.809
42528W        W14788  23.590  15.240   2.260
42529W        W14789  24.590  43.442   3.639
42530W        W14790  19.707  35.868   3.373
42531W        W14791  22.567  12.843  13.840
42532W        W14792   5.692  38.335  14.439
42533W        W14793   9.377   3.308   2.194
42534W        W14794  12.287  33.486  10.404
42535W        W14795  22.153   7.742   4.605
42536W        W14796  40.331   8.380   2.276
42537W        W14797  35.535  22.250   0.822
42538W        W14798  40.946  42.944   2.418
42539W        W14799  30.595  41.313   1.883
42540W        W14800  42.912  25.090   1.396
42541W        W14801  25.119  30.963  10.489
42542W        W14802   1.857  39.327   2.388
42543W        W14803  36.429  36.964   4.669
42544W        W14804   7.823  12.274   1.899
42545W        W14805  37.869  31.573   4.624
42546W        W14806  16.641  28.675   2.875
42547W        W14807  17.068  27.198  11.983
42548W        W14808  11.729  17.292  13.369
42549W        W14809  15.798  15.741   3.663
42550W        W14810   0.475  23.177   2.299
42551W        W14811  23.126  11.146  12.050
42552W        W14812   0.819  28.538   1.713
42553W        W14813  14.261  40.540   2.390
42554W        W14814  31.896   2.371  13.544
42555W        W14815   1.457  23.579   0.348
42556W        W14816  33.013  23.585  11.110
42557W        W14817  41.510  34.560   1.773
42558W        W14818  16.086   5.714   0.366
42559W        W14819  24.708  42.281   3.314
42560W        W14820  17.232  12.292  14.328
42561W        W14821  18.770  27.153   1.826
42562W        W14822   1.355  25.710   0.247
42563W        W14823  42.415  36.424   1.730
42564W        W14824  40.933   6.273   0.373
42565W        W14825   9.831  18.222   1.216
42566W        W14826  11.332  36.084   4.767
42567W        W14827   1.270  44.963   1.214
42568W        W14828   5.827   0.880   4.316
42569W        W14829  27.480   8.278   2.188
42570W        W14830  22.610  41.437   4.202
42571W        W14831  13.254  21.086  12.393
42572W        W14832   9.869   3.782   1.273
42573W        W14833   6.817   8.819   1.317
42574W        W14834   8.882  11.756   2.876
42575W        W14835  39.823  11.278   3.257
42576W        W14836   0.349  18.242   4.648
42577W        W14837  16.689  39.020  14.906
42578W        W14838  40.912  21.743   4.628
42579W        W14839  26.595  31.546   2.209
42580W        W14840  15.323  12.317   4.773
42581W        W14841  23.197  35.411   2.817
42582W        W14842  16.581  32.956   2.745
42583W        W14843  26.078   5.231  11.094
42584W        W14844  39.440  20.538  13.911
42585W        W14845   3.272  20.041  13.883
42586W        W14846   2.814   2.279   3.376
42587W        W14847   8.726  30.574   2.843
42588W        W14848  18.059  36.581   0.243
42589W        W14849   4.884  20.209   2.321
42590W        W14850  23.211  16.662   1.824
42591W        W14851  16.275  16.636  12.465
42592W        W14852  27.982  15.119  13.514
42593W        W14853  20.759  12.329  12.456
42594W        W14854  17.160  19.670   0.804
42595W        W14855  22.141  22.524   5.295
42596W        W14856  39.917  39.544   0.387
42597W        W14857  44.821  25.013   4.648
42598W        W14858  32.926  25.120  12.549
42599W        W14859  12.692  26.082   0.248
42600W        W14860  41.345  33.600  14.306
42601W        W14861  41.522  22.728   3.348
42602W        W14862  40.909  22.553   4.612
42603W        W14863  21.201   6.884   2.878
42604W        W14864  39.429  38.523  12.054
42605W        W14865  39.538  35.075   0.453
42606W        W14866  16.080  10.819   1.702
42607W        W14867   4.926  42.378  11.380
42608W        W14868  40.870  29.507   0.927
42609W        W14869   8.400  43.979  12.455
42610W        W14870   7.702  43.896  13.346
42611W        W14871  27.133  31.901  12.991
42612W        W14872  37.003  18.694  12.451
42613W        W14873   9.207  34.468   3.222
42614W        W14874  32.020   5.364   4.208
42615W        W14875  19.773  37.513   2.684
42616W        W14876   9.340  18.200  13.342
42617W        W14877  21.588  42.853  13.796
42618W        W14878  26.509  23.120   3.309
42619W        W14879  21.747  34.114  13.797
42620W        W14880  36.934  40.018  10.526
42621W        W14881  42.845  35.875  11.379
42622W        W14882  10.667  10.353  14.387
42623W        W14883  22.167  43.379  10.537
42624W        W14884  44.481  27.012   4.824
42625W        W14885  38.032  27.614   2.397
42626W        W14886  25.566  11.826   4.144
42627W        W14887  22.545  16.662  14.806
42628W        W14888   9.330  25.157   4.138
42629W        W14889  30.637   5.718  13.519
42630W        W14890  17.601  27.083  14.455
42631W        W14891  40.837   8.364  12.999
42632W        W14892  35.467  41.368   1.795
42633W        W14893  40.337  43.993  11.963
42634W        W14894  12.340  31.601  14.316
42635W        W14895  42.481  18.230   1.404
42636W        W14896  41.015  18.597   1.443
42637W        W14897  25.496  43.352   0.811
42638W        W14898  44.402  12.671   3.763
42639W        W14899   5.296  11.352   0.333
42640W        W14900  28.180  11.159  14.439
42641W        W14901  27.992  44.978  10.625
42642W        W14902  30.418  40.870   0.750
42643W        W14903  39.910  24.504  10.962
42644W        W14904  44.765  32.968  13.433
42645W        W14905  21.173  24.996  14.456
42646W        W14906  30.451  38.548  13.468
42647W        W14907   9.354  20.752   0.436
42648W        W14908   4.209  30.126  11.032
42649W        W14909  21.606  37.549  12.058
42650W        W14910   7.232   3.797   2.808
42651W        W14911  21.067  32.983  11.125
42652W        W14912  37.479  44.904   2.222
42653W        W14913  15.112  19.601  11.605
42654W        W14914   3.774  35.527  10.499
42655W        W14915  31.532  28.175  14.953
42656W        W14916  21.219  39.821  11.557
42657W        W14917  20.248  43.284  12.561
42658W        W14918  14.610   1.462   3.632
42659W        W14919   2.852  40.015   2.886
42660W        W14920  39.854  30.037  12.464
42661W        W14921  13.809  44.812  13.882
42662W        W14922  40.511  27.606  13.919
42663W        W14923  16.116  15.298   5.299
42664W        W14924   6.217  28.640  13.317
42665W        W14925  30.028  30.581  14.480
42666W        W14926  42.336  18.753  10.435
42667W        W14927  28.025  25.562   4.643
42668W        W14928   7.349  32.607  10.524
42669W        W14929  12.311  34.424  11.885
42670W        W14930  11.200  37.948  13.844
42671W        W14931  41.880  33.956   2.841
42672W        W14932  29.463  32.435  14.786
42673W        W14933   5.803  25.596  14.032
42674W        W14934  35.906   9.203   2.728
42675W        W14935  13.321  13.769  11.873
42676W        W14936  34.867  27.198  13.996
42677W        W14937  23.668  12.322  11.094
42678W        W14938  26.189   9.808  13.882
42679W        W14939  28.578  18.169  14.883
42680W        W14940  26.139  36.030   3.240
42681W        W14941  18.246  32.017   3.328
42682W        W14942   6.894  32.392  14.340
42683W        W14943   9.858  38.502  10.606
42684W        W14944   2.247  10.789  13.864
42685W        W14945  38.841   6.752   4.187
42686W        W14946  43.907  24.663  12.384
42687W        W14947   8.295  37.831  11.109
42688W        W14948  13.330  23.217  12.978
42689W        W14949   0.986   2.920   3.649
42690W        W14950  26.078   8.789  12.411
42691W        W14951   1.262  33.066  11.450
42692W        W14952   3.904  37.496   0.250
42693W        W14953  25.105   8.864   2.310
42694W        W14954  19.143  12.360   1.326
42695W        W14955  25.670  15.706  11.966
42696W        W14956  43.879   7.862  11.928
42697W        W14957  37.875   0.259  14.512
42698W        W14958  30.534  15.705  11.078
42699W        W14959  22.123  28.096   1.911
42700W        W14960  41.533   8.765  13.417
42701W        W14961  22.580  31.094  12.473
42702W        W14962  10.196  33.028   4.170
42703W        W14963  16.569   1.434   2.740
42704W        W14964  28.441  14.825  12.078
42705W        W14965   6.700  20.178  13.874
42706W        W14966  10.384   1.385  11.477
42707W        W14967  36.011  43.848  10.895
42708W        W14968  12.733  38.889  11.993
42709W        W14969  27.110  28.547  14.495
42710W        W14970  15.316   7.905   4.156
42711W        W14971   6.859  17.226   4.203
42712W        W14972  28.088  20.719   4.691
42713W        W14973  39.386  44.950   1.763
42714W        W14974  40.542  32.073  12.994
42715W        W14975  26.195  18.150  14.990
42716W        W14976  14.116  24.138  13.353
42717W        W14977  15.811  40.345   2.786
42718W        W14978  16.715  23.587   1.442
42719W        W14979  40.520  13.763   1.421
42720W        W14980  11.682  38.830  11.423
42721W        W14981  10.257  41.858  10.631
42722W        W14982  32.606  12.705  14.919
42723W        W14983   9.176   8.381  11.114
42724W        W14984  27.588  27.160  14.962
42725W        W14985  10.831  44.265  11.868
42726W        W14986   3.845   7.873  14.014
42727W        W14987  31.004  21.624  11.385
42728W        W14988   6.204   9.843   0.865
42729W        W14989   7.784  28.093   4.319
42730W        W14990  22.075  40.862  11.395
42731W        W14991  24.725  32.034   0.882
42732W        W14992  15.092  23.022  10.446
42733W        W14993  21.584  40.486  14.017
42734W        W14994  29.153   1.751  13.007
42735W        W14995  32.447   3.275   1.728
42736W        W14996  43.469   2.800  12.929
42737W        W14997   9.881  29.033   2.242
42738W        W14998  18.698   2.834   3.218
42739W        W14999  43.389  10.301  11.101
42740W        W15000  19.598  42.002  14.889
42741W        W15001   5.368  18.577  12.407
42742W        W15002  20.582  24.064  12.528
42743W        W15003  35.549  14.276  12.484
42744W        W15004  33.623  15.310  10.061
42745W        W15005  23.625  14.702  13.424
42746W        W15006  28.115  18.592   1.821
42747W        W15007  32.441   0.409   4.160
42748W        W15008  41.536  10.667  12.372
42749W        W15009  18.693  30.434  11.897
42750W        W15010  16.677  19.569   4.247
42751W        W15011  43.353  18.183   5.121
42752W        W15012  10.310  27.158  14.467
42753W        W15013  20.551   2.249   0.328
42754W        W15014  12.618  10.724   0.268
42755W        W15015   6.892  30.911   2.238
42756W        W15016  41.845  20.263  12.461
42757W        W15017  37.922  33.563  14.763
42758W        W15018   3.825  11.702   4.256
42759W        W15019  18.139  13.838   1.377
42760W        W15020  33.444  14.661  14.906
42761W        W15021  44.374  10.210   4.660
42762W        W15022  14.267   4.228  12.974
42763W        W15023  17.628  12.811  11.406
42764W        W15024  32.469  15.218  13.339
42765W        W15025  15.687   1.288  12.832
42766W        W15026  26.179  19.662   4.247
42767W        W15027   6.894  14.227  12.976
42768W        W15028  29.116  10.870  12.935
42769W        W15029  24.565  27.677   0.801
42770W        W15030  35.496  28.039  13.411
42771W        W15031  33.480  20.660   0.908
42772W        W15032  41.894  31.454   1.869
42773W        W15033  25.171  13.351   4.169
42774W        W15034   0.458  10.724   4.121
42775W        W15035   4.702  40.964   2.401
42776W        W15036   6.725  31.045  10.482
42777W        W15037  24.659  36.046   3.716
42778W        W15038  24.673  27.555  11.464
42779W        W15039   0.793  43.506   1.402
42780W        W15040  32.557  33.430   1.768
42781W        W15041  32.601  29.605  14.296
42782W        W15042  39.860  36.381  13.840
42783W        W15043  26.536  23.139   4.813
42784W        W15044  34.053   6.869  10.899
42785W        W15045  12.704   1.249   0.259
42786W        W15046   5.213  36.887  14.337
42787W        W15047  10.238  10.672   2.221
42788W        W15048  30.563  15.299  13.308
42789W        W15049   4.899   5.909  12.467
42790W        W15050  42.433  15.119   2.803
42791W        W15051   3.944  13.712   4.705
42792W        W15052  13.234  19.564  12.568
42793W        W15053  32.410  42.980   2.372
42794W        W15054   1.892  15.299   0.314
42795W        W15055  20.682   2.357  10.974
42796W        W15056   9.697  21.577  13.406
42797W        W15057  32.970  42.383  13.514
42798W        W15058  25.594  14.162  11.597
42799W        W15059  27.048  31.593  12.381
42800W        W15060  44.825   5.877   3.789
42801W        W15061  15.687  43.432  14.020
42802W        W15062  20.667  31.571   4.177
42803W        W15063  29.079  44.777   1.782
42804W        W15064  44.424   8.832  11.586
42805W        W15065  15.132  27.133   1.366
42806W        W15066   1.966  20.056  12.990
42807W        W15067  27.606  12.245  11.111
42808W        W15068  22.561  28.607   2.296
42809W        W15069  44.416  25.012  10.451
42810W        W15070  42.516   4.350  10.535
42811W        W15071  44.397  21.644  11.596
42812W        W15072   1.734   8.370  10.624
42813W        W15073  22.140  29.438   5.241
42814W        W15074  36.442  42.814   3.228
42815W        W15075  42.839  11.279  14.278
42816W        W15076   2.862  27.152   2.306
42817W        W15077  37.401  33.383   0.819
42818W        W15078   9.177  12.838  14.322
42819W        W15079  44.366  27.464   2.865
42820W        W15080   2.790   4.928  13.339
42821W        W15081  12.805  38.326  14.498
42822W        W15082  23.690  33.040  11.043
42823W        W15083  18.251   2.246  14.956
42824W        W15084  28.080  32.500   4.349
42825W        W15085   5.869  28.593   3.708
42826W        W15086   2.433  16.220   3.759
42827W        W15087  44.465  10.804   0.771
42828W        W15088  36.863  27.632  13.907
42829W        W15089  23.012   5.885   3.151
42830W        W15090  40.471   8.296   0.480
42831W        W15091   6.201  28.054   4.311
42832W        W15092  43.833   4.713  13.032
42833W        W15093  21.188   5.222   1.415
42834W        W15094  24.506  31.505  14.858
42835W        W15095  15.265  23.208  12.471
42836W        W15096  24.576  29.477   3.808
42837W        W15097  17.644   8.360   4.781
42838W        W15098  14.123   9.784   2.406
42839W        W15099  31.596   8.809  10.995
42840W        W15100  14.692  16.693   9.596
42841W        W15101  17.304  14.599   3.236
42842W        W15102   1.365   3.857   3.181
42843W        W15103   4.809   8.874  10.950
42844W        W15104  44.414   6.392  12.946
42845W        W15105   7.257  14.834   4.159
42846W        W15106   5.336   3.729  11.507
42847W        W15107  34.520  29.077   0.288
42848W        W15108  31.903  23.234  14.966
42849W        W15109   8.788   3.313  13.480
42850W        W15110  19.537  32.512  14.426
42851W        W15111  29.530  34.419   1.221
42852W        W15112  24.656  23.731   0.787
42853W        W15113   9.356  36.369   3.187
42854W        W15114   2.887  27.487  14.861
42855W        W15115  29.065  35.375  12.367
42856W        W15116  40.910  10.331   0.280
42857W        W15117  35.385  10.697   4.178
42858W        W15118   6.334  18.261   2.703
42859W        W15119  34.524   5.228  14.400
42860W        W15120  36.557  37.079   3.263
42861W        W15121  34.897  39.440   2.903
42862W        W15122   5.256  21.645  13.324
42863W        W15123   0.279  29.509   1.362
42864W        W15124  13.726  29.667  12.401
42865W        W15125  21.556  34.457   2.678
42866W        W15126  40.932   5.289   1.779
42867W        W15127   6.385  31.630  14.297
42868W        W15128  11.141  26.466   2.267
42869W        W15129  44.834  26.980   2.686
42870W        W15130   1.363  16.779   0.921
42871W        W15131  26.195  19.237  13.369
42872W        W15132  41.477  13.675   0.911
42873W        W15133   3.340  33.015  13.948
42874W        W15134  15.307   9.245   4.115
42875W        W15135  33.886  17.783  12.398
42876W        W15136  34.394  33.492  12.033
42877W        W15137  37.032  24.137   1.710
42878W        W15138  25.108  44.470  12.966
42879W        W15139  30.934   1.886  10.424
42880W        W15140  29.031  22.707  14.758
42881W        W15141  22.029  24.228   2.395
42882W        W15142  36.526   3.332   1.694
42883W        W15143  13.311  41.848  13.063
42884W        W15144  31.526  44.368   2.286
42885W        W15145  42.848  37.349  14.389
42886W        W15146  23.157   8.365  13.833
42887W        W15147  38.367  42.840   2.369
42888W        W15148  10.263  22.684  14.007
42889W        W15149  34.117  15.621   3.276
42890W        W15150  28.661   4.797  13.988
42891W        W15151  16.719  38.333   1.826
42892W        W15152  32.888   9.670   1.923
42893W        W15153  36.586  30.434  10.894
42894W        W15154  16.799  15.192   2.894
42895W        W15155  31.511  43.462  11.603
42896W        W15156  41.977   6.881  11.900
42897W        W15157  42.455  12.232   3.177
42898W        W15158  24.520  37.506  11.013
42899W        W15159  13.290  19.601  13.468
42900W        W15160   8.290  35.394  12.062
42901W        W15161  42.998  40.482  12.832
42902W        W15162  13.611   6.864   2.192
42903W        W15163  17.084  37.379   4.816
42904W        W15164   3.826  17.204   3.285
42905W        W15165  15.799  16.764  14.403
42906W        W15166   5.791  28.148   3.757
42907W        W15167  13.635  11.134  10.573
42908W        W15168  37.030  19.563  11.541
42909W        W15169   8.795   7.887  11.915
42910W        W15170  20.037  39.475  14.942
42911W        W15171  17.700  20.669  14.966
42912W        W15172  33.394  40.476   0.347
42913W        W15173   5.406  17.208   3.733
42914W        W15174  37.416  26.981   3.338
42915W        W15175  16.158  44.299   1.305
42916W        W15176   9.382  23.136  14.808
42917W        W15177  24.057   8.210  12.013
42918W        W15178  26.981   4.304   0.358
42919W        W15179  23.564  14.749   3.736
42920W        W15180  18.597  10.813   2.712
42921W        W15181  29.994  33.057  12.385
42922W        W15182  16.697  17.240  12.556
42923W        W15183  36.073   1.255   1.757
42924W        W15184  38.451  18.292   2.338
42925W        W15185  17.791  10.326   3.326
42926W        W15186  14.613   0.355   4.203
42927W        W15187  39.552   7.399  13.937
42928W        W15188  12.780   0.958  13.911
42929W        W15189  16.252  24.060   4.324
42930W        W15190   5.309  10.369   0.250
42931W        W15191  20.650  19.091   1.766
42932W        W15192   1.743  18.790   3.360
42933W        W15193  26.666  22.622  12.524
42934W        W15194  38.863   5.870   2.819
42935W        W15195   3.804  36.529   0.732
42936W        W15196  13.290  38.017   0.743
42937W        W15197   5.214  43.317  12.347
42938W        W15198  22.072  21.061  11.414
42939W        W15199  19.128  31.073   4.274
42940W        W15200  17.190  26.126   3.188
42941W        W15201   4.740   9.291  14.897
42942W        W15202  44.959  40.346  11.551
42943W        W15203  34.048  22.584  10.624
42944W        W15204  20.215  41.522   2.788
42945W        W15205  24.545  31.907   1.345
42946W        W15206  44.008  13.786  14.342
42947W        W15207  42.400  12.170   1.285
42948W        W15208  35.990  21.214   1.871
42949W        W15209  38.945  18.075  12.955
42950W        W15210   4.812  17.237   4.296
42951W        W15211  34.080  28.158   0.923
42952W        W15212   4.854  34.916  11.488
42953W        W15213  15.115  42.962   1.247
42954W        W15214  38.528  32.563   2.352
42955W        W15215  20.186  38.533  11.431
42956W        W15216  28.041  29.139  13.530
42957W        W15217   9.236   7.370   4.201
42958W        W15218  44.995   6.795   0.778
42959W        W15219  12.831  39.005  14.913
42960W        W15220  16.262  30.533   0.837
42961W        W15221  36.457  40.492   4.140
42962W        W15222  33.017  11.784   4.296
42963W        W15223  28.643  18.077  12.475
42964W        W15224  28.493  36.021   0.847
42965W        W15225  35.497  27.130   0.905
42966W        W15226  31.027   4.853   3.232
42967W        W15227   8.165  11.244  11.569
42968W        W15228  15.184  20.728  12.533
42969W        W15229   0.916  14.620  14.927
42970W        W15230  29.521   2.828  12.476
42971W        W15231   2.457  44.364  14.840
42972W        W15232  21.221  24.204  12.095
42973W        W15233   6.303  32.122  12.377
42974W        W15234  19.753  32.051   3.212
42975W        W15235   1.451  24.055  13.855
42976W        W15236  28.643  43.389   1.402
42977W        W15237  21.627  30.119   2.305
42978W        W15238  23.086  11.626  12.082
42979W        W15239   4.896  14.173   4.809
42980W        W15240   7.666   7.894  10.937
42981W        W15241  27.172  18.265  10.493
42982W        W15242  23.712  40.448  12.079
42983W        W15243  24.016  18.555   1.251
42984W        W15244  31.402  23.007   1.278
42985W        W15245  36.459  21.026  10.472
42986W        W15246  28.527  42.002   4.650
42987W        W15247   1.963  33.508  14.966
42988W        W15248  13.351  38.350   2.415
42989W        W15249  12.277   2.252   2.190
42990W        W15250   7.878  37.554  10.568
42991W        W15251   2.237  30.584   2.792
42992W        W15252  36.978  35.576  11.442
42993W        W15253  39.447  23.553   3.795
42994W        W15254  38.977  44.298   2.808
42995W        W15255  10.719   5.771  10.546
42996W        W15256  36.493  18.114   0.428
42997W        W15257   1.256  29.127  13.473
42998W        W15258  17.668  30.124  11.506
42999W        W15259  42.371   1.798  13.061
43000W        W15260  34.927   7.846   4.775
43001W        W15261  27.523   7.281   0.430
43002W        W15262   4.745  19.139   4.747
43003W        W15263  31.080  25.106   3.679
43004W        W15264  12.339  29.065   2.201
43005W        W15265   8.665  40.501  12.832
43006W        W15266  32.540  37.477   3.228
43007W        W15267  25.698   3.809  11.583
43008W        W15268  30.585  22.125  10.413
43009W        W15269  42.854   7.300  10.437
43010W        W15270   6.782  33.537  12.579
43011W        W15271  29.664  39.393  13.062
43012W        W15272  14.815  15.235  11.116
43013W        W15273  28.119  25.994   1.228
43014W        W15274  19.151  22.604   2.868
43015W        W15275   2.254   4.798   0.837
43016W        W15276  31.999  31.120   3.166
43017W        W15277  30.135  30.012  14.461
43018W        W15278  43.937   8.406   3.340
43019W        W15279  31.088  11.627  10.458
43020W        W15280  21.623  13.638  11.419
43021W        W15281  34.384  12.237   2.836
43022W        W15282  38.515  26.594  13.547
43023W        W15283  14.655   8.729   3.228
43024W        W15284   0.356  34.939   1.715
43025W        W15285  38.850  18.243   0.455
43026W        W15286  36.508  27.483  11.924
43027W        W15287   3.220  23.616   4.701
43028W        W15288  25.708  35.566  13.327
43029W        W15289   5.289  28.129  13.412
43030W        W15290  29.958  37.035   0.834
43031W        W15291  44.954  40.904  14.827
43032W        W15292  19.160  19.096   1.842
43033W        W15293  29.516  36.990   2.847
43034W        W15294  18.652  32.960   4.718
43035W        W15295  14.263  28.558  12.365
43036W        W15296  24.517  20.028   3.225
43037W        W15297  40.908  13.805  14.416
43038W        W15298  29.973   8.389  14.322
43039W        W15299  44.374  28.956  11.525
43040W        W15300   6.742  42.365  13.822
43041W        W15301  11.329  14.218  14.319
43042W        W15302  34.513  19.704   0.445
43043W        W15303   6.319  27.100   3.682
43044W        W15304   4.713  33.030  14.903
43045W        W15305   3.757  19.106   1.767
43046W        W15306  24.667  30.087   2.683
43047W        W15307  19.761  33.891  13.859
43048W        W15308  23.527  19.680   2.190
43049W        W15309  23.568  37.013  14.832
43050W        W15310  44.872  18.790  12.055
43051W        W15311  11.851  21.133  11.029
43052W        W15312  38.976   9.686  13.439
43053W        W15313  29.018  44.935   4.156
43054W        W15314  29.980  41.292   3.847
43055W        W15315  32.008  26.554  13.340
43056W        W15316  39.890  42.023  13.315
43057W        W15317  11.755  43.946   2.796
43058W        W15318  41.393  16.637   2.833
43059W        W15319  25.134  12.195   0.295
43060W        W15320  33.041  18.089   1.358
43061W        W15321  44.491  36.393   0.821
43062W        W15322  39.409  42.450   3.810
43063W        W15323   0.748  20.665  14.977
43064W        W15324  40.487  18.724   2.333
43065W        W15325  44.369  20.234   1.323
43066W        W15326   4.727  40.369   4.220
43067W        W15327   3.909  13.138  11.473
43068W        W15328   6.184  43.417  12.389
43069W        W15329  25.980  13.774  14.376
43070W        W15330   0.487  40.350  10.460
43071W        W15331  40.802   1.901   0.252
43072W        W15332   4.260  43.846   3.760
43073W        W15333  22.571   0.320  13.888
43074W        W15334  33.011   2.915  13.469
43075W        W15335  26.199  19.184   2.320
43076W        W15336  36.394  10.679  12.459
43077W        W15337  19.263   5.760  13.017
43078W        W15338   6.411  32.032   1.298
43079W        W15339  24.697  23.177   4.154
43080W        W15340   7.325  31.020   1.419
43081W        W15341  14.310  14.113   0.762
43082W        W15342   5.838  13.728   2.713
43083W        W15343  20.542  19.649  14.831
43084W        W15344  39.510  25.484  10.599
43085W        W15345  36.071  21.189   4.340
43086W        W15346  24.165   9.158   1.306
43087W        W15347  10.239  34.428   1.755
43088W        W15348  36.397  40.892   4.790
43089W        W15349  33.501  16.133  13.317
43090W        W15350  31.905  22.535  13.548
43091W        W15351  23.661   8.697  10.966
43092W        W15352  29.431  18.247   1.215
43093W        W15353  26.532   6.191  14.773
43094W        W15354   3.813   6.855   0.894
43095W        W15355   9.722  38.851   1.878
43096W        W15356  25.625   4.718  11.072
43097W        W15357   8.764  35.378   0.321
43098W        W15358  22.188   9.372  10.557
43099W        W15359  28.948  41.393   0.244
43100W        W15360  17.145  39.464  10.635
43101W        W15361  16.171  16.273  14.764
43102W        W15362  33.540  12.290  14.290
43103W        W15363  44.279  43.479   2.741
43104W        W15364  25.495  10.228  12.969
43105W        W15365  19.573  18.775   0.249
43106W        W15366  42.392  18.711  13.821
43107W        W15367  40.044  28.064   0.777
43108W        W15368  10.194  14.124   4.144
43109W        W15369  41.444  39.861   0.778
43110W        W15370  13.640  39.882  13.344
43111W        W15371  42.422  24.052   0.802
43112W        W15372  22.631  13.177  12.394
43113W        W15373  18.146  28.672   0.940
43114W        W15374  32.627  32.487   3.342
43115W        W15375  41.466  25.065  14.771
43116W        W15376  28.970  34.914   4.163
43117W        W15377  17.218  42.995   1.263
43118W        W15378   6.214  44.936  11.070
43119W        W15379  36.358  37.420   1.230
43120W        W15380   2.296  29.132  12.991
43121W        W15381  30.161  25.685  13.031
43122W        W15382  15.155  38.424  12.524
43123W        W15383  28.511  24.539   3.342
43124W        W15384  32.923  28.956   4.134
43125W        W15385  24.544  12.793   1.415
43126W        W15386  12.270   7.380   4.714
43127W        W15387  39.837  39.482   2.677
43128W        W15388  17.738   4.251   4.739
43129W        W15389  27.105   4.351   4.719
43130W        W15390  34.049  37.863  14.862
43131W        W15391  40.833  25.566   2.820
43132W        W15392  40.473   7.804  14.967
43133W        W15393  29.519  15.599   0.754
43134W        W15394  17.152   7.396   5.726
43135W        W15395  39.971  17.791   4.716
43136W        W15396  38.518  26.655  14.957
43137W        W15397  42.991  44.296  10.627
43138W        W15398  38.349   2.231  12.839
43139W        W15399   3.332   1.925   4.649
43140W        W15400  22.013  44.499   3.847
43141W        W15401  17.069  41.417   3.794
43142W        W15402  27.999  23.685  10.091
43143W        W15403   1.331   8.791  14.325
43144W        W15404  36.350  22.531   3.278
43145W        W15405  33.443  39.987   2.809
43146W        W15406   5.396  37.840   0.400
43147W        W15407  20.192  36.926   4.214
43148W        W15408   3.425   2.758   4.285
43149W        W15409  34.106   5.376  11.401
43150W        W15410  44.476  30.609   0.756
43151W        W15411  20.137  21.205   5.262
43152W        W15412  15.156  33.964  14.439
43153W        W15413  21.704  41.327   3.790
43154W        W15414   7.881  27.994   1.363
43155W        W15415  32.631   7.856  14.826
43156W        W15416   4.409  27.539  14.494
43157W        W15417  28.627  41.429   2.753
43158W        W15418  24.690   3.723  11.976
43159W        W15419   3.747   2.225  12.483
43160W        W15420  15.163  14.678   3.799
43161W        W15421   9.787   8.351   2.848
43162W        W15422  34.110  24.185  11.379
43163W        W15423  40.498  25.661   2.245
43164W        W15424   6.320  26.606   1.372
43165W        W15425  41.920  37.340   2.324
43166W        W15426  27.556  44.358   2.852
43167W        W15427  33.906  43.458   1.322
43168W        W15428  11.157  25.632  13.796
43169W        W15429  26.060   4.743  10.116
43170W        W15430  23.721  17.211   1.235
43171W        W15431  42.486   9.204   1.418
43172W        W15432  32.983  43.855   3.677
43173W        W15433  20.205  18.620   2.867
43174W        W15434  39.499  15.167  14.968
43175W        W15435  39.913  32.046   4.337
43176W        W15436  38.354  14.330  12.892
43177W        W15437  44.958   8.829  12.534
43178W        W15438  34.544  10.641   4.291
43179W        W15439  35.056   3.927  14.932
43180W        W15440  14.230  39.020  14.856
43181W        W15441   4.714   4.787   1.898
43182W        W15442   0.259  25.157   3.268
43183W        W15443  21.574  40.949   4.767
43184W        W15444   3.771  22.055  14.991
43185W        W15445  43.281  37.487   4.683
43186W        W15446  11.199  23.676   4.158
43187W        W15447  12.778  16.136  11.507
43188W        W15448  23.161  31.899   0.449
43189W        W15449  40.531  44.828  11.933
43190W        W15450  35.477  18.051   1.844
43191W        W15451   0.800  12.688  13.027
43192W        W15452   9.781  15.110  11.573
43193W        W15453  39.445  31.064   4.116
43194W        W15454  32.410   5.724  12.941
43195W        W15455   7.865  26.585   4.825
43196W        W15456  28.502   1.783  12.979
43197W        W15457  43.311  11.241   0.373
43198W        W15458   6.818   8.859   0.249
43199W        W15459  43.352  16.744   0.254
43200W        W15460  10.846   6.232   4.796
43201W        W15461   0.893  28.010  10.937
43202W        W15462  12.178  43.310   4.120
43203W        W15463  26.649  14.323   3.286
43204W        W15464   5.931  13.767   4.204
43205W        W15465   3.350   9.713  14.415
43206W        W15466   3.871  37.390   0.761
43207W        W15467  35.889  20.141   3.297
43208W        W15468  20.078  43.958  10.889
43209W        W15469   5.242  26.165   9.519
43210W        W15470  41.313  39.554   3.310
43211W        W15471  13.150  20.079   1.448
43212W        W15472  27.017  40.998   3.654
43213W        W15473  27.535   3.857   0.432
43214W        W15474   6.713  19.597   4.272
43215W        W15475   5.864  43.270   4.250
43216W        W15476  41.347  36.354  11.082
43217W        W15477  34.877  33.480   4.668
43218W        W15478   2.246  34.595   0.309
43219W        W15479  21.230   6.677   0.275
43220W        W15480   9.246  15.701   1.341
43221W        W15481   9.300   5.230  11.964
43222W        W15482  40.002  13.309   3.841
43223W        W15483  40.410  18.267   2.263
43224W        W15484  36.928  27.510   2.706
43225W        W15485  23.641  43.401  12.401
43226W        W15486  39.859  44.390  13.795
43227W        W15487  21.171   4.437  11.407
43228W        W15488  13.258  32.450  10.971
43229W        W15489  27.470  37.457  13.938
43230W        W15490  39.012  37.061   2.362
43231W        W15491   9.831   2.436   1.742
43232W        W15492  22.143  16.167  13.966
43233W        W15493  24.106  28.006  14.841
43234W        W15494  10.642  44.363  12.952
43235W        W15495   4.845   6.317   2.902
43236W        W15496  44.442   3.323  10.641
43237W        W15497  15.314  30.558   0.925
43238W        W15498  41.881  33.555   4.274
43239W        W15499  40.315  11.294  11.426
43240W        W15500   3.744  41.345   2.196
43241W        W15501  22.156   8.345   2.319
43242W        W15502   0.937   7.839   2.879
43243W        W15503  23.058  28.103  13.484
43244W        W15504  34.610  25.626   2.370
43245W        W15505  15.211   3.863  12.490
43246W        W15506  44.354  33.962  10.538
43247W        W15507  24.048  24.652  13.874
43248W        W15508  38.506   5.702  14.334
43249W        W15509  12.822  43.435  10.414
43250W        W15510   2.873  24.581  11.450
43251W        W15511  17.746  17.757   3.174
43252W        W15512  41.405   9.782   0.919
43253W        W15513  24.124   5.718  10.445
43254W        W15514   4.756  13.640   2.203
43255W        W15515  30.973  22.727   5.300
43256W        W15516  23.520  44.360  14.465
43257W        W15517  20.751  29.565   4.822
43258W        W15518  15.798  32.057  13.540
43259W        W15519  27.068  37.007  12.095
43260W        W15520  19.740  40.473   3.308
43261W        W15521  22.179  41.396   3.254
43262W        W15522  20.699  10.218  10.098
43263W        W15523  31.955  37.070  11.019
43264W        W15524   3.804   2.389   1.739
43265W        W15525  44.785  34.093   3.710
43266W        W15526  27.455  34.993  14.394
43267W        W15527  26.653  40.421  14.795
43268W        W15528  35.914  23.025  14.900
43269W        W15529  35.043  14.150  12.852
43270W        W15530   7.763  19.627   2.376
43271W        W15531  44.847  34.564   4.679
43272W        W15532  16.760  23.654   3.343
43273W        W15533  24.481  31.055   0.960
43274W        W15534  29.041  14.248   5.296
43275W        W15535   1.861  30.637  13.500
43276W        W15536  26.667  19.701  13.352
43277W        W15537  20.124   1.737   3.754
43278W        W15538  43.423  30.072  11.111
43279W        W15539  25.628  13.712   1.412
43280W        W15540   7.242  42.467   0.865
43281W        W15541  15.319  34.965   1.372
43282W        W15542  15.197  44.261  11.581
43283W        W15543  13.671   7.281  10.614
43284W        W15544  42.495  17.600  14.819
43285W        W15545  34.019  32.435  10.891
43286W        W15546   4.878   2.362  13.490
43287W        W15547  17.174  41.372   2.331
43288W        W15548  19.247  44.011  13.854
43289W        W15549  30.433   2.769   1.447
43290W        W15550  25.995  11.151   1.897
43291W        W15551  17.746  26.526  11.601
43292W        W15552  38.415  29.931   3.750
43293W        W15553  27.636  13.665   4.795
43294W        W15554  14.259  36.899   2.392
43295W        W15555   1.280  17.308  12.350
43296W        W15556  43.501  11.202  12.046
43297W        W15557  42.800  31.527  10.624
43298W        W15558  42.850  31.581  14.840
43299W        W15559  31.571  28.602  11.390
43300W        W15560   3.369   4.878   0.388
43301W        W15561   9.762  18.755   0.268
43302W        W15562  15.731   7.777   2.253
43303W        W15563  15.284  38.823  11.946
43304W        W15564  34.062  35.990  10.491
43305W        W15565  25.708   3.862  14.873
43306W        W15566  40.350  28.062   2.323
43307W        W15567   0.845  16.207   3.372
43308W        W15568   2.431  19.661   2.722
43309W        W15569  15.747  25.175   4.328
43310W        W15570  34.370   0.309  14.459
43311W        W15571  29.107  22.602   3.387
43312W        W15572  41.338  32.623  13.987
43313W        W15573   0.446   2.722  10.922
43314W        W15574   9.233  17.658   0.291
43315W        W15575  17.683  28.011   0.447
43316W        W15576  40.832   5.384  12.880
43317W        W15577  19.088  35.401   3.720
43318W        W15578  39.930  40.417  13.357
43319W        W15579   3.437  14.616  13.504
43320W        W15580  19.072  34.981   2.756
43321W        W15581  30.655  43.450  11.860
43322W        W15582  21.749  15.748  13.879
43323W        W15583   6.806  17.560   2.343
43324W        W15584  25.707  20.036  12.070
43325W        W15585  30.909   7.699  12.944
43326W        W15586   3.325  36.006  13.429
43327W        W15587  31.632  27.173   1.903
43328W        W15588  38.052  27.993  10.032
43329W        W15589  40.435  30.018  14.317
43330W        W15590  28.472  24.056   0.841
43331W        W15591  10.163  16.627   9.982
43332W        W15592  16.124  43.771   4.688
43333W        W15593  42.311   3.411   4.214
43334W        W15594  34.490   9.353   2.362
43335W        W15595  40.921  37.890  13.357
43336W        W15596  30.059  17.135   2.664
43337W        W15597  43.994   1.260   3.785
43338W        W15598  38.028  34.427  13.476
43339W        W15599  21.529   1.479   1.244
43340W        W15600   3.749  15.229   4.793
43341W        W15601   1.785  17.780  13.513
43342W        W15602  35.051  36.496   2.352
43343W        W15603  19.757  11.182  11.054
43344W        W15604   0.783  33.573  13.961
43345W        W15605  37.972  27.162   1.320
43346W        W15606  30.462  39.319  13.821
43347W        W15607  37.424  27.532  12.929
43348W        W15608   3.400   5.903   0.379
43349W        W15609   1.858  34.884   3.677
43350W        W15610  12.786  12.798   4.137
43351W        W15611  19.275  29.582  10.511
43352W        W15612   4.866  27.633   3.369
43353W        W15613  30.579  11.853   3.380
43354W        W15614  40.363  25.468   3.644
43355W        W15615  11.758  44.947  11.480
43356W        W15616  33.585   6.836   2.768
43357W        W15617  40.526   0.879  12.559
43358W        W15618  12.162  10.199   2.343
43359W        W15619  16.248  17.657   3.320
43360W        W15620  41.861  41.523  13.986
43361W        W15621  41.296  32.887  14.029
43362W        W15622   6.207  28.074  11.118
43363W        W15623   0.368  22.509   1.362
43364W        W15624  44.336   9.309  11.075
43365W        W15625  21.131  35.586   3.315
43366W        W15626  30.073  19.196  11.960
43367W        W15627  25.199   8.309   3.755
43368W        W15628  33.506  28.018   1.398
43369W        W15629  28.545  31.433   2.843
43370W        W15630  18.169  28.487  12.935
43371W        W15631  43.349  16.602   2.695
43372W        W15632   5.269   1.277   0.436
43373W        W15633  26.164  20.096  12.552
43374W        W15634  23.713  38.064  14.502
43375W        W15635   9.390  34.507  11.538
43376W        W15636  39.966  22.568   3.712
43377W        W15637  33.609  15.203   4.774
43378W        W15638  34.931  41.376   0.300
43379W        W15639  23.558  27.688   4.754
43380W        W15640  39.982  24.484  12.877
43381W        W15641   4.714  15.294   3.745
43382W        W15642   5.344   2.294   1.732
43383W        W15643  39.869  28.103   1.726
43384W        W15644   3.386  42.334  10.568
43385W        W15645  23.232  21.041   0.799
43386W        W15646  13.676  26.563   2.743
43387W        W15647  18.769  12.311  12.096
43388W        W15648   4.918  43.471  10.145
43389W        W15649  26.468   1.774  13.317
43390W        W15650  41.352   9.345  11.099
43391W        W15651   6.856  43.362   2.745
43392W        W15652  11.282  15.100   2.295
43393W        W15653  10.144  20.028   1.882
43394W        W15654   1.459  37.900  11.953
43395W        W15655  23.633  19.609   4.283
43396W        W15656  29.487  29.045   4.325
43397W        W15657  17.097  16.249  14.278
43398W        W15658  23.623   4.737   2.251
43399W        W15659  38.910  12.741   1.916
43400W        W15660   3.355  40.801   0.765
43401W        W15661  42.483  24.588  10.501
43402W        W15662  37.463  19.282  14.029
43403W        W15663  22.576  14.771   2.308
43404W        W15664  27.079  22.121  13.536
43405W        W15665  12.687   1.321   3.340
43406W        W15666  29.658  38.025   2.748
43407W        W15667  10.664  26.046  10.581
43408W        W15668  11.366   1.370  14.482
43409W        W15669   2.867  17.739  14.460
43410W        W15670  25.662   6.895  13.803
43411W        W15671  32.504  32.891  10.480
43412W        W15672   4.400  32.538  12.930
43413W        W15673  32.021  14.705   2.413
43414W        W15674  15.296  44.991  14.984
43415W        W15675   1.396  25.581  14.893
43416W        W15676  19.666  40.986   3.749
43417W        W15677  26.687  35.573   1.763
43418W        W15678  38.999   9.286  13.890
43419W        W15679  36.987  41.804  14.846
43420W        W15680   3.296   0.315   1.421
43421W        W15681   0.783   1.303   0.816
43422W        W15682  19.169  40.475  11.888
43423W        W15683   8.392  29.646  13.036
43424W        W15684   4.423  38.855  14.880
43425W        W15685   2.753   8.715  11.469
43426W        W15686   6.185  33.558   2.734
43427W        W15687  35.540  24.690   1.790
43428W        W15688  34.030  32.526  13.492
43429W        W15689  10.165   7.669  10.439
43430W        W15690   5.336  32.141   1.747
43431W        W15691  37.403   7.753  10.411
43432W        W15692  34.899   5.909  11.111
43433W        W15693  10.713  33.928  10.939
43434W        W15694  26.519  39.938   5.222
43435W        W15695   8.666   4.328   0.351
43436W        W15696  39.932  35.602  14.819
43437W        W15697  33.466   3.778   0.327
43438W        W15698   1.901  16.780  11.977
43439W        W15699  37.434  10.667  13.450
43440W        W15700  19.167   4.255   4.716
43441W        W15701  18.694   1.433   0.828
43442W        W15702   3.778  30.633  10.973
43443W        W15703  41.377  13.283  13.859
43444W        W15704  41.420   2.734   4.247
43445W        W15705  36.984   2.753   1.255
43446W        W15706  13.646  11.697  14.372
43447W        W15707  26.685   3.376  11.441
43448W        W15708  10.301  26.594   3.812
43449W        W15709  19.218  13.776   4.254
43450W        W15710  28.981  32.431  10.946
43451W        W15711  18.624  19.542  11.112
43452W        W15712  39.978  30.997   2.769
43453W        W15713  41.974  43.768   0.469
43454W        W15714  40.475  30.595  14.415
43455W        W15715   7.705  39.441   3.794
43456W        W15716  33.497  15.176   1.883
43457W        W15717  21.719  37.954   3.680
43458W        W15718  20.217   9.230  14.374
43459W        W15719   9.260  12.713   5.124
43460W        W15720  24.681  28.561  11.501
43461W        W15721  41.947  24.670   1.771
43462W        W15722  30.987  15.716   3.149
43463W        W15723   1.400  34.904  13.033
43464W        W15724  24.642   4.768   4.691
43465W        W15725   1.248  33.451  11.994
43466W        W15726  39.351   7.811  13.811
43467W        W15727  24.578  24.703  12.945
43468W        W15728  18.185  16.216  11.924
43469W        W15729  44.935  23.012   0.471
43470W        W15730  43.464   4.435   0.468
43471W        W15731   1.787  20.231   4.653
43472W        W15732  13.662  17.119   9.928
43473W        W15733  16.678  12.719  12.427
43474W        W15734  39.449  14.679   4.333
43475W        W15735   4.929  11.259   1.780
43476W        W15736  19.637  29.001   1.359
43477W        W15737  24.067  29.559  10.982
43478W        W15738  41.945   8.282   1.382
43479W        W15739  44.967   5.286   4.196
43480W        W15740  23.585  23.723   1.926
43481W        W15741  34.395   2.846  11.964
43482W        W15742  31.635  34.942   2.228
43483W        W15743   6.891  26.017   3.729
43484W        W15744  42.443  31.980   1.399
43485W        W15745   6.260  26.459   3.152
43486W        W15746   0.942  22.133   0.481
43487W        W15747   6.743  32.102  12.551
43488W        W15748  17.623  26.672  11.870
43489W        W15749   6.412  36.413   4.746
43490W        W15750   5.216  10.267  13.923
43491W        W15751  34.043   7.803  13.038
43492W        W15752  21.070   1.351   3.260
43493W        W15753  42.999  20.744  11.859
43494W        W15754  15.247  24.711  12.565
43495W        W15755  22.547  37.867  10.567
43496W        W15756  17.249  18.050   1.270
43497W        W15757   9.221  41.358  10.430
43498W        W15758   4.857  37.880   2.865
43499W        W15759  32.892   1.412   0.407
43500W        W15760  12.742  17.697  13.009
43501W        W15761  21.091  23.241   3.731
43502W        W15762  44.307  43.785  13.353
43503W        W15763  12.693   0.925   3.300
43504W        W15764   8.733   1.394  12.426
43505W        W15765  21.179  38.042   3.708
43506W        W15766   7.679  20.692  12.041
43507W        W15767   2.841  22.674  11.509
43508W        W15768  25.564  19.040   0.937
43509W        W15769  25.196  27.054  11.982
43510W        W15770  38.443   6.752   5.107
43511W        W15771  26.485  11.329   2.323
43512W        W15772  13.714   0.275   0.262
43513W        W15773  40.900  31.013  13.822
43514W        W15774  24.210   7.788   2.779
43515W        W15775  17.127  23.119  14.478
43516W        W15776   9.680  30.505  14.899
43517W        W15777  41.452  26.007  11.544
43518W        W15778  23.628  17.652   3.728
43519W        W15779  25.566   5.343   3.767
43520W        W15780  38.461   2.832  11.598
43521W        W15781  37.971  43.297  10.952
43522W        W15782  29.078  30.933  11.520
43523W        W15783   3.918  32.922   0.781
43524W        W15784   8.389  14.268   3.189
43525W        W15785  38.998  23.717   1.256
43526W        W15786  11.338  32.058  10.945
43527W        W15787  14.724   0.840   0.345
43528W        W15788  18.709  40.048  10.897
43529W        W15789  35.589  16.591  14.762
43530W        W15790  39.840  28.998  14.486
43531W        W15791  23.120   2.870  14.409
43532W        W15792   3.840  22.202   4.662
43533W        W15793  23.692  42.021   4.335
43534W        W15794  19.199  25.037  11.093
43535W        W15795  28.672  19.671   1.346
43536W        W15796  35.048  15.796  10.046
43537W        W15797   8.387  12.334  11.944
43538W        W15798  21.105  39.854  14.330
43539W        W15799   3.907  21.053   2.712
43540W        W15800  12.789  29.644  10.637
43541W        W15801  42.979  21.702  14.404
43542W        W15802  13.125  16.263   5.217
43543W        W15803  20.648  38.911  10.553
43544W        W15804  31.495  29.918   1.772
43545W        W15805  23.571  13.649   4.220
43546W        W15806  15.730  10.858   0.806
43547W        W15807  13.602  18.778   3.771
43548W        W15808   6.197  10.171  11.106
43549W        W15809   9.358   8.850  10.994
43550W        W15810  10.642  42.835  13.816
43551W        W15811  26.083   1.410  11.564
43552W        W15812  20.549  22.102   3.746
43553W        W15813  23.080  38.014  11.582
43554W        W15814  11.186  18.698  11.979
43555W        W15815  28.027   6.285   4.712
43556W        W15816  33.381  10.240  11.075
43557W        W15817   2.922  33.131   4.788
43558W        W15818  19.157  18.632  14.944
43559W        W15819  31.127   0.771   0.860
43560W        W15820   7.701  21.032   0.907
43561W        W15821  16.314  34.507  10.499
43562W        W15822  12.632  18.105  13.516
43563W        W15823   6.300  17.573  11.112
43564W        W15824  26.593  26.169  10.159
43565W        W15825  28.045  24.144   2.751
43566W        W15826  14.797   6.817   0.304
43567W        W15827  29.647  19.646  10.961
43568W        W15828   7.875  25.004  11.093
43569W        W15829  22.612   7.216  10.103
43570W        W15830  34.382  18.141  10.988
43571W        W15831  28.084  44.334   2.209
43572W        W15832  29.971  28.956   2.338
43573W        W15833  24.681  29.562  11.441
43574W        W15834  34.980   4.822  13.926
43575W        W15835  39.816   7.214  14.312
43576W        W15836  20.041  33.061  14.813
43577W        W15837  16.568  38.351  10.931
43578W        W15838  25.631  33.121  13.441
43579W        W15839  14.794  28.024   4.190
43580W        W15840  18.571  40.474   4.814
43581W        W15841   5.328  18.566  11.964
43582W        W15842   1.395  27.145  14.473
43583W        W15843  26.546  37.847   3.310
43584W        W15844  18.590  41.961   0.962
43585W        W15845  27.162  44.291   3.226
43586W        W15846  11.860  33.528   1.400
43587W        W15847  27.158  14.598  13.406
43588W        W15848  43.443   7.329   1.429
43589W        W15849  20.614   2.917  10.558
43590W        W15850   4.874  19.207  14.905
43591W        W15851  17.205  28.033  13.530
43592W        W15852  34.587  42.466  11.095
43593W        W15853   1.417  20.753  12.062
43594W        W15854  24.666  31.537   3.344
43595W        W15855  26.015  10.709  14.294
43596W        W15856  38.364  27.062  10.485
43597W        W15857  10.798  16.577  14.776
43598W        W15858  13.785  18.205   3.866
43599W        W15859  23.024   7.352  13.889
43600W        W15860   0.267  32.120  12.548
43601W        W15861  39.969  38.939  13.390
43602W        W15862  17.606  24.122   3.834
43603W        W15863  18.184  15.278  12.929
43604W        W15864  24.627  27.193   4.774
43605W        W15865  31.546  16.737  11.585
43606W        W15866   3.256  37.844   3.741
43607W        W15867  20.527  20.261   1.292
43608W        W15868   6.878  19.723   2.304
43609W        W15869  10.193  32.565   3.366
43610W        W15870   1.869  13.621   1.885
43611W        W15871   4.820   6.752  10.539
43612W        W15872  19.652  14.185   2.700
43613W        W15873  43.446   4.862  10.900
43614W        W15874   0.415  38.530   1.225
43615W        W15875  12.265  12.233  10.533
43616W        W15876  34.104  14.095   2.874
43617W        W15877   5.403  19.169  13.516
43618W        W15878   2.924   8.397   3.694
43619W        W15879  10.741  43.330  13.390
43620W        W15880  11.674  39.483   0.359
43621W        W15881  13.645   7.414  14.881
43622W        W15882  41.510  12.288   1.715
43623W        W15883   8.725  27.968  14.324
43624W        W15884  40.453  25.550   0.821
43625W        W15885  19.576   5.804  14.370
43626W        W15886  30.090   2.461   0.389
43627W        W15887  44.982   8.396   0.426
43628W        W15888  31.576  39.967  12.466
43629W        W15889  24.684  40.401   4.652
43630W        W15890  12.264  36.983   1.843
43631W        W15891   2.930  13.269  14.328
43632W        W15892  12.271  15.141  11.087
43633W        W15893  25.574  20.169   1.831
43634W        W15894  26.578  33.972  13.409
43635W        W15895  28.111   3.275   1.290
43636W        W15896  33.448  15.628   2.348
43637W        W15897  28.134  28.440  12.486
43638W        W15898  28.580  13.186  14.326
43639W        W15899   6.227  17.297  13.918
43640W        W15900   9.666  23.129  11.601
43641W        W15901  25.691  41.423  11.029
43642W        W15902  29.943   4.870  12.960
43643W        W15903  42.363   1.456   2.814
43644W        W15904  44.906  10.736  14.905
43645W        W15905  17.560   5.773   2.380
43646W        W15906  17.131  41.846   3.726
43647W        W15907  23.088  11.270  10.996
43648W        W15908  42.872  31.935  14.862
43649W        W15909  34.958  16.094  10.641
43650W        W15910  39.503  36.979   0.750
43651W        W15911  31.141  36.511  12.411
43652W        W15912  40.999  16.193  10.459
43653W        W15913   5.231  34.011  11.385
43654W        W15914  17.754  15.197  12.008
43655W        W15915  33.044  43.347   3.264
43656W        W15916   0.757  17.260  10.479
43657W        W15917   1.467  39.908   4.804
43658W        W15918  20.548   4.772  14.318
43659W        W15919  35.971  26.161   1.342
43660W        W15920  33.023   7.316   0.322
43661W        W15921  16.311  12.334  10.548
43662W        W15922  19.546   6.206   0.451
43663W        W15923  34.089  11.214   4.181
43664W        W15924   0.765   0.337   3.325
43665W        W15925  34.037  43.331   2.846
43666W        W15926   7.868  11.300   3.693
43667W        W15927  20.658  15.090   2.763
43668W        W15928  41.419  19.280   2.367
43669W        W15929  24.066  10.297  13.875
43670W        W15930  11.810  40.340   1.345
43671W        W15931  12.681  21.171  14.901
43672W        W15932  40.346  20.533   3.343
43673W        W15933  21.087  44.324  12.497
43674W        W15934  18.260  43.322  13.983
43675W        W15935   8.898   6.722   0.463
43676W        W15936   4.222  34.592   3.285
43677W        W15937  43.996  38.909  13.421
43678W        W15938  41.983   6.786   0.419
43679W        W15939   3.939   7.861   4.271
43680W        W15940  25.076  34.920  14.914
43681W        W15941  27.613  17.663  14.807
43682W        W15942  42.901  34.058  14.479
43683W        W15943  42.818   8.226   0.333
43684W        W15944  27.123  23.594   2.219
43685W        W15945  32.557  34.594   2.276
43686W        W15946  27.487  23.196  12.060
43687W        W15947  26.051   6.233   4.238
43688W        W15948   5.885  21.164  12.368
43689W        W15949  42.510  34.414   0.248
43690W        W15950  37.450  43.937   1.287
43691W        W15951  30.560  34.866   3.720
43692W        W15952  21.036  19.088  13.866
43693W        W15953  35.897  30.556   3.856
43694W        W15954  43.405  30.012  12.933
43695W        W15955  29.109   6.355  14.507
43696W        W15956  24.109   9.764   4.756
43697W        W15957   5.277   4.941  13.512
43698W        W15958  15.330  29.540   3.336
43699W        W15959  13.810  25.638  13.913
43700W        W15960   3.424  44.360   0.470
43701W        W15961  34.974  44.877   0.312
43702W        W15962  34.562  32.930   2.308
43703W        W15963  35.032  19.270   2.742
43704W        W15964  25.470  24.013   3.298
43705W        W15965  14.237  26.001  14.877
43706W        W15966  28.133   7.354  14.026
43707W        W15967   0.487  40.501  10.888
43708W        W15968  15.807  18.682   5.081
43709W        W15969  11.852  35.998   5.125
43710W        W15970  29.165  19.692   3.293
43711W        W15971  44.925  31.477  13.948
43712W        W15972  14.603  38.430  12.483
43713W        W15973  30.985  32.993  12.829
43714W        W15974  32.027  14.151   1.238
43715W        W15975  33.526  22.564  11.111
43716W        W15976  36.485  37.446   1.920
43717W        W15977  10.766  35.016  12.032
43718W        W15978  14.148  26.623  12.865
43719W        W15979  35.457  41.404   3.774
43720W        W15980  24.146  34.576   1.816
43721W        W15981  17.676   1.942  13.864
43722W        W15982  28.975  11.220   3.265
43723W        W15983  31.476   4.344   0.306
43724W        W15984   6.685  18.714   3.707
43725W        W15985  43.291  37.839   0.243
43726W        W15986  25.684  29.460  12.434
43727W        W15987  37.085  23.143  12.915
43728W        W15988   2.403  20.530   3.206
43729W        W15989  38.913   9.842   4.234
43730W        W15990  44.916   6.294   4.212
43731W        W15991  12.273   8.861  13.815
43732W        W15992   2.456  15.227  11.001
43733W        W15993  29.152  35.999  11.997
43734W        W15994  11.245   2.327   0.433
43735W        W15995  27.446  38.984  13.939
43736W        W15996   2.289  19.555  12.969
43737W        W15997   6.266  29.126   1.295
43738W        W15998  11.661  40.335   2.830
43739W        W15999  26.488   1.263   1.802
43740W        W16000   8.326  29.116  10.437
43741W        W16001  15.184  10.736  12.389
43742W        W16002   3.933  16.630  11.514
43743W        W16003   4.778  39.492   0.784
43744W        W16004   7.850  30.083   2.345
43745W        W16005  17.797   6.238   3.263
43746W        W16006  17.080  26.473   5.309
43747W        W16007  37.469  36.036  14.014
43748W        W16008  33.885  39.989  13.460
43749W        W16009  43.394  34.491   5.114
43750W        W16010  11.866  32.106   1.301
43751W        W16011   8.234  39.009   3.824
43752W        W16012   1.464  11.645   3.840
43753W        W16013  40.502  38.002   0.432
43754W        W16014  43.956  26.090   4.674
43755W        W16015  43.352  20.183  11.973
43756W        W16016  12.339  34.093   4.302
43757W        W16017  33.568  44.337   2.692
43758W        W16018  27.148  18.776  10.471
43759W        W16019   1.735   1.255   4.620
43760W        W16020   3.854  13.730   1.699
43761W        W16021  10.292  43.512  12.388
43762W        W16022  15.615  32.008   4.604
43763W        W16023  15.196  40.054   1.866
43764W        W16024  30.959  21.714   0.438
43765W        W16025  37.366  40.879   1.314
43766W        W16026  30.472  38.001  13.428
43767W        W16027  24.123  25.555   0.845
43768W        W16028  32.117  38.353   2.257
43769W        W16029   7.255  19.153  11.551
43770W        W16030  20.563  42.846  13.909
43771W        W16031  20.558  40.912  13.358
43772W        W16032   4.423  32.425   1.300
43773W        W16033   7.185  32.439   4.266
43774W        W16034  31.026  38.840   5.196
43775W        W16035  40.915  42.830  11.379
43776W        W16036  20.574  33.989  10.587
43777W        W16037  24.226   8.347   0.402
43778W        W16038   2.865   3.914   3.719
43779W        W16039  40.363  30.105  12.986
43780W        W16040   2.770   7.862   1.211
43781W        W16041  22.535  21.667   4.145
43782W        W16042  13.336  27.598   1.833
43783W        W16043  23.710   7.265   1.796
43784W        W16044  16.216  39.376  14.418
43785W        W16045  37.402  32.505   3.749
43786W        W16046  44.326  21.164  12.094
43787W        W16047  17.285   0.792  12.055
43788W        W16048  30.065  29.531  11.481
43789W        W16049   1.939   1.924  11.912
43790W        W16050   5.316  16.246   4.118
43791W        W16051  29.655  10.377  11.990
43792W        W16052  43.889  33.080  13.459
43793W        W16053   0.285  31.133   1.377
43794W        W16054  28.665   0.978   0.385
43795W        W16055   6.821  32.556   0.850
43796W        W16056  16.087  26.207   4.775
43797W        W16057  17.271  42.419   3.273
43798W        W16058  11.341  32.465  14.858
43799W        W16059  27.554  16.078  11.488
43800W        W16060  40.407  35.449  14.010
43801W        W16061  28.435  38.534  11.529
43802W        W16062  24.586   9.231  12.076
43803W        W16063  39.017  33.532   4.796
43804W        W16064  35.058  21.683   3.830
43805W        W16065  20.645  30.514  13.391
43806W        W16066   2.348  24.133  10.976
43807W        W16067  28.464  34.419   3.736
43808W        W16068  35.499   6.879   2.287
43809W        W16069  24.162  36.058   4.708
43810W        W16070  35.393  38.020   1.730
43811W        W16071  35.912  19.563  13.028
43812W        W16072   6.404  18.682  14.850
43813W        W16073  13.237  12.766  11.922
43814W        W16074  17.280  42.496  12.062
43815W        W16075  22.656  21.147  12.429
43816W        W16076  19.602   1.403  11.586
43817W        W16077   0.751  13.273  14.469
43818W        W16078  35.899  13.793   2.180
43819W        W16079  10.313  44.325  10.542
43820W        W16080   5.273  27.046   2.724
43821W        W16081   6.283  15.790   0.728
43822W        W16082   5.709  35.561   4.681
43823W        W16083   2.823   2.816  11.895
43824W        W16084  31.589  41.883  12.534
43825W        W16085  24.024   5.403   2.305
43826W        W16086  24.497   8.376  12.473
43827W        W16087  28.642  28.615   3.701
43828W        W16088  16.305   3.287   1.266
43829W        W16089  44.938  42.948  14.867
43830W        W16090  14.264  17.711   9.935
43831W        W16091  42.822  10.218  13.453
43832W        W16092  28.048  41.976  14.855
43833W        W16093  38.944   2.886   4.625
43834W        W16094  33.616  30.053  13.524
43835W        W16095  19.587  13.691  12.480
43836W        W16096  26.487  37.864   3.764
43837W        W16097  22.578   4.827  14.916
43838W        W16098  32.569  44.342   3.801
43839W        W16099  22.182  28.984   5.217
43840W        W16100  36.358  18.649  14.481
43841W        W16101  37.468  43.275   4.149
43842W        W16102   7.732  27.602   3.328
43843W        W16103  28.462  13.732   3.188
43844W        W16104  27.613  28.039   4.811
43845W        W16105   9.681  19.070   4.674
43846W        W16106  43.426  36.008  13.841
43847W        W16107  21.257  10.350  13.918
43848W        W16108  11.799  17.112   3.349
43849W        W16109  13.187  38.452   4.339
43850W        W16110  32.080  41.474   2.213
43851W        W16111  15.230   7.811  10.899
43852W        W16112  37.397  27.158  14.802
43853W        W16113   4.406  35.058  12.548
43854W        W16114  34.006   8.270   2.343
43855W        W16115   6.321  30.015  10.943
43856W        W16116  25.153   3.266   4.776
43857W        W16117  11.661  22.572   3.665
43858W        W16118  22.029  17.296   1.320
43859W        W16119  43.982   6.809  11.553
43860W        W16120   3.347   0.463  10.537
43861W        W16121  25.053   7.407  14.452
43862W        W16122   7.414  19.670  10.409
43863W        W16123  30.089   1.469  10.596
43864W        W16124  32.458  39.013  11.052
43865W        W16125   1.370  27.487  12.921
43866W        W16126  20.723  33.598   3.671
43867W        W16127  33.390   3.843   3.737
43868W        W16128  13.143  31.085   2.384
43869W        W16129  20.153  34.109  11.101
43870W        W16130  25.197  13.265   0.882
43871W        W16131   6.916  33.991   2.337
43872W        W16132   8.184   0.931  14.859
43873W        W16133   2.358  33.098   2.252
43874W        W16134  28.023  18.088  13.545
43875W        W16135  10.262  14.597   0.478
43876W        W16136  12.624  43.816  14.771
43877W        W16137  41.499  17.069   1.760
43878W        W16138  22.049  12.201   4.163
43879W        W16139  39.012   0.773   0.376
43880W        W16140   7.872   0.930  14.812
43881W        W16141   6.918   6.808  14.507
43882W        W16142  44.447  37.494  12.351
43883W        W16143   6.226  30.451   3.854
43884W        W16144   8.201  21.580  13.402
43885W        W16145  25.677  12.178   1.777
43886W        W16146   7.822  18.601  10.469
43887W        W16147  30.553  10.701  12.499
43888W        W16148   6.202  16.248  14.391
43889W        W16149  30.908  10.657   2.774
43890W        W16150   7.685  12.196  12.987
43891W        W16151  14.733   0.282  12.422
43892W        W16152  41.296  25.141  12.458
43893W        W16153  18.139  19.284   3.743
43894W        W16154  21.738  39.529  13.940
43895W        W16155  26.472  31.438  12.516
43896W        W16156  27.449  32.971   2.309
43897W        W16157   0.847   7.867   0.419
43898W        W16158  21.201   1.824   1.338
43899W        W16159   2.877  39.993  13.474
43900W        W16160  35.424  40.523   3.349
43901W        W16161  33.460  35.929  13.939
43902W        W16162  32.496   6.194  10.570
43903W        W16163  43.868  21.096   4.735
43904W        W16164  10.249   7.806   2.665
43905W        W16165  29.585  21.667   4.786
43906W        W16166  28.631  22.158  13.813
43907W        W16167  25.084  20.617  14.344
43908W        W16168  34.600  19.581   2.215
43909W        W16169   3.290   0.356   0.383
43910W        W16170  10.736  19.113  13.842
43911W        W16171  41.506   0.930  10.912
43912W        W16172  14.140  28.061   3.221
43913W        W16173  14.157  33.087   2.384
43914W        W16174  28.116  10.302   0.817
43915W        W16175  31.995  11.824  13.545
43916W        W16176  42.011  22.656   3.352
43917W        W16177  26.032  24.143   0.899
43918W        W16178  25.107  23.218  11.420
43919W        W16179   8.784   6.298   3.198
43920W        W16180  29.484  36.010   1.717
43921W        W16181   7.883  41.513  13.998
43922W        W16182   7.357  41.445  14.888
43923W        W16183  18.670  44.981   1.339
43924W        W16184  39.990  24.123   3.339
43925W        W16185   0.849  22.738   2.207
43926W        W16186   5.694  33.968  13.810
43927W        W16187  16.732  19.606  11.502
43928W        W16188  43.841   7.753  14.457
43929W        W16189  30.006  36.423  14.017
43930W        W16190  38.345  29.571  11.011
43931W        W16191   9.172  41.427   2.282
43932W        W16192   1.284  44.988   1.773
43933W        W16193  10.194  11.296   3.375
43934W        W16194  30.580  27.539  12.470
43935W        W16195  16.180  41.903  12.445
43936W        W16196  40.022   5.873  12.430
43937W        W16197  29.639  40.969   0.386
43938W        W16198  39.435  31.899  14.977
43939W        W16199  32.990  36.083  10.456
43940W        W16200  23.114  37.509   0.375
43941W        W16201  16.580  20.121  11.886
43942W        W16202  13.199   7.254  10.150
43943W        W16203  40.360  40.314  14.841
43944W        W16204  35.928   2.289  10.973
43945W        W16205  27.612  23.230   4.720
43946W        W16206  11.327  25.048   4.155
43947W        W16207  38.032  10.687   4.719
43948W        W16208  21.524  22.071  10.938
43949W        W16209  25.518  20.093   0.444
43950W        W16210  14.302   0.327  12.879
43951W        W16211  12.732  38.069  14.963
43952W        W16212  14.788  21.049  12.454
43953W        W16213  37.408   9.649   2.416
43954W        W16214  10.174   1.807  11.552
43955W        W16215  12.313  14.113  11.987
43956W        W16216   0.800  23.635  10.616
43957W        W16217  37.992  15.247   2.787
43958W        W16218  19.146  36.440   3.250
43959W        W16219  31.459  28.571   3.840
43960W        W16220  32.093  35.589  12.561
43961W        W16221  33.881  20.067  14.346
43962W        W16222  44.461   5.923   3.179
43963W        W16223  23.193  10.175  11.114
43964W        W16224  43.383   1.964   3.256
43965W        W16225   8.178  41.855   4.305
43966W        W16226  23.235  38.336   1.257
43967W        W16227   4.896  29.629  13.877
43968W        W16228  43.768  44.825  11.556
43969W        W16229  40.818  41.812   4.706
43970W        W16230  28.062   5.246   4.251
43971W        W16231  28.658  37.907   0.772
43972W        W16232  13.678   8.738  14.781
43973W        W16233  29.108  14.674   4.336
43974W        W16234   6.876  19.537   0.799
43975W        W16235  44.861  25.074  10.581
43976W        W16236   5.747  33.046  11.047
43977W        W16237   7.228  18.550  13.334
43978W        W16238   2.419  39.526   2.663
43979W        W16239  24.063  27.147  13.339
43980W        W16240  29.056  44.468  13.849
43981W        W16241  30.939  30.950   2.334
43982W        W16242  38.870  24.101  11.027
43983W        W16243  44.375  40.539   5.308
43984W        W16244   8.165  38.916  12.077
43985W        W16245   9.888  41.387   0.296
43986W        W16246  31.636  38.472   0.433
43987W        W16247  44.963  14.637  13.061
43988W        W16248   8.896  21.261  13.026
43989W        W16249  32.995  32.549  10.460
43990W        W16250  29.986  26.077  12.381
43991W        W16251  19.170   9.232  13.413
43992W        W16252  34.979  10.180  13.895
43993W        W16253   1.383  44.370  14.913
43994W        W16254  12.207  17.285  13.446
43995W        W16255  38.060   2.230  12.998
43996W        W16256  32.558  44.289   4.728
43997W        W16257  42.917  40.810  10.923
43998W        W16258   7.328  37.833  10.503
43999W        W16259   3.421   1.913  12.419
44000W        W16260   1.848  42.813  12.955
44001W        W16261  27.040  25.061   1.858
44002W        W16262  27.616  31.612   2.372
44003W        W16263  27.478   6.267   0.367
44004W        W16264  14.602   8.811   9.975
44005W        W16265  40.845   3.743   0.819
44006W        W16266  41.788   6.197   3.704
44007W        W16267  12.200  14.231   0.349
44008W        W16268  25.968   9.726   3.800
44009W        W16269  13.180  19.175  11.002
44010W        W16270  34.105  40.308   1.781
44011W        W16271  34.031   1.384   1.356
44012W        W16272  13.182  16.772  14.399
44013W        W16273  38.459   1.346   1.331
44014W        W16274  14.750   0.787  12.393
44015W        W16275  30.103   1.920   1.421
44016W        W16276   4.329  35.507   3.352
44017W        W16277   5.867  25.978   5.254
44018W        W16278  26.027  16.789  10.445
44019W        W16279   1.253   4.822   1.302
44020W        W16280  26.146  28.121   4.217
44021W        W16281  38.869   4.826  13.469
44022W        W16282  24.067   9.889   1.754
44023W        W16283   8.674  14.100  13.899
44024W        W16284  19.775  33.976   1.298
44025W        W16285   6.404  24.545   3.723
44026W        W16286  44.837  40.358   0.409
44027W        W16287  27.169  26.577   3.653
44028W        W16288  23.041  22.660  14.775
44029W        W16289  17.673  23.572  14.012
44030W        W16290  36.353  19.601   3.703
44031W        W16291  22.217  43.361   2.329
44032W        W16292  36.078  18.749   1.721
44033W        W16293  42.996  11.643   1.908
44034W        W16294  36.869  30.637  10.894
44035W        W16295  19.193  42.346   0.373
44036W        W16296  16.118  10.865  10.967
44037W        W16297  43.351  30.626  12.904
44038W        W16298   1.750  16.623   2.813
44039W        W16299  21.034  35.556  13.824
44040W        W16300  24.602  25.031   0.291
44041W        W16301  41.811  13.179   3.694
44042W        W16302  12.139   6.253  13.443
44043W        W16303  18.151  39.503  12.563
44044W        W16304  41.963  43.275  12.408
44045W        W16305  31.134  24.024   3.167
44046W        W16306  32.470  31.480   4.625
44047W        W16307   3.458  27.152  12.859
44048W        W16308   7.380  27.450   3.360
44049W        W16309  17.652   0.987   4.324
44050W        W16310  17.712  36.567   1.814
44051W        W16311  40.506  27.067   3.666
44052W        W16312  27.547  37.366   2.806
44053W        W16313  38.962  23.050  12.483
44054W        W16314   4.821  21.658   4.812
44055W        W16315  41.817  10.790  13.886
44056W        W16316  38.448  38.838   4.198
44057W        W16317  28.558  18.594  12.909
44058W        W16318  25.135  25.564  13.033
44059W        W16319  21.652  28.565   4.730
44060W        W16320   1.446  27.122  12.398
44061W        W16321   4.433  35.385   0.909
44062W        W16322   9.360   5.803   4.202
44063W        W16323  33.577  14.704  13.007
44064W        W16324  24.114  19.569  14.452
44065W        W16325  25.179  34.900   2.315
44066W        W16326  12.255  36.418  13.826
44067W        W16327  44.822  24.658   0.256
44068W        W16328  23.090  20.747  12.993
44069W        W16329  41.362  29.471   1.387
44070W        W16330  36.861  32.461   4.193
44071W        W16331  36.868   9.698  14.402
44072W        W16332  31.566   9.205   4.701
44073W        W16333  23.623   6.884  12.014
44074W        W16334  33.590  37.569   1.802
44075W        W16335  38.372   2.727   4.124
44076W        W16336  33.610  21.668  10.583
44077W        W16337  44.815   8.762  13.940
44078W        W16338   3.710  29.995   2.287
44079W        W16339  15.694  24.614  13.954
44080W        W16340  37.897  13.339   2.822
44081W        W16341  41.421   0.945  11.528
44082W        W16342  30.130  38.337   1.280
44083W        W16343  16.304  25.673  13.437
44084W        W16344   1.976  39.501   0.882
44085W        W16345  27.484  38.942   0.426
44086W        W16346  13.776  10.211   1.355
44087W        W16347  20.204  18.712  11.860
44088W        W16348  14.228  30.991   4.704
44089W        W16349  17.212  43.792   0.388
44090W        W16350  23.650  29.520  10.912
44091W        W16351   5.372  19.157  11.515
44092W        W16352  23.504  36.084  12.949
44093W        W16353  17.266  35.990  12.842
44094W        W16354  14.834  25.103  13.336
44095W        W16355  28.001  33.914   1.344
44096W        W16356   5.271  24.536  12.534
44097W        W16357  18.564  18.181   2.895
44098W        W16358  11.858  31.609   0.964
44099W        W16359  27.005  18.597   4.612
44100W        W16360  12.301  14.146  13.398
44101W        W16361  17.575  36.951  13.943
44102W        W16362   7.210  40.308  14.760
44103W        W16363  35.883   5.369  14.782
44104W        W16364  32.437  21.661   0.753
44105W        W16365  35.583  40.968   1.724
44106W        W16366  42.296  26.620  14.921
44107W        W16367  17.212  14.316   2.736
44108W        W16368  10.320  25.656  13.802
44109W        W16369   1.748  13.702  13.335
44110W        W16370   8.352   4.352  10.546
44111W        W16371  19.096  34.114   3.868
44112W        W16372  39.992  14.634   1.386
44113W        W16373   0.282   2.818   2.718
44114W        W16374  35.882  40.416   4.835
44115W        W16375  31.136  21.692  11.093
44116W        W16376  14.194   7.366   2.735
44117W        W16377  16.667   6.812   0.885
44118W        W16378  32.041   3.269   0.788
44119W        W16379  41.536   8.773   0.812
44120W        W16380  13.706   7.208  11.556
44121W        W16381  35.383  19.179  12.831
44122W        W16382   1.431  13.611   0.326
44123W        W16383  29.444  42.957  14.361
44124W        W16384  17.090   3.326  11.079
44125W        W16385  12.241  13.846   3.669
44126W        W16386  43.438  41.310   2.288
44127W        W16387  29.066  11.268  12.373
44128W        W16388  25.549  11.863   1.386
44129W        W16389  31.532   7.728   4.116
44130W        W16390  35.102   3.293   4.802
44131W        W16391  29.920  32.965  13.963
44132W        W16392  24.720  41.305   3.165
44133W        W16393  28.440  20.057   3.867
44134W        W16394  28.030  29.001  13.977
44135W        W16395  41.981  30.525  11.914
44136W        W16396  31.529  21.119   1.728
44137W        W16397  41.295   7.221  10.478
44138W        W16398   5.880  13.741  12.954
44139W        W16399  16.639  17.148   0.922
44140W        W16400  22.019  13.779  11.593
44141W        W16401  13.348  34.065   3.162
44142W        W16402   9.667  23.984  10.619
44143W        W16403  20.051  20.768   0.864
44144W        W16404  30.506  38.055  10.924
44145W        W16405  14.709  20.148  14.808
44146W        W16406  12.851  16.727   5.300
44147W        W16407   3.458  10.695  10.933
44148W        W16408  38.933  39.553   4.815
44149W        W16409  36.853  43.305   2.810
44150W        W16410  42.834  23.145  14.905
44151W        W16411   4.425  24.640  14.850
44152W        W16412  15.679  40.951   1.717
44153W        W16413  30.070  35.987  11.118
44154W        W16414  38.443  36.476   2.183
44155W        W16415  26.062  30.624  12.424
44156W        W16416  35.549  19.726   0.790
44157W        W16417  29.081  23.114  10.941
44158W        W16418   0.910   2.835   2.727
44159W        W16419   1.383  34.606  12.415
44160W        W16420  40.440   5.780  11.390
44161W        W16421  34.085  19.584   4.319
44162W        W16422  21.514  13.694  10.922
44163W        W16423  29.085  26.580   0.966
44164W        W16424   3.364  23.733   1.379
44165W        W16425  31.560   1.813  14.361
44166W        W16426  29.597  42.296   1.864
44167W        W16427  25.108  12.278   3.851
44168W        W16428  18.202  40.389  12.072
44169W        W16429   8.744  11.201  10.569
44170W        W16430  33.082  11.712   3.714
44171W        W16431  28.180   3.215  11.972
44172W        W16432  38.919   5.832   1.407
44173W        W16433  24.138   6.269  12.853
44174W        W16434   2.315  23.629  14.339
44175W        W16435  22.531  27.537  13.936
44176W        W16436  16.250  19.055  10.600
44177W        W16437  26.480  11.827   3.792
44178W        W16438  24.508  40.525  12.029
44179W        W16439  26.497  25.667  10.577
44180W        W16440  14.622  27.515   2.307
44181W        W16441  44.379  38.970  13.901
44182W        W16442  41.370  39.947   2.847
44183W        W16443   8.663  20.648   3.351
44184W        W16444   5.726   7.753   1.308
44185W        W16445   2.459  40.936   0.824
44186W        W16446  29.453  42.814  13.010
44187W        W16447  20.727  22.052  14.277
44188W        W16448  39.455  29.083   0.475
44189W        W16449  43.879  30.957  12.914
44190W        W16450  27.510  14.687   3.732
44191W        W16451  21.248  42.909  14.873
44192W        W16452  22.122  41.528   1.396
44193W        W16453  34.940   1.921  10.160
44194W        W16454  20.132   5.760  14.343
44195W        W16455  33.539  34.904   4.751
44196W        W16456  37.908   7.756   3.688
44197W        W16457  13.346  26.637   5.295
44198W        W16458  16.754  20.246  13.960
44199W        W16459  41.862  24.067   1.780
44200W        W16460  41.902  21.124  13.390
44201W        W16461  37.939  22.212   0.947
44202W        W16462  16.575  13.712   1.805
44203W        W16463  26.024  16.102  13.355
44204W        W16464   9.192  27.154  14.872
44205W        W16465  38.961  36.953  10.943
44206W        W16466  41.939   1.249  12.562
44207W        W16467  25.117   8.200   0.844
44208W        W16468  24.655  16.705   4.259
44209W        W16469  16.592  14.307  11.453
44210W        W16470   8.715   1.954  11.608
44211W        W16471  29.032  34.597   3.313
44212W        W16472   9.690  42.786  13.361
44213W        W16473  25.142  30.438   4.629
44214W        W16474  13.632  28.029   1.827
44215W        W16475  31.132   8.345   4.118
44216W        W16476  20.546  42.911   4.753
44217W        W16477   3.406  17.216  14.968
44218W        W16478   3.255  35.104   2.790
44219W        W16479  32.997  42.963  11.126
44220W        W16480  23.699   9.822  14.780
44221W        W16481  44.422  26.642  14.831
44222W        W16482  44.456  20.683  12.905
44223W        W16483  43.350  29.033   5.218
44224W        W16484  15.717  36.983  10.950
44225W        W16485  34.962   1.273   3.230
44226W        W16486   0.316  27.185   0.926
44227W        W16487  12.144  18.588   3.786
44228W        W16488  42.312  14.184  14.961
44229W        W16489  15.194  31.131  11.444
44230W        W16490  39.871  24.579  13.906
44231W        W16491  37.071   3.340  12.348
44232W        W16492  20.102  11.786  12.835
44233W        W16493  34.557  21.104   3.713
44234W        W16494  43.428  17.254   3.854
44235W        W16495  12.766  23.073  13.912
44236W        W16496   5.887  20.747  12.483
44237W        W16497  25.093  20.219  14.299
44238W        W16498  30.012   3.318  12.922
44239W        W16499   4.738   4.299   3.830
44240W        W16500  23.987  23.189   0.478
44241W        W16501  29.543  42.416  12.342
44242W        W16502  36.850  14.192  13.815
44243W        W16503  19.115  25.998   1.918
44244W        W16504  16.567  14.198   0.892
44245W        W16505  33.486  19.112  12.508
44246W        W16506  43.998  40.051   1.356
44247W        W16507  20.636  14.133   4.138
44248W        W16508   5.743  11.635  11.097
44249W        W16509  27.634  43.778   3.745
44250W        W16510  28.152  41.507  10.124
44251W        W16511   5.322  11.152  12.095
44252W        W16512   6.307   4.419  12.520
44253W        W16513  20.233  44.330   0.741
44254W        W16514   7.217   0.318  13.356
44255W        W16515   3.455  44.354  14.395
44256W        W16516   8.308  23.119  10.890
44257W        W16517  30.489   4.776   4.670
44258W        W16518   4.383   6.348   4.698
44259W        W16519  11.628  26.675  14.285
44260W        W16520  33.499  10.173  13.396
44261W        W16521   6.845  25.159   4.283
44262W        W16522   4.942  23.984  14.868
44263W        W16523  41.941   0.942   2.416
44264W        W16524  24.581   6.737  14.438
44265W        W16525  30.923  29.143   1.344
44266W        W16526  14.190   1.920   2.223
44267W        W16527  23.728  10.723   1.213
44268W        W16528  13.722  16.779  11.071
44269W        W16529  17.602  22.145  14.931
44270W        W16530  23.542  18.211   2.243
44271W        W16531  43.798  35.036  12.868
44272W        W16532  10.861   1.917   3.244
44273W        W16533  32.024  39.808  10.552
44274W        W16534  10.782  18.774   1.859
44275W        W16535  26.051  32.487  12.402
44276W        W16536  23.538  25.082   4.743
44277W        W16537  31.974  30.959   5.088
44278W        W16538  27.614  30.507  13.541
44279W        W16539  31.975   5.757  13.335
44280W        W16540  38.999  34.564  14.021
44281W        W16541  16.761  33.956  11.007
44282W        W16542  31.151  35.009   2.339
44283W        W16543  14.621  31.928  10.556
44284W        W16544  43.430   7.359  14.302
44285W        W16545   4.406   0.959   0.414
44286W        W16546  36.969  31.046   0.797
44287W        W16547  33.013   5.384   2.192
44288W        W16548  26.485  39.908   4.724
44289W        W16549  13.121  11.349  12.465
44290W        W16550  17.069  15.632  14.901
44291W        W16551  27.156  27.678  11.444
44292W        W16552  33.054  10.680   3.280
44293W        W16553  44.327  18.779   2.269
44294W        W16554   2.933  23.211  13.494
44295W        W16555   3.423  32.528  14.781
44296W        W16556  20.615  10.672  13.838
44297W        W16557  16.725  20.748   0.347
44298W        W16558  19.050   5.284   3.272
44299W        W16559  40.402  14.758   2.825
44300W        W16560  11.652   0.759   3.671
44301W        W16561  11.796  32.519   2.312
44302W        W16562  21.107  18.168   1.291
44303W        W16563   4.316  36.349   3.303
44304W        W16564  24.206  33.529   3.796
44305W        W16565  43.010   1.287   3.659
44306W        W16566  26.053  13.164  11.081
44307W        W16567  43.384  12.127   3.246
44308W        W16568  26.523  36.955  13.489
44309W        W16569   6.796  15.215   3.174
44310W        W16570  43.931  12.764   3.672
44311W        W16571  24.070  35.581   4.660
44312W        W16572  10.833  35.476  12.948
44313W        W16573  32.094  10.785  12.547
44314W        W16574  13.836  24.140   0.274
44315W        W16575  36.841  33.412  12.997
44316W        W16576  19.604  15.768   4.611
44317W        W16577  12.127  39.388  14.310
44318W        W16578   5.891  37.076  14.994
44319W        W16579  44.401  13.129   3.863
44320W        W16580   4.255  32.554  14.506
44321W        W16581  27.076  38.893  11.606
44322W        W16582  38.026  41.443  13.463
44323W        W16583   3.417  44.009   3.182
44324W        W16584  44.900  32.928  14.301
44325W        W16585  35.068   8.285  13.328
44326W        W16586  12.328  37.394   1.758
44327W        W16587  15.807  34.966  11.900
44328W        W16588  42.953  24.227  14.819
44329W        W16589  21.698  34.920  11.379
44330W        W16590  38.968  25.557  12.879
44331W        W16591  21.035  35.399  14.311
44332W        W16592  19.757  31.496   2.254
44333W        W16593  29.932  23.540   3.844
44334W        W16594  19.284  29.607  11.095
44335W        W16595  36.440   2.864  10.561
44336W        W16596  16.712  15.169   0.778
44337W        W16597  38.946  25.707  14.318
44338W        W16598  13.333  19.779  12.991
44339W        W16599  43.982   6.388   4.239
44340W        W16600  10.873   6.831   1.424
44341W        W16601  44.262  40.487  11.923
44342W        W16602   5.908   8.194   2.705
44343W        W16603  35.416  32.517  13.924
44344W        W16604  44.438  38.057  13.950
44345W        W16605  44.802  37.519   1.757
44346W        W16606   8.745   0.300   0.345
44347W        W16607  25.101  27.446  13.355
44348W        W16608  29.441  19.177  12.421
44349W        W16609  44.413  22.049  14.483
44350W        W16610  35.865  27.584  11.492
44351W        W16611  21.165   5.907   2.844
44352W        W16612  29.468   0.979   1.313
44353W        W16613  23.126  10.160  13.464
44354W        W16614  20.552  15.229  10.984
44355W        W16615  34.093  27.050   2.354
44356W        W16616   8.807  30.106  14.759
44357W        W16617   0.814  33.972   3.650
44358W        W16618   9.734  12.618   2.754
44359W        W16619  26.590   9.782   2.214
44360W        W16620  37.983  20.056   1.237
44361W        W16621  11.142  22.094   4.292
44362W        W16622  40.440  29.929   2.360
44363W        W16623  29.080  23.984  14.496
44364W        W16624   3.812  36.981   0.880
44365W        W16625  26.599   2.728   3.320
44366W        W16626  36.570  38.932   3.724
44367W        W16627  24.515   4.704   1.324
44368W        W16628   6.230  42.869  13.352
44369W        W16629  42.352  22.031  13.354
44370W        W16630  38.956  30.106   3.358
44371W        W16631  29.973   8.373  14.771
44372W        W16632   7.391  33.415   0.900
44373W        W16633  24.056   0.911   2.409
44374W        W16634  16.744  11.272   1.313
44375W        W16635  34.417  38.825  12.830
44376W        W16636  29.984  14.592   1.853
44377W        W16637  39.925  39.513   3.302
44378W        W16638  16.196  33.990   2.373
44379W        W16639  36.921   7.171  11.936
44380W        W16640  27.558   2.931   4.709
44381W        W16641  20.071  28.033  12.534
44382W        W16642  20.645   0.307  11.514
44383W        W16643   3.810  37.023  14.023
44384W        W16644  20.585  19.775   3.796
44385W        W16645   7.688  16.637   0.421
44386W        W16646  29.146  43.336  11.496
44387W        W16647  42.872  11.170   3.289
44388W        W16648  31.051  24.003  14.825
44389W        W16649  16.735  17.087   2.313
44390W        W16650  16.183  23.202   3.751
44391W        W16651  36.421  41.369   1.796
44392W        W16652  44.956  29.991  11.962
44393W        W16653  37.444  22.722   3.306
44394W        W16654  28.967   1.826   1.876
44395W        W16655   6.272  10.864   3.846
44396W        W16656  35.065  30.457   1.877
44397W        W16657  42.409   8.262   3.843
44398W        W16658  20.218  13.740  13.312
44399W        W16659  40.921  40.906  13.516
44400W        W16660   5.217  24.646   2.221
44401W        W16661  29.527   0.826  11.910
44402W        W16662  35.456  13.777   0.432
44403W        W16663  38.360  10.811  14.949
44404W        W16664  32.900  35.924  11.374
44405W        W16665   3.761  28.469   2.358
44406W        W16666   0.374  30.008   4.794
44407W        W16667   2.247  34.548  13.512
44408W        W16668  16.647  12.287  14.880
44409W        W16669  43.862  12.275  12.509
44410W        W16670  20.188  35.490  12.064
44411W        W16671  12.654  15.709   0.795
44412W        W16672  40.039  16.309   4.624
44413W        W16673  35.866  15.112  13.007
44414W        W16674  32.133  33.533  14.864
44415W        W16675   1.370  13.826  12.939
44416W        W16676  42.476   5.833   1.346
44417W        W16677  29.625  32.609  10.056
44418W        W16678  43.948  43.768  13.933
44419W        W16679  30.635  11.635  12.985
44420W        W16680  13.841  35.597   1.227
44421W        W16681  24.716  14.160  13.390
44422W        W16682  29.596   2.833  13.057
44423W        W16683   4.943   7.370   4.621
44424W        W16684  19.177  33.916  11.381
44425W        W16685  28.167  37.840  13.438
44426W        W16686  22.571  27.953  10.960
44427W        W16687  41.920  30.093   0.357
44428W        W16688   0.762  39.053  12.555
44429W        W16689  28.994  24.070  10.439
44430W        W16690  39.339   5.701  14.955
44431W        W16691  34.994  23.532   4.231
44432W        W16692   3.305  21.238   1.714
44433W        W16693  24.643  26.478   4.631
44434W        W16694  33.039  43.285  13.029
44435W        W16695   1.892   4.218  13.876
44436W        W16696  20.739   3.836   3.678
44437W        W16697   9.843  10.177   0.954
44438W        W16698  26.964   9.235   1.413
44439W        W16699  33.109  25.493  13.862
44440W        W16700  41.796   4.738  14.869
44441W        W16701  28.485  19.269   0.826
44442W        W16702  15.255   9.741   1.236
44443W        W16703  26.622   4.374  11.428
44444W        W16704  30.577   3.923  13.472
44445W        W16705   5.774  24.055  12.071
44446W        W16706   4.252  22.528  10.916
44447W        W16707  34.918  40.305  10.084
44448W        W16708  36.426  12.801  12.003
44449W        W16709  44.876   3.835   0.885
44450W        W16710   9.664  17.615  10.891
44451W        W16711  31.929   8.791  13.794
44452W        W16712  36.538   2.422   4.286
44453W        W16713  42.857  28.681  12.932
44454W        W16714  25.107  13.214  14.857
44455W        W16715  36.473  18.670   5.127
44456W        W16716  27.529  25.543  12.945
44457W        W16717  22.090  31.564  10.513
44458W        W16718  16.130   4.212   4.609
44459W        W16719   6.402  20.557  12.056
44460W        W16720   2.288  44.329   0.295
44461W        W16721   0.966  20.593  11.020
44462W        W16722   0.942  16.108   1.900
44463W        W16723   0.399   2.762  14.029
44464W        W16724  11.824  39.864  14.384
44465W        W16725  25.654  18.069  14.447
44466W        W16726   0.967  14.672  12.006
44467W        W16727  40.019  23.091   4.289
44468W        W16728  26.610  43.492  13.535
44469W        W16729  36.007  16.218   4.835
44470W        W16730  29.620   2.779   4.204
44471W        W16731   6.920  39.856   1.920
44472W        W16732  15.653  34.975  11.571
44473W        W16733  25.201   6.272   3.374
44474W        W16734  43.009   9.889   2.824
44475W        W16735  19.748   8.330   5.622
44476W        W16736  24.559  21.046  11.449
44477W        W16737  29.632   2.381  14.366
44478W        W16738  25.617  40.021  11.602
44479W        W16739  16.110  42.461   2.293
44480W        W16740  37.446  23.658   3.222
44481W        W16741   9.722  22.075   3.714
44482W        W16742  12.750  35.929  13.325
44483W        W16743  30.502  28.151  10.461
44484W        W16744  21.530  43.778  11.875
44485W        W16745  13.241  21.181  10.025
44486W        W16746   6.428  11.309  10.898
44487W        W16747  21.644  40.430  10.580
44488W        W16748  29.028  32.079   4.257
44489W        W16749  30.536   7.379   2.747
44490W        W16750  15.779  11.184   0.938
44491W        W16751   6.678   6.834  11.025
44492W        W16752  17.290  10.760   0.838
44493W        W16753   5.730  22.569  13.406
44494W        W16754  40.421   2.792   1.798
44495W        W16755  31.105  41.457  11.558
44496W        W16756  24.125  26.075  10.061
44497W        W16757  19.180  11.776  14.828
44498W        W16758   3.737  38.062  12.538
44499W        W16759  32.409  12.231   1.793
44500W        W16760  42.307  40.922  12.827
44501W        W16761   0.267  19.589   4.276
44502W        W16762   9.207  14.094  14.436
44503W        W16763  20.263  43.981  13.876
44504W        W16764  18.593  21.046   0.807
44505W        W16765  11.729  39.314   3.705
44506W        W16766  30.554   3.412   0.784
44507W        W16767   1.356  40.880  14.493
44508W        W16768  41.319  40.886  12.863
44509W        W16769  26.499  41.016   0.774
44510W        W16770  40.303  26.631  14.007
44511W        W16771   4.421   4.793   2.780
44512W        W16772   8.740  21.208  11.122
44513W        W16773  39.513  33.122  13.354
44514W        W16774  40.376  27.634   1.420
44515W        W16775  11.136  36.554  12.384
44516W        W16776   8.291  24.625   4.662
44517W        W16777  17.591  13.800  10.895
44518W        W16778  21.236  17.633  11.894
44519W        W16779   1.465  16.300  11.512
44520W        W16780  16.097  37.038  10.624
44521W        W16781  41.359  33.547  13.893
44522W        W16782   2.241  44.356  12.837
44523W        W16783  24.659   1.304   0.469
44524W        W16784  27.181  26.129  11.577
44525W        W16785  35.423  22.186  13.797
44526W        W16786  30.429  24.631   4.172
44527W        W16787  37.384  32.576  13.956
44528W        W16788   3.822  14.651  12.541
44529W        W16789  22.514  30.565  14.446
44530W        W16790  24.126  34.399   3.310
44531W        W16791  14.659  20.179   1.293
44532W        W16792   0.424   9.359   3.808
44533W        W16793   8.209   9.394  14.018
44534W        W16794  33.903  34.395  10.454
44535W        W16795  41.458  36.393   3.377
44536W        W16796  17.171   0.789   0.380
44537W        W16797  25.190  15.614   0.291
44538W        W16798  42.858  23.078  13.392
44539W        W16799  29.512  34.571  14.942
44540W        W16800  42.418  24.528  12.932
44541W        W16801   4.757  32.095  12.560
44542W        W16802  21.243   0.388  14.813
44543W        W16803  19.602  36.347   3.161
44544W        W16804  37.014   7.853   1.432
44545W        W16805  32.576  21.047   3.304
44546W        W16806  41.509  21.227  11.880
44547W        W16807   0.320  13.628  14.275
44548W        W16808  27.968   7.229  13.483
44549W        W16809  36.988  44.472  13.875
44550W        W16810  43.470  42.801   4.336
44551W        W16811  32.055  20.206   0.387
44552W        W16812  25.629  44.427   3.263
44553W        W16813  32.035  10.304   5.271
44554W        W16814  34.971  44.795   2.296
44555W        W16815  10.379  11.717   3.637
44556W        W16816  29.016  41.415   2.673
44557W        W16817  39.000  33.031   2.898
44558W        W16818  39.861   5.720   3.239
44559W        W16819  39.322  30.476   4.620
44560W        W16820  12.165  16.136  12.928
44561W        W16821  11.858  29.943   1.289
44562W        W16822  14.106  38.394  13.019
44563W        W16823  43.351   9.663   3.204
44564W        W16824  21.089  24.115   2.774
44565W        W16825  21.725  22.150  14.313
44566W        W16826  21.658   8.210   4.149
44567W        W16827   3.291  24.162   2.180
44568W        W16828  20.543   6.271  12.982
44569W        W16829   1.837  32.995   3.201
44570W        W16830   9.645  35.570   1.886
44571W        W16831  38.473  40.403   2.688
44572W        W16832  39.933  15.816   1.254
44573W        W16833   8.169   3.758  13.836
44574W        W16834  28.487   1.329   4.336
44575W        W16835  28.107  24.091   4.347
44576W        W16836   8.831  31.565  10.575
44577W        W16837   2.458   0.917  13.491
44578W        W16838  17.608  31.026  14.334
44579W        W16839  17.215  14.321  10.999
44580W        W16840  30.097  29.544   0.889
44581W        W16841  40.945  34.576  10.484
44582W        W16842   7.226  31.568   0.899
44583W        W16843   7.697  22.547  10.599
44584W        W16844  25.577   7.909   4.249
44585W        W16845   4.353   8.710  12.016
44586W        W16846  25.541  36.901  13.000
44587W        W16847  29.587  33.015  11.911
44588W        W16848  23.128   2.456   2.201
44589W        W16849   8.184   2.966  10.590
44590W        W16850  19.640  18.186   2.726
44591W        W16851   9.786  16.594   0.391
44592W        W16852  16.212   8.247   1.298
44593W        W16853   8.723  19.579  10.527
44594W        W16854  38.365  44.391  13.011
44595W        W16855  38.441  30.416  11.572
44596W        W16856  15.284  25.476   0.747
44597W        W16857  14.226  11.784   4.158
44598W        W16858  31.071  34.107   0.936
44599W        W16859  42.366  33.400   0.391
44600W        W16860   1.279  21.542  13.547
44601W        W16861   8.387  13.201   4.684
44602W        W16862  11.827   0.853  14.759
44603W        W16863   0.360  21.687  10.944
44604W        W16864  28.110  36.983   4.625
44605W        W16865  30.642  30.460   5.230
44606W        W16866  28.516  13.620   0.336
44607W        W16867  22.571  19.049  12.873
44608W        W16868  26.102  12.194  14.940
44609W        W16869  40.544  28.456  14.800
44610W        W16870  44.311  17.575  14.938
44611W        W16871   9.808  17.152  13.805
44612W        W16872   8.717   5.220  10.523
44613W        W16873   4.829  34.949   0.894
44614W        W16874   8.685  34.108  14.972
44615W        W16875   5.380  41.510  13.966
44616W        W16876  43.966  37.015  11.584
44617W        W16877   8.816   3.248   4.287
44618W        W16878   6.413   6.362   1.277
44619W        W16879  23.543  42.785   2.368
44620W        W16880  33.117  31.632   4.117
44621W        W16881  35.466  29.031  12.043
44622W        W16882   6.920  29.117   9.668
44623W        W16883  40.921  32.965  11.472
44624W        W16884  13.723  21.021  12.076
44625W        W16885  41.004  21.618  12.931
44626W        W16886   9.172  17.300   1.442
44627W        W16887  30.463  38.501  11.563
44628W        W16888  40.016  17.734   3.682
44629W        W16889  14.755  43.439  13.494
44630W        W16890  23.126   9.701   3.852
44631W        W16891   9.273  15.146   0.345
44632W        W16892  38.391   5.768   0.363
44633W        W16893   7.247   7.851  13.960
44634W        W16894   0.398  40.021  10.482
44635W        W16895   4.221  29.596  10.474
44636W        W16896  31.641   4.815   0.482
44637W        W16897   9.752   8.233   4.672
44638W        W16898  21.257  31.913   1.352
44639W        W16899   6.717  43.376  14.427
44640W        W16900  29.487  31.441  10.972
44641W        W16901  10.331   6.277  10.541
44642W        W16902  10.689  25.607   0.833
44643W        W16903  42.003  40.497   0.912
44644W        W16904  11.271  16.132   2.213
44645W        W16905  24.721  26.074  10.454
44646W        W16906  12.326  33.524  10.936
44647W        W16907  38.920  19.273  10.076
44648W        W16908  36.022  33.882  13.403
44649W        W16909  12.293   9.706  13.470
44650W        W16910  28.112  20.694  13.397
44651W        W16911  26.197  40.449  11.120
44652W        W16912  36.404   2.447   3.802
44653W        W16913  34.109  40.827  12.965
44654W        W16914  37.363  23.559   0.744
44655W        W16915   2.885  16.136   4.643
44656W        W16916   6.796  17.270   3.785
44657W        W16917   0.478  43.818  11.464
44658W        W16918  37.579  26.127   4.800
44659W        W16919  23.628  44.783   2.388
44660W        W16920  24.594  13.674   2.375
44661W        W16921  42.986  36.587   0.296
44662W        W16922  20.076  35.027  13.816
44663W        W16923  20.030  19.273  14.832
44664W        W16924   2.351  37.951  11.412
44665W        W16925  17.703  17.271  13.923
44666W        W16926  12.703  41.345  13.063
44667W        W16927  42.862   6.290   4.731
44668W        W16928   4.868  34.553   3.814
44669W        W16929  35.423   4.318   1.911
44670W        W16930   7.178  42.359   3.232
44671W        W16931  11.745  28.578   2.888
44672W        W16932   2.417  13.661  10.973
44673W        W16933  28.183  18.734  13.978
44674W        W16934  24.030  25.584  14.320
44675W        W16935   1.859   9.806   2.834
44676W        W16936  30.059  32.014  13.457
44677W        W16937  26.536  14.297   0.272
44678W        W16938  42.867   4.778  11.859
44679W        W16939  26.571  17.159   0.859
44680W        W16940  10.284  28.623   4.252
44681W        W16941  44.409   8.764   1.933
44682W        W16942  44.274  11.279  13.342
44683W        W16943  35.533  35.434  14.022
44684W        W16944  35.386  20.187   2.689
44685W        W16945  25.655  36.451   3.350
44686W        W16946  17.241  43.783   3.858
44687W        W16947  17.669  30.546   4.354
44688W        W16948  41.907  30.572  12.935
44689W        W16949  12.789   0.822  12.066
44690W        W16950  43.317   8.778   3.841
44691W        W16951  36.529  20.235   3.769
44692W        W16952  33.917  30.074  10.626
44693W        W16953   9.708   4.904  11.900
44694W        W16954  19.187  38.050  11.044
44695W        W16955  19.190  21.243  13.810
44696W        W16956   3.935   0.911  11.494
44697W        W16957  12.717  11.226  14.770
44698W        W16958  34.942  31.537   2.700
44699W        W16959  29.612  32.943  14.475
44700W        W16960  27.122  42.887   3.634
44701W        W16961  27.546  42.490  10.576
44702W        W16962   2.902   3.360  14.417
44703W        W16963  31.599  10.652   2.179
44704W        W16964  35.967  13.311   5.210
44705W        W16965  33.105  22.249  14.401
44706W        W16966  22.121  42.470  10.470
44707W        W16967  10.781   8.199   2.743
44708W        W16968  14.683  20.678   3.324
44709W        W16969  27.494  35.395  13.507
44710W        W16970  36.425   0.333  11.088
44711W        W16971  31.084   1.832  13.830
44712W        W16972   5.216  44.912   1.716
44713W        W16973  11.138  43.781   1.758
44714W        W16974  30.148  38.971  10.929
44715W        W16975  36.929  15.238   1.730
44716W        W16976  18.774   8.703  10.529
44717W        W16977   1.477  22.580   2.664
44718W        W16978   9.832   2.238   0.748
44719W        W16979   9.396  43.879  12.523
44720W        W16980  17.091  42.788   0.270
44721W        W16981  34.568  10.365  12.923
44722W        W16982   4.344   1.861  14.289
44723W        W16983  16.715   3.756  10.582
44724W        W16984  13.255  27.117  14.331
44725W        W16985  19.091  21.094   2.237
44726W        W16986  25.128  15.116   2.797
44727W        W16987  35.421  41.013  12.537
44728W        W16988  29.485  38.023  10.990
44729W        W16989   9.168   6.233  14.939
44730W        W16990  33.951  27.055  12.458
44731W        W16991  29.451   5.371   0.359
44732W        W16992  38.902  39.473  11.592
44733W        W16993  19.187  40.972  10.961
44734W        W16994  40.535  38.832  11.031
44735W        W16995  19.199  30.909   1.745
44736W        W16996  38.053  28.475   3.332
44737W        W16997   3.776   6.194  12.499
44738W        W16998  19.096  39.478  10.603
44739W        W16999  42.951  11.170  12.428
44740W        W17000  22.689  22.016  12.823
44741W        W17001  23.092  39.548  14.770
44742W        W17002  18.147  35.398   3.297
44743W        W17003  43.013  25.058   1.902
44744W        W17004   9.284  44.302   9.936
44745W        W17005  19.654  29.484  11.021
44746W        W17006  27.510  10.180  13.977
44747W        W17007  41.836  34.019  14.444
44748W        W17008  42.967  43.946  14.798
44749W        W17009  15.221  40.857   1.252
44750W        W17010   0.931  27.541  14.954
44751W        W17011   6.426   8.293  10.907
44752W        W17012  38.428  41.950   0.860
44753W        W17013  18.641   7.182  14.513
44754W        W17014   3.425  37.890  10.443
44755W        W17015   4.880  34.916   0.275
44756W        W17016   1.755   9.242  12.398
44757W        W17017  13.234  11.745  11.504
44758W        W17018  24.089  21.260   4.785
44759W        W17019  12.812  21.110   5.111
44760W        W17020  43.351  24.983  13.880
44761W        W17021   0.743  17.764  11.890
44762W        W17022  34.596  10.299  14.799
44763W        W17023  40.893  44.875   1.748
44764W        W17024  42.900  25.042   3.230
44765W        W17025  16.280  37.940  11.961
44766W        W17026  42.872  31.000   2.883
44767W        W17027  18.729  11.750   5.288
44768W        W17028  20.732  20.620   1.253
44769W        W17029  12.323   6.378  11.580
44770W        W17030  13.705  14.788  10.484
44771W        W17031   9.809  24.582  12.055
44772W        W17032   9.725  16.763  11.509
44773W        W17033   2.287  26.133   4.349
44774W        W17034  19.706  26.526   4.677
44775W        W17035  14.702  27.083  14.858
44776W        W17036   0.950  14.281   5.304
44777W        W17037  23.731  32.116  10.440
44778W        W17038   9.350  32.941   0.754
44779W        W17039  31.126  34.452  11.099
44780W        W17040  22.201  20.564  12.910
44781W        W17041  19.072  41.493   0.842
44782W        W17042   7.380  29.557   2.265
44783W        W17043  31.585  33.885  11.389
44784W        W17044  17.598  29.587   2.208
44785W        W17045  35.932  37.484  14.898
44786W        W17046  16.798  15.729  11.000
44787W        W17047  12.625  21.669  14.941
44788W        W17048  15.671  12.816  11.519
44789W        W17049  22.682  35.092   2.306
44790W        W17050  42.342  10.141   1.273
44791W        W17051  44.906  17.261   3.249
44792W        W17052  20.165  26.683   1.232
44793W        W17053   2.951  44.428  11.584
44794W        W17054  24.627  28.950  10.625
44795W        W17055  26.693  21.203  14.295
44796W        W17056  39.975  38.862  12.520
44797W        W17057  39.995  11.762  14.473
44798W        W17058  35.529  28.574  13.315
44799W        W17059  39.048   0.462   4.270
44800W        W17060   1.304  44.268   1.267
44801W        W17061  19.191  43.791   0.357
44802W        W17062  26.467  29.571   1.870
44803W        W17063  19.551  26.551   0.733
44804W        W17064  18.281  20.271  13.502
44805W        W17065  11.705  40.983  11.438
44806W        W17066   2.226  18.755   0.433
44807W        W17067  43.813  14.146   1.341
44808W        W17068  15.322   6.392   3.375
44809W        W17069  43.764   3.393   3.181
44810W        W17070  30.557   6.724  10.420
44811W        W17071  40.379   8.832  13.381
44812W        W17072  14.803  43.441  10.430
44813W        W17073  16.223  15.084   2.764
44814W        W17074  16.276  41.993  14.824
44815W        W17075   3.882  36.963   1.739
44816W        W17076  14.242  16.249  10.590
44817W        W17077  25.513  21.043  11.374
44818W        W17078  21.022  16.604   2.366
44819W        W17079   6.714  41.317   4.120
44820W        W17080  32.019  22.188   2.306
44821W        W17081  41.839  17.268  10.959
44822W        W17082  10.724  39.361   2.896
44823W        W17083  38.861  11.194  12.936
44824W        W17084  27.565  15.183  14.854
44825W        W17085  16.790   0.938   0.449
44826W        W17086  41.403  12.728   4.714
44827W        W17087  13.329  19.271   1.935
44828W        W17088   9.232  30.511  11.963
44829W        W17089  34.518   9.251   0.916
44830W        W17090  28.056  32.603   4.649
44831W        W17091  23.153  12.127   0.861
44832W        W17092  11.675  21.715  13.841
44833W        W17093  14.215  18.586   0.857
44834W        W17094   3.910  33.066  11.573
44835W        W17095  37.494   0.273  10.899
44836W        W17096  33.578  28.480   2.664
44837W        W17097  16.718  37.043  11.600
44838W        W17098   2.915  14.817   2.218
44839W        W17099  37.347   9.854   1.388
44840W        W17100  12.695   2.873  10.637
44841W        W17101  24.159  29.096  14.007
44842W        W17102  38.068   7.181  10.461
44843W        W17103  10.685   3.815  13.811
44844W        W17104  12.200  31.577  14.773
44845W        W17105  33.978  10.190  10.595
44846W        W17106  30.478   4.322  10.536
44847W        W17107  13.786   7.733  12.858
44848W        W17108  11.712  36.355   0.919
44849W        W17109   5.828   5.256  14.911
44850W        W17110   1.468  36.549   0.849
44851W        W17111  38.910   2.253  14.850
44852W        W17112  27.602  20.761  14.920
44853W        W17113  15.172  25.162   2.778
44854W        W17114   8.694  13.733  10.511
44855W        W17115   7.359   6.199  12.045
44856W        W17116  28.446  27.467  13.422
44857W        W17117  29.471  15.194  11.893
44858W        W17118  15.229   7.386  11.873
44859W        W17119   2.841  21.084  10.438
44860W        W17120  31.009  30.473   1.856
44861W        W17121  22.050  39.323   1.309
44862W        W17122  23.511  42.023   0.913
44863W        W17123  29.651  31.131  10.559
44864W        W17124  34.512   7.912  13.884
44865W        W17125  16.084  12.775  14.448
44866W        W17126  24.126   4.307   2.844
44867W        W17127  15.629  28.954  13.994
44868W        W17128  26.062  34.507  13.468
44869W        W17129  17.300  21.525  12.580
44870W        W17130  15.725  12.221   0.354
44871W        W17131   3.908  35.521  14.947
44872W        W17132  32.960  28.104  14.974
44873W        W17133   8.681   5.708  13.897
44874W        W17134   7.872  19.105   2.279
44875W        W17135  12.633  32.080   1.769
44876W        W17136  28.525  12.613   2.715
44877W        W17137   0.949  26.496  11.387
44878W        W17138  29.080  26.473  13.456
44879W        W17139   5.209  15.661   0.943
44880W        W17140  10.808   0.957   0.737
44881W        W17141  43.478  20.560   4.155
44882W        W17142  36.526   3.918   3.226
44883W        W17143  43.339  36.997   0.307
44884W        W17144  20.052  14.332   2.258
44885W        W17145  29.546  27.956   1.279
44886W        W17146  35.098  36.856  11.481
44887W        W17147  16.614  20.705   0.742
44888W        W17148  43.772  22.187   0.922
44889W        W17149  20.176  43.861  13.541
44890W        W17150  36.975  24.650   1.372
44891W        W17151  42.393  29.648   4.256
44892W        W17152   8.760  28.154  13.307
44893W        W17153   7.341   0.751   4.611
44894W        W17154  29.029  30.058   4.759
44895W        W17155  24.161  35.025   2.752
44896W        W17156   1.894  36.578  11.933
44897W        W17157  34.525  30.075   1.744
44898W        W17158  43.309   1.236  12.893
44899W        W17159  42.447   8.734   3.248
44900W        W17160  16.591  33.086  14.342
44901W        W17161  25.489  17.222   0.937
44902W        W17162  40.829   8.231  12.523
44903W        W17163   3.803   4.909  10.553
44904W        W17164   5.208  30.066  12.988
44905W        W17165   7.261  24.508   3.863
44906W        W17166   1.947   4.879  14.861
44907W        W17167   9.155  12.801  12.847
44908W        W17168  37.366  30.621   4.327
44909W        W17169  19.246  44.336   3.378
44910W        W17170  27.074  37.996  11.902
44911W        W17171  33.985  12.689  14.418
44912W        W17172  31.528  24.710   0.365
44913W        W17173  20.144  11.253  12.021
44914W        W17174  37.011   9.356  12.027
44915W        W17175  30.087  24.166   2.890
44916W        W17176   0.384  24.512   4.353
44917W        W17177  27.955  42.017  13.806
44918W        W17178  35.358  22.677  12.472
44919W        W17179  21.193  12.675   0.799
44920W        W17180   2.278  14.293   4.329
44921W        W17181  39.484  21.178  12.943
44922W        W17182  27.512  21.028   1.900
44923W        W17183  32.402  21.182   2.882
44924W        W17184   2.237  24.000   2.846
44925W        W17185  35.545  34.567   3.347
44926W        W17186  35.863   0.258   3.784
44927W        W17187   6.390   1.935   5.239
44928W        W17188   1.962  43.355   3.776
44929W        W17189  32.908  28.535   1.367
44930W        W17190  38.056  17.700   4.152
44931W        W17191  13.263   2.258   4.648
44932W        W17192  13.165  30.114  13.493
44933W        W17193  44.931  42.286  12.485
44934W        W17194   4.447  23.730  12.004
44935W        W17195  42.332  29.083  14.358
44936W        W17196  37.550  35.103   3.357
44937W        W17197  34.972  13.116  11.886
44938W        W17198  11.245  11.679  13.327
44939W        W17199   8.844  32.474   3.695
44940W        W17200  22.174   2.756   1.824
44941W        W17201  33.108  20.644  10.551
44942W        W17202  21.167  15.168  11.586
44943W        W17203  26.083  20.693   1.694
44944W        W17204   9.825   4.297  14.941
44945W        W17205   5.906   6.791   4.820
44946W        W17206  14.100  28.632  14.878
44947W        W17207  14.674   1.830  10.460
44948W        W17208  27.657  30.506  12.539
44949W        W17209   3.846   4.731   4.743
44950W        W17210  33.560  23.018  11.515
44951W        W17211   3.257  36.958   3.205
44952W        W17212   8.772   7.178   0.728
44953W        W17213   0.444  24.045   0.433
44954W        W17214  34.449  12.297   0.284
44955W        W17215  22.645  40.526  13.310
44956W        W17216  35.391  13.117  12.862
44957W        W17217   0.882  31.123  13.046
44958W        W17218   5.843  41.345   3.806
44959W        W17219  37.940   7.888   2.192
44960W        W17220  31.006   9.191  12.383
44961W        W17221  38.920  14.340  12.016
44962W        W17222  18.052  37.869   4.689
44963W        W17223   0.913   7.241  12.463
44964W        W17224  34.102  21.585  11.965
44965W        W17225  22.604  41.333   3.293
44966W        W17226  12.362  36.468  12.406
44967W        W17227  32.936   8.402  12.853
44968W        W17228  36.972   2.798   3.629
44969W        W17229  38.357   3.398   0.743
44970W        W17230  40.349  27.133  13.453
44971W        W17231  26.178  33.023  12.917
44972W        W17232   4.421   6.833  14.901
44973W        W17233  15.798   5.416  11.439
44974W        W17234  13.113  29.117   1.317
44975W        W17235   8.268  15.823   4.173
44976W        W17236  11.844  44.926   0.773
44977W        W17237  25.588  30.070  12.377
44978W        W17238  36.967  10.312   4.665
44979W        W17239   5.749   2.867  12.086
44980W        W17240  23.219  17.253  13.983
44981W        W17241  42.461  12.835   2.405
44982W        W17242  14.338  33.032  10.991
44983W        W17243  39.405  44.823  12.501
44984W        W17244  32.570  32.893   3.383
44985W        W17245  40.945  14.237   1.804
44986W        W17246   1.816  23.166   1.923
44987W        W17247  44.272  14.198  11.967
44988W        W17248  16.741  39.511  12.476
44989W        W17249  42.507  34.119  13.441
44990W        W17250  21.073  44.426   2.677
44991W        W17251   1.346  23.182   0.408
44992W        W17252  23.985  42.850   9.929
44993W        W17253  21.583  29.011   2.330
44994W        W17254  29.959   8.703   0.911
44995W        W17255  18.292  34.473  13.806
44996W        W17256  30.105  42.455   1.392
44997W        W17257  38.336  17.587  14.795
44998W        W17258   1.849  14.789   0.375
44999W        W17259   9.852  43.852  11.599
45000W        W17260  20.708  38.935   0.296
45001W        W17261  41.496   2.252   3.792
45002W        W17262  10.782   3.772   4.693
45003W        W17263  10.739   5.787   4.831
45004W        W17264  16.178  41.291   1.731
45005W        W17265  34.097  12.728   1.375
45006W        W17266  16.717   1.796  14.820
45007W        W17267  22.532  39.458  10.510
45008W        W17268  22.532  32.910   4.134
45009W        W17269   7.333  40.506  13.396
45010W        W17270  24.148  44.412   0.935
45011W        W17271   4.822   6.820  10.998
45012W        W17272  27.031  33.490  14.376
45013W        W17273   3.374   1.359  10.607
45014W        W17274   9.748   5.930  11.896
45015W        W17275   2.259  18.180   3.786
45016W        W17276  17.706  17.193  10.530
45017W        W17277  39.559  22.571   2.378
45018W        W17278  23.560  41.010   1.360
45019W        W17279  30.417   2.334   3.360
45020W        W17280  10.181  26.050  11.106
45021W        W17281   5.302  36.036   3.840
45022W        W17282  33.881   1.973   4.267
45023W        W17283  38.497  39.338   3.700
45024W        W17284  18.243   4.274  14.807
45025W        W17285  33.414   4.785  14.987
45026W        W17286   3.291  15.249  11.104
45027W        W17287  13.340   8.702  14.330
45028W        W17288  33.570  10.209   0.783
45029W        W17289  25.094  27.527   1.880
45030W        W17290  14.182  31.567   0.313
45031W        W17291   5.264  16.129  10.624
45032W        W17292  30.557  26.690  13.478
45033W        W17293  19.652   7.703   4.808
45034W        W17294  30.012   4.828   2.353
45035W        W17295  13.177   6.353  10.488
45036W        W17296  22.513  12.822   1.716
45037W        W17297  24.545  28.589  13.892
45038W        W17298   3.851   3.219   0.824
45039W        W17299   1.782  30.101  10.901
45040W        W17300  20.085   4.723  14.323
45041W        W17301  25.492  42.300   4.206
45042W        W17302  35.892  29.108   3.792
45043W        W17303  20.142  18.099   3.680
45044W        W17304  12.787  22.678   4.760
45045W        W17305  24.010   0.980  10.604
45046W        W17306  17.583  13.227  14.855
45047W        W17307   6.735  24.109   0.308
45048W        W17308  36.910  44.902  13.506
45049W        W17309   6.228   8.252  14.829
45050W        W17310   5.825  18.661   2.748
45051W        W17311   0.746  22.615   1.862
45052W        W17312  25.511  19.229   2.299
45053W        W17313  25.039  34.494   1.325
45054W        W17314   2.931  22.554  10.949
45055W        W17315  30.583  30.438   4.262
45056W        W17316  41.323   9.344   1.860
45057W        W17317  15.715  26.022   1.725
45058W        W17318  41.876  16.712   2.199
45059W        W17319   4.883  38.918   2.833
45060W        W17320  34.551  19.084   0.476
45061W        W17321  43.488  28.964  10.594
45062W        W17322  15.659   6.199   0.410
45063W        W17323  30.940  19.579  14.809
45064W        W17324   8.688   4.806   2.259
45065W        W17325  22.091  26.184  10.454
45066W        W17326   9.646  18.090  11.452
45067W        W17327  22.621  28.457  14.444
45068W        W17328  10.225  11.264   0.446
45069W        W17329  25.626   1.807  14.425
45070W        W17330  21.137  22.629  12.932
45071W        W17331  39.929  31.144  13.427
45072W        W17332  29.601  40.921   3.858
45073W        W17333  26.512  35.083  11.452
45074W        W17334   3.381  32.104   0.415
45075W        W17335   8.723  20.091  11.509
45076W        W17336  25.711  25.213   2.886
45077W        W17337  15.164  35.510   1.342
45078W        W17338   0.473  41.891   4.626
45079W        W17339   7.237   5.377  12.908
45080W        W17340  24.723  39.981  12.478
45081W        W17341  44.411  35.869  14.800
45082W        W17342   0.827  29.991  12.045
45083W        W17343  18.770  13.339  10.607
45084W        W17344  15.821   8.822  13.494
45085W        W17345  38.553   7.417  10.542
45086W        W17346   0.904  27.656   1.826
45087W        W17347  19.767  20.183  13.014
45088W        W17348  42.427   0.892   1.913
45089W        W17349  32.465  20.610  13.410
45090W        W17350   3.354  15.218  13.041
45091W        W17351  12.751   8.693   1.871
45092W        W17352  17.658   0.421  13.402
45093W        W17353   4.370  22.651   4.698
45094W        W17354  44.922   7.372   0.752
45095W        W17355  44.972  10.757   3.706
45096W        W17356   1.887  21.690  13.962
45097W        W17357  24.169  31.647   1.378
45098W        W17358  41.909  36.972  10.919
45099W        W17359  21.640  34.119   4.341
45100W        W17360   8.300  16.295   3.760
45101W        W17361  40.893  25.015  13.045
45102W        W17362  28.050  41.863   1.721
45103W        W17363  30.046  23.102   3.155
45104W        W17364  32.951  37.451   3.866
45105W        W17365   7.307  44.400   0.256
45106W        W17366  42.440  34.551   4.290
45107W        W17367  40.548  42.476   2.313
45108W        W17368  34.398  16.621   1.782
45109W        W17369  38.021  22.130   1.707
45110W        W17370  32.513  26.203  12.890
45111W        W17371  41.532  25.117   2.714
45112W        W17372  34.869  37.524   0.909
45113W        W17373  34.495  33.436  13.795
45114W        W17374  10.164  27.514   1.362
45115W        W17375  34.965  37.481  13.326
45116W        W17376  41.395   3.272  10.901
45117W        W17377  31.958  19.197  11.858
45118W        W17378  17.583  10.820  10.999
45119W        W17379  38.967  17.086   0.474
45120W        W17380  13.268   2.278   0.908
45121W        W17381  40.922  36.890   4.721
45122W        W17382   2.361   4.431   0.899
45123W        W17383   5.270  12.818   0.947
45124W        W17384  41.033  30.962   2.305
45125W        W17385  12.657  31.517  11.440
45126W        W17386  27.509  41.362   4.185
45127W        W17387  34.583   9.223   4.667
45128W        W17388   4.239   2.870   0.270
45129W        W17389  21.255  20.236  10.449
45130W        W17390  33.554  20.095   0.796
45131W        W17391   0.922   2.324   1.267
45132W        W17392  28.161  43.408  14.391
45133W        W17393  11.676  15.160   2.757
45134W        W17394  18.097   9.194   2.799
45135W        W17395   9.839  16.794   1.752
45136W        W17396  23.571  24.619  13.842
45137W        W17397  25.479  33.413   1.440
45138W        W17398  21.520   1.800   3.822
45139W        W17399  41.299  31.944   1.353
45140W        W17400  30.593   5.732  13.824
45141W        W17401  22.671  15.258   0.959
45142W        W17402  34.905  16.748  13.477
45143W        W17403  40.529   6.360   5.143
45144W        W17404  26.041   4.223   2.832
45145W        W17405  19.276  11.772   1.285
45146W        W17406  23.213   4.792   3.709
45147W        W17407   3.815  34.448   0.444
45148W        W17408  32.567  26.466  11.973
45149W        W17409  27.590  11.854  10.422
45150W        W17410  35.085  44.333  11.421
45151W        W17411   3.425  23.723  14.817
45152W        W17412   1.769   5.714   3.808
45153W        W17413  31.522   7.259  11.948
45154W        W17414  44.406  28.656  14.893
45155W        W17415  28.601  17.261   1.319
45156W        W17416  23.050  34.456   2.412
45157W        W17417  43.371   2.235  10.553
45158W        W17418  37.027  33.622  11.597
45159W        W17419   6.831  27.096   2.724
45160W        W17420  15.285   4.809   0.382
45161W        W17421  19.659  40.866  14.909
45162W        W17422  30.144   5.316   0.456
45163W        W17423  27.110  33.476   2.260
45164W        W17424  35.067  43.984  12.519
45165W        W17425  34.424  42.849  11.933
45166W        W17426   9.672  42.283  11.523
45167W        W17427   3.773  33.623  10.487
45168W        W17428  20.274  13.290  12.439
45169W        W17429  26.032  15.203  12.459
45170W        W17430   2.464   9.321  11.999
45171W        W17431  15.586  41.477   0.730
45172W        W17432  42.992  26.045   4.666
45173W        W17433  31.944  30.536  10.032
45174W        W17434  31.967  40.493   2.327
45175W        W17435   4.762  19.095  12.985
45176W        W17436   7.295   1.896  11.071
45177W        W17437  12.243   2.279  13.548
45178W        W17438  21.143   6.868  12.030
45179W        W17439  29.174  21.631  12.551
45180W        W17440  14.297  38.975  11.469
45181W        W17441  11.193   8.870  10.908
45182W        W17442  29.571  21.580  10.910
45183W        W17443  21.124  33.065   0.790
45184W        W17444   0.935  16.652   1.712
45185W        W17445  14.304  35.966  13.054
45186W        W17446  23.679  43.453   3.701
45187W        W17447  28.614  25.041   2.874
45188W        W17448  41.935   0.251   4.723
45189W        W17449   2.855  16.587  13.822
45190W        W17450   7.238  13.662  13.986
45191W        W17451  29.599  28.499  10.617
45192W        W17452  15.801  39.023   3.238
45193W        W17453  36.982   3.249   4.269
45194W        W17454  29.645  37.400  14.938
45195W        W17455   1.731  28.461  10.425
45196W        W17456  30.080   1.779  14.978
45197W        W17457  12.338  39.954   1.879
45198W        W17458  19.051  33.905   0.470
45199W        W17459  44.411  43.377   2.181
45200W        W17460  13.723  34.871  12.467
45201W        W17461   6.354   4.730   1.214
45202W        W17462  42.325  19.190  14.409
45203W        W17463   6.205  26.688  10.063
45204W        W17464  17.150  26.525   4.280
45205W        W17465  23.203  28.936  12.558
45206W        W17466  32.948  10.639   0.392
45207W        W17467   2.771   9.693  11.061
45208W        W17468  16.663  24.596   2.731
45209W        W17469  14.612   3.306  11.102
45210W        W17470   8.189  10.298  11.492
45211W        W17471  19.159  41.468  10.634
45212W        W17472  28.663  36.845   2.815
45213W        W17473   5.767  21.711   2.395
45214W        W17474   3.389  11.350   0.738
45215W        W17475  12.132  11.200  12.919
45216W        W17476  16.633   7.318  14.316
45217W        W17477  30.090   1.271   1.248
45218W        W17478  16.618  17.733   3.679
45219W        W17479  17.677   8.722   4.208
45220W        W17480   0.950  40.857   0.322
45221W        W17481  19.210  11.262   2.359
45222W        W17482  13.756  38.347  11.083
45223W        W17483  14.130   2.322  12.925
45224W        W17484   0.953  39.420  13.880
45225W        W17485   9.782  11.666   3.858
45226W        W17486  35.078  26.192  10.974
45227W        W17487  10.138   6.896  13.853
45228W        W17488  32.574  43.461   1.867
45229W        W17489  44.761  40.351  14.389
45230W        W17490  21.018  30.495   1.805
45231W        W17491   7.345  11.251   2.413
45232W        W17492   7.729   4.415  11.966
45233W        W17493  22.713   7.679   4.336
45234W        W17494  22.616  15.128   1.282
45235W        W17495  11.327   4.828  12.877
45236W        W17496  12.650  40.377   1.897
45237W        W17497  15.696   1.402   3.662
45238W        W17498  17.569  39.989  11.952
45239W        W17499  14.765  16.251   2.275
45240W        W17500   2.827  33.090  11.428
45241W        W17501  19.214  25.974   3.810
45242W        W17502   2.841   9.275   0.891
45243W        W17503   7.253  34.497   3.361
45244W        W17504  39.471   6.305   0.874
45245W        W17505  17.746  18.116   1.443
45246W        W17506   5.217  39.024  13.035
45247W        W17507  17.715  31.503   1.811
45248W        W17508  17.652  25.601  11.903
45249W        W17509  15.194  13.765  13.890
45250W        W17510  14.679  22.034   3.234
45251W        W17511  16.253  41.929   3.382
45252W        W17512  23.714  24.573  14.347
45253W        W17513  24.014  21.543   1.233
45254W        W17514  31.125  10.853  14.006
45255W        W17515  44.408  15.299   1.900
45256W        W17516  20.237  26.493  13.859
45257W        W17517  33.493  29.985  11.582
45258W        W17518  41.909  33.413   2.211
45259W        W17519  44.004  15.802   3.731
45260W        W17520  20.555  30.991  11.091
45261W        W17521  12.672   4.325   4.647
45262W        W17522  17.585   7.806  12.429
45263W        W17523  25.660  44.294   0.827
45264W        W17524  19.698   6.919   0.780
45265W        W17525   6.857   3.245  14.765
45266W        W17526   7.713  13.824   2.901
45267W        W17527   7.176  25.554   3.644
45268W        W17528  34.420  25.482   4.166
45269W        W17529  21.145   7.705   1.295
45270W        W17530  19.588  22.594   4.164
45271W        W17531   9.386  37.480  10.432
45272W        W17532  39.343  43.464   1.747
45273W        W17533  34.422  38.958  10.641
45274W        W17534  18.147  37.435   1.855
45275W        W17535  17.183  26.466  12.027
45276W        W17536   6.908  35.420  13.967
45277W        W17537  31.992   7.373   1.791
45278W        W17538  15.710  42.000   1.767
45279W        W17539  40.831  11.683  10.491
45280W        W17540  42.893  40.854  13.882
45281W        W17541  44.996   7.405  14.835
45282W        W17542  25.062  28.178   4.682
45283W        W17543   8.717  10.225   4.745
45284W        W17544  11.715  44.374  13.491
45285W        W17545  35.965   6.845   1.352
45286W        W17546  16.717  44.005   0.727
45287W        W17547  13.840  39.378  14.370
45288W        W17548  11.234  31.526  11.891
45289W        W17549  29.487  22.535   3.308
45290W        W17550  19.554  15.708   3.253
45291W        W17551  35.572  41.827   3.867
45292W        W17552  17.742  24.553   4.761
45293W        W17553   3.248  31.076   2.785
45294W        W17554  42.020  39.450   0.879
45295W        W17555  10.179  37.448   1.382
45296W        W17556  10.723  42.815   3.675
45297W        W17557  39.352  18.196   0.893
45298W        W17558   2.368  32.485   3.246
45299W        W17559  20.126  15.119  12.541
45300W        W17560  22.687   3.257  11.552
45301W        W17561  16.732  35.497   4.641
45302W        W17562  23.146   4.203  14.306
45303W        W17563   7.804  32.623   2.206
45304W        W17564  24.086  36.031  12.908
45305W        W17565  12.813   0.745   0.295
45306W        W17566   4.297  38.364  13.045
45307W        W17567  27.655  19.273   2.238
45308W        W17568  18.703  29.508   2.257
45309W        W17569   3.377  13.826   1.856
45310W        W17570   8.743   5.758  14.291
45311W        W17571  14.761  34.428  10.915
45312W        W17572   4.888  11.757  13.803
45313W        W17573   4.909  40.018   4.271
45314W        W17574  33.545  22.078  11.483
45315W        W17575  38.416  34.592  14.449
45316W        W17576  12.666  33.961  11.951
45317W        W17577  43.298  10.328   1.825
45318W        W17578  33.997  23.019  11.088
45319W        W17579  32.595   6.734  11.908
45320W        W17580   2.344  33.397   5.205
45321W        W17581  26.552  17.625  14.276
45322W        W17582  44.829   5.240   2.795
45323W        W17583   1.248  18.051   3.723
45324W        W17584  13.671  25.475  10.459
45325W        W17585  33.975   1.764  10.604
45326W        W17586  37.877  33.395   4.136
45327W        W17587  12.239  35.392  11.539
45328W        W17588  40.457  28.017  13.986
45329W        W17589   5.260  22.126   4.215
45330W        W17590  38.503  37.391   1.433
45331W        W17591  30.455  39.036  13.971
45332W        W17592  37.398  24.531  13.818
45333W        W17593  20.580  11.218  14.352
45334W        W17594  37.438  40.482  10.624
45335W        W17595  36.884  29.979   4.619
45336W        W17596  19.248  26.040   0.395
45337W        W17597  15.637   0.437  13.059
45338W        W17598  23.557  13.758   3.853
45339W        W17599   9.232  44.867  12.476
45340W        W17600  43.274   5.399  11.944
45341W        W17601  38.974  34.582  12.917
45342W        W17602  26.977  14.736  13.936
45343W        W17603  37.837  22.671   9.965
45344W        W17604   5.268   0.860  10.560
45345W        W17605  41.534  16.699  10.457
45346W        W17606  19.741  11.801   2.733
45347W        W17607  26.983  14.689  11.984
45348W        W17608  30.555   1.306  11.051
45349W        W17609  16.736  30.497   0.335
45350W        W17610  35.081  37.424  14.351
45351W        W17611  26.485  26.630  14.897
45352W        W17612  42.389   3.845  13.013
45353W        W17613  23.092  44.289  14.906
45354W        W17614  12.206  33.958  14.009
45355W        W17615  39.809   0.757   2.273
45356W        W17616   6.700   5.283   1.342
45357W        W17617  26.039  43.004   1.743
45358W        W17618  25.075  22.581  13.018
45359W        W17619  26.015  40.838   2.859
45360W        W17620   0.878   1.403  14.470
45361W        W17621   4.354  38.355  11.552
45362W        W17622  31.586  40.052  11.379
45363W        W17623   0.848  37.029  12.513
45364W        W17624  21.155  33.000   3.155
45365W        W17625  43.890  22.695   2.768
45366W        W17626   0.861  36.093   4.115
45367W        W17627  36.362  24.574   2.759
45368W        W17628  16.800  23.546  13.926
45369W        W17629   1.255  27.054  10.495
45370W        W17630  38.445  24.011  13.495
45371W        W17631   0.942   5.396  14.353
45372W        W17632   6.843   5.355   3.182
45373W        W17633  42.499   2.913  10.999
45374W        W17634  32.590  34.105   0.258
45375W        W17635  23.181  16.713  12.418
45376W        W17636  20.203  38.070   1.932
45377W        W17637   0.792  16.246  11.539
45378W        W17638  40.955  20.714  12.486
45379W        W17639  14.254  20.215   2.754
45380W        W17640  10.872   8.168  11.911
45381W        W17641  25.590  41.826  14.825
45382W        W17642   7.324  26.030  12.399
45383W        W17643  32.430  17.281   1.769
45384W        W17644  44.269   7.873   4.621
45385W        W17645   5.242   4.438   2.828
45386W        W17646  20.697  24.685   0.934
45387W        W17647   3.738  23.011   3.213
45388W        W17648  35.518  36.026  11.543
45389W        W17649   6.215  15.174   2.304
45390W        W17650   7.291  21.262   0.792
45391W        W17651  15.624  37.981  12.345
45392W        W17652  36.048   8.711  13.820
45393W        W17653   5.414   4.329   4.635
45394W        W17654  14.813   0.319  14.941
45395W        W17655  35.904  37.399   4.663
45396W        W17656  38.534   9.205  12.929
45397W        W17657  14.816   7.391  11.410
45398W        W17658   1.959  19.089  13.926
45399W        W17659   5.205   9.670  12.013
45400W        W17660  35.593  12.621   0.919
45401W        W17661  15.103  37.011   0.370
45402W        W17662  34.906  43.442  11.569
45403W        W17663  17.116  30.428   3.742
45404W        W17664  38.539  28.149  13.341
45405W        W17665  12.684   1.274   2.363
45406W        W17666  10.718  25.659  14.770
45407W        W17667  27.096   6.762  12.352
45408W        W17668  29.168  34.018  14.460
45409W        W17669  29.153  38.833  10.917
45410W        W17670  13.145  18.710   3.278
45411W        W17671   0.315  30.071  12.343
45412W        W17672   9.886   0.802  14.441
45413W        W17673   3.952  44.354   0.762
45414W        W17674  23.068  27.673   0.942
45415W        W17675  20.612  19.286  12.039
45416W        W17676  23.682  40.469   9.988
45417W        W17677   5.783  39.945  12.027
45418W        W17678  29.176  17.729  11.564
45419W        W17679   1.828  43.393  14.397
45420W        W17680  43.966  41.033  11.922
45421W        W17681   2.334  15.637  10.443
45422W        W17682  19.771   7.202   5.300
45423W        W17683  30.126  29.086  14.414
45424W        W17684  33.895  44.876  11.983
45425W        W17685   2.302  39.526   4.279
45426W        W17686  21.106   0.988  11.461
45427W        W17687  38.830   9.884  10.891
45428W        W17688  29.171  15.618   1.895
45429W        W17689  31.006  26.646   1.920
45430W        W17690   5.811  27.513  11.499
45431W        W17691  32.452  24.050   2.887
45432W        W17692  14.661  27.654   1.833
45433W        W17693  33.997  42.480   2.900
45434W        W17694  24.583  43.902   3.302
45435W        W17695  34.556   4.259   2.790
45436W        W17696  29.424   6.291   5.179
45437W        W17697  17.167  40.409  13.501
45438W        W17698  23.001   9.700  11.094
45439W        W17699  42.867  18.275   1.296
45440W        W17700  27.105  21.667   2.296
45441W        W17701  43.926  10.213   1.807
45442W        W17702  12.263   2.743   4.724
45443W        W17703  13.337  36.366  14.416
45444W        W17704  42.972  28.580   3.781
45445W        W17705  38.018  25.690  14.803
45446W        W17706   8.694   8.176   2.350
45447W        W17707  31.415   8.208  10.594
45448W        W17708  35.544  16.184  13.995
45449W        W17709  20.732   6.765  14.804
45450W        W17710   8.393  38.479   3.682
45451W        W17711  18.785  32.047   2.760
45452W        W17712  30.932  17.743  10.893
45453W        W17713  30.560   9.666   1.830
45454W        W17714   1.429  32.935   4.807
45455W        W17715  25.980  22.684   4.682
45456W        W17716   3.286  40.337   4.778
45457W        W17717   4.936  26.126  11.878
45458W        W17718  15.583  17.607  10.456
45459W        W17719   1.443  29.529   0.876
45460W        W17720  15.236   8.740   0.727
45461W        W17721  38.044  11.659   1.373
45462W        W17722   8.332  31.433   2.727
45463W        W17723  42.023  22.712  14.366
45464W        W17724  34.103   2.456   4.355
45465W        W17725  39.404  23.490   3.307
45466W        W17726  37.837  38.945   4.709
45467W        W17727  38.571  32.433   1.753
45468W        W17728  12.703   0.339   1.753
45469W        W17729  18.121   7.318  14.923
45470W        W17730  10.659  36.882   4.187
45471W        W17731  40.891  43.441   2.250
45472W        W17732  23.241  44.765   3.263
45473W        W17733   9.259   2.438  11.436
45474W        W17734  19.267  30.115  14.818
45475W        W17735   1.964  19.195  12.864
45476W        W17736  28.530  28.450  12.930
45477W        W17737   6.237  11.340  13.007
45478W        W17738  34.565   2.966   2.834
45479W        W17739  15.711   4.927  14.425
45480W        W17740  14.256  35.095   5.172
45481W        W17741  42.985  27.042   4.256
45482W        W17742  16.172  20.637  14.415
45483W        W17743   7.711  43.299  11.878
45484W        W17744  33.049  43.949  12.876
45485W        W17745  37.489   2.398  12.911
45486W        W17746  12.843   9.205   4.142
45487W        W17747  30.960  33.385   5.248
45488W        W17748  42.020  21.517   4.814
45489W        W17749  28.454   4.929   1.753
45490W        W17750  38.859   7.279   2.866
45491W        W17751  26.986  40.934   2.820
45492W        W17752  24.552  26.016   3.820
45493W        W17753  22.736  44.759  12.375
45494W        W17754   7.844  24.155  11.864
45495W        W17755  27.604  24.563   0.269
45496W        W17756  34.386  32.894   1.696
45497W        W17757  30.615  23.181  12.986
45498W        W17758  20.103  17.231  12.479
45499W        W17759  31.055  43.836  14.841
45500W        W17760   2.873  29.480  10.475
45501W        W17761  35.420  22.580  14.456
45502W        W17762   6.908   2.733   4.237
45503W        W17763  16.711  12.818   2.793
45504W        W17764  38.379  32.455  14.026
45505W        W17765  30.518  18.243  11.111
45506W        W17766  43.885   8.684   3.847
45507W        W17767  11.360   0.861  13.014
45508W        W17768  31.101   6.840  11.606
45509W        W17769  20.660  13.616   3.673
45510W        W17770  43.952  39.332  13.815
45511W        W17771  43.492  39.012  10.965
45512W        W17772   4.297   8.662  13.831
45513W        W17773  37.073  12.139  11.996
45514W        W17774  13.626  44.757   1.891
45515W        W17775  15.676  29.964   4.235
45516W        W17776   2.906  25.554  12.470
45517W        W17777  22.126   8.794   2.788
45518W        W17778  33.523   9.664  12.579
45519W        W17779  20.679  39.923  11.443
45520W        W17780  15.663  10.242   5.145
45521W        W17781  19.577  31.941  10.524
45522W        W17782  10.860  19.258   2.708
45523W        W17783   5.305   2.955   4.280
45524W        W17784  27.595   3.271   2.817
45525W        W17785  13.760  37.571  13.410
45526W        W17786  43.337   5.255  13.925
45527W        W17787   3.713  11.726  14.861
45528W        W17788   6.860   8.707   3.854
45529W        W17789  27.170   3.326   0.905
45530W        W17790   8.321  28.178  10.587
45531W        W17791  41.873  43.321  10.536
45532W        W17792  16.691  26.596  11.026
45533W        W17793  10.189   7.196  11.978
45534W        W17794  19.216   7.243   1.705
45535W        W17795   0.925  28.029   1.752
45536W        W17796   3.779  16.674   4.180
45537W        W17797  16.148   4.363   1.760
45538W        W17798  44.392  32.580   1.396
45539W        W17799  33.503  16.608   1.775
45540W        W17800  39.467  41.998   1.871
45541W        W17801  29.568  16.105   2.188
45542W        W17802  38.891   7.709   2.264
45543W        W17803  21.151  32.981   2.691
45544W        W17804  26.112  34.109   0.736
45545W        W17805  32.605  38.843   3.748
45546W        W17806  23.996  19.679   4.131
45547W        W17807  16.206  25.091   3.204
45548W        W17808  15.153  12.272  12.438
45549W        W17809  14.305  39.526  14.955
45550W        W17810  43.781  30.586   3.747
45551W        W17811  17.654  34.877  13.372
45552W        W17812  24.497  34.071  11.389
45553W        W17813   6.861  24.606   4.785
45554W        W17814   5.853  12.849   0.339
45555W        W17815  38.338  11.867   2.716
45556W        W17816  33.938   1.415  12.377
45557W        W17817  31.609  11.297   2.750
45558W        W17818  43.498   4.310   4.253
45559W        W17819  22.151  32.991   0.332
45560W        W17820  35.868  15.771   4.646
45561W        W17821  22.594   1.368   4.650
45562W        W17822  33.608  24.975   2.690
45563W        W17823  23.623   9.869   0.926
45564W        W17824  32.080  35.493   4.660
45565W        W17825  27.603  27.649  12.426
45566W        W17826  15.621  20.116  11.920
45567W        W17827  16.813   7.803  10.524
45568W        W17828  12.339  30.468  11.489
45569W        W17829  23.044  18.654   0.381
45570W        W17830  10.780  20.620   1.774
45571W        W17831  41.351  17.580  13.805
45572W        W17832  39.394  12.297   1.433
45573W        W17833   6.768  18.110  10.628
45574W        W17834  39.414  30.626  10.895
45575W        W17835  39.928   7.357  11.919
45576W        W17836  32.885  25.519  14.778
45577W        W17837   5.318   6.826  14.392
45578W        W17838  26.956  19.710  12.419
45579W        W17839  23.992  34.569   1.450
45580W        W17840   9.246  32.599   2.862
45581W        W17841  44.933   0.290   1.821
45582W        W17842  25.539   9.373  11.036
45583W        W17843  12.714  17.291  13.962
45584W        W17844  24.054  31.073  14.856
45585W        W17845  34.881  13.185  11.462
45586W        W17846   5.378  27.180  14.300
45587W        W17847  40.993   1.843  14.014
45588W        W17848  37.481  26.608   0.250
45589W        W17849  34.391  26.133   4.196
45590W        W17850   3.765  32.487  10.551
45591W        W17851  15.328  19.538  12.887
45592W        W17852   1.926  18.107   1.221
45593W        W17853  14.224  32.483   4.271
45594W        W17854  14.218   6.711  10.937
45595W        W17855  18.633   9.373   5.270
45596W        W17856  39.521   2.804   4.238
45597W        W17857  32.122  20.549  14.952
45598W        W17858  42.358  19.751  14.873
45599W        W17859   6.412  32.048   3.201
45600W        W17860   5.838  30.574  14.439
45601W        W17861  31.122  18.616   3.369
45602W        W17862  29.668  44.972  13.017
45603W        W17863  13.222  19.103   2.747
45604W        W17864  42.953   3.344  11.980
45605W        W17865   3.236   7.815  11.495
45606W        W17866   6.792  21.115  10.435
45607W        W17867  22.065   8.362  11.577
45608W        W17868  17.272  37.475  13.345
45609W        W17869  37.024  44.914   3.202
45610W        W17870   0.361  26.993   1.250
45611W        W17871  13.168   8.223  14.030
45612W        W17872  27.485  15.774   1.368
45613W        W17873  29.574  34.013  12.553
45614W        W17874  28.565  26.182   4.810
45615W        W17875  17.190   2.244  11.894
45616W        W17876  11.781  29.998   4.816
45617W        W17877  12.760   7.900   4.153
45618W        W17878  25.687  21.705  10.542
45619W        W17879   5.865  18.613   1.407
45620W        W17880  40.017  35.439   0.785
45621W        W17881  36.946  19.164   1.265
45622W        W17882  26.471  33.999   0.958
45623W        W17883  16.786  36.055  12.042
45624W        W17884  20.527  29.585  14.847
45625W        W17885  25.067  31.122  14.284
45626W        W17886  37.352  11.169  11.963
45627W        W17887  32.447   9.677   2.314
45628W        W17888   9.668  22.058   2.703
45629W        W17889  24.546   3.216   1.439
45630W        W17890  43.993  29.969   4.794
45631W        W17891  20.665  33.962   1.788
45632W        W17892  14.101  24.131  13.003
45633W        W17893  42.387  12.800   0.463
45634W        W17894  44.424  34.431   3.733
45635W        W17895  19.686  34.522   4.160
45636W        W17896  12.195  14.316   5.311
45637W        W17897  23.585   2.434   4.818
45638W        W17898  40.977  31.025   4.643
45639W        W17899  22.226  16.707  13.487
45640W        W17900   3.837  17.071   3.812
45641W        W17901  43.935  16.273   1.447
45642W        W17902  14.791  22.574   9.981
45643W        W17903  33.511  34.426   0.415
45644W        W17904  18.215  10.245   3.231
45645W        W17905  39.505  18.236  11.899
45646W        W17906  22.513  29.472  12.094
45647W        W17907  15.766  26.525   0.332
45648W        W17908  26.192  43.372   0.455
45649W        W17909  32.114  33.001  10.580
45650W        W17910   1.936   1.937  11.395
45651W        W17911  30.501   2.884   4.647
45652W        W17912  40.973  34.505  13.381
45653W        W17913   9.754  11.857  13.501
45654W        W17914   8.242  21.689   4.335
45655W        W17915  17.697  33.489   1.785
45656W        W17916  21.688  36.994  13.894
45657W        W17917  34.408  37.462  10.524
45658W        W17918  27.992   0.914  12.362
45659W        W17919  30.042  39.367  14.370
45660W        W17920  33.589  24.221  11.485
45661W        W17921   6.298   0.471   0.752
45662W        W17922  32.418  12.145  11.046
45663W        W17923   6.220  10.332   3.707
45664W        W17924  24.122  10.326   1.376
45665W        W17925  40.034  35.096  12.921
45666W        W17926  14.310   0.299  13.988
45667W        W17927  43.409  41.396  10.499
45668W        W17928  35.570   9.244   0.438
45669W        W17929  39.912  30.993  10.568
45670W        W17930  27.968  32.950   0.827
45671W        W17931   2.276  35.414   4.266
45672W        W17932  22.501  20.632  13.381
45673W        W17933  33.497   2.397   4.703
45674W        W17934   8.340  43.429   3.783
45675W        W17935  39.856  21.518  10.512
45676W        W17936  40.016   6.420   2.824
45677W        W17937  13.210  13.208   1.382
45678W        W17938   1.971  15.670  14.989
45679W        W17939  43.854   5.687  12.539
45680W        W17940  18.572  41.957  10.447
45681W        W17941  14.101  27.005  14.790
45682W        W17942  13.808  28.680  12.440
45683W        W17943   5.777  23.101   0.397
45684W        W17944  10.267  24.121  12.968
45685W        W17945  43.431  13.272   3.646
45686W        W17946  40.040  43.449   4.355
45687W        W17947  15.640   6.701  14.328
45688W        W17948  20.053   4.354  14.922
45689W        W17949  40.529  24.033   4.638
45690W        W17950  26.594  14.719   1.414
45691W        W17951  39.467  40.512  12.494
45692W        W17952   3.789   9.657   4.627
45693W        W17953  26.200  39.513   3.771
45694W        W17954  37.081   9.296   3.855
45695W        W17955  27.030   5.288   2.282
45696W        W17956  15.752  13.299  11.934
45697W        W17957  28.026  39.424  14.870
45698W        W17958  16.239  16.258   0.799
45699W        W17959  40.358  23.669   0.950
45700W        W17960  29.170  33.414  10.440
45701W        W17961  14.704  20.754   2.411
45702W        W17962   3.380  42.459   4.775
45703W        W17963  25.572  39.871   1.787
45704W        W17964   5.779  31.544  14.360
45705W        W17965  21.048  40.955   0.449
45706W        W17966   1.272  37.495   4.712
45707W        W17967  21.098  10.821  12.389
45708W        W17968  40.306  37.987  10.459
45709W        W17969  21.261   0.441   4.650
45710W        W17970  26.148   4.300   0.245
45711W        W17971  14.685  14.708  13.024
45712W        W17972  15.116   6.762  13.378
45713W        W17973  32.438   1.437  10.940
45714W        W17974   8.810  19.742   3.643
45715W        W17975  16.089   2.472   0.336
45716W        W17976  22.590  18.102   3.260
45717W        W17977  11.639  44.849  13.523
45718W        W17978  34.999   0.377   3.199
45719W        W17979  18.063  28.171   1.926
45720W        W17980  42.808   8.210   3.231
45721W        W17981  32.919  20.191   2.755
45722W        W17982   1.813  35.501   4.203
45723W        W17983   0.964  17.202  13.816
45724W        W17984  31.081  23.664  13.035
45725W        W17985   2.253  21.165  10.916
45726W        W17986  15.086  31.042   3.345
45727W        W17987   2.441  11.328   4.266
45728W        W17988  30.017  32.052   1.300
45729W        W17989  15.794  43.826   2.198
45730W        W17990  25.594  12.344   2.729
45731W        W17991   7.291  20.031   4.825
45732W        W17992  42.897  43.280  13.342
45733W        W17993  38.988  36.879  10.613
45734W        W17994  17.296  31.119  11.560
45735W        W17995  12.675  31.977   3.704
45736W        W17996  17.151  13.244  11.006
45737W        W17997  24.080  11.235  11.538
45738W        W17998  42.018  42.896  10.449
45739W        W17999   0.450  24.205  12.553
45740W        W18000  37.038  13.235  13.791
45741W        W18001  34.390  23.506   2.710
45742W        W18002   0.366   2.428  14.408
45743W        W18003   8.387  10.679   4.636
45744W        W18004  24.628  33.403  11.884
45745W        W18005   0.750  11.243   2.410
45746W        W18006  25.183  23.230   4.789
45747W        W18007  34.976  23.625   1.212
45748W        W18008   9.301  25.599   1.243
45749W        W18009  42.974   9.809   2.395
45750W        W18010  30.444  13.725   4.253
45751W        W18011   2.845  19.096   2.331
45752W        W18012  13.627  29.499   0.416
45753W        W18013  19.652   1.782   2.281
45754W        W18014   7.400  22.020  14.985
45755W        W18015  16.756  28.521   3.767
45756W        W18016  41.912  16.693  11.610
45757W        W18017  35.404   1.394   0.402
45758W        W18018  10.278  22.239   0.373
45759W        W18019  13.286  40.434   4.308
45760W        W18020   0.785  33.533   5.220
45761W        W18021  35.033  32.011   3.705
45762W        W18022  43.892  40.055   1.813
45763W        W18023  23.523  30.163  10.512
45764W        W18024  30.658   6.423  11.097
45765W        W18025  33.942  25.635  12.033
45766W        W18026  19.147  22.591  11.925
45767W        W18027   9.362  28.065  13.516
45768W        W18028   2.230  37.000  11.531
45769W        W18029  35.593  16.096  13.441
45770W        W18030  12.742  28.999  12.090
45771W        W18031  27.549  40.843  13.504
45772W        W18032  16.167  37.920   3.220
45773W        W18033   3.265   7.192   3.869
45774W        W18034   1.757  39.405   4.741
45775W        W18035  44.992  30.915  11.079
45776W        W18036  13.351   0.357  10.494
45777W        W18037  23.104  14.809  13.858
45778W        W18038   6.423  16.127   4.628
45779W        W18039  36.532  10.781  11.006
45780W        W18040   1.900  36.967  12.077
45781W        W18041  40.810  18.073  12.525
45782W        W18042   4.703  21.077   1.901
45783W        W18043   4.417  23.065   2.394
45784W        W18044  39.340   3.350  12.055
45785W        W18045  23.527   5.223   4.714
45786W        W18046  32.980  19.672   5.313
45787W        W18047  39.505  43.426   3.303
45788W        W18048  11.712  41.823   1.356
45789W        W18049  22.152  25.607   5.639
45790W        W18050  28.443  43.343  11.481
45791W        W18051   1.468  38.537  12.950
45792W        W18052  26.170   9.241  14.024
45793W        W18053  33.948  30.533   1.876
45794W        W18054  11.154   6.677  13.815
45795W        W18055   6.905  17.063   0.398
45796W        W18056   4.938  12.282  12.030
45797W        W18057  36.928  20.212  11.027
45798W        W18058  44.306  17.304   1.835
45799W        W18059   6.194  10.178   0.779
45800W        W18060  32.554  40.892   2.274
45801W        W18061   3.279  25.079  12.833
45802W        W18062  38.491  16.241   1.240
45803W        W18063   0.347   3.815   2.807
45804W        W18064  35.395   3.751   2.725
45805W        W18065  28.479  11.127  12.912
45806W        W18066   7.393   7.327  10.926
45807W        W18067  32.594   6.246   4.720
45808W        W18068  27.191  42.341   2.414
45809W        W18069  23.148  32.510  13.833
45810W        W18070  35.896   8.657  11.402
45811W        W18071  40.497  32.946  11.567
45812W        W18072  34.499   1.905  12.470
45813W        W18073  44.432  25.029  13.896
45814W        W18074  36.011  39.560  11.101
45815W        W18075  11.233  18.773   4.211
45816W        W18076  35.410   5.377  10.907
45817W        W18077  23.590  21.211   1.282
45818W        W18078  40.945  28.943  12.940
45819W        W18079  13.826  25.060  14.887
45820W        W18080  22.174  42.880  11.919
45821W        W18081  30.139   8.348  12.086
45822W        W18082  27.513  22.522   0.349
45823W        W18083   9.276  30.476   5.209
45824W        W18084  40.395  21.229   4.255
45825W        W18085  22.154  17.126  14.448
45826W        W18086  20.544  13.209  12.861
45827W        W18087  33.546  44.404  13.546
45828W        W18088  41.862  31.536  13.537
45829W        W18089  44.459  15.167   2.877
45830W        W18090  16.213  11.177  14.400
45831W        W18091   0.926  32.469   0.461
45832W        W18092  42.462  27.536   4.278
45833W        W18093  42.952  11.260   0.253
45834W        W18094   1.736  20.246   0.795
45835W        W18095   2.839  28.103   1.423
45836W        W18096  31.009  43.891  14.462
45837W        W18097  31.456  35.959  13.892
45838W        W18098  18.683  40.540  14.450
45839W        W18099  42.305   7.210   3.677
45840W        W18100  33.539  44.354   4.330
45841W        W18101  35.986  40.933   3.344
45842W        W18102  34.526  21.106  13.915
45843W        W18103   9.648  39.369  13.432
45844W        W18104  34.437  19.192  11.513
45845W        W18105  20.618  35.595  12.019
45846W        W18106  22.547  44.267   4.826
45847W        W18107   9.884   5.317  14.388
45848W        W18108  44.990  18.570  14.353
45849W        W18109  35.466  20.251  11.387
45850W        W18110  42.872  14.186  10.510
45851W        W18111  14.789  22.630   3.644
45852W        W18112  24.079  36.358   1.839
45853W        W18113  34.440  37.449   0.939
45854W        W18114  38.844  33.550   0.760
45855W        W18115  40.532  27.544   4.273
45856W        W18116  21.639  36.064  13.380
45857W        W18117   0.418  11.691   1.751
45858W        W18118  15.627  28.460   1.709
45859W        W18119  33.060  31.027   2.204
45860W        W18120   7.212  11.640   4.214
45861W        W18121  38.000  18.690  10.981
45862W        W18122  18.291  21.263   1.836
45863W        W18123  20.137   6.212  12.545
45864W        W18124  40.410  14.307   5.205
45865W        W18125   2.231  26.674  11.089
45866W        W18126  33.584   1.399   0.910
45867W        W18127  41.307  35.050  12.347
45868W        W18128  21.173  33.573   2.226
45869W        W18129  28.595  29.088   4.253
45870W        W18130  38.454  41.042   3.281
45871W        W18131  19.223  10.650   0.385
45872W        W18132  18.658  15.799   4.276
45873W        W18133  42.347  24.663   2.297
45874W        W18134  21.192  21.235   9.621
45875W        W18135  25.986  36.477   1.756
45876W        W18136  37.522  16.803   2.702
45877W        W18137  10.352  41.337  10.915
45878W        W18138  34.098  36.513   1.373
45879W        W18139  18.214  16.737  13.937
45880W        W18140  39.841  20.728  10.523
45881W        W18141  17.680  30.415  12.526
45882W        W18142  19.771   8.725  12.443
45883W        W18143  37.413  23.530   2.185
45884W        W18144  17.642  35.428   3.234
45885W        W18145  24.127  24.097  11.412
45886W        W18146  31.973   4.328  14.029
45887W        W18147  39.016   0.483  13.902
45888W        W18148  12.619  19.082   3.251
45889W        W18149  25.522  20.180   4.712
45890W        W18150  31.445   5.375   3.313
45891W        W18151  40.538  21.584  13.424
45892W        W18152  24.601   1.354   0.880
45893W        W18153  21.683   8.704   1.407
45894W        W18154   7.181  28.959  14.765
45895W        W18155   4.745  23.523   2.308
45896W        W18156  10.216  30.953   3.866
45897W        W18157  17.285   3.362   4.766
45898W        W18158  41.030  21.534  12.468
45899W        W18159  22.246  17.259   4.287
45900W        W18160  15.158  13.803  10.427
45901W        W18161  30.043  23.552  13.312
45902W        W18162  35.035  31.532  11.570
45903W        W18163  15.750  37.435   3.704
45904W        W18164  39.523  22.678  14.005
45905W        W18165  12.143  30.451   1.432
45906W        W18166   1.307   3.262   3.238
45907W        W18167  28.054   4.808  13.361
45908W        W18168   3.716   0.451   0.449
45909W        W18169   3.724  42.327  11.592
45910W        W18170  35.545  34.118  12.033
45911W        W18171  34.036  30.562  10.918
45912W        W18172  31.420   7.785  11.398
45913W        W18173  36.044  42.331  14.374
45914W        W18174  28.134  14.702  13.548
45915W        W18175  29.452   0.290   1.340
45916W        W18176  37.471  27.053  13.017
45917W        W18177  10.292  25.097  14.299
45918W        W18178   5.320  36.468   3.329
45919W        W18179  22.555  43.766   4.641
45920W        W18180  43.985  23.057  13.910
45921W        W18181   5.712   1.342  12.529
45922W        W18182  31.992  32.601  12.554
45923W        W18183  40.821   7.405  10.997
45924W        W18184  34.506  38.001   4.134
45925W        W18185  40.308   3.250  14.861
45926W        W18186  21.157  31.935   3.770
45927W        W18187   3.746  24.018  12.436
45928W        W18188   1.807  11.800   0.916
45929W        W18189  30.512  20.208   3.787
45930W        W18190  31.609  29.550   3.248
45931W        W18191  39.405  13.610   1.340
45932W        W18192  19.147  12.177  10.904
45933W        W18193  25.667   4.716   2.220
45934W        W18194  17.674  18.225   0.477
45935W        W18195  39.871  17.266  14.295
45936W        W18196  36.586  10.785   3.739
45937W        W18197  35.424   9.751  13.030
45938W        W18198  23.021  26.122  11.998
45939W        W18199   6.374   9.884  12.388
45940W        W18200   2.782   3.320   1.240
45941W        W18201   7.902  41.911  14.371
45942W        W18202  18.238  24.070  11.467
45943W        W18203   2.874  39.918   2.239
45944W        W18204  41.356  27.623  13.376
45945W        W18205  29.129  29.596   2.821
45946W        W18206  43.922  43.787  11.871
45947W        W18207  34.916  29.610  13.324
45948W        W18208   6.215   2.398   2.256
45949W        W18209  33.938  23.005  10.628
45950W        W18210   4.249   9.204  14.008
45951W        W18211  39.478  38.355   2.718
45952W        W18212   1.841  16.148   3.821
45953W        W18213  14.105  21.170  10.418
45954W        W18214  35.536  22.514  12.000
45955W        W18215   1.897  42.525  10.582
45956W        W18216   2.369   1.872  14.865
45957W        W18217  38.386   7.398   1.746
45958W        W18218  28.532  24.991   3.223
45959W        W18219  12.243  16.091   2.234
45960W        W18220  21.174  37.065  11.047
45961W        W18221  31.012  10.382  11.520
45962W        W18222   9.268  40.478   4.667
45963W        W18223   0.891   3.224  10.128
45964W        W18224  11.170  13.738   1.302
45965W        W18225  13.146  13.829  12.366
45966W        W18226  32.582  36.580  13.826
45967W        W18227   7.800  24.682   1.795
45968W        W18228   4.875  14.118  14.965
45969W        W18229  18.688  29.989   0.888
45970W        W18230   8.389  33.971  11.003
45971W        W18231   3.868  42.380  13.956
45972W        W18232  40.815  43.416  12.486
45973W        W18233  39.810   6.225  11.453
45974W        W18234  32.020  34.397   1.878
45975W        W18235  13.142  12.689  13.913
45976W        W18236  16.154  12.134   4.624
45977W        W18237   0.856  41.521   3.852
45978W        W18238  43.824  17.721  13.900
45979W        W18239  38.458  43.800   3.823
45980W        W18240  19.756  26.487   3.215
45981W        W18241  17.719  44.928   3.852
45982W        W18242   6.732  27.083  14.764
45983W        W18243  22.502   4.727   1.219
45984W        W18244  40.426   8.253   3.692
45985W        W18245  22.560   8.309  14.941
45986W        W18246  24.185  39.999  10.458
45987W        W18247   8.657  41.292  11.013
45988W        W18248  29.509  38.843   3.215
45989W        W18249  36.950   0.325   2.203
45990W        W18250  13.779  38.492   4.289
45991W        W18251  33.596  38.546  13.442
45992W        W18252   4.772  29.154   3.738
45993W        W18253  10.306  38.907  11.888
45994W        W18254  40.380  35.367   4.789
45995W        W18255  26.019   2.435  14.482
45996W        W18256  44.955  39.003  12.961
45997W        W18257  41.817  16.733  14.364
45998W        W18258   8.802   0.280   1.298
45999W        W18259  19.593  11.621   0.859
46000W        W18260   9.360  24.225  13.992
46001W        W18261  32.014  42.794   3.841
46002W        W18262  28.099   6.806  13.017
46003W        W18263  30.949   2.850   3.333
46004W        W18264  30.480   1.834   3.684
46005W        W18265   9.272   4.271   1.703
46006W        W18266  30.629   9.645  14.310
46007W        W18267  44.827  34.098   0.462
46008W        W18268  14.117  24.595  11.522
46009W        W18269  37.924  43.826  14.885
46010W        W18270  36.486  20.763   0.782
46011W        W18271  15.709  30.065  13.464
46012W        W18272  20.654  13.781  12.562
46013W        W18273  39.382  20.248   0.874
46014W        W18274  18.703  39.982   0.826
46015W        W18275  10.352  15.655   2.794
46016W        W18276  34.523  14.327   4.702
46017W        W18277  34.880  24.663   1.350
46018W        W18278  40.826  20.230   1.390
46019W        W18279  25.558   7.228   0.799
46020W        W18280   0.815   8.377  12.878
46021W        W18281  16.614  33.074   4.666
46022W        W18282  41.956   9.795  10.450
46023W        W18283  34.526  23.227  13.407
46024W        W18284  41.318  42.949   4.244
46025W        W18285  39.397  18.714   1.386
46026W        W18286  13.786  40.357  14.293
46027W        W18287  27.491  34.043  10.427
46028W        W18288  43.425   1.405  10.897
46029W        W18289  39.955  32.599  12.029
46030W        W18290  18.698  42.823   1.744
46031W        W18291   8.798   3.372   3.825
46032W        W18292  20.067  41.350  12.481
46033W        W18293  25.557   4.389   1.746
46034W        W18294  26.686  28.010  12.416
46035W        W18295  31.642  42.454  10.635
46036W        W18296  16.777  42.939  14.962
46037W        W18297   9.698   9.864  13.534
46038W        W18298  43.983  27.165  11.110
46039W        W18299  27.452  36.423  13.019
46040W        W18300  43.796  28.653  13.443
46041W        W18301  12.168  25.082  11.023
46042W        W18302  31.917  24.709  12.374
46043W        W18303  28.574  42.007  11.004
46044W        W18304  31.436  24.718  11.006
46045W        W18305  38.339   3.259  11.930
46046W        W18306  19.219  23.031   4.353
46047W        W18307  40.828  13.800   1.390
46048W        W18308  31.424  44.288  14.293
46049W        W18309  30.977  18.704  14.403
46050W        W18310  41.987  33.520   2.853
46051W        W18311  41.473  27.678   1.745
46052W        W18312  43.947  38.836  14.467
46053W        W18313  10.670  13.347  14.400
46054W        W18314  27.542  16.684  11.988
46055W        W18315   8.233   3.849  11.095
46056W        W18316  36.501  24.070   3.830
46057W        W18317   5.773   8.800   4.290
46058W        W18318  43.997  25.712   3.863
46059W        W18319  24.578   0.831  14.796
46060W        W18320  43.770  41.852  10.928
46061W        W18321  35.888  14.607   3.366
46062W        W18322  31.617  13.777   2.663
46063W        W18323  42.472  20.657   3.155
46064W        W18324   5.892  40.036   2.297
46065W        W18325  29.092  11.358  14.436
46066W        W18326  14.621  28.173   0.314
46067W        W18327   4.705  44.982  13.015
46068W        W18328  25.543  18.566   0.816
46069W        W18329  12.784  42.930  14.983
46070W        W18330   0.822  25.675   1.861
46071W        W18331  31.112  36.894  11.472
46072W        W18332  25.145  44.493   1.712
46073W        W18333  44.857  21.647   2.850
46074W        W18334  26.519   6.426  14.400
46075W        W18335  31.920  44.811  14.814
46076W        W18336  17.589  23.003  12.358
46077W        W18337  10.833  36.937  13.973
46078W        W18338  43.897   8.672   3.349
46079W        W18339  25.074  27.956   3.355
46080W        W18340  44.988  28.110   4.669
46081W        W18341  38.924  10.295  11.444
46082W        W18342  25.151   8.890   2.746
46083W        W18343  36.536  16.196  13.909
46084W        W18344  40.376  36.930   3.803
46085W        W18345  44.998  43.444  10.422
46086W        W18346  42.487  40.454  12.436
46087W        W18347  31.642  10.788   3.293
46088W        W18348  14.698  39.063   1.891
46089W        W18349   4.259  22.190   4.683
46090W        W18350  35.447   1.738  11.878
46091W        W18351  29.626  20.053  13.897
46092W        W18352  38.932  37.542   3.818
46093W        W18353  32.100  15.324   1.748
46094W        W18354  12.281   3.220   4.251
46095W        W18355  20.237   2.269  11.947
46096W        W18356   9.678  16.701   0.857
46097W        W18357  33.518  20.660   0.265
46098W        W18358  30.641  10.277   0.944
46099W        W18359  17.130   4.829  12.003
46100W        W18360  34.594   7.267   4.345
46101W        W18361   0.756   2.802  11.560
46102W        W18362  10.811  24.192   4.252
46103W        W18363   2.882   9.794   4.677
46104W        W18364  18.218  32.978  12.480
46105W        W18365  43.998   0.370   1.841
46106W        W18366   1.351  44.895  14.343
46107W        W18367  22.081  24.614   2.740
46108W        W18368  40.955  17.759  12.061
46109W        W18369   0.251  11.701  14.922
46110W        W18370  12.235  18.620   4.302
46111W        W18371  25.208   9.744  14.376
46112W        W18372   4.870  12.628   4.213
46113W        W18373   3.901  41.035  12.345
46114W        W18374  14.127  26.111  12.353
46115W        W18375   6.916  11.780  14.335
46116W        W18376  16.290   7.774   2.880
46117W        W18377   7.401   9.160  14.274
46118W        W18378  12.193   5.746  13.910
46119W        W18379  12.255  24.617  13.446
46120W        W18380   2.895  36.865   3.697
46121W        W18381  25.684  15.643   1.896
46122W        W18382   4.887  33.055   1.793
46123W        W18383  35.100  16.305  13.321
46124W        W18384  19.182  43.483   2.827
46125W        W18385  34.400   9.888   4.633
46126W        W18386  35.501  14.290   4.819
46127W        W18387  17.593  33.458   0.747
46128W        W18388  12.657  39.062   1.927
46129W        W18389  11.704  41.508   1.713
46130W        W18390  42.909  25.096   3.794
46131W        W18391  30.565  38.847  11.422
46132W        W18392  44.787  10.793   1.903
46133W        W18393  37.548   5.862  14.324
46134W        W18394  30.425  44.392   3.649
46135W        W18395  19.733  37.531  14.817
46136W        W18396  18.770  29.423  14.415
46137W        W18397  22.683  34.466  11.447
46138W        W18398  15.658  31.945   0.836
46139W        W18399  21.546  12.707   2.880
46140W        W18400  30.536  41.427  11.602
46141W        W18401   8.787  24.562   0.959
46142W        W18402   5.297  36.935   2.717
46143W        W18403  36.581  28.632  14.995
46144W        W18404  19.283   2.898   2.311
46145W        W18405  37.437  19.255   4.209
46146W        W18406   3.863  44.475   3.746
46147W        W18407  21.170  36.052  12.357
46148W        W18408   9.382  17.613   1.874
46149W        W18409  34.094   1.735   0.454
46150W        W18410  28.648  23.085  12.026
46151W        W18411   2.758  16.289   0.446
46152W        W18412  39.438  42.329   2.213
46153W        W18413  33.542  12.734  12.834
46154W        W18414  31.454  15.620   4.177
46155W        W18415   1.312   4.860  10.536
46156W        W18416  16.263  37.515   3.356
46157W        W18417  19.711  24.717  10.423
46158W        W18418  29.066   8.737  14.370
46159W        W18419  10.159  43.286   0.418
46160W        W18420  43.787   5.295   3.223
46161W        W18421   7.197  30.116  13.359
46162W        W18422  43.780  23.518   0.788
46163W        W18423  26.492  26.661  14.397
46164W        W18424   0.458  39.471  13.510
46165W        W18425  12.179  20.715   4.697
46166W        W18426  38.334  17.743   2.852
46167W        W18427  32.045  14.187  13.850
46168W        W18428  37.572  30.606   4.697
46169W        W18429  40.033  41.842  14.904
46170W        W18430  30.486  24.582  11.898
46171W        W18431   3.388  16.278  11.398
46172W        W18432  14.726   8.405  14.825
46173W        W18433   1.755  39.538  11.047
46174W        W18434  37.541  33.436  13.361
46175W        W18435  37.953   2.466   0.294
46176W        W18436  35.603  41.922  14.429
46177W        W18437  10.163  23.185  13.907
46178W        W18438  22.239  22.209  11.504
46179W        W18439   0.895   2.432   4.646
46180W        W18440  34.035  14.254  13.313
46181W        W18441   9.780   3.781  12.891
46182W        W18442   5.742  23.054   3.718
46183W        W18443  20.555  14.698  11.492
46184W        W18444   4.405   2.322   2.669
46185W        W18445   8.771  11.731   5.307
46186W        W18446   2.385   3.336  11.502
46187W        W18447  31.048  14.154  13.444
46188W        W18448  24.501  34.374  12.511
46189W        W18449  13.334  22.517  14.508
46190W        W18450   3.342  11.742   4.332
46191W        W18451  27.012  35.575   3.736
46192W        W18452  28.596  33.622  14.986
46193W        W18453  11.351  39.351  10.556
46194W        W18454  21.514  32.978   2.254
46195W        W18455  19.740  19.722  10.432
46196W        W18456  22.223  34.093  12.825
46197W        W18457   6.412  11.745   4.289
46198W        W18458  22.523  18.697  14.844
46199W        W18459  26.500  34.604   0.925
46200W        W18460  33.560  41.852   5.187
46201W        W18461  30.514  15.180   0.745
46202W        W18462  22.551  29.164   0.326
46203W        W18463  35.046   7.291   3.215
46204W        W18464  18.280   3.458  14.887
46205W        W18465  20.136  40.516   2.868
46206W        W18466  25.116  10.204  14.905
46207W        W18467  28.045  33.944  12.021
46208W        W18468  28.023  26.619   4.730
46209W        W18469   7.866  41.960  13.439
46210W        W18470   3.246  44.987   1.363
46211W        W18471   4.852  28.448   3.344
46212W        W18472  24.662  33.929  12.515
46213W        W18473  42.019   2.732  13.484
46214W        W18474  12.848  11.231   2.663
46215W        W18475  22.996  18.778   1.761
46216W        W18476  31.641   6.801  14.921
46217W        W18477   3.223  31.444  10.953
46218W        W18478  32.556  37.377  11.378
46219W        W18479  12.657   4.720  13.510
46220W        W18480  32.014   7.847   4.681
46221W        W18481  13.182  33.969  14.304
46222W        W18482  13.676  12.742   4.342
46223W        W18483  20.133  37.913  12.865
46224W        W18484   3.230  35.906   3.286
46225W        W18485  20.755  44.919  12.931
46226W        W18486  31.967  13.730   1.372
46227W        W18487   2.453  11.183  14.768
46228W        W18488  38.513   5.770   3.163
46229W        W18489  27.636  38.986  14.762
46230W        W18490  22.099  16.217   2.310
46231W        W18491  14.648  18.553   4.832
46232W        W18492   3.862   1.277  13.000
46233W        W18493   2.939  41.807   1.443
46234W        W18494  32.112   1.747   3.222
46235W        W18495  29.467   9.885   4.645
46236W        W18496   2.786  17.696  12.041
46237W        W18497  23.540  16.279  12.467
46238W        W18498  16.174   4.878   1.420
46239W        W18499  26.190  28.181  14.493
46240W        W18500  10.818  32.995  11.066
46241W        W18501  25.618   6.419   2.374
46242W        W18502   8.844  17.234   0.469
46243W        W18503   4.265   2.799  13.911
46244W        W18504  36.394  32.568  12.546
46245W        W18505  39.445   0.407   2.875
46246W        W18506   3.824   5.743  12.468
46247W        W18507   6.885  37.909   1.407
46248W        W18508  38.863  11.630   4.810
46249W        W18509  38.969   8.822   1.288
46250W        W18510  23.712  43.314  11.990
46251W        W18511  13.754   1.819   3.688
46252W        W18512  38.489  29.612  12.505
46253W        W18513  33.488  17.651  11.901
46254W        W18514  32.040  33.907   2.244
46255W        W18515  38.350  28.501  13.339
46256W        W18516  12.153  15.620  12.376
46257W        W18517  33.978  25.032  10.561
46258W        W18518  25.643  13.325  14.300
46259W        W18519  32.573  41.951   2.305
46260W        W18520  19.047  21.572   3.250
46261W        W18521   2.233  25.091   1.412
46262W        W18522  37.512  21.560  11.550
46263W        W18523  12.721  40.966   3.282
46264W        W18524  11.147  15.597  11.373
46265W        W18525  25.150  27.114   0.463
46266W        W18526  44.399  21.559   2.878
46267W        W18527  13.114  43.339  14.404
46268W        W18528  26.554  27.131  14.493
46269W        W18529   1.468  14.605   2.413
46270W        W18530  39.342  26.549  11.517
46271W        W18531  31.939  11.240   1.746
46272W        W18532   2.755  39.398  13.821
46273W        W18533  25.703   0.408  11.389
46274W        W18534  20.057  22.667  14.461
46275W        W18535  37.837  12.783   3.659
46276W        W18536   0.774   9.232   2.381
46277W        W18537  13.621  10.795  12.954
46278W        W18538  19.235  18.715   0.746
46279W        W18539  23.659   6.306   3.834
46280W        W18540   7.689   1.968   0.395
46281W        W18541  31.589  25.475   0.351
46282W        W18542   3.265  34.113  12.083
46283W        W18543  40.534  23.620   9.925
46284W        W18544   2.460  39.983  14.974
46285W        W18545  17.733  30.532   3.841
46286W        W18546   3.264  44.936   3.266
46287W        W18547  15.175   8.881   3.318
46288W        W18548  33.944  12.293   2.785
46289W        W18549  37.549  18.763  14.938
46290W        W18550  12.259  33.409   4.769
46291W        W18551   6.792  22.041   3.853
46292W        W18552   2.892  29.630   0.372
46293W        W18553  17.560  40.836   1.895
46294W        W18554  23.088  35.019  12.918
46295W        W18555  22.740  38.523   2.222
46296W        W18556   3.832  32.118   1.247
46297W        W18557  35.425  19.250   4.804
46298W        W18558  20.100  39.481   1.408
46299W        W18559  22.605  39.385  13.958
46300W        W18560   6.327  29.976   2.404
46301W        W18561  30.967  22.714  12.915
46302W        W18562  35.592   1.287   4.751
46303W        W18563  28.127  12.237   1.891
46304W        W18564  42.304  36.928   2.344
46305W        W18565  38.891  14.246  10.896
46306W        W18566   2.323  25.712  11.545
46307W        W18567   7.387   3.780   3.667
46308W        W18568  41.795  41.926  13.894
46309W        W18569   6.249  29.555   9.934
46310W        W18570  23.517  44.446   4.729
46311W        W18571  20.686  18.188   2.271
46312W        W18572  19.183  31.994  13.058
46313W        W18573   3.853  31.574   1.909
46314W        W18574   1.849  16.300   0.431
46315W        W18575  10.376  14.319  13.546
46316W        W18576  15.260  12.331   2.737
46317W        W18577  18.648  16.250  11.407
46318W        W18578  38.355   9.852  10.496
46319W        W18579  21.133  14.690  10.945
46320W        W18580   2.374  36.056  13.836
46321W        W18581  36.392  12.753  13.394
46322W        W18582  15.738  44.379   3.844
46323W        W18583  12.681   5.241   3.632
46324W        W18584  10.343  39.508  12.498
46325W        W18585  23.201  41.907   4.813
46326W        W18586  38.541   7.375   2.214
46327W        W18587  33.104  14.207  12.474
46328W        W18588  23.664   2.967  12.841
46329W        W18589  21.078   7.347   2.824
46330W        W18590  35.413  13.662  13.432
46331W        W18591  31.511   1.275  13.863
46332W        W18592   9.326  26.115   1.233
46333W        W18593  34.950  17.283  12.838
46334W        W18594  18.582  26.632  13.813
46335W        W18595  24.047   0.934   2.676
46336W        W18596   6.801  20.530  14.465
46337W        W18597   4.302   5.778   4.149
46338W        W18598  24.609  26.156  11.581
46339W        W18599  34.888   6.308  10.015
46340W        W18600  27.023   6.413  14.762
46341W        W18601  40.423  15.133  14.931
46342W        W18602  18.197  21.230  12.385
46343W        W18603  37.983  18.689   3.287
46344W        W18604  17.285   9.803  12.014
46345W        W18605  41.808  16.737   2.896
46346W        W18606  31.028  43.300  14.383
46347W        W18607   9.350   2.270   1.828
46348W        W18608   7.343  30.466  13.354
46349W        W18609   4.774  10.796   3.729
46350W        W18610  40.382   0.384  10.406
46351W        W18611  38.976   3.921  12.007
46352W        W18612  23.568  22.051   4.120
46353W        W18613   8.213  24.612  11.521
46354W        W18614   7.749  19.260   4.690
46355W        W18615  21.754   2.228  12.992
46356W        W18616   5.317  44.865   1.366
46357W        W18617  26.141  31.048   1.274
46358W        W18618  38.040  23.634  11.385
46359W        W18619   0.786   1.878   4.678
46360W        W18620   5.899  31.478   1.930
46361W        W18621  21.232  14.620   2.895
46362W        W18622  30.053  31.904  11.054
46363W        W18623  29.967  33.481   1.375
46364W        W18624  15.150  38.418  13.970
46365W        W18625  35.087   8.221  11.586
46366W        W18626   0.848  33.422   0.773
46367W        W18627  26.105   2.903   3.241
46368W        W18628  27.155  27.976   4.217
46369W        W18629   4.887  15.196   1.272
46370W        W18630   8.225   7.714  14.864
46371W        W18631   2.725  13.764  10.524
46372W        W18632  43.307  41.304  11.931
46373W        W18633   9.394  32.988  13.918
46374W        W18634  40.426  39.504  10.631
46375W        W18635  23.058  16.115   1.878
46376W        W18636  39.860  21.538  11.984
46377W        W18637  40.435  13.648   2.265
46378W        W18638  36.943  42.965   1.784
46379W        W18639  16.774  41.019  14.374
46380W        W18640  19.717  29.558   4.329
46381W        W18641  31.993  26.533  10.069
46382W        W18642   2.433   2.862  10.913
46383W        W18643   3.243  19.705  14.435
46384W        W18644  21.535   8.780   4.627
46385W        W18645   1.809  17.783   0.884
46386W        W18646  23.171  34.368   3.700
46387W        W18647  39.458  43.329  10.908
46388W        W18648  18.179  13.285   1.353
46389W        W18649  10.860  39.933   3.340
46390W        W18650  40.515  24.585  13.991
46391W        W18651  13.326  10.745  10.963
46392W        W18652  13.832  16.629   9.467
46393W        W18653  30.549  12.819   1.732
46394W        W18654  15.157  18.743   2.726
46395W        W18655  24.999  12.250  13.951
46396W        W18656  36.047  34.425  14.484
46397W        W18657  21.216  31.058  14.884
46398W        W18658  22.006  19.133   2.178
46399W        W18659  10.167  42.398  14.787
46400W        W18660  43.336  27.485   1.387
46401W        W18661   4.800  39.995   1.222
46402W        W18662  14.220  30.499  13.545
46403W        W18663  35.381  31.469   1.914
46404W        W18664   7.180  10.257   4.670
46405W        W18665  42.447  15.711  13.968
46406W        W18666  35.942  21.554  10.533
46407W        W18667  34.557  20.192   4.790
46408W        W18668  26.100  42.442   5.225
46409W        W18669  30.526   0.309  13.056
46410W        W18670  13.334  42.484  14.422
46411W        W18671  12.760   5.221  12.377
46412W        W18672   9.745  41.488  11.061
46413W        W18673  29.587  31.623  11.868
46414W        W18674   0.382  16.636  14.327
46415W        W18675  36.390  28.654   2.774
46416W        W18676  27.454  19.216  11.451
46417W        W18677  40.938  35.549   3.375
46418W        W18678   5.354  42.359  12.865
46419W        W18679  18.133  17.136   2.674
46420W        W18680   7.251  27.166  14.833
46421W        W18681   7.907  36.388   3.733
46422W        W18682  37.028   6.191   2.222
46423W        W18683  25.656  28.560   4.778
46424W        W18684  30.118  19.225   2.885
46425W        W18685  37.461  14.331   1.264
46426W        W18686   4.219  42.785   1.377
46427W        W18687  29.579  14.807   1.421
46428W        W18688  17.613  36.982  12.938
46429W        W18689  32.473  42.418  10.562
46430W        W18690  23.608  22.190   2.884
46431W        W18691  33.416  16.080   3.793
46432W        W18692   3.860  24.014   4.167
46433W        W18693   7.723  37.581   3.145
46434W        W18694  31.982   1.860  13.329
46435W        W18695  27.552  25.484   0.748
46436W        W18696  36.492   7.777  13.378
46437W        W18697  44.766  27.122   0.766
46438W        W18698  28.126   9.810   3.248
46439W        W18699   8.722  12.163   3.352
46440W        W18700  32.112  24.031   1.861
46441W        W18701  35.017  14.735  12.561
46442W        W18702  28.047  26.667  13.355
46443W        W18703  11.831  23.224   3.772
46444W        W18704  18.728  23.074  13.806
46445W        W18705  29.494  41.411   1.896
46446W        W18706  12.665   3.403   3.716
46447W        W18707  41.466  39.999   4.126
46448W        W18708  27.094  31.126   0.315
46449W        W18709  36.355  24.636   1.270
46450W        W18710  44.926  17.300   0.358
46451W        W18711   6.750  25.146  13.401
46452W        W18712  39.873   0.269   0.445
46453W        W18713  44.859  38.015  12.952
46454W        W18714  37.352   7.887   3.717
46455W        W18715  41.903  26.978  13.822
46456W        W18716  10.277  20.227  12.973
46457W        W18717  36.064   2.320   0.276
46458W        W18718  12.764  41.330   4.180
46459W        W18719  15.600  28.064   2.673
46460W        W18720  32.069  42.428  11.032
46461W        W18721  29.461  39.848   2.369
46462W        W18722  34.916  13.279   2.685
46463W        W18723  43.830  13.122  14.009
46464W        W18724   8.177  30.634   2.282
46465W        W18725  28.575  41.465  14.011
46466W        W18726  43.782  17.286  13.956
46467W        W18727  33.403  38.494  11.574
46468W        W18728  38.985   9.688   2.347
46469W        W18729  36.496   4.883  10.065
46470W        W18730  27.631  32.050  11.066
46471W        W18731  41.311   8.663   3.840
46472W        W18732  43.788   2.927  10.970
46473W        W18733  41.971   5.698   4.834
46474W        W18734  24.008  25.972  12.379
46475W        W18735  14.178  30.991  12.008
46476W        W18736  25.013   6.284  13.981
46477W        W18737  38.905  17.068  12.061
46478W        W18738  26.007  28.078   3.307
46479W        W18739  14.754  17.649  10.412
46480W        W18740   4.928  27.180   2.336
46481W        W18741   1.745  15.295  10.618
46482W        W18742  11.264  30.045   1.278
46483W        W18743   4.916   4.297  10.104
46484W        W18744  43.830  40.854   2.240
46485W        W18745  36.999  24.993   3.229
46486W        W18746  22.092  18.129   1.836
46487W        W18747  43.997  40.387   0.454
46488W        W18748  33.542  33.471   3.370
46489W        W18749  30.125  20.738  11.878
46490W        W18750  39.554  23.138  13.401
46491W        W18751   9.722  36.557  11.077
46492W        W18752  38.997  43.349  12.836
46493W        W18753  40.423   3.245   1.279
46494W        W18754  36.562  13.295  12.382
46495W        W18755  28.679  43.432  13.940
46496W        W18756  43.438  41.788  14.957
46497W        W18757  44.922  39.942   1.266
46498W        W18758  19.549   1.778  14.915
46499W        W18759  31.511  36.513   0.881
46500W        W18760  36.577  18.564   3.869
46501W        W18761   0.843  38.524   1.444
46502W        W18762  38.863  10.847   4.148
46503W        W18763  22.184  41.822   2.816
46504W        W18764  35.551   9.814  14.003
46505W        W18765  23.984  23.162   2.361
46506W        W18766   4.405  18.151  11.437
46507W        W18767  16.154  10.177   0.744
46508W        W18768  21.662  14.167  14.775
46509W        W18769  34.497   6.709   0.817
46510W        W18770  30.523  26.062  14.912
46511W        W18771  29.496  36.394   3.756
46512W        W18772  35.023  16.594  10.571
46513W        W18773  20.246  19.061   0.898
46514W        W18774  14.805  30.141   0.370
46515W        W18775  18.551  36.979  11.033
46516W        W18776   8.746  40.977   0.784
46517W        W18777  32.124  40.956  11.110
46518W        W18778  14.277   9.293   3.182
46519W        W18779  41.306  31.409  13.897
46520W        W18780  27.098  16.312  13.019
46521W        W18781  16.638  44.474  14.780
46522W        W18782  12.732  40.826  13.057
46523W        W18783  32.416  29.601  12.019
46524W        W18784  12.794  44.789   2.303
46525W        W18785   2.455  44.919   1.753
46526W        W18786  14.140  16.201  13.319
46527W        W18787  44.983  17.136  11.456
46528W        W18788  12.613  30.926   1.745
46529W        W18789  27.009   5.804   2.207
46530W        W18790   6.399  10.199  11.857
46531W        W18791  41.011  27.481   4.758
46532W        W18792  28.502  25.991  13.835
46533W        W18793  28.496  23.185   2.225
46534W        W18794   0.984   0.410   2.360
46535W        W18795  24.483  33.027  11.532
46536W        W18796  27.571   2.923   1.387
46537W        W18797  22.137  36.910  11.057
46538W        W18798  32.533   0.874   1.733
46539W        W18799  33.502   3.728  10.044
46540W        W18800  28.124  43.289  10.010
46541W        W18801  10.370   9.324  12.377
46542W        W18802  14.749  44.367   0.803
46543W        W18803  41.413  21.192  14.400
46544W        W18804   6.218  29.988   1.406
46545W        W18805  38.875  33.001   9.926
46546W        W18806  16.159  15.096  14.406
46547W        W18807  25.080  33.946  11.565
46548W        W18808  29.641  42.282  10.617
46549W        W18809  21.184   5.931   4.622
46550W        W18810  25.649  31.587   1.797
46551W        W18811   7.848  19.640  13.330
46552W        W18812   6.282  12.816  10.552
46553W        W18813  28.098  41.984   9.948
46554W        W18814  39.342   3.746  13.794
46555W        W18815  34.434  10.263  12.377
46556W        W18816   7.874  42.860   5.196
46557W        W18817  33.082  35.069   4.300
46558W        W18818  11.839  12.311   1.304
46559W        W18819  41.887  32.007  12.031
46560W        W18820  27.973   2.455   2.902
46561W        W18821  38.469  28.176  12.068
46562W        W18822  39.885  41.013   1.770
46563W        W18823   8.821  33.061   2.675
46564W        W18824   5.858   8.195  14.991
46565W        W18825   9.746  17.157  11.076
46566W        W18826  25.523  40.436  12.901
46567W        W18827   4.719   0.790   2.245
46568W        W18828  36.462  12.231  14.919
46569W        W18829  30.604  17.192   4.619
46570W        W18830   5.312  14.794   1.321
46571W        W18831  21.134   9.858   4.199
46572W        W18832  41.796  10.756   2.247
46573W        W18833  28.580  30.925  13.334
46574W        W18834  10.260  24.107   2.183
46575W        W18835  36.899   1.836   2.253
46576W        W18836  33.097  29.969   4.312
46577W        W18837  38.021   0.329   0.934
46578W        W18838  25.658   8.347   3.820
46579W        W18839  29.459   8.818   3.218
46580W        W18840  41.411  31.911  12.020
46581W        W18841  10.360  11.224  11.423
46582W        W18842  31.018  41.863  11.592
46583W        W18843  26.580  37.983  12.895
46584W        W18844  41.410  26.465  10.533
46585W        W18845  23.116  19.566   1.432
46586W        W18846   8.297  13.604   3.312
46587W        W18847  24.178  15.700  13.318
46588W        W18848   6.703  32.578  11.014
46589W        W18849   6.337  11.819  11.922
46590W        W18850  39.039  29.990  13.309
46591W        W18851  25.056  44.392   2.723
46592W        W18852  40.002   5.252  11.419
46593W        W18853  37.458   9.810  12.431
46594W        W18854  33.114  22.669  10.993
46595W        W18855  39.969  32.412   4.281
46596W        W18856  41.354   7.184   0.803
46597W        W18857   6.720  37.040   3.837
46598W        W18858   6.230  21.096   9.932
46599W        W18859  26.060  33.114   1.839
46600W        W18860  12.128   7.833   4.265
46601W        W18861   7.818  36.526  12.025
46602W        W18862  34.442   6.272  12.448
46603W        W18863  34.462  30.971   2.399
46604W        W18864  18.224  43.909  11.535
46605W        W18865  18.071   8.748   0.385
46606W        W18866   3.443  32.053  13.418
46607W        W18867  30.161   0.864   1.776
46608W        W18868  26.464  27.661   2.369
46609W        W18869   6.204  24.715  12.086
46610W        W18870  15.101  35.380  13.979
46611W        W18871  20.615   2.932  14.774
46612W        W18872  14.778  28.487   5.087
46613W        W18873  19.053  34.035  12.405
46614W        W18874  25.008  29.095   4.343
46615W        W18875  34.511  18.189  11.983
46616W        W18876   5.358  19.212   2.758
46617W        W18877  12.211  22.020  13.872
46618W        W18878  25.058  19.262   2.870
46619W        W18879   4.412  36.545  14.919
46620W        W18880   9.377   7.866   0.277
46621W        W18881  21.181  31.542   3.852
46622W        W18882  42.007  32.409  14.829
46623W        W18883  15.327   0.365  10.909
46624W        W18884  34.469  28.981  10.963
46625W        W18885  16.750  31.003  10.964
46626W        W18886  26.062  41.823  13.348
46627W        W18887   5.690   9.682   4.250
46628W        W18888  32.429   8.758   4.257
46629W        W18889   0.960  22.532   3.329
46630W        W18890  27.153  35.864   5.287
46631W        W18891   8.880  25.623   1.794
46632W        W18892  18.769  31.581   0.947
46633W        W18893  44.329   6.881   1.785
46634W        W18894  36.866  20.700   5.203
46635W        W18895   7.190   4.879   2.857
46636W        W18896   6.748  16.169  10.985
46637W        W18897   3.222  20.176  14.871
46638W        W18898   5.275  35.059  13.928
46639W        W18899  13.690  14.730  10.062
46640W        W18900  43.513  20.190   4.823
46641W        W18901  20.106  16.178   0.333
46642W        W18902   2.331  23.588   3.682
46643W        W18903  41.949  12.186  10.543
46644W        W18904  22.723  18.740   4.742
46645W        W18905  31.994  32.002  12.059
46646W        W18906  35.934  15.210   2.732
46647W        W18907  16.217  16.296   2.712
46648W        W18908  15.189  21.692  13.851
46649W        W18909   0.326  31.018   3.830
46650W        W18910  39.910  32.110   4.688
46651W        W18911   2.953  14.149   2.218
46652W        W18912  20.632  16.785   3.227
46653W        W18913  12.856  16.693  13.941
46654W        W18914  31.039  17.618  11.467
46655W        W18915  37.375  36.472  13.497
46656W        W18916  14.273   3.297   2.350
46657W        W18917  17.695  32.940  13.322
46658W        W18918  24.059   8.785  11.467
46659W        W18919   3.302  38.551   3.781
46660W        W18920  43.828  38.325  11.997
46661W        W18921  22.581  27.002   1.724
46662W        W18922  14.777  19.760   5.094
46663W        W18923  13.184  30.513   2.713
46664W        W18924  24.613  38.926   0.418
46665W        W18925  37.997  43.804   2.697
46666W        W18926   6.270   6.224   4.814
46667W        W18927  16.778  28.680  12.943
46668W        W18928  12.232   6.328  13.002
46669W        W18929  23.086  19.534  11.075
46670W        W18930   3.294  25.621  14.922
46671W        W18931   0.389  40.523   2.664
46672W        W18932  20.211  37.893   2.902
46673W        W18933  27.537  31.109  12.479
46674W        W18934  32.523  35.011   3.196
46675W        W18935   0.865  41.425   1.264
46676W        W18936   2.900  26.180  13.798
46677W        W18937   4.848  44.768   5.135
46678W        W18938  30.514  19.061  14.923
46679W        W18939  41.922   8.681  12.394
46680W        W18940  31.029  12.184   3.854
46681W        W18941  16.782  24.092  11.006
46682W        W18942   3.735  15.640   4.793
46683W        W18943  11.358  28.573   1.288
46684W        W18944  27.052  15.639   5.095
46685W        W18945  44.330  29.023   3.786
46686W        W18946  13.171  25.622   0.472
46687W        W18947   1.392  25.995  12.463
46688W        W18948  43.765  33.486   0.809
46689W        W18949  30.539  42.777  13.014
46690W        W18950  27.648  15.736  12.538
46691W        W18951   5.433  39.455   0.319
46692W        W18952  35.580   3.236  13.435
46693W        W18953  32.494  35.439  14.815
46694W        W18954   8.264  41.326  10.520
46695W        W18955   7.251  34.044  10.996
46696W        W18956  37.405  31.952   0.416
46697W        W18957   9.241  20.553  13.965
46698W        W18958   0.899  36.070   3.773
46699W        W18959  23.140  31.641  10.996
46700W        W18960   9.759  44.409  13.811
46701W        W18961  22.170  22.103  11.901
46702W        W18962  22.501  44.489   4.314
46703W        W18963  35.072  42.013  11.940
46704W        W18964  19.641  13.769   0.744
46705W        W18965  44.941  36.511   4.229
46706W        W18966  12.696  21.595   1.362
46707W        W18967  15.764  14.671   4.121
46708W        W18968   0.262  28.472   1.704
46709W        W18969  14.106   2.818   0.889
46710W        W18970  13.144  17.747   2.245
46711W        W18971   3.717   8.660   3.702
46712W        W18972  30.427  18.616   2.347
46713W        W18973  41.507  25.588  12.480
46714W        W18974  36.084  16.197   0.446
46715W        W18975  39.413  29.629   0.941
46716W        W18976  24.493   5.928  12.433
46717W        W18977  14.221  32.468   2.867
46718W        W18978  39.912  33.024  12.544
46719W        W18979  12.273  29.478  10.615
46720W        W18980  18.687  34.610  10.893
46721W        W18981  36.904  20.204   2.287
46722W        W18982  10.324  23.082  13.512
46723W        W18983  14.632  32.409  13.354
46724W        W18984  29.929   5.226  11.006
46725W        W18985  11.186  21.594   0.849
46726W        W18986  35.513  18.227  14.940
46727W        W18987  14.656  12.624   1.900
46728W        W18988  42.507  13.634  10.921
46729W        W18989   6.321  35.962   4.742
46730W        W18990  42.885  13.210   1.734
46731W        W18991  31.603  16.200  12.460
46732W        W18992  21.163   9.814   0.410
46733W        W18993  31.642  43.464  14.344
46734W        W18994  15.683   5.309  14.016
46735W        W18995  42.894  36.425  10.963
46736W        W18996  22.100  30.983   0.935
46737W        W18997  21.233  10.663   1.290
46738W        W18998  21.070  31.997  12.055
46739W        W18999  26.076   7.268  14.455
46740W        W19000  11.784  11.320  14.864
46741W        W19001  41.438  14.224   0.475
46742W        W19002  40.935  26.679   3.692
46743W        W19003   9.275  19.625   0.438
46744W        W19004  36.586  41.351   2.260
46745W        W19005  32.125   9.214  11.449
46746W        W19006  37.945  24.624  11.383
46747W        W19007  33.960   8.740  11.950
46748W        W19008  12.677  34.940  13.892
46749W        W19009  13.222  26.140   0.383
46750W        W19010  19.698  22.053   0.474
46751W        W19011   3.435  18.788   3.763
46752W        W19012  42.965  30.618  13.415
46753W        W19013  17.800  33.016   2.237
46754W        W19014  12.154  43.346   3.218
46755W        W19015  32.439  23.139   0.309
46756W        W19016  11.268  38.933  11.112
46757W        W19017   5.707  27.663  13.880
46758W        W19018  32.588  38.452  13.978
46759W        W19019  15.606   3.383   2.851
46760W        W19020  42.315  27.487  11.042
46761W        W19021  31.435  21.623  12.378
46762W        W19022  43.912  29.649   3.664
46763W        W19023   7.239  21.643   3.730
46764W        W19024   3.329  41.794  10.592
46765W        W19025  38.395   9.205  13.338
46766W        W19026  44.758   5.333  10.929
46767W        W19027  25.624  15.247  11.395
46768W        W19028  42.460  43.969  10.521
46769W        W19029  14.148  32.490   1.708
46770W        W19030  40.337  34.023   1.855
46771W        W19031  44.799  13.208  12.988
46772W        W19032  20.087  27.117   0.728
46773W        W19033  44.005  44.370  12.348
46774W        W19034  33.500   5.266   2.205
46775W        W19035  21.174  30.433   3.273
46776W        W19036  11.370  31.494   3.801
46777W        W19037  19.649  33.603  10.483
46778W        W19038  35.476  11.696  12.827
46779W        W19039  11.169  42.821  10.920
46780W        W19040   1.887  21.050  14.847
46781W        W19041  16.793   1.732   4.252
46782W        W19042   3.401   1.395   4.350
46783W        W19043  11.696  30.527   0.482
46784W        W19044  38.533   8.337   4.655
46785W        W19045  40.874   5.350  13.953
46786W        W19046  23.665   3.272   2.286
46787W        W19047  10.242  10.246   0.448
46788W        W19048  10.816  21.247   2.738
46789W        W19049  41.959  35.104   2.197
46790W        W19050  10.154   1.764  11.864
46791W        W19051  23.031  29.078  11.870
46792W        W19052  18.688  25.984   1.697
46793W        W19053   4.763  33.952  11.432
46794W        W19054   8.823  16.695   1.292
46795W        W19055  18.081  14.165  14.333
46796W        W19056  14.592  16.611   0.909
46797W        W19057   7.689  25.692  11.862
46798W        W19058  17.122   2.880   0.917
46799W        W19059   5.774  41.382   0.452
46800W        W19060   1.260   5.854  13.475
46801W        W19061  32.539  20.526  14.767
46802W        W19062  12.853  39.548   2.351
46803W        W19063  35.369  40.812  13.955
46804W        W19064  20.189   7.248   2.295
46805W        W19065   0.856   5.803   3.271
46806W        W19066  33.878   9.241   1.416
46807W        W19067  34.899  37.997   0.841
46808W        W19068  44.859  17.570  14.409
46809W        W19069  34.088   0.337   3.156
46810W        W19070  41.500  23.551  13.018
46811W        W19071  31.535   2.768  10.434
46812W        W19072  44.994  16.241  10.555
46813W        W19073   9.807   2.275   2.208
46814W        W19074  44.465  39.933   3.211
46815W        W19075   6.256  35.899  12.384
46816W        W19076  18.709   6.791  14.847
46817W        W19077  39.445  20.163  13.018
46818W        W19078  16.602  25.043  10.968
46819W        W19079  42.414  16.652  14.945
46820W        W19080  39.370   8.878  10.489
46821W        W19081   9.886  21.022   3.240
46822W        W19082  14.788  33.102   2.683
46823W        W19083   5.907   6.299  14.353
46824W        W19084  42.396  13.145   2.888
46825W        W19085  28.479  20.115  11.062
46826W        W19086  28.515  20.559   0.470
46827W        W19087  16.238  42.890  14.870
46828W        W19088  25.074   4.745  13.511
46829W        W19089  13.813  22.180  12.077
46830W        W19090  13.181  39.560  13.314
46831W        W19091   4.701  37.480   0.480
46832W        W19092  34.902  12.124  11.880
46833W        W19093  30.962   0.452  13.907
46834W        W19094  29.982  18.782   0.472
46835W        W19095  19.737  13.760   2.400
46836W        W19096  10.383  33.517   0.833
46837W        W19097  31.042  30.528   3.270
46838W        W19098  34.019  36.064   1.259
46839W        W19099  39.508  31.998  14.465
46840W        W19100  23.713  40.885   1.770
46841W        W19101   6.742  27.994   3.321
46842W        W19102  41.979  15.662   1.931
46843W        W19103   9.228  27.573  13.380
46844W        W19104  15.718  39.438  12.051
46845W        W19105  24.690  35.904   2.743
46846W        W19106  27.190  17.069  11.979
46847W        W19107  22.733   6.807  11.961
46848W        W19108   5.843  34.402  13.024
46849W        W19109  28.078   5.910   1.933
46850W        W19110  17.284  29.522  14.341
46851W        W19111  39.906  38.982  10.439
46852W        W19112   9.185   1.352  12.524
46853W        W19113  35.027  31.967  13.464
46854W        W19114   0.442  19.549   2.679
46855W        W19115  30.590  26.090  11.029
46856W        W19116   5.380  14.675  10.914
46857W        W19117  43.931  19.533   2.262
46858W        W19118  16.587   7.179  13.831
46859W        W19119  40.452  34.559  13.011
46860W        W19120  21.137   0.408   3.264
46861W        W19121   3.951  39.527   4.727
46862W        W19122  23.551  38.903  11.901
46863W        W19123  13.656  41.332  12.919
46864W        W19124  25.662  25.667  13.061
46865W        W19125  37.992  26.174  14.851
46866W        W19126  12.315  33.517   3.198
46867W        W19127  18.565  19.039  11.861
46868W        W19128  16.584  33.622   0.890
46869W        W19129   2.886   2.804   2.710
46870W        W19130  40.839  16.735  10.421
46871W        W19131  28.141  24.191  11.104
46872W        W19132  34.574  23.152  14.009
46873W        W19133  21.174   9.316   3.666
46874W        W19134  17.669   9.232   4.652
46875W        W19135   9.759  19.536   1.305
46876W        W19136  35.015  17.242   0.855
46877W        W19137  36.410   1.731   0.734
46878W        W19138  29.031  35.064   2.270
46879W        W19139  27.457  38.043  12.560
46880W        W19140   2.872  39.823  12.551
46881W        W19141   8.762   3.261  11.471
46882W        W19142  17.124  15.087   4.724
46883W        W19143  26.054   4.303   1.694
46884W        W19144  43.469  16.696  13.521
46885W        W19145   6.677  34.932  11.592
46886W        W19146  28.570  37.830   1.353
46887W        W19147  13.108  17.699  12.842
46888W        W19148  21.744  39.953  12.924
46889W        W19149  17.286  28.442  11.011
46890W        W19150  32.143  15.270   0.885
46891W        W19151  28.648  12.354   0.392
46892W        W19152   3.412  17.307   4.262
46893W        W19153  20.058  16.301   3.678
46894W        W19154   2.320  37.854   3.364
46895W        W19155  43.318   2.254  13.524
46896W        W19156   4.379   7.784  12.997
46897W        W19157  10.816  24.711  11.389
46898W        W19158  11.291  15.589   4.317
46899W        W19159  35.941  31.616   0.333
46900W        W19160  31.902  24.507  12.080
46901W        W19161  19.534  14.775   4.298
46902W        W19162  16.226  27.188   0.377
46903W        W19163  19.247  20.696  13.803
46904W        W19164   5.834  24.030  13.399
46905W        W19165   2.265  28.154  12.840
46906W        W19166   8.822   0.742   3.708
46907W        W19167  43.441   8.302   4.279
46908W        W19168  12.777  29.543   3.759
46909W        W19169  29.529  41.961  14.988
46910W        W19170  33.497  21.171   0.885
46911W        W19171  31.622  37.357  12.449
46912W        W19172  32.479  31.564   1.851
46913W        W19173  11.675  40.801  14.959
46914W        W19174  25.647  36.431  10.585
46915W        W19175  44.887   8.227   1.832
46916W        W19176  11.130  42.430   4.598
46917W        W19177  10.847  41.839   1.810
46918W        W19178  32.893   2.895   3.344
46919W        W19179   2.843  23.002   4.699
46920W        W19180   0.342  11.751  12.508
46921W        W19181  32.530  26.556   3.698
46922W        W19182  13.712   5.328  14.010
46923W        W19183   2.466  40.505   0.739
46924W        W19184  18.248  39.468   2.808
46925W        W19185   0.750   4.425  12.861
46926W        W19186  14.655  24.073   2.366
46927W        W19187  16.659  41.379  14.509
46928W        W19188   9.271  34.982   2.314
46929W        W19189   3.387  23.106  11.944
46930W        W19190   4.746  16.074   4.213
46931W        W19191   4.341  44.792   4.161
46932W        W19192  36.849   8.772   4.288
46933W        W19193   3.395  44.855   0.941
46934W        W19194  15.138  21.244   4.799
46935W        W19195  11.192  35.379  11.971
46936W        W19196  20.173  31.450   3.716
46937W        W19197   6.834  17.130  10.608
46938W        W19198  11.854   3.280   3.365
46939W        W19199  17.739  11.178   4.203
46940W        W19200  24.222   9.199   0.386
46941W        W19201   4.734   6.250  13.986
46942W        W19202  15.782   3.359  13.881
46943W        W19203  14.334  35.559  11.987
46944W        W19204   2.922   3.435   0.886
46945W        W19205  12.354  21.657  13.878
46946W        W19206  29.594  38.420   3.788
46947W        W19207  22.099  16.684   1.914
46948W        W19208  25.567  25.143   2.390
46949W        W19209  37.942   4.355  14.483
46950W        W19210  39.890  19.246   3.264
46951W        W19211  29.616   4.912   0.898
46952W        W19212   3.853   6.863  11.905
46953W        W19213  33.904  23.679   0.249
46954W        W19214  18.716  42.949  11.055
46955W        W19215  21.255  22.117   1.399
46956W        W19216  24.655  40.888   2.763
46957W        W19217  13.251  31.096   9.549
46958W        W19218   3.441   3.425   4.660
46959W        W19219  37.884  39.531  11.535
46960W        W19220  33.977  37.918   4.320
46961W        W19221  14.130  43.861  11.997
46962W        W19222  11.295   0.846   1.212
46963W        W19223  23.151  11.186  12.485
46964W        W19224  11.281  28.931   3.239
46965W        W19225  39.852  37.965  13.062
46966W        W19226  35.084   5.416   0.412
46967W        W19227  33.892  17.073  11.992
46968W        W19228  39.421  31.012   2.183
46969W        W19229  44.884  19.581  10.967
46970W        W19230  18.567  25.011   1.893
46971W        W19231   6.275  22.218  11.476
46972W        W19232  22.114  23.203   3.166
46973W        W19233  17.802  29.994   2.376
46974W        W19234  21.072   4.727  10.644
46975W        W19235   8.378  31.994  14.430
46976W        W19236  37.488  30.513   0.318
46977W        W19237   8.291  41.923   0.279
46978W        W19238  36.567  22.625  11.578
46979W        W19239  16.761   7.323   5.651
46980W        W19240  18.161   5.193  11.387
46981W        W19241  22.179  43.484  13.916
46982W        W19242  34.609  39.860   0.907
46983W        W19243  16.276  22.524  13.527
46984W        W19244   3.794  24.544   2.790
46985W        W19245   7.797  28.509  11.551
46986W        W19246  15.096  17.703  12.966
46987W        W19247   4.932   7.372   3.772
46988W        W19248   6.426  38.427   0.322
46989W        W19249  24.602   5.708   1.790
46990W        W19250  36.578  12.340  12.837
46991W        W19251   2.766  11.681  12.376
46992W        W19252   7.854  23.497   3.691
46993W        W19253  11.700  36.459  12.844
46994W        W19254   6.820   7.283  11.067
46995W        W19255  26.647  13.673   1.780
46996W        W19256   5.757  30.653   1.451
46997W        W19257  44.427   9.377   2.698
46998W        W19258  34.101  13.805   2.305
46999W        W19259  37.568   4.764  13.019
47000W        W19260  40.993  12.122  14.952
47001W        W19261   3.824  38.400   0.360
47002W        W19262  24.718  20.662  11.904
47003W        W19263   7.685  30.001   3.670
47004W        W19264  23.625  19.102  13.955
47005W        W19265  23.562   3.431   1.302
47006W        W19266  44.793  38.386  13.480
47007W        W19267  37.493  37.910   0.863
47008W        W19268  23.559  25.657  10.609
47009W        W19269  34.515  17.746   2.850
47010W        W19270  27.510  36.999  10.615
47011W        W19271  42.386   7.728   2.393
47012W        W19272  13.267  10.265  13.414
47013W        W19273   6.884   6.794  12.001
47014W        W19274   2.762  37.535  14.768
47015W        W19275  25.010  38.970   4.781
47016W        W19276  18.689  20.602  10.469
47017W        W19277  24.587  39.989   3.814
47018W        W19278  35.924  18.708  14.031
47019W        W19279   7.726  29.516  14.388
47020W        W19280  22.166  42.976   3.291
47021W        W19281  29.552  44.981  13.456
47022W        W19282  19.593   6.208  10.607
47023W        W19283  40.988  28.930  12.058
47024W        W19284  10.349  36.564  12.550
47025W        W19285  24.712  38.481   1.328
47026W        W19286   3.797  10.159   3.206
47027W        W19287   0.830  40.021  14.398
47028W        W19288  26.163  38.329   3.743
47029W        W19289  21.147  34.402   1.424
47030W        W19290  34.565  27.535   4.796
47031W        W19291  21.155   9.799   3.221
47032W        W19292  32.107  28.088  11.509
47033W        W19293  26.137   0.948  10.552
47034W        W19294   9.279  26.050  12.979
47035W        W19295  37.370  38.866  11.486
47036W        W19296  26.130  27.464  14.007
47037W        W19297   8.280  37.449  14.288
47038W        W19298   4.940  18.733  13.890
47039W        W19299  43.883   6.403  13.889
47040W        W19300  41.031   2.392  13.455
47041W        W19301  35.361  42.495   4.748
47042W        W19302   7.231   0.367  10.599
47043W        W19303  28.124   5.739   0.830
47044W        W19304   4.211  42.950  12.875
47045W        W19305  33.575  34.894  12.958
47046W        W19306  28.982  20.150   4.716
47047W        W19307  11.267  18.699  12.394
47048W        W19308  12.640  30.537  10.586
47049W        W19309  44.793   7.238  13.030
47050W        W19310  16.107   3.236   3.197
47051W        W19311   0.279  18.274  13.053
47052W        W19312  11.671  43.951   0.907
47053W        W19313   6.859  13.826  12.824
47054W        W19314   1.788  31.472   1.226
47055W        W19315   1.779  28.456  12.533
47056W        W19316  33.524   6.362   3.634
47057W        W19317  13.320  32.506  11.472
47058W        W19318  15.658   8.838  13.943
47059W        W19319  16.790  20.109   0.799
47060W        W19320  27.077  30.119  12.026
47061W        W19321  28.033  19.273   0.745
47062W        W19322  22.246  25.987  13.348
47063W        W19323  37.354  37.909   1.824
47064W        W19324  13.764  39.314  14.881
47065W        W19325  14.300  21.096  11.537
47066W        W19326  25.636  39.437   5.222
47067W        W19327   5.886  40.916   0.903
47068W        W19328  10.831  24.591  12.980
47069W        W19329  24.533  36.351  12.394
47070W        W19330  20.128  39.482   0.282
47071W        W19331  22.182   7.205   0.747
47072W        W19332   3.953  15.750  14.372
47073W        W19333  26.466  24.714   3.862
47074W        W19334  16.268  31.091   3.257
47075W        W19335  41.890  24.058   0.838
47076W        W19336  17.670   5.333  14.918
47077W        W19337  27.605  13.733  11.539
47078W        W19338  17.702  32.131   3.740
47079W        W19339  38.533   5.217   0.421
47080W        W19340  35.367  30.647  14.931
47081W        W19341  14.739  32.944   4.207
47082W        W19342  21.592   0.927   4.811
47083W        W19343  31.617   4.228   3.785
47084W        W19344   6.903   4.878  14.301
47085W        W19345   5.925  13.788  13.942
47086W        W19346  11.240  37.522  13.521
47087W        W19347  18.182  32.041   2.258
47088W        W19348  44.414  27.034   1.846
47089W        W19349  16.658  18.052  11.452
47090W        W19350  42.363  24.705   3.855
47091W        W19351  17.211  25.994  11.963
47092W        W19352  41.911   6.801  10.931
47093W        W19353  13.771  27.637   9.921
47094W        W19354   5.352  19.756   0.803
47095W        W19355  31.011  37.549   1.375
47096W        W19356  25.681   1.337   0.885
47097W        W19357  44.913   1.431   2.752
47098W        W19358  15.610  19.156   1.427
47099W        W19359   7.854  14.220  12.077
47100W        W19360  25.586  12.677   4.295
47101W        W19361  41.483  24.177  11.863
47102W        W19362  16.805  28.960   2.204
47103W        W19363  12.130  16.701  10.950
47104W        W19364  22.245  10.166  11.876
47105W        W19365   6.389   8.855   4.608
47106W        W19366  39.491   1.418  14.948
47107W        W19367  28.659  44.876  14.407
47108W        W19368  12.118  20.536  14.365
47109W        W19369  41.855  40.966   2.246
47110W        W19370  18.716  31.120  13.939
47111W        W19371  21.051  41.899  11.028
47112W        W19372  34.447  15.730   1.229
47113W        W19373  44.886  27.518  14.031
47114W        W19374  24.712  30.474   0.397
47115W        W19375  21.756  37.078  14.284
47116W        W19376   8.795  14.632  14.015
47117W        W19377   2.766  28.038   0.738
47118W        W19378  22.568  40.463   0.332
47119W        W19379  36.082   7.211   1.305
47120W        W19380  16.610  36.514   4.190
47121W        W19381  40.909  14.247   1.281
47122W        W19382  29.987  10.633   2.283
47123W        W19383  14.673  12.344  12.860
47124W        W19384  23.179  21.128  11.395
47125W        W19385  34.951  20.037  13.359
47126W        W19386  37.389  19.091   0.935
47127W        W19387   4.904  20.664   0.335
47128W        W19388  15.191  38.946   4.237
47129W        W19389  34.531  14.266  14.958
47130W        W19390  19.264  39.816  11.378
47131W        W19391  33.074   1.911  14.407
47132W        W19392   6.239  25.513  12.533
47133W        W19393   4.268  38.565   2.272
47134W        W19394  17.632  11.661  14.293
47135W        W19395  27.098  22.101   2.879
47136W        W19396  34.959   1.962   3.859
47137W        W19397   0.779  41.334  13.521
47138W        W19398  28.498   6.422  12.490
47139W        W19399  27.055  26.475  11.428
47140W        W19400  26.058  35.876  14.956
47141W        W19401   4.898  29.932   4.782
47142W        W19402   2.405  32.468  14.032
47143W        W19403  28.591  19.683  11.590
47144W        W19404  22.170  32.555  14.374
47145W        W19405   9.676  26.673   1.783
47146W        W19406  21.220  15.085   1.766
47147W        W19407  14.103   7.738   2.883
47148W        W19408   8.785  31.917   3.831
47149W        W19409  13.220   6.203  14.466
47150W        W19410  36.993  28.092   0.735
47151W        W19411  37.412  43.921  11.385
47152W        W19412  23.196  14.633  10.889
47153W        W19413  21.173   3.389  11.395
47154W        W19414   8.361   3.413   0.357
47155W        W19415  24.005   7.217  10.603
47156W        W19416  28.177   4.308  12.494
47157W        W19417  36.536  26.687  13.413
47158W        W19418   4.312  35.014   2.877
47159W        W19419  25.633  40.998  13.407
47160W        W19420  18.780  25.190   0.389
47161W        W19421  28.593   1.443  11.566
47162W        W19422  44.917   8.352  13.496
47163W        W19423  41.791  26.199   0.337
47164W        W19424  40.501  35.422  14.926
47165W        W19425  44.889   4.799  11.552
47166W        W19426  35.522  17.719   2.795
47167W        W19427  27.978   9.238  13.039
47168W        W19428  37.357  31.505  11.958
47169W        W19429  42.327  44.486  13.468
47170W        W19430  40.049  44.990   4.797
47171W        W19431  39.327  11.305   1.796
47172W        W19432  17.682   9.738   0.825
47173W        W19433   0.768  35.592   0.764
47174W        W19434  26.505  16.312   3.691
47175W        W19435  17.271  36.065   2.848
47176W        W19436  24.005  36.462  13.444
47177W        W19437  18.628   4.921  11.071
47178W        W19438   2.773   3.775  14.927
47179W        W19439   2.839  38.529  13.920
47180W        W19440  40.311  21.751  13.025
47181W        W19441  20.682   0.938   2.667
47182W        W19442  35.488   7.777   4.295
47183W        W19443   7.821  23.134  11.409
47184W        W19444  20.140  42.490  11.054
47185W        W19445  11.326  20.735   1.760
47186W        W19446  17.567   2.247  11.948
47187W        W19447  28.581  38.996   0.408
47188W        W19448  43.345  34.097  14.498
47189W        W19449  25.560  42.525  14.475
47190W        W19450  21.595  22.713  11.432
47191W        W19451   8.762   5.724  10.917
47192W        W19452  33.925  31.512   2.236
47193W        W19453  24.693  37.864   2.399
47194W        W19454   8.679  32.507   1.325
47195W        W19455  20.586  21.237   1.444
47196W        W19456  11.820  23.230   2.790
47197W        W19457   8.697   2.258   0.425
47198W        W19458  39.423   6.791   0.843
47199W        W19459  42.012   3.805  11.861
47200W        W19460  18.686  21.249   0.463
47201W        W19461  44.856  21.100   1.431
47202W        W19462  32.622  20.254  12.503
47203W        W19463  24.055   2.399  12.922
47204W        W19464  33.494   0.337   4.282
47205W        W19465  39.367   0.934  11.108
47206W        W19466  13.627  18.281  14.824
47207W        W19467  20.110  26.082  11.567
47208W        W19468  30.969  34.468  10.432
47209W        W19469   8.685  32.012  12.094
47210W        W19470  24.010   5.805   2.360
47211W        W19471  14.712   4.330   1.816
47212W        W19472  21.553  14.639  10.990
47213W        W19473  42.396  31.127   2.703
47214W        W19474  26.491  29.652   3.655
47215W        W19475  40.334  21.031   5.111
47216W        W19476  15.172  20.122  14.030
47217W        W19477  40.350  30.478  13.416
47218W        W19478   3.940  34.096  11.089
47219W        W19479  15.219  39.443   2.714
47220W        W19480  14.236  16.226   5.165
47221W        W19481  42.508  39.822   2.409
47222W        W19482   7.264  18.140  11.998
47223W        W19483  43.885   0.452  10.927
47224W        W19484  14.287  39.978  10.502
47225W        W19485   6.896  19.699  10.482
47226W        W19486  32.044  25.474  11.444
47227W        W19487  42.476  16.162   3.709
47228W        W19488  34.896  10.744  13.470
47229W        W19489  38.865   4.381  12.866
47230W        W19490  31.463  18.731  13.892
47231W        W19491   0.778  39.451   3.239
47232W        W19492  25.138  23.240   0.787
47233W        W19493  43.345  31.602   4.756
47234W        W19494  31.903  21.641   0.961
47235W        W19495  11.193   7.280   4.254
47236W        W19496  38.401  37.370  11.044
47237W        W19497  38.941   7.242   0.805
47238W        W19498  22.729  23.996  13.882
47239W        W19499   5.304  33.110   0.367
47240W        W19500  39.496  30.016   1.343
47241W        W19501  15.638   8.778  11.413
47242W        W19502  44.854  42.942  12.573
47243W        W19503  19.548  43.909  10.580
47244W        W19504  39.909  44.321   1.901
47245W        W19505   7.796   1.374  10.592
47246W        W19506  13.661   9.152  12.067
47247W        W19507   3.918  25.052  11.603
47248W        W19508   1.481  29.030  10.636
47249W        W19509  26.665  24.506   4.747
47250W        W19510   1.402  14.652  10.595
47251W        W19511   9.780  39.987   4.214
47252W        W19512  28.109  36.073   3.267
47253W        W19513   6.303   7.410   0.321
47254W        W19514  35.546  14.727  14.018
47255W        W19515  44.769  11.740  13.534
47256W        W19516  42.825  38.925   4.695
47257W        W19517   9.724  29.064  14.899
47258W        W19518  16.599   4.419   1.405
47259W        W19519   0.921   0.338   4.796
47260W        W19520  31.081  29.585  12.917
47261W        W19521  40.420  23.035  11.993
47262W        W19522  29.143  25.669  13.030
47263W        W19523  12.670   6.214  13.385
47264W        W19524  13.118  33.459   4.812
47265W        W19525  18.119  10.742  11.560
47266W        W19526  38.455  31.994   4.808
47267W        W19527  24.715   3.281  14.376
47268W        W19528   3.429  38.473   0.799
47269W        W19529  28.959  42.882  14.462
47270W        W19530  39.322  13.274   4.118
47271W        W19531  32.982  15.206  13.386
47272W        W19532  32.011  19.270   0.903
47273W        W19533  29.518   3.236  14.414
47274W        W19534  14.713  18.285  13.376
47275W        W19535  23.009  13.307   0.427
47276W        W19536  24.081  38.905   9.938
47277W        W19537  29.063  17.631   3.812
47278W        W19538  15.814  16.653  12.905
47279W        W19539  42.395  30.153  14.925
47280W        W19540  24.224  38.406   0.255
47281W        W19541   9.696  25.210   1.420
47282W        W19542   5.386  14.201   4.312
47283W        W19543  12.687   0.778   1.711
47284W        W19544  18.595  30.942  14.760
47285W        W19545  43.860  12.350  10.404
47286W        W19546  42.333  23.001   3.172
47287W        W19547  30.460   0.915   1.839
47288W        W19548  27.463   5.439  14.479
47289W        W19549   4.806  28.611  13.314
47290W        W19550  39.389  40.452  14.003
47291W        W19551  32.514  31.588  12.405
47292W        W19552  30.622  13.205   4.183
47293W        W19553   4.245   9.689   2.897
47294W        W19554  23.680  39.042   4.160
47295W        W19555  14.177  35.050  10.915
47296W        W19556  23.616  27.613  12.572
47297W        W19557  19.639  10.231   4.645
47298W        W19558  23.010  39.341   2.369
47299W        W19559  27.612   9.190   4.339
47300W        W19560  12.196   4.337  13.472
47301W        W19561   8.388   2.429   2.246
47302W        W19562   6.741  22.076  13.506
47303W        W19563  37.841  37.370  12.918
47304W        W19564  16.079  39.390   1.287
47305W        W19565  10.812  41.364  13.848
47306W        W19566  19.537  31.082   3.332
47307W        W19567  14.639   2.919   4.225
47308W        W19568  10.741   7.334   1.233
47309W        W19569  44.353  15.603   0.904
47310W        W19570  25.001  43.331   3.367
47311W        W19571   4.414  30.993  13.354
47312W        W19572   6.390  30.488   2.846
47313W        W19573  44.893  13.709  10.427
47314W        W19574  12.741  39.357   1.889
47315W        W19575   2.858  40.387  11.862
47316W        W19576   7.416  40.987  10.443
47317W        W19577  40.390  41.315  11.416
47318W        W19578  20.718  34.457   0.391
47319W        W19579  23.106  41.297   0.247
47320W        W19580  12.203  42.299   3.640
47321W        W19581  34.433  25.007   4.718
47322W        W19582   4.816  20.117   4.647
47323W        W19583  19.771  16.116   1.770
47324W        W19584  20.210  32.492   4.299
47325W        W19585   4.895   4.426  10.453
47326W        W19586  25.218  22.171   2.798
47327W        W19587  39.027  33.113  11.599
47328W        W19588  24.041   6.390   4.686
47329W        W19589  18.219  10.796   2.336
47330W        W19590  39.823  28.165   2.842
47331W        W19591  39.472  34.040  14.964
47332W        W19592   3.823  30.461   4.634
47333W        W19593  24.587  44.896   1.293
47334W        W19594  10.267   2.769  13.005
47335W        W19595  40.354   0.974   0.324
47336W        W19596  25.630  19.047  14.846
47337W        W19597  23.654  27.046  14.449
47338W        W19598  22.647  44.387  10.907
47339W        W19599  13.603   4.364  12.354
47340W        W19600  18.079  14.105   4.725
47341W        W19601   3.382   6.202  11.371
47342W        W19602  42.869  15.253   3.667
47343W        W19603  28.619  43.357  12.017
47344W        W19604  34.878  41.407   2.346
47345W        W19605  32.091  43.450   2.793
47346W        W19606  23.012  38.479  11.490
47347W        W19607  35.909   5.846  12.877
47348W        W19608  27.591  12.613   4.167
47349W        W19609  29.550  14.795   0.828
47350W        W19610  28.597   7.338   4.804
47351W        W19611   0.979   6.366   3.333
47352W        W19612  16.649   3.393   0.902
47353W        W19613  40.416   3.377  12.382
47354W        W19614  19.190   6.782   2.185
47355W        W19615  43.991   4.778   0.275
47356W        W19616  32.586  26.512   4.315
47357W        W19617  40.339  25.021   4.830
47358W        W19618   1.332  22.040  12.928
47359W        W19619  36.356   7.908   2.331
47360W        W19620   4.755   2.281   2.786
47361W        W19621  15.780  14.324   9.995
47362W        W19622  37.549  28.557  12.848
47363W        W19623  16.663  13.176   1.224
47364W        W19624  36.576  34.968  14.499
47365W        W19625  15.252  20.110   4.836
47366W        W19626  13.283  10.196   3.680
47367W        W19627  35.058   8.163  14.502
47368W        W19628  43.857  44.470   3.323
47369W        W19629  30.442   6.866  11.408
47370W        W19630  35.855  19.284   2.377
47371W        W19631  20.681   5.297  14.326
47372W        W19632  14.734  16.711  10.407
47373W        W19633   7.403  13.700   2.333
47374W        W19634  12.676   0.397  10.588
47375W        W19635   4.380  26.001   1.823
47376W        W19636  38.346   6.848  10.544
47377W        W19637  31.565   2.277  13.035
47378W        W19638   5.419  18.144   4.732
47379W        W19639  26.684  19.279   3.243
47380W        W19640  26.190  25.616   3.356
47381W        W19641  18.088   1.483   0.934
47382W        W19642  23.577  41.021  11.464
47383W        W19643  20.697  35.906  12.926
47384W        W19644  31.456  21.580   1.301
47385W        W19645   8.850  14.630  10.901
47386W        W19646  40.520  41.871  11.546
47387W        W19647  30.496  24.082  14.480
47388W        W19648  29.086  10.299  10.419
47389W        W19649  40.855  35.552   0.946
47390W        W19650   7.196  18.098  12.850
47391W        W19651   0.929  26.162   0.874
47392W        W19652  32.067  38.938   1.359
47393W        W19653  40.910  27.689   3.746
47394W        W19654  17.066  33.936   2.817
47395W        W19655  12.743  30.083   5.203
47396W        W19656   4.906   8.765  11.962
47397W        W19657   9.300  23.222  13.315
47398W        W19658  29.068  28.532   1.784
47399W        W19659  17.741  42.937   2.267
47400W        W19660   6.694  26.129   4.235
47401W        W19661  44.427   0.333   3.781
47402W        W19662  17.585   4.743   4.623
47403W        W19663  20.665  31.582   3.336
47404W        W19664  40.799  37.552  11.933
47405W        W19665  24.123   3.309  14.991
47406W        W19666   9.777  31.007  12.990
47407W        W19667  30.927  40.546  14.291
47408W        W19668  35.591  23.727   0.366
47409W        W19669  29.476   5.905  10.990
47410W        W19670  32.509   3.732   3.787
47411W        W19671   6.707  44.419   4.793
47412W        W19672  41.418  26.578   0.308
47413W        W19673  29.110   2.436   2.680
47414W        W19674  28.610   1.957  12.347
47415W        W19675  32.984  13.731   1.843
47416W        W19676  25.592  37.052   4.315
47417W        W19677  27.619  13.773  13.953
47418W        W19678  11.130  21.089   0.372
47419W        W19679  25.475  13.251   3.660
47420W        W19680  28.947   6.866  14.367
47421W        W19681  44.982  18.053   0.445
47422W        W19682  44.327  32.477  10.888
47423W        W19683  15.096  25.058   1.314
47424W        W19684  19.679   0.311   1.317
47425W        W19685  30.477  42.923   4.776
47426W        W19686  21.094  33.476  13.873
47427W        W19687  36.507  30.445   2.376
47428W        W19688  40.329  32.012  10.045
47429W        W19689  35.064  36.495  13.841
47430W        W19690  14.279  10.805  12.068
47431W        W19691  41.408  30.999  11.081
47432W        W19692  36.060  41.990   2.711
47433W        W19693  18.710   6.311   0.256
47434W        W19694   6.737  41.950   3.868
47435W        W19695  24.059  30.142  12.547
47436W        W19696  21.207   9.648   2.288
47437W        W19697  31.415  31.479  10.544
47438W        W19698   0.432  39.401  10.480
47439W        W19699  39.844  20.595  14.005
47440W        W19700  10.186  33.443   2.214
47441W        W19701  37.049  41.804  14.465
47442W        W19702  39.052   7.363  14.354
47443W        W19703  19.600   7.192   1.323
47444W        W19704  39.402  41.015  13.528
47445W        W19705  37.064  21.158  14.915
47446W        W19706  34.033  29.017   2.677
47447W        W19707   2.901  32.428  13.408
47448W        W19708  41.962  35.487   1.839
47449W        W19709  34.065   0.265  11.539
47450W        W19710  18.753  16.233   3.724
47451W        W19711  10.235   9.245  11.054
47452W        W19712  43.829   3.874  12.011
47453W        W19713  18.682   4.713   4.621
47454W        W19714  18.695  42.314   0.383
47455W        W19715   4.772  42.031   0.274
47456W        W19716   0.377  17.303   2.891
47457W        W19717   2.252  23.109   2.265
47458W        W19718  22.545  26.174  12.977
47459W        W19719   9.889  29.596  14.792
47460W        W19720  19.227  16.195  14.798
47461W        W19721   8.713  18.128  14.988
47462W        W19722  27.138  41.818   4.121
47463W        W19723  20.206  17.091  14.465
47464W        W19724  23.627  20.759  13.508
47465W        W19725  34.579  44.358   1.410
47466W        W19726  33.398  33.989  12.379
47467W        W19727  44.424   7.816   0.946
47468W        W19728  20.108  42.419  11.528
47469W        W19729  18.110  31.954  12.948
47470W        W19730   6.221   7.758  14.893
47471W        W19731  33.405  29.151  12.907
47472W        W19732   9.724  12.271   3.215
47473W        W19733  41.420  32.943   1.410
47474W        W19734   6.313  12.307   3.256
47475W        W19735  12.273  38.056  13.390
47476W        W19736  23.581  13.818  12.525
47477W        W19737  21.707  25.059  13.827
47478W        W19738  29.433  21.062  14.294
47479W        W19739  10.275  42.973   2.822
47480W        W19740  28.972  38.439   0.809
47481W        W19741   2.227  35.583   4.750
47482W        W19742   1.454  37.861   0.821
47483W        W19743   1.270  44.502  11.910
47484W        W19744  40.543  19.569  12.539
47485W        W19745  18.780  36.401  11.496
47486W        W19746   3.875   8.169  14.397
47487W        W19747  32.966   1.429   4.135
47488W        W19748  31.917  27.626   2.412
47489W        W19749  23.620  19.072   4.676
47490W        W19750  29.995   6.791   3.853
47491W        W19751  21.731  43.379  13.453
47492W        W19752  21.518  40.888  10.631
47493W        W19753  35.468  34.906  11.516
47494W        W19754  29.986  25.116   0.967
47495W        W19755  26.079  24.091   2.219
47496W        W19756  37.956  16.656  10.585
47497W        W19757  25.616  43.440   4.629
47498W        W19758   7.724   1.242  14.965
47499W        W19759  33.601   7.413  10.959
47500W        W19760  18.283   3.803  10.598
47501W        W19761  40.468  29.983   0.791
47502W        W19762  41.030  31.080  12.510
47503W        W19763  30.072  23.987  10.904
47504W        W19764  16.175  38.014   1.438
47505W        W19765  39.493  29.029   4.603
47506W        W19766  40.498  15.757  14.466
47507W        W19767  12.627  21.193  11.096
47508W        W19768  38.898  38.381   2.219
47509W        W19769   6.753   0.829   4.352
47510W        W19770  38.389   1.343  11.393
47511W        W19771   2.839  18.296  14.306
47512W        W19772  15.781  22.668  11.612
47513W        W19773  34.404  12.335  10.580
47514W        W19774  39.003  39.529  12.393
47515W        W19775  35.078  27.955   1.388
47516W        W19776  11.249  22.076   1.718
47517W        W19777  42.883  22.116  14.929
47518W        W19778  14.797  26.572  12.339
47519W        W19779  21.722   8.233   1.801
47520W        W19780  40.516   7.406  14.290
47521W        W19781  23.512   8.180   0.249
47522W        W19782   2.952  15.817   2.224
47523W        W19783   0.854   2.398   3.819
47524W        W19784  15.649  34.007   3.187
47525W        W19785   4.373  42.373   2.703
47526W        W19786  23.718  32.983   4.696
47527W        W19787  19.130  13.628   2.194
47528W        W19788  26.085  39.851  13.884
47529W        W19789  40.022  19.255  13.342
47530W        W19790   9.263  28.461   0.310
47531W        W19791  25.187  37.530   0.348
47532W        W19792  38.951  30.435  10.619
47533W        W19793   5.841   9.716   1.232
47534W        W19794  31.474  18.616  11.118
47535W        W19795  37.545  40.027  13.979
47536W        W19796  44.928  17.605  12.394
47537W        W19797  10.761  11.627  14.490
47538W        W19798   9.352  33.608  14.912
47539W        W19799   1.808  14.234  13.510
47540W        W19800  25.142  15.629  14.375
47541W        W19801   2.807  22.600  13.970
47542W        W19802  11.844  25.121  13.971
47543W        W19803  29.641   6.382   0.440
47544W        W19804  12.781   1.329   1.270
47545W        W19805  20.190  44.853  12.466
47546W        W19806   7.816   0.322   2.882
47547W        W19807  11.685  26.493  13.398
47548W        W19808  30.580  18.566   1.265
47549W        W19809   4.376  20.681   4.656
47550W        W19810  10.202  26.107  12.977
47551W        W19811  29.116  14.662   0.387
47552W        W19812  37.494  44.473   5.283
47553W        W19813  26.700  34.012   2.765
47554W        W19814   2.383  29.143   3.224
47555W        W19815  14.774   5.377   0.339
47556W        W19816   7.254   2.396   0.840
47557W        W19817  16.159  13.135  10.942
47558W        W19818  35.369  10.200   1.865
47559W        W19819  28.144   3.868   0.482
47560W        W19820  29.924  34.443   2.312
47561W        W19821  30.544  22.008  14.831
47562W        W19822  24.228  23.704   0.424
47563W        W19823  15.100  43.381   1.786
47564W        W19824   8.241  10.681   1.760
47565W        W19825  36.348  11.679  10.925
47566W        W19826   3.272  29.525   2.757
47567W        W19827   1.416   5.866  12.838
47568W        W19828  33.899  19.671  10.044
47569W        W19829   0.270  42.475   0.459
47570W        W19830  28.001  15.823  14.941
47571W        W19831  31.081  35.922   3.174
47572W        W19832   0.303  25.033   3.685
47573W        W19833  30.452  31.613  13.950
47574W        W19834  42.406  16.650  13.315
47575W        W19835  11.629   8.699   3.172
47576W        W19836  33.412  20.628   1.416
47577W        W19837  32.015  18.158   0.260
47578W        W19838   4.941  13.268  10.507
47579W        W19839  30.563  19.694  10.985
47580W        W19840  26.686  24.679  12.392
47581W        W19841  24.548  40.546   1.927
47582W        W19842  14.281  25.704  14.300
47583W        W19843  19.277  38.480   2.345
47584W        W19844   2.226  34.867  12.833
47585W        W19845   8.369  40.529   1.232
47586W        W19846  43.898  29.123  11.946
47587W        W19847  28.598  41.317   3.328
47588W        W19848  28.055   3.248  14.937
47589W        W19849  15.791  29.920  13.853
47590W        W19850   3.447  15.270  13.956
47591W        W19851   8.671  10.243   3.814
47592W        W19852  35.055  17.655   9.623
47593W        W19853   2.937  35.015   4.615
47594W        W19854  16.574  37.560   0.923
47595W        W19855  14.632   7.713  10.637
47596W        W19856  33.454  38.450  11.086
47597W        W19857  38.330  27.510   3.748
47598W        W19858   5.352  30.055   3.630
47599W        W19859  21.173  21.638   3.300
47600W        W19860  12.140  43.858   0.921
47601W        W19861  41.534  13.323   1.846
47602W        W19862   5.377  28.992  14.465
47603W        W19863  33.411  18.649  13.916
47604W        W19864  30.081  44.307   3.384
47605W        W19865  13.826  24.644   3.813
47606W        W19866  15.740  30.032  10.940
47607W        W19867  24.156  17.724  14.781
47608W        W19868  33.532  40.522   3.333
47609W        W19869  31.145   5.746   2.234
47610W        W19870  16.220  11.747  11.396
47611W        W19871   7.790  38.571  11.549
47612W        W19872  32.600  22.666   0.778
47613W        W19873   0.766  25.628   4.602
47614W        W19874  36.046  19.634  10.406
47615W        W19875   3.913   9.886   1.328
47616W        W19876  10.337   8.271   4.629
47617W        W19877   5.408  15.688  11.987
47618W        W19878  11.630  42.515   1.701
47619W        W19879  10.138  24.076  10.443
47620W        W19880  14.117  21.249  10.130
47621W        W19881   0.336  35.558  11.977
47622W        W19882  25.146  32.620   4.832
47623W        W19883  36.544  21.190  12.856
47624W        W19884  37.843   6.853  12.913
47625W        W19885  18.765  18.243   4.597
47626W        W19886  42.937  10.169  12.860
47627W        W19887  33.058  25.505   2.418
47628W        W19888   4.384  37.841  13.810
47629W        W19889  41.978  32.636  10.468
47630W        W19890  10.315  14.175   2.867
47631W        W19891  43.837  14.649   2.299
47632W        W19892   7.281  14.695  14.834
47633W        W19893  39.980  20.598   1.877
47634W        W19894  11.670  13.129  14.365
47635W        W19895   8.848  13.644   0.741
47636W        W19896  14.729   7.185  14.769
47637W        W19897   5.247  44.428  14.346
47638W        W19898  24.697  26.466  11.440
47639W        W19899  38.959  37.372   1.394
47640W        W19900  28.006  11.821  11.441
47641W        W19901  13.147  42.442  11.963
47642W        W19902  15.721  40.903  13.025
47643W        W19903   7.691  11.744  13.490
47644W        W19904   1.384  38.065   4.326
47645W        W19905  31.594  26.188   1.430
47646W        W19906  35.557  36.891  10.560
47647W        W19907   9.764  44.455  11.411
47648W        W19908   9.805  18.222   2.396
47649W        W19909  25.182  36.889   2.734
47650W        W19910  18.585   8.859   5.694
47651W        W19911  23.208  10.848  11.372
47652W        W19912  16.303  32.571  14.341
47653W        W19913  14.129  34.051  12.380
47654W        W19914  38.981  38.493  11.484
47655W        W19915  18.695  25.518   0.843
47656W        W19916  18.616  42.824  14.941
47657W        W19917  34.610  13.222  13.348
47658W        W19918  43.442  36.577  14.977
47659W        W19919  42.342  12.257  13.979
47660W        W19920   9.162  15.166   4.346
47661W        W19921  29.058  22.523   4.247
47662W        W19922   3.934  30.948  10.597
47663W        W19923  38.948   2.274  11.438
47664W        W19924  42.835  10.229   1.210
47665W        W19925   4.856  22.582   0.253
47666W        W19926  10.180  25.028   1.874
47667W        W19927  13.304  24.565   2.350
47668W        W19928  37.947   4.857   3.338
47669W        W19929  42.404  34.581  14.900
47670W        W19930  24.051  37.031  12.037
47671W        W19931  40.375  26.693  12.937
47672W        W19932  29.931   6.816  11.979
47673W        W19933   8.801  23.028  11.050
47674W        W19934  35.924   6.906   3.806
47675W        W19935  12.656  11.350   0.416
47676W        W19936  24.226  12.751  11.014
47677W        W19937  29.060  21.740   3.816
47678W        W19938  39.457  24.214  14.457
47679W        W19939  11.856  25.505  13.054
47680W        W19940  43.296  36.436  13.021
47681W        W19941  23.558  27.129  10.942
47682W        W19942  28.461  12.826  11.401
47683W        W19943  31.114  15.707  13.541
47684W        W19944   4.217   8.714  10.607
47685W        W19945  17.278  30.461   2.273
47686W        W19946  41.966  42.905  10.898
47687W        W19947  15.301  17.601   3.249
47688W        W19948  32.082  21.598   0.401
47689W        W19949  29.556  23.131  14.837
47690W        W19950  14.779  16.603  11.379
47691W        W19951  25.167  44.384  14.340
47692W        W19952   8.728  25.987  11.569
47693W        W19953  42.303  30.517  13.332
47694W        W19954  35.092  11.194  10.631
47695W        W19955  13.621  33.018   0.930
47696W        W19956  39.421  19.131   3.857
47697W        W19957  32.046  24.604   0.927
47698W        W19958  36.438  25.176   5.196
47699W        W19959   9.755  26.534   4.288
47700W        W19960   9.199  32.891  11.571
47701W        W19961   1.252  39.851   2.690
47702W        W19962   7.827  15.637   1.337
47703W        W19963  40.548  37.998  12.951
47704W        W19964  10.356  22.105   3.683
47705W        W19965  33.537   9.338   3.344
47706W        W19966  34.055  29.561   4.172
47707W        W19967  15.751   7.409  13.836
47708W        W19968  29.521  22.118  12.892
47709W        W19969  14.180  43.941  13.358
47710W        W19970   7.189  16.773   2.329
47711W        W19971  28.935   8.813  11.966
47712W        W19972  39.357  36.587   0.305
47713W        W19973  12.202   8.855  11.911
47714W        W19974  21.037  12.772   5.261
47715W        W19975  19.049  32.474   1.802
47716W        W19976  18.784  43.445  10.584
47717W        W19977  23.005  25.661  11.017
47718W        W19978  13.739   0.417   4.135
47719W        W19979  28.665  27.496  10.548
47720W        W19980  11.189   2.734   2.367
47721W        W19981  16.706  26.094   1.288
47722W        W19982  23.515  14.833   0.282
47723W        W19983  21.693  12.228   4.786
47724W        W19984  37.839  18.731   2.748
47725W        W19985  34.059  42.854  11.980
47726W        W19986  41.328  31.484   4.781
47727W        W19987   1.833  13.121  14.304
47728W        W19988  23.073   5.843   1.325
47729W        W19989  22.701  42.416   1.407
47730W        W19990  40.474  19.756   3.669
47731W        W19991  13.788   8.839   2.807
47732W        W19992  43.771  18.627  10.571
47733W        W19993  12.634   1.899   2.343
47734W        W19994  42.974  41.013  11.545
47735W        W19995  40.995  25.155  13.311
47736W        W19996  31.463  18.136   0.348
47737W        W19997  36.588   6.394  14.454
47738W        W19998  16.078   1.857   2.217
47739W        W19999  26.080  33.033   3.870
47740W        W20000  12.341  38.529  13.801
47741W        W20001   8.754  18.085   2.802
47742W        W20002  26.568  26.598   2.386
47743W        W20003  29.656  25.201   5.209
47744W        W20004  13.165   7.194   3.159
47745W        W20005   4.424  38.370   4.752
47746W        W20006  12.331   9.676  14.440
47747W        W20007   5.241  40.457  14.794
47748W        W20008  35.377  18.100  13.403
47749W        W20009  26.622  25.586   0.259
47750W        W20010  19.742  37.387   3.743
47751W        W20011  30.911  22.127  14.760
47752W        W20012  27.988  43.765  10.449
47753W        W20013  25.125  23.111   2.239
47754W        W20014  27.618  30.142   2.288
47755W        W20015  15.192  14.250   9.631
47756W        W20016  34.006   4.304   4.237
47757W        W20017  12.658  36.388  12.025
47758W        W20018  18.167  18.671   1.303
47759W        W20019  40.849  11.241   0.446
47760W        W20020  35.370  36.017  12.056
47761W        W20021  13.792  33.455  11.868
47762W        W20022  10.787  33.117   3.281
47763W        W20023  43.963  21.109   2.847
47764W        W20024  33.544  36.842  14.462
47765W        W20025   6.199  15.594  12.956
47766W        W20026  39.402  25.515   4.352
47767W        W20027  17.253   4.727   4.734
47768W        W20028   7.185   8.169   2.182
47769W        W20029  16.755   1.409  12.388
47770W        W20030   0.323   9.678   2.414
47771W        W20031  22.606  27.132   0.290
47772W        W20032  30.601  19.157   2.859
47773W        W20033   3.246   2.961  10.967
47774W        W20034  15.821  40.835  12.355
47775W        W20035  14.753  38.048  14.912
47776W        W20036  20.240  36.357  13.429
47777W        W20037  23.164   3.919  14.830
47778W        W20038  29.109  21.633   1.214
47779W        W20039  24.491  44.925   0.252
47780W        W20040   9.250  31.619  10.535
47781W        W20041  12.220   7.335  13.357
47782W        W20042  44.791  40.032   2.793
47783W        W20043  31.135  25.188   2.833
47784W        W20044  28.165  40.799   2.882
47785W        W20045  14.825  24.549   0.356
47786W        W20046   6.341  17.633  13.369
47787W        W20047  26.600  44.449   4.334
47788W        W20048  30.608   2.862   3.266
47789W        W20049  37.436  43.433  14.765
47790W        W20050  42.522  40.394   0.331
47791W        W20051  24.657  23.499   3.170
47792W        W20052  44.835  17.301  14.965
47793W        W20053  31.955  43.783   3.190
47794W        W20054  31.538  26.102   2.244
47795W        W20055  31.623  26.026   1.838
47796W        W20056  24.058  43.415   0.866
47797W        W20057  43.776  31.596   1.410
47798W        W20058   0.353   8.222   3.823
47799W        W20059  10.143  30.074  12.083
47800W        W20060  33.978  39.822  14.884
47801W        W20061  14.737   3.272   4.691
47802W        W20062  38.531  20.228   3.311
47803W        W20063  23.699  25.547   1.282
47804W        W20064  17.079   5.226   4.671
47805W        W20065   5.261   5.771  13.926
47806W        W20066  26.479  31.418   0.899
47807W        W20067  21.551   3.863   4.813
47808W        W20068  23.095   7.812   3.287
47809W        W20069  10.323  27.096   2.347
47810W        W20070  10.193  23.539   2.291
47811W        W20071   7.796   0.453  10.989
47812W        W20072  19.560  18.176   3.783
47813W        W20073   0.252  43.467  14.991
47814W        W20074  16.628   6.872  11.568
47815W        W20075  21.205  26.474   2.401
47816W        W20076  22.226  31.932   3.234
47817W        W20077  43.489  28.442  14.997
47818W        W20078  44.849  23.716  14.365
47819W        W20079  27.495  34.895  11.023
47820W        W20080  39.958  30.911   3.148
47821W        W20081   4.321  16.239  14.955
47822W        W20082  33.409  16.277   0.865
47823W        W20083  36.866   1.341  13.519
47824W        W20084   1.465  39.821   2.307
47825W        W20085   8.278  21.620  13.793
47826W        W20086  38.533  21.079  14.426
47827W        W20087   4.788   5.296   2.846
47828W        W20088  21.260  11.766  13.457
47829W        W20089  20.670  38.850   0.842
47830W        W20090  17.557  24.082   1.748
47831W        W20091  14.687  22.066   0.810
47832W        W20092  15.322   3.913  13.061
47833W        W20093  12.326   1.805   2.336
47834W        W20094  30.034   4.788   1.877
47835W        W20095  27.066  44.321   2.352
47836W        W20096  20.632  22.018  12.866
47837W        W20097  21.638  39.844  14.504
47838W        W20098  29.622  30.057  13.834
47839W        W20099   0.769  30.051   3.320
47840W        W20100  22.156   7.189  12.932
47841W        W20101   4.824   5.387   4.229
47842W        W20102  39.418  44.400  12.050
47843W        W20103   2.353   4.304   3.273
47844W        W20104  41.817  30.426  14.958
47845W        W20105   6.372  43.830  10.558
47846W        W20106  28.082  29.618   0.870
47847W        W20107   2.886  39.358   2.402
47848W        W20108  29.542   7.337  12.039
47849W        W20109  29.624  12.780  10.475
47850W        W20110  24.143   5.739  12.059
47851W        W20111   1.312  39.442   1.761
47852W        W20112  29.491  35.876   3.843
47853W        W20113  41.919  39.544  13.527
47854W        W20114  26.058   7.346  13.470
47855W        W20115   5.836  39.859   2.757
47856W        W20116  33.608  29.480  12.899
47857W        W20117  21.586  42.383   1.867
47858W        W20118  36.521  25.669  11.983
47859W        W20119   3.765  28.443  11.567
47860W        W20120  14.740  40.328   1.303
47861W        W20121  23.595   7.257   2.248
47862W        W20122  35.522  29.668   2.271
47863W        W20123  33.390  44.983   4.315
47864W        W20124   6.826  25.587   5.296
47865W        W20125   0.382  28.672  11.018
47866W        W20126  23.198  14.689   2.822
47867W        W20127  29.080   0.264   4.791
47868W        W20128  28.113   5.800  12.377
47869W        W20129  25.680   3.757  14.389
47870W        W20130  21.647  11.278   4.816
47871W        W20131  15.196  32.019   4.287
47872W        W20132   6.354  33.946  13.397
47873W        W20133  40.808   4.766  14.448
47874W        W20134   6.303  41.304  14.914
47875W        W20135  19.093  35.947  13.411
47876W        W20136  33.975   6.778   4.134
47877W        W20137  25.995  36.015  10.603
47878W        W20138  38.553  29.002  11.016
47879W        W20139   1.804  26.973   3.710
47880W        W20140  33.953  10.250  13.012
47881W        W20141  30.627  41.972   4.143
47882W        W20142  26.661  38.980   1.926
47883W        W20143  33.405  35.898   5.157
47884W        W20144  24.531  10.181   1.438
47885W        W20145  18.258   4.331  10.455
47886W        W20146  26.094  30.468  13.390
47887W        W20147   7.669  33.071   2.371
47888W        W20148  29.626  43.409   3.820
47889W        W20149  39.906  11.206   1.779
47890W        W20150  31.011  10.796   1.703
47891W        W20151   6.287  16.727   0.401
47892W        W20152   4.797   7.296   4.202
47893W        W20153  12.192  20.699   3.683
47894W        W20154  17.762   0.907   0.254
47895W        W20155   9.762  29.602  14.433
47896W        W20156  27.128  27.643   4.320
47897W        W20157  18.128  14.744   0.379
47898W        W20158  40.873  23.599   0.741
47899W        W20159  29.569  19.725   4.766
47900W        W20160  14.194  41.900  14.891
47901W        W20161  13.108  32.429   2.346
47902W        W20162  30.426   1.897  13.518
47903W        W20163  44.999  25.097   3.776
47904W        W20164  39.840  22.061   1.271
47905W        W20165  21.073  27.683  12.950
47906W        W20166  24.068   4.434   3.814
47907W        W20167  34.371  25.973  10.538
47908W        W20168  32.907   3.262  14.292
47909W        W20169  24.551   9.655   3.309
47910W        W20170   9.148  40.526  14.346
47911W        W20171   6.763   6.766   1.293
47912W        W20172  18.567  32.612   2.309
47913W        W20173   5.371   8.310  14.362
47914W        W20174  25.057  10.243  12.889
47915W        W20175  26.558   2.768   2.871
47916W        W20176  28.645  13.288   2.883
47917W        W20177  36.016  20.658  10.600
47918W        W20178  18.598  39.425  11.554
47919W        W20179  12.831  27.943   1.440
47920W        W20180  44.284   8.207  13.883
47921W        W20181  19.748  35.021  12.560
47922W        W20182  42.862  35.945  13.943
47923W        W20183  43.871  10.658   2.180
47924W        W20184  22.172  19.184   4.153
47925W        W20185  27.944  13.731   4.664
47926W        W20186   1.462  10.345  12.500
47927W        W20187  14.152  30.571   5.298
47928W        W20188   4.384  40.386   2.889
47929W        W20189  12.797   8.314   1.727
47930W        W20190   1.402  10.750   0.267
47931W        W20191   6.283  19.732  12.480
47932W        W20192   4.914  13.826   3.154
47933W        W20193  21.113  44.437  10.938
47934W        W20194  40.379  21.046  11.426
47935W        W20195  33.890  19.726   1.327
47936W        W20196  33.626   3.891   4.311
47937W        W20197  32.576  30.427   1.917
47938W        W20198   5.721   6.365  10.641
47939W        W20199  25.681   4.890  10.587
47940W        W20200  29.009  28.453  10.404
47941W        W20201  26.510  32.533   0.455
47942W        W20202  27.088  38.462  10.616
47943W        W20203  17.297  39.361   2.239
47944W        W20204  25.027  31.975  13.476
47945W        W20205   0.878  15.748  11.865
47946W        W20206  38.558  24.574   4.312
47947W        W20207   8.243  38.464  10.922
47948W        W20208  20.744  21.086   2.324
47949W        W20209  24.600   1.431  14.858
47950W        W20210  44.781   7.247   3.285
47951W        W20211  43.329   3.912  10.533
47952W        W20212  29.455  25.098   1.387
47953W        W20213   5.717  43.508  11.064
47954W        W20214  13.788  15.260  12.085
47955W        W20215  42.306  44.384   3.207
47956W        W20216   1.884  44.404  12.905
47957W        W20217  32.942  18.745   4.200
47958W        W20218  39.976  32.090   3.640
47959W        W20219  37.341  43.296   1.429
47960W        W20220  35.081  42.910   3.322
47961W        W20221  40.052  44.981   3.856
47962W        W20222   5.431   1.861   2.301
47963W        W20223  37.487  27.466  11.541
47964W        W20224  32.061  10.725   1.359
47965W        W20225  38.367  12.215  12.467
47966W        W20226  29.554  44.919   2.734
47967W        W20227  33.483  14.790  12.040
47968W        W20228  23.697  16.154  10.447
47969W        W20229  21.681  13.755   0.861
47970W        W20230  15.689  35.023  13.875
47971W        W20231  10.762  29.532   4.649
47972W        W20232  19.131  24.659   1.285
47973W        W20233  29.045  12.733   2.884
47974W        W20234  26.075  43.907  10.444
47975W        W20235   9.805  15.302   2.193
47976W        W20236   9.786  16.315  10.570
47977W        W20237  15.204  24.530   3.166
47978W        W20238  26.150  27.582   4.244
47979W        W20239  42.461  31.528  11.098
47980W        W20240   0.984   4.210  13.364
47981W        W20241  43.489  12.688  14.774
47982W        W20242  27.989  44.941   0.331
47983W        W20243  32.549  30.966  13.815
47984W        W20244  15.131   5.769  12.840
47985W        W20245   2.387  21.552   4.114
47986W        W20246   4.428   3.228  14.818
47987W        W20247  29.629  35.472  12.968
47988W        W20248  18.063  23.202  10.496
47989W        W20249  30.505  43.915  14.443
47990W        W20250  24.158  24.202   0.358
47991W        W20251  33.584  25.498   4.754
47992W        W20252   4.855   8.762  14.440
47993W        W20253  23.149   8.364  12.361
47994W        W20254  41.920  15.744   2.862
47995W        W20255  10.830   8.277  13.352
47996W        W20256  14.759   7.857   4.177
47997W        W20257  24.599  21.103  14.383
47998W        W20258   6.305  18.061  11.411
47999W        W20259   9.709  27.482   0.387
48000W        W20260  27.556   2.260   4.199
48001W        W20261   8.250   2.267   4.770
48002W        W20262  27.448  25.495  13.425
48003W        W20263  28.633  29.090   1.352
48004W        W20264  33.410  38.898  14.456
48005W        W20265  32.060  37.925   0.394
48006W        W20266  31.526  25.578   1.711
48007W        W20267  21.679   1.741   3.223
48008W        W20268   8.259  29.940  11.425
48009W        W20269  42.486  29.928  11.118
48010W        W20270   8.292  23.514  12.006
48011W        W20271  25.508   9.227   0.448
48012W        W20272  32.991  24.145   4.190
48013W        W20273  19.657   8.198  14.867
48014W        W20274  30.997  42.857   3.313
48015W        W20275  39.459  41.027  12.489
48016W        W20276  31.467  16.731   3.197
48017W        W20277  42.998  10.668  13.907
48018W        W20278  37.475  15.633  12.003
48019W        W20279   9.835  11.366  12.495
48020W        W20280   7.887  22.594  14.296
48021W        W20281  36.907  39.026  12.486
48022W        W20282   7.786  39.857   3.835
48023W        W20283  36.405   3.290  10.024
48024W        W20284   4.777  37.414   5.106
48025W        W20285   1.476  21.223  10.969
48026W        W20286  34.074  18.068   2.839
48027W        W20287  24.209  18.165   4.633
48028W        W20288  26.181  30.658   3.666
48029W        W20289   9.201   7.257  11.571
48030W        W20290  30.603  34.917  13.439
48031W        W20291  24.708  27.035   1.700
48032W        W20292  10.813  35.990   4.833
48033W        W20293  11.751  17.254   1.736
48034W        W20294  18.708   4.250   2.334
48035W        W20295  10.753  14.699  13.357
48036W        W20296  12.356  29.465   1.728
48037W        W20297  39.411   4.706   3.337
48038W        W20298  16.145  18.098  13.796
48039W        W20299  12.615  31.945  11.543
48040W        W20300  17.218   3.308  14.450
48041W        W20301  43.327   8.209   0.331
48042W        W20302   4.382  11.685   2.249
48043W        W20303  17.714  21.680   4.762
48044W        W20304   9.735  41.907  10.924
48045W        W20305   1.747   1.889  13.002
48046W        W20306   0.853  23.526  12.991
48047W        W20307  17.711  12.683   3.865
48048W        W20308  25.183  34.442  12.851
48049W        W20309  36.563  39.411  10.642
48050W        W20310  29.078   1.874   0.967
48051W        W20311  26.033  40.043   3.274
48052W        W20312   0.839  12.622   4.182
48053W        W20313  38.960  19.080   1.903
48054W        W20314  19.545  19.230  13.830
48055W        W20315  36.932  38.341  14.878
48056W        W20316  20.183  11.726  10.577
48057W        W20317  40.003  34.040   2.393
48058W        W20318  33.067  15.631  12.546
48059W        W20319  35.094   1.295  14.983
48060W        W20320  18.082  42.941   4.653
48061W        W20321   1.441  30.979  11.126
48062W        W20322  23.118   2.263  11.073
48063W        W20323  44.447  42.980   3.829
48064W        W20324  37.405   7.701  13.535
48065W        W20325   6.297  21.215  11.608
48066W        W20326  12.179  30.642   4.739
48067W        W20327  42.395  37.530  12.467
48068W        W20328  19.755   8.657   4.780
48069W        W20329  39.862   4.740  11.454
48070W        W20330  41.925  18.101  11.021
48071W        W20331   7.883  19.047   1.699
48072W        W20332   6.690  24.650   3.731
48073W        W20333   2.910  44.811   1.243
48074W        W20334  12.635  27.087  12.564
48075W        W20335  43.277  30.595   0.368
48076W        W20336  28.549  43.803  13.318
48077W        W20337  39.333  19.670  11.987
48078W        W20338  15.684  11.279  14.918
48079W        W20339  12.172  28.646  11.388
48080W        W20340   0.804  39.365  12.064
48081W        W20341  11.811  11.371   4.719
48082W        W20342  21.724  21.553   2.213
48083W        W20343  27.524  18.291  13.943
48084W        W20344  23.206  23.493   0.453
48085W        W20345  11.813  29.948   2.857
48086W        W20346   1.870  36.353   0.885
48087W        W20347  24.044  43.854   4.349
48088W        W20348   7.891  31.974  10.955
48089W        W20349  33.615  43.316   0.373
48090W        W20350   1.407   5.770  14.971
48091W        W20351  17.732  38.477  13.493
48092W        W20352   4.382   7.852  10.489
48093W        W20353  11.683  34.935  10.454
48094W        W20354   6.870  13.811   0.342
48095W        W20355   8.804  20.209   3.336
48096W        W20356  33.448  37.873  10.512
48097W        W20357   4.864  35.491  10.082
48098W        W20358  40.530  33.989  10.929
48099W        W20359  32.917  33.538  14.892
48100W        W20360  42.435  40.424   0.773
48101W        W20361  23.500  34.599   4.325
48102W        W20362  33.524  11.323   1.818
48103W        W20363  31.108   0.476  14.468
48104W        W20364   2.874  19.104   3.685
48105W        W20365  16.253  41.005   1.335
48106W        W20366  27.651  20.709   2.747
48107W        W20367  32.472  26.511   2.212
48108W        W20368   8.391  39.442  14.410
48109W        W20369   0.772  27.450  11.048
48110W        W20370  29.921   9.371  14.029
48111W        W20371  11.782  29.956  10.463
48112W        W20372  13.659  39.370   4.817
48113W        W20373  36.872   3.928  12.969
48114W        W20374  44.365   9.665  14.319
48115W        W20375  30.146  28.499   4.135
48116W        W20376   2.721  25.534  11.535
48117W        W20377  39.849  10.877  11.039
48118W        W20378  33.554   1.976  13.837
48119W        W20379  41.294  36.505   0.296
48120W        W20380  10.366  32.110   4.824
48121W        W20381  39.970  24.620   3.789
48122W        W20382  25.511  33.588  13.542
48123W        W20383  40.358  42.821   4.743
48124W        W20384  43.007  31.931   3.385
48125W        W20385  34.495  12.680   1.863
48126W        W20386  31.404  17.292  12.966
48127W        W20387  39.819  31.640  10.447
48128W        W20388   2.949  11.355   3.186
48129W        W20389  33.090  25.136   3.157
48130W        W20390  31.108   7.348  10.513
48131W        W20391  39.538  23.221  11.418
48132W        W20392  44.485  39.356   1.422
48133W        W20393  29.097  22.099   3.333
48134W        W20394  28.943  16.634   0.375
48135W        W20395   4.833  27.193   4.779
48136W        W20396  35.386  24.550   4.827
48137W        W20397  30.983  39.044  13.798
48138W        W20398  39.014  22.137  12.881
48139W        W20399  18.676  38.933  10.122
48140W        W20400  24.643  41.900   0.389
48141W        W20401  20.046  44.374  14.008
48142W        W20402  16.644  18.294   2.201
48143W        W20403  42.847  10.766  13.450
48144W        W20404   5.424  14.145  10.611
48145W        W20405  32.462  44.420   2.755
48146W        W20406  17.081  43.323   4.828
48147W        W20407   7.903  42.382  12.095
48148W        W20408   5.330  41.404   3.319
48149W        W20409  13.233  19.767  11.596
48150W        W20410  10.871  31.582  13.433
48151W        W20411  19.585  19.178   5.223
48152W        W20412  24.009  11.186   0.928
48153W        W20413  33.078  20.570   0.403
48154W        W20414  12.664  23.058   3.870
48155W        W20415  44.814  24.084   1.242
48156W        W20416  22.080  29.166   1.909
48157W        W20417  32.503   4.448  11.918
48158W        W20418  30.938  38.879  12.034
48159W        W20419  36.975   2.236  13.019
48160W        W20420  25.075  38.360  10.924
48161W        W20421  17.777  10.384   2.773
48162W        W20422   4.922  27.467   5.763
48163W        W20423  25.648  39.526   4.292
48164W        W20424  32.610  38.384   0.379
48165W        W20425  15.767  37.040   3.685
48166W        W20426  11.794   1.299   1.786
48167W        W20427   3.878  22.149  12.875
48168W        W20428  10.769  22.501   1.429
48169W        W20429  17.118  33.573   9.934
48170W        W20430  23.014  34.516  13.840
48171W        W20431   1.461  30.651  10.889
48172W        W20432  33.623  28.070   3.257
48173W        W20433   8.327   9.723  13.369
48174W        W20434  32.411  12.804  12.391
48175W        W20435   8.776  32.623  14.487
48176W        W20436   7.381  25.570  14.386
48177W        W20437  37.467  20.262  11.041
48178W        W20438  27.965   8.847  12.499
48179W        W20439  36.972  44.969   0.922
48180W        W20440  10.311  41.456  11.524
48181W        W20441  44.469  29.112  10.630
48182W        W20442   4.443  25.502   2.331
48183W        W20443   6.922  37.516   0.449
48184W        W20444  31.928  30.459   2.361
48185W        W20445  11.641   0.403  10.891
48186W        W20446  30.487   5.259  13.442
48187W        W20447  32.899  42.819  14.027
48188W        W20448  18.253   7.324  12.038
48189W        W20449  28.581  36.528  14.880
48190W        W20450  30.643  24.646  13.824
48191W        W20451  17.285  33.524   1.247
48192W        W20452  26.001  23.035   1.389
48193W        W20453  28.077  15.773  12.482
48194W        W20454  23.042  12.345   4.245
48195W        W20455   4.208  40.449   4.155
48196W        W20456  27.676  30.140  14.467
48197W        W20457  42.806  35.063  13.525
48198W        W20458  29.097   5.424  13.951
48199W        W20459  14.785  19.225  12.432
48200W        W20460   4.887   6.272   2.197
48201W        W20461   6.297  16.672   4.184
48202W        W20462  11.683  32.093  11.489
48203W        W20463   0.958   0.468  10.024
48204W        W20464  20.624  43.354  14.028
48205W        W20465   8.280  14.333  11.544
48206W        W20466  26.539  32.494   3.832
48207W        W20467  27.605  39.921  11.080
48208W        W20468  42.928  22.594   1.380
48209W        W20469  32.416  12.671   4.202
48210W        W20470  24.526  13.266  14.287
48211W        W20471  10.168  13.655  12.960
48212W        W20472  36.845  14.807  14.322
48213W        W20473  15.651  27.657  11.974
48214W        W20474  19.214   3.749   2.840
48215W        W20475  30.447  41.519  12.528
48216W        W20476  42.875  28.651   0.482
48217W        W20477  44.291  31.518   2.226
48218W        W20478   4.838  39.434   4.210
48219W        W20479   1.390  27.461   4.606
48220W        W20480  37.480  31.445  10.558
48221W        W20481  10.877  31.514  12.918
48222W        W20482   1.824  27.195  13.923
48223W        W20483   0.982  11.818   4.659
48224W        W20484  36.356  30.630  14.491
48225W        W20485  43.935  25.694   4.620
48226W        W20486  35.594  28.638   2.686
48227W        W20487  40.525  33.562  10.018
48228W        W20488  12.171  39.036  11.037
48229W        W20489  22.535  32.929   0.902
48230W        W20490  42.420  13.815   1.811
48231W        W20491  39.429  23.102   4.633
48232W        W20492  12.350  24.647   1.721
48233W        W20493  36.905  11.171   1.869
48234W        W20494  41.306  29.922  10.491
48235W        W20495  13.606  31.929  14.936
48236W        W20496  15.291   9.690  11.949
48237W        W20497  20.090  27.192  11.958
48238W        W20498  29.097  23.658   2.709
48239W        W20499  24.977  35.541   2.865
48240W        W20500  18.567  21.190  13.404
48241W        W20501   4.771  21.620  11.078
48242W        W20502  39.859   7.800   3.768
48243W        W20503  25.667  14.645  13.512
48244W        W20504  25.670   2.766   4.308
48245W        W20505  40.844  16.784   1.305
48246W        W20506   1.321  10.774   3.335
48247W        W20507  21.018  32.121   3.325
48248W        W20508  40.315  10.208  10.602
48249W        W20509  11.829   0.388  11.997
48250W        W20510  44.945  31.000   2.305
48251W        W20511   1.301  11.250   1.390
48252W        W20512  25.533  24.634  12.036
48253W        W20513  27.128  15.113   0.914
48254W        W20514  16.734  18.570   4.138
48255W        W20515   5.688  27.040  14.800
48256W        W20516   0.423  38.407  12.988
48257W        W20517  34.965  22.747  13.378
48258W        W20518   6.816  16.665   2.786
48259W        W20519  39.375   1.428   3.844
48260W        W20520   1.741  37.410  11.966
48261W        W20521  12.624  34.960  14.807
48262W        W20522  11.212  28.559   9.645
48263W        W20523  20.125   0.438  14.453
48264W        W20524  30.023  31.928   0.838
48265W        W20525  23.054  36.450  11.426
48266W        W20526  17.126  28.967  11.592
48267W        W20527  10.696  40.822  12.432
48268W        W20528  15.643  22.653   4.257
48269W        W20529  15.320   6.412  10.608
48270W        W20530  23.608   1.808   2.360
48271W        W20531  36.864  18.685   9.547
48272W        W20532  29.106   8.217  10.415
48273W        W20533  42.859  11.167   1.909
48274W        W20534  24.579   9.386   0.403
48275W        W20535  36.851  18.705  12.087
48276W        W20536   4.317  39.932  14.933
48277W        W20537  25.548  18.773   2.332
48278W        W20538  26.515  28.163   2.698
48279W        W20539  20.104  40.497  13.792
48280W        W20540   8.329  26.185   1.731
48281W        W20541  36.420  31.517   2.900
48282W        W20542  38.327  44.851   3.384
48283W        W20543   0.371  36.482  13.972
48284W        W20544  20.089  10.854   4.620
48285W        W20545   8.363   1.840   1.300
48286W        W20546  39.831   9.184   4.685
48287W        W20547  17.061   6.313   0.744
48288W        W20548  16.166  17.635  13.417
48289W        W20549  33.600  41.031  12.864
48290W        W20550  35.014  26.657  14.990
48291W        W20551  39.013  15.252  12.343
48292W        W20552  43.328  20.155   1.218
48293W        W20553  11.271  37.884  10.522
48294W        W20554  43.393  18.627   1.799
48295W        W20555  36.372  27.079   4.610
48296W        W20556  12.182   2.417  12.363
48297W        W20557   3.323  33.973  14.835
48298W        W20558  38.344  19.705   0.740
48299W        W20559  44.753  34.119  10.889
48300W        W20560  31.008  13.776  12.904
48301W        W20561  40.467   8.381   3.339
48302W        W20562  27.100  30.446  14.969
48303W        W20563  20.651  40.390   2.218
48304W        W20564  25.620   7.863  13.399
48305W        W20565  13.650  24.614  11.395
48306W        W20566  26.132  32.469   2.751
48307W        W20567  27.040  27.568  13.455
48308W        W20568  35.398   4.896   4.834
48309W        W20569   5.272  44.472  11.097
48310W        W20570  20.523  44.271   2.312
48311W        W20571  21.029  22.741  14.300
48312W        W20572  19.733  15.801  10.142
48313W        W20573  36.965  33.932   4.309
48314W        W20574  29.614  24.671  14.778
48315W        W20575  43.011  33.506  10.944
48316W        W20576  21.127  16.308  14.442
48317W        W20577  30.482  38.538  13.907
48318W        W20578  32.118  29.010   4.791
48319W        W20579  12.346  14.780  14.398
48320W        W20580  26.696  22.740   5.107
48321W        W20581  27.121  17.110   3.319
48322W        W20582  40.036  39.966  10.457
48323W        W20583   1.816   4.745  14.373
48324W        W20584  13.204  12.835   0.730
48325W        W20585  41.437   5.421   2.770
48326W        W20586  42.924   3.292   3.670
48327W        W20587   6.264  31.096   3.172
48328W        W20588  41.301  19.722   4.294
48329W        W20589  43.399  20.256   3.365
48330W        W20590  17.070  38.369  10.602
48331W        W20591  11.268  34.405  12.472
48332W        W20592  16.684  38.887   3.664
48333W        W20593  39.030  33.926   1.742
48334W        W20594  15.175   7.804  12.439
48335W        W20595  27.677   3.779  11.375
48336W        W20596  24.205  16.649  14.460
48337W        W20597  35.885  28.157   2.706
48338W        W20598  32.925  38.880   1.397
48339W        W20599  26.571  15.621   2.732
48340W        W20600  26.500  25.507   0.947
48341W        W20601   4.706  23.631  11.059
48342W        W20602  43.378  42.327  10.621
48343W        W20603  38.831  14.641   1.379
48344W        W20604  25.693  17.200   2.859
48345W        W20605  42.831  15.712   0.762
48346W        W20606   8.694  39.059  13.012
48347W        W20607  36.869   6.207  12.960
48348W        W20608  35.853  12.700  12.397
48349W        W20609  15.628   0.953  12.567
48350W        W20610   1.369  37.017  14.845
48351W        W20611   5.300  31.116  14.976
48352W        W20612  33.509  34.601   4.220
48353W        W20613   8.879  28.629  13.460
48354W        W20614  37.567   8.371  13.957
48355W        W20615   1.418  44.318  13.879
48356W        W20616  26.554  11.857  13.381
48357W        W20617  12.822  33.595   3.192
48358W        W20618  38.965  37.878  13.040
48359W        W20619   8.367  11.300   3.206
48360W        W20620  19.048  13.227  12.534
48361W        W20621  40.927  15.116  13.812
48362W        W20622  33.128  26.182  14.022
48363W        W20623   3.324  26.004   4.761
48364W        W20624  35.990  25.988  11.966
48365W        W20625  17.607  25.974  10.966
48366W        W20626  24.050  39.517   3.830
48367W        W20627  43.290  40.824  12.096
48368W        W20628  19.211  23.141   0.414
48369W        W20629   5.710   7.185   2.264
48370W        W20630  13.152  18.125   1.722
48371W        W20631  31.042   2.962   4.597
48372W        W20632  16.623  30.505   2.231
48373W        W20633  28.529   8.815   0.914
48374W        W20634  33.414   3.344  12.973
48375W        W20635  31.506   7.825  14.884
48376W        W20636  21.238  12.792  11.520
48377W        W20637  15.676  23.226  14.029
48378W        W20638   7.182  22.608  11.905
48379W        W20639  21.686  28.623   3.680
48380W        W20640  38.507  22.105   2.898
48381W        W20641  26.584  43.924  10.535
48382W        W20642  15.699  10.347   1.262
48383W        W20643  21.169  43.947   3.191
48384W        W20644  34.998   8.895   0.966
48385W        W20645   4.910  10.164  13.934
48386W        W20646   8.658  25.171  13.046
48387W        W20647   5.417   7.819  11.948
48388W        W20648  24.139  13.608   3.693
48389W        W20649  22.241   9.702   4.628
48390W        W20650  44.970   9.184   4.755
48391W        W20651  35.506  39.397   3.827
48392W        W20652  29.478   5.423  12.842
48393W        W20653  35.892  14.275  12.055
48394W        W20654  38.418  12.136   2.344
48395W        W20655  41.482  27.024  12.074
48396W        W20656  32.991   4.832   0.790
48397W        W20657  14.835  42.507  14.283
48398W        W20658  19.761  18.159  12.941
48399W        W20659  38.938  43.835   4.658
48400W        W20660  21.640  30.095  12.920
48401W        W20661  31.062  44.763  12.887
48402W        W20662   5.849  35.456  10.995
48403W        W20663  29.933  35.481  10.894
48404W        W20664  26.036  31.509  12.047
48405W        W20665  39.372   5.906   0.345
48406W        W20666  37.055   7.343   4.288
48407W        W20667  36.043   6.261  13.500
48408W        W20668  21.127  42.503   3.641
48409W        W20669  15.610   5.311   4.817
48410W        W20670  31.948  25.974  12.952
48411W        W20671  32.974  33.575   2.734
48412W        W20672   8.734  10.351   0.784
48413W        W20673  35.596   3.382  11.897
48414W        W20674   6.693  13.306  13.443
48415W        W20675  23.670   1.299   2.866
48416W        W20676  39.554  35.092   3.796
48417W        W20677  19.611  37.344   3.335
48418W        W20678  40.508  41.317  12.428
48419W        W20679  40.022  36.364   0.967
48420W        W20680  15.578  23.533   0.308
48421W        W20681  28.063  14.120  11.394
48422W        W20682   6.189  24.974   1.396
48423W        W20683  33.065  24.135  11.428
48424W        W20684  22.734  19.751   2.305
48425W        W20685   7.690  16.655  14.427
48426W        W20686  41.943  41.373  10.960
48427W        W20687  23.055   1.272  12.525
48428W        W20688  27.578  24.682  12.399
48429W        W20689   3.309  10.186  14.820
48430W        W20690  27.456   6.398  10.565
48431W        W20691  32.990  43.276  11.941
48432W        W20692  43.850  10.827  10.526
48433W        W20693  41.411   4.756   2.891
48434W        W20694  28.451  38.526  10.605
48435W        W20695  14.817   9.653   1.775
48436W        W20696  14.633  40.529   3.798
48437W        W20697  21.613  33.008   0.345
48438W        W20698  26.170  43.321  10.517
48439W        W20699  44.833  36.978  13.970
48440W        W20700  16.675  21.201   4.238
48441W        W20701  33.109   1.808   3.361
48442W        W20702   5.213   1.296   1.218
48443W        W20703  40.373   8.275   4.178
48444W        W20704   5.744  26.674  13.398
48445W        W20705   0.862  29.492   5.252
48446W        W20706  32.520  39.492  13.528
48447W        W20707  43.920  36.356   3.351
48448W        W20708  34.573  10.165  10.506
48449W        W20709  34.418  41.042  14.448
48450W        W20710  27.963  39.050   1.816
48451W        W20711  24.718   2.880  12.983
48452W        W20712  14.734  29.985   9.556
48453W        W20713   7.719  33.051  12.047
48454W        W20714  39.424   8.754   2.852
48455W        W20715  35.980  33.549   0.450
48456W        W20716  11.277  39.369  12.445
48457W        W20717  27.674   0.276  13.884
48458W        W20718  42.926   2.776  11.125
48459W        W20719   9.682  22.583   4.709
48460W        W20720  44.805  40.941   0.282
48461W        W20721  22.229   5.734   3.728
48462W        W20722   3.405  18.580  10.633
48463W        W20723  29.959  13.124   2.266
48464W        W20724  24.534  33.414  11.474
48465W        W20725  20.033  21.699  12.860
48466W        W20726   4.936   9.770  12.356
48467W        W20727  34.867  22.648   4.598
48468W        W20728  36.398  10.223  14.801
48469W        W20729  35.029  32.984   4.178
48470W        W20730  19.723  16.682   1.228
48471W        W20731  19.615  16.690   2.275
48472W        W20732  32.089  22.700   4.174
48473W        W20733  27.574  15.263  12.393
48474W        W20734  11.864  10.835  11.123
48475W        W20735   6.380  22.244  11.090
48476W        W20736  41.330  35.931  14.780
48477W        W20737   5.717  23.573   2.252
48478W        W20738  25.168  18.282  12.083
48479W        W20739  36.965  25.635   1.347
48480W        W20740  41.453  44.492   3.367
48481W        W20741  30.120  25.677   1.383
48482W        W20742  15.626  34.978   4.175
48483W        W20743   8.267  22.115  12.089
48484W        W20744  37.451  14.829   3.846
48485W        W20745  33.535   6.212  10.903
48486W        W20746   1.418  24.662  12.528
48487W        W20747   2.448   6.303   4.628
48488W        W20748   2.311   5.309   4.769
48489W        W20749  10.747  30.644  13.980
48490W        W20750  43.915  25.002   1.878
48491W        W20751  41.822  15.087  12.836
48492W        W20752  18.129   6.815   4.191
48493W        W20753  20.557  11.278   3.635
48494W        W20754  43.934  24.163   1.401
48495W        W20755  11.742  30.093   1.900
48496W        W20756  30.049  36.382  10.569
48497W        W20757  32.573  38.920  12.965
48498W        W20758  19.625  10.298   4.348
48499W        W20759  43.306  38.337   3.324
48500W        W20760  43.510  11.191   4.715
48501W        W20761  43.880  27.599  13.389
48502W        W20762  44.993  22.658  13.839
48503W        W20763  17.788  16.281  14.464
48504W        W20764  21.199  22.175   1.711
48505W        W20765  30.949  33.397   3.655
48506W        W20766  15.122  28.656   1.239
48507W        W20767  34.369  20.584  10.120
48508W        W20768  22.705  38.328   1.212
48509W        W20769  20.164  10.372   0.387
48510W        W20770   2.354  18.684   0.774
48511W        W20771   8.660   9.837   2.380
48512W        W20772   8.171  36.376   1.308
48513W        W20773  44.987   5.269   0.258
48514W        W20774  20.255  24.629  13.363
48515W        W20775  33.572  18.164   9.990
48516W        W20776  33.914  27.943   1.751
48517W        W20777  35.956   2.909  14.016
48518W        W20778  16.730  22.021  11.523
48519W        W20779  17.086  12.780  13.392
48520W        W20780  10.789   9.793   3.657
48521W        W20781  10.269  23.091   0.948
48522W        W20782  18.600  22.518   0.755
48523W        W20783   3.780  31.578   2.293
48524W        W20784  24.666  26.671  13.886
48525W        W20785   1.824  12.701  11.564
48526W        W20786  41.912  18.088   2.227
48527W        W20787  37.052   5.398   1.352
48528W        W20788   0.868  26.039   1.225
48529W        W20789   2.315  14.597   2.802
48530W        W20790  43.787   8.402   2.308
48531W        W20791  33.123  24.719   4.714
48532W        W20792   9.314  33.101   4.293
48533W        W20793  12.147   3.355  11.076
48534W        W20794  12.256   4.337  11.418
48535W        W20795  15.744  16.300   4.296
48536W        W20796  26.165   1.811   4.629
48537W        W20797  33.052  20.578  11.562
48538W        W20798   9.305  41.493   0.332
48539W        W20799  18.705  32.890  14.792
48540W        W20800   3.256  41.383  12.342
48541W        W20801  12.696  38.878  10.553
48542W        W20802  30.136   6.231  14.441
48543W        W20803  10.190  15.249   1.736
48544W        W20804  35.894  31.119  14.452
48545W        W20805  25.200  32.019  11.945
48546W        W20806  23.187  13.730  13.842
48547W        W20807  31.432   2.373   1.887
48548W        W20808  12.732  30.010  14.357
48549W        W20809  37.877  12.705  12.352
48550W        W20810   5.322  42.032  12.911
48551W        W20811  43.512   7.883  12.910
48552W        W20812  22.518  30.988  11.863
48553W        W20813  29.053  40.021  12.871
48554W        W20814  41.900  41.038   3.719
48555W        W20815  11.652   2.385  11.910
48556W        W20816  10.815  39.346  11.474
48557W        W20817  14.135  38.835   4.317
48558W        W20818  41.925  30.619   2.311
48559W        W20819  35.560  10.754  11.564
48560W        W20820  41.455  37.527  11.873
48561W        W20821  38.562   5.396  11.973
48562W        W20822  18.180  24.615   1.853
48563W        W20823  36.495  21.243  10.154
48564W        W20824  15.668  17.639   9.564
48565W        W20825   8.887   4.908   4.652
48566W        W20826  40.445  11.786  10.588
48567W        W20827  36.860  38.987   4.836
48568W        W20828  40.873  36.925   3.255
48569W        W20829  34.996  13.123   3.750
48570W        W20830  37.339  16.121   1.315
48571W        W20831  39.891  34.390  10.582
48572W        W20832  26.135  24.535   2.339
48573W        W20833  21.204  19.061   1.309
48574W        W20834  41.012  21.663  10.446
48575W        W20835  38.963  29.170  11.878
48576W        W20836  18.082  27.097  13.436
48577W        W20837  14.181  12.203   1.878
48578W        W20838   5.360  29.655   0.736
48579W        W20839   4.711  27.975   3.224
48580W        W20840  40.394  20.261  14.289
48581W        W20841  36.458  15.127  14.973
48582W        W20842   4.207  44.965   1.804
48583W        W20843  14.745  31.428   2.250
48584W        W20844  37.408   8.401  12.556
48585W        W20845  22.213  25.712   1.220
48586W        W20846  42.315  17.763  14.354
48587W        W20847  31.933  26.981   4.175
48588W        W20848  16.085  18.145   3.315
48589W        W20849  23.090   3.414   2.859
48590W        W20850  17.597  18.727   1.846
48591W        W20851  32.102  25.962   4.143
48592W        W20852  17.674  17.668  11.380
48593W        W20853  14.277   9.845  10.007
48594W        W20854  27.141  13.133  11.411
48595W        W20855  14.675  34.042   0.405
48596W        W20856  14.125  21.078   3.334
48597W        W20857  28.677   0.469   3.243
48598W        W20858   1.481  42.940  12.853
48599W        W20859  27.667  43.003  14.854
48600W        W20860  40.853  20.232   4.239
48601W        W20861  23.492  22.617  12.506
48602W        W20862   0.477  22.688   4.839
48603W        W20863   6.694  41.878  10.561
48604W        W20864  11.630  16.611  11.913
48605W        W20865  10.830  44.887  11.117
48606W        W20866   7.395  44.264  10.570
48607W        W20867  44.872  41.964   0.811
48608W        W20868   2.800  18.266   4.329
48609W        W20869   7.805  19.281  13.475
48610W        W20870  14.813  32.988   3.339
48611W        W20871  11.820  33.011   4.177
48612W        W20872  27.531  11.312   2.375
48613W        W20873  39.819  43.441  10.995
48614W        W20874  37.407  30.615   2.213
48615W        W20875  24.062  36.383  14.023
48616W        W20876  29.937   4.879  10.615
48617W        W20877  14.778  31.006   3.793
48618W        W20878  24.974   6.229  14.953
48619W        W20879  26.165   2.794   4.135
48620W        W20880  26.686  21.623  14.840
48621W        W20881  44.494  43.412  10.570
48622W        W20882  38.888  18.574   3.222
48623W        W20883  22.237  43.282   1.889
48624W        W20884   5.726  17.681  14.317
48625W        W20885  29.057  17.071   0.960
48626W        W20886  11.731  26.180   4.604
48627W        W20887  29.536   2.445   2.712
48628W        W20888  14.218  12.851  11.453
48629W        W20889   8.272  23.691   2.193
48630W        W20890  29.123  19.534  12.846
48631W        W20891   3.764   5.335  13.363
48632W        W20892  14.259   3.742   3.689
48633W        W20893   0.869  29.031  12.351
48634W        W20894   0.956  32.050   4.301
48635W        W20895  43.928  34.568  11.962
48636W        W20896  20.110  31.601   1.273
48637W        W20897  22.679  18.176   5.117
48638W        W20898  39.861  36.916  10.887
48639W        W20899   5.205  31.078   4.768
48640W        W20900   1.282  15.589  14.457
48641W        W20901  23.705  23.042  13.500
48642W        W20902  11.366  39.025   4.123
48643W        W20903  42.998  18.132  12.469
48644W        W20904  22.151  34.870  11.422
48645W        W20905  26.566  15.719   1.399
48646W        W20906   3.326  11.232   4.183
48647W        W20907  43.768  30.094  10.526
48648W        W20908  32.525  41.824   0.292
48649W        W20909  32.971  20.575   4.245
48650W        W20910  12.703   0.388   3.342
48651W        W20911  43.349  30.148  10.511
48652W        W20912   8.220  29.136   1.302
48653W        W20913  41.479   5.740  13.308
48654W        W20914  10.262  29.155  10.419
48655W        W20915  33.068   0.339   2.380
48656W        W20916  15.281   6.869  11.501
48657W        W20917  25.603   4.882   0.430
48658W        W20918  21.040  11.291  10.604
48659W        W20919  13.605  40.501   1.772
48660W        W20920  33.026   5.293   4.178
48661W        W20921  38.401  28.036  10.513
48662W        W20922  44.901  25.488   1.394
48663W        W20923  44.361  19.134   4.187
48664W        W20924  36.400  44.946   2.759
48665W        W20925  22.741  32.022   0.378
48666W        W20926  38.826  26.075  11.982
48667W        W20927  37.443  42.982   3.819
48668W        W20928  20.741   5.933  11.567
48669W        W20929  18.767  36.397  12.967
48670W        W20930  43.842  24.137   1.901
48671W        W20931  44.878  25.964   0.415
48672W        W20932  29.175  35.865  14.930
48673W        W20933  11.688  24.122   4.733
48674W        W20934  32.581  40.028   1.387
48675W        W20935  33.117  13.661  14.975
48676W        W20936  12.843   7.232   0.872
48677W        W20937   7.324  24.708   3.336
48678W        W20938  21.215   2.388   1.848
48679W        W20939  38.368   9.225   1.761
48680W        W20940  22.181  30.536   0.764
48681W        W20941  38.449  44.000  10.528
48682W        W20942   4.760  24.981  13.413
48683W        W20943  39.932  37.020  14.903
48684W        W20944  40.395  33.916   1.430
48685W        W20945  11.335  18.673  13.385
48686W        W20946   9.237  10.659   2.881
48687W        W20947   2.372  22.998   1.270
48688W        W20948  15.325  32.138   3.364
48689W        W20949  21.089   9.739  13.315
48690W        W20950   7.705  40.329   2.289
48691W        W20951  13.628  29.021   4.706
48692W        W20952   9.239  43.012   4.254
48693W        W20953  40.967  26.202   4.336
48694W        W20954  38.533  15.800  14.372
48695W        W20955  21.532  33.483   3.652
48696W        W20956  34.443  35.045   2.325
48697W        W20957  35.421  35.488  10.504
48698W        W20958  23.538  41.404  12.850
48699W        W20959  18.717  38.493   2.786
48700W        W20960   6.862  10.224   4.314
48701W        W20961   8.836  35.001  13.506
48702W        W20962   4.331  16.642  10.557
48703W        W20963  19.760  35.549  11.442
48704W        W20964   4.427  43.439   1.230
48705W        W20965  27.151  32.074   3.721
48706W        W20966   4.703  30.511  14.504
48707W        W20967  12.326   5.315   0.795
48708W        W20968   7.402  44.811  12.354
48709W        W20969  20.580  24.706   2.222
48710W        W20970  11.677  33.016  10.504
48711W        W20971  15.136   3.941   3.638
48712W        W20972  23.556  17.127   3.661
48713W        W20973  42.332  38.554  14.943
48714W        W20974  25.533   0.753   2.887
48715W        W20975   8.188  15.284   0.816
48716W        W20976  15.243   4.287   4.669
48717W        W20977  40.808  36.371  14.886
48718W        W20978  17.258   7.766   3.270
48719W        W20979  32.114  26.566   3.756
48720W        W20980   6.385  44.392   9.997
48721W        W20981   0.872  24.598   0.807
48722W        W20982  27.533  10.710  11.523
48723W        W20983  36.428   0.937  13.314
48724W        W20984  21.756  22.067   9.657
48725W        W20985  22.144   1.444   4.811
48726W        W20986  32.890  26.198  12.407
48727W        W20987  26.957  34.499   2.224
48728W        W20988  43.867  29.092   0.935
48729W        W20989  21.247  20.104  14.851
48730W        W20990  34.535   2.244  12.481
48731W        W20991  36.508  26.142   1.383
48732W        W20992  10.214  29.078  13.514
48733W        W20993  43.432  36.086   3.192
48734W        W20994   0.932  23.011  10.436
48735W        W20995  29.002   2.406  12.063
48736W        W20996   0.398  39.050  12.447
48737W        W20997  27.493   5.242  13.388
48738W        W20998  18.625  10.636   3.212
48739W        W20999  21.166  23.984   3.226
48740W        W21000   8.250   5.746   4.236
48741W        W21001  15.713   5.876   2.748
48742W        W21002   7.886  23.232   0.452
48743W        W21003  37.574  27.037   0.922
48744W        W21004  12.740   2.849   4.766
48745W        W21005  26.545  41.954  13.846
48746W        W21006  39.839  26.121   3.330
48747W        W21007   7.815  38.514  13.338
48748W        W21008  11.630  24.033  14.815
48749W        W21009  25.086  19.042   4.298
48750W        W21010  19.065  34.905  13.319
48751W        W21011   0.286   1.311   0.325
48752W        W21012  40.356  34.435   2.415
48753W        W21013  24.480  15.120  13.909
48754W        W21014  40.036  19.631   4.137
48755W        W21015  18.103  14.662   4.172
48756W        W21016  36.375  18.205   2.696
48757W        W21017  36.423  25.153  13.317
48758W        W21018  20.641   9.245  13.913
48759W        W21019   3.899  19.055  14.910
48760W        W21020   2.345   1.737  10.951
48761W        W21021  34.891   9.773  13.350
48762W        W21022  31.624  37.377   4.601
48763W        W21023  11.863   1.969  13.004
48764W        W21024   6.358   3.788   0.345
48765W        W21025  43.289  17.101   1.791
48766W        W21026   1.277   9.180  11.555
48767W        W21027  32.496  38.480   1.727
48768W        W21028   6.722  14.628  11.926
48769W        W21029  21.091  29.457  11.463
48770W        W21030  10.196   5.817   3.340
48771W        W21031   2.789  40.837  14.947
48772W        W21032   4.235  42.031  12.503
48773W        W21033  37.347  18.238   4.604
48774W        W21034  15.213  33.072  14.361
48775W        W21035   1.866   5.312   4.629
48776W        W21036  10.146  43.921   5.196
48777W        W21037  13.748  11.227  13.500
48778W        W21038  32.564  38.394   3.159
48779W        W21039  18.635  39.905   3.837
48780W        W21040   2.891  33.575  10.531
48781W        W21041  15.180  11.664  12.858
48782W        W21042  18.640  35.074  10.426
48783W        W21043  24.574  25.075  13.403
48784W        W21044  34.029  32.425  14.338
48785W        W21045  10.750   3.406  10.974
48786W        W21046  12.219  33.113  12.089
48787W        W21047  21.691   8.241  11.988
48788W        W21048  35.379  26.624   3.828
48789W        W21049  11.680   5.315   3.659
48790W        W21050   1.916  25.013  11.611
48791W        W21051  34.388  34.501  13.882
48792W        W21052   4.932   6.391   0.259
48793W        W21053  29.973   2.282  12.958
48794W        W21054  36.464  29.106  11.532
48795W        W21055  25.631  13.343  12.438
48796W        W21056   1.395  24.111   4.712
48797W        W21057  28.949  28.935   4.649
48798W        W21058  42.926  35.427   0.469
48799W        W21059  18.178   4.846  13.799
48800W        W21060  42.519  33.110  11.119
48801W        W21061  16.737  22.187  10.988
48802W        W21062  22.184  11.338  14.959
48803W        W21063   3.241   1.755  10.429
48804W        W21064  22.629   6.840   1.737
48805W        W21065   8.223  41.474  10.931
48806W        W21066  30.414   0.907   3.207
48807W        W21067  27.523  10.265   2.692
48808W        W21068   4.266  32.612   1.808
48809W        W21069  40.517  39.814  10.001
48810W        W21070  37.386  40.516  14.990
48811W        W21071  14.228  37.856  14.341
48812W        W21072  26.505  13.166  14.767
48813W        W21073  15.685  21.142   3.641
48814W        W21074  11.350  29.568  12.481
48815W        W21075  27.030  39.974   9.497
48816W        W21076  18.182   1.340  14.309
48817W        W21077  29.571   5.210   2.209
48818W        W21078  35.399  14.190  13.374
48819W        W21079   4.324  44.413  11.445
48820W        W21080  34.017  27.951  14.992
48821W        W21081  35.094  38.377   3.226
48822W        W21082   3.424  30.551  11.998
48823W        W21083  27.608  20.753  10.499
48824W        W21084  23.035  30.563   2.767
48825W        W21085  22.997  18.083  13.824
48826W        W21086   9.237   2.252  12.876
48827W        W21087   1.757  31.425   1.776
48828W        W21088  19.742  43.502   1.275
48829W        W21089  24.654  19.105   0.271
48830W        W21090   4.383  18.127   2.798
48831W        W21091   8.707  19.132   3.165
48832W        W21092  28.437  17.648   1.347
48833W        W21093  36.898  11.319   3.770
48834W        W21094  43.295  44.352  12.535
48835W        W21095   1.332   1.415   3.761
48836W        W21096  23.494  34.966  12.026
48837W        W21097  29.607  44.942  14.479
48838W        W21098  21.612  10.839   1.436
48839W        W21099  30.413  15.195  14.851
48840W        W21100  42.032  34.964   4.597
48841W        W21101  10.265  29.478   5.243
48842W        W21102  16.607  41.976  14.503
48843W        W21103   7.867   1.916  14.003
48844W        W21104  36.898  26.994   1.317
48845W        W21105  37.357  23.721  10.628
48846W        W21106  20.598   7.363  11.119
48847W        W21107  41.339  35.358  14.007
48848W        W21108  21.109  33.591  11.392
48849W        W21109   7.321  43.503  13.486
48850W        W21110  39.386   0.261   0.328
48851W        W21111  37.914  13.666  13.921
48852W        W21112  25.983  38.021  14.831
48853W        W21113  24.498   1.883   3.638
48854W        W21114  37.902  12.302   1.382
48855W        W21115  17.667   3.950   1.864
48856W        W21116   3.268  37.039  14.422
48857W        W21117  25.008  21.699   3.155
48858W        W21118  34.914  34.556  11.596
48859W        W21119   1.464  21.261   4.770
48860W        W21120  22.025  17.251  11.432
48861W        W21121  14.779  35.909   3.859
48862W        W21122  32.419  22.509  14.871
48863W        W21123  30.496   7.873   2.208
48864W        W21124  30.636  24.649  12.554
48865W        W21125  10.373  38.935   2.324
48866W        W21126  23.066  40.381   2.733
48867W        W21127  34.611  43.332  10.937
48868W        W21128   8.655  16.135   2.713
48869W        W21129  15.233   3.944   1.703
48870W        W21130   2.899  20.227  13.446
48871W        W21131   9.809   0.770  10.528
48872W        W21132  20.612  34.916  13.402
48873W        W21133  19.283   2.797  14.959
48874W        W21134  31.951  27.506  12.402
48875W        W21135  10.330   0.743  12.938
48876W        W21136  22.112  34.882  11.111
48877W        W21137  10.268  29.094   1.220
48878W        W21138   6.395  31.037  13.345
48879W        W21139   4.259  34.041  12.432
48880W        W21140   8.856  43.349   2.776
48881W        W21141  40.803  22.717  12.958
48882W        W21142  23.692  16.172   3.184
48883W        W21143   2.310  21.557  12.907
48884W        W21144  41.448  15.201   3.179
48885W        W21145  21.186  38.507   1.397
48886W        W21146  29.174  20.728   1.802
48887W        W21147   6.871  24.545  14.329
48888W        W21148   2.831  31.600  14.294
48889W        W21149  19.780  23.702   2.405
48890W        W21150  44.822   2.390  11.565
48891W        W21151   7.722  23.035   1.704
48892W        W21152  38.564  35.958   0.839
48893W        W21153  14.778   4.884   4.200
48894W        W21154  19.719   4.929   2.807
48895W        W21155  33.917  34.994  12.934
48896W        W21156  33.479  33.884   3.268
48897W        W21157  27.557  32.993  11.470
48898W        W21158  37.367  30.104   0.837
48899W        W21159  21.539  19.692   4.316
48900W        W21160   1.828  28.606  11.057
48901W        W21161  43.296  24.172  13.419
48902W        W21162   0.783  42.777  10.933
48903W        W21163  39.030   2.894   4.212
48904W        W21164  44.930  22.083  10.478
48905W        W21165  11.308   2.878  14.829
48906W        W21166  17.656  36.849  11.607
48907W        W21167  36.889  15.756   3.737
48908W        W21168  24.608  34.460  12.029
48909W        W21169  38.069  23.544   5.178
48910W        W21170  28.445  21.538  14.903
48911W        W21171   0.984  24.141   0.942
48912W        W21172  20.049   5.245   3.696
48913W        W21173  37.390   9.179   5.214
48914W        W21174  23.109   3.906  13.320
48915W        W21175  24.124   6.224   1.734
48916W        W21176   8.205   9.389   2.719
48917W        W21177  38.442  20.531  13.832
48918W        W21178  31.036  11.351   0.469
48919W        W21179  31.473  41.811  12.034
48920W        W21180  28.659  26.598  12.001
48921W        W21181  16.096   6.922   3.862
48922W        W21182  31.094  33.922  12.400
48923W        W21183  38.460   2.834  12.451
48924W        W21184  14.273  33.910  14.869
48925W        W21185  22.602  39.992  13.468
48926W        W21186   9.215  25.486  12.092
48927W        W21187  44.443   0.300  13.048
48928W        W21188  27.531  26.621   1.870
48929W        W21189  25.175  32.007  14.324
48930W        W21190  17.702  23.522   0.436
48931W        W21191  13.626  31.076   4.663
48932W        W21192   1.858  26.540   0.905
48933W        W21193  28.537  36.377  13.801
48934W        W21194   1.252  31.486  14.806
48935W        W21195  36.923  35.940   4.268
48936W        W21196   8.203  32.091  10.631
48937W        W21197  30.124  42.379   1.715
48938W        W21198  19.718  37.882   0.266
48939W        W21199  40.016   5.269   0.315
48940W        W21200  16.629  35.448  14.422
48941W        W21201  25.212  44.381   3.790
48942W        W21202   4.440  10.735  14.793
48943W        W21203  43.002  22.103  13.993
48944W        W21204  27.497  24.523   1.872
48945W        W21205   8.818  11.349   1.832
48946W        W21206  36.854  40.504   4.225
48947W        W21207  22.219  38.496  11.040
48948W        W21208  28.153  21.123  10.623
48949W        W21209  38.424  38.382   4.120
48950W        W21210  41.528  17.234   4.688
48951W        W21211  23.044  40.315  12.563
48952W        W21212  36.484   6.682  12.942
48953W        W21213  20.171  25.150  11.035
48954W        W21214  20.530  44.368  13.448
48955W        W21215  28.660  31.982   0.778
48956W        W21216  39.024  17.279   2.673
48957W        W21217  12.643  14.267  11.066
48958W        W21218  21.685  28.135   2.670
48959W        W21219  43.995  38.467  12.912
48960W        W21220  10.168  36.995   3.776
48961W        W21221  36.072   1.906   2.318
48962W        W21222  15.781  11.247  11.591
48963W        W21223  13.249  31.946  11.453
48964W        W21224  28.442  39.012  14.506
48965W        W21225  27.120  26.549  10.577
48966W        W21226   3.379  31.921  12.899
48967W        W21227  24.613   5.710   0.258
48968W        W21228   6.705  27.977   2.706
48969W        W21229  31.079  41.358  10.089
48970W        W21230  19.197   5.360   5.266
48971W        W21231  18.669  42.956  11.941
48972W        W21232  34.094   4.398  14.338
48973W        W21233  23.238  24.710  11.886
48974W        W21234  27.984   0.485  10.630
48975W        W21235  21.557  23.011   0.852
48976W        W21236  38.884  22.628  10.986
48977W        W21237   5.237   7.397  12.030
48978W        W21238  11.364  34.390   2.870
48979W        W21239   4.750  22.080  13.979
48980W        W21240   0.314  23.000  14.505
48981W        W21241  29.153   9.712   1.909
48982W        W21242   1.368  21.593  13.798
48983W        W21243  34.493  37.530   2.738
48984W        W21244  28.555   7.861  14.355
48985W        W21245  33.071  33.019  13.534
48986W        W21246  31.439  11.272  13.901
48987W        W21247   0.338  22.050   3.646
48988W        W21248  12.650  33.398   2.294
48989W        W21249  43.896  15.273   3.208
48990W        W21250  39.501  36.961  11.452
48991W        W21251  26.693  16.273  14.285
48992W        W21252  28.164  40.375   4.327
48993W        W21253   4.250  27.625  10.910
48994W        W21254  17.164   9.229  14.850
48995W        W21255  33.089  14.200  11.937
48996W        W21256   9.310   1.891   1.298
48997W        W21257  14.297  15.804  10.980
48998W        W21258  19.079  17.279   4.786
48999W        W21259  29.983   5.394   3.303
49000W        W21260  12.131  31.606  13.818
49001W        W21261   0.369   1.898  10.920
49002W        W21262  26.022  38.503   0.881
49003W        W21263  33.942  26.698  14.884
49004W        W21264  26.574   9.731  10.139
49005W        W21265  34.538  44.380   2.314
49006W        W21266  11.642  44.817   2.864
49007W        W21267  32.057  31.497   1.730
49008W        W21268   6.293  25.512   4.633
49009W        W21269  37.886  19.133  11.077
49010W        W21270   8.814  18.188  13.929
49011W        W21271  41.343  10.282  14.423
49012W        W21272  10.798  34.866  10.626
49013W        W21273   9.864  16.193   1.749
49014W        W21274  10.714  34.974  14.415
49015W        W21275  38.999  12.678   0.898
49016W        W21276  21.628   7.195  13.847
49017W        W21277  30.494  37.953   0.890
49018W        W21278  41.515  23.144   1.769
49019W        W21279  18.156  43.417  10.516
49020W        W21280  13.810  33.001  14.896
49021W        W21281  22.247  17.728  10.939
49022W        W21282   3.771  26.955  13.856
49023W        W21283   6.912   0.833  12.987
49024W        W21284  42.402  43.014   3.354
49025W        W21285  40.971   3.836   2.343
49026W        W21286  29.644  29.435   0.756
49027W        W21287   6.386  40.497  13.473
49028W        W21288  21.176  42.443  10.929
49029W        W21289  14.672  25.660   1.227
49030W        W21290  16.768   0.279   0.854
49031W        W21291  30.578   0.822  14.893
49032W        W21292  11.623   9.814   1.750
49033W        W21293  14.729   2.941  11.596
49034W        W21294  38.932  35.466  11.610
49035W        W21295  30.089  25.039  12.537
49036W        W21296   4.778   4.811  13.448
49037W        W21297  10.364  18.152  12.576
49038W        W21298   7.234  38.974   3.294
49039W        W21299  39.026   9.646  14.766
49040W        W21300  30.547  21.138  12.024
49041W        W21301  30.547  37.012   0.857
49042W        W21302   8.792  30.501  11.469
49043W        W21303  39.976  16.739   4.352
49044W        W21304  10.707  35.518  11.109
49045W        W21305  29.631   2.378   1.298
49046W        W21306  23.493  29.025  13.912
49047W        W21307  43.429  18.219  14.464
49048W        W21308  10.278  16.703   4.811
49049W        W21309  42.513  41.363  13.969
49050W        W21310   9.880  11.245   1.244
49051W        W21311  28.668  23.662  10.469
49052W        W21312   7.335  15.200  12.941
49053W        W21313  13.659  14.123  12.050
49054W        W21314   3.835   9.745  11.533
49055W        W21315  34.961  13.113   2.378
49056W        W21316  44.756  44.774   2.882
49057W        W21317  39.512  24.076  14.849
49058W        W21318  41.833  38.016  10.952
49059W        W21319  14.216  29.582   1.396
49060W        W21320   8.333   7.252   2.360
49061W        W21321  37.009  11.847   1.214
49062W        W21322   1.251  39.937  11.975
49063W        W21323   5.341  36.424  11.379
49064W        W21324  12.231  33.626   0.432
49065W        W21325   1.865  17.557   1.393
49066W        W21326   7.745  10.256   1.761
49067W        W21327  25.977  25.706  14.914
49068W        W21328  20.744  22.732  10.642
49069W        W21329  12.648  33.396  11.529
49070W        W21330  17.617  16.618   3.152
49071W        W21331  12.140   8.272  14.876
49072W        W21332   1.816  14.829  10.996
49073W        W21333  40.537  14.658  14.927
49074W        W21334   9.186  10.698   1.276
49075W        W21335  35.105   5.710   3.833
49076W        W21336  10.819  14.225  11.441
49077W        W21337  36.400  28.113   4.123
49078W        W21338  12.634  28.951   3.341
49079W        W21339   5.824  29.647  12.850
49080W        W21340  20.530  37.076  13.398
49081W        W21341  34.499   1.470  11.471
49082W        W21342   6.413  33.527  11.127
49083W        W21343  28.678  26.957   1.878
49084W        W21344  16.075  24.122   1.919
49085W        W21345  38.821  27.488  13.895
49086W        W21346   3.441  12.759  13.886
49087W        W21347  26.155  40.905   3.682
49088W        W21348  39.405  22.546  12.367
49089W        W21349  27.563  39.514  13.355
49090W        W21350  19.574  42.428   3.773
49091W        W21351  40.492  16.739  14.997
49092W        W21352  20.048  10.318  10.437
49093W        W21353  15.774  24.130  12.443
49094W        W21354  11.177   9.208  11.389
49095W        W21355  33.625  37.502   4.624
49096W        W21356  36.426  42.778   1.318
49097W        W21357  13.329   3.455   3.270
49098W        W21358   0.441  20.633   4.321
49099W        W21359  22.080  44.977   4.340
49100W        W21360  14.793  24.711   4.822
49101W        W21361  27.650  36.557   4.670
49102W        W21362  18.282  18.730  13.934
49103W        W21363  19.266  29.130  14.304
49104W        W21364  29.438   7.260  14.457
49105W        W21365  12.620   2.768  13.040
49106W        W21366  43.414  24.009  13.914
49107W        W21367  15.693  33.620   2.890
49108W        W21368  19.730  16.167  13.045
49109W        W21369  35.486  17.180   3.771
49110W        W21370  22.641  16.788   2.746
49111W        W21371   6.396  41.342  14.384
49112W        W21372  24.170  39.045   3.809
49113W        W21373  44.414   3.741  10.642
49114W        W21374   3.342  18.138  11.099
49115W        W21375   0.372   2.313  11.417
49116W        W21376   1.385  28.595  14.362
49117W        W21377  24.672   1.274  13.900
49118W        W21378  36.582  29.509  12.437
49119W        W21379  44.920   6.386   1.706
49120W        W21380  29.549  24.161   3.864
49121W        W21381  43.320   1.480   3.254
49122W        W21382  10.381  33.495   2.753
49123W        W21383  19.256  43.412  11.505
49124W        W21384  16.284   7.800   1.394
49125W        W21385  40.542  19.631  13.372
49126W        W21386  39.051  28.106  11.924
49127W        W21387  35.388  42.388  13.360
49128W        W21388  17.695   5.377  13.921
49129W        W21389  10.669   0.429  14.502
49130W        W21390   0.907  34.031  11.025
49131W        W21391  18.120  14.781   3.864
49132W        W21392   8.661   0.384  14.882
49133W        W21393  35.463   0.271  11.433
49134W        W21394  18.643  11.812  13.392
49135W        W21395  31.089   0.887  12.884
49136W        W21396  10.727  18.692   0.850
49137W        W21397  32.539  16.606   3.738
49138W        W21398  39.427  10.189  14.851
49139W        W21399  38.967   3.354   3.656
49140W        W21400  40.468  40.971   2.730
49141W        W21401  32.979  28.641  11.465
49142W        W21402  26.195  19.683  13.854
49143W        W21403  44.839  33.510   1.393
49144W        W21404  42.368  26.650  11.932
49145W        W21405  28.978  29.644   3.720
49146W        W21406  34.434  24.722   2.807
49147W        W21407  19.067  14.644   0.441
49148W        W21408  41.999  29.546  13.447
49149W        W21409  35.445  18.689  10.046
49150W        W21410  42.458   5.430  12.986
49151W        W21411  12.666  15.193   3.682
49152W        W21412  29.114  21.649  14.881
49153W        W21413  33.965  26.157  13.040
49154W        W21414  15.287   1.436  12.434
49155W        W21415  24.005   5.893   3.194
49156W        W21416  10.807  18.787  12.068
49157W        W21417  36.493  20.743  12.843
49158W        W21418  42.306  10.338   2.253
49159W        W21419  27.463  42.460  14.800
49160W        W21420  20.534  11.233   2.283
49161W        W21421   4.234  26.102   4.778
49162W        W21422  33.930  35.559   4.838
49163W        W21423  25.607  22.743   1.798
49164W        W21424   5.418  39.906  11.549
49165W        W21425  26.106  11.723  12.402
49166W        W21426   3.936   1.342  12.413
49167W        W21427  13.188  40.813  11.032
49168W        W21428   3.349  20.687  11.053
49169W        W21429  43.784  36.501  13.021
49170W        W21430   9.778   5.775  11.115
49171W        W21431   0.882   7.189  10.115
49172W        W21432  11.632  39.460  12.867
49173W        W21433  23.489  30.061  12.492
49174W        W21434   4.707  22.007   0.375
49175W        W21435   4.265  43.784   4.189
49176W        W21436  41.344  37.524  14.992
49177W        W21437   0.753  24.568  10.502
49178W        W21438  15.725  17.593   0.357
49179W        W21439   4.941  23.614   2.671
49180W        W21440   4.434   7.342  12.994
49181W        W21441  21.108   4.739  14.998
49182W        W21442   3.383  16.680   4.204
49183W        W21443  13.698  43.466  14.898
49184W        W21444  15.212   2.821   4.711
49185W        W21445  10.206  41.428  13.020
49186W        W21446  32.606  31.596  14.376
49187W        W21447  14.612  16.780  12.389
49188W        W21448  41.822  41.509  12.343
49189W        W21449  18.707  32.041   5.281
49190W        W21450  32.607  13.791   4.302
49191W        W21451  18.167  23.191   3.716
49192W        W21452  11.740  37.390  13.880
49193W        W21453   6.349  40.320  13.011
49194W        W21454  23.209  38.372  14.437
49195W        W21455   8.262  32.929  11.587
49196W        W21456  25.047  38.571   1.861
49197W        W21457  39.393  41.519   3.282
49198W        W21458  16.591  14.631   3.868
49199W        W21459   3.936   5.911  14.324
49200W        W21460   5.733  29.016   4.287
49201W        W21461  23.996  24.200   2.241
49202W        W21462  24.094  44.391   5.199
49203W        W21463  44.992  24.587   0.791
49204W        W21464  25.538  29.164  13.057
49205W        W21465   6.403  23.163   4.711
49206W        W21466  17.137  31.619  11.528
49207W        W21467  15.688  36.586   0.443
49208W        W21468  16.139  40.990  13.448
49209W        W21469   9.731  14.218   4.814
49210W        W21470  33.112  16.100  12.996
49211W        W21471  12.289  22.538   1.288
49212W        W21472   6.915   4.926   4.210
49213W        W21473  44.318  15.588   1.814
49214W        W21474  21.606  36.897  11.993
49215W        W21475   3.813  44.365   2.781
49216W        W21476  17.141  22.077  10.127
49217W        W21477  26.019  21.182  12.425
49218W        W21478  12.296  10.359   4.225
49219W        W21479  39.926  30.937  11.045
49220W        W21480  26.182  30.548   4.785
49221W        W21481  29.630  33.536   0.289
49222W        W21482   7.892  25.015   1.392
49223W        W21483  18.635   2.754  10.454
49224W        W21484   7.225  17.073   0.412
49225W        W21485   6.898  14.239   0.906
49226W        W21486  18.682  39.403  11.041
49227W        W21487  33.903   9.352  10.895
49228W        W21488   1.335   9.169   4.236
49229W        W21489   9.856  35.078   3.147
49230W        W21490  43.314   9.179   1.840
49231W        W21491  31.949   3.768  10.439
49232W        W21492  43.310  16.717  12.897
49233W        W21493   4.321  10.843   3.196
49234W        W21494  35.530  31.976   3.851
49235W        W21495  19.051  10.276  13.924
49236W        W21496   3.720  33.903  12.562
49237W        W21497   4.835  41.949   2.351
49238W        W21498  14.621  10.300   3.647
49239W        W21499  36.908  38.976   3.759
49240W        W21500  32.509  11.286  10.433
49241W        W21501   7.896  12.769   1.841
49242W        W21502  34.418  27.078   0.763
49243W        W21503  21.163  22.142  10.893
49244W        W21504   2.958   1.343  12.946
49245W        W21505  34.069  41.804   0.946
49246W        W21506  17.730  33.595   2.184
49247W        W21507  44.486  29.528   0.928
49248W        W21508  18.263  32.906   0.446
49249W        W21509  32.088  42.391  13.547
49250W        W21510  13.123   9.247   3.764
49251W        W21511   8.900  28.584  11.481
49252W        W21512  25.596   5.373  14.939
49253W        W21513  20.127  15.736   3.248
49254W        W21514  38.880  23.160   1.286
49255W        W21515  42.419   3.240   3.780
49256W        W21516   3.827  16.283   4.661
49257W        W21517  15.657  23.642  12.946
49258W        W21518  29.612  35.503   3.708
49259W        W21519   9.685  17.775  14.405
49260W        W21520  13.630  16.249  10.119
49261W        W21521  28.624  22.120   2.841
49262W        W21522   9.167  39.923   2.190
49263W        W21523  33.585  38.351   3.281
49264W        W21524  15.790  33.598  10.517
49265W        W21525  18.605  21.712  12.380
49266W        W21526   6.395  23.644   1.874
49267W        W21527  24.681   2.866   0.332
49268W        W21528   9.646  14.259  13.359
49269W        W21529   1.742  32.019  12.530
49270W        W21530  42.468  11.259  14.398
49271W        W21531   6.779  23.574   4.602
49272W        W21532  13.297  15.301   2.330
49273W        W21533  17.201  23.633  10.464
49274W        W21534  27.063  35.994  10.538
49275W        W21535   7.194  29.470  13.000
49276W        W21536  28.022  17.654   1.225
49277W        W21537  30.428  22.053  11.577
49278W        W21538   9.647  19.676  12.961
49279W        W21539  35.958  10.145   4.711
49280W        W21540  36.075   0.453  11.039
49281W        W21541  25.079  23.633   4.124
49282W        W21542  29.593  33.427   3.669
49283W        W21543  26.989   0.399   1.885
49284W        W21544  15.237  13.176  13.439
49285W        W21545  28.014  19.269   1.410
49286W        W21546  40.899  32.518   2.825
49287W        W21547   7.799  34.555  11.879
49288W        W21548  37.445   5.713   2.821
49289W        W21549   2.758  13.165  11.388
49290W        W21550  20.698  28.521  11.119
49291W        W21551  20.213  12.171  11.914
49292W        W21552  28.963  35.926  10.993
49293W        W21553   8.841  27.195   1.817
49294W        W21554   1.806  29.998   0.350
49295W        W21555  41.461  36.852   1.707
49296W        W21556  39.849  18.668   4.203
49297W        W21557  19.581  38.041  11.030
49298W        W21558  43.783  42.305   3.653
49299W        W21559  32.564  27.998   2.237
49300W        W21560   0.824  41.532  14.773
49301W        W21561  12.319  12.696  13.942
49302W        W21562  13.300  20.229  13.032
49303W        W21563  29.461  40.960   1.812
49304W        W21564  33.998  36.529   2.278
49305W        W21565  17.200  20.724   1.259
49306W        W21566  27.501  27.172  11.447
49307W        W21567  20.243  37.336   1.800
49308W        W21568   4.766  10.254   0.412
49309W        W21569  30.422   4.214  11.473
49310W        W21570  37.411  14.134  12.024
49311W        W21571  25.164  39.453  10.151
49312W        W21572  39.839  11.810   3.838
49313W        W21573  34.102  11.781  11.449
49314W        W21574  43.478  10.782   2.211
49315W        W21575  24.538  11.820  11.539
49316W        W21576  38.075  26.103  12.856
49317W        W21577  34.502  33.911   1.825
49318W        W21578  31.022  20.205   2.302
49319W        W21579  26.543  13.309  10.960
49320W        W21580   5.312  37.570   2.216
49321W        W21581  35.094  34.529   0.357
49322W        W21582  30.111   7.780   3.716
49323W        W21583  20.645  27.088   2.253
49324W        W21584  36.505  14.106  10.120
49325W        W21585  19.619  11.197  10.039
49326W        W21586  32.895  26.683  14.385
49327W        W21587  40.817  43.926   2.685
49328W        W21588  30.946  32.038   4.835
49329W        W21589   6.305  13.271   0.790
49330W        W21590  42.929  20.210  11.497
49331W        W21591  14.734  16.737  10.923
49332W        W21592  38.942   6.243  12.913
49333W        W21593   7.815  12.641   0.893
49334W        W21594   4.298  14.296   3.183
49335W        W21595   7.377   4.265  12.962
49336W        W21596   3.305  12.737   2.899
49337W        W21597  43.307   8.842   5.234
49338W        W21598  19.093  19.207  14.365
49339W        W21599   4.929  21.531   3.770
49340W        W21600  38.047  22.738  14.902
49341W        W21601  13.629  23.692  12.028
49342W        W21602  19.068  10.643  12.892
49343W        W21603  39.524  19.274   2.391
49344W        W21604  16.173  33.093  12.840
49345W        W21605  43.002   4.420  13.876
49346W        W21606  34.024  42.942  12.486
49347W        W21607  25.587  23.241   1.855
49348W        W21608   8.773  39.352  13.939
49349W        W21609  41.493  16.594  12.032
49350W        W21610   6.182  20.085  14.805
49351W        W21611  16.598  27.008  10.503
49352W        W21612  36.469   2.751   1.754
49353W        W21613   8.376  26.688  12.935
49354W        W21614   4.912  35.422  13.895
49355W        W21615  28.474  37.032   3.272
49356W        W21616  30.462  22.688   4.282
49357W        W21617  23.156   8.336   0.434
49358W        W21618  19.734  25.194   1.744
49359W        W21619  12.853   0.249   4.144
49360W        W21620  14.312  38.859  10.968
49361W        W21621  21.093  14.597   3.705
49362W        W21622  29.079  31.554  11.926
49363W        W21623  19.066  18.599  12.067
49364W        W21624  38.395  27.524  12.382
49365W        W21625  23.616  15.707   1.886
49366W        W21626  23.005   4.292   2.674
49367W        W21627  23.986  23.563   0.931
49368W        W21628   5.204  27.093  14.782
49369W        W21629   2.245  22.571  13.408
49370W        W21630  36.419  20.596   4.675
49371W        W21631  44.291  12.619   1.900
49372W        W21632  25.178  44.486   0.861
49373W        W21633  20.693  31.079  12.900
49374W        W21634   2.917  42.828  14.023
49375W        W21635  20.614  33.945  13.357
49376W        W21636   2.401   8.898   2.832
49377W        W21637  11.832  41.919   4.733
49378W        W21638  10.744  28.936  11.596
49379W        W21639  30.657   3.864   3.324
49380W        W21640  35.075  36.511   1.329
49381W        W21641  31.500  35.999  12.987
49382W        W21642  38.327  39.339  13.361
49383W        W21643  38.887  18.052   2.253
49384W        W21644  41.979  25.651   3.222
49385W        W21645   7.839  21.687   0.956
49386W        W21646  43.780  10.282  10.433
49387W        W21647  42.798   9.771   4.692
49388W        W21648  12.756  22.620  12.908
49389W        W21649  16.100  18.737   1.411
49390W        W21650  22.108   3.404   3.750
49391W        W21651   1.825  42.486   4.769
49392W        W21652  23.225  40.436   3.358
49393W        W21653   6.876  31.634   4.303
49394W        W21654  36.570  23.627   1.443
49395W        W21655  29.047  29.133  12.921
49396W        W21656  30.061  29.496   0.420
49397W        W21657  39.871  43.339  13.472
49398W        W21658  30.540  40.412  12.956
49399W        W21659  31.025  39.540  11.916
49400W        W21660  30.055  21.559   2.821
49401W        W21661   9.760  44.450   0.835
49402W        W21662  25.998  14.796  13.930
49403W        W21663   6.872  32.588   4.210
49404W        W21664  24.682  44.814  13.535
49405W        W21665  44.334  35.947   4.267
49406W        W21666   2.947  28.980  14.925
49407W        W21667   1.860  34.381  12.391
49408W        W21668   9.201  23.028   3.374
49409W        W21669  16.128  35.048  10.436
49410W        W21670   5.794  28.159  13.475
49411W        W21671  24.146  17.774   1.239
49412W        W21672  44.476  30.060   2.726
49413W        W21673  41.916   7.366   0.310
49414W        W21674  26.965  21.723   3.729
49415W        W21675  13.144  34.415  10.094
49416W        W21676  26.667  27.086   2.872
49417W        W21677  39.329  13.316   4.598
49418W        W21678   6.296  12.837   3.282
49419W        W21679  43.503  16.581   1.724
49420W        W21680  15.139   2.229  13.936
49421W        W21681  43.428   6.315   3.718
49422W        W21682  35.478  34.052   2.411
49423W        W21683  26.159  28.146  13.939
49424W        W21684   5.925   7.370  11.375
49425W        W21685  24.558  43.859   0.341
49426W        W21686  31.944  12.710   1.931
49427W        W21687  40.814  27.173  13.877
49428W        W21688  32.416  13.669  11.448
49429W        W21689  43.433  29.520   3.241
49430W        W21690  40.850  15.769   4.607
49431W        W21691  23.553  20.659   5.144
49432W        W21692  10.768  12.140  14.028
49433W        W21693  37.905  14.324   4.318
49434W        W21694  29.078   4.769   1.745
49435W        W21695  15.714  21.080   5.116
49436W        W21696  19.102   3.915  10.427
49437W        W21697  28.973  24.102  12.037
49438W        W21698  31.943  13.290  13.307
49439W        W21699  18.183  41.982  14.358
49440W        W21700  16.220   2.236   1.281
49441W        W21701  28.528  26.672   3.865
49442W        W21702  18.147  12.240   1.932
49443W        W21703  11.778  14.102   3.666
49444W        W21704  35.566  31.128   2.745
49445W        W21705  27.554  23.558   4.699
49446W        W21706  35.532  44.484  13.385
49447W        W21707  33.541  25.213  14.971
49448W        W21708  42.388  39.438  11.890
49449W        W21709  19.285  23.612   1.326
49450W        W21710   1.843  40.509   3.747
49451W        W21711   7.303   9.299   3.245
49452W        W21712  16.606   9.183   2.672
49453W        W21713  34.047  20.763   4.673
49454W        W21714   3.733  28.126   3.275
49455W        W21715   4.744  26.459  13.846
49456W        W21716   5.436  30.021  14.450
49457W        W21717  12.354  33.120  13.532
49458W        W21718  41.405  44.295   0.319
49459W        W21719   1.480  29.128  11.932
49460W        W21720  30.413   5.811   4.663
49461W        W21721  15.272  20.268  14.844
49462W        W21722  22.102  29.037   2.875
49463W        W21723  36.073  42.308  10.625
49464W        W21724  17.760  34.044  12.833
49465W        W21725   4.808  30.991   3.180
49466W        W21726  37.522  35.574   4.170
49467W        W21727  15.276  29.486   2.241
49468W        W21728  41.292  34.968   3.686
49469W        W21729  18.629  43.792   3.753
49470W        W21730  24.172  28.004  12.052
49471W        W21731  21.623  23.049  10.987
49472W        W21732   5.195  32.553  13.940
49473W        W21733  40.481   0.478   0.358
49474W        W21734  32.449  18.731  14.400
49475W        W21735  18.051  19.122  13.474
49476W        W21736  20.113  15.230   4.139
49477W        W21737  16.107   7.699  13.432
49478W        W21738  24.670  19.720  11.469
49479W        W21739   5.316  44.933   0.905
49480W        W21740  33.531  13.175   2.715
49481W        W21741  38.338  17.603  11.577
49482W        W21742   2.733  39.859  14.483
49483W        W21743  16.198  33.017  10.425
49484W        W21744   0.445   1.258   4.162
49485W        W21745  13.734  43.771   0.425
49486W        W21746  41.806  40.451  14.876
49487W        W21747  15.798  13.601  11.986
49488W        W21748  13.136  16.266   1.832
49489W        W21749   9.355   7.837  10.900
49490W        W21750   5.345  16.599  12.397
49491W        W21751  35.857  11.309  13.978
49492W        W21752  32.995   6.334   1.895
49493W        W21753  39.033  21.258  13.355
49494W        W21754   2.313   0.984   3.259
49495W        W21755   0.833   3.316   4.248
49496W        W21756  41.976  32.993  10.428
49497W        W21757  17.645  42.295  12.902
49498W        W21758  27.195  24.174   0.438
49499W        W21759  43.833  26.682  13.431
49500W        W21760  16.643   2.728   0.346
49501W        W21761   4.265  24.182  14.467
49502W        W21762  40.835  15.713   5.152
49503W        W21763   2.873  36.531  14.961
49504W        W21764  40.426  20.544   0.395
49505W        W21765  21.584  27.476   5.277
49506W        W21766  23.075   2.883   2.231
49507W        W21767  20.192   5.690   3.164
49508W        W21768  32.136   9.829   0.437
49509W        W21769  18.614  18.613   2.808
49510W        W21770  16.240   2.831   4.672
49511W        W21771  34.941  40.453  11.870
49512W        W21772  27.679  25.549  10.901
49513W        W21773  25.567  10.680   1.751
49514W        W21774  12.246  18.755   1.836
49515W        W21775  31.439   1.744  12.063
49516W        W21776  20.660  32.512  11.915
49517W        W21777  40.801  17.578  14.775
49518W        W21778  24.213   4.205  14.305
49519W        W21779  43.998  22.131  12.459
49520W        W21780  39.555   4.443   4.139
49521W        W21781   8.829  21.104  10.533
49522W        W21782  38.898  39.497   1.772
49523W        W21783  28.186   7.869  14.312
49524W        W21784  28.127  17.736   3.676
49525W        W21785   9.799  43.920   0.287
49526W        W21786  38.998  36.365   1.812
49527W        W21787  10.174  20.083  11.494
49528W        W21788  23.632  33.613  12.858
49529W        W21789   6.403  42.785   4.717
49530W        W21790  43.865  23.542   2.301
49531W        W21791   4.300  27.038   0.827
49532W        W21792   0.859  20.553   3.230
49533W        W21793  13.286   4.858  14.298
49534W        W21794  20.062   0.406   0.297
49535W        W21795   2.415  17.634   0.853
49536W        W21796   2.447   6.393  14.444
49537W        W21797   3.792  33.112  11.056
49538W        W21798  40.005  11.249  11.394
49539W        W21799  36.093  32.893  14.795
49540W        W21800  26.052  29.961  12.001
49541W        W21801  38.365  19.590  14.423
49542W        W21802  32.507  39.548  11.486
49543W        W21803  10.781  15.635  14.856
49544W        W21804  12.198   6.730  13.457
49545W        W21805   3.866   9.649   3.188
49546W        W21806  22.678   2.408   4.144
49547W        W21807  11.743  41.323  14.283
49548W        W21808   4.817  29.564  13.434
49549W        W21809  29.629   2.793  13.851
49550W        W21810  39.838  38.479  10.432
49551W        W21811   1.399  35.911  12.823
49552W        W21812  19.285  11.291  14.890
49553W        W21813  29.952  41.915  14.871
49554W        W21814  21.213  13.602   4.768
49555W        W21815  18.174  29.083   4.785
49556W        W21816  29.508  13.691   2.721
49557W        W21817   3.772  41.875   4.648
49558W        W21818   8.334  39.550  11.101
49559W        W21819  43.350   2.340   2.704
49560W        W21820  41.812  28.457  13.060
49561W        W21821  12.185   2.837  12.398
49562W        W21822  26.021   5.909  14.845
49563W        W21823  37.486  11.744  14.302
49564W        W21824  23.731  44.836  14.819
49565W        W21825  17.266  40.886  14.000
49566W        W21826  42.490  12.718   1.234
49567W        W21827   8.384  18.654  14.832
49568W        W21828  17.743  13.642  10.588
49569W        W21829  25.144  43.889  12.907
49570W        W21830  32.512  10.148  14.827
49571W        W21831  19.695  26.507   2.352
49572W        W21832  37.850  20.706   1.933
49573W        W21833   1.383   1.459  13.388
49574W        W21834   7.705  30.908  13.878
49575W        W21835  18.699  25.016  13.870
49576W        W21836  42.367   4.779  12.057
49577W        W21837   5.284  39.492  13.885
49578W        W21838   0.857  15.144  10.510
49579W        W21839   3.261  29.027   0.267
49580W        W21840  28.482  11.312   4.720
49581W        W21841   7.878   0.837  14.393
49582W        W21842  25.564  26.563   2.304
49583W        W21843  29.044   9.847  10.459
49584W        W21844   9.294  17.208   3.213
49585W        W21845   0.321  37.498   2.393
49586W        W21846  43.365  40.541   0.253
49587W        W21847  37.841  35.856   4.720
49588W        W21848  19.594  22.538  13.377
49589W        W21849  16.213  25.634  11.039
49590W        W21850  16.672  24.719   3.659
49591W        W21851  23.223  29.920  11.861
49592W        W21852   1.749  20.546  13.349
49593W        W21853   3.394  18.098   3.326
49594W        W21854  32.094  40.494  13.860
49595W        W21855  36.397  18.550   0.451
49596W        W21856  18.719  26.060  11.576
49597W        W21857   5.700   9.668  14.301
49598W        W21858  43.948  28.028  14.983
49599W        W21859  40.989  11.130   1.359
49600W        W21860   3.834   1.335  11.096
49601W        W21861  39.017   3.238   2.317
49602W        W21862  15.109  10.219   0.385
49603W        W21863  17.176  44.782   2.663
49604W        W21864  35.393  30.975  14.409
49605W        W21865  15.661  39.373   4.161
49606W        W21866   4.929   5.272  14.433
49607W        W21867  40.963  26.195   0.870
49608W        W21868  10.343   0.267   4.354
49609W        W21869  30.480   8.685   0.737
49610W        W21870  39.378  44.494  14.327
49611W        W21871  41.310  30.155   1.844
49612W        W21872   8.831  10.822  11.530
49613W        W21873  25.034  26.475   3.778
49614W        W21874  35.376  12.182   1.350
49615W        W21875  20.196   7.205  10.435
49616W        W21876   5.922   4.239  12.880
49617W        W21877   8.765   0.751  14.767
49618W        W21878   9.334  27.559  14.007
49619W        W21879  38.076  33.444  12.915
49620W        W21880  12.198  21.641   0.356
49621W        W21881  26.088   6.217   0.872
49622W        W21882  11.349  15.284   1.812
49623W        W21883  14.626   0.911  13.019
49624W        W21884  13.217  16.768  11.557
49625W        W21885   0.392  23.622   3.269
49626W        W21886   6.713   0.341   1.747
49627W        W21887  35.886   0.354  11.381
49628W        W21888  27.135  27.040  14.028
49629W        W21889  20.240  34.097  11.987
49630W        W21890  29.159  25.161   3.260
49631W        W21891  29.600   5.281  12.000
49632W        W21892   6.379  19.098   0.478
49633W        W21893   7.755  18.086  14.994
49634W        W21894  41.457  21.237  13.931
49635W        W21895  29.663  13.256  14.814
49636W        W21896  43.290  34.597   3.863
49637W        W21897   8.345   1.827  14.926
49638W        W21898   0.274  22.713   0.897
49639W        W21899  21.041   6.281  11.504
49640W        W21900   9.755  10.646  13.877
49641W        W21901  18.096  35.481   2.693
49642W        W21902  11.181  36.034   2.668
49643W        W21903  19.160  25.089  14.511
49644W        W21904  15.144  25.542   0.319
49645W        W21905   1.281   0.918  10.426
49646W        W21906   5.342  12.239   3.240
49647W        W21907  18.586  10.811   0.955
49648W        W21908  26.462  24.214  11.415
49649W        W21909  25.531  35.929   1.739
49650W        W21910   3.416   8.305  10.533
49651W        W21911  38.486  25.659   0.280
49652W        W21912  16.106  40.026   0.317
49653W        W21913  29.489  21.674  12.353
49654W        W21914  17.179  35.539  14.413
49655W        W21915   2.849  27.560  12.473
49656W        W21916  43.011  25.206  10.569
49657W        W21917  11.662   7.899  13.833
49658W        W21918  29.065  39.933   4.815
49659W        W21919  16.092  40.974   3.293
49660W        W21920  40.445   1.762  10.615
49661W        W21921  41.024   1.252  10.912
49662W        W21922  31.101  30.933   0.349
49663W        W21923   7.853  28.648   3.700
49664W        W21924  11.302   5.752  12.488
49665W        W21925  38.418  28.138  12.516
49666W        W21926  25.099  35.054   1.895
49667W        W21927  16.574  34.583  12.054
49668W        W21928  35.410   2.770   1.348
49669W        W21929  26.093  18.599   2.351
49670W        W21930   2.250  39.947   4.209
49671W        W21931  16.757   5.760   5.188
49672W        W21932  21.754  36.957   4.654
49673W        W21933  24.209   9.361   1.914
49674W        W21934   9.859   9.239   2.823
49675W        W21935   6.791  13.146   4.659
49676W        W21936  12.276  29.921  13.001
49677W        W21937  16.812  37.918   1.274
49678W        W21938  35.579  35.375   1.290
49679W        W21939  33.956  16.781  14.823
49680W        W21940  38.528  43.365   1.911
49681W        W21941  35.434   2.733  10.611
49682W        W21942  16.295  19.211   3.713
49683W        W21943   7.255  44.297   1.384
49684W        W21944  43.005  30.132  14.965
49685W        W21945  11.301  16.138   0.253
49686W        W21946  30.159  43.824  12.377
49687W        W21947  33.013  30.458   0.899
49688W        W21948  18.082  15.172  14.356
49689W        W21949  23.178  29.656  13.907
49690W        W21950  18.625  11.213   2.328
49691W        W21951   3.338  20.074  13.057
49692W        W21952  35.067  44.840  12.514
49693W        W21953   0.895  19.088  14.301
49694W        W21954  29.608  37.461  12.874
49695W        W21955  21.193  28.053   1.421
49696W        W21956  28.151  30.922   3.188
49697W        W21957  21.582   3.907  14.898
49698W        W21958  18.073  41.526  10.530
49699W        W21959  36.388  42.000  12.397
49700W        W21960  11.150   5.205   1.364
49701W        W21961  35.876  40.015  13.034
49702W        W21962  31.403   5.774   3.839
49703W        W21963  19.077  42.854   2.180
49704W        W21964   7.702  41.027  10.895
49705W        W21965   0.976  35.381  10.427
49706W        W21966  29.616  41.922   1.376
49707W        W21967  30.977  17.159   2.242
49708W        W21968   0.351  21.108  11.000
49709W        W21969  27.040  43.409  12.433
49710W        W21970  23.655  28.056   5.677
49711W        W21971  26.170  32.892   2.390
49712W        W21972   4.338  12.745   3.727
49713W        W21973  25.093  17.587   0.418
49714W        W21974  18.755  21.118  14.302
49715W        W21975  18.130  17.239  10.961
49716W        W21976   8.809   0.385   2.821
49717W        W21977  20.722  11.708   3.203
49718W        W21978   6.186   9.837   2.835
49719W        W21979  39.361   6.765  12.057
49720W        W21980   1.778  24.661  14.886
49721W        W21981  10.200   2.354   0.809
49722W        W21982   8.179  11.259  13.449
49723W        W21983  27.670  21.530   2.341
49724W        W21984   6.218  27.996   9.927
49725W        W21985  39.019  22.092  14.934
49726W        W21986   1.777  31.029  12.975
49727W        W21987  25.689  16.719   3.287
49728W        W21988  31.010  44.767   4.700
49729W        W21989  39.061   6.817   1.292
49730W        W21990   2.338  33.570   4.278
49731W        W21991  33.573  15.580  14.411
49732W        W21992  37.488  11.144  11.406
49733W        W21993  15.143  28.017  10.949
49734W        W21994  17.634   7.286  10.624
49735W        W21995  19.172  32.970   3.860
49736W        W21996  20.733   1.786  10.455
49737W        W21997  12.142  40.874  10.967
49738W        W21998  30.582   4.402   1.752
49739W        W21999  36.067  20.166  14.413
49740W        W22000  39.428  35.967   0.425
49741W        W22001  43.454   1.872  10.964
49742W        W22002  21.745  28.485  13.457
49743W        W22003  20.114  33.950  11.457
49744W        W22004  30.001  21.074   3.670
49745W        W22005  42.444  40.500   1.806
49746W        W22006  32.438  33.418  11.499
49747W        W22007  36.513  34.906  12.995
49748W        W22008   8.677  18.620  13.822
49749W        W22009  40.322  17.162  10.142
49750W        W22010  29.608  22.022  14.408
49751W        W22011   3.255  19.676   4.113
49752W        W22012  30.546   0.485  10.474
49753W        W22013  36.842  14.314   4.305
49754W        W22014  19.576  22.223  14.943
49755W        W22015  19.537  15.723   4.300
49756W        W22016  22.706  27.163  12.047
49757W        W22017  17.295  33.045  14.305
49758W        W22018   0.831  16.147  13.374
49759W        W22019  27.687   8.362  14.459
49760W        W22020  12.311   2.401  11.448
49761W        W22021  33.878  17.126  11.459
49762W        W22022  26.174  41.809   1.449
49763W        W22023  13.331  35.458  11.611
49764W        W22024   5.861  23.645   2.699
49765W        W22025  11.700   4.445   4.681
49766W        W22026  20.722  30.986  10.440
49767W        W22027  33.052  36.034   0.317
49768W        W22028  36.490  35.409   3.745
49769W        W22029  41.450  27.470  11.430
49770W        W22030  19.051  24.574   2.670
49771W        W22031  18.712   4.371  11.015
49772W        W22032  19.094   2.393  14.939
49773W        W22033  15.720  29.480   1.933
49774W        W22034  38.550  25.625   3.329
49775W        W22035  44.270  20.197  11.585
49776W        W22036   2.409  24.634   2.685
49777W        W22037  44.848  35.451  12.470
49778W        W22038  42.013   8.868  14.506
49779W        W22039  25.486  24.198  13.806
49780W        W22040   4.766  38.373   2.699
49781W        W22041  40.363   4.378   4.299
49782W        W22042  43.486  21.102   1.399
49783W        W22043  28.499  29.923  10.908
49784W        W22044   1.808  33.560   1.374
49785W        W22045  16.638  31.567  10.597
49786W        W22046  27.101   7.779   1.251
49787W        W22047   6.823  37.351   3.188
49788W        W22048  30.934  25.706   0.782
49789W        W22049  17.643  11.322  11.009
49790W        W22050  21.630  39.503   2.289
49791W        W22051   4.265  17.071   0.394
49792W        W22052   7.248  40.497   2.757
49793W        W22053  11.316   3.732  14.466
49794W        W22054  33.380  44.756   3.848
49795W        W22055  21.569  12.312  10.545
49796W        W22056   3.925  24.720  13.393
49797W        W22057   8.840  35.451  14.030
49798W        W22058   9.714   7.204   2.849
49799W        W22059  32.461  39.416   4.187
49800W        W22060  23.005   8.234   1.877
49801W        W22061  30.919  16.100  11.385
49802W        W22062  21.144  38.336   2.726
49803W        W22063  15.157   7.911  14.989
49804W        W22064   5.287   0.466   3.244
49805W        W22065  34.440  16.759  14.843
49806W        W22066  10.819  28.027  10.146
49807W        W22067  14.291  12.233  11.014
49808W        W22068  12.783   8.203  11.583
49809W        W22069   0.801  14.825   1.392
49810W        W22070  21.755   5.745   2.813
49811W        W22071  25.498  44.412   4.781
49812W        W22072  21.531  35.049  12.421
49813W        W22073  29.159  20.635  12.377
49814W        W22074  10.256   8.400  10.903
49815W        W22075  31.512  27.512   0.856
49816W        W22076  19.067  31.413   0.423
49817W        W22077  24.581  41.026  11.590
49818W        W22078  10.656  17.289  11.483
49819W        W22079  10.230  42.834   0.369
49820W        W22080  18.753  12.307   3.791
49821W        W22081  16.083  16.792  15.000
49822W        W22082   0.333  28.578   0.869
49823W        W22083  22.621  19.077  10.141
49824W        W22084  31.515  25.586  13.952
49825W        W22085   8.782  34.955  14.433
49826W        W22086  44.877  14.822   3.726
49827W        W22087  19.568  24.058  10.643
49828W        W22088  38.487  38.359  10.425
49829W        W22089  29.010  10.225   1.809
49830W        W22090  18.583  12.294   2.772
49831W        W22091  44.956   9.772  14.483
49832W        W22092  28.600   7.352   4.238
49833W        W22093  21.574   6.772   0.760
49834W        W22094  38.342  10.223   0.270
49835W        W22095   1.316  20.185  11.056
49836W        W22096  33.883   7.721  12.048
49837W        W22097  32.895  19.621  11.456
49838W        W22098  15.124  41.359   2.367
49839W        W22099  12.846  25.644  14.500
49840W        W22100   1.841  29.156   2.872
49841W        W22101  29.974  44.821   0.949
49842W        W22102  30.940  12.686  13.982
49843W        W22103  32.491   2.743   2.187
49844W        W22104   4.272  26.952   9.627
49845W        W22105  43.972  18.192   2.293
49846W        W22106  11.210  16.784   3.771
49847W        W22107  35.476  30.020   4.320
49848W        W22108   5.931  11.316   2.210
49849W        W22109  39.484   7.825   2.678
49850W        W22110  33.480  40.842   4.804
49851W        W22111  13.321   1.309  10.558
49852W        W22112  27.189  21.173  10.959
49853W        W22113  41.392  44.755  11.901
49854W        W22114  42.900  34.972   3.805
49855W        W22115   7.709  39.849   0.780
49856W        W22116  16.635   2.896  14.310
49857W        W22117  18.589  33.391   2.718
49858W        W22118   6.259   7.327   4.311
49859W        W22119  40.931  30.544  11.424
49860W        W22120   4.822  16.092  11.415
49861W        W22121  44.829   6.885   3.744
49862W        W22122  35.468  31.899   2.703
49863W        W22123  32.915  11.207   4.131
49864W        W22124   0.360   1.950   0.893
49865W        W22125   4.708   0.887   1.895
49866W        W22126  17.210  13.351  11.550
49867W        W22127  30.518  34.061   0.465
49868W        W22128   3.408  25.055  11.385
49869W        W22129  43.990   8.344  14.918
49870W        W22130   1.277  12.145  12.078
49871W        W22131  43.391  12.657  11.530
49872W        W22132  11.809   2.259  10.943
49873W        W22133  31.912  22.721  14.459
49874W        W22134  27.519  23.029  11.416
49875W        W22135  42.479  17.792  12.838
49876W        W22136   1.436  18.119   4.338
49877W        W22137   0.799  11.221   0.397
49878W        W22138  39.324  31.526   4.617
49879W        W22139  15.172  29.100  14.462
49880W        W22140   0.953  44.476   3.858
49881W        W22141  26.603  21.174   2.271
49882W        W22142  17.563   9.795   4.128
49883W        W22143  17.223   3.773   3.629
49884W        W22144  16.190  32.122  10.469
49885W        W22145  14.239  37.003  12.488
49886W        W22146   9.380  10.295  10.508
49887W        W22147  25.545   8.350   2.380
49888W        W22148   6.258  20.673  13.447
49889W        W22149  43.374  22.719  10.140
49890W        W22150  40.806  34.995  13.487
49891W        W22151  14.613   8.318   4.209
49892W        W22152  43.428  13.181   1.320
49893W        W22153  27.495   2.302  10.487
49894W        W22154   0.436  26.470   4.325
49895W        W22155  32.441  19.186   4.756
49896W        W22156  14.198  31.009   5.150
49897W        W22157   4.853   2.949   4.280
49898W        W22158  42.292  32.052   3.859
49899W        W22159  29.583   6.270   0.822
49900W        W22160  19.046  31.482  10.573
49901W        W22161  24.055  11.328  13.922
49902W        W22162  20.234  20.745   2.209
49903W        W22163  23.202  13.716  10.903
49904W        W22164  21.512  25.680   3.809
49905W        W22165  21.752  13.146  13.898
49906W        W22166  26.578  33.489  14.804
49907W        W22167  36.875  41.941  12.445
49908W        W22168  22.607  21.180   1.864
49909W        W22169   0.790  27.122   4.797
49910W        W22170  23.604   5.742  13.457
49911W        W22171   3.256  35.493  12.416
49912W        W22172  18.788  30.923   0.840
49913W        W22173  29.580  14.229  14.279
49914W        W22174   6.281   1.914  14.409
49915W        W22175  22.110  43.791   1.276
49916W        W22176   5.402  11.797   3.630
49917W        W22177  38.876  17.189  10.145
49918W        W22178  30.498  11.267   2.669
49919W        W22179  37.873  14.102   4.732
49920W        W22180   0.820  21.565  14.348
49921W        W22181  10.200  36.518   4.288
49922W        W22182   9.725   6.309   1.935
49923W        W22183  35.461  35.855   4.343
49924W        W22184   7.327   0.981  13.326
49925W        W22185  28.592  12.835   4.812
49926W        W22186  21.526  44.406  13.967
49927W        W22187  17.677  36.899  11.028
49928W        W22188   7.683   5.689  12.975
49929W        W22189  23.585  19.587  14.853
49930W        W22190  30.965  26.074  12.407
49931W        W22191   7.685  37.525  12.885
49932W        W22192   5.342  42.375  10.534
49933W        W22193  19.618   8.768  14.941
49934W        W22194   7.388   8.798   2.309
49935W        W22195  32.633  19.617  11.599
49936W        W22196  18.660  30.526   1.431
49937W        W22197  29.041  30.990  14.406
49938W        W22198  36.026  15.265   0.378
49939W        W22199  21.703  29.585   0.849
49940W        W22200  40.959  19.123   0.957
49941W        W22201   3.325  30.016   2.793
49942W        W22202  17.700  11.263  13.345
49943W        W22203   7.768   8.870   3.176
49944W        W22204   2.346  34.432  11.563
49945W        W22205   4.875  11.848   4.684
49946W        W22206  43.984   5.881   1.355
49947W        W22207  24.032  37.911   4.120
49948W        W22208  10.338  43.807   1.372
49949W        W22209  19.171  30.532   2.332
49950W        W22210  23.027  31.493   0.781
49951W        W22211  25.602   5.338   1.233
49952W        W22212  37.061  27.633   1.908
49953W        W22213  35.603  28.573   4.299
49954W        W22214   5.431  44.481  13.402
49955W        W22215  14.825  38.517   0.822
49956W        W22216  32.424  29.492   3.679
49957W        W22217  10.306   0.435  11.073
49958W        W22218  32.944  31.053   1.809
49959W        W22219  16.186  34.506   3.819
49960W        W22220   5.363   3.334  11.534
49961W        W22221  37.989  36.532  10.603
49962W        W22222  15.104   8.858   2.178
49963W        W22223  36.869  31.120  12.072
49964W        W22224   3.756  10.174  12.980
49965W        W22225  29.998  34.967  13.945
49966W        W22226  29.117   2.241   3.823
49967W        W22227  44.888   5.200   3.804
49968W        W22228  12.637  12.643   2.711
49969W        W22229  26.116  12.651   0.429
49970W        W22230   2.966   8.792   0.840
49971W        W22231  14.176  21.220   0.858
49972W        W22232  17.114   7.189   1.390
49973W        W22233   7.226  34.433  11.574
49974W        W22234  34.496  39.842   1.365
49975W        W22235  44.403  42.390  12.844
49976W        W22236  26.612  17.618   4.260
49977W        W22237   5.277  13.292  13.422
49978W        W22238   7.785  31.898  12.570
49979W        W22239  16.590   0.984   0.785
49980W        W22240   6.868   3.805  11.569
49981W        W22241  12.242  20.601   1.427
49982W        W22242  40.894  34.056  12.439
49983W        W22243   1.467   8.705  12.370
49984W        W22244  44.979  27.514  11.600
49985W        W22245  25.607  25.033   0.296
49986W        W22246  16.777  42.819  11.964
49987W        W22247   5.353  19.153   1.447
49988W        W22248  28.669   5.729  14.876
49989W        W22249  34.551  42.336  11.878
49990W        W22250  30.916  36.445  12.008
49991W        W22251  34.374  12.121  14.292
49992W        W22252  32.575  36.530  14.771
49993W        W22253   2.923   9.348   1.796
49994W        W22254  35.879  20.086  12.515
49995W        W22255  14.673  17.210  11.569
49996W        W22256  43.890  29.024  14.817
49997W        W22257  16.716  36.553   3.754
49998W        W22258  44.449   4.876   1.330
49999W        W22259  27.021   3.341   4.224
50000W        W22260  19.608  42.427   1.854
50001W        W22261  29.568  12.694  11.125
50002W        W22262  42.525  39.363  14.011
50003W        W22263  43.774  29.525   0.291
50004W        W22264  43.400  26.558  13.944
50005W        W22265  34.588  42.838   2.867
50006W        W22266  12.270   0.357   3.719
50007W        W22267  31.600   6.283   4.731
50008W        W22268   3.906  41.793   1.710
50009W        W22269  36.557  34.880   2.205
50010W        W22270  41.517  22.112   2.701
50011W        W22271  10.849  14.249  14.314
50012W        W22272  11.668   1.753  11.101
50013W        W22273   3.341   3.402   2.821
50014W        W22274  32.504  24.138   0.473
50015W        W22275  17.655  18.790   2.417
50016W        W22276  30.606  16.208   4.261
50017W        W22277  14.139  17.706   3.706
50018W        W22278  32.986  12.163  10.529
50019W        W22279  15.085   8.394   2.349
50020W        W22280  38.515  43.010  12.560
50021W        W22281  10.696  20.588  12.429
50022W        W22282   4.299   3.901  10.955
50023W        W22283  13.637  18.598  14.771
50024W        W22284   0.310  29.106   4.822
50025W        W22285  26.126  13.648  12.580
50026W        W22286  41.911  27.944  11.942
50027W        W22287  42.397  31.569  13.045
50028W        W22288  40.544  27.069   3.160
50029W        W22289  24.680  22.242   2.738
50030W        W22290  22.654  29.507   2.869
50031W        W22291   6.893  24.037  13.426
50032W        W22292  24.717  31.533   2.379
50033W        W22293  22.622  23.042  11.451
50034W        W22294  38.056  24.187   1.281
50035W        W22295   1.852  37.059   3.768
50036W        W22296   8.750  19.737   1.736
50037W        W22297  44.272   6.189  10.499
50038W        W22298  38.056  39.979  11.987
50039W        W22299  31.428   1.740   1.302
50040W        W22300   8.743  24.725   1.365
50041W        W22301  30.967  37.068  13.795
50042W        W22302  35.444   4.767  14.863
50043W        W22303  21.567  25.063   4.617
50044W        W22304  29.067  11.156  11.550
50045W        W22305  19.703  43.390  11.969
50046W        W22306  19.137   6.213  10.996
50047W        W22307  13.723  14.138   4.128
50048W        W22308  32.910  14.604  12.413
50049W        W22309  39.342   1.750  12.451
50050W        W22310  40.964  44.992   1.307
50051W        W22311  19.756  15.111   4.607
50052W        W22312  43.349   8.360  14.321
50053W        W22313   1.912  17.088  13.465
50054W        W22314  38.047  22.621  10.642
50055W        W22315  33.411  29.068  13.859
50056W        W22316  13.139  41.841  14.359
50057W        W22317  16.595  30.525   0.902
50058W        W22318   7.374  13.197  12.902
50059W        W22319  43.425  27.504  11.547
50060W        W22320  36.457  20.213  10.560
50061W        W22321  42.420  32.456  10.406
50062W        W22322  43.388   0.439  12.868
50063W        W22323  21.537  11.367   2.248
50064W        W22324  44.400  17.155   4.668
50065W        W22325  16.632  33.611   4.156
50066W        W22326  16.285   8.802   1.826
50067W        W22327  21.190   3.833  13.809
50068W        W22328  31.532  18.158  14.395
50069W        W22329   1.931  15.278  13.886
50070W        W22330  12.856  20.662  11.546
50071W        W22331  44.913  11.128   0.255
50072W        W22332  34.930  29.445   0.255
50073W        W22333   7.675   5.300   4.117
50074W        W22334  19.604  39.003   2.804
50075W        W22335   7.243  15.703   4.813
50076W        W22336   0.884  37.837   3.237
50077W        W22337  24.079  33.932   0.426
50078W        W22338  24.493   8.297   1.438
50079W        W22339   6.210  30.000   1.931
50080W        W22340  23.196  38.844   2.882
50081W        W22341  35.013  39.560  11.018
50082W        W22342  23.500  16.271   0.902
50083W        W22343   2.387  21.067   4.237
50084W        W22344  38.544   8.298  11.534
50085W        W22345  17.729  26.126  13.887
50086W        W22346  38.491  15.135   4.603
50087W        W22347  22.018  28.644  14.395
50088W        W22348   5.197  16.741   1.255
50089W        W22349  41.310  10.201  14.941
50090W        W22350  38.941  17.594  10.990
50091W        W22351  31.568  17.701   0.395
50092W        W22352  40.532  31.088   3.787
50093W        W22353   8.733  19.716  11.884
50094W        W22354  41.307  10.798  14.419
50095W        W22355  22.172  17.642   0.878
50096W        W22356  19.729  42.958   1.880
50097W        W22357   2.804  36.371  13.416
50098W        W22358  22.085  35.852  14.851
50099W        W22359  26.010  23.033  12.348
50100W        W22360   1.300  14.670  13.950
50101W        W22361  28.140  26.648  13.808
50102W        W22362   4.400   0.865  14.331
50103W        W22363   9.210   3.744  14.782
50104W        W22364  43.862  32.100  10.911
50105W        W22365  31.638  31.490   0.279
50106W        W22366   8.346  22.574   0.274
50107W        W22367   3.919  23.588   0.322
50108W        W22368  29.068  14.829   3.734
50109W        W22369   8.172  33.963  12.968
50110W        W22370  19.192  27.524   3.257
50111W        W22371   4.351  21.080  12.999
50112W        W22372  29.430  39.975   0.890
50113W        W22373  32.484   2.777  14.995
50114W        W22374  34.372  39.012  13.534
50115W        W22375  27.594  10.797  11.080
50116W        W22376  31.900   2.243   0.789
50117W        W22377  23.161   5.343  14.923
50118W        W22378  29.136  23.217   0.757
50119W        W22379  44.385  12.152   0.934
50120W        W22380  24.509  42.297  14.949
50121W        W22381  12.717   0.778  14.821
50122W        W22382  22.711  30.943   1.720
50123W        W22383   4.811   9.666   2.302
50124W        W22384  26.690  14.588   2.784
50125W        W22385   9.858   6.856  12.370
50126W        W22386  24.033  38.527  13.347
50127W        W22387  44.460  36.465   1.436
50128W        W22388   1.383   6.871  14.772
50129W        W22389  38.406  43.325  12.351
50130W        W22390  35.570  11.633   4.688
50131W        W22391  28.666  43.292   0.921
50132W        W22392  10.372  44.917  14.363
50133W        W22393  15.268  38.436   2.345
50134W        W22394   7.912  19.569  12.945
50135W        W22395  31.037  17.700   1.774
50136W        W22396  30.451   8.889   2.872
50137W        W22397  28.142   3.934  13.418
50138W        W22398   6.702   4.929   3.250
50139W        W22399  22.641  30.582   1.267
50140W        W22400  27.672  41.942  13.439
50141W        W22401  24.075  10.216  13.033
50142W        W22402  12.802  11.639   4.599
50143W        W22403  38.820   2.465   3.275
50144W        W22404  41.323  40.926  12.029
50145W        W22405  23.117  32.031  14.996
50146W        W22406   0.423  13.831  14.012
50147W        W22407  39.469  44.309   4.256
50148W        W22408  13.195   1.873   5.308
50149W        W22409   3.356  14.810   1.282
50150W        W22410  33.382  43.479   3.705
50151W        W22411  27.461  33.603  14.905
50152W        W22412  24.589  30.575  13.526
50153W        W22413  20.248  18.223   3.220
50154W        W22414  21.656  34.487   0.962
50155W        W22415  34.029  31.479   4.654
50156W        W22416  36.544  32.007  10.142
50157W        W22417  28.140  35.550  11.411
50158W        W22418  37.004  24.705  14.864
50159W        W22419  24.196  20.132   0.259
50160W        W22420  16.743  16.255   1.247
50161W        W22421   7.829  44.926   0.898
50162W        W22422  38.944  29.003  10.044
50163W        W22423  30.644  18.717   0.956
50164W        W22424  29.530  26.116  11.968
50165W        W22425  25.684  30.967   3.343
50166W        W22426   1.855  35.001   4.322
50167W        W22427  15.178   2.871  12.015
50168W        W22428  27.080  20.127   3.678
50169W        W22429  11.357  21.171  12.521
50170W        W22430  16.285  29.029  12.882
50171W        W22431   0.435  28.043   3.244
50172W        W22432  37.496  44.292  11.060
50173W        W22433  39.919  14.306  12.975
50174W        W22434  29.514   2.398   3.304
50175W        W22435  38.540  38.379   1.407
50176W        W22436  37.387  33.056   0.924
50177W        W22437  31.516  44.965  13.459
50178W        W22438  16.250  26.620   4.736
50179W        W22439  22.512  16.743   0.368
50180W        W22440  10.377  15.245   5.096
50181W        W22441  39.515  15.171  11.517
50182W        W22442  35.450  38.896  12.829
50183W        W22443  29.010  40.956   1.393
50184W        W22444  15.819  15.209   4.292
50185W        W22445  25.169  16.210   4.638
50186W        W22446  18.681  20.048  11.052
50187W        W22447  17.679   5.895   0.867
50188W        W22448   7.243  27.948   3.356
50189W        W22449  14.768  20.271  14.370
50190W        W22450  37.018   7.808  10.104
50191W        W22451  25.219   5.804  11.017
50192W        W22452  29.931  35.588  12.381
50193W        W22453  39.000  37.438  13.530
50194W        W22454  28.677  15.241   3.781
50195W        W22455  14.710  17.705   1.755
50196W        W22456  14.115  11.750  10.641
50197W        W22457  41.812  12.197  11.876
50198W        W22458   3.355  31.031  13.008
50199W        W22459  30.588  19.728   1.438
50200W        W22460  16.198  44.363  12.876
50201W        W22461  39.047  40.876   0.474
50202W        W22462  33.950  38.916  12.853
50203W        W22463  15.147  44.470   2.823
50204W        W22464  43.431  24.076  12.881
50205W        W22465  38.456  24.571   4.610
50206W        W22466  19.581   7.298   3.806
50207W        W22467  42.491  17.791   4.636
50208W        W22468  21.717   6.729  10.513
50209W        W22469   1.846  18.263   1.928
50210W        W22470  20.591  10.215  12.867
50211W        W22471  14.699  15.199  14.966
50212W        W22472  14.605  31.456  12.574
50213W        W22473  38.919  12.252   0.743
50214W        W22474  10.748   9.664   0.815
50215W        W22475  30.054  43.393  12.974
50216W        W22476   7.755  43.890   3.244
50217W        W22477  27.059  34.017   2.326
50218W        W22478  39.365  27.549   2.210
50219W        W22479   6.300  31.599   4.296
50220W        W22480  36.545  21.609   3.771
50221W        W22481  24.219  23.596  12.858
50222W        W22482  26.099  17.744   0.750
50223W        W22483  33.436  39.927  10.977
50224W        W22484  23.671  25.644   0.254
50225W        W22485  38.997  29.975  10.609
50226W        W22486   3.297  13.115  14.481
50227W        W22487  39.955   4.207  13.945
50228W        W22488  23.512  29.437  14.493
50229W        W22489  17.181  25.063   1.770
50230W        W22490  22.530  25.534  11.448
50231W        W22491   1.264  30.148   0.480
50232W        W22492  44.783  44.776   2.363
50233W        W22493  29.509  40.433   3.633
50234W        W22494  29.079  42.479  10.568
50235W        W22495  38.844   2.912   3.356
50236W        W22496  34.097   7.758   0.792
50237W        W22497   1.467  37.422  13.860
50238W        W22498   0.474  23.055  10.905
50239W        W22499   8.748  14.665   5.275
50240W        W22500   9.709  37.931   2.741
50241W        W22501  36.576  32.574   2.741
50242W        W22502   6.703  28.084   1.344
50243W        W22503  30.605  31.967  14.404
50244W        W22504  37.019   0.325   1.752
50245W        W22505  21.639  39.017  10.038
50246W        W22506  21.234  41.861  11.965
50247W        W22507   9.347   7.277   1.796
50248W        W22508  14.641  32.118   2.780
50249W        W22509   9.721  34.535  11.900
50250W        W22510  38.406  16.670   3.775
50251W        W22511  44.264  19.068  13.063
50252W        W22512  22.065  37.552   2.829
50253W        W22513  41.394  15.129  11.929
50254W        W22514  11.341   1.914  12.979
50255W        W22515  42.832  31.414  13.981
50256W        W22516  13.228  32.437  11.865
50257W        W22517  38.566   7.304  14.912
50258W        W22518  29.482   1.372   4.692
50259W        W22519   6.857  20.176  11.539
50260W        W22520  30.426  40.009  11.568
50261W        W22521  12.317   3.381  13.032
50262W        W22522  39.444  12.647  14.420
50263W        W22523  18.617  18.726  11.098
50264W        W22524  44.974  28.565  12.954
50265W        W22525  34.960  16.255  13.919
50266W        W22526   0.983  28.551  11.453
50267W        W22527  33.537  24.623  11.109
50268W        W22528  27.966  28.489   0.329
50269W        W22529  41.804  41.495  10.034
50270W        W22530  35.898  11.152   4.121
50271W        W22531  41.038   9.263   3.793
50272W        W22532  34.922  29.117  11.864
50273W        W22533  15.252   5.207  12.558
50274W        W22534  31.045  22.580  11.033
50275W        W22535   2.391  40.998  11.947
50276W        W22536  11.623  29.120   3.834
50277W        W22537  27.082  11.370  12.991
50278W        W22538  11.743  35.890   2.384
50279W        W22539  34.931  28.020  11.423
50280W        W22540  31.532  37.510   0.814
50281W        W22541   9.223   5.718   2.342
50282W        W22542  36.958   2.947   3.236
50283W        W22543  27.143  24.050  11.484
50284W        W22544  15.296  44.429  14.430
50285W        W22545  11.736   3.786   2.753
50286W        W22546  17.154   4.825   1.724
50287W        W22547  21.227  39.554  11.934
50288W        W22548  11.678   7.685   2.351
50289W        W22549  22.152  17.668   1.331
50290W        W22550  27.541   0.986   2.352
50291W        W22551   7.337  20.232  11.980
50292W        W22552   1.316   5.698  14.029
50293W        W22553  43.996  43.307   3.380
50294W        W22554  12.629  14.182   4.331
50295W        W22555  33.987  38.353  13.947
50296W        W22556  26.581  34.064   4.759
50297W        W22557  30.935  26.504  14.395
50298W        W22558  35.920  13.692  10.546
50299W        W22559  34.113  23.508  10.523
50300W        W22560  13.181  13.177   3.245
50301W        W22561  37.338  31.424  14.351
50302W        W22562  25.513  11.654  14.771
50303W        W22563  33.381   0.362  13.971
50304W        W22564  11.135  37.428  11.531
50305W        W22565  13.803  14.146   4.611
50306W        W22566  42.806  12.165   0.865
50307W        W22567  36.456   8.877  10.500
50308W        W22568  26.637   1.271  13.403
50309W        W22569  39.412  13.308   3.192
50310W        W22570  16.148  28.086  10.613
50311W        W22571  36.875  33.524  13.548
50312W        W22572  14.710   3.414   2.863
50313W        W22573  11.334   3.864  11.084
50314W        W22574  41.436   1.929  14.388
50315W        W22575  43.322  25.006   0.796
50316W        W22576   4.447   5.339  10.930
50317W        W22577  25.660  35.392  12.880
50318W        W22578  36.886  43.778   0.268
50319W        W22579  43.798  35.536  11.583
50320W        W22580  29.430  29.039  11.444
50321W        W22581  27.485   2.273   1.889
50322W        W22582  23.152  33.484  12.395
50323W        W22583  18.053  12.684   4.701
50324W        W22584  36.408  31.153  11.971
50325W        W22585  11.720  12.772  11.573
50326W        W22586   7.717  36.928   3.847
50327W        W22587  43.399  30.434   1.400
50328W        W22588   4.876  17.788  13.946
50329W        W22589  44.883  27.574   4.334
50330W        W22590  31.002   9.218   3.642
50331W        W22591   8.347  18.686  13.531
50332W        W22592  20.760  39.370   2.306
50333W        W22593  19.636  41.873   3.347
50334W        W22594   9.763  22.016  12.854
50335W        W22595  19.563   9.209   0.341
50336W        W22596   3.281  31.090  14.510
50337W        W22597   3.247  42.284  13.018
50338W        W22598  42.975   9.685   0.438
50339W        W22599  33.458  36.430   4.268
50340W        W22600  25.560  38.504   1.911
50341W        W22601   4.929  22.008  11.530
50342W        W22602  31.475  16.200   0.889
50343W        W22603  20.142   9.360   1.856
50344W        W22604  15.670  14.292   1.756
50345W        W22605  41.518  20.196   0.810
50346W        W22606  28.181  30.008   0.917
50347W        W22607  10.351   7.216   1.837
50348W        W22608  32.415  26.575   3.386
50349W        W22609  38.838  41.872   2.698
50350W        W22610  31.912  40.333   4.242
50351W        W22611  37.943  44.455  14.978
50352W        W22612  39.416   0.310   4.652
50353W        W22613  17.715  38.904  14.871
50354W        W22614  11.271  38.876   1.712
50355W        W22615   6.428  40.950  14.922
50356W        W22616   5.894  13.784  11.433
50357W        W22617  20.081  27.478   3.338
50358W        W22618   1.381   8.785   0.795
50359W        W22619  24.134   6.198   2.779
50360W        W22620  41.806  22.173   1.703
50361W        W22621  29.995  23.106   3.650
50362W        W22622  16.130  35.940  12.554
50363W        W22623  28.058  31.402   3.808
50364W        W22624  32.568   1.920  14.453
50365W        W22625  38.378  43.800  13.897
50366W        W22626   9.729  28.629   4.730
50367W        W22627  29.115  33.942   4.253
50368W        W22628  42.526  37.931  11.071
50369W        W22629  27.995  22.230  12.395
50370W        W22630   9.185  28.033   4.208
50371W        W22631  28.545   3.836  13.500
50372W        W22632  32.420  14.677  12.913
50373W        W22633  13.703  29.595   5.294
50374W        W22634   0.449  37.537   0.473
50375W        W22635   1.423  34.978  11.511
50376W        W22636  22.562   0.306   3.862
50377W        W22637   7.805  32.603   0.404
50378W        W22638  29.637  12.243   3.366
50379W        W22639  28.153  19.625  11.607
50380W        W22640  10.661  36.540   2.767
50381W        W22641  21.065   6.680  13.384
50382W        W22642  27.481   6.777   2.743
50383W        W22643  28.996  36.939  14.328
50384W        W22644  24.681  12.251   0.861
50385W        W22645  26.552  33.442  10.446
50386W        W22646   1.445  28.525   2.734
50387W        W22647  12.687   7.385   4.180
50388W        W22648  35.050   0.284   2.675
50389W        W22649  15.790  27.613  12.502
50390W        W22650  35.472  31.924  10.551
50391W        W22651  11.286   2.363  10.598
50392W        W22652   6.720   7.905   4.275
50393W        W22653  23.005   3.420   3.286
50394W        W22654  18.778  38.003   3.714
50395W        W22655  17.600  30.635  14.971
50396W        W22656   0.457  31.909   3.670
50397W        W22657  29.539  16.570  13.943
50398W        W22658  12.778  25.713  12.916
50399W        W22659  33.966  29.433  13.432
50400W        W22660   4.698   1.901  14.943
50401W        W22661  26.564   3.442   3.168
50402W        W22662  28.457   0.746   4.825
50403W        W22663  15.627   4.351  12.042
50404W        W22664  12.737  30.141  12.868
50405W        W22665   0.928  41.037   3.290
50406W        W22666  23.020  15.668   2.247
50407W        W22667  35.071  35.574   4.639
50408W        W22668  20.570  20.746   2.765
50409W        W22669   3.863  41.310  10.434
50410W        W22670   2.416   4.901   0.460
50411W        W22671  44.437  37.441  10.643
50412W        W22672   9.779   1.786  11.119
50413W        W22673  36.959   3.713   2.794
50414W        W22674  30.649   4.940   2.178
50415W        W22675  42.408  26.049  11.995
50416W        W22676  41.388   8.756   1.341
50417W        W22677  38.437  24.680   1.383
50418W        W22678  43.940   4.342   0.859
50419W        W22679  34.941   9.875   2.886
50420W        W22680  19.118  13.795   1.733
50421W        W22681  44.310  33.384   5.308
50422W        W22682  24.580  33.611   3.675
50423W        W22683  15.219  33.432  10.404
50424W        W22684  30.041  17.661   4.295
50425W        W22685  29.457  36.475  11.527
50426W        W22686  18.699  16.170   0.432
50427W        W22687  43.433  31.527   2.302
50428W        W22688  43.349  27.005  12.351
50429W        W22689  15.672  42.797   2.229
50430W        W22690   3.921  38.909   2.212
50431W        W22691   8.706   3.926  12.350
50432W        W22692   5.253  22.216   1.319
50433W        W22693  15.297  21.087   1.831
50434W        W22694  32.951  43.468   2.244
50435W        W22695   7.702   1.773   0.952
50436W        W22696   1.803  42.484   3.191
50437W        W22697  12.327  42.782   1.824
50438W        W22698  12.780  25.220  10.956
50439W        W22699  31.441  19.150   2.759
50440W        W22700  30.975  20.769   1.435
50441W        W22701   4.704  15.712  11.900
50442W        W22702   8.885  39.522  11.587
50443W        W22703  16.764  16.082   0.752
50444W        W22704  41.495  28.040  13.842
50445W        W22705  43.824   1.259  12.427
50446W        W22706  12.277  20.164  10.964
50447W        W22707   1.269  35.968  14.026
50448W        W22708  31.583  38.431  11.006
50449W        W22709  40.398  15.588   2.357
50450W        W22710   0.382   5.250   4.678
50451W        W22711  41.416  11.821  14.314
50452W        W22712  30.108  14.667  14.941
50453W        W22713  17.212  36.944  14.778
50454W        W22714  16.143  21.093   0.761
50455W        W22715   8.208  27.193  13.040
50456W        W22716   2.851  25.709   2.389
50457W        W22717   9.233  30.150  11.903
50458W        W22718  41.373  13.270  11.921
50459W        W22719  11.815  36.404   2.717
50460W        W22720  18.671  29.080   3.839
50461W        W22721  35.010   8.834  12.400
50462W        W22722  26.074   4.237   0.945
50463W        W22723  27.640  39.449   0.950
50464W        W22724  11.285  29.024   5.159
50465W        W22725  11.798  10.264   4.820
50466W        W22726  40.948  29.135  13.968
50467W        W22727  33.406  27.623   0.912
50468W        W22728  26.163  23.241  11.040
50469W        W22729  13.220   6.247  10.949
50470W        W22730  24.084  10.636   4.623
50471W        W22731  11.287  26.694  10.470
50472W        W22732  24.027  20.090  10.531
50473W        W22733  10.184  11.275   0.909
50474W        W22734  24.153  34.555  11.421
50475W        W22735   9.272  43.778  10.466
50476W        W22736   6.238  30.639  12.027
50477W        W22737  16.129   6.799  10.633
50478W        W22738  43.302   9.743  12.850
50479W        W22739  20.577  41.028  11.375
50480W        W22740  37.490  22.239  14.903
50481W        W22741  23.615  39.823  12.048
50482W        W22742   0.853  28.651   0.842
50483W        W22743  17.185  15.243   5.129
50484W        W22744  22.154   1.247  11.378
50485W        W22745  25.170  25.036   4.661
50486W        W22746   5.417  32.992   3.715
50487W        W22747   2.414  43.432   3.292
50488W        W22748  19.657  27.075   0.441
50489W        W22749  12.222  29.612   3.329
50490W        W22750  41.399  38.821   1.358
50491W        W22751  16.112  10.219  13.456
50492W        W22752  10.272  10.845  10.935
50493W        W22753  16.700  20.618  12.834
50494W        W22754  27.478  11.331   4.655
50495W        W22755  21.541  22.514  10.992
50496W        W22756   8.189   2.355   1.420
50497W        W22757  36.347  41.938   2.696
50498W        W22758  20.573  39.335   4.261
50499W        W22759  29.092  30.137  13.794
50500W        W22760  15.219  42.383   1.891
50501W        W22761  13.166  27.967   1.882
50502W        W22762  20.060  26.466   0.827
50503W        W22763  20.117  40.382  14.352
50504W        W22764  12.219  30.141   2.417
50505W        W22765  30.998  39.030   4.161
50506W        W22766   7.676   4.830  11.054
50507W        W22767   0.946  14.753  14.359
50508W        W22768  39.515   8.218  11.474
50509W        W22769  12.619  32.636  11.484
50510W        W22770  33.879   6.204  14.801
50511W        W22771  29.609   3.426  10.582
50512W        W22772   9.659   1.751   0.319
50513W        W22773  19.707   5.780   0.248
50514W        W22774  13.294   2.336   2.282
50515W        W22775  26.488  23.010   4.155
50516W        W22776  14.767  16.643   5.086
50517W        W22777  36.522  24.701   2.273
50518W        W22778  13.109  11.144  13.049
50519W        W22779  24.163  23.048  12.834
50520W        W22780  24.517  26.080   0.769
50521W        W22781  28.987  31.003   0.843
50522W        W22782  44.323  23.235   0.290
50523W        W22783  40.451  22.120   3.220
50524W        W22784  23.525  19.596   0.752
50525W        W22785   3.751  12.740   4.629
50526W        W22786  37.837  41.352   1.901
50527W        W22787  15.146  12.779  13.818
50528W        W22788  28.520  20.140   0.744
50529W        W22789  38.026  41.913   0.948
50530W        W22790  13.760  31.448  14.902
50531W        W22791  40.892  43.489  11.480
50532W        W22792  30.990   6.856   1.278
50533W        W22793  17.301  31.515   2.863
50534W        W22794  36.531  31.975   2.205
50535W        W22795   9.819  29.521   4.116
50536W        W22796   2.266  27.143  11.022
50537W        W22797  16.611  23.984  12.550
50538W        W22798  39.504  40.341   0.378
50539W        W22799  17.639  17.275  11.396
50540W        W22800  38.035  44.991   0.750
50541W        W22801  18.698  19.690   3.382
50542W        W22802  41.451  10.335   3.280
50543W        W22803  27.019  34.972   0.247
50544W        W22804  23.202  44.756   4.257
50545W        W22805  40.510  21.207  14.982
50546W        W22806  19.545  14.245   0.420
50547W        W22807  20.057  10.855  14.956
50548W        W22808  28.557  41.919  14.962
50549W        W22809  21.217  36.440  10.907
50550W        W22810  21.711  18.695  10.499
50551W        W22811  34.483  35.499   0.317
50552W        W22812  15.124   5.904   4.198
50553W        W22813  10.780   3.393   1.925
50554W        W22814  12.616  43.330   0.344
50555W        W22815  16.204  35.391   0.375
50556W        W22816  34.001  41.896   4.291
50557W        W22817  33.445  40.311   2.869
50558W        W22818   5.692  19.633  10.476
50559W        W22819   0.392  14.337  11.597
50560W        W22820  41.968  34.448  10.156
50561W        W22821  12.763  44.003   2.781
50562W        W22822   8.872  39.450   2.736
50563W        W22823  23.672  33.054   3.845
50564W        W22824   8.352  44.395   1.711
50565W        W22825  31.022  26.603  14.916
50566W        W22826  36.083  21.642  13.811
50567W        W22827  23.681   4.298   4.318
50568W        W22828  31.056  41.875  11.018
50569W        W22829  19.730  43.874   4.310
50570W        W22830  14.765  19.541  12.012
50571W        W22831  43.434  25.120   1.910
50572W        W22832  35.087  44.785  11.466
50573W        W22833   6.703  22.504   2.675
50574W        W22834  11.867  43.972  10.438
50575W        W22835  44.944  36.568  12.377
50576W        W22836  28.625  24.012  11.856
50577W        W22837   6.402   2.333   2.800
50578W        W22838  12.791  20.107   2.385
50579W        W22839   6.895   4.255  11.539
50580W        W22840   0.956  23.986  13.853
50581W        W22841   0.302  24.603  11.423
50582W        W22842  20.135  36.989  12.894
50583W        W22843  19.727  15.759   2.752
50584W        W22844  13.768  39.543   0.397
50585W        W22845  32.535  20.039   0.845
50586W        W22846  19.739   8.380  11.891
50587W        W22847  42.872   3.318  10.964
50588W        W22848  28.438  23.673  13.838
50589W        W22849   1.361   6.806   4.136
50590W        W22850  34.596   2.335   3.376
50591W        W22851   2.456  25.133   0.370
50592W        W22852  25.200  36.509  14.444
50593W        W22853  32.936  39.844   0.310
50594W        W22854  33.951   6.415   3.785
50595W        W22855   6.357   9.277   3.230
50596W        W22856   0.838  30.516   4.209
50597W        W22857  13.844  38.970   0.432
50598W        W22858  32.435   9.737   1.809
50599W        W22859  21.630  26.095  11.114
50600W        W22860  13.644  33.874   2.201
50601W        W22861  24.486  23.101  13.879
50602W        W22862  21.730  34.512  14.305
50603W        W22863  19.274  14.315   4.335
50604W        W22864  14.613  10.689  12.344
50605W        W22865  23.225  43.938  12.057
50606W        W22866  28.120  15.150   3.364
50607W        W22867  38.354  35.991   1.756
50608W        W22868  15.221  36.965   2.375
50609W        W22869  11.298  25.675  11.372
50610W        W22870   9.827  44.353   1.896
50611W        W22871  20.628  23.177   0.268
50612W        W22872  30.420  26.146   2.370
50613W        W22873   4.821   4.715   0.802
50614W        W22874  37.454  23.193  12.955
50615W        W22875  28.989  29.152  14.858
50616W        W22876  28.606  39.415  14.507
50617W        W22877   8.756   2.267  13.336
50618W        W22878   6.718   9.761  14.784
50619W        W22879  21.731   8.899   2.404
50620W        W22880  12.222   6.844  10.626
50621W        W22881  26.052   0.770  11.045
50622W        W22882  35.055   9.215   0.473
50623W        W22883  30.933  28.154  12.573
50624W        W22884  13.658  22.635  13.864
50625W        W22885  42.410   0.411   0.854
50626W        W22886  14.644  41.877  11.590
50627W        W22887  42.508  37.082  13.548
50628W        W22888  20.763  42.369  13.891
50629W        W22889  10.797   9.721  13.988
50630W        W22890  25.171  29.038  14.032
50631W        W22891   5.924  42.807  12.476
50632W        W22892  25.546  34.509   4.297
50633W        W22893  24.993  21.046  11.590
50634W        W22894  33.939  29.666  10.933
50635W        W22895  25.627  14.122   3.845
50636W        W22896   7.805   4.839  10.624
50637W        W22897  12.627   0.970   0.758
50638W        W22898  13.630  42.959  12.535
50639W        W22899  38.325  16.587   4.696
50640W        W22900  34.566  25.612   3.741
50641W        W22901   0.399  42.883   1.451
50642W        W22902  18.713   7.271   4.617
50643W        W22903  43.826  18.640   4.639
50644W        W22904  13.813  23.625  11.095
50645W        W22905  40.994  18.616  13.886
50646W        W22906   7.236  11.265  14.845
50647W        W22907  24.076  40.516  11.489
50648W        W22908  14.735  22.552   4.119
50649W        W22909  41.029  12.696   2.764
50650W        W22910  18.139   0.941  12.500
50651W        W22911  23.087   6.842  10.994
50652W        W22912  25.986  28.533  11.432
50653W        W22913  39.373  19.171   1.905
50654W        W22914  25.493   2.267   2.212
50655W        W22915  10.814  27.977   0.842
50656W        W22916  33.956   0.848  14.429
50657W        W22917  25.099  31.422  11.481
50658W        W22918  41.372  16.687   0.929
50659W        W22919  40.914  42.949  12.571
50660W        W22920  31.529   4.848  12.026
50661W        W22921  20.643  40.827  12.037
50662W        W22922  26.995  15.779  14.485
50663W        W22923  38.017   1.958  10.114
50664W        W22924  19.251  16.689  11.465
50665W        W22925  13.292  40.918  14.316
50666W        W22926  38.017   2.946  12.069
50667W        W22927  18.736   7.297  13.534
50668W        W22928   8.801  41.919  11.089
50669W        W22929  12.153  19.113   3.359
50670W        W22930  19.768  39.401   4.201
50671W        W22931  22.591  43.468  11.401
50672W        W22932  36.529   3.741  13.540
50673W        W22933  13.659  39.477   4.305
50674W        W22934  18.765  10.144  12.560
50675W        W22935   4.750   2.379   3.188
50676W        W22936  17.153  35.014   3.382
50677W        W22937  12.356  44.881   1.353
50678W        W22938  36.585  35.601   2.766
50679W        W22939  36.075   5.720  13.976
50680W        W22940  17.169  35.094  11.907
50681W        W22941  26.665  38.020  13.337
50682W        W22942   9.750   5.322  13.316
50683W        W22943  26.652  36.390   3.217
50684W        W22944  26.115  35.017  12.504
50685W        W22945   3.431  10.774   4.656
50686W        W22946  43.928  28.946   1.263
50687W        W22947  27.988  11.629   0.803
50688W        W22948  29.429  18.625   1.322
50689W        W22949  18.279  34.029  11.401
50690W        W22950  16.283  26.144  10.638
50691W        W22951  39.007  25.706  13.969
50692W        W22952  15.680  18.288  13.876
50693W        W22953   4.933  39.483  14.831
50694W        W22954  20.561  43.275  10.944
50695W        W22955   9.345  22.720   0.474
50696W        W22956  25.677  21.657  14.390
50697W        W22957  43.899  21.582   1.449
50698W        W22958   3.746  35.998  10.405
50699W        W22959   3.848  22.636   3.733
50700W        W22960   3.295  38.541   3.292
50701W        W22961  22.519  24.039   0.379
50702W        W22962   0.448   8.778   3.650
50703W        W22963  15.176   2.343  12.550
50704W        W22964  14.741   3.951  11.572
50705W        W22965  36.971  30.964   4.740
50706W        W22966   1.873  15.203  14.510
50707W        W22967  16.644  13.307   0.449
50708W        W22968  36.077   8.251  14.853
50709W        W22969   8.785  37.491  12.067
50710W        W22970  38.409   2.395   0.318
50711W        W22971  22.550  34.550  10.518
50712W        W22972  22.701  10.636   2.708
50713W        W22973  27.002  39.960  13.532
50714W        W22974  34.539  31.607   1.705
50715W        W22975  27.589   1.466   0.799
50716W        W22976   8.883  39.982  13.028
50717W        W22977   3.934   6.856   2.244
50718W        W22978   8.160   6.190  13.367
50719W        W22979  42.925  36.040  10.543
50720W        W22980  34.524  25.034  11.871
50721W        W22981  13.772  28.482  10.433
50722W        W22982   6.289  15.242  13.854
50723W        W22983  26.131   4.405  12.064
50724W        W22984  35.405   1.938   2.210
50725W        W22985  23.043   5.408   0.869
50726W        W22986  17.608  21.739   2.902
50727W        W22987  16.096  35.075  11.608
50728W        W22988  38.352   8.265  10.600
50729W        W22989  12.151  21.725  14.484
50730W        W22990  38.996  40.418  14.892
50731W        W22991  34.472  43.334   4.237
50732W        W22992  38.992  37.918  10.009
50733W        W22993   0.487  22.564  13.424
50734W        W22994   3.421  33.041  14.411
50735W        W22995  28.572  44.322  10.951
50736W        W22996  36.501   5.305   2.346
50737W        W22997  27.081  18.753   0.256
50738W        W22998  29.550   8.866  12.050
50739W        W22999  38.965  39.833   1.782
50740W        W23000  36.981   4.276   1.903
50741W        W23001  42.883  44.465   1.339
50742W        W23002  30.939  20.623   0.455
50743W        W23003  14.183  13.248   0.460
50744W        W23004   7.750   6.919  11.974
50745W        W23005  38.431  34.946  13.055
50746W        W23006   1.357   4.241  11.969
50747W        W23007  38.047  44.760   1.320
50748W        W23008   6.799   0.346   0.772
50749W        W23009   7.905   9.755   2.729
50750W        W23010  26.984  25.055   2.400
50751W        W23011  41.865  28.456   1.718
50752W        W23012  35.087  23.032  11.606
50753W        W23013  16.233  39.523  11.505
50754W        W23014  30.527  12.326   0.402
50755W        W23015   1.470  44.412   2.827
50756W        W23016  20.579  41.431  13.438
50757W        W23017  15.099   8.160  11.397
50758W        W23018  17.628   5.813   1.385
50759W        W23019  32.636  41.994  13.332
50760W        W23020  20.216  12.625   4.171
50761W        W23021  19.113   7.176   4.244
50762W        W23022  23.990   8.848  14.516
50763W        W23023  35.079  25.618  13.456
50764W        W23024   1.279   3.277   2.675
50765W        W23025  32.892  35.567  13.824
50766W        W23026  24.991  19.620  11.862
50767W        W23027  26.198  34.075   4.287
50768W        W23028  23.995  36.041  12.506
50769W        W23029   7.828  30.085   4.283
50770W        W23030  10.169  34.413  14.461
50771W        W23031  17.272   6.908  12.876
50772W        W23032  28.591  29.448  14.362
50773W        W23033  17.075   4.254  11.040
50774W        W23034  41.518   7.311   1.409
50775W        W23035  43.815  34.424  10.418
50776W        W23036  34.917   2.953  10.475
50777W        W23037  26.459   9.260  11.461
50778W        W23038  28.449  30.995   1.313
50779W        W23039  40.356   1.388   4.602
50780W        W23040  41.453  15.623   4.673
50781W        W23041  36.089  16.570  12.573
50782W        W23042  28.058   2.787   3.727
50783W        W23043  40.040   4.389  14.988
50784W        W23044   2.436  40.522   0.328
50785W        W23045  18.599  42.298  14.335
50786W        W23046  20.586   1.267  12.976
50787W        W23047  18.094  26.056  14.858
50788W        W23048  28.649  10.798  14.852
50789W        W23049   4.262  13.718  13.921
50790W        W23050  39.920   9.313  13.894
50791W        W23051  16.169  29.579  12.976
50792W        W23052   3.276  20.736   0.814
50793W        W23053  31.509  30.160   2.320
50794W        W23054   2.276  26.030  10.995
50795W        W23055  21.023   5.306  11.984
50796W        W23056   3.830   9.812   4.186
50797W        W23057  36.369  36.888  13.826
50798W        W23058  19.553  30.967  12.400
50799W        W23059  25.475  17.576   1.360
50800W        W23060  39.829  16.626  10.508
50801W        W23061  33.931  16.808  12.546
50802W        W23062   9.674  28.980   0.874
50803W        W23063  11.832  38.898   2.828
50804W        W23064  15.168  31.991   4.785
50805W        W23065  21.095  10.267   3.713
50806W        W23066  19.565  17.657   0.429
50807W        W23067   7.349   5.343  12.474
50808W        W23068   6.254  26.961   2.383
50809W        W23069  20.638  14.119  11.901
50810W        W23070   9.665  11.732  13.863
50811W        W23071  36.381  15.822   2.816
50812W        W23072  24.559  28.971  11.487
50813W        W23073  29.989  15.813   3.644
50814W        W23074  19.095   3.302   0.315
50815W        W23075  33.456  34.560  13.409
50816W        W23076  27.576   1.755  12.968
50817W        W23077  13.829  23.072   1.818
50818W        W23078   6.711  37.511   1.771
50819W        W23079  40.460  27.959   0.382
50820W        W23080  42.380  22.656   3.177
50821W        W23081  24.026  31.911   1.932
50822W        W23082  13.207  29.562  13.394
50823W        W23083  10.674  23.202  14.396
50824W        W23084  11.794  43.912   3.205
50825W        W23085   4.426  33.993   0.838
50826W        W23086   0.747  38.436  10.525
50827W        W23087   9.885   6.847  14.484
50828W        W23088  24.528   7.766   3.803
50829W        W23089  32.072  14.185   4.652
50830W        W23090  21.713  27.153   0.381
50831W        W23091  22.202  37.392  14.024
50832W        W23092   5.715  34.045   2.249
50833W        W23093  28.559  23.041   3.812
50834W        W23094  16.171  19.159  14.024
50835W        W23095   6.277   3.902  14.956
50836W        W23096  41.375   9.300  12.027
50837W        W23097  43.370   7.892  11.119
50838W        W23098  15.722  12.236   0.738
50839W        W23099  24.030  17.204   2.862
50840W        W23100  40.016  28.941  11.601
50841W        W23101  30.627  14.734   3.382
50842W        W23102  13.304  39.417   0.333
50843W        W23103  36.517  17.772  12.460
50844W        W23104  43.303  39.440   2.190
50845W        W23105  32.102  14.801   3.745
50846W        W23106   3.899  22.711   2.863
50847W        W23107  23.508   1.939  12.579
50848W        W23108   7.368   9.374   2.856
50849W        W23109  10.674  27.053   4.338
50850W        W23110   5.717  41.328  13.399
50851W        W23111   2.924   3.376   4.708
50852W        W23112  28.607  14.241   4.794
50853W        W23113  30.594  25.006  14.930
50854W        W23114   0.277  32.549   3.639
50855W        W23115  44.810   0.983  12.992
50856W        W23116   9.863  41.932   0.334
50857W        W23117  32.109   5.296  10.467
50858W        W23118  24.030  30.592   4.282
50859W        W23119  11.145  15.612   3.860
50860W        W23120  14.677   9.227   4.303
50861W        W23121  37.490   3.339   4.597
50862W        W23122  37.028  40.829   1.403
50863W        W23123  16.643   8.881   4.159
50864W        W23124   6.419  16.767  13.801
50865W        W23125  22.197  18.158  10.070
50866W        W23126   7.353  33.025  14.412
50867W        W23127  23.112  20.755   9.645
50868W        W23128   1.404  20.759   0.777
50869W        W23129  37.917  12.830   4.787
50870W        W23130   1.759  40.823   3.313
50871W        W23131  38.514  39.891   1.762
50872W        W23132   7.401  20.523   4.756
50873W        W23133  13.791  27.088   4.751
50874W        W23134  10.199  41.385  12.518
50875W        W23135  14.772   7.750   5.116
50876W        W23136   7.694   4.309   2.212
50877W        W23137  33.110  26.012  11.537
50878W        W23138  21.558  32.919  14.366
50879W        W23139  18.558  29.487  13.836
50880W        W23140  41.000  36.094  11.468
50881W        W23141  27.166  40.846  12.496
50882W        W23142  28.074  22.119  14.010
50883W        W23143  28.171  42.361  13.544
50884W        W23144   4.224  30.922   1.754
50885W        W23145   6.676  23.527  14.471
50886W        W23146  37.859  32.401  14.859
50887W        W23147  14.289  36.417   4.606
50888W        W23148  30.958  15.704  12.537
50889W        W23149  27.466  28.186  10.890
50890W        W23150  25.637  40.802   0.345
50891W        W23151  34.539  14.642  10.931
50892W        W23152   8.851  43.293   4.181
50893W        W23153  36.005  14.787  10.912
50894W        W23154  31.629  13.216  11.977
50895W        W23155  42.289   9.811   0.458
50896W        W23156   3.797  35.505  13.062
50897W        W23157  33.990  32.128   4.224
50898W        W23158   5.210  10.840  14.467
50899W        W23159  44.459   0.785  13.820
50900W        W23160  31.995   5.726  10.075
50901W        W23161  23.605   2.887  13.945
50902W        W23162   6.825  17.208  14.333
50903W        W23163  11.789  24.618   4.340
50904W        W23164  34.441  22.599   1.729
50905W        W23165  19.107  25.587   2.813
50906W        W23166   3.843   5.852  10.914
50907W        W23167  18.685   0.767  12.086
50908W        W23168  42.875  36.476  12.919
50909W        W23169  41.011  43.963  13.547
50910W        W23170  19.204  39.455   0.831
50911W        W23171  31.084  27.987  13.523
50912W        W23172   6.727   6.198   4.707
50913W        W23173   5.349   3.283   2.225
50914W        W23174  21.539  20.536  12.880
50915W        W23175  27.604  31.534   0.408
50916W        W23176  18.051  40.039   3.164
50917W        W23177  27.987  39.985  11.945
50918W        W23178  22.692   0.909  14.973
50919W        W23179  13.241   1.765   3.849
50920W        W23180  25.522   6.306  14.465
50921W        W23181  27.674  40.868   4.347
50922W        W23182  31.520  32.411  14.826
50923W        W23183   1.322   5.739  14.385
50924W        W23184  30.058  17.698   3.851
50925W        W23185  37.870  13.150   0.377
50926W        W23186  13.253  15.600  14.334
50927W        W23187  11.299  21.133   3.301
50928W        W23188   2.952  28.651  12.063
50929W        W23189  27.025  38.357  12.057
50930W        W23190  38.854   1.781   2.216
50931W        W23191  43.275  25.997  13.835
50932W        W23192  41.386  32.557   2.358
50933W        W23193  26.168  15.796   2.819
50934W        W23194   6.895  29.443  11.516
50935W        W23195   4.413  40.872  11.088
50936W        W23196  36.065  30.057   0.811
50937W        W23197  35.991  12.235  12.874
50938W        W23198  12.699  13.268  12.536
50939W        W23199  44.328  35.956  10.489
50940W        W23200   0.461  27.595   1.866
50941W        W23201  14.675  24.622   1.445
50942W        W23202  26.012  35.374   0.453
50943W        W23203  44.362   5.885  14.763
50944W        W23204  44.984  42.479   1.444
50945W        W23205  44.397   8.838  13.480
50946W        W23206  18.690  36.899   2.335
50947W        W23207  19.088  13.214  13.993
50948W        W23208  20.176  28.517   1.376
50949W        W23209  42.515  28.648   1.273
50950W        W23210  40.518  39.544  13.545
50951W        W23211  34.054  29.970  14.424
50952W        W23212  23.998  37.021   4.245
50953W        W23213  37.079  39.010  14.878
50954W        W23214  13.608  14.305   1.367
50955W        W23215  20.118  12.203   2.687
50956W        W23216  13.225  20.711   2.297
50957W        W23217  42.809  19.137   0.408
50958W        W23218   9.393  43.442   3.665
50959W        W23219  28.120  42.805  12.374
50960W        W23220  40.941   2.776   3.796
50961W        W23221  38.846  39.046   4.814
50962W        W23222  42.960   5.351   3.675
50963W        W23223  17.760   0.430  13.917
50964W        W23224  14.730  24.657  10.551
50965W        W23225  11.367  14.591  13.968
50966W        W23226  36.531  23.175   1.442
50967W        W23227  12.670  34.603  10.940
50968W        W23228  43.904  36.421  10.994
50969W        W23229  44.438  17.730   4.629
50970W        W23230  21.665  19.663   2.192
50971W        W23231  31.026  38.529   4.294
50972W        W23232  26.691  43.784  12.419
50973W        W23233  27.665  25.214   2.285
50974W        W23234  23.095  33.424   3.850
50975W        W23235  35.505  41.966   0.379
50976W        W23236  28.629   2.927   4.271
50977W        W23237  11.711  24.214  10.075
50978W        W23238  42.472  37.565   2.897
50979W        W23239  37.572  39.886   2.817
50980W        W23240  17.088  10.833  13.389
50981W        W23241  17.178  42.393  12.973
50982W        W23242   9.260  33.551   3.826
50983W        W23243  14.243  28.974   3.345
50984W        W23244   2.722  41.921   4.327
50985W        W23245  21.544  16.276  14.925
50986W        W23246  30.567  37.451   4.340
50987W        W23247  43.871  17.597  14.361
50988W        W23248  14.645  14.292   4.122
50989W        W23249  43.377   6.826   1.695
50990W        W23250  39.551   8.727  11.599
50991W        W23251  14.835  18.585  10.075
50992W        W23252  18.591   5.228   1.363
50993W        W23253   8.759  37.007   4.328
50994W        W23254  19.070  10.851   4.758
50995W        W23255  10.204  29.610  13.320
50996W        W23256  28.140   1.789   1.328
50997W        W23257  41.975  27.691   0.472
50998W        W23258  20.649  41.404   0.251
50999W        W23259  26.575   8.187   1.725
51000W        W23260   7.668  42.925   2.742
51001W        W23261  18.244  22.131  11.120
51002W        W23262  41.345  24.691  13.878
51003W        W23263  37.471  28.475   0.345
51004W        W23264  10.291  29.093  11.407
51005W        W23265  11.147   9.164  12.365
51006W        W23266  29.635  23.498  13.438
51007W        W23267  27.038  36.987  12.351
51008W        W23268   2.427  16.194  11.912
51009W        W23269  15.597  43.818   4.135
51010W        W23270   2.810   9.304   2.771
51011W        W23271   0.841  25.216  10.107
51012W        W23272  24.029  17.262   0.851
51013W        W23273   2.435   3.945  14.385
51014W        W23274  26.169  31.580  13.542
51015W        W23275  18.269  25.015  14.972
51016W        W23276  35.568  36.458  12.391
51017W        W23277  21.256  36.444  13.961
51018W        W23278   9.307   5.708   0.853
51019W        W23279  26.093  36.984  10.468
51020W        W23280  36.965  10.633   4.303
51021W        W23281  25.203  14.213   5.161
51022W        W23282  34.474  22.172   0.278
51023W        W23283  12.184   8.883   3.370
51024W        W23284  44.819  19.280  12.563
51025W        W23285  32.618  31.414   1.400
51026W        W23286  29.962  32.595   4.631
51027W        W23287   0.871  44.868   3.312
51028W        W23288   6.263  14.136  14.027
51029W        W23289  25.056  23.133   1.869
51030W        W23290  35.358   2.854   0.832
51031W        W23291  32.010  38.562   1.723
51032W        W23292  28.957  31.122   0.274
51033W        W23293   3.407  41.472  14.500
51034W        W23294   1.334  29.450  12.031
51035W        W23295  14.189  35.429   1.733
51036W        W23296   2.379  10.257  13.547
51037W        W23297  23.051   1.247  10.565
51038W        W23298  33.396  19.773   4.242
51039W        W23299  28.116  40.982   3.843
51040W        W23300  22.612   0.413  12.844
51041W        W23301  11.779  29.586  14.879
51042W        W23302  13.792  37.975   1.407
51043W        W23303  24.113   6.906   3.250
51044W        W23304  30.130  12.354   0.253
51045W        W23305  32.479  17.605  13.536
51046W        W23306  23.568  19.572  10.922
51047W        W23307  34.504  12.696  13.966
51048W        W23308  10.201  43.449   2.884
51049W        W23309   1.282   3.369  10.616
51050W        W23310  39.512  38.057   2.388
51051W        W23311  32.433  40.844   1.309
51052W        W23312   8.813  24.053  13.394
51053W        W23313  11.324  20.536  14.428
51054W        W23314  18.158  32.079  12.003
51055W        W23315  34.569  10.294  10.072
51056W        W23316  42.855   3.456  10.452
51057W        W23317  20.248  44.475   1.305
51058W        W23318  41.348  18.723   0.877
51059W        W23319  34.080  15.663  13.020
51060W        W23320  34.444  40.802   1.397
51061W        W23321  41.957  43.367  14.371
51062W        W23322  17.655   7.209   1.354
51063W        W23323  10.222   7.279  11.459
51064W        W23324   9.241   2.733  13.489
51065W        W23325  32.033  33.130  11.016
51066W        W23326  40.004  20.200   2.245
51067W        W23327   6.405  17.760   0.281
51068W        W23328  28.032   5.861   2.397
51069W        W23329   6.318  13.604   1.445
51070W        W23330  20.682  33.440  11.606
51071W        W23331   1.821  34.879  10.449
51072W        W23332  39.418   1.299   4.685
51073W        W23333  36.857  25.560  12.047
51074W        W23334  19.255  19.214   0.784
51075W        W23335   1.470  24.603  12.989
51076W        W23336   8.224   8.818  13.362
51077W        W23337  33.484  40.519   0.820
51078W        W23338  19.266  23.719  13.807
51079W        W23339  37.917  12.196   1.853
51080W        W23340  22.134  42.353  11.541
51081W        W23341  38.945   3.434  11.891
51082W        W23342  14.766   5.201   4.818
51083W        W23343  32.483  27.961  13.446
51084W        W23344  29.566  37.578  11.437
51085W        W23345  19.654   9.270  12.074
51086W        W23346  10.279  11.737  11.431
51087W        W23347  14.144  31.569   9.970
51088W        W23348   9.739  27.627  11.879
51089W        W23349  25.024  38.834  14.321
51090W        W23350  37.532  13.161  12.354
51091W        W23351  41.959  44.760   0.760
51092W        W23352  26.174  44.494   2.887
51093W        W23353  41.483   4.796   1.743
51094W        W23354  38.950  26.002  10.096
51095W        W23355  33.071  26.002   2.298
51096W        W23356   2.766  15.183  14.892
51097W        W23357   0.884  39.986   1.780
51098W        W23358  12.150  25.995   0.385
51099W        W23359  39.374  17.204  13.485
51100W        W23360  13.655  27.016   0.946
51101W        W23361  26.018  15.708  11.373
51102W        W23362  35.360  11.224   1.393
51103W        W23363  11.760  27.014  13.798
51104W        W23364  13.743  31.121  12.841
51105W        W23365  25.685  40.814  13.806
51106W        W23366   6.297   1.790   1.211
51107W        W23367  36.878  27.626  11.110
51108W        W23368  16.590  16.627   3.378
51109W        W23369   4.384  14.171   0.945
51110W        W23370  18.787  30.125   4.660
51111W        W23371   2.294  12.265   4.722
51112W        W23372  43.445  21.146   0.350
51113W        W23373  42.829  25.695   4.337
51114W        W23374  33.026  18.563  12.827
51115W        W23375  39.393   8.657   4.728
51116W        W23376  28.521  28.935   0.833
51117W        W23377  11.673  21.230   2.751
51118W        W23378  20.766  41.383   2.351
51119W        W23379  33.087  16.127   2.310
51120W        W23380  17.166   1.478   2.271
51121W        W23381   4.910  42.379  10.450
51122W        W23382   9.335  37.461  12.042
51123W        W23383  28.450  28.077   2.766
51124W        W23384   5.860   0.850  14.431
51125W        W23385  38.451  17.079   2.739
51126W        W23386  21.712  35.458   4.170
51127W        W23387  34.907  23.072  11.892
51128W        W23388  42.028   8.223  13.891
51129W        W23389  44.960  18.645   3.695
51130W        W23390  43.512  35.434  13.395
51131W        W23391   1.343   3.241  12.051
51132W        W23392  34.897  20.725  13.943
51133W        W23393  25.528   6.821   0.835
51134W        W23394   0.267  41.816  10.581
51135W        W23395  35.885   7.841  13.461
51136W        W23396  30.942  37.393   3.806
51137W        W23397  36.404  33.498  12.407
51138W        W23398  15.174  11.790   2.389
51139W        W23399  38.939   7.701  13.399
51140W        W23400  17.060  24.680   4.123
51141W        W23401  27.120   6.918  14.002
51142W        W23402  18.052  33.521  12.062
51143W        W23403  28.582  11.762  11.947
51144W        W23404  20.767  36.902   2.416
51145W        W23405   5.754  44.918   1.269
51146W        W23406  37.479   4.414   1.336
51147W        W23407  22.214   5.696  11.484
51148W        W23408  25.505  34.575  11.056
51149W        W23409  12.346  32.427   2.328
51150W        W23410  38.424  24.723  11.108
51151W        W23411  12.309  15.326   2.223
51152W        W23412  23.148   5.371  13.439
51153W        W23413  27.145  14.213  13.539
51154W        W23414  43.360  33.996  13.006
51155W        W23415   0.922   7.351  10.973
51156W        W23416  17.276  43.881  13.963
51157W        W23417  18.231  32.405  13.883
51158W        W23418   2.810   6.347  13.920
51159W        W23419  12.199  26.646   5.161
51160W        W23420  27.527  16.312  12.570
51161W        W23421   7.783  13.154   2.259
51162W        W23422  36.522  30.523   4.216
51163W        W23423  21.720  11.681   3.675
51164W        W23424  17.065  16.099   1.890
51165W        W23425  19.580   9.302  11.545
51166W        W23426  20.266  16.203  14.321
51167W        W23427   2.732  16.734  13.371
51168W        W23428  37.396  34.093   1.751
51169W        W23429  17.750  39.463   4.814
51170W        W23430  34.513  35.423  10.557
51171W        W23431  29.600  26.632  10.549
51172W        W23432  22.201  20.041   9.933
51173W        W23433  20.679  39.341  13.350
51174W        W23434  31.415  12.267   0.344
51175W        W23435  14.274   9.787   4.604
51176W        W23436  23.141  20.533  13.834
51177W        W23437  20.577  27.040  14.292
51178W        W23438  25.599   2.235  10.888
51179W        W23439  37.396  18.694   3.842
51180W        W23440  30.600  31.002  14.841
51181W        W23441  15.664  19.279  11.415
51182W        W23442  36.392  18.747   4.641
51183W        W23443  37.449  21.055   0.450
51184W        W23444   4.767  21.084   4.658
51185W        W23445  14.215  16.687   4.168
51186W        W23446  43.395  37.420  12.830
51187W        W23447   6.337  19.599   0.466
51188W        W23448  44.975  16.645  14.987
51189W        W23449  30.538   7.850   3.725
51190W        W23450  30.070  27.611   4.233
51191W        W23451  37.499  37.442   2.796
51192W        W23452  11.293   7.316  13.448
51193W        W23453  38.568  40.051  11.029
51194W        W23454   6.294   3.361   1.703
51195W        W23455  25.540   3.848  13.497
51196W        W23456  30.440  27.075   4.640
51197W        W23457  26.188  28.621   4.248
51198W        W23458  17.566  24.998   2.760
51199W        W23459  33.523  35.567   0.869
51200W        W23460   1.923  27.961  11.524
51201W        W23461   0.465  26.665   3.307
51202W        W23462  10.786  38.882   1.800
51203W        W23463   7.690  12.175  13.434
51204W        W23464  30.935  37.898  12.869
51205W        W23465  44.826  26.140  12.979
51206W        W23466  39.375   1.461  14.015
51207W        W23467  22.745   1.905  13.062
51208W        W23468   4.337   7.824  11.942
51209W        W23469   5.391  28.507  10.967
51210W        W23470  32.636  34.034  13.920
51211W        W23471  13.839  21.245   1.278
51212W        W23472  15.275   4.393  13.062
51213W        W23473  21.619   8.244  11.470
51214W        W23474  25.156  17.239   0.940
51215W        W23475   7.277  15.240  13.479
51216W        W23476  38.915  17.251   1.391
51217W        W23477  15.588  12.124  11.090
51218W        W23478   4.339   6.368  13.533
51219W        W23479  35.427  29.949  10.625
51220W        W23480  30.105  33.556  14.774
51221W        W23481  36.035  25.163  14.386
51222W        W23482  30.594  17.092  11.876
51223W        W23483  28.015  19.715   9.985
51224W        W23484  17.575  24.218   4.317
51225W        W23485   0.938  25.590  12.434
51226W        W23486  42.801  20.617  14.479
51227W        W23487  20.209   8.366  14.874
51228W        W23488  25.097  39.355  14.491
51229W        W23489  27.584  32.045  14.338
51230W        W23490  21.094  17.111  13.062
51231W        W23491  11.281  21.519  14.971
51232W        W23492  34.915  30.039   1.894
51233W        W23493  23.634  39.558   0.966
51234W        W23494  21.687   3.843  12.870
51235W        W23495  22.173  36.408  10.598
51236W        W23496  34.930  14.770   0.908
51237W        W23497  23.050  21.584  12.442
51238W        W23498   9.723  38.463   2.794
51239W        W23499  15.171   9.338   2.178
51240W        W23500   5.317  36.542   4.160
51241W        W23501   3.836  34.530   2.766
51242W        W23502  29.984  31.008  14.308
51243W        W23503  21.233  27.031  11.591
51244W        W23504  15.122  10.308  13.968
51245W        W23505  16.078  23.545   4.312
51246W        W23506   0.920  37.539  10.545
51247W        W23507   1.418  23.691   4.245
51248W        W23508  22.088  22.723   4.713
51249W        W23509  31.033  26.969   2.417
51250W        W23510   8.704  35.053   3.320
51251W        W23511   6.833  40.924   1.796
51252W        W23512   4.921  36.067   2.229
51253W        W23513  40.954  17.161  14.804
51254W        W23514  44.873  22.998   4.764
51255W        W23515  31.573  42.958   1.366
51256W        W23516  17.173  20.602   3.280
51257W        W23517  44.931  20.138   4.260
51258W        W23518  42.798  10.271   5.199
51259W        W23519  12.738  35.020   2.184
51260W        W23520  20.120   0.900   2.728
51261W        W23521   0.492   3.351   1.699
51262W        W23522  16.793   6.320   4.121
51263W        W23523  13.838   1.361  13.349
51264W        W23524  14.106   2.276   4.139
51265W        W23525   6.389  12.329   4.601
51266W        W23526   3.254  38.539  14.398
51267W        W23527  44.342  43.365  13.353
51268W        W23528  11.681  41.835   3.234
51269W        W23529  42.966  30.592  11.486
51270W        W23530  14.116  15.265   0.910
51271W        W23531  33.381   9.838   9.999
51272W        W23532  41.934  24.030   0.302
51273W        W23533  39.014  16.790  12.398
51274W        W23534  20.104  23.231  11.869
51275W        W23535  31.544  17.761  11.953
51276W        W23536  10.651   7.832   4.137
51277W        W23537  10.810  10.729  14.460
51278W        W23538  38.040  33.594  13.468
51279W        W23539  22.596  19.158   3.763
51280W        W23540  23.715  15.714   0.947
51281W        W23541   4.361  40.483  13.373
51282W        W23542  34.056  38.526  11.598
51283W        W23543  27.091  24.579   1.280
51284W        W23544  21.633   3.277  14.925
51285W        W23545  38.566  41.798  13.865
51286W        W23546  21.751  12.684   1.721
51287W        W23547   8.295  31.974   3.368
51288W        W23548  26.491  13.178   1.295
51289W        W23549  32.929  29.557  14.507
51290W        W23550  34.532  40.935   3.377
51291W        W23551  22.695  24.513   0.811
51292W        W23552  30.470  12.698  11.543
51293W        W23553  19.156  30.937  11.857
51294W        W23554  11.202   6.714  14.957
51295W        W23555   9.335  27.508  10.509
51296W        W23556  23.625  20.248   2.180
51297W        W23557   6.693  13.789   2.386
51298W        W23558  38.427  30.523   2.797
51299W        W23559   2.471   5.436   1.363
51300W        W23560  44.881  33.925  14.891
51301W        W23561   0.463   9.265  13.847
51302W        W23562  10.795  30.913  13.807
51303W        W23563  23.035   8.712  10.469
51304W        W23564  42.017  42.018  13.026
51305W        W23565  12.717   8.161  14.989
51306W        W23566  38.891  43.395  11.067
51307W        W23567  26.016  13.606   1.900
51308W        W23568  38.070  11.263   2.838
51309W        W23569  37.437  17.732   3.865
51310W        W23570  24.150  38.444  10.551
51311W        W23571  31.631   0.437  14.793
51312W        W23572  35.868  31.934  12.056
51313W        W23573  30.470   9.351   1.304
51314W        W23574  39.330  28.639  13.057
51315W        W23575  26.604  40.805   0.445
51316W        W23576  12.247  36.907  14.960
51317W        W23577   9.354  13.741   4.341
51318W        W23578  15.288  21.729   3.334
51319W        W23579  11.788   6.889  11.955
51320W        W23580  11.778  18.245   1.927
51321W        W23581  13.229  12.306  12.957
51322W        W23582  24.124   2.427   3.806
51323W        W23583  16.763   4.284  10.505
51324W        W23584  31.064   7.793   3.160
51325W        W23585  25.044  40.977  11.956
51326W        W23586  29.108  25.496  12.501
51327W        W23587  14.772  23.511  10.416
51328W        W23588   5.833  33.426   3.265
51329W        W23589  29.051  31.405   4.693
51330W        W23590  32.036  22.713   4.599
51331W        W23591  15.313  18.680  13.445
51332W        W23592   9.870   5.747   4.319
51333W        W23593  32.476  27.162  14.772
51334W        W23594  43.404  10.366   2.383
51335W        W23595   5.290  25.127  12.824
51336W        W23596  40.414  43.780   3.251
51337W        W23597  32.932  35.030  12.883
51338W        W23598  12.679  19.598  11.054
51339W        W23599  17.732  12.673  11.926
51340W        W23600   6.426  32.458  14.439
51341W        W23601  14.161  31.543   4.612
51342W        W23602  14.334  32.428   4.826
51343W        W23603  21.548   4.413   4.812
51344W        W23604  25.986  33.607   0.911
51345W        W23605  17.140  26.194   1.363
51346W        W23606  13.666  18.105   2.376
51347W        W23607  43.994  32.532   0.462
51348W        W23608  13.206   1.445   1.242
51349W        W23609  13.788  24.613   4.174
51350W        W23610  26.011   3.847  12.842
51351W        W23611  30.600  39.532  13.318
51352W        W23612  27.169  23.499   2.721
51353W        W23613   1.427  36.929   0.870
51354W        W23614  16.809  20.228   4.254
51355W        W23615  21.604  10.215   4.778
51356W        W23616   7.868  26.514   0.316
51357W        W23617  13.268   8.835   2.330
51358W        W23618  43.286  15.713   2.737
51359W        W23619  25.534  40.869   3.321
51360W        W23620  23.605   2.327  12.401
51361W        W23621   2.400  39.046  14.493
51362W        W23622  12.198  31.458   2.418
51363W        W23623  13.816   8.308   3.342
51364W        W23624  20.707  15.280  12.033
51365W        W23625  12.313  10.770  13.853
51366W        W23626   4.891  34.045   2.670
51367W        W23627   0.344  35.597  12.341
51368W        W23628   8.798  35.000   3.676
51369W        W23629  38.411  19.133   0.851
51370W        W23630  28.139  39.507   3.766
51371W        W23631  41.987  19.192  11.979
51372W        W23632   2.384  21.260  10.468
51373W        W23633   8.780  16.752   1.895
51374W        W23634  18.620  36.893  13.042
51375W        W23635  20.091  16.795  13.487
51376W        W23636  42.848  42.000   3.762
51377W        W23637  33.972  31.594   0.269
51378W        W23638  43.834  27.122   0.333
51379W        W23639  38.894  16.300   2.728
51380W        W23640  10.218  33.949   1.712
51381W        W23641  18.281   0.390   3.724
51382W        W23642  17.165  22.558  11.493
51383W        W23643  31.539   6.347  12.373
51384W        W23644  13.653  24.164  10.593
51385W        W23645   2.757  38.045  14.794
51386W        W23646  24.139  13.146   0.276
51387W        W23647  33.121  20.638   0.899
51388W        W23648   2.949  32.563  14.400
51389W        W23649  37.571  12.221  14.511
51390W        W23650  42.950  34.936   1.755
51391W        W23651  20.245  23.018   4.308
51392W        W23652  44.978   7.813   4.799
51393W        W23653  30.974  41.872   4.633
51394W        W23654  29.640  29.140   5.610
51395W        W23655  32.105   4.821   0.853
51396W        W23656   0.801  28.969   3.379
51397W        W23657  27.610   0.458   0.402
51398W        W23658  34.037  21.525  11.016
51399W        W23659  35.910  39.350  13.534
51400W        W23660  19.204  10.284  12.934
51401W        W23661  19.276  44.454   3.767
51402W        W23662  43.297   5.782   3.159
51403W        W23663  25.524  14.591   3.265
51404W        W23664   0.969   5.373  10.641
51405W        W23665   8.739   1.932   0.435
51406W        W23666  39.976  22.535  13.846
51407W        W23667  44.299  34.587   4.626
51408W        W23668  36.442   8.309  10.152
51409W        W23669  40.870  30.599   4.630
51410W        W23670  30.099  33.387   3.329
51411W        W23671   8.374  27.655  10.901
51412W        W23672  16.177  12.679   4.260
51413W        W23673  34.575  21.739   5.182
51414W        W23674   6.212  37.467   0.424
51415W        W23675  36.966  30.425  12.905
51416W        W23676   3.270  37.461  14.506
51417W        W23677   7.285  38.338  12.081
51418W        W23678   4.218   4.901  11.079
51419W        W23679  40.884  27.077   3.692
51420W        W23680  37.348  26.159   2.249
51421W        W23681  35.556   7.678   1.238
51422W        W23682  18.627  18.622  12.879
51423W        W23683  39.886  25.164  14.870
51424W        W23684  26.499   9.731  13.984
51425W        W23685  16.308  32.087   0.273
51426W        W23686  15.614   8.271  13.835
51427W        W23687  28.549  13.277  11.465
51428W        W23688  10.843  12.167   3.234
51429W        W23689   0.754  18.155  10.490
51430W        W23690   7.281   3.436   0.955
51431W        W23691  34.593  24.984   1.231
51432W        W23692  25.054   7.820  12.031
51433W        W23693  27.990   1.958   3.351
51434W        W23694   5.349   0.798   3.350
51435W        W23695  35.431   0.916  10.896
51436W        W23696  30.549  25.109  10.540
51437W        W23697  39.961  29.655   3.211
51438W        W23698  41.424   6.784  13.041
51439W        W23699  40.985  37.344   0.775
51440W        W23700  17.615  15.726  14.341
51441W        W23701   6.883  41.369   0.941
51442W        W23702  28.629  28.032   3.790
51443W        W23703  36.504   3.404   5.124
51444W        W23704  42.829  19.247  12.035
51445W        W23705  26.669   0.403  14.889
51446W        W23706  44.501  14.815   3.360
51447W        W23707  13.749   8.848  10.965
51448W        W23708  15.244   0.428   3.328
51449W        W23709  16.711  29.639  14.014
51450W        W23710  13.652  39.911   1.290
51451W        W23711  26.668  16.790  10.422
51452W        W23712  42.340  25.511  12.911
51453W        W23713  18.096  37.915  12.503
51454W        W23714  43.875  37.886   2.854
51455W        W23715  38.362  13.811   2.298
51456W        W23716  17.686  41.333   1.369
51457W        W23717  14.160  28.181   4.236
51458W        W23718  17.164  34.924   2.883
51459W        W23719  29.478   8.700   4.686
51460W        W23720  26.483  28.980  10.068
51461W        W23721  41.515  40.934  14.811
51462W        W23722   6.832  31.566  12.360
51463W        W23723  40.052  26.485   0.821
51464W        W23724  14.338  22.056  10.988
51465W        W23725  24.538  21.202   4.133
51466W        W23726  28.504  34.600   4.672
51467W        W23727  27.160  36.886  14.998
51468W        W23728  17.166  12.162   1.753
51469W        W23729  36.542   1.739   2.207
51470W        W23730  41.954  25.611   1.729
51471W        W23731  19.749  29.479  10.421
51472W        W23732  19.069  15.309  12.953
51473W        W23733  36.460  22.112   2.415
51474W        W23734  29.121  21.126  11.107
51475W        W23735  34.448   9.687   2.319
51476W        W23736  18.661  31.414   4.604
51477W        W23737  23.711  17.064  11.073
51478W        W23738  19.115  24.210  13.485
51479W        W23739  34.878  43.322   4.787
51480W        W23740  23.116  34.894  14.326
51481W        W23741  39.041  11.816  13.309
51482W        W23742  18.123  39.967  14.436
51483W        W23743  15.813  34.949   0.418
51484W        W23744  20.138   0.788   0.335
51485W        W23745   4.846  25.135   3.387
51486W        W23746   7.865  15.288  14.841
51487W        W23747  25.517  38.865  13.979
51488W        W23748   0.455  37.468  12.537
51489W        W23749   4.221   2.317   4.199
51490W        W23750  21.087  13.659   0.908
51491W        W23751  13.280  21.132   5.108
51492W        W23752  26.199  14.125  14.029
51493W        W23753  10.343  19.604   2.387
51494W        W23754  43.865   2.796  14.982
51495W        W23755  23.007  23.492   4.334
51496W        W23756  21.673  10.256   3.812
51497W        W23757  36.472  39.313   3.712
51498W        W23758  38.528  35.873  13.792
51499W        W23759   0.440  35.452  13.479
51500W        W23760  20.271  29.459   1.300
51501W        W23761  26.054   6.305   0.325
51502W        W23762  22.143  33.517   0.416
51503W        W23763  44.864  32.512   0.302
51504W        W23764  16.257  34.978   3.153
51505W        W23765  37.077  40.341  10.644
51506W        W23766  21.173   4.224  12.955
51507W        W23767  31.932  18.758  11.524
51508W        W23768  37.901  42.481   4.676
51509W        W23769  22.191  23.579   1.873
51510W        W23770  32.983   5.379   0.355
51511W        W23771  25.597   7.760   4.684
51512W        W23772  43.305   2.271   4.732
51513W        W23773  22.121  42.433   2.842
51514W        W23774  40.549  21.735   3.723
51515W        W23775   1.803  44.800   1.373
51516W        W23776  33.988   3.287  12.855
51517W        W23777  15.671   7.865   4.635
51518W        W23778  35.548  41.884  14.786
51519W        W23779  41.931   5.716   4.247
51520W        W23780  24.985  12.758  11.123
51521W        W23781  42.422  38.963  14.865
51522W        W23782   2.743  18.705   0.798
51523W        W23783  15.172   0.325  13.342
51524W        W23784  11.215  19.216   1.423
51525W        W23785  40.027  25.579  13.896
51526W        W23786  12.218  26.597  12.521
51527W        W23787  12.831  40.834   1.859
51528W        W23788  22.244  40.444  11.087
51529W        W23789  10.735  20.056   4.660
51530W        W23790   7.804  41.018  12.074
51531W        W23791  43.938  22.077  14.334
51532W        W23792  17.646  15.817   9.968
51533W        W23793  14.122  10.734  14.367
51534W        W23794  20.046   8.173   2.391
51535W        W23795  21.599   1.380  12.032
51536W        W23796  26.184  21.068   2.740
51537W        W23797   0.798  32.523  13.374
51538W        W23798   1.921  25.134  14.421
51539W        W23799  34.082  11.262   4.649
51540W        W23800  18.555   4.732  12.359
51541W        W23801  26.572  33.420   0.306
51542W        W23802  37.464   0.752  11.948
51543W        W23803  42.791  11.640   0.885
51544W        W23804  38.938  22.710   5.154
51545W        W23805  17.162  26.989  13.473
51546W        W23806  30.928  11.781   3.650
51547W        W23807   8.276  15.713  12.911
51548W        W23808  38.425  28.071  11.447
51549W        W23809  34.118  19.250   2.375
51550W        W23810  10.808  42.350  12.849
51551W        W23811   7.364  11.295   1.875
51552W        W23812  30.428  27.689   4.191
51553W        W23813  37.069   4.743   0.296
51554W        W23814  10.220  21.116   4.767
51555W        W23815  28.147  26.150   1.747
51556W        W23816  24.671  27.062  10.902
51557W        W23817   8.765   1.336   1.713
51558W        W23818  31.125  30.076   3.200
51559W        W23819  28.175  17.753   0.943
51560W        W23820  40.872  23.629  10.645
51561W        W23821  44.417  37.391   9.925
51562W        W23822  37.959  18.206   3.349
51563W        W23823  13.839  18.251  13.046
51564W        W23824  36.043   9.392  11.951
51565W        W23825  11.715  26.574   9.997
51566W        W23826  31.916  26.160   4.751
51567W        W23827   5.286  37.423   2.692
51568W        W23828  42.501   8.387  14.922
51569W        W23829   7.880   7.205  14.890
51570W        W23830  20.749  44.808   3.145
51571W        W23831  11.261  38.557   4.728
51572W        W23832  33.091   3.323   3.866
51573W        W23833  20.146  11.736  14.315
51574W        W23834  26.695  23.156  13.454
51575W        W23835  23.159  26.558  13.502
51576W        W23836  29.659  34.057  10.933
51577W        W23837  12.296  43.841  12.862
51578W        W23838   2.787  34.507  10.485
51579W        W23839  26.506  32.552   3.376
51580W        W23840   2.735  31.959  11.454
51581W        W23841   4.790  41.506   3.810
51582W        W23842   1.449  22.701  11.964
51583W        W23843   9.382  35.548   4.654
51584W        W23844   0.955   2.774  12.064
51585W        W23845  13.176  24.490   4.349
51586W        W23846   7.323  28.006   1.445
51587W        W23847  41.983  37.887   3.255
51588W        W23848  44.993  23.601   4.253
51589W        W23849  20.241  29.110   3.866
51590W        W23850  26.186   8.774  13.367
51591W        W23851  28.621   3.928  11.904
51592W        W23852  34.012  42.384  11.466
51593W        W23853  31.030  39.880   3.242
51594W        W23854  31.959  25.162   1.869
51595W        W23855  41.964  13.707   3.858
51596W        W23856  15.596  12.322  11.470
51597W        W23857  29.510  11.288   1.247
51598W        W23858  30.625  42.841   2.664
51599W        W23859  44.270  38.981  13.503
51600W        W23860   1.883  11.634  14.774
51601W        W23861  30.627  12.261   2.377
51602W        W23862  30.550   2.255   4.772
51603W        W23863  43.861  41.836   1.849
51604W        W23864  38.860  26.123  14.504
51605W        W23865  21.199  23.560   5.305
51606W        W23866  34.473  38.872  14.911
51607W        W23867  24.186  28.185  12.990
51608W        W23868  11.864  21.703  10.458
51609W        W23869  26.167  17.565  11.607
51610W        W23870  34.941   5.740   4.721
51611W        W23871   9.298  18.714   3.384
51612W        W23872  31.572  38.524   4.319
51613W        W23873   9.752  23.182   1.804
51614W        W23874  17.718  22.165  12.917
51615W        W23875  29.956  13.728   1.219
51616W        W23876  22.721   9.294  10.530
51617W        W23877  13.110  42.431   3.195
51618W        W23878  22.516  17.137  10.477
51619W        W23879  21.057   3.295  12.385
51620W        W23880  38.383  24.992  10.511
51621W        W23881   1.253  22.147  13.963
51622W        W23882  36.445  16.163  10.949
51623W        W23883   2.730  40.383  13.836
51624W        W23884  31.004  27.151   4.152
51625W        W23885  24.119  19.561   4.773
51626W        W23886  37.956  26.151   1.800
51627W        W23887  41.316  35.520   0.842
51628W        W23888  30.428  23.100   3.372
51629W        W23889   8.846  38.519   3.687
51630W        W23890  15.696  17.633  14.451
51631W        W23891  36.954  42.010   3.654
51632W        W23892  44.298  42.334  11.546
51633W        W23893   3.335   6.355  13.850
51634W        W23894  33.395  19.065  14.361
51635W        W23895  14.617  28.081  10.074
51636W        W23896  33.547   2.331   2.315
51637W        W23897  28.024  42.281   3.190
51638W        W23898  31.091  28.438  11.559
51639W        W23899  34.526  29.663  11.920
51640W        W23900  27.588  11.623   3.173
51641W        W23901   7.287  27.634   4.355
51642W        W23902  32.006  33.531  12.889
51643W        W23903  27.565  23.115  11.055
51644W        W23904  24.192  18.710   1.783
51645W        W23905  24.552  20.747   1.890
51646W        W23906   0.461  27.070   4.127
51647W        W23907   6.409   5.926   4.822
51648W        W23908  44.273   8.251   3.818
51649W        W23909   5.870  37.520   2.761
51650W        W23910   1.924   2.265   3.167
51651W        W23911  21.552  16.755   1.757
51652W        W23912  34.601   2.415   4.740
51653W        W23913   5.202  35.377  12.080
51654W        W23914  32.125  17.094   3.273
51655W        W23915   4.912  21.245   4.224
51656W        W23916  27.480   4.824   1.251
51657W        W23917  34.406  18.170   2.811
51658W        W23918   7.827  14.691   0.378
51659W        W23919  43.396  19.241  11.118
51660W        W23920  26.599  21.565   3.864
51661W        W23921  14.746  16.173  10.431
51662W        W23922   7.822  24.045   5.308
51663W        W23923  13.189  36.861   3.805
51664W        W23924  32.593   8.766  13.946
51665W        W23925  38.021  23.705  13.390
51666W        W23926  21.726   3.831   2.194
51667W        W23927  38.046   9.668  14.786
51668W        W23928   8.341   7.208  13.360
51669W        W23929  16.757  10.265   4.314
51670W        W23930  16.741  12.610  11.488
51671W        W23931   4.912  35.535  11.489
51672W        W23932  41.355  10.684  12.001
51673W        W23933   5.757  19.723  13.056
51674W        W23934   7.407  29.039   0.334
51675W        W23935  30.069  15.742  14.982
51676W        W23936  32.483   6.324   3.657
51677W        W23937  44.924  15.289   4.695
51678W        W23938  21.588   7.345   1.813
51679W        W23939   8.718   2.254   2.206
51680W        W23940   6.819  27.000   1.836
51681W        W23941  22.577  13.269   1.250
51682W        W23942  13.283  31.980   3.260
51683W        W23943  32.479  23.118  14.397
51684W        W23944   3.256   1.445   2.286
51685W        W23945  17.287  43.012   4.806
51686W        W23946  30.504  23.119  14.847
51687W        W23947  17.173  33.399  14.472
51688W        W23948  21.106   9.393  13.506
51689W        W23949   1.841  31.412   2.272
51690W        W23950   4.397  21.618  10.899
51691W        W23951  42.887  29.044   0.288
51692W        W23952  34.376  20.657   9.564
51693W        W23953  24.576  38.500  14.905
51694W        W23954  21.042  39.942  12.950
51695W        W23955  16.795  37.410  12.492
51696W        W23956  40.910  13.720   4.804
51697W        W23957  18.738  44.967  11.095
51698W        W23958  28.672  44.317  13.920
51699W        W23959  18.255   1.831  13.976
51700W        W23960  11.165  43.787   2.198
51701W        W23961  12.703  35.378   2.278
51702W        W23962   9.389  26.014   0.357
51703W        W23963  24.180  22.243   4.253
51704W        W23964  25.655   5.297  14.443
51705W        W23965   9.205  16.238   0.779
51706W        W23966  11.856  38.884  13.401
51707W        W23967  28.572  40.356   0.738
51708W        W23968  16.165  35.083  10.978
51709W        W23969  14.734  36.079  12.829
51710W        W23970   9.324  11.323  14.395
51711W        W23971  44.413  33.086  13.042
51712W        W23972  12.220  13.836   3.381
51713W        W23973  11.364  32.034  14.315
51714W        W23974  21.579  31.624   4.299
51715W        W23975  33.392   0.792  11.006
51716W        W23976  15.648  34.423  11.860
51717W        W23977   4.428  19.684   1.930
51718W        W23978   7.413  36.458   0.462
51719W        W23979  24.685  22.103  12.965
51720W        W23980  39.539  39.943   1.732
51721W        W23981  32.046   5.836   3.151
51722W        W23982  38.055  25.649   0.864
51723W        W23983  11.220  36.910  11.913
51724W        W23984  18.184  17.617  14.845
51725W        W23985  32.114  42.010   0.810
51726W        W23986  18.066  32.924   1.862
51727W        W23987  15.734  18.680   1.926
51728W        W23988   9.689  14.658   0.388
51729W        W23989  13.843  21.598  12.912
51730W        W23990  30.541   4.309  13.940
51731W        W23991  17.786  38.859  13.906
51732W        W23992   3.226  19.707  11.420
51733W        W23993  20.700   1.478  13.879
51734W        W23994  17.638   8.189   0.756
51735W        W23995  14.724  19.682  13.883
51736W        W23996  39.377  11.728  14.305
51737W        W23997  13.661  31.095   2.304
51738W        W23998   1.975  33.574  13.974
51739W        W23999  43.286  43.022  13.992
51740W        W24000  23.018  43.319  14.506
51741W        W24001  24.581  29.491  14.425
51742W        W24002   3.934  36.048   4.774
51743W        W24003   4.378  32.618   4.247
51744W        W24004  36.013  17.621  10.568
51745W        W24005  34.394  35.510  13.995
51746W        W24006  41.025   0.770  14.938
51747W        W24007  19.071  28.506  11.435
51748W        W24008  15.591  17.668   1.753
51749W        W24009  13.709   2.873   0.891
51750W        W24010   1.354   1.414   4.280
51751W        W24011   9.234  30.597  14.332
51752W        W24012  23.679  27.666  11.441
51753W        W24013   3.776   6.221  13.903
51754W        W24014   2.864  19.131   4.747
51755W        W24015  25.489  10.143  10.965
51756W        W24016  42.457  40.981  14.797
51757W        W24017  16.578  28.948   0.477
51758W        W24018  34.909  34.111  12.096
51759W        W24019   4.766  24.208  13.520
51760W        W24020   5.789   5.728  11.082
51761W        W24021   5.891  24.554  12.577
51762W        W24022  41.967  40.531   1.354
51763W        W24023  37.440  11.345   0.960
51764W        W24024  29.440  12.800   3.195
51765W        W24025   6.388  42.513   0.832
51766W        W24026  20.200  43.924   0.429
51767W        W24027  23.697  28.019  13.538
51768W        W24028  31.638  32.002   9.513
51769W        W24029   1.903  41.358  10.923
51770W        W24030  34.390  32.001  10.006
51771W        W24031  22.650  30.094   3.196
51772W        W24032   8.402  31.031  13.906
51773W        W24033  38.493  29.020  14.837
51774W        W24034  31.485  42.462  12.547
51775W        W24035  31.970  10.704   5.233
51776W        W24036  42.504  14.667   3.818
51777W        W24037  27.632  34.115  12.894
51778W        W24038   7.786  24.194   1.735
51779W        W24039  44.753  42.371  14.401
51780W        W24040  26.533  34.972   1.935
51781W        W24041  15.773   6.834   0.321
51782W        W24042  39.978  26.992  11.121
51783W        W24043  10.244  11.740   1.817
51784W        W24044  15.608  19.152  14.285
51785W        W24045  24.627  42.803   3.148
51786W        W24046  43.955  19.211  14.280
51787W        W24047  33.415  16.310  11.891
51788W        W24048   3.817  31.099  12.563
51789W        W24049   9.765  44.773   2.189
51790W        W24050   2.902  35.426   0.879
51791W        W24051  40.960  11.369  12.478
51792W        W24052   1.354   8.384  14.954
51793W        W24053   4.239  25.209  13.341
51794W        W24054  35.031  20.163  11.979
51795W        W24055  14.613  22.638   3.156
51796W        W24056  36.001  29.066   0.344
51797W        W24057  32.068   1.326  13.427
51798W        W24058  44.786  18.702  11.571
51799W        W24059  12.332   0.302  12.442
51800W        W24060  15.722  21.220  12.873
51801W        W24061  40.827  15.820  11.522
51802W        W24062  21.692   0.963  14.808
51803W        W24063   0.752  40.802  13.466
51804W        W24064  15.813  32.135   1.345
51805W        W24065  24.699  22.596   3.671
51806W        W24066   1.483  24.075  12.826
51807W        W24067  18.149  22.709   0.964
51808W        W24068  37.919  18.608   4.781
51809W        W24069   5.289  17.661  13.314
51810W        W24070  34.372  39.390  14.791
51811W        W24071  29.033  26.493  12.549
51812W        W24072   1.370  37.344  12.939
51813W        W24073  16.147  18.632   3.812
51814W        W24074   1.827  30.983  10.440
51815W        W24075   5.398  22.728  13.864
51816W        W24076  15.584   0.401  10.522
51817W        W24077  16.179  40.356  11.982
51818W        W24078  12.747  12.826   1.324
51819W        W24079  34.088  29.131   1.874
51820W        W24080   8.221  44.908  11.438
51821W        W24081   1.322  37.999   1.781
51822W        W24082   1.391   5.363   4.118
51823W        W24083  37.491  42.452  13.439
51824W        W24084   8.384  33.927  10.482
51825W        W24085   1.290  10.328   2.840
51826W        W24086  31.041  44.790  10.957
51827W        W24087  44.362  19.280  14.368
51828W        W24088  34.050  28.451  13.447
51829W        W24089  21.543  13.820  14.340
51830W        W24090  40.979  18.129  10.575
51831W        W24091   4.780  23.528   3.194
51832W        W24092  22.702  21.520   0.458
51833W        W24093  43.949  31.036  10.928
51834W        W24094  29.633  35.521   4.338
51835W        W24095  27.076   8.281   4.277
51836W        W24096  31.969  33.385   1.887
51837W        W24097  36.472  38.436  14.947
51838W        W24098   5.841  14.134  11.449
51839W        W24099   5.731   5.379  12.878
51840W        W24100  33.911   3.849   2.864
51841W        W24101  41.506   7.296  10.955
51842W        W24102  16.237   7.276   2.715
51843W        W24103  34.515  29.112  12.413
51844W        W24104  14.779  15.712  11.567
51845W        W24105  11.271  36.500   2.670
51846W        W24106  41.831  15.767   4.777
51847W        W24107   8.222  20.035  11.421
51848W        W24108   4.843   7.737   0.895
51849W        W24109  44.977  21.528  13.496
51850W        W24110  42.823  23.653  11.019
51851W        W24111  27.598  29.154  10.491
51852W        W24112  39.030  37.474   4.678
51853W        W24113   5.307  18.098  10.529
51854W        W24114  34.932  43.988   0.836
51855W        W24115  33.532  32.003   2.287
51856W        W24116  10.323   1.970   5.090
51857W        W24117   7.385  35.359   1.758
51858W        W24118  27.557   7.842   1.360
51859W        W24119  34.934   7.266  14.444
51860W        W24120   9.366  32.396  12.880
51861W        W24121  23.130  36.356  12.418
51862W        W24122  16.286  29.089  14.014
51863W        W24123  15.689  20.229  14.414
51864W        W24124  23.169   3.728   4.166
51865W        W24125  24.976  25.024   9.967
51866W        W24126  30.654  12.722  13.888
51867W        W24127  23.590  10.728   4.149
51868W        W24128  31.026  39.965  11.945
51869W        W24129  31.968   3.877  12.345
51870W        W24130  35.001  26.618   1.381
51871W        W24131  13.308  39.856   0.473
51872W        W24132  40.421   5.924   1.339
51873W        W24133  15.717   2.273   0.451
51874W        W24134  30.514   1.969   0.355
51875W        W24135  30.534  25.096   2.717
51876W        W24136  26.682  39.328   4.643
51877W        W24137  26.996   5.810   3.834
51878W        W24138  27.970  12.643  13.480
51879W        W24139  36.410  28.086   2.813
51880W        W24140  37.362   0.334  10.437
51881W        W24141  15.605  27.446  11.459
51882W        W24142  37.523   5.320   0.840
51883W        W24143   2.762   4.759   0.367
51884W        W24144  39.413   4.415  13.409
51885W        W24145  44.430  16.162  10.992
51886W        W24146  13.735   2.722   2.227
51887W        W24147  24.043  29.576   4.802
51888W        W24148   2.285  25.568   4.615
51889W        W24149  38.434  14.612   1.217
51890W        W24150   3.245   1.445   0.421
51891W        W24151  12.668  20.604   0.767
51892W        W24152   9.689  29.464   3.213
51893W        W24153  28.520  11.258   2.805
51894W        W24154   5.334  15.685  14.429
51895W        W24155  44.296  10.286   0.442
51896W        W24156   6.812  18.641   4.670
51897W        W24157  40.930   6.835   0.283
51898W        W24158  17.579  38.554  12.928
51899W        W24159  21.635  43.325   1.714
51900W        W24160  28.142  11.753   0.378
51901W        W24161  27.031   8.788  11.955
51902W        W24162  27.569  38.003  10.551
51903W        W24163  21.084  31.080   0.814
51904W        W24164  20.238  16.222   0.878
51905W        W24165  13.784  31.429   3.672
51906W        W24166  18.688  16.676   1.831
51907W        W24167  44.814   0.351  12.379
51908W        W24168  42.915  30.917   0.481
51909W        W24169  33.577  38.417  13.010
51910W        W24170  21.698  31.008  11.019
51911W        W24171  40.888  12.824  12.863
51912W        W24172  35.005  16.795  12.925
51913W        W24173  26.186   2.858  14.961
51914W        W24174  38.432  14.317  13.440
51915W        W24175  18.658  20.136  13.432
51916W        W24176  29.511  38.865   0.884
51917W        W24177  11.764  31.045   3.702
51918W        W24178  27.115  27.187   0.796
51919W        W24179  44.921  11.158   1.280
51920W        W24180  24.187   6.713   2.283
51921W        W24181  11.787  15.165  11.490
51922W        W24182  18.735  18.163   1.711
51923W        W24183  23.592  12.346   4.738
51924W        W24184  17.271  36.965   3.164
51925W        W24185  20.070   4.284  13.984
51926W        W24186  40.392  43.450  13.340
51927W        W24187  43.838  33.021  14.851
51928W        W24188  41.436  41.935   3.320
51929W        W24189  15.711   2.729   2.209
51930W        W24190   3.290   1.478  12.441
51931W        W24191  12.203   0.270   3.374
51932W        W24192  34.910   8.731   3.715
51933W        W24193  31.026   7.405  11.881
51934W        W24194  14.227   8.218   2.765
51935W        W24195  13.105  32.140   5.271
51936W        W24196  28.440  30.569   1.797
51937W        W24197  34.519  39.045   0.785
51938W        W24198  37.834  44.484  13.945
51939W        W24199  40.456   3.234   0.400
51940W        W24200  17.156  37.464   3.802
51941W        W24201   0.936  38.969   4.210
51942W        W24202  21.032   3.727   3.153
51943W        W24203  30.101  26.114   4.150
51944W        W24204  17.281  38.000  14.866
51945W        W24205   5.803  34.013  10.997
51946W        W24206  24.605  26.080   4.763
51947W        W24207  25.217  10.282   2.684
51948W        W24208  43.328  23.211   1.269
51949W        W24209   9.265  36.931   4.631
51950W        W24210  19.587  32.471   1.701
51951W        W24211  24.641  42.486   2.234
51952W        W24212  14.206  29.090   5.262
51953W        W24213  21.561  13.741  14.024
51954W        W24214  38.998   0.903  14.030
51955W        W24215  27.166  29.499  12.516
51956W        W24216  39.872  14.334  14.495
51957W        W24217  20.768  14.164   3.156
51958W        W24218   9.233  44.973   2.782
51959W        W24219   6.908   1.810   2.820
51960W        W24220  27.110  35.532   2.725
51961W        W24221  29.010  29.130   3.674
51962W        W24222   7.218  31.955  12.870
51963W        W24223  39.375  15.308  12.836
51964W        W24224  42.486  37.893   4.137
51965W        W24225  13.701   1.283  14.790
51966W        W24226  14.192  23.584  11.510
51967W        W24227  16.577  34.596   1.746
51968W        W24228  18.731   8.842   4.651
51969W        W24229  28.023   7.171   2.419
51970W        W24230   6.220   0.763  10.109
51971W        W24231  17.227  13.140   3.791
51972W        W24232  26.478  41.452   2.839
51973W        W24233  43.884  40.929  13.908
51974W        W24234   4.822  17.087  12.365
51975W        W24235  34.079   1.754   4.759
51976W        W24236  24.548   6.224  11.944
51977W        W24237   1.437  32.065  11.581
51978W        W24238  31.947   7.338   0.848
51979W        W24239  23.089  13.253   1.246
51980W        W24240  33.598  16.216   2.266
51981W        W24241  35.870  12.232   2.808
51982W        W24242  32.618   6.913  13.453
51983W        W24243  16.077  19.144   0.909
51984W        W24244  16.724  10.753   2.829
51985W        W24245   4.786   9.801  11.989
51986W        W24246  31.020   1.859   1.727
51987W        W24247  31.008  22.237  11.857
51988W        W24248   1.257  23.529  10.971
51989W        W24249  18.565  17.178  14.794
51990W        W24250  29.668  37.379   5.082
51991W        W24251  11.369  39.434   1.230
51992W        W24252  18.734  10.833  14.286
51993W        W24253  16.778  26.159   1.760
51994W        W24254  33.123   8.727  12.832
51995W        W24255  10.303  40.843  12.080
51996W        W24256  35.107  37.888   2.875
51997W        W24257  26.625  21.191   2.707
51998W        W24258  13.235   3.445   2.277
51999W        W24259  34.512  10.202   3.313
52000W        W24260  27.159  37.474   2.762
52001W        W24261   8.179  31.479  14.932
52002W        W24262  16.669  24.104   4.816
52003W        W24263  25.542   7.274  12.986
52004W        W24264  29.434  11.864   3.763
52005W        W24265  29.627   4.219  12.502
52006W        W24266  38.389  26.126  12.906
52007W        W24267  25.499   0.454  13.542
52008W        W24268  31.901  33.445   2.745
52009W        W24269  43.986   9.270  13.053
52010W        W24270  38.992  38.069   0.242
52011W        W24271  41.845  15.771  12.472
52012W        W24272  38.882  31.473  14.442
52013W        W24273  41.534  20.093  14.409
52014W        W24274  27.996  38.389  14.001
52015W        W24275  38.919  13.723   2.854
52016W        W24276   1.415  28.992  11.432
52017W        W24277  33.522  26.991  11.579
52018W        W24278  42.519  21.259  14.384
52019W        W24279  42.478   7.727   3.376
52020W        W24280   1.863  38.873  10.927
52021W        W24281  40.872   5.698   0.436
52022W        W24282  17.679   7.802  11.488
52023W        W24283  14.176  33.912   2.736
52024W        W24284  36.039  27.014   2.743
52025W        W24285  28.555  38.933   4.234
52026W        W24286  27.475  37.369   5.181
52027W        W24287  36.959  13.284  12.070
52028W        W24288  16.587  14.114  13.844
52029W        W24289  28.000  38.833   0.898
52030W        W24290  17.080  11.353   3.656
52031W        W24291  12.808  25.512   0.829
52032W        W24292  18.149  20.616  13.456
52033W        W24293  18.162  20.117  14.806
52034W        W24294  29.151   3.954  14.405
52035W        W24295  11.807  23.222  14.819
52036W        W24296   1.398  13.147  10.901
52037W        W24297  17.089  33.993   0.927
52038W        W24298  10.641  16.648   1.222
52039W        W24299  31.933  37.017   4.804
52040W        W24300  30.101   3.309   3.869
52041W        W24301  39.517   1.250  10.950
52042W        W24302  11.758  34.980   1.426
52043W        W24303   6.773  11.642  10.484
52044W        W24304  27.045  39.946  10.431
52045W        W24305   0.447  32.954   2.314
52046W        W24306   7.357  37.370   2.663
52047W        W24307   9.883  21.686   4.114
52048W        W24308  36.894  42.329  10.585
52049W        W24309  21.057  29.646  13.441
52050W        W24310  16.633   7.835  14.397
52051W        W24311  10.377   5.383   0.354
52052W        W24312  36.084  31.051   4.731
52053W        W24313  22.738   9.395   3.819
52054W        W24314   4.726  31.925   4.753
52055W        W24315   7.791   8.697  14.872
52056W        W24316   9.869   7.795  11.448
52057W        W24317  29.082  32.074   5.322
52058W        W24318  35.535   2.444   2.719
52059W        W24319  40.954  32.458   0.752
52060W        W24320   3.244   3.329   3.266
52061W        W24321   2.837  33.467  13.953
52062W        W24322  43.403   8.340  11.542
52063W        W24323   8.329  36.853   4.138
52064W        W24324  25.185  32.396  11.068
52065W        W24325   8.388   7.899   2.248
52066W        W24326   1.833  37.028   1.889
52067W        W24327  26.130  10.838  12.090
52068W        W24328  13.712  33.434   4.627
52069W        W24329  33.448  27.664   1.811
52070W        W24330  41.795   4.928  12.369
52071W        W24331  21.139  30.031   4.813
52072W        W24332  18.690  10.720  10.888
52073W        W24333  17.715  33.071   0.434
52074W        W24334  20.543   4.787  13.792
52075W        W24335  15.687  43.887   0.326
52076W        W24336   0.753  25.061  14.441
52077W        W24337  28.093  30.554   1.256
52078W        W24338  20.708  32.082   3.327
52079W        W24339  22.202  37.007   4.324
52080W        W24340  19.042  14.659   4.184
52081W        W24341  40.330   6.792  12.532
52082W        W24342  15.766   5.314   0.838
52083W        W24343  31.630  17.800   1.919
52084W        W24344  37.014   8.259  13.053
52085W        W24345  10.695  20.681   0.326
52086W        W24346  14.322   4.296   4.756
52087W        W24347  22.555  36.021   2.766
52088W        W24348  15.813  43.917   1.915
52089W        W24349  18.625  43.331   2.293
52090W        W24350  14.784  19.239   0.913
52091W        W24351   1.812  22.536  14.507
52092W        W24352   7.901  13.303   0.905
52093W        W24353  17.625  28.049   3.635
52094W        W24354  41.321   8.857   4.114
52095W        W24355  39.007  29.579  12.496
52096W        W24356  18.129  29.120   1.822
52097W        W24357  12.127  38.061  11.498
52098W        W24358   4.719  35.914   1.218
52099W        W24359   3.854  23.493  13.401
52100W        W24360  33.990  20.607   2.398
52101W        W24361  42.504  36.017  13.379
52102W        W24362  14.791  28.088   5.601
52103W        W24363  33.519  26.675  14.315
52104W        W24364   5.223  13.820   4.802
52105W        W24365  40.435   7.245   3.762
52106W        W24366  34.958   2.798   0.421
52107W        W24367  23.643  22.047   3.271
52108W        W24368  44.774  28.947  12.507
52109W        W24369  40.530  26.559  10.440
52110W        W24370  26.205   6.823   4.753
52111W        W24371  34.888  39.810  12.004
52112W        W24372  30.522   5.780  12.838
52113W        W24373  22.534  44.926  13.951
52114W        W24374   3.790  41.965  14.345
52115W        W24375  26.589  31.141  10.440
52116W        W24376  34.948  17.637   0.415
52117W        W24377   0.758  20.557  12.524
52118W        W24378   2.379  36.485  10.955
52119W        W24379   9.291   2.451   3.738
52120W        W24380   0.899  12.305   0.262
52121W        W24381  32.583  39.845   2.239
52122W        W24382  18.248  23.584  11.412
52123W        W24383  19.640  40.305  13.950
52124W        W24384   5.800  36.577   3.333
52125W        W24385  24.704  12.760  10.969
52126W        W24386  37.436  21.747  11.922
52127W        W24387  12.765  34.558   2.847
52128W        W24388   4.239  39.863  11.917
52129W        W24389  41.338  42.928  12.360
52130W        W24390  13.139  30.022  11.473
52131W        W24391  13.643   1.420   1.241
52132W        W24392   2.394  14.757  14.421
52133W        W24393  16.082  28.072  13.388
52134W        W24394  12.146  35.087   2.722
52135W        W24395  22.118   4.886   1.835
52136W        W24396  25.192  21.650   2.360
52137W        W24397  19.048  30.133   4.727
52138W        W24398  44.429  25.015  10.145
52139W        W24399  36.099   6.286  11.389
52140W        W24400  27.155   9.189   4.803
52141W        W24401   4.900   6.312  11.895
52142W        W24402  32.559  14.835  12.002
52143W        W24403   1.252  23.193   1.285
52144W        W24404  30.430  29.485   2.684
52145W        W24405  20.742  43.805  14.828
52146W        W24406  41.356  35.487   3.778
52147W        W24407  25.634  16.666  13.913
52148W        W24408  35.534  14.756   0.814
52149W        W24409  32.957  43.412   4.143
52150W        W24410  25.165   0.745  13.816
52151W        W24411  28.562  36.489   2.841
52152W        W24412  43.356  31.972  11.444
52153W        W24413  26.987  20.115  14.462
52154W        W24414  21.680  21.227   5.241
52155W        W24415  16.625  34.076   4.747
52156W        W24416   1.869  16.104   4.247
52157W        W24417  18.559  13.330  13.873
52158W        W24418  31.555  18.744  14.420
52159W        W24419   7.347  40.894  13.042
52160W        W24420   7.760  32.900  13.505
52161W        W24421   2.383  19.073  11.011
52162W        W24422  35.542  19.780  14.386
52163W        W24423  32.068  42.985   1.697
52164W        W24424  11.727   3.410  12.380
52165W        W24425   2.367  41.419   2.860
52166W        W24426   8.385  24.173   4.247
52167W        W24427  15.164  33.449  13.008
52168W        W24428   2.409   7.740  14.336
52169W        W24429   9.339   1.328   3.840
52170W        W24430  10.647  43.351   1.756
52171W        W24431  29.658  23.619  14.998
52172W        W24432  20.245  26.529   2.888
52173W        W24433  26.073  34.576  13.874
52174W        W24434  42.287   6.201  11.936
52175W        W24435   9.210  22.673  10.049
52176W        W24436  10.350   3.864  12.579
52177W        W24437   0.364   7.234  13.853
52178W        W24438  28.644  35.099   0.904
52179W        W24439  38.475   5.898   4.339
52180W        W24440  15.618  39.059  10.481
52181W        W24441  43.431  33.008  13.384
52182W        W24442  19.720  21.150   1.427
52183W        W24443  14.163   0.939  13.361
52184W        W24444  42.987  15.147   1.874
52185W        W24445   1.840  18.655  14.470
52186W        W24446  39.478  31.421   3.262
52187W        W24447  24.691  12.329  14.349
52188W        W24448   9.778  43.311  13.061
52189W        W24449  35.388   6.763   4.260
52190W        W24450  16.793  17.654  11.563
52191W        W24451  12.626  14.742   0.388
52192W        W24452  10.707  38.933   4.791
52193W        W24453  33.432  36.508  14.901
52194W        W24454  29.639  23.011   2.703
52195W        W24455  32.450   6.375   4.252
52196W        W24456   8.365  27.022  14.894
52197W        W24457  14.801  26.529  11.015
52198W        W24458  33.030  24.581   2.830
52199W        W24459  15.196   9.824  13.530
52200W        W24460  15.182  40.998  14.993
52201W        W24461   6.368   5.417  14.855
52202W        W24462  18.221  18.152  12.387
52203W        W24463  17.302  10.849  12.959
52204W        W24464  44.478  15.684  14.400
52205W        W24465  11.309  17.759  12.844
52206W        W24466  12.724   6.794   2.362
52207W        W24467  36.439  15.272   4.223
52208W        W24468  16.172  23.226  10.533
52209W        W24469   2.401   1.942   0.361
52210W        W24470  19.688   3.214  12.524
52211W        W24471  38.009  17.298   3.773
52212W        W24472  27.574  24.651  14.370
52213W        W24473  12.163  26.594   9.986
52214W        W24474  39.810  41.463  14.760
52215W        W24475   1.977   8.251   0.470
52216W        W24476  44.763  43.780  13.986
52217W        W24477  33.004  29.148  13.842
52218W        W24478  17.672  38.822  10.890
52219W        W24479  16.639  44.407   1.216
52220W        W24480  43.791  33.566   4.135
52221W        W24481  24.180  38.415  12.930
52222W        W24482  19.731  20.238   1.435
52223W        W24483  22.736  42.447  14.817
52224W        W24484  28.185  30.478   0.730
52225W        W24485  17.758   9.386  14.804
52226W        W24486  36.041  44.816   0.365
52227W        W24487  15.173   4.726   2.691
52228W        W24488  35.505  43.820  12.075
52229W        W24489  25.043  26.107   1.918
52230W        W24490  37.938  16.777   0.808
52231W        W24491  24.575  41.508  11.403
52232W        W24492  10.691  39.848   0.806
52233W        W24493  37.913  25.698  13.917
52234W        W24494   2.876  35.400   3.320
52235W        W24495   9.338   7.367   2.233
52236W        W24496  35.589  42.881  13.523
52237W        W24497  11.364  44.781  13.314
52238W        W24498  33.430  25.550   2.363
52239W        W24499  18.758  32.581  13.329
52240W        W24500  16.777   5.924  12.015
52241W        W24501  38.940  13.805  14.956
52242W        W24502   2.248  22.535  10.925
52243W        W24503  23.046   1.375   4.661
52244W        W24504   8.232  28.166   4.350
52245W        W24505  33.107  31.126   0.271
52246W        W24506  20.664  16.223   0.845
52247W        W24507  19.184  30.001   3.244
52248W        W24508  15.123   9.676   0.403
52249W        W24509  30.618  40.335  13.797
52250W        W24510  33.926  22.043  14.412
52251W        W24511  13.182  28.650  10.895
52252W        W24512   8.664  26.134  10.457
52253W        W24513  42.362   8.318   2.724
52254W        W24514  30.163  20.103   4.661
52255W        W24515  43.402  13.685   2.199
52256W        W24516  33.120  22.238  13.374
52257W        W24517  23.688  37.357   1.855
52258W        W24518  23.677  26.166   0.765
52259W        W24519  21.547  43.006  12.381
52260W        W24520  15.152  18.192   1.239
52261W        W24521  27.460  41.408   3.773
52262W        W24522  25.545   8.899   3.268
52263W        W24523   5.402  15.643   1.377
52264W        W24524  44.998   2.332  12.935
52265W        W24525  26.141  19.652   0.833
52266W        W24526   3.292   1.268   4.806
52267W        W24527  26.040   1.826  14.495
52268W        W24528  38.429  41.357   3.223
52269W        W24529  28.616  12.783  13.472
52270W        W24530  24.004   0.946  13.512
52271W        W24531   2.288  27.138  13.962
52272W        W24532  31.431   4.353   1.321
52273W        W24533   9.818  15.141  13.523
52274W        W24534  23.998  40.537   3.651
52275W        W24535  17.182  10.336  10.946
52276W        W24536  36.424  35.995   4.797
52277W        W24537  34.392  14.822   1.738
52278W        W24538  22.719   6.764   4.301
52279W        W24539  31.526  14.169   1.836
52280W        W24540  30.997  21.087   9.983
52281W        W24541  30.013  21.188  10.533
52282W        W24542  11.290   8.279  11.934
52283W        W24543  35.939  35.909  13.968
52284W        W24544  16.813  24.589  14.297
52285W        W24545   6.328  24.108   0.343
52286W        W24546  34.600  32.977   2.864
52287W        W24547  30.527  26.012   1.282
52288W        W24548  25.486  12.777   4.732
52289W        W24549  10.684  29.662   1.406
52290W        W24550  29.478   0.745  14.990
52291W        W24551  41.343  16.087   1.249
52292W        W24552  22.559   5.370   2.296
52293W        W24553  43.300   6.332  11.062
52294W        W24554   4.314  27.625  14.782
52295W        W24555   3.311  28.574   3.739
52296W        W24556  32.532  39.937   0.423
52297W        W24557  22.217  11.223  11.927
52298W        W24558   7.306   8.219   1.774
52299W        W24559  28.178  27.052  11.947
52300W        W24560   4.707  19.151   1.890
52301W        W24561  18.216  39.437   3.230
52302W        W24562  41.913  10.144   3.822
52303W        W24563  13.701  40.943  14.816
52304W        W24564  44.293   8.800  11.913
52305W        W24565  18.054   9.186   3.316
52306W        W24566   0.833  23.220  14.330
52307W        W24567  31.940  29.589  12.963
52308W        W24568  17.696  30.913   1.241
52309W        W24569  29.658  43.307   1.737
52310W        W24570  32.432  19.045   2.316
52311W        W24571  40.937   9.861  12.441
52312W        W24572  35.533  42.792   4.288
52313W        W24573   6.215   5.292   0.850
52314W        W24574  18.276  23.131   2.348
52315W        W24575   9.674  43.469  11.564
52316W        W24576  12.120  33.984  10.437
52317W        W24577   9.250  12.299   2.368
52318W        W24578  19.215  23.140   4.810
52319W        W24579  22.529  23.576   1.316
52320W        W24580   7.830  23.715  13.378
52321W        W24581  20.096   1.819   2.855
52322W        W24582  43.489  38.478  11.566
52323W        W24583  31.538  34.414   2.885
52324W        W24584  22.603  19.040  12.558
52325W        W24585  43.475  16.153   2.251
52326W        W24586  40.894   4.314   3.306
52327W        W24587  23.185  24.681   2.819
52328W        W24588  44.357   3.289  13.389
52329W        W24589  35.864  36.871  11.092
52330W        W24590   2.252  31.604   1.403
52331W        W24591  17.774  33.504   1.421
52332W        W24592  29.474  39.339   0.306
52333W        W24593  15.814  15.210   0.440
52334W        W24594  25.696  10.288   1.240
52335W        W24595   8.333  17.245   4.731
52336W        W24596  21.071  40.371   4.692
52337W        W24597  29.159  16.166   3.148
52338W        W24598  16.283  14.685  10.565
52339W        W24599  15.310  31.091   3.864
52340W        W24600  33.056  10.748  12.434
52341W        W24601  38.393  17.653  12.467
52342W        W24602  40.401  39.923  14.782
52343W        W24603  35.932   5.822  10.586
52344W        W24604  38.830   0.849  14.893
52345W        W24605  37.437  15.662   5.242
52346W        W24606   8.841  37.965   3.751
52347W        W24607  43.886  28.570   4.120
52348W        W24608   4.733  20.692   2.352
52349W        W24609   9.162  12.840   4.257
52350W        W24610   2.272  43.423  11.397
52351W        W24611   0.814   5.328  14.918
52352W        W24612  11.200   5.220  10.496
52353W        W24613   3.892  24.050   1.236
52354W        W24614  42.008  15.814  13.514
52355W        W24615   6.790  14.744   4.189
52356W        W24616  12.243  23.141  13.052
52357W        W24617  36.924   3.311  13.500
52358W        W24618  16.294  20.683  12.930
52359W        W24619  25.023  42.817   0.797
52360W        W24620  38.996  17.148  12.364
52361W        W24621  20.080  36.556  14.282
52362W        W24622  31.978  36.883  10.150
52363W        W24623  17.282  30.452   5.311
52364W        W24624  12.717  28.967   4.227
52365W        W24625   2.446   8.370   0.835
52366W        W24626  28.435   6.331   0.845
52367W        W24627  13.127  32.123   0.749
52368W        W24628  38.512   6.305   0.915
52369W        W24629  41.293  41.517  14.500
52370W        W24630  38.567  43.774   2.323
52371W        W24631  18.245  40.010   2.407
52372W        W24632  14.803  33.456   4.318
52373W        W24633  34.998  30.597   3.309
52374W        W24634   8.774  38.897   2.230
52375W        W24635  29.531  20.723  10.980
52376W        W24636  44.415  19.117  12.523
52377W        W24637  36.555  35.553  11.452
52378W        W24638   6.306  15.100   3.220
52379W        W24639  37.906  12.615   2.325
52380W        W24640  33.483  25.991  11.857
52381W        W24641  13.329   0.904  14.866
52382W        W24642  35.109  23.171  14.928
52383W        W24643  37.003   2.465  14.959
52384W        W24644   5.725   5.901   2.213
52385W        W24645   1.832   0.825   3.347
52386W        W24646  20.669  21.190   4.162
52387W        W24647  31.046  28.496   4.224
52388W        W24648   6.701  42.355   4.703
52389W        W24649  33.476   2.743  13.880
52390W        W24650  10.752  14.833  13.868
52391W        W24651  17.139  32.086   1.334
52392W        W24652  29.020  17.227   0.437
52393W        W24653  33.098  23.705   2.280
52394W        W24654  43.877  21.744  14.322
52395W        W24655  27.147  42.888  10.548
52396W        W24656  18.275   2.329   4.817
52397W        W24657   3.769  19.080  12.016
52398W        W24658  36.925   6.784   3.803
52399W        W24659   2.752   5.724   2.817
52400W        W24660  14.138  32.115   5.088
52401W        W24661  43.998  32.447   1.852
52402W        W24662  29.078  22.022  13.418
52403W        W24663  23.170  26.968   2.879
52404W        W24664  36.400  41.446  14.914
52405W        W24665  13.780  42.016  10.417
52406W        W24666  31.912  44.382   2.670
52407W        W24667   1.949  13.725   0.284
52408W        W24668   2.257  25.617  13.986
52409W        W24669   8.771  43.453  12.369
52410W        W24670  30.492  23.717   0.851
52411W        W24671  18.730  29.076   2.699
52412W        W24672  36.415  16.684   4.265
52413W        W24673  23.985  32.077   0.755
52414W        W24674   2.279  36.031  14.409
52415W        W24675  36.022  39.333  10.586
52416W        W24676  40.850  44.825  14.278
52417W        W24677  30.477  39.550   1.342
52418W        W24678  23.614  27.466   1.313
52419W        W24679   3.828   3.262  10.993
52420W        W24680   0.387  30.539   0.409
52421W        W24681  40.342  44.383  10.133
52422W        W24682  18.701  23.652  14.959
52423W        W24683  22.059  10.156  11.116
52424W        W24684  29.995   4.791  13.483
52425W        W24685  14.765  44.973  13.328
52426W        W24686  17.668  12.181  10.410
52427W        W24687  23.556  17.220   2.689
52428W        W24688  10.818  42.944  10.603
52429W        W24689   2.370  11.165   9.939
52430W        W24690  26.583  35.408  10.897
52431W        W24691  21.130  12.831  13.442
52432W        W24692   3.460  15.731  12.480
52433W        W24693  23.656   3.842   0.386
52434W        W24694  42.475  13.709  12.443
52435W        W24695  26.573  33.474  13.388
52436W        W24696  36.587   2.422  13.825
52437W        W24697  25.677  29.921   1.930
52438W        W24698  39.892  19.041   0.355
52439W        W24699  29.475  36.909  11.434
52440W        W24700  39.963  41.485   3.319
52441W        W24701   0.931  22.087   2.697
52442W        W24702  12.293  29.092   4.186
52443W        W24703  37.480  33.563  11.909
52444W        W24704   6.221  22.996   0.296
52445W        W24705  40.956  44.484   3.270
52446W        W24706  33.389  27.968   0.793
52447W        W24707  39.325  42.924   3.199
52448W        W24708  41.962  23.065   2.767
52449W        W24709   4.275   3.418  12.829
52450W        W24710  21.593  27.513  14.320
52451W        W24711  20.538  22.741  11.045
52452W        W24712  38.393  16.286   1.876
52453W        W24713  30.931  10.714   1.331
52454W        W24714  17.268  15.166   3.372
52455W        W24715  12.258   0.931  10.126
52456W        W24716  27.960   2.382  11.095
52457W        W24717   4.362  31.907   4.747
52458W        W24718  36.493   9.887  14.908
52459W        W24719  23.536  17.062   4.660
52460W        W24720  34.927  17.298  11.600
52461W        W24721  15.318  38.064   3.641
52462W        W24722  33.067  29.558   4.330
52463W        W24723  35.105  35.501   2.817
52464W        W24724  36.904  42.446   3.644
52465W        W24725  15.169   7.812  13.516
52466W        W24726  15.265  22.017   4.228
52467W        W24727   8.370  32.610  12.041
52468W        W24728  33.409  13.350  12.559
52469W        W24729  18.595  15.765   2.814
52470W        W24730  43.476  31.080   2.847
52471W        W24731  29.998  22.637  14.842
52472W        W24732  42.925  10.782   4.162
52473W        W24733  41.380   6.300   2.387
52474W        W24734  37.418  10.812  10.601
52475W        W24735   5.206   2.370   4.227
52476W        W24736   9.360   9.304   2.376
52477W        W24737  32.585   8.294   0.472
52478W        W24738  15.177  38.991   2.302
52479W        W24739  21.512  34.095   4.779
52480W        W24740  23.723  20.038   3.200
52481W        W24741  27.094  30.440   3.760
52482W        W24742  18.190  16.143  12.379
52483W        W24743  35.389  44.764  13.844
52484W        W24744  25.612  36.398  11.461
52485W        W24745  12.611  17.238   3.638
52486W        W24746  34.427  11.832   2.400
52487W        W24747  13.143   3.775   4.128
52488W        W24748  27.527   3.408  11.065
52489W        W24749  42.399   5.821   4.145
52490W        W24750  30.522  24.059  10.586
52491W        W24751  30.444  23.644  13.545
52492W        W24752  30.589   4.833  13.454
52493W        W24753  23.157  15.289  14.494
52494W        W24754  10.713  34.582   3.699
52495W        W24755  32.047  10.718   3.739
52496W        W24756  22.652  37.523  13.310
52497W        W24757  41.344   3.218  13.955
52498W        W24758  31.524  28.643   1.346
52499W        W24759  20.216  41.390  13.797
52500W        W24760   1.274  30.912  10.408
52501W        W24761  20.726  34.875  13.794
52502W        W24762  28.475  41.364  11.458
52503W        W24763  13.311  17.137   0.418
52504W        W24764  24.080  39.826  11.971
52505W        W24765  16.813  13.184  11.511
52506W        W24766  34.044  40.437  14.763
52507W        W24767  28.155  37.518  11.065
52508W        W24768  12.213   2.931   2.882
52509W        W24769   0.963  13.789  11.124
52510W        W24770  41.405  25.136   3.169
52511W        W24771   0.358  35.035   2.805
52512W        W24772  30.118   1.972   3.241
52513W        W24773  20.134  29.976   0.346
52514W        W24774  18.660  18.561   0.783
52515W        W24775   1.839  40.867  11.491
52516W        W24776   0.939   2.261  13.979
52517W        W24777  28.640   4.927   0.798
52518W        W24778   3.435  20.134   1.845
52519W        W24779  10.289  33.060  14.843
52520W        W24780   0.899  38.968   2.234
52521W        W24781  26.584  12.833   3.668
52522W        W24782   4.298  15.167   4.178
52523W        W24783  16.302  19.208   4.791
52524W        W24784  40.026  17.166  12.343
52525W        W24785  24.702  18.732  12.065
52526W        W24786  14.339  26.500  14.392
52527W        W24787  10.375  28.467  13.987
52528W        W24788  19.573  20.568   0.451
52529W        W24789  43.435  34.981  14.885
52530W        W24790   2.920  37.983  11.959
52531W        W24791  19.164   8.228  14.883
52532W        W24792  29.923   2.245  12.079
52533W        W24793   0.979   8.400  10.528
52534W        W24794  34.404   8.660  14.805
52535W        W24795  39.400  10.286   2.243
52536W        W24796  22.566  29.083   3.751
52537W        W24797  17.580  25.095   0.429
52538W        W24798   3.796  14.224   3.765
52539W        W24799  38.823  10.150  11.061
52540W        W24800   3.915  25.191  13.808
52541W        W24801  26.550  32.942   3.171
52542W        W24802   0.492   7.813  14.908
52543W        W24803  36.914  13.804   3.663
52544W        W24804  31.959  24.656   3.386
52545W        W24805  11.308  35.457  11.001
52546W        W24806  20.543  15.753   4.661
52547W        W24807  38.964  25.481   2.691
52548W        W24808   6.756  36.062  10.507
52549W        W24809  26.178  27.582   3.327
52550W        W24810  38.457  26.955  14.994
52551W        W24811  12.761  30.512   4.217
52552W        W24812  38.046  23.109   3.708
52553W        W24813  32.578   8.390   1.704
52554W        W24814  24.558  17.577   0.896
52555W        W24815   6.858  21.085  11.025
52556W        W24816  39.812  24.114   2.256
52557W        W24817   1.344  30.430  14.956
52558W        W24818  22.746  39.435   4.770
52559W        W24819  37.983   6.904   4.654
52560W        W24820  26.026  37.962  14.277
52561W        W24821  15.597   2.850  11.446
52562W        W24822  42.915  27.164   3.816
52563W        W24823  26.062  37.488   4.223
52564W        W24824  17.674  15.112   0.859
52565W        W24825   6.258  38.553  14.332
52566W        W24826  10.365   0.254   1.855
52567W        W24827   6.794  35.574   4.347
52568W        W24828   6.883  19.124   3.270
52569W        W24829  24.180  44.471   1.448
52570W        W24830  39.499  17.106   4.354
52571W        W24831  12.149  22.529  13.491
52572W        W24832  20.104  15.679   4.714
52573W        W24833  27.096  31.096  14.832
52574W        W24834   3.845   3.939   3.236
52575W        W24835  33.508  22.706  13.461
52576W        W24836  25.207  33.531  11.861
52577W        W24837   3.346  22.026  11.455
52578W        W24838  40.041  35.944   3.306
52579W        W24839  29.049  20.065   4.262
52580W        W24840  33.544   2.414  13.983
52581W        W24841  43.875  10.201  12.927
52582W        W24842  29.608  17.641   2.786
52583W        W24843  17.712  22.672   0.835
52584W        W24844  26.690  36.987   1.931
52585W        W24845  14.751   9.317  13.542
52586W        W24846  16.286  42.340  13.870
52587W        W24847  40.956   4.937   0.379
52588W        W24848   3.805  26.134   4.196
52589W        W24849  38.010  30.636   5.135
52590W        W24850  38.898  23.027  14.918
52591W        W24851  17.782  16.295  11.410
52592W        W24852  11.737   0.472  14.940
52593W        W24853  37.895  43.813   0.807
52594W        W24854  43.406   2.763   0.864
52595W        W24855  37.503  41.931  12.370
52596W        W24856  37.894   4.303  10.956
52597W        W24857   6.324  24.640  12.871
52598W        W24858   2.784   9.253  11.901
52599W        W24859   4.420  12.676  12.906
52600W        W24860   1.270   5.400  11.465
52601W        W24861  36.539  14.809  14.490
52602W        W24862  12.757  14.164   3.822
52603W        W24863  26.674  32.001   1.928
52604W        W24864   6.769  24.554   2.253
52605W        W24865  43.937  38.049  13.447
52606W        W24866  32.475   8.686  11.392
52607W        W24867  31.086  22.581   0.245
52608W        W24868  41.997  15.699  14.862
52609W        W24869   9.149   6.889   3.748
52610W        W24870  28.598  16.755   4.339
52611W        W24871  40.516  43.291   3.698
52612W        W24872   1.773  29.102   4.276
52613W        W24873  25.035  27.956  12.496
52614W        W24874  13.167  26.153   1.890
52615W        W24875  31.618  13.134   1.728
52616W        W24876  25.674  41.843   1.433
52617W        W24877  27.970  43.887  11.390
52618W        W24878  41.813   8.334   1.810
52619W        W24879   1.751  21.113   4.349
52620W        W24880  31.040  14.288   0.330
52621W        W24881  34.478  36.883  11.028
52622W        W24882  28.071  31.115   1.372
52623W        W24883  14.165  33.937  12.987
52624W        W24884  18.216  13.297   3.723
52625W        W24885  17.615  29.135   4.660
52626W        W24886  37.080   7.351   4.628
52627W        W24887  43.920  20.739   1.915
52628W        W24888  35.414  35.584   0.399
52629W        W24889  32.959  40.464  13.959
52630W        W24890  25.538  25.563   1.717
52631W        W24891   9.768  24.631   3.772
52632W        W24892  11.683  37.362  11.515
52633W        W24893   9.192  24.143  11.011
52634W        W24894   9.217  28.047  11.963
52635W        W24895  14.630   9.878   3.721
52636W        W24896  32.580  15.675   2.804
52637W        W24897  20.754   0.854   2.216
52638W        W24898   3.719   4.410  12.079
52639W        W24899  29.610  19.623   2.693
52640W        W24900  36.521  30.501  11.396
52641W        W24901  39.528  11.860  12.991
52642W        W24902  24.213   6.388  11.553
52643W        W24903  26.023  18.724   3.155
52644W        W24904  12.610  11.297   2.265
52645W        W24905  12.729  35.025  11.492
52646W        W24906  32.582   5.821  10.973
52647W        W24907  26.470   8.273  12.490
52648W        W24908  17.098  14.786  11.450
52649W        W24909  13.766   1.766  13.449
52650W        W24910   6.744  13.180   3.697
52651W        W24911   5.807  12.765  13.972
52652W        W24912  35.014  23.154   1.374
52653W        W24913  18.241   6.814  14.827
52654W        W24914   2.941  10.290   4.175
52655W        W24915  39.984  26.029  14.448
52656W        W24916  41.000  38.566   0.332
52657W        W24917  24.651  23.085  10.547
52658W        W24918  35.471  22.113   2.276
52659W        W24919   2.342  20.215  10.897
52660W        W24920  12.161   4.938   3.807
52661W        W24921  40.866  14.762   4.753
52662W        W24922  12.168  29.947  10.971
52663W        W24923  11.740  39.860   2.292
52664W        W24924   0.280  44.916   1.221
52665W        W24925   9.344  16.670  13.921
52666W        W24926  36.034  10.292  11.086
52667W        W24927  35.374   0.798  12.460
52668W        W24928   3.457  43.785   2.873
52669W        W24929   2.304  20.626  11.009
52670W        W24930   1.365  12.277  14.327
52671W        W24931  20.688  38.930  12.507
52672W        W24932  29.978  31.508  14.989
52673W        W24933  27.624   6.842   1.349
52674W        W24934  43.427  13.284   3.147
52675W        W24935  41.499  28.452   2.821
52676W        W24936  33.880   5.282  12.460
52677W        W24937  26.974  10.736   2.861
52678W        W24938  35.379  34.057  13.992
52679W        W24939  38.846  36.887  13.941
52680W        W24940   5.346  34.428   2.815
52681W        W24941   6.767  16.191   0.914
52682W        W24942  42.933  28.133   1.381
52683W        W24943   0.296  15.663   4.717
52684W        W24944   2.935  13.641  11.914
52685W        W24945  33.473   5.707   2.741
52686W        W24946  23.721  10.699   0.379
52687W        W24947  26.617   6.726  14.462
52688W        W24948   8.695  17.200  12.085
52689W        W24949   6.235  33.116  11.384
52690W        W24950   4.346  30.460   0.880
52691W        W24951  19.041  15.634  12.498
52692W        W24952  44.922  34.876   3.633
52693W        W24953  38.974  12.208   4.723
52694W        W24954  12.676  35.393   4.197
52695W        W24955  39.353  41.026   0.309
52696W        W24956  36.871  14.775   2.227
52697W        W24957   9.872   5.894   3.724
52698W        W24958  35.891   2.413  11.905
52699W        W24959  20.162   4.796   1.296
52700W        W24960   0.450   7.405   1.324
52701W        W24961   3.901  20.688  12.967
52702W        W24962  40.025  38.481   1.258
52703W        W24963   5.226  11.824   4.790
52704W        W24964  38.914   5.362  12.445
52705W        W24965   7.260  41.348  13.797
52706W        W24966  43.504  10.741   1.337
52707W        W24967   0.430  33.623   3.654
52708W        W24968  27.022  38.512  12.958
52709W        W24969  11.227  14.657  13.395
52710W        W24970  37.557  29.506   0.333
52711W        W24971  14.636  17.199  14.858
52712W        W24972  21.666   2.956  11.941
52713W        W24973   8.802  33.037   4.620
52714W        W24974   2.958  43.408  12.546
52715W        W24975  10.824  39.980  10.584
52716W        W24976   0.868  28.961   4.764
52717W        W24977   3.773   0.336  10.044
52718W        W24978   0.972  20.528  10.539
52719W        W24979  29.564  39.058   4.307
52720W        W24980  38.854  43.863  14.381
52721W        W24981  14.259  19.197   1.401
52722W        W24982   1.803  38.451   2.726
52723W        W24983   5.313  32.892   1.329
52724W        W24984  35.481  31.979  12.399
52725W        W24985  42.929   5.705  13.810
52726W        W24986  32.967  19.588   0.963
52727W        W24987  39.912   5.899   0.391
52728W        W24988   8.892  26.466  14.493
52729W        W24989  31.575  31.597   9.536
52730W        W24990  17.197  14.143   1.259
52731W        W24991  29.560  44.353  12.538
52732W        W24992  24.164  31.083  13.461
52733W        W24993  43.923  40.946   2.738
52734W        W24994  13.126  24.229  12.068
52735W        W24995  11.844  33.008   3.837
52736W        W24996  43.275  23.028   4.121
52737W        W24997  21.600  14.738  13.053
52738W        W24998  14.212  37.474  13.406
52739W        W24999  20.664  17.246  10.899
52740W        W25000  16.312   1.399  11.877
52741W        W25001   8.309  29.982  12.578
52742W        W25002  31.594  22.174  10.603
52743W        W25003  23.105  20.254  11.869
52744W        W25004  22.738  43.425   0.305
52745W        W25005  19.546  44.814  14.890
52746W        W25006  39.010  25.030   2.189
52747W        W25007   2.353  21.180  12.459
52748W        W25008  20.565  18.205  12.400
52749W        W25009  26.629  10.804  12.393
52750W        W25010  36.418   9.344  11.007
52751W        W25011  22.688  15.243  14.279
52752W        W25012   0.762   4.724   0.897
52753W        W25013  14.743  21.669   2.353
52754W        W25014   7.408  11.238   0.403
52755W        W25015  14.740  16.175   4.135
52756W        W25016   3.445   3.754   2.677
52757W        W25017   9.326  40.831  10.532
52758W        W25018  42.466  32.997  14.924
52759W        W25019  26.039   5.723   0.304
52760W        W25020  37.016   7.681  12.971
52761W        W25021  34.568  43.459   3.385
52762W        W25022  38.365  29.650  13.834
52763W        W25023  14.161  30.641   4.736
52764W        W25024  21.030  25.020  12.928
52765W        W25025  42.006  44.961  10.435
52766W        W25026  12.833  19.587   4.354
52767W        W25027  33.036  28.600   3.744
52768W        W25028  37.896   8.298   3.863
52769W        W25029  33.089  34.392   0.265
52770W        W25030  31.493  11.136  11.559
52771W        W25031  21.621  19.547   4.641
52772W        W25032   9.783  35.368   1.222
52773W        W25033  16.632  10.153  10.583
52774W        W25034   0.437  26.022  13.845
52775W        W25035  17.571  39.881   2.328
52776W        W25036  16.742  21.142  13.313
52777W        W25037  20.664  20.608  13.888
52778W        W25038  28.053  27.957   4.307
52779W        W25039  18.081  13.696  12.412
52780W        W25040  29.026  33.551  11.073
52781W        W25041  34.006  34.984   1.332
52782W        W25042  29.440  42.872  13.970
52783W        W25043  44.993  42.440   0.896
52784W        W25044   7.905  21.695  10.571
52785W        W25045  41.383  29.669   4.739
52786W        W25046  44.810   2.965  13.329
52787W        W25047  35.454  10.664  12.467
52788W        W25048   2.927  43.309  11.018
52789W        W25049  23.528  23.989  12.470
52790W        W25050  36.077   9.710   4.728
52791W        W25051  27.632  11.685  12.419
52792W        W25052  32.994  25.005  14.944
52793W        W25053   8.875  37.045  14.890
52794W        W25054  40.029  11.129  14.331
52795W        W25055  13.309   2.928   2.270
52796W        W25056  36.884  34.488  13.809
52797W        W25057  10.727  39.557  14.396
52798W        W25058  30.592  37.986   2.304
52799W        W25059  21.648  19.634  10.629
52800W        W25060  20.717   5.387   4.826
52801W        W25061  26.119   2.469   4.351
52802W        W25062  18.664  38.003   0.419
52803W        W25063  10.273  15.682   1.695
52804W        W25064  14.305   6.192  12.088
52805W        W25065  11.283  23.241  11.418
52806W        W25066  11.658   1.248  11.124
52807W        W25067  10.699  30.618  14.941
52808W        W25068  10.285  14.243  10.608
52809W        W25069  21.595  31.121   2.313
52810W        W25070  18.784  22.512  14.767
52811W        W25071   2.872   5.414   2.384
52812W        W25072  31.543  22.092   4.768
52813W        W25073  29.539  25.711  11.528
52814W        W25074  40.396  17.123   1.252
52815W        W25075  31.007  37.875   1.927
52816W        W25076  35.936  33.599  14.002
52817W        W25077  36.346  34.381  11.936
52818W        W25078  19.180  20.199  13.397
52819W        W25079  38.380   8.728  12.051
52820W        W25080   4.869  44.292  12.825
52821W        W25081   7.242  22.184   0.479
52822W        W25082  43.859  10.865   2.886
52823W        W25083  26.513  44.330   5.144
52824W        W25084  33.102  37.579   0.282
52825W        W25085  17.710   5.886   3.157
52826W        W25086  19.191  35.875   0.349
52827W        W25087  39.355   3.313   3.760
52828W        W25088  12.786   1.845  13.393
52829W        W25089  35.565  15.087   3.868
52830W        W25090  31.911   9.261  12.026
52831W        W25091  14.286  28.068   2.208
52832W        W25092  37.836   5.788   4.277
52833W        W25093  36.047  20.246   4.195
52834W        W25094  35.090   3.767   1.380
52835W        W25095  15.199  15.142   4.735
52836W        W25096  25.084  15.798  12.952
52837W        W25097  20.553   5.905  12.466
52838W        W25098  44.992  27.491   0.878
52839W        W25099  29.528  34.503  10.976
52840W        W25100  34.914  44.484  10.010
52841W        W25101   0.442  33.894  14.773
52842W        W25102   3.912   1.411   2.291
52843W        W25103  15.133  15.814   2.313
52844W        W25104  18.578   3.337   4.631
52845W        W25105  40.411  10.284   4.715
52846W        W25106  21.655  12.717   4.837
52847W        W25107  18.608  44.330  14.764
52848W        W25108  43.881  23.593  14.321
52849W        W25109   9.861  38.426   0.781
52850W        W25110  22.164  27.049  14.464
52851W        W25111  23.097  24.176  12.459
52852W        W25112  16.293  36.545  14.023
52853W        W25113   3.220  41.409   4.765
52854W        W25114  26.501   0.418   0.908
52855W        W25115  27.681  44.459   1.264
52856W        W25116  16.584   1.262   0.271
52857W        W25117  13.114   4.292   2.196
52858W        W25118  20.587  43.295   3.167
52859W        W25119   3.446   7.390  14.015
52860W        W25120  12.335  30.521   3.214
52861W        W25121  39.987  23.577  12.082
52862W        W25122  22.560  24.615  12.948
52863W        W25123  11.336  14.683   0.427
52864W        W25124  20.532   5.257  11.422
52865W        W25125  22.692  22.147  14.974
52866W        W25126  40.973  22.681   4.248
52867W        W25127  36.979  33.105   4.823
52868W        W25128  15.253  26.093  11.385
52869W        W25129  41.525  41.441   3.821
52870W        W25130   7.895  25.499  12.477
52871W        W25131  44.322   4.236  11.504
52872W        W25132   8.401  29.057  11.024
52873W        W25133  44.930  33.932  10.497
52874W        W25134  34.879  35.501  11.020
52875W        W25135   2.380   0.362  10.948
52876W        W25136  12.248   1.923  12.850
52877W        W25137  10.683  40.858  10.571
52878W        W25138  41.319  44.817   2.765
52879W        W25139   3.453  23.013  10.443
52880W        W25140   0.364   6.427   3.850
52881W        W25141  10.648  18.285   2.728
52882W        W25142   5.856   0.895   3.759
52883W        W25143  22.685  36.054   0.359
52884W        W25144  11.859  34.447  12.868
52885W        W25145  12.308  12.776   4.247
52886W        W25146  42.846  29.963  10.539
52887W        W25147   2.434   6.867   1.404
52888W        W25148  22.715  42.400  12.830
52889W        W25149  41.925   8.381  12.423
52890W        W25150  34.467  22.119  11.949
52891W        W25151  35.574  27.475  11.095
52892W        W25152  31.036  43.481   4.619
52893W        W25153  23.138  30.658  10.495
52894W        W25154  16.312   4.837   4.772
52895W        W25155  25.532   1.455   3.345
52896W        W25156  10.863  33.415   2.201
52897W        W25157   0.773  31.555   4.743
52898W        W25158  30.532  20.606  13.876
52899W        W25159  32.571  14.712  14.828
52900W        W25160  44.384  32.118  13.849
52901W        W25161  24.152  18.160   0.457
52902W        W25162  30.026  34.585   3.213
52903W        W25163   5.793  31.508   3.320
52904W        W25164  29.437  33.939  11.935
52905W        W25165  42.816  38.423   0.368
52906W        W25166  41.428  22.221   4.126
52907W        W25167  22.698  33.410   0.887
52908W        W25168  20.711  19.667  11.553
52909W        W25169   6.352  29.052   1.925
52910W        W25170  18.727  14.701   4.647
52911W        W25171  25.167  31.579   1.397
52912W        W25172  30.654   8.308   4.708
52913W        W25173  29.998  22.666  13.838
52914W        W25174  15.215  34.437  11.062
52915W        W25175  19.271  32.911  12.378
52916W        W25176  38.334  31.078  12.903
52917W        W25177  33.062  29.528  13.363
52918W        W25178   0.433   1.915   2.694
52919W        W25179  25.673  12.800   3.291
52920W        W25180  15.144   7.391   2.890
52921W        W25181  34.993  10.211  12.843
52922W        W25182   0.960  33.923   4.210
52923W        W25183  43.286  38.065   4.182
52924W        W25184  35.495  42.847   0.359
52925W        W25185  22.141   6.216   2.303
52926W        W25186  40.374  31.433  10.621
52927W        W25187  35.956   4.772   1.871
52928W        W25188  26.987   1.457  13.020
52929W        W25189  18.759   1.845   0.795
52930W        W25190  41.384  26.473   2.193
52931W        W25191  30.581  24.711  13.355
52932W        W25192  16.129  29.946   3.261
52933W        W25193  22.662  12.224   4.734
52934W        W25194   8.259  40.547   3.825
52935W        W25195  39.447  39.890  11.539
52936W        W25196  30.989  38.934  11.400
52937W        W25197   2.916  31.501  12.845
52938W        W25198  37.511  34.615  13.945
52939W        W25199  43.838  34.913   3.762
52940W        W25200  23.170  31.511   1.323
52941W        W25201  21.241  17.642  12.904
52942W        W25202  27.490   9.227   1.230
52943W        W25203  26.132   0.390   0.955
52944W        W25204  23.140  39.036   4.730
52945W        W25205  31.947  21.193  12.532
52946W        W25206  41.885  15.277  13.398
52947W        W25207  15.763  24.563   4.249
52948W        W25208  24.055   2.378   0.868
52949W        W25209  33.071  37.956   3.324
52950W        W25210  42.990  37.469  14.770
52951W        W25211   2.346  21.556  13.383
52952W        W25212  40.921  13.735  13.458
52953W        W25213  36.512  36.968  11.895
52954W        W25214   8.901  16.688   4.218
52955W        W25215  19.778  39.440  10.447
52956W        W25216  36.911  29.145   1.332
52957W        W25217  15.089   2.745   3.210
52958W        W25218  31.633   3.259  11.932
52959W        W25219  42.406  35.857  14.292
52960W        W25220  39.361  37.337   0.739
52961W        W25221   0.938  19.106   1.725
52962W        W25222  38.340  42.519  10.936
52963W        W25223  24.151  32.945  12.542
52964W        W25224  13.125  12.745  10.524
52965W        W25225  33.095  41.837  11.612
52966W        W25226  14.312  39.514   1.300
52967W        W25227   8.863  24.126  10.622
52968W        W25228  38.567   3.892  10.421
52969W        W25229   9.168   9.843  13.943
52970W        W25230  28.178  34.525   2.303
52971W        W25231  34.009  31.121  13.399
52972W        W25232   5.260  14.254  13.446
52973W        W25233  24.026  40.526   1.449
52974W        W25234  39.002  31.543  11.038
52975W        W25235  11.641   8.875  11.858
52976W        W25236  15.739  29.518  13.532
52977W        W25237   3.883  12.856  14.980
52978W        W25238  25.544  42.826   9.940
52979W        W25239  34.091  13.642  13.801
52980W        W25240   2.899  38.402  11.873
52981W        W25241   3.800   3.799  10.957
52982W        W25242  18.641  20.666  10.980
52983W        W25243   5.889   7.896  14.805
52984W        W25244  40.921  43.888   4.134
52985W        W25245  13.193  13.841   3.639
52986W        W25246  15.695  29.439   2.741
52987W        W25247  21.756  13.789   0.270
52988W        W25248  22.139  43.937  10.906
52989W        W25249  23.212  14.121   0.380
52990W        W25250  25.082  41.481  10.972
52991W        W25251  11.736  20.179  13.999
52992W        W25252  18.678  30.444   0.956
52993W        W25253  10.244  28.587  14.340
52994W        W25254  29.965  24.497  14.919
52995W        W25255   3.884   8.204  10.416
52996W        W25256  15.746  20.211  12.546
52997W        W25257   0.300   6.922   1.805
52998W        W25258  21.611  29.583  11.966
52999W        W25259  17.101   5.832  12.897
53000W        W25260  12.640  28.666   1.410
53001W        W25261  29.457   0.832   1.760
53002W        W25262  15.592  25.575  14.426
53003W        W25263  41.799  31.644   1.298
53004W        W25264  21.704  37.016  11.434
53005W        W25265   7.368  35.995   0.393
53006W        W25266  24.177  26.081  10.638
53007W        W25267  31.598  39.473   2.385
53008W        W25268  17.063  16.211   0.307
53009W        W25269  36.938  40.000  14.374
53010W        W25270   6.733   2.940  10.920
53011W        W25271  31.491   8.845   2.705
53012W        W25272  27.519   9.813   3.369
53013W        W25273   7.912  34.532  14.823
53014W        W25274  14.661  23.123   3.289
53015W        W25275  26.954  39.489  11.010
53016W        W25276  20.041  13.706   4.672
53017W        W25277  13.705  36.890   0.924
53018W        W25278   2.724   3.925  11.602
53019W        W25279  12.851  31.020  12.954
53020W        W25280  43.410  15.163   3.818
53021W        W25281  14.180  28.575   0.384
53022W        W25282  21.219  27.474  10.128
53023W        W25283  33.085  41.519   0.831
53024W        W25284   2.875  34.957   2.194
53025W        W25285  15.710  16.299   0.410
53026W        W25286   7.718  42.852   4.332
53027W        W25287  17.767   4.421   3.860
53028W        W25288  33.608  12.328  12.852
53029W        W25289  16.114  33.977  14.492
53030W        W25290  42.979  26.512  13.881
53031W        W25291  12.145  24.085  12.446
53032W        W25292  21.536  37.345  10.440
53033W        W25293  15.713  12.126   1.713
53034W        W25294  28.090  43.867   2.864
53035W        W25295  15.796  14.299  11.996
53036W        W25296  36.551  37.943   2.883
53037W        W25297  12.346  28.155  13.496
53038W        W25298  23.534  19.567  12.918
53039W        W25299  17.073  26.465   0.777
53040W        W25300  25.968   9.752   0.792
53041W        W25301  24.634  24.488  14.485
53042W        W25302  43.990  30.127   4.206
53043W        W25303  13.673  21.101  12.895
53044W        W25304  15.781  39.525  14.488
53045W        W25305   6.189  38.450   4.122
53046W        W25306  26.021  37.942   2.720
53047W        W25307  23.141  21.724  14.802
53048W        W25308  30.114  39.549  13.376
53049W        W25309  11.285   5.900   4.217
53050W        W25310  31.900  26.973  12.991
53051W        W25311  37.409  29.028  10.475
53052W        W25312  28.976  41.438  14.019
53053W        W25313  30.622  15.605   3.189
53054W        W25314  17.709  24.708   0.856
53055W        W25315  34.001  28.034   2.255
53056W        W25316  12.786  40.852   2.849
53057W        W25317  23.722  32.451  11.602
53058W        W25318  10.306  37.495  13.916
53059W        W25319   6.774   4.272   4.727
53060W        W25320  42.937  24.098  11.581
53061W        W25321  38.391  21.601   0.911
53062W        W25322  42.919  34.474  12.534
53063W        W25323  18.280  20.167   0.811
53064W        W25324  40.942  18.579  11.982
53065W        W25325   4.377   3.248   4.732
53066W        W25326   6.313  37.377  12.965
53067W        W25327  37.060   3.228  11.103
53068W        W25328  11.721  30.466   2.415
53069W        W25329  18.130  29.083   3.299
53070W        W25330   5.243  29.571  10.902
53071W        W25331  18.744   9.712  13.359
53072W        W25332  19.056  44.889  12.057
53073W        W25333  28.104  23.492   1.854
53074W        W25334   8.750  14.283   0.287
53075W        W25335  24.987   0.948  10.585
53076W        W25336  29.521  30.036  12.470
53077W        W25337  27.574  19.068   4.790
53078W        W25338  12.178   0.385   0.476
53079W        W25339  37.084  17.218   1.839
53080W        W25340  36.446  29.143   1.272
53081W        W25341  36.432  35.924   4.201
53082W        W25342   9.886  13.126  12.472
53083W        W25343   7.247  24.201  10.451
53084W        W25344  42.309  21.638  11.395
53085W        W25345  18.635  38.045   0.850
53086W        W25346   8.898  30.114   4.676
53087W        W25347  19.567  15.763   5.169
53088W        W25348  11.823  13.710   1.921
53089W        W25349  34.404  17.174  12.017
53090W        W25350  40.009  30.566   3.369
53091W        W25351  25.471  17.183   0.414
53092W        W25352  13.125  13.107  14.367
53093W        W25353  20.080  23.161  14.300
53094W        W25354  39.898  33.431   1.411
53095W        W25355  18.648   1.755  14.978
53096W        W25356   6.868  29.932  13.411
53097W        W25357  39.061   7.844  12.095
53098W        W25358  44.282  41.501  13.983
53099W        W25359  18.593   9.833   3.687
53100W        W25360  19.251  20.715  14.867
53101W        W25361  18.245  10.739  13.530
53102W        W25362  17.633  26.695  12.471
53103W        W25363  30.076  16.587   0.427
53104W        W25364  27.543  29.581  13.368
53105W        W25365   5.268  20.191   4.118
53106W        W25366  19.060   0.921  10.504
53107W        W25367   1.362  11.807   0.445
53108W        W25368  22.142  42.516   3.258
53109W        W25369   7.858  14.771   0.771
53110W        W25370   5.201   5.823  11.598
53111W        W25371   5.714  34.523   3.854
53112W        W25372  29.608  30.942  12.459
53113W        W25373   2.311  25.132   1.824
53114W        W25374  10.632  43.310  10.639
53115W        W25375  41.988  10.381  14.783
53116W        W25376  21.117  13.119  10.408
53117W        W25377  20.072  24.978  13.432
53118W        W25378  36.362   7.370  13.947
53119W        W25379   0.899  31.965  14.023
53120W        W25380  26.678  17.255  10.465
53121W        W25381   6.242  40.391  13.926
53122W        W25382  43.777  44.891  13.483
53123W        W25383  12.673  26.605  14.342
53124W        W25384  39.552  15.640  11.092
53125W        W25385  33.884  10.142   1.788
53126W        W25386  13.730  26.523   3.247
53127W        W25387  15.283  39.965   3.851
53128W        W25388  36.858  12.787  12.578
53129W        W25389  10.320  20.669  13.964
53130W        W25390  17.213  32.559  12.064
53131W        W25391   0.353  27.128   2.230
53132W        W25392  43.851  28.515   0.758
53133W        W25393   5.214  27.979  13.017
53134W        W25394  19.693  21.181  11.525
53135W        W25395  24.004  43.877  11.441
53136W        W25396  32.439   8.811   5.156
53137W        W25397  44.379   3.841  11.915
53138W        W25398  27.139  37.874   0.775
53139W        W25399  44.972  42.497  13.414
53140W        W25400  32.390  44.398   4.313
53141W        W25401  36.479  42.320  13.514
53142W        W25402  19.580  42.799  14.952
53143W        W25403  14.813  19.277   4.261
53144W        W25404  32.462  36.096   2.312
53145W        W25405  17.103   0.307   3.799
53146W        W25406  40.948  18.078   1.322
53147W        W25407  29.985  11.694  14.832
53148W        W25408  21.601  37.492  11.005
53149W        W25409  30.146  25.677  10.556
53150W        W25410  30.470  13.278  14.438
53151W        W25411  41.463  39.474  12.554
53152W        W25412   2.911   0.391   4.213
53153W        W25413  31.957  44.959  14.400
53154W        W25414  39.487  28.062   3.386
53155W        W25415  16.752  24.031   4.129
53156W        W25416  11.672  18.609  11.565
53157W        W25417   3.918  30.038   3.836
53158W        W25418   6.391  27.159  10.490
53159W        W25419  12.767  34.048   1.921
53160W        W25420  26.973  35.508  11.931
53161W        W25421  26.664  18.259   0.378
53162W        W25422   5.393  12.220  12.006
53163W        W25423  38.451  34.597   3.335
53164W        W25424  34.397  32.498  13.445
53165W        W25425  25.472   5.347  13.802
53166W        W25426  24.183   0.986  14.941
53167W        W25427   2.950  35.907   0.269
53168W        W25428  35.038  29.089   1.364
53169W        W25429   9.746  17.719  13.415
53170W        W25430  33.965  18.064  12.500
53171W        W25431  28.478  35.585   1.729
53172W        W25432  37.405  25.641  13.981
53173W        W25433  24.220  32.903  10.964
53174W        W25434   3.327  18.652  12.053
53175W        W25435  21.627  34.088  13.425
53176W        W25436  41.319  21.051  13.038
53177W        W25437   0.981  34.929   1.766
53178W        W25438  29.546  26.958  13.004
53179W        W25439  14.261  17.643   0.442
53180W        W25440  10.653  10.838   0.361
53181W        W25441  38.826  13.795  12.488
53182W        W25442  14.310  28.562  13.849
53183W        W25443  40.868  12.840  13.497
53184W        W25444   4.225  19.147   3.786
53185W        W25445  27.654  13.215   2.214
53186W        W25446  38.909  32.614   1.254
53187W        W25447   9.729  44.892  12.457
53188W        W25448  26.165  36.031  13.924
53189W        W25449  29.023  41.344   4.618
53190W        W25450  39.441   8.170   0.405
53191W        W25451  35.852  34.077  12.874
53192W        W25452  32.047  16.794  14.003
53193W        W25453  20.709  12.852  12.983
53194W        W25454  35.106  32.457   1.783
53195W        W25455  10.332  10.697  13.537
53196W        W25456  28.119   4.358  14.897
53197W        W25457   1.302   5.288  10.903
53198W        W25458  10.672  37.888  13.851
53199W        W25459   2.409  12.266  14.907
53200W        W25460  37.888  39.525  10.428
53201W        W25461  27.645  23.181  13.899
53202W        W25462  12.201  23.091  10.565
53203W        W25463  39.399  33.992  12.475
53204W        W25464  41.360   5.910  14.770
53205W        W25465  36.511   6.812   1.272
53206W        W25466   5.765  27.585   0.923
53207W        W25467  35.914   3.243  14.030
53208W        W25468  38.495   1.424  13.458
53209W        W25469  18.607  26.086   4.196
53210W        W25470  18.234  39.884   1.727
53211W        W25471  35.549   5.914  12.496
53212W        W25472  23.202  29.962  11.520
53213W        W25473   9.358   6.217  12.067
53214W        W25474  39.811  42.408   1.721
53215W        W25475  41.837   0.309   5.232
53216W        W25476   7.750  20.737   2.254
53217W        W25477  35.945  40.438   2.335
53218W        W25478  22.503  40.824   3.260
53219W        W25479  27.460  26.010   4.695
53220W        W25480  27.446  16.582   1.823
53221W        W25481  22.131   2.307   3.242
53222W        W25482  41.351  11.771  12.823
53223W        W25483  17.728   6.859   1.712
53224W        W25484  40.853  23.986   0.468
53225W        W25485  31.977   0.830  11.999
53226W        W25486   7.768   9.690  10.645
53227W        W25487  33.506   0.415  11.912
53228W        W25488   5.791  35.475  14.825
53229W        W25489  33.879  14.111   1.787
53230W        W25490  26.687   6.813   0.966
53231W        W25491   4.864  14.695  13.381
53232W        W25492  34.882   1.972   0.414
53233W        W25493  10.862  43.324   0.318
53234W        W25494  26.024  10.756   3.380
53235W        W25495  43.981  33.437  12.519
53236W        W25496  41.355  30.073  12.470
53237W        W25497  30.620  33.542   4.698
53238W        W25498  30.605  24.206  12.856
53239W        W25499  19.600  19.665  11.479
53240W        W25500   2.732  35.098  10.619
53241W        W25501  19.215  10.164  11.581
53242W        W25502   8.830  25.589  12.383
53243W        W25503   9.226   4.448  13.366
53244W        W25504   3.389  19.183   2.291
53245W        W25505  23.728  11.832  14.335
53246W        W25506  42.786  11.270  13.031
53247W        W25507  19.631   3.230   4.270
53248W        W25508  27.959  23.717  10.616
53249W        W25509   6.703  25.205   0.754
53250W        W25510  43.786   6.909  13.439
53251W        W25511  15.194  27.513  13.004
53252W        W25512  35.465  25.987   4.796
53253W        W25513  38.016  38.521  11.586
53254W        W25514  16.106  32.897  11.054
53255W        W25515  34.974  20.255  14.899
53256W        W25516  19.579  27.646  10.928
53257W        W25517  29.150  29.494   9.539
53258W        W25518  22.604   5.351  13.391
53259W        W25519  44.276  24.623  14.447
53260W        W25520  32.404  22.995  13.908
53261W        W25521  24.479   9.209   2.900
53262W        W25522  20.713  34.611  10.992
53263W        W25523  22.076  10.263   2.684
53264W        W25524   3.451   4.734   3.191
53265W        W25525  20.077  32.982  11.494
53266W        W25526  34.965  25.639   2.373
53267W        W25527  39.830  34.093  11.997
53268W        W25528  40.438  36.505   4.781
53269W        W25529  39.809  18.110   3.251
53270W        W25530  32.072  35.915  12.369
53271W        W25531  10.320  17.198   4.152
53272W        W25532  40.314  23.141  13.000
53273W        W25533   5.297   0.914  14.913
53274W        W25534  15.594  21.176  12.496
53275W        W25535  14.131   2.435  12.543
53276W        W25536  44.326  26.172  12.054
53277W        W25537  39.916  41.314   4.727
53278W        W25538   1.292   7.867  11.612
53279W        W25539  24.210   4.361   0.298
53280W        W25540  23.001  11.276  11.579
53281W        W25541  24.092  34.509  13.820
53282W        W25542  19.563  20.052  10.090
53283W        W25543   6.390  28.609  11.426
53284W        W25544  18.259   8.845  12.467
53285W        W25545  23.096  43.875  13.968
53286W        W25546   1.293   5.216  14.365
53287W        W25547  22.664  11.770  14.974
53288W        W25548  14.245  31.055  13.339
53289W        W25549  41.914  37.066  13.482
53290W        W25550   4.880  18.170   0.923
53291W        W25551  30.009  39.517   3.775
53292W        W25552  18.650  12.236  11.473
53293W        W25553  39.400   8.717  11.892
53294W        W25554  37.551  40.530   5.097
53295W        W25555  30.947  39.949  11.114
53296W        W25556  28.955   7.868  10.512
53297W        W25557  30.092   0.901   2.892
53298W        W25558  28.632  43.794  10.556
53299W        W25559   4.730  33.484  14.430
53300W        W25560   7.894  29.064   3.699
53301W        W25561  35.010  24.672  10.973
53302W        W25562  16.200   9.875  10.612
53303W        W25563  24.033  31.483   4.672
53304W        W25564  19.162  39.056  10.610
53305W        W25565  33.938   3.278   4.622
53306W        W25566  31.501  29.918  12.876
53307W        W25567  12.614  42.355  13.929
53308W        W25568  25.568  17.212  14.432
53309W        W25569  29.557  19.114   4.793
53310W        W25570  28.529  20.100   0.328
53311W        W25571  10.696   0.252   4.660
53312W        W25572  42.378  22.506   4.715
53313W        W25573  11.132   8.393  11.447
53314W        W25574   0.858   4.746  10.893
53315W        W25575  43.955  12.831  11.042
53316W        W25576  28.667  10.769  10.926
53317W        W25577  43.370  19.173  11.516
53318W        W25578  37.927   2.875   3.743
53319W        W25579  10.636  33.124   2.368
53320W        W25580  25.168  21.558  12.403
53321W        W25581   8.254  33.399  11.088
53322W        W25582  43.875  43.882   4.644
53323W        W25583   8.834  36.018  12.935
53324W        W25584  42.016  15.653   0.281
53325W        W25585   4.245  38.032  13.455
53326W        W25586  42.295  20.150   4.824
53327W        W25587  37.082  10.190   0.871
53328W        W25588  26.702  42.360  13.014
53329W        W25589   0.325  21.542   1.404
53330W        W25590  43.942  26.640  11.105
53331W        W25591  44.777  43.446   3.234
53332W        W25592  23.063  11.738   4.724
53333W        W25593   0.259   6.409  13.496
53334W        W25594  21.228  36.034  14.303
53335W        W25595  31.508   7.732  11.108
53336W        W25596   6.355  17.144   1.378
53337W        W25597  32.413  17.607   1.776
53338W        W25598  22.032   7.774   0.815
53339W        W25599  29.457   7.668  11.585
53340W        W25600  18.768  14.284   5.107
53341W        W25601  25.557  30.580   4.685
53342W        W25602   4.283   3.458  10.619
53343W        W25603  40.010  30.045   1.389
53344W        W25604   0.943  33.439  14.866
53345W        W25605  42.992  29.491  14.312
53346W        W25606  13.148   0.881  10.626
53347W        W25607   2.278  14.638   1.238
53348W        W25608  25.187  23.122   3.776
53349W        W25609   3.721  14.177  11.553
53350W        W25610  12.817  17.774   0.837
53351W        W25611  20.130  10.695  12.577
53352W        W25612   0.386   5.891   4.739
53353W        W25613   4.363  44.445   0.350
53354W        W25614  36.366   8.212  10.583
53355W        W25615   2.966  19.123   4.253
53356W        W25616  23.073   4.221  10.982
53357W        W25617  43.487  25.570  12.526
53358W        W25618  20.621   7.714  11.599
53359W        W25619  15.107  12.838   3.818
53360W        W25620  11.821   1.762   0.324
53361W        W25621  40.904  29.564   2.662
53362W        W25622   4.914  19.190  10.961
53363W        W25623  24.547  42.320   1.389
53364W        W25624  38.493  40.498  11.009
53365W        W25625  40.512  12.670  13.481
53366W        W25626   4.852  34.940   1.789
53367W        W25627  12.131   1.313   4.122
53368W        W25628   3.892  40.346  11.584
53369W        W25629  21.733  36.483   1.224
53370W        W25630  35.049   6.234  10.931
53371W        W25631  38.849  15.803   1.278
53372W        W25632  28.118  12.622  10.567
53373W        W25633  22.647   8.204  13.434
53374W        W25634   3.443  35.046   0.416
53375W        W25635  19.198   2.829  11.088
53376W        W25636  20.083  23.134   4.659
53377W        W25637  43.859   0.299   4.756
53378W        W25638  31.993  36.361  11.060
53379W        W25639   7.848  39.554   4.121
53380W        W25640   9.185  25.014   1.839
53381W        W25641  13.157  30.618   1.450
53382W        W25642   4.369   2.289   3.855
53383W        W25643  39.416  40.891   3.678
53384W        W25644  28.074  27.624  11.530
53385W        W25645  32.067   0.463   3.370
53386W        W25646  13.291  43.972  11.611
53387W        W25647   2.358   4.364  13.931
53388W        W25648  11.831  19.132   4.646
53389W        W25649   3.330   0.943   4.804
53390W        W25650  39.445  16.169   2.786
53391W        W25651   8.891  27.657   0.910
53392W        W25652  43.862  44.962   4.601
53393W        W25653  34.897   9.755   2.220
53394W        W25654  22.572  25.582   1.392
53395W        W25655  43.921  42.776  12.395
53396W        W25656   1.766  31.522   0.439
53397W        W25657  33.540  44.789   3.279
53398W        W25658  26.569   3.258  12.537
53399W        W25659   0.268  43.323  11.440
53400W        W25660  36.386  27.155   1.446
53401W        W25661  42.968  34.088  11.944
53402W        W25662  29.429  12.133  14.783
53403W        W25663  27.083  43.409  13.313
53404W        W25664  24.694  21.034  10.551
53405W        W25665  41.377  15.221   1.771
53406W        W25666  35.002  28.530   4.327
53407W        W25667  38.479   5.409  14.457
53408W        W25668   7.674  37.075  10.543
53409W        W25669  15.619  37.014   2.406
53410W        W25670  14.652  14.709  10.082
53411W        W25671   9.266  11.278  13.441
53412W        W25672  31.011  13.238   0.463
53413W        W25673  17.593  31.575   4.742
53414W        W25674  27.631  35.362   0.412
53415W        W25675   6.708  17.775  13.927
53416W        W25676  16.111  23.228   3.364
53417W        W25677  19.092   3.236   1.286
53418W        W25678  19.665  30.559   2.302
53419W        W25679  36.999  32.491  12.386
53420W        W25680  40.408  18.737  10.615
53421W        W25681  41.323  22.227  12.366
53422W        W25682  14.154  38.020  13.421
53423W        W25683  33.940  43.839  10.608
53424W        W25684  31.472   9.847  10.436
53425W        W25685  28.478  24.157  14.460
53426W        W25686  10.740   9.874   1.904
53427W        W25687   8.320  43.438   1.437
53428W        W25688  36.848   7.244   3.665
53429W        W25689   7.882   4.862   0.835
53430W        W25690   5.398  30.437  10.494
53431W        W25691   5.914   6.756  14.450
53432W        W25692  11.281  13.351   4.140
53433W        W25693   0.764  10.376  14.373
53434W        W25694  37.504  37.922  12.358
53435W        W25695  27.021  19.053  10.454
53436W        W25696  29.977  13.839   2.690
53437W        W25697  12.224  34.063  14.851
53438W        W25698   6.699   3.451   3.768
53439W        W25699   9.692   4.878  10.488
53440W        W25700   2.355   1.454   2.886
53441W        W25701  19.683  44.498   0.798
53442W        W25702  16.189  20.191   0.244
53443W        W25703   1.750  14.717   0.908
53444W        W25704  34.052   3.461   1.257
53445W        W25705   3.947   5.890   2.693
53446W        W25706  36.569  41.910   2.412
53447W        W25707  41.401  13.295  14.509
53448W        W25708  41.517   0.454   4.343
53449W        W25709  24.974  25.624   4.139
53450W        W25710  18.287  24.537  12.841
53451W        W25711  13.247  22.050  14.363
53452W        W25712  29.976  38.973   0.765
53453W        W25713  42.838  20.121   1.927
53454W        W25714   7.392  31.986   2.221
53455W        W25715  17.064  37.371  11.538
53456W        W25716  21.553  41.479   5.130
53457W        W25717   9.762   5.877   0.792
53458W        W25718  41.397   3.748  14.846
53459W        W25719  12.810  36.388   3.287
53460W        W25720  34.573   9.368  13.897
53461W        W25721  13.144  16.312  10.639
53462W        W25722  20.198  33.570  10.894
53463W        W25723  26.482  20.560   3.233
53464W        W25724  14.330  41.379  14.425
53465W        W25725  38.418  34.064  13.351
53466W        W25726  15.589  37.040   4.139
53467W        W25727  28.616  21.691  14.377
53468W        W25728  17.215  28.952  14.807
53469W        W25729   4.864  16.314   3.713
53470W        W25730  30.477  44.976   2.689
53471W        W25731   8.695   0.382  13.011
53472W        W25732  20.200  22.191   2.213
53473W        W25733  22.061  12.670  12.411
53474W        W25734  19.187  27.626  12.361
53475W        W25735  26.052  43.775   2.803
53476W        W25736  25.984  14.114   2.669
53477W        W25737  27.994  24.060   1.714
53478W        W25738  23.223  22.528  13.357
53479W        W25739  17.273  25.107  12.975
53480W        W25740  21.218   7.333   4.124
53481W        W25741   9.154  35.051  11.872
53482W        W25742  18.256  26.130  13.324
53483W        W25743  26.034  33.023   3.335
53484W        W25744  39.326  33.043  14.775
53485W        W25745  26.663  16.209   4.724
53486W        W25746  14.208  32.948   0.935
53487W        W25747  36.359  42.409  12.029
53488W        W25748  13.843  44.432  13.855
53489W        W25749   9.264  29.016  13.873
53490W        W25750   6.709   5.322  14.412
53491W        W25751   3.347  18.678   3.336
53492W        W25752  37.881  24.507  13.872
53493W        W25753  12.152   8.726  12.432
53494W        W25754  26.509   3.879   0.833
53495W        W25755  12.352  11.733   0.246
53496W        W25756   6.857   6.769   3.649
53497W        W25757  22.546   7.823  14.442
53498W        W25758  14.112   4.422   0.395
53499W        W25759  27.957   7.197  11.533
53500W        W25760  16.077   6.832   2.817
53501W        W25761  35.084   2.327  11.124
53502W        W25762  18.695   5.757  11.586
53503W        W25763  35.415  18.141   1.356
53504W        W25764  38.478  27.636   0.347
53505W        W25765   1.443   8.752   4.682
53506W        W25766  11.226  31.471  10.464
53507W        W25767  10.817   1.264   4.191
53508W        W25768  14.695   5.843  12.532
53509W        W25769  37.453   1.964  10.562
53510W        W25770  12.309   8.258   2.804
53511W        W25771  33.995   0.956   1.391
53512W        W25772  16.303  22.551  13.061
53513W        W25773  24.182  25.995   2.897
53514W        W25774  20.181  39.385   3.779
53515W        W25775   7.323  13.783  13.026
53516W        W25776  24.712  24.979  14.419
53517W        W25777   0.489  42.784  10.586
53518W        W25778  24.108  29.033  12.927
53519W        W25779  18.632  19.230   1.711
53520W        W25780   1.359   2.310   0.956
53521W        W25781  36.372  29.973   4.151
53522W        W25782  43.871  17.216  14.314
53523W        W25783  17.274  26.599  14.415
53524W        W25784  21.031  25.977   4.272
53525W        W25785  18.241  44.302  10.437
53526W        W25786   5.847  16.108   4.713
53527W        W25787  40.930  40.318   2.314
53528W        W25788  25.537  13.727   2.248
53529W        W25789  35.049   6.914   4.810
53530W        W25790  39.470  15.145   1.334
53531W        W25791  18.548  13.662  12.925
53532W        W25792  34.988  10.213  12.412
53533W        W25793  18.780   4.364   4.290
53534W        W25794  25.609  28.164   5.178
53535W        W25795  21.717  29.515   2.406
53536W        W25796  35.961   9.805   1.901
53537W        W25797  35.602   8.773  12.496
53538W        W25798  37.967   5.808  14.503
53539W        W25799  24.652  30.133  11.920
53540W        W25800   5.930   8.373   3.740
53541W        W25801  12.313  44.816  11.558
53542W        W25802  35.903  15.647   3.199
53543W        W25803  15.707  27.068  11.948
53544W        W25804  22.078   4.902  13.401
53545W        W25805  28.014   6.777   0.741
53546W        W25806  36.425  31.912   0.470
53547W        W25807   9.231   9.237  10.455
53548W        W25808  21.712   0.491  11.126
53549W        W25809  12.187  35.519  14.996
53550W        W25810  38.404  15.729  10.905
53551W        W25811  39.809  33.992  13.524
53552W        W25812  32.599  41.509   3.215
53553W        W25813  43.433  11.148   3.149
53554W        W25814  11.198  19.131   2.685
53555W        W25815  11.338  33.504  11.410
53556W        W25816   6.182   3.300   3.334
53557W        W25817  14.629   0.385   3.196
53558W        W25818  31.988  19.185   4.198
53559W        W25819   3.900   5.434   0.290
53560W        W25820   2.291  14.144  10.093
53561W        W25821  10.682  25.658   1.427
53562W        W25822  11.671  18.671   5.259
53563W        W25823  12.158  32.122   4.715
53564W        W25824   5.698  27.518  13.428
53565W        W25825  42.811  28.961  11.495
53566W        W25826  35.552   5.233   3.704
53567W        W25827  25.592  22.745  10.103
53568W        W25828  11.793   0.876  14.023
53569W        W25829  19.615  20.638  14.405
53570W        W25830  16.265  22.712   3.686
53571W        W25831  17.102  26.184  13.342
53572W        W25832  41.984   3.313   1.406
53573W        W25833  43.021   6.236   2.209
53574W        W25834  44.802  28.008  14.334
53575W        W25835  10.311  44.010  11.418
53576W        W25836   8.176   2.733   0.251
53577W        W25837   4.384  23.077   4.612
53578W        W25838  23.581  34.544  14.493
53579W        W25839  21.615   5.739   0.364
53580W        W25840  22.648  40.335   2.708
53581W        W25841  26.180  37.341  11.379
53582W        W25842  28.957  12.356  13.384
53583W        W25843  34.551  34.454   0.295
53584W        W25844  29.151  31.406  12.903
53585W        W25845   9.666  28.470  12.068
53586W        W25846  41.919  43.482   3.171
53587W        W25847  44.781   5.736   2.724
53588W        W25848  21.533  10.666   3.676
53589W        W25849   3.794   3.821   4.822
53590W        W25850   7.270  36.865   1.399
53591W        W25851  13.760  17.241   1.815
53592W        W25852   9.366  20.037  14.376
53593W        W25853  20.268  22.221   2.876
53594W        W25854  18.736   3.345  13.827
53595W        W25855  39.402  21.515   0.961
53596W        W25856  21.231  31.961   5.108
53597W        W25857  10.746   0.377   1.922
53598W        W25858  19.210  34.496   1.769
53599W        W25859  36.977  22.183   3.846
53600W        W25860  33.060  27.640   3.638
53601W        W25861  10.366  25.612   4.642
53602W        W25862   0.757  41.459   0.288
53603W        W25863  44.798  26.668  11.563
53604W        W25864  30.590  12.857   4.239
53605W        W25865  37.523  33.955  13.484
53606W        W25866  20.768  25.526  11.484
53607W        W25867  25.698  44.866   0.368
53608W        W25868   9.323   1.335   3.156
53609W        W25869  38.561   2.269  12.082
53610W        W25870   8.880  27.498  13.838
53611W        W25871  22.546  16.131  10.440
53612W        W25872   4.286  24.171  13.910
53613W        W25873   7.800  11.175  10.452
53614W        W25874  24.074  19.230  14.929
53615W        W25875   0.976  37.936   4.321
53616W        W25876  25.128   9.332  10.605
53617W        W25877   8.304  11.236  13.878
53618W        W25878  29.451  26.186  13.429
53619W        W25879   2.829  44.955   3.793
53620W        W25880  35.463  23.600  12.459
53621W        W25881  37.455  37.510   5.287
53622W        W25882  16.074  42.527  12.864
53623W        W25883  33.382  19.602   1.439
53624W        W25884  44.268  20.740   0.953
53625W        W25885  39.419   7.714   1.704
53626W        W25886  34.906  30.428  14.940
53627W        W25887  25.595  31.520  11.604
53628W        W25888   1.913  15.694   0.420
53629W        W25889  42.281  20.224  12.972
53630W        W25890  24.546  11.867  13.501
53631W        W25891  15.717   6.341  13.795
53632W        W25892   2.293  13.315   3.276
53633W        W25893  14.235  40.330  14.837
53634W        W25894   0.266  14.799   2.297
53635W        W25895  18.732  38.822  13.441
53636W        W25896  18.148  22.502   2.387
53637W        W25897  14.707  10.366   0.478
53638W        W25898  10.164  33.986   3.229
53639W        W25899   2.445  26.996   1.858
53640W        W25900  16.712  35.488   1.853
53641W        W25901  31.452  10.858   0.348
53642W        W25902  21.704  41.482   1.833
53643W        W25903  15.672  23.170  11.373
53644W        W25904  15.128  32.033   2.262
53645W        W25905  15.815   4.388  11.448
53646W        W25906  31.134  29.044   4.159
53647W        W25907  25.989  37.417  10.484
53648W        W25908  42.807  27.557   3.358
53649W        W25909  41.895  44.321   3.227
53650W        W25910  34.590  30.546  13.464
53651W        W25911  33.434  28.589  14.482
53652W        W25912  28.550   0.467   1.381
53653W        W25913  16.648  27.989  14.767
53654W        W25914  32.977   0.408  10.480
53655W        W25915  10.339  27.513  11.908
53656W        W25916  38.333  13.648   1.774
53657W        W25917  23.616   4.864  12.975
53658W        W25918   4.289  21.550  10.633
53659W        W25919  37.078   2.817   4.146
53660W        W25920  35.432   4.905   3.834
53661W        W25921  43.897   4.394  11.878
53662W        W25922  24.217  28.079   9.536
53663W        W25923   6.857  31.134  13.353
53664W        W25924   3.454  11.777   5.110
53665W        W25925  19.568  22.156  13.516
53666W        W25926  43.938   3.881   1.845
53667W        W25927  38.046   8.371  11.454
53668W        W25928  34.522  16.790   4.232
53669W        W25929  38.511  40.478  10.640
53670W        W25930  25.103  40.417   1.736
53671W        W25931  33.969  38.890  14.371
53672W        W25932   2.927  12.782  14.400
53673W        W25933  30.124  20.636  12.370
53674W        W25934  40.843  40.914  14.867
53675W        W25935  38.906  42.820   1.896
53676W        W25936  23.498  31.043  14.442
53677W        W25937  26.582  37.378   2.300
53678W        W25938  20.723  26.504  13.858
53679W        W25939  32.488  13.132   0.448
53680W        W25940  19.748  44.356   5.160
53681W        W25941   3.781  29.156  12.869
53682W        W25942  27.158  39.525   4.604
53683W        W25943  39.850  38.822   3.844
53684W        W25944  29.537   8.864   3.723
53685W        W25945  28.037  19.615  13.935
53686W        W25946  31.962  19.727  11.027
53687W        W25947  16.787  33.495  10.979
53688W        W25948  25.085  29.165   3.336
53689W        W25949   4.373  40.946   2.877
53690W        W25950  16.248  17.769   4.781
53691W        W25951   6.424  35.492   3.724
53692W        W25952  19.137  27.145  11.988
53693W        W25953  30.983   1.327   1.257
53694W        W25954   8.868   5.269  14.971
53695W        W25955  36.045  42.505  10.986
53696W        W25956  20.543  43.397  14.438
53697W        W25957  21.182   2.865  11.503
53698W        W25958   9.688  35.931   4.767
53699W        W25959   9.845   0.488   3.157
53700W        W25960  35.103  31.428   1.795
53701W        W25961  13.691  28.155  13.040
53702W        W25962  21.593  39.497  10.899
53703W        W25963  15.690   6.923   4.830
53704W        W25964  20.573  37.456  13.902
53705W        W25965  23.024  27.492   0.419
53706W        W25966  24.627   2.808  12.384
53707W        W25967  25.093   3.277   3.327
53708W        W25968   3.253  33.917   1.880
53709W        W25969  34.532  10.220   0.260
53710W        W25970  32.931  22.040  14.855
53711W        W25971   8.240  41.383  12.007
53712W        W25972  38.991  22.185  11.395
53713W        W25973  19.072  16.180   0.257
53714W        W25974  31.598  22.071   3.376
53715W        W25975  37.031  26.477  12.965
53716W        W25976  39.039  10.198   9.953
53717W        W25977  17.680  28.555   1.733
53718W        W25978  31.432  17.186  11.432
53719W        W25979   6.297  15.234  13.390
53720W        W25980  41.850  17.566  13.386
53721W        W25981  10.799  19.625  11.544
53722W        W25982   9.154  14.113   5.287
53723W        W25983  19.086  20.729   2.386
53724W        W25984  40.050  16.767  14.486
53725W        W25985   4.876  44.884  10.114
53726W        W25986  26.633   0.748   1.744
53727W        W25987  18.600  21.109  12.457
53728W        W25988  16.219  29.449   0.866
53729W        W25989   9.349   0.385  12.915
53730W        W25990  24.550   8.736   4.263
53731W        W25991  33.949  15.583  12.388
53732W        W25992  23.161   5.697  14.458
53733W        W25993  12.124  33.047  13.947
53734W        W25994   1.289  19.045   4.627
53735W        W25995  24.657   2.443   2.726
53736W        W25996  17.729  41.396   1.908
53737W        W25997   6.711   5.406   4.717
53738W        W25998  33.011   3.793  10.901
53739W        W25999  43.350  41.020   4.180
53740W        W26000  27.126  34.372   0.280
53741W        W26001  35.556  11.637   1.774
53742W        W26002  20.269  30.016   1.341
53743W        W26003  40.993  35.012   4.802
53744W        W26004   0.769  40.990  11.989
53745W        W26005  17.078  17.635  10.899
53746W        W26006   1.351  20.216   1.797
53747W        W26007  43.819  40.482   2.714
53748W        W26008   0.296  15.269   1.915
53749W        W26009  30.609  37.080  11.549
53750W        W26010  26.530  39.832   1.221
53751W        W26011  24.978  12.247  13.459
53752W        W26012   9.715  33.960   4.832
53753W        W26013  36.409  15.578  12.830
53754W        W26014  39.856  11.774  13.321
53755W        W26015  36.855  28.034   2.383
53756W        W26016  38.888  29.019  14.498
53757W        W26017  37.364  23.606  12.546
53758W        W26018  17.070  35.001   0.309
53759W        W26019  21.114   4.434  13.371
53760W        W26020  20.212  28.507  11.005
53761W        W26021  13.271   0.374  14.430
53762W        W26022  41.443  32.533   0.422
53763W        W26023  15.659  43.837  12.367
53764W        W26024  17.290  25.023   2.367
53765W        W26025   3.405  32.991   4.114
53766W        W26026  12.349  16.644  12.491
53767W        W26027  26.992  26.667  12.053
53768W        W26028  40.449  12.353  13.538
53769W        W26029  23.492  30.031   3.334
53770W        W26030  40.017  29.562   4.689
53771W        W26031  33.896   5.887   2.268
53772W        W26032  42.873  44.966  10.613
53773W        W26033  27.690  13.143  13.816
53774W        W26034  43.290  15.803   4.242
53775W        W26035  33.456  19.228   3.384
53776W        W26036  27.529  25.980   2.379
53777W        W26037  28.121  10.351   2.221
53778W        W26038  22.726  19.557  11.372
53779W        W26039   7.341   5.392   0.776
53780W        W26040  12.178   2.737  13.869
53781W        W26041  14.217  35.063  13.022
53782W        W26042  31.638  30.515   5.244
53783W        W26043  16.783   9.692  13.424
53784W        W26044  35.943  14.807   1.743
53785W        W26045   9.389  34.538   9.966
53786W        W26046  37.968  36.023  11.873
53787W        W26047   6.832   7.415  11.948
53788W        W26048  23.152   5.708   2.859
53789W        W26049  21.594   8.840  10.542
53790W        W26050  11.252  42.321  12.382
53791W        W26051   8.382   4.899   2.393
53792W        W26052   2.409  30.566  12.352
53793W        W26053  16.178  17.590   4.182
53794W        W26054  41.816  36.018   2.680
53795W        W26055  16.634  32.601  11.387
53796W        W26056  13.833   8.376  14.956
53797W        W26057  44.907  28.516   1.773
53798W        W26058  11.725  42.398   0.398
53799W        W26059  27.546  43.866  11.007
53800W        W26060  44.425   8.357   2.178
53801W        W26061   3.899  28.169   2.380
53802W        W26062   8.676  33.915   4.213
53803W        W26063  37.560  41.500  13.391
53804W        W26064  36.563  27.159  11.406
53805W        W26065   5.694  40.474  14.405
53806W        W26066  21.064   0.928  10.512
53807W        W26067  35.018  29.961   1.312
53808W        W26068  39.938  16.099  14.277
53809W        W26069  36.573  15.727   1.269
53810W        W26070  20.196  28.441  12.869
53811W        W26071  21.555  38.017  11.048
53812W        W26072  25.537  29.630   3.702
53813W        W26073   9.851  27.643   3.365
53814W        W26074  26.063  38.910  12.481
53815W        W26075  23.661  44.294   3.710
53816W        W26076   7.722  40.041   2.852
53817W        W26077  35.864  43.419   0.844
53818W        W26078  21.640  24.641   0.923
53819W        W26079  10.140  26.669   4.262
53820W        W26080  12.301   3.903   2.406
53821W        W26081   5.203  36.452  12.482
53822W        W26082  25.502  35.095   1.249
53823W        W26083  14.773   2.303   0.284
53824W        W26084  41.835   0.338  12.968
53825W        W26085   0.402  30.565   3.312
53826W        W26086  21.694  19.588  11.078
53827W        W26087  25.516   3.451  14.327
53828W        W26088  29.455  27.641   4.694
53829W        W26089  22.168  24.672  12.934
53830W        W26090  34.952  32.910   3.175
53831W        W26091  11.204  24.190   3.809
53832W        W26092  24.192  33.950  10.635
53833W        W26093  12.340  30.050   1.830
53834W        W26094  23.018  44.979   1.742
53835W        W26095  12.638  34.555   4.250
53836W        W26096  27.998   1.421   2.396
53837W        W26097   4.854  12.852   1.312
53838W        W26098   0.806  34.573   2.227
53839W        W26099   2.749  18.057  11.901
53840W        W26100  27.018   6.897  10.464
53841W        W26101  15.171   2.447   0.470
53842W        W26102  44.787  38.489  11.089
53843W        W26103  42.854  33.120  12.381
53844W        W26104   9.342  39.845  11.599
53845W        W26105  15.083  26.134  13.310
53846W        W26106  28.035  29.942   5.122
53847W        W26107  11.766  13.799   2.715
53848W        W26108  22.113  22.639  12.396
53849W        W26109  24.027  40.008   3.171
53850W        W26110   2.350  14.598   4.720
53851W        W26111  22.045  20.632   4.747
53852W        W26112  37.884  44.502   1.785
53853W        W26113  35.881   9.717   0.914
53854W        W26114  41.496  38.354   2.670
53855W        W26115  36.483   4.354   3.726
53856W        W26116  22.239  18.641   2.186
53857W        W26117  44.858  43.914   4.758
53858W        W26118  28.449  37.903  12.948
53859W        W26119   0.303  32.483   3.209
53860W        W26120  41.493   7.837   3.300
53861W        W26121  16.296  23.661  11.917
53862W        W26122  29.140  30.945   4.658
53863W        W26123  30.454  30.920   3.826
53864W        W26124  27.135  39.416   1.258
53865W        W26125  20.267  28.531  13.415
53866W        W26126  39.500   9.839   4.821
53867W        W26127  14.245  43.355   2.722
53868W        W26128  17.764   4.339  11.458
53869W        W26129  31.592  40.949   1.445
53870W        W26130  37.401   1.811  11.408
53871W        W26131  28.640  36.867   2.307
53872W        W26132  30.057  30.601   2.703
53873W        W26133   2.424  20.206  11.420
53874W        W26134  31.598  44.316   4.165
53875W        W26135  33.071  26.104  14.322
53876W        W26136  37.442  37.459  11.509
53877W        W26137  23.162  11.823   2.282
53878W        W26138  36.507  14.616   4.197
53879W        W26139  30.071  42.498   3.687
53880W        W26140   6.881  25.658  10.148
53881W        W26141  16.155  12.199  13.383
53882W        W26142  11.140  10.797   1.317
53883W        W26143   7.875  14.721   1.432
53884W        W26144  30.019  40.867  10.591
53885W        W26145  31.106  24.525   1.696
53886W        W26146  21.238  23.101  11.413
53887W        W26147  12.142  13.668  13.999
53888W        W26148  21.518   6.745  14.967
53889W        W26149  22.552   1.884  11.573
53890W        W26150  24.009  31.109   3.804
53891W        W26151   9.739  30.580   4.680
53892W        W26152  37.562   4.362  10.422
53893W        W26153  36.990   1.931   2.742
53894W        W26154  25.575  39.063  14.909
53895W        W26155  10.190  34.116  13.445
53896W        W26156  12.664  12.733   4.765
53897W        W26157  14.789  29.456  11.979
53898W        W26158   1.242  43.482  11.400
53899W        W26159  42.969  12.118  14.329
53900W        W26160  28.937  11.747   4.232
53901W        W26161  37.384  31.002   2.858
53902W        W26162  38.844  28.472  10.556
53903W        W26163  41.830  14.250  11.462
53904W        W26164  40.516  22.189   1.890
53905W        W26165  14.340  36.868   1.781
53906W        W26166   5.883   3.316  12.850
53907W        W26167   1.318  11.277  12.443
53908W        W26168  23.203  16.244  11.571
53909W        W26169  10.213  25.103   0.896
53910W        W26170   3.784  32.080  13.009
53911W        W26171  28.465   5.706   2.674
53912W        W26172  18.587  39.442   0.430
53913W        W26173  19.078  40.859   2.402
53914W        W26174  13.831  21.235  10.548
53915W        W26175  27.526  25.101  12.460
53916W        W26176  29.514  36.040   2.748
53917W        W26177  35.978  18.212  13.988
53918W        W26178  11.271  44.970  13.993
53919W        W26179  30.135   8.279  11.604
53920W        W26180  22.665  42.855  14.920
53921W        W26181  25.171  26.552  12.383
53922W        W26182   7.397  42.479  14.984
53923W        W26183   1.902  24.019  14.027
53924W        W26184  30.620  36.973   2.187
53925W        W26185  20.735   9.694   3.270
53926W        W26186  31.997  15.138  13.891
53927W        W26187  20.059  12.327   3.786
53928W        W26188   9.268   2.389  14.426
53929W        W26189  26.104  29.489   3.353
53930W        W26190  37.890  34.425   4.625
53931W        W26191  13.730  33.549   0.855
53932W        W26192   2.381  17.142   1.781
53933W        W26193  22.603  25.154   5.115
53934W        W26194   0.907  10.230   3.338
53935W        W26195  35.906  11.726   0.839
53936W        W26196   9.307  44.958   1.407
53937W        W26197  42.821  40.861   3.295
53938W        W26198  31.638  33.089  12.518
53939W        W26199   6.369   4.244   1.450
53940W        W26200   0.389  19.108   4.674
53941W        W26201  11.854  38.367   1.289
53942W        W26202  15.256  14.315   4.300
53943W        W26203  31.595  13.719   0.856
53944W        W26204   3.795  11.302   4.334
53945W        W26205  42.965  11.338   2.251
53946W        W26206  28.518  19.671  13.332
53947W        W26207  22.500   9.738  13.403
53948W        W26208  14.651  27.683   4.714
53949W        W26209  29.949  40.979  14.905
53950W        W26210  29.973  22.207  11.905
53951W        W26211  42.841  35.604  10.644
53952W        W26212   8.771  28.030   2.244
53953W        W26213  25.059   0.266  10.946
53954W        W26214  20.037  26.603  13.444
53955W        W26215  36.544  19.773  10.096
53956W        W26216  18.293  35.454  12.094
53957W        W26217  33.087  24.530  12.394
53958W        W26218   6.734  11.741   3.162
53959W        W26219   8.761  39.815   4.134
53960W        W26220  31.117  11.749  11.129
53961W        W26221   0.748   6.848  14.958
53962W        W26222  28.451  22.224   0.869
53963W        W26223  12.232  39.515  14.829
53964W        W26224  14.781  13.791  12.570
53965W        W26225   1.856  44.003  14.339
53966W        W26226  38.069  29.128  14.359
53967W        W26227  27.473  32.007  12.403
53968W        W26228   0.333   6.227   4.731
53969W        W26229  22.553  10.371   1.292
53970W        W26230  10.821  14.704  10.497
53971W        W26231  25.505   1.856  12.894
53972W        W26232   6.221  23.574   2.718
53973W        W26233   7.344  25.492  12.061
53974W        W26234   8.736  11.147  14.470
53975W        W26235  15.108   4.920  12.999
53976W        W26236   3.310   0.835  10.942
53977W        W26237  19.218  22.207   3.722
53978W        W26238   4.912   6.379  13.014
53979W        W26239  38.434  31.427   1.449
53980W        W26240   5.722  32.572  12.894
53981W        W26241  34.380  21.112   9.648
53982W        W26242  27.604  38.371  13.842
53983W        W26243  10.794  10.208   0.430
53984W        W26244  10.858   1.267   0.360
53985W        W26245  19.277  15.742  11.984
53986W        W26246  35.447  16.569   3.740
53987W        W26247  34.962  11.268   1.902
53988W        W26248   9.723  13.153   0.282
53989W        W26249   4.371  23.609   1.906
53990W        W26250  17.264   8.269   1.748
53991W        W26251  32.106  14.204  12.371
53992W        W26252  32.955   3.874  12.988
53993W        W26253   6.327   3.735  12.917
53994W        W26254  18.172  43.333   4.265
53995W        W26255  38.526  44.906  14.943
53996W        W26256  14.250  26.641   4.256
53997W        W26257  43.311  30.957  13.539
53998W        W26258  39.511  36.025   0.783
53999W        W26259  26.204   0.815   3.711
54000W        W26260   3.318  32.481  14.451
54001W        W26261  14.594   3.291  10.061
54002W        W26262  29.018   8.714   2.774
54003W        W26263  16.707  44.454  10.535
54004W        W26264  42.890  22.690   2.739
54005W        W26265  34.014   5.924  11.581
54006W        W26266  44.809  30.097  14.792
54007W        W26267   6.786   5.220  12.426
54008W        W26268   0.319  31.596   0.270
54009W        W26269  27.067  19.144   3.315
54010W        W26270  18.650   1.238  13.872
54011W        W26271  33.942  26.634  12.527
54012W        W26272   8.299  12.302  10.902
54013W        W26273  26.164  42.880  12.384
54014W        W26274   8.187   1.947  10.604
54015W        W26275   5.843  28.578  10.467
54016W        W26276  18.692  10.351  14.405
54017W        W26277   9.290   8.666   3.330
54018W        W26278  23.202  21.114  14.848
54019W        W26279   7.878  39.472   2.736
54020W        W26280  16.216   2.429  11.534
54021W        W26281   2.847  36.029  14.852
54022W        W26282  10.311   5.854  14.978
54023W        W26283   7.293  21.216  14.407
54024W        W26284  43.798  35.922  12.507
54025W        W26285  16.211  37.410   1.403
54026W        W26286  13.609  11.867  12.094
54027W        W26287  42.908  19.722  12.081
54028W        W26288  40.882   4.724  12.385
54029W        W26289  12.257  21.713   3.173
54030W        W26290  27.018  25.100  14.481
54031W        W26291  19.266  17.744  14.489
54032W        W26292  11.332  43.823  11.073
54033W        W26293  12.287  26.642   3.343
54034W        W26294  10.844   1.276   2.675
54035W        W26295   3.771  42.784   1.446
54036W        W26296   7.171  30.124   0.437
54037W        W26297  19.222  39.548   0.364
54038W        W26298  17.708   5.371  12.447
54039W        W26299   3.250  15.679   0.818
54040W        W26300  42.877  18.727  11.372
54041W        W26301  12.129   9.290   3.701
54042W        W26302   0.940  13.770   0.778
54043W        W26303  36.473  33.563   0.310
54044W        W26304  18.099  20.112   1.228
54045W        W26305  23.696  15.688  13.404
54046W        W26306   9.271  39.529   2.882
54047W        W26307   1.927  24.105   4.149
54048W        W26308  32.042   7.379  13.949
54049W        W26309   4.424  39.420  11.858
54050W        W26310  10.728  31.972  10.963
54051W        W26311  38.471  22.035   2.268
54052W        W26312  11.279   3.323  12.078
54053W        W26313  19.763   8.287   3.827
54054W        W26314  25.072  29.098   0.288
54055W        W26315  15.180  27.474  11.477
54056W        W26316  27.095  34.478   1.309
54057W        W26317  35.582  21.515   5.226
54058W        W26318  35.905  42.442   2.354
54059W        W26319   2.960  28.550   3.859
54060W        W26320  26.168  35.511  14.887
54061W        W26321  15.653  30.087   0.916
54062W        W26322  28.104  31.550   3.183
54063W        W26323  23.725  39.908  13.850
54064W        W26324  27.062  12.140  14.297
54065W        W26325  30.468  28.575   0.388
54066W        W26326  42.428  15.188   3.813
54067W        W26327  10.650   5.383   1.901
54068W        W26328  19.757   8.404  12.458
54069W        W26329  18.126   6.313   1.261
54070W        W26330  40.848   5.713   1.814
54071W        W26331  10.815   8.693   3.321
54072W        W26332  22.550  30.006  10.416
54073W        W26333  24.985  27.612  11.421
54074W        W26334   4.399  19.634   2.194
54075W        W26335  16.119  11.854   3.635
54076W        W26336  29.614   2.959  12.046
54077W        W26337  29.044  37.960  11.907
54078W        W26338  14.312  43.962  12.931
54079W        W26339   9.798  18.609  12.421
54080W        W26340  43.315  10.692  13.819
54081W        W26341  29.432   9.372   4.191
54082W        W26342  24.114   4.217   1.386
54083W        W26343  15.240  41.511   4.285
54084W        W26344  36.588   1.450  13.027
54085W        W26345  21.101   2.738  14.308
54086W        W26346  11.682  44.894   2.228
54087W        W26347  41.996  19.135   1.694
54088W        W26348  32.583   6.692  14.005
54089W        W26349   7.798  14.694   3.197
54090W        W26350   5.931  42.840  13.929
54091W        W26351  20.108   4.834  11.938
54092W        W26352  14.105  16.653  10.987
54093W        W26353  17.192  16.716  10.633
54094W        W26354   6.821  38.970   2.824
54095W        W26355   6.234  11.258  11.982
54096W        W26356  11.212  17.769   3.277
54097W        W26357   7.324  30.604  11.608
54098W        W26358  35.957  16.284  14.813
54099W        W26359  14.809  11.209   0.868
54100W        W26360   7.185  12.279  14.877
54101W        W26361   1.439  37.838  14.459
54102W        W26362   4.820  21.063   1.322
54103W        W26363  14.666  17.066   4.673
54104W        W26364  37.921  24.537  14.915
54105W        W26365  32.097  27.077  11.046
54106W        W26366   4.317   7.196   3.829
54107W        W26367  35.502   8.686   0.249
54108W        W26368   9.708  18.101   0.464
54109W        W26369  19.135  26.612   4.728
54110W        W26370  29.936   1.914   0.483
54111W        W26371  24.168  26.020  13.413
54112W        W26372  22.583  44.268   9.958
54113W        W26373  35.109  26.002   3.856
54114W        W26374   6.897   4.358   3.217
54115W        W26375  23.999  21.697  10.503
54116W        W26376  14.736   1.323   2.751
54117W        W26377  24.231  30.599   2.234
54118W        W26378  25.578  34.918   0.304
54119W        W26379  27.505  36.944   4.774
54120W        W26380  33.882  22.010  11.385
54121W        W26381  40.981  39.809   3.289
54122W        W26382  38.985  15.263  11.987
54123W        W26383  23.601  11.850  10.470
54124W        W26384  10.320  19.248  12.983
54125W        W26385  26.170  25.132  14.280
54126W        W26386   1.838  39.967  12.394
54127W        W26387  13.603   5.895  12.361
54128W        W26388   6.385  14.680   0.403
54129W        W26389   3.709  41.897  11.041
54130W        W26390  16.566   4.411   2.262
54131W        W26391  44.270  31.924  10.555
54132W        W26392  32.394  30.610   3.677
54133W        W26393  39.422   6.306   1.788
54134W        W26394  18.651  24.041   5.293
54135W        W26395  30.951   7.912  11.570
54136W        W26396   8.847  40.874   3.788
54137W        W26397  33.065  18.609   2.693
54138W        W26398  42.834  41.492   1.244
54139W        W26399  24.131  18.260   4.161
54140W        W26400  32.440  18.118  11.402
54141W        W26401  10.794  40.881  14.003
54142W        W26402  15.701  10.694  11.530
54143W        W26403  44.496  23.655   1.315
54144W        W26404  41.943  11.644   4.321
54145W        W26405   2.820  20.047   2.705
54146W        W26406  13.334   3.761  11.087
54147W        W26407  35.505  10.172   3.243
54148W        W26408   6.681  11.300  12.988
54149W        W26409  27.586  19.541  11.930
54150W        W26410  28.603  42.359  13.925
54151W        W26411  11.649  26.476   1.417
54152W        W26412  28.009  25.063   0.267
54153W        W26413  37.905  31.459   2.813
54154W        W26414  16.119  14.123   1.878
54155W        W26415  24.991  39.461   5.214
54156W        W26416  42.994  18.082  13.390
54157W        W26417  42.880  25.501   2.358
54158W        W26418  37.842   8.729   0.833
54159W        W26419  34.929  30.414  12.528
54160W        W26420  22.627   3.736   1.760
54161W        W26421   9.761   6.244  14.493
54162W        W26422  21.541  26.495   9.947
54163W        W26423  13.754  38.907   4.307
54164W        W26424  42.901   2.824  10.509
54165W        W26425  13.767  34.416   0.417
54166W        W26426   5.433  39.817  10.621
54167W        W26427  22.593   1.761   3.266
54168W        W26428  15.607  40.422  14.479
54169W        W26429  24.633  43.509  11.589
54170W        W26430  30.579  31.108  12.013
54171W        W26431   2.318  14.262  11.386
54172W        W26432  21.638  22.708  11.870
54173W        W26433   5.208  16.146   1.325
54174W        W26434  29.956   4.814  11.050
54175W        W26435  21.231  42.491  14.466
54176W        W26436  39.930  39.370   3.640
54177W        W26437  13.198  16.730  13.319
54178W        W26438  20.132  13.278   4.340
54179W        W26439  28.972  32.422  10.155
54180W        W26440  10.288  42.821   4.283
54181W        W26441  37.418  38.949   4.242
54182W        W26442  24.540  35.058   1.243
54183W        W26443  11.764  28.605  14.948
54184W        W26444  37.462   2.335   5.160
54185W        W26445   0.765  28.019   0.914
54186W        W26446  20.144  39.001   3.381
54187W        W26447  36.846  41.403   1.248
54188W        W26448  15.803   1.362   2.336
54189W        W26449  33.024   4.699  14.495
54190W        W26450  39.527  12.710   4.308
54191W        W26451  23.592  12.792   0.780
54192W        W26452  39.318  25.703  13.903
54193W        W26453  16.723  31.581  13.324
54194W        W26454  32.047  23.214  12.579
54195W        W26455  42.972  42.428   0.901
54196W        W26456  10.348   5.912  11.383
54197W        W26457  41.863   8.752   2.390
54198W        W26458  10.305   9.219  11.880
54199W        W26459   8.753  15.696   4.690
54200W        W26460  37.037  20.094  10.060
54201W        W26461  16.109  32.528  10.914
54202W        W26462   4.939  13.107   2.413
54203W        W26463  35.034   8.385   3.215
54204W        W26464  33.932  39.003  10.918
54205W        W26465  35.956   0.907  14.407
54206W        W26466  12.830  13.844   1.276
54207W        W26467   8.340  27.593   3.216
54208W        W26468   3.928  28.544  14.412
54209W        W26469   6.269  25.056  11.375
54210W        W26470  15.804  20.147  13.471
54211W        W26471  11.313  12.715   1.861
54212W        W26472   8.697  12.336  13.981
54213W        W26473   4.250  27.084   3.159
54214W        W26474  43.316  36.992  11.965
54215W        W26475  32.966  35.031  13.913
54216W        W26476  43.790  38.514   4.351
54217W        W26477  33.542   7.368   3.630
54218W        W26478  19.696  11.372  11.938
54219W        W26479  18.654  13.256  11.051
54220W        W26480  30.606  18.123   4.666
54221W        W26481   1.445  24.627   1.222
54222W        W26482  14.696  41.933   1.430
54223W        W26483  30.502  11.190   4.655
54224W        W26484   2.795  25.022   2.233
54225W        W26485   6.344  29.583  14.897
54226W        W26486   2.456  38.951   4.233
54227W        W26487   4.740  29.041   0.343
54228W        W26488  41.924  40.307  13.515
54229W        W26489  38.025  36.918   2.418
54230W        W26490  35.897  27.166   4.770
54231W        W26491  35.477  35.063   4.310
54232W        W26492  41.019  35.384  14.820
54233W        W26493  38.450  42.376   0.348
54234W        W26494  19.234   6.279   2.902
54235W        W26495   6.372  33.877  14.856
54236W        W26496  24.687   0.446  11.426
54237W        W26497  27.487   6.199  12.464
54238W        W26498  13.282  20.227  13.315
54239W        W26499  11.728  21.027  12.900
54240W        W26500  32.417  11.756   3.226
54241W        W26501  24.530  18.171   0.912
54242W        W26502  43.450   0.845   1.717
54243W        W26503  34.995  30.658   2.733
54244W        W26504  38.010  17.081  13.487
54245W        W26505  35.944  35.990   3.847
54246W        W26506  28.116   0.414   3.230
54247W        W26507  21.635   0.875   2.390
54248W        W26508   0.855   6.361   1.288
54249W        W26509  40.885  30.073   1.839
54250W        W26510   7.342   3.325   4.806
54251W        W26511  13.221   3.348   3.756
54252W        W26512  15.819  31.049  12.381
54253W        W26513  10.832   5.869   1.762
54254W        W26514  15.133   0.790   3.763
54255W        W26515  24.194  17.756   2.705
54256W        W26516   0.932  15.753   1.750
54257W        W26517  23.204  31.024   2.860
54258W        W26518  10.148  30.140  10.518
54259W        W26519  32.564  40.823   1.703
54260W        W26520  15.102  18.691  10.543
54261W        W26521  32.404  29.019  12.499
54262W        W26522   9.800  22.092  12.483
54263W        W26523  21.729  35.108  10.117
54264W        W26524  14.302   6.822  14.966
54265W        W26525  28.450   0.933  14.411
54266W        W26526  44.382  44.926   3.844
54267W        W26527  36.932   2.722  12.563
54268W        W26528  32.450  23.026   1.840
54269W        W26529  14.165  16.161   0.296
54270W        W26530  31.486  29.173  12.527
54271W        W26531  31.902   7.345   3.237
54272W        W26532   8.204  23.197  14.862
54273W        W26533  38.489  44.789   2.201
54274W        W26534  41.017   2.444   1.365
54275W        W26535  39.469  14.189  10.892
54276W        W26536   4.377  16.195   2.343
54277W        W26537  13.347  29.630   1.696
54278W        W26538  10.224   5.257  12.023
54279W        W26539  38.365  20.230   3.861
54280W        W26540   9.828  14.331   1.224
54281W        W26541  20.689   3.217  14.469
54282W        W26542  44.324  14.115   4.130
54283W        W26543  15.742   3.740   2.350
54284W        W26544  35.562  18.744  12.579
54285W        W26545  42.952  27.986  14.323
54286W        W26546  42.315  36.574   1.378
54287W        W26547  14.191  18.585   3.761
54288W        W26548  33.419  17.563   1.313
54289W        W26549  14.614   7.188  12.996
54290W        W26550  18.177  35.505   2.178
54291W        W26551   6.344  19.742   4.642
54292W        W26552   0.759  39.514   0.450
54293W        W26553  25.166  35.932   4.165
54294W        W26554  30.460  42.321  13.365
54295W        W26555   8.178  32.046  12.883
54296W        W26556   7.207  36.499  13.845
54297W        W26557  23.713  11.819   4.167
54298W        W26558  13.345  32.491   1.356
54299W        W26559  19.243  13.819  10.998
54300W        W26560  25.556  27.132  14.340
54301W        W26561  12.157  29.122  13.430
54302W        W26562  20.569  36.074   4.658
54303W        W26563  11.308   4.361   1.832
54304W        W26564  34.044  40.010  11.046
54305W        W26565  31.465  32.413   4.296
54306W        W26566   0.897  39.842   4.743
54307W        W26567  14.712  34.558   1.875
54308W        W26568  31.573  38.011   4.698
54309W        W26569  38.556  35.479   2.197
54310W        W26570   4.222  22.735   1.360
54311W        W26571  21.651  17.590   1.249
54312W        W26572  26.203   5.234   2.385
54313W        W26573  24.675  17.264   0.810
54314W        W26574  32.481  24.151  12.927
54315W        W26575   9.695  16.150   2.196
54316W        W26576  20.619  25.574   1.351
54317W        W26577  14.820   6.845  10.597
54318W        W26578  33.113  35.076  11.516
54319W        W26579  28.154  16.269  12.526
54320W        W26580  37.503  38.837  13.023
54321W        W26581   6.789  29.133   1.315
54322W        W26582   4.893  27.572  10.006
54323W        W26583   4.274  17.732   1.414
54324W        W26584   9.250  13.174   1.741
54325W        W26585  32.585  16.255   3.640
54326W        W26586  29.528  13.156   1.350
54327W        W26587  11.700  36.063   3.339
54328W        W26588  18.603  23.618   9.969
54329W        W26589  42.283  16.701  11.925
54330W        W26590  39.047  42.002   1.336
54331W        W26591  17.693   2.849   0.284
54332W        W26592  21.192  24.708   1.448
54333W        W26593  19.212   7.234  10.589
54334W        W26594   7.861   4.912  11.920
54335W        W26595  10.354   5.325   4.661
54336W        W26596  40.536  16.184   0.382
54337W        W26597  16.742  40.950   4.158
54338W        W26598  27.040  43.306   4.304
54339W        W26599  16.730   3.355  11.416
54340W        W26600  36.071   3.318  14.892
54341W        W26601  36.512  21.136  11.063
54342W        W26602  36.373  31.094   1.718
54343W        W26603  27.039   8.768   2.340
54344W        W26604  32.592  27.521  10.887
54345W        W26605  39.380   5.231  14.945
54346W        W26606  37.496  12.660  12.079
54347W        W26607  31.465  14.153  13.832
54348W        W26608  35.007  18.212   3.229
54349W        W26609   3.763  16.208  13.425
54350W        W26610   1.759  40.425   0.865
54351W        W26611  32.437   7.380  12.962
54352W        W26612  13.264  34.524  10.928
54353W        W26613  18.143  22.637   1.716
54354W        W26614  13.313  44.365   0.859
54355W        W26615  39.887  14.195  13.468
54356W        W26616   1.458  27.950   2.362
54357W        W26617  13.321  38.922   2.346
54358W        W26618  10.311  31.409  13.444
54359W        W26619  16.093   7.852  14.847
54360W        W26620  40.890  40.857   2.708
54361W        W26621   8.219   5.242   3.650
54362W        W26622   0.388   0.271  14.921
54363W        W26623  12.719  21.583  11.446
54364W        W26624  16.283  35.434   2.215
54365W        W26625   8.219  11.276  10.485
54366W        W26626  13.605  26.954  14.368
54367W        W26627   5.732  31.901   4.664
54368W        W26628  35.981   5.221  12.398
54369W        W26629  33.068  10.784  11.402
54370W        W26630   2.444  23.207  11.917
54371W        W26631  11.660  19.125   3.658
54372W        W26632  34.971  42.972   5.214
54373W        W26633  13.339  23.236   1.821
54374W        W26634  41.942  27.549   0.921
54375W        W26635   4.783  29.581   2.256
54376W        W26636  32.976  44.757  10.598
54377W        W26637  31.972  26.164   0.381
54378W        W26638  23.623  31.996   4.767
54379W        W26639  37.027  30.031   1.695
54380W        W26640  38.994   3.339   1.441
54381W        W26641  44.468  41.340   0.780
54382W        W26642  32.452  43.466   3.684
54383W        W26643  40.422   5.318  14.000
54384W        W26644  23.164   8.163  14.367
54385W        W26645   9.340  32.909   2.290
54386W        W26646  25.211  12.668  11.866
54387W        W26647  26.063  39.342  14.477
54388W        W26648  11.848   9.327   4.730
54389W        W26649  43.962  28.093   3.792
54390W        W26650  28.186  40.901   0.291
54391W        W26651  25.192  18.243   4.134
54392W        W26652  17.267  20.129  11.079
54393W        W26653  14.718   6.848  11.961
54394W        W26654  15.755  13.710  12.487
54395W        W26655  22.588  27.539  11.126
54396W        W26656  12.184   1.313  10.939
54397W        W26657  34.594  20.611   3.266
54398W        W26658  32.937  35.055   0.307
54399W        W26659  10.166  22.572  11.425
54400W        W26660   3.217  25.202  10.989
54401W        W26661  12.231  44.313  12.869
54402W        W26662  36.868   8.839   1.426
54403W        W26663  36.902  34.447   2.220
54404W        W26664  42.872  21.619  11.871
54405W        W26665  27.113  43.938   1.215
54406W        W26666  23.679  34.527  12.549
54407W        W26667  37.941  42.914   0.444
54408W        W26668  37.072  28.567   3.201
54409W        W26669  20.591  27.494   2.678
54410W        W26670  42.399  22.043   2.699
54411W        W26671   2.253  12.124  11.965
54412W        W26672   0.762   7.247  14.932
54413W        W26673  17.656   7.246   1.801
54414W        W26674  35.499  33.432   2.300
54415W        W26675   0.847  23.179   2.681
54416W        W26676  26.687  39.478  13.451
54417W        W26677   5.923  25.997  12.882
54418W        W26678   6.714  24.173   0.901
54419W        W26679  44.943  24.090  13.384
54420W        W26680   1.931  41.415  13.501
54421W        W26681   2.408  40.469   3.178
54422W        W26682  44.375  34.935  14.320
54423W        W26683  22.032   7.346  14.460
54424W        W26684  20.271   9.889  13.059
54425W        W26685   3.351  40.028   2.700
54426W        W26686   3.360  23.998   1.892
54427W        W26687  18.552  22.715   0.331
54428W        W26688  13.269  13.629   4.252
54429W        W26689  30.576  36.959  14.416
54430W        W26690  32.885  28.508   1.880
54431W        W26691   8.657  12.739  11.396
54432W        W26692  28.661  19.546   2.662
54433W        W26693  19.564  25.151   2.841
54434W        W26694  36.962  32.124   0.865
54435W        W26695  17.156   3.314   3.678
54436W        W26696  25.705  28.160  12.070
54437W        W26697  44.339  28.645  11.906
54438W        W26698  19.739  11.147  12.902
54439W        W26699  43.013  35.011  11.964
54440W        W26700  22.074  22.080  10.478
54441W        W26701  17.266   6.287  14.500
54442W        W26702  24.995  43.776  10.439
54443W        W26703   7.777  44.397   1.307
54444W        W26704  40.926  17.277   2.870
54445W        W26705  15.740  33.614   3.273
54446W        W26706  33.611  44.327   3.808
54447W        W26707  40.805  18.691   3.694
54448W        W26708  23.219  18.117  14.360
54449W        W26709  33.426  44.392  13.810
54450W        W26710   5.840  44.371  14.871
54451W        W26711  31.945  21.026   4.836
54452W        W26712  39.323  38.880   9.974
54453W        W26713  20.085  31.594   4.664
54454W        W26714  34.966  36.040   0.798
54455W        W26715  28.953   0.306  14.369
54456W        W26716  12.242   5.359  14.511
54457W        W26717   2.337   6.256   3.709
54458W        W26718  33.511  16.215  12.970
54459W        W26719  20.579   2.288  10.437
54460W        W26720  27.956  21.253   4.732
54461W        W26721  28.629  10.719   3.791
54462W        W26722  15.774  12.659  13.054
54463W        W26723  27.001  15.256   1.862
54464W        W26724  20.752  36.565   4.289
54465W        W26725  17.671  27.989   1.723
54466W        W26726  12.705  16.724  11.019
54467W        W26727  15.662  36.003  14.372
54468W        W26728  20.073   9.389  10.580
54469W        W26729  30.582  33.028  11.580
54470W        W26730  21.528   0.761  10.516
54471W        W26731  16.217   4.423  13.361
54472W        W26732   2.962  43.430   3.845
54473W        W26733   5.386  20.184   3.332
54474W        W26734   1.759  12.143  12.889
54475W        W26735  16.121  32.129  14.289
54476W        W26736   5.907  14.262  11.028
54477W        W26737  27.021  35.882  11.376
54478W        W26738  15.112  31.456   4.214
54479W        W26739  35.877  20.636   3.151
54480W        W26740  21.226  10.371  14.998
54481W        W26741  12.199  36.365  14.965
54482W        W26742  15.291  42.377  11.006
54483W        W26743  14.127  22.556  11.919
54484W        W26744  41.881  13.689  14.392
54485W        W26745  18.219  38.071   3.227
54486W        W26746  22.700   9.211  11.045
54487W        W26747  20.585   8.819   0.773
54488W        W26748  34.926   6.865   1.832
54489W        W26749  43.322  19.627   3.802
54490W        W26750  42.372  23.139  14.419
54491W        W26751  14.122  18.221   2.864
54492W        W26752  10.183  25.519  12.077
54493W        W26753   8.869  34.422   0.956
54494W        W26754  23.725  13.660   4.764
54495W        W26755   2.399  17.665   2.240
54496W        W26756   7.830   2.456   0.347
54497W        W26757  20.592  37.953  12.383
54498W        W26758   5.289  26.067   2.737
54499W        W26759  10.831  34.043   0.274
54500W        W26760  37.497  41.522   4.788
54501W        W26761  10.699  14.828  14.878
54502W        W26762   4.260  16.265   0.463
54503W        W26763  17.261   8.840   2.766
54504W        W26764  32.573  14.650   4.287
54505W        W26765   7.788  13.723  10.590
54506W        W26766  22.030  34.886   0.473
54507W        W26767  32.053  25.055   0.250
54508W        W26768  32.961  10.154   3.702
54509W        W26769  12.799  35.389   3.205
54510W        W26770  12.121  22.538   0.840
54511W        W26771  14.658  38.012   2.198
54512W        W26772  16.234  43.857  12.508
54513W        W26773   8.797  15.688  10.893
54514W        W26774  37.851   9.242   2.888
54515W        W26775  41.372   8.268   0.939
54516W        W26776  10.659  14.807  12.440
54517W        W26777  17.147  31.112  11.917
54518W        W26778  21.698   5.733  13.413
54519W        W26779  12.251  40.542   3.292
54520W        W26780  39.979  18.268  14.010
54521W        W26781  39.359  19.567   2.281
54522W        W26782  22.617  12.846   4.714
54523W        W26783  15.087  26.049   0.374
54524W        W26784  42.482   8.754  12.379
54525W        W26785   5.879   6.698  12.936
54526W        W26786  44.956   3.249  14.796
54527W        W26787  43.970   4.829  14.758
54528W        W26788   8.813  11.127  13.374
54529W        W26789  43.794  28.483  12.035
54530W        W26790  39.015  26.518   4.289
54531W        W26791  22.723  12.204  11.488
54532W        W26792  15.631  36.858  10.563
54533W        W26793  35.960  19.091  12.391
54534W        W26794   7.911  11.160   2.410
54535W        W26795  22.628  19.729  12.979
54536W        W26796  11.298   1.371  10.420
54537W        W26797  43.413  41.485  14.368
54538W        W26798   6.242  30.959   2.869
54539W        W26799   7.679  25.978  12.447
54540W        W26800  32.563  32.469   4.687
54541W        W26801  29.056  43.368  12.088
54542W        W26802  11.668  38.854   5.283
54543W        W26803  23.639  21.228   4.191
54544W        W26804   3.854   1.819   0.458
54545W        W26805  11.661   3.409  14.938
54546W        W26806  40.991  11.694  14.007
54547W        W26807  43.816  32.948  13.814
54548W        W26808  35.093  12.314   4.715
54549W        W26809  32.496  35.482   3.671
54550W        W26810  11.658  15.786  12.443
54551W        W26811   6.836   7.702   1.720
54552W        W26812  44.900  28.614  11.560
54553W        W26813  16.314  13.124   4.641
54554W        W26814   1.824  44.757  13.029
54555W        W26815  13.612  27.492   4.677
54556W        W26816  36.540  19.048   4.288
54557W        W26817   3.953  33.003   0.399
54558W        W26818  36.363   5.814   4.807
54559W        W26819  23.216  16.174   2.821
54560W        W26820  44.854  20.672  11.595
54561W        W26821  14.704  41.534   1.285
54562W        W26822  16.151  36.072   4.264
54563W        W26823   2.367   0.279   0.964
54564W        W26824   7.367  17.214  13.492
54565W        W26825  38.443  31.984  12.402
54566W        W26826  37.462  40.469   1.322
54567W        W26827  19.545  33.975  10.424
54568W        W26828  43.001  40.901   0.829
54569W        W26829  31.088  13.690   3.298
54570W        W26830  40.813  37.846  14.478
54571W        W26831  13.751  28.119   1.344
54572W        W26832  22.722  17.109   1.926
54573W        W26833  31.029  26.062  14.307
54574W        W26834  42.987  21.160   3.322
54575W        W26835  25.093  10.263   3.741
54576W        W26836   6.298   2.926  13.517
54577W        W26837  15.648   3.815   1.316
54578W        W26838   8.862   0.261  10.999
54579W        W26839   4.732  10.332   1.411
54580W        W26840  36.967  20.247  14.779
54581W        W26841  39.809  31.940  10.466
54582W        W26842  17.299  23.558   3.312
54583W        W26843  27.128   2.764  14.296
54584W        W26844  14.689  25.542  12.475
54585W        W26845   5.892  13.276   0.259
54586W        W26846  18.633  35.109   3.383
54587W        W26847  39.827   7.297   4.326
54588W        W26848  31.516  34.593  13.494
54589W        W26849  22.535  41.999   4.354
54590W        W26850   6.195  40.930   2.812
54591W        W26851  44.493  30.979   2.321
54592W        W26852  22.246   7.835  12.355
54593W        W26853  18.238  44.398  14.509
54594W        W26854  34.396  25.618  14.774
54595W        W26855   9.724   2.877  14.389
54596W        W26856  39.542  14.791   0.442
54597W        W26857  31.577  43.790   3.201
54598W        W26858  13.350  37.045  14.406
54599W        W26859   8.189  33.932   3.251
54600W        W26860  36.572  27.496  12.496
54601W        W26861  28.159  21.219   4.230
54602W        W26862  41.863  22.546   9.949
54603W        W26863  15.297   3.741   2.735
54604W        W26864   8.862  22.011  11.932
54605W        W26865  35.604  32.012   1.279
54606W        W26866  18.230  40.506  11.594
54607W        W26867  17.598   4.851  11.098
54608W        W26868  19.187  42.459  12.983
54609W        W26869  15.159   7.281   0.433
54610W        W26870  28.039  28.632   3.812
54611W        W26871  12.230  14.297   2.699
54612W        W26872  18.140  13.236  14.889
54613W        W26873  29.091  16.131  11.065
54614W        W26874   4.780  37.404  12.449
54615W        W26875  40.918  41.890   3.664
54616W        W26876   4.739  21.607  14.863
54617W        W26877  30.130  29.100   3.767
54618W        W26878   6.333  14.692  14.761
54619W        W26879  20.047  15.705   2.406
54620W        W26880   2.421   2.830   3.148
54621W        W26881  19.701  40.517   3.868
54622W        W26882  24.491  22.087   1.221
54623W        W26883  20.252   6.887   4.142
54624W        W26884  31.020  18.111  10.638
54625W        W26885  19.059  27.058   0.929
54626W        W26886  13.106  18.098   2.377
54627W        W26887  27.995  32.514  14.893
54628W        W26888  14.664  35.065   2.700
54629W        W26889  12.161  36.507   1.811
54630W        W26890  36.094  44.476   4.602
54631W        W26891  21.636  31.474   0.862
54632W        W26892   4.376  27.048   1.888
54633W        W26893  25.581  29.044   2.662
54634W        W26894  10.165  26.954   0.331
54635W        W26895  20.028  19.101   5.703
54636W        W26896  27.518  26.567   0.462
54637W        W26897   2.757   4.708   4.152
54638W        W26898  24.615  18.273   4.794
54639W        W26899  14.225  43.281  10.893
54640W        W26900   9.806  40.321   3.192
54641W        W26901  17.685  15.785  10.589
54642W        W26902  38.487  10.229   4.218
54643W        W26903  29.476  37.913   0.730
54644W        W26904  14.226   0.746  12.514
54645W        W26905   5.245  24.192  12.459
54646W        W26906  23.217  37.990  13.979
54647W        W26907   6.731   6.256  14.479
54648W        W26908  31.420   9.366   3.711
54649W        W26909   4.938  13.611  12.845
54650W        W26910  28.446  23.531   3.293
54651W        W26911  13.766  22.140   1.740
54652W        W26912  11.133  12.307  10.996
54653W        W26913  13.823  34.910  10.910
54654W        W26914  33.128  41.958   0.305
54655W        W26915   6.717  34.511  11.938
54656W        W26916  14.602  18.759   1.733
54657W        W26917  36.368   5.899  11.953
54658W        W26918  11.726  20.154   2.213
54659W        W26919  29.168  21.084   2.828
54660W        W26920   5.748  40.827   3.267
54661W        W26921  12.703  14.285   2.373
54662W        W26922  34.949  26.540  12.421
54663W        W26923  26.050  29.118  12.913
54664W        W26924  40.863  31.546   1.278
54665W        W26925  18.787  10.255   0.298
54666W        W26926   7.759  36.402  14.892
54667W        W26927  38.827   2.808   2.783
54668W        W26928   0.746  22.508   5.234
54669W        W26929  35.517  36.377   4.246
54670W        W26930  35.576  31.451   1.380
54671W        W26931  24.710  43.483   4.707
54672W        W26932  37.019  17.179   4.175
54673W        W26933  23.110  31.998   1.443
54674W        W26934  38.542  42.442   1.780
54675W        W26935  44.401  33.980   3.367
54676W        W26936  41.486   0.799   3.720
54677W        W26937  44.760  44.970  13.929
54678W        W26938  13.837  20.699  11.455
54679W        W26939   6.789  11.629  14.874
54680W        W26940  24.097  37.503   4.694
54681W        W26941  28.658  19.694  10.565
54682W        W26942   8.196  40.398   1.747
54683W        W26943  33.882  19.152  11.887
54684W        W26944  19.226   2.373   0.771
54685W        W26945   9.788   0.333   1.421
54686W        W26946  20.622  27.978  10.025
54687W        W26947  39.454  31.944  11.398
54688W        W26948   7.780  35.572   3.246
54689W        W26949  17.073  29.961   4.806
54690W        W26950   2.415  35.023  14.363
54691W        W26951  17.796  37.391   1.249
54692W        W26952   8.790  27.649   4.199
54693W        W26953  23.990  41.008  12.472
54694W        W26954  15.250  11.299  11.472
54695W        W26955  28.566  43.841   3.824
54696W        W26956   2.917  26.699   3.761
54697W        W26957   6.910   8.788  13.431
54698W        W26958   5.373  37.054   0.483
54699W        W26959   9.853  12.833  12.034
54700W        W26960  26.207   4.444  13.966
54701W        W26961  33.130  35.473   1.792
54702W        W26962  18.775  15.269  12.832
54703W        W26963  21.045  22.123   3.728
54704W        W26964   5.245  35.569  13.811
54705W        W26965  34.009   2.747  11.601
54706W        W26966  17.645   4.222   1.908
54707W        W26967  33.552  25.198  14.015
54708W        W26968   5.746   6.267   4.197
54709W        W26969  18.257   4.909  11.435
54710W        W26970  11.127  17.290   1.717
54711W        W26971  22.051  21.191   0.428
54712W        W26972  11.345  28.062   1.278
54713W        W26973  18.727  33.883  14.917
54714W        W26974  40.820  30.015   3.735
54715W        W26975  11.640  17.629   2.310
54716W        W26976  18.117  12.279   3.230
54717W        W26977   8.301   4.883  11.033
54718W        W26978  27.005  28.662   0.351
54719W        W26979  37.001  28.000  14.865
54720W        W26980  41.302  27.493   0.271
54721W        W26981  32.891  10.766   4.217
54722W        W26982   1.871  25.169  11.990
54723W        W26983  21.148   5.888  13.417
54724W        W26984  36.970   9.735   3.739
54725W        W26985  12.793  19.581  13.875
54726W        W26986   9.847  15.758  11.973
54727W        W26987   5.852  39.328  10.560
54728W        W26988   6.776  18.660  13.828
54729W        W26989  10.243   7.196   0.402
54730W        W26990  22.009   2.310  12.526
54731W        W26991  13.705   7.857   0.755
54732W        W26992  25.079  29.980   0.331
54733W        W26993   5.235  36.904   4.770
54734W        W26994  38.031  40.006   3.282
54735W        W26995  37.009   5.240  13.522
54736W        W26996  44.301  43.020   1.299
54737W        W26997  17.744  35.565   0.378
54738W        W26998   3.226  21.593   0.336
54739W        W26999  21.135  38.919   1.274
54740W        W27000  35.376  27.518   3.786
54741W        W27001  42.029  18.153  10.574
54742W        W27002  28.577  20.089  13.450
54743W        W27003  18.708  41.296   3.748
54744W        W27004  19.636  13.203   4.316
54745W        W27005  33.449  37.947   2.668
54746W        W27006  24.069  11.710  14.307
54747W        W27007  17.555   7.740   5.763
54748W        W27008  20.194  22.681   4.719
54749W        W27009  42.933  16.572   0.276
54750W        W27010  15.804  35.086   4.781
54751W        W27011   2.854  24.539   0.897
54752W        W27012   2.775  33.607   3.793
54753W        W27013  18.287  42.884   3.762
54754W        W27014   6.919   7.835   3.364
54755W        W27015   5.703   1.939  12.839
54756W        W27016  24.697  41.802   4.210
54757W        W27017   4.263  35.559  14.944
54758W        W27018  31.424  37.428  12.038
54759W        W27019  43.298  43.975   4.681
54760W        W27020  12.275   6.381  14.791
54761W        W27021  28.948  39.349   0.320
54762W        W27022   8.262  16.178  11.571
54763W        W27023  28.587  24.182   4.678
54764W        W27024   0.934  13.157   4.639
54765W        W27025  18.093  14.115  11.019
54766W        W27026  29.434  30.447   2.767
54767W        W27027   7.827  36.843  11.095
54768W        W27028   0.421   4.276   3.860
54769W        W27029  11.305   3.236   4.652
54770W        W27030   1.290   5.731   4.710
54771W        W27031  36.434  36.006  10.429
54772W        W27032  18.572  40.945   3.777
54773W        W27033  10.361  30.468   3.870
54774W        W27034  21.109   0.776   2.778
54775W        W27035  12.737  26.120   1.420
54776W        W27036  40.544   5.872   0.242
54777W        W27037  14.273  33.425  13.010
54778W        W27038  37.836  24.580   1.301
54779W        W27039   7.317   8.819   3.830
54780W        W27040   0.411  24.980   1.306
54781W        W27041  34.467  41.977   1.837
54782W        W27042  39.834  16.584  13.454
54783W        W27043   0.479   9.160   4.113
54784W        W27044  34.571  35.500   4.744
54785W        W27045   6.299  31.428  13.505
54786W        W27046   3.311  24.570  14.378
54787W        W27047   1.948  12.350   0.280
54788W        W27048  16.628  29.085   4.130
54789W        W27049  16.121  23.646   1.234
54790W        W27050  12.709  25.698   2.240
54791W        W27051  38.398  16.800   3.322
54792W        W27052   1.461  30.456   2.380
54793W        W27053  44.306  37.062  14.794
54794W        W27054   2.450  16.259  13.013
54795W        W27055   9.381  41.966  11.879
54796W        W27056  32.952  11.806  14.016
54797W        W27057  26.011  19.060   4.242
54798W        W27058  11.750  40.010  11.460
54799W        W27059  38.497  13.161  14.370
54800W        W27060  38.848  24.224  13.805
54801W        W27061  33.413   6.831   1.433
54802W        W27062  24.682  24.043   4.337
54803W        W27063   7.339   0.834   3.359
54804W        W27064  40.347   7.226   3.368
54805W        W27065  20.616  37.364  11.983
54806W        W27066  17.785  36.971   3.261
54807W        W27067   1.384  36.393  11.382
54808W        W27068  25.663   4.423  13.348
54809W        W27069   5.294   0.384  10.942
54810W        W27070  41.512  12.323   3.770
54811W        W27071  24.189  21.263  13.812
54812W        W27072  22.093  11.201   4.613
54813W        W27073   2.743  11.273   2.364
54814W        W27074   3.843  14.708   3.359
54815W        W27075  32.420  13.843  12.093
54816W        W27076  16.803  23.132   1.338
54817W        W27077  25.655  39.374  12.873
54818W        W27078   4.876  21.117  14.901
54819W        W27079   3.328  29.988   0.785
54820W        W27080  31.426  15.301  12.041
54821W        W27081  28.128  29.046   0.343
54822W        W27082  22.621   8.778  10.967
54823W        W27083  11.725  17.611   3.223
54824W        W27084  27.510  12.254   3.871
54825W        W27085  36.540   2.294   4.623
54826W        W27086  11.141  19.276   1.910
54827W        W27087  16.726  39.486  13.814
54828W        W27088   9.386  25.688  13.350
54829W        W27089  30.912  40.005   0.898
54830W        W27090  23.600  22.568   3.226
54831W        W27091  15.097   6.837  11.005
54832W        W27092  27.972  24.617   4.204
54833W        W27093   4.350  35.876   3.823
54834W        W27094  12.701  35.374  10.999
54835W        W27095  30.614  32.920  14.908
54836W        W27096  17.160  10.316   1.884
54837W        W27097  20.604  41.898   3.851
54838W        W27098  34.508  41.526  14.999
54839W        W27099  41.901  25.571  12.376
54840W        W27100  42.837  30.430   2.216
54841W        W27101  40.801  37.029   0.928
54842W        W27102  13.693  27.152   2.282
54843W        W27103  29.565  37.895   1.723
54844W        W27104  15.110  35.995  14.947
54845W        W27105  32.101  29.995  14.869
54846W        W27106  14.818  31.110   4.817
54847W        W27107  41.823   7.817   1.343
54848W        W27108  18.692  23.579  10.974
54849W        W27109  29.661   3.710  14.390
54850W        W27110  42.475  39.499   1.254
54851W        W27111  11.718   7.855  12.048
54852W        W27112  21.147  38.526  11.590
54853W        W27113  36.549  41.396  13.365
54854W        W27114   2.370  21.576  13.829
54855W        W27115  39.928   7.887  12.997
54856W        W27116   5.412   7.378   4.809
54857W        W27117  34.412  26.649  13.967
54858W        W27118   1.803  31.567   3.169
54859W        W27119  37.535   0.873  12.527
54860W        W27120   6.226  22.565   9.975
54861W        W27121  31.916   9.690   3.316
54862W        W27122  37.995  10.335  10.947
54863W        W27123  12.845  35.995  14.479
54864W        W27124  35.959  43.916  12.417
54865W        W27125   3.740  28.081   2.807
54866W        W27126  31.021   0.375   3.249
54867W        W27127  21.554   0.480  13.897
54868W        W27128   5.280  15.152  11.408
54869W        W27129   5.811  36.055  11.552
54870W        W27130   2.927  19.778   4.820
54871W        W27131  42.459  38.467   1.899
54872W        W27132  33.992  36.369  12.870
54873W        W27133   6.304  26.469   2.380
54874W        W27134  31.592  11.262  14.333
54875W        W27135   2.797  18.067  12.505
54876W        W27136  42.428   9.299  12.945
54877W        W27137   8.774  21.247   0.748
54878W        W27138  18.711   7.294  14.987
54879W        W27139  37.024  39.362  14.929
54880W        W27140   6.748  19.060   3.687
54881W        W27141   3.389  35.401  12.020
54882W        W27142  38.926   0.248  13.405
54883W        W27143   2.957  36.985  11.048
54884W        W27144  40.382  34.553   4.260
54885W        W27145  30.131  11.753  13.008
54886W        W27146   1.952  12.193   0.864
54887W        W27147   9.839  42.016   2.771
54888W        W27148   2.439  35.004   4.331
54889W        W27149   3.714  35.967   1.280
54890W        W27150  29.598  38.957   1.352
54891W        W27151  35.895  18.710   0.790
54892W        W27152   3.300  36.033  11.418
54893W        W27153   0.369  19.563   1.718
54894W        W27154  34.040  28.132  12.917
54895W        W27155   1.815  17.674  13.902
54896W        W27156  42.948  37.546   4.147
54897W        W27157  14.125  40.013  11.043
54898W        W27158  37.457  21.657   4.265
54899W        W27159  14.282  41.822   2.375
54900W        W27160  33.000  42.801  12.852
54901W        W27161  29.090  11.629   3.658
54902W        W27162  27.647   5.247  12.877
54903W        W27163  39.966  41.384  14.393
54904W        W27164   7.188  29.516  11.477
54905W        W27165  33.496   8.253  10.115
54906W        W27166  39.887   9.755  12.390
54907W        W27167  35.565  18.561  14.021
54908W        W27168  22.626  39.355   0.353
54909W        W27169  32.983   5.827  12.824
54910W        W27170  42.451  44.939   1.387
54911W        W27171  44.912   0.775  14.022
54912W        W27172  37.850  11.737  14.359
54913W        W27173  26.155  15.621   0.347
54914W        W27174  13.720  10.669   2.356
54915W        W27175  30.494  33.104   1.822
54916W        W27176   8.716  19.726  14.410
54917W        W27177  24.662  26.649  10.627
54918W        W27178  22.188  30.566   2.406
54919W        W27179  39.886  11.175  11.885
54920W        W27180  34.580  32.907  12.944
54921W        W27181  44.353  43.289  11.602
54922W        W27182  31.567  33.568  14.819
54923W        W27183  20.252  30.613   3.279
54924W        W27184  33.907   5.866   1.706
54925W        W27185  11.169  37.545  11.951
54926W        W27186  43.389   2.726   3.292
54927W        W27187  23.202  10.864   4.300
54928W        W27188  35.991  26.589   0.263
54929W        W27189   9.386  29.636  14.795
54930W        W27190  44.498  40.340  12.425
54931W        W27191  37.034  41.789   1.245
54932W        W27192   7.861  31.407  12.546
54933W        W27193   2.391   8.731   1.338
54934W        W27194  24.602  21.166   1.827
54935W        W27195  41.295   5.328   3.642
54936W        W27196  31.500   5.911  11.497
54937W        W27197  10.296   7.371   5.309
54938W        W27198  24.225  11.638  13.423
54939W        W27199  41.364   4.838  10.417
54940W        W27200  15.249  17.276  14.009
54941W        W27201  25.621  21.682   3.150
54942W        W27202   2.936  33.999  14.402
54943W        W27203  39.939  18.166   4.621
54944W        W27204  36.463   2.288  11.497
54945W        W27205  31.093  25.589   1.233
54946W        W27206   5.254  43.379   2.212
54947W        W27207  14.718  15.199   1.927
54948W        W27208  28.570   1.259  12.917
54949W        W27209  35.106  29.625  12.485
54950W        W27210  40.484  34.517  10.557
54951W        W27211  37.837  35.370   3.811
54952W        W27212  12.362  35.939  14.294
54953W        W27213  31.968  16.095  12.037
54954W        W27214   0.310  26.988  12.024
54955W        W27215  41.365  13.310  10.493
54956W        W27216  25.496  11.653   2.757
54957W        W27217  35.357  43.979  11.401
54958W        W27218  37.008  37.958   3.670
54959W        W27219   5.908  15.638   0.315
54960W        W27220  13.845   0.783  11.442
54961W        W27221   3.891   9.266   3.716
54962W        W27222  27.972   5.847  12.879
54963W        W27223   8.300  33.991  11.516
54964W        W27224  37.000  40.348   0.476
54965W        W27225  40.884  29.018   1.748
54966W        W27226  40.896   2.444  12.922
54967W        W27227  35.863  36.352  12.371
54968W        W27228  31.590  14.158   2.785
54969W        W27229  16.150  32.465   4.615
54970W        W27230  38.469  29.527   1.859
54971W        W27231  31.476  13.316  12.389
54972W        W27232  30.512  28.561   2.762
54973W        W27233  23.022  40.945   0.938
54974W        W27234   5.840  35.952   2.731
54975W        W27235  22.075  36.425   3.359
54976W        W27236  15.650  16.716  12.346
54977W        W27237  42.403  17.301  13.945
54978W        W27238  44.491  36.905  14.402
54979W        W27239  21.084   1.977  13.328
54980W        W27240  15.671   9.841  13.367
54981W        W27241  29.520  39.033  12.063
54982W        W27242  32.491   7.391   2.189
54983W        W27243  43.381  11.658  14.478
54984W        W27244  31.052  44.410   0.323
54985W        W27245   3.790   0.484  12.030
54986W        W27246  41.499  32.553  11.441
54987W        W27247  15.621  25.520  12.357
54988W        W27248  30.601  35.548  12.923
54989W        W27249  16.217  14.125   4.288
54990W        W27250   4.933  26.955   3.783
54991W        W27251   8.197   0.906   3.654
54992W        W27252  33.011  14.162  12.949
54993W        W27253   6.843  10.146  11.106
54994W        W27254  15.792  19.731   2.209
54995W        W27255  37.455   9.234   2.749
54996W        W27256  19.144  35.528   4.681
54997W        W27257  37.378  21.183   3.260
54998W        W27258  11.648   8.800   0.269
54999W        W27259  22.727  24.059   4.787
55000W        W27260  33.118  42.498  12.389
55001W        W27261  17.229  38.451   0.344
55002W        W27262  33.561  12.165  13.902
55003W        W27263  23.559  22.013   4.639
55004W        W27264  31.485  26.156   0.749
55005W        W27265   2.880   8.776  13.913
55006W        W27266  33.423  36.567   0.291
55007W        W27267   3.229  17.668   0.921
55008W        W27268   6.326  11.187   0.424
55009W        W27269  21.667  43.447  12.000
55010W        W27270  27.056   1.860  11.992
55011W        W27271  44.313  42.004  13.338
55012W        W27272  19.212  25.987  12.994
55013W        W27273  25.632  43.944   4.337
55014W        W27274  16.787  18.082   4.673
55015W        W27275  13.290  42.866  13.961
55016W        W27276  19.113  22.008   1.703
55017W        W27277  11.661  41.996   2.412
55018W        W27278  26.644  41.334  12.080
55019W        W27279  36.903   2.416  13.481
55020W        W27280   3.951  37.342  12.000
55021W        W27281  23.090  26.481   2.349
55022W        W27282   9.646  42.301   0.308
55023W        W27283   9.859  36.349   0.371
55024W        W27284  42.930   9.715  14.912
55025W        W27285  18.770  39.366   4.328
55026W        W27286  11.714   7.219  10.150
55027W        W27287  43.501   6.374   9.922
55028W        W27288  11.853  19.197   4.185
55029W        W27289  33.979  14.815  10.611
55030W        W27290   8.754   5.262  14.376
55031W        W27291  41.843  42.470  11.992
55032W        W27292  15.283  17.669  11.096
55033W        W27293  33.030  24.553   0.892
55034W        W27294  42.834  23.175   1.920
55035W        W27295  34.397  21.633  12.438
55036W        W27296  30.538  38.327  14.302
55037W        W27297  27.513   5.394   3.358
55038W        W27298  26.627  40.426   1.906
55039W        W27299  25.670  29.987   3.329
55040W        W27300  19.144  42.790  12.402
55041W        W27301   9.189  34.416   0.434
55042W        W27302   5.897  41.025   4.124
55043W        W27303  27.583  26.570   2.215
55044W        W27304  14.265  44.455   2.687
55045W        W27305  11.163  39.443   4.670
55046W        W27306   1.932  36.880  13.955
55047W        W27307  43.346   4.801   4.245
55048W        W27308  13.736  11.234   4.224
55049W        W27309  31.941   8.782  11.596
55050W        W27310  39.064   5.779  12.476
55051W        W27311   1.842  33.950   1.822
55052W        W27312  37.385   5.759  10.138
55053W        W27313  18.705   0.889  13.467
55054W        W27314  29.932  18.275  14.019
55055W        W27315  27.473  24.091   1.916
55056W        W27316  36.437  40.036   3.215
55057W        W27317  18.549   7.740  12.849
55058W        W27318  30.549  38.981  14.821
55059W        W27319  16.316  33.084   3.173
55060W        W27320  36.581  44.933   1.887
55061W        W27321   0.936  32.472  12.438
55062W        W27322  35.058   6.851   0.302
55063W        W27323  19.752  39.486   1.414
55064W        W27324  23.649  25.694   2.221
55065W        W27325  17.152  18.559   2.318
55066W        W27326  33.127  34.420  12.828
55067W        W27327  32.990   4.826  14.018
55068W        W27328  41.517   3.718   2.892
55069W        W27329   2.377   6.232   3.229
55070W        W27330  16.604  21.061  14.458
55071W        W27331  38.565   8.304   4.328
55072W        W27332  40.470   4.802   3.713
55073W        W27333  43.323  39.987  14.375
55074W        W27334  43.503  15.326  12.904
55075W        W27335  37.543   8.368   5.156
55076W        W27336  14.196  24.516  12.011
55077W        W27337  41.029  10.173  12.486
55078W        W27338  43.334  14.832  11.914
55079W        W27339  14.259  27.125  12.924
55080W        W27340  18.733  10.706   3.814
55081W        W27341  20.538  26.066  11.583
55082W        W27342  23.088  22.726   4.637
55083W        W27343  41.443  17.263   0.288
55084W        W27344   7.727  38.071   1.343
55085W        W27345  41.386  10.339   4.178
55086W        W27346  22.625  22.210  10.429
55087W        W27347   5.881  41.891   2.684
55088W        W27348  21.161  40.349   0.483
55089W        W27349  34.416  17.142  11.076
55090W        W27350  22.708  23.156   2.182
55091W        W27351  29.125   0.768  14.030
55092W        W27352   5.760  22.240   3.239
55093W        W27353  40.804   9.308   1.807
55094W        W27354  39.528  23.160  13.841
55095W        W27355  35.530  37.385  12.990
55096W        W27356  21.736   1.368  10.925
55097W        W27357  34.529   4.904   3.255
55098W        W27358   1.401   4.921   3.314
55099W        W27359  14.147  34.563  11.372
55100W        W27360   0.966  14.251   3.801
55101W        W27361  44.288  44.835   2.382
55102W        W27362   6.410  28.040  14.327
55103W        W27363  19.213  29.133  10.600
55104W        W27364  36.066  17.298   2.806
55105W        W27365  30.540  33.968   2.300
55106W        W27366  31.580  26.609   0.752
55107W        W27367  21.602  37.338   1.432
55108W        W27368  44.928  32.919  14.820
55109W        W27369  33.095  38.449   0.834
55110W        W27370  28.628  26.623  14.347
55111W        W27371  13.790  44.764   3.667
55112W        W27372   8.332  35.029  13.341
55113W        W27373  12.708  23.018   0.422
55114W        W27374  29.639  23.507   3.748
55115W        W27375  21.193  31.443  13.909
55116W        W27376  43.310   2.749   2.695
55117W        W27377  37.428   5.927  10.425
55118W        W27378   4.449  11.187  12.452
55119W        W27379  34.611   8.659   4.147
55120W        W27380  33.040  19.540  13.521
55121W        W27381   7.680   4.285  14.322
55122W        W27382  23.033  23.677  10.406
55123W        W27383  27.987  18.577  10.519
55124W        W27384   1.831  38.406  13.364
55125W        W27385   8.659  43.502  13.546
55126W        W27386  42.467  10.819  11.074
55127W        W27387  28.002  13.257  10.500
55128W        W27388  36.862  22.202  14.982
55129W        W27389  41.879   4.224   1.243
55130W        W27390  30.519  15.719   2.304
55131W        W27391   4.289  12.319   3.741
55132W        W27392  41.881  11.641   3.382
55133W        W27393  28.047   2.905   3.218
55134W        W27394  10.824   2.881  13.791
55135W        W27395  21.712  34.573  13.817
55136W        W27396  20.235  24.671   0.400
55137W        W27397  32.068   3.331   4.745
55138W        W27398  30.026  25.646   4.230
55139W        W27399  12.193  11.745  11.561
55140W        W27400  12.157  28.970  13.987
55141W        W27401  37.360  25.020   3.187
55142W        W27402  39.372  13.283   1.421
55143W        W27403  12.713   7.792   2.869
55144W        W27404  16.078  35.041   1.921
55145W        W27405   4.788  23.238   0.945
55146W        W27406   7.729   0.479   2.222
55147W        W27407  18.762  32.511   1.746
55148W        W27408  27.997   8.838  13.348
55149W        W27409  33.383  29.647  12.510
55150W        W27410  15.120  12.328   1.358
55151W        W27411  37.364   7.316  11.025
55152W        W27412  31.422  34.438  10.485
55153W        W27413   6.252  42.362   3.316
55154W        W27414  10.675  11.678   3.176
55155W        W27415  17.722  35.535  13.467
55156W        W27416   9.730  34.369   4.229
55157W        W27417  11.128  31.910  12.429
55158W        W27418   6.299  31.921  13.455
55159W        W27419  21.195  23.555   1.912
55160W        W27420  25.106  20.258   0.258
55161W        W27421  11.785   8.893  12.356
55162W        W27422   5.882  12.631  13.036
55163W        W27423  42.366  33.918  12.849
55164W        W27424  24.089  25.973   4.137
55165W        W27425   5.367  31.091  14.479
55166W        W27426  13.846  40.335   4.123
55167W        W27427  30.087  27.073  11.118
55168W        W27428  26.995  31.936   3.361
55169W        W27429  38.500   0.404  13.941
55170W        W27430  14.165  44.297   4.629
55171W        W27431  12.691  21.748  14.480
55172W        W27432   6.287  28.606   1.850
55173W        W27433  38.838  12.695  12.480
55174W        W27434  18.166   3.807  14.290
55175W        W27435   7.305   8.218   1.372
55176W        W27436  20.171  39.361   0.747
55177W        W27437  39.890   3.269  12.345
55178W        W27438   3.379  27.622  10.644
55179W        W27439  30.414   0.397   0.750
55180W        W27440  13.739  28.025  11.052
55181W        W27441  17.620  24.990  12.036
55182W        W27442  22.130  19.051   1.446
55183W        W27443   3.913  14.137   4.246
55184W        W27444   0.391  15.210  13.030
55185W        W27445  36.582  18.739   2.710
55186W        W27446  38.548  35.552   0.246
55187W        W27447  15.116  30.642   4.639
55188W        W27448  13.294  22.093   1.433
55189W        W27449   5.822   9.194  11.896
55190W        W27450  32.983   6.742   4.180
55191W        W27451  19.252  37.360  12.412
55192W        W27452  32.995  20.554   4.789
55193W        W27453  25.679  42.336  14.835
55194W        W27454   7.337  44.851   2.676
55195W        W27455   8.277  12.225   4.834
55196W        W27456  25.565  40.928   4.204
55197W        W27457  27.629  30.610  10.895
55198W        W27458   4.215  40.884   4.244
55199W        W27459  20.084  19.728   4.192
55200W        W27460   9.186  37.526   1.917
55201W        W27461  31.431  18.123   1.407
55202W        W27462  41.999  32.543   0.335
55203W        W27463   6.251  36.979  11.911
55204W        W27464  14.175  32.502  10.890
55205W        W27465  40.393  42.467  14.933
55206W        W27466  15.786  22.513   1.694
55207W        W27467  15.657  30.991  13.423
55208W        W27468  22.648   0.295  11.916
55209W        W27469  10.235   2.410   3.177
55210W        W27470  28.050  31.106   5.134
55211W        W27471  20.122  24.588   0.903
55212W        W27472  17.698  42.991  12.443
55213W        W27473   6.787  40.914   3.270
55214W        W27474  36.414  13.684   0.334
55215W        W27475   0.389   9.393  12.577
55216W        W27476  33.400  33.622  12.905
55217W        W27477  28.967  23.616  14.923
55218W        W27478   4.868  34.387  13.889
55219W        W27479  33.033  36.473  10.636
55220W        W27480  11.173  30.035   0.306
55221W        W27481  42.877   2.333  13.846
55222W        W27482  29.085  21.069  14.375
55223W        W27483  14.310  20.228  10.972
55224W        W27484   4.311   7.305   4.789
55225W        W27485   3.771  24.502  10.971
55226W        W27486  39.948  43.826   3.728
55227W        W27487  22.054  22.096   5.616
55228W        W27488  19.165   2.807   2.832
55229W        W27489  13.124  11.364   2.357
55230W        W27490  33.516  31.590  11.039
55231W        W27491  19.154  37.035  10.899
55232W        W27492   8.802  29.481  14.938
55233W        W27493  26.969  34.994   1.234
55234W        W27494   0.452   8.774  13.801
55235W        W27495  32.637   9.330   1.437
55236W        W27496  26.084   5.695   4.353
55237W        W27497  15.290  29.995   0.748
55238W        W27498  41.974  10.659   1.362
55239W        W27499  13.182  12.127  11.859
55240W        W27500  42.849  21.733  11.004
55241W        W27501   8.735  44.855   4.682
55242W        W27502  20.231  32.109   0.263
55243W        W27503   8.264  35.401   0.313
55244W        W27504  24.116  19.279   2.262
55245W        W27505  29.565  38.838  10.955
55246W        W27506  27.089  11.783  14.014
55247W        W27507  43.876   7.181  10.449
55248W        W27508   2.747  44.855  11.861
55249W        W27509  26.633  20.105  10.426
55250W        W27510  29.032  30.519  14.997
55251W        W27511   8.202   0.250   1.931
55252W        W27512  10.781  15.735  10.907
55253W        W27513  15.773   4.428   3.150
55254W        W27514  42.442  16.732  10.428
55255W        W27515  38.458  38.343  10.989
55256W        W27516  32.128  13.740  11.451
55257W        W27517  40.005  28.975  14.858
55258W        W27518  39.028  42.283  14.393
55259W        W27519  29.971  24.551   4.301
55260W        W27520  18.174  39.361  11.122
55261W        W27521   2.854  30.149  14.986
55262W        W27522  31.480  13.645   3.709
55263W        W27523   9.886  13.198   4.825
55264W        W27524  37.434  38.504  10.604
55265W        W27525   1.902  38.833   0.379
55266W        W27526  44.316  27.961   3.239
55267W        W27527  34.976  24.226  12.474
55268W        W27528   3.734  17.120   4.167
55269W        W27529  20.261  31.054  13.002
55270W        W27530  16.710   9.370   3.295
55271W        W27531  25.983  16.293  13.887
55272W        W27532  30.644  13.118  13.854
55273W        W27533  41.933  28.151  13.415
55274W        W27534  10.235  37.376   3.150
55275W        W27535   9.685  25.194  13.974
55276W        W27536   8.873  19.169   3.842
55277W        W27537  15.692  13.117   4.349
55278W        W27538  28.176  24.618   3.268
55279W        W27539  32.103  15.729  14.370
55280W        W27540  35.989  34.883  11.428
55281W        W27541  11.348  10.381   1.820
55282W        W27542  32.053   9.644   0.867
55283W        W27543  10.175  36.067  11.540
55284W        W27544  16.200  31.442  13.901
55285W        W27545  16.107  25.047  14.366
55286W        W27546  10.340  24.163   0.284
55287W        W27547  11.703  26.682  11.427
55288W        W27548  43.493   6.813   0.270
55289W        W27549  41.494   3.451   3.687
55290W        W27550  18.218  19.725   3.828
55291W        W27551  32.591  39.987  12.072
55292W        W27552  16.268   9.279   1.728
55293W        W27553  35.950  38.383  14.886
55294W        W27554  39.009  41.907   1.804
55295W        W27555   7.715   3.937   3.327
55296W        W27556  29.648  17.153  11.508
55297W        W27557  32.925  24.016   0.244
55298W        W27558  39.059  42.954   1.313
55299W        W27559  28.095  42.904  11.390
55300W        W27560  39.912  21.594  14.357
55301W        W27561   0.832  20.040  14.770
55302W        W27562  29.094  38.413   2.889
55303W        W27563  18.680   8.704   0.482
55304W        W27564   0.925   5.278  12.515
55305W        W27565  11.242  19.644   2.190
55306W        W27566  21.619  17.790  14.503
55307W        W27567  20.740  29.444  13.386
55308W        W27568  28.016  15.110  11.373
55309W        W27569  21.115  36.992  14.346
55310W        W27570   0.775  11.224   4.639
55311W        W27571  33.543  16.218  11.550
55312W        W27572  31.454  17.590   2.839
55313W        W27573  12.124  41.445   3.856
55314W        W27574  40.391   4.929   4.284
55315W        W27575  19.680  30.508  14.293
55316W        W27576  29.547   6.331  12.565
55317W        W27577  19.733  12.739  13.494
55318W        W27578  32.439   1.481  12.930
55319W        W27579  40.877  32.990   0.926
55320W        W27580  16.316  26.168   3.248
55321W        W27581  19.127  31.047   2.675
55322W        W27582  24.994  35.967  13.346
55323W        W27583  13.773  42.962   2.362
55324W        W27584  12.797   2.940  14.916
55325W        W27585  13.690   6.317  11.119
55326W        W27586  30.131  33.503  12.924
55327W        W27587   2.370  15.307   0.952
55328W        W27588   0.277  38.369   2.712
55329W        W27589  11.784  38.020  13.987
55330W        W27590  33.496  16.648   0.441
55331W        W27591   6.920  35.578   4.635
55332W        W27592   4.311  40.023   2.689
55333W        W27593  33.035  12.313   0.382
55334W        W27594   9.374  14.159  11.426
55335W        W27595  38.327  42.948   3.327
55336W        W27596  29.457   3.942  11.521
55337W        W27597   8.327  10.158   0.726
55338W        W27598  19.777  35.490  13.518
55339W        W27599  16.156   1.846  12.918
55340W        W27600  22.196  44.000  12.950
55341W        W27601  24.590  20.041   1.826
55342W        W27602   7.375  12.322   3.217
55343W        W27603  40.526  31.427   0.246
55344W        W27604   0.951  28.987   0.789
55345W        W27605  18.121   3.415  11.925
55346W        W27606  16.667   8.348   3.215
55347W        W27607  35.013  39.817   0.747
55348W        W27608  12.261   9.275  12.945
55349W        W27609  34.402  36.928  10.467
55350W        W27610  12.667   4.812  11.862
55351W        W27611  42.346  29.004   2.868
55352W        W27612  31.055   2.386  13.507
55353W        W27613  31.003  22.710   9.948
55354W        W27614  30.569   5.407   2.365
55355W        W27615  31.943  26.012  10.520
55356W        W27616  31.000   4.355   2.355
55357W        W27617  25.535  22.648   2.689
55358W        W27618   0.377  16.130   4.676
55359W        W27619  24.104  26.035  11.074
55360W        W27620  35.011   6.840   1.291
55361W        W27621  28.602  34.080   4.684
55362W        W27622  17.223  34.022   3.149
55363W        W27623  31.451  38.967   3.652
55364W        W27624  10.634  22.223   0.348
55365W        W27625  39.949  35.447   1.771
55366W        W27626   0.804   5.251  10.932
55367W        W27627   8.302  36.013   1.784
55368W        W27628  14.161  18.071   0.843
55369W        W27629  26.651  41.430   3.783
55370W        W27630  39.881   0.402  12.411
55371W        W27631  34.958  21.558   0.381
55372W        W27632  29.930   6.755   2.225
55373W        W27633  34.472   4.885   0.856
55374W        W27634   2.250   6.764   0.382
55375W        W27635  44.500  14.792  11.920
55376W        W27636  40.005  14.103  13.945
55377W        W27637  15.089  36.033  12.017
55378W        W27638   6.848  11.260  13.860
55379W        W27639  24.608   3.324  11.390
55380W        W27640  24.021  10.189  14.514
55381W        W27641  35.430  12.319  12.870
55382W        W27642   2.940  33.485   1.355
55383W        W27643  39.931  21.741   3.696
55384W        W27644  34.040   8.323   3.310
55385W        W27645  28.544  18.083  13.426
55386W        W27646  41.039  30.103  12.490
55387W        W27647  44.458  14.175  11.597
55388W        W27648  30.935  25.044  10.896
55389W        W27649  41.920  24.484  12.897
55390W        W27650  25.647  21.087  10.140
55391W        W27651  42.492   8.887  12.941
55392W        W27652  22.170  27.176   1.217
55393W        W27653  12.353   2.301   1.875
55394W        W27654  31.408  30.164   2.677
55395W        W27655  44.794  44.404   4.697
55396W        W27656  13.110   9.804   1.363
55397W        W27657   7.674  20.028  13.862
55398W        W27658  24.112  44.914  13.013
55399W        W27659  23.096  35.600  12.859
55400W        W27660  35.003  10.780   3.695
55401W        W27661  16.584  13.218   2.313
55402W        W27662  28.651  42.363  14.841
55403W        W27663   0.285  11.176  12.576
55404W        W27664  15.648  39.954  12.392
55405W        W27665   2.798  30.433   0.465
55406W        W27666  10.781  37.970  12.972
55407W        W27667   3.837  40.371  14.487
55408W        W27668  36.886  27.124  13.894
55409W        W27669  37.866   9.644   0.345
55410W        W27670  22.151  13.280   0.854
55411W        W27671  21.581  38.370   4.143
55412W        W27672  42.010  13.225   2.847
55413W        W27673  37.471  31.634  11.462
55414W        W27674  18.658   6.746  10.119
55415W        W27675  43.402  14.694   3.656
55416W        W27676  21.690   4.881   3.758
55417W        W27677  18.242  26.552  14.337
55418W        W27678  35.579  25.176  13.022
55419W        W27679  30.481  43.931   4.816
55420W        W27680  15.781  37.031  13.853
55421W        W27681  38.023  17.780   1.824
55422W        W27682  20.175  37.039  12.028
55423W        W27683   9.817  36.398   3.852
55424W        W27684  17.201  36.592  11.999
55425W        W27685  36.374  28.096  14.454
55426W        W27686  40.531  20.114  12.445
55427W        W27687  18.731  30.641  12.482
55428W        W27688  34.394  44.413  11.391
55429W        W27689   3.404   6.823  12.937
55430W        W27690   1.445   6.872   1.413
55431W        W27691  34.495   3.366  14.022
55432W        W27692   8.264   7.672   3.189
55433W        W27693  23.015  23.646  11.091
55434W        W27694  19.671   6.718  14.410
55435W        W27695  19.074  18.216  11.072
55436W        W27696   9.748   2.720  12.447
55437W        W27697  14.178   4.335  11.993
55438W        W27698  31.135  26.961  14.839
55439W        W27699  26.490  21.061   3.274
55440W        W27700  15.301  24.158   3.254
55441W        W27701  18.648  27.669   4.725
55442W        W27702  26.657  24.195   5.265
55443W        W27703   6.709   1.316  12.407
55444W        W27704  11.631  18.050  11.122
55445W        W27705   3.425   8.354   0.751
55446W        W27706  25.707  40.466   3.159
55447W        W27707  20.731  10.640  11.018
55448W        W27708  30.520  14.776  12.954
55449W        W27709   8.363  24.554   0.877
55450W        W27710  29.447   1.353  12.360
55451W        W27711  23.109  14.340   3.739
55452W        W27712   9.231  27.526  11.925
55453W        W27713  32.999  16.759  10.441
55454W        W27714  36.457  31.497  11.101
55455W        W27715  40.392   6.711   2.899
55456W        W27716  33.446   1.451   2.677
55457W        W27717   5.843  26.666   4.277
55458W        W27718  25.543  20.602   3.332
55459W        W27719  30.600  27.063   1.864
55460W        W27720  21.574  41.381  11.536
55461W        W27721  33.489  40.409   4.199
55462W        W27722   0.408  33.445  14.958
55463W        W27723  24.186  14.722   3.829
55464W        W27724   6.700  23.112   0.902
55465W        W27725  22.593  37.975   0.872
55466W        W27726  28.041  27.068   4.813
55467W        W27727  32.925  31.111  11.453
55468W        W27728   1.366  10.331  14.970
55469W        W27729  10.376  35.371   0.323
55470W        W27730  39.041  36.029  12.903
55471W        W27731  36.488   4.762  14.328
55472W        W27732  37.028   9.394   4.617
55473W        W27733  39.867  21.054  11.007
55474W        W27734  40.448  28.481  11.082
55475W        W27735  33.994  17.648  10.472
55476W        W27736  19.100   0.318  14.019
55477W        W27737  35.898  16.280  13.481
55478W        W27738  37.371   3.803  13.047
55479W        W27739   8.374  35.525   3.657
55480W        W27740  15.703  37.087  12.522
55481W        W27741  13.152  44.934  13.825
55482W        W27742  42.314  27.974   2.817
55483W        W27743  22.232  25.041  13.927
55484W        W27744   7.815  30.492   1.215
55485W        W27745  21.644  29.070  10.587
55486W        W27746  38.486   4.324  12.077
55487W        W27747  10.850   1.978   1.369
55488W        W27748  16.799  13.639  14.882
55489W        W27749  44.950  28.995  11.553
55490W        W27750   9.385  44.445   0.911
55491W        W27751  26.503  37.078   4.298
55492W        W27752  16.728  18.130   3.708
55493W        W27753   0.969  34.917  14.464
55494W        W27754   2.269  15.296  13.500
55495W        W27755   3.271   8.293  14.421
55496W        W27756  29.060  44.784  10.498
55497W        W27757  10.664  36.932   1.726
55498W        W27758  14.131  39.916   0.755
55499W        W27759   8.225  41.371   0.764
55500W        W27760  26.166  30.467  11.041
55501W        W27761  12.179  18.057  14.832
55502W        W27762  10.329  16.746  11.543
55503W        W27763  26.657  30.557  14.498
55504W        W27764  20.044   6.237  10.947
55505W        W27765   1.844  44.288   1.283
55506W        W27766  16.176  10.664   1.211
55507W        W27767  38.506  19.589   2.384
55508W        W27768  37.080  10.645  14.889
55509W        W27769   5.213   9.779   4.649
55510W        W27770  38.880  16.135  12.046
55511W        W27771  44.816   5.233  11.913
55512W        W27772   2.900  21.513  10.563
55513W        W27773  12.617  40.303   3.287
55514W        W27774  21.662   5.721   4.221
55515W        W27775  31.089  16.768   2.229
55516W        W27776  42.814  14.108  13.794
55517W        W27777  16.273  14.228  14.837
55518W        W27778  14.176   8.186   1.807
55519W        W27779   1.410   2.955   3.849
55520W        W27780  15.743  18.084   2.253
55521W        W27781  38.331  31.622   4.348
55522W        W27782  36.421  27.689  13.325
55523W        W27783   3.840  42.322   3.238
55524W        W27784  41.893  11.255  14.314
55525W        W27785  32.485  21.649   2.742
55526W        W27786  19.747  40.010  12.854
55527W        W27787  41.911  17.172   1.877
55528W        W27788  31.491  38.550   3.799
55529W        W27789  12.133  18.129  12.005
55530W        W27790  33.037  21.680  12.909
55531W        W27791  31.589  10.711   3.673
55532W        W27792  16.134  42.352  11.463
55533W        W27793  10.174  21.104   1.777
55534W        W27794  28.510   7.684  11.929
55535W        W27795  25.585  10.651   3.684
55536W        W27796   0.956  19.247  14.993
55537W        W27797  43.516  12.719  13.004
55538W        W27798  10.737  14.100   2.826
55539W        W27799  39.338  12.683   0.412
55540W        W27800  21.226   5.781   2.374
55541W        W27801  33.399  26.510  12.066
55542W        W27802  31.403  43.374   4.820
55543W        W27803  37.074  35.507   3.769
55544W        W27804  23.164  19.252  12.076
55545W        W27805   4.827  27.153  10.109
55546W        W27806   1.974  40.507  10.510
55547W        W27807  36.961  26.048  12.025
55548W        W27808   5.879  23.192  13.320
55549W        W27809  43.283   2.297   0.361
55550W        W27810   2.811  16.207   3.632
55551W        W27811  32.439  14.153  11.604
55552W        W27812  33.473  35.576   2.251
55553W        W27813  14.769  17.300  12.576
55554W        W27814   9.788   4.765   1.783
55555W        W27815  23.521  25.549   0.894
55556W        W27816  19.736   0.961  11.540
55557W        W27817  40.910   4.235  10.996
55558W        W27818  30.611  24.145   4.192
55559W        W27819  27.117  36.361  13.497
55560W        W27820  22.021  39.539   3.356
55561W        W27821  17.143  12.746  14.810
55562W        W27822   7.319  21.039   2.840
55563W        W27823   4.907   6.249  13.443
55564W        W27824  32.562   4.793  11.096
55565W        W27825  24.656  21.087  11.952
55566W        W27826  34.930   0.788   1.399
55567W        W27827  34.536  24.087  13.890
55568W        W27828  20.744  39.494  13.995
55569W        W27829   9.311  10.684   2.379
55570W        W27830  43.836  35.098   3.386
55571W        W27831  20.562  16.095   3.286
55572W        W27832   0.972  18.555   2.823
55573W        W27833   5.737  14.722  12.490
55574W        W27834   8.176  35.404   4.716
55575W        W27835  22.615   5.843  13.492
55576W        W27836  27.562  35.554  12.968
55577W        W27837  39.903  22.214   4.168
55578W        W27838  43.395  16.136  10.891
55579W        W27839  24.704   6.869  14.921
55580W        W27840  33.621  41.405  11.000
55581W        W27841  26.637   2.955   1.816
55582W        W27842  26.693  29.542  12.019
55583W        W27843  15.658   0.839  14.296
55584W        W27844  26.016  13.324  13.544
55585W        W27845  34.939  14.271  10.026
55586W        W27846  32.603  26.494   4.662
55587W        W27847  31.489  31.907  11.549
55588W        W27848   4.436   2.353   1.356
55589W        W27849   1.328  14.650   1.426
55590W        W27850  26.683   7.708  10.564
55591W        W27851  30.429  39.373   0.858
55592W        W27852   8.740  23.611   1.764
55593W        W27853  17.634   8.816   4.781
55594W        W27854  33.482  40.328   9.965
55595W        W27855  35.448  12.158   3.645
55596W        W27856   8.773  14.756   4.655
55597W        W27857  24.215  21.548  12.486
55598W        W27858   4.725  35.480   0.336
55599W        W27859   4.396   9.317   3.377
55600W        W27860  11.330  43.456  10.598
55601W        W27861  39.004  18.144  11.944
55602W        W27862   2.227   5.296  13.949
55603W        W27863  28.116   1.840  11.937
55604W        W27864   7.277   3.353  10.404
55605W        W27865   7.393  16.152  11.925
55606W        W27866  40.947  35.886  14.512
55607W        W27867  11.865  27.466   0.926
55608W        W27868  14.277  20.554  10.575
55609W        W27869  33.939  23.013  11.460
55610W        W27870   0.269  39.539  11.087
55611W        W27871  20.701  39.834   4.320
55612W        W27872  29.431  41.432   3.704
55613W        W27873   9.247  27.078  11.491
55614W        W27874  44.379  31.144   2.776
55615W        W27875   2.378  39.853  14.303
55616W        W27876  20.725   6.244   0.271
55617W        W27877  42.504  22.700  13.803
55618W        W27878  10.185  16.680  12.827
55619W        W27879  21.063  25.501   1.412
55620W        W27880  25.548  13.680  13.336
55621W        W27881  30.040  41.370  14.473
55622W        W27882  15.673   4.373   1.300
55623W        W27883   8.841  43.271  14.292
55624W        W27884  17.609  24.008   0.403
55625W        W27885  17.789   9.843   1.823
55626W        W27886  24.660   2.455   4.231
55627W        W27887  19.726  29.646  14.789
55628W        W27888   8.834  14.775   4.277
55629W        W27889  14.335   9.390  14.432
55630W        W27890   6.918  37.983   4.128
55631W        W27891  30.152  41.462   0.346
55632W        W27892  32.079  36.564   3.756
55633W        W27893  33.119  41.345   4.675
55634W        W27894  43.373  41.524   5.156
55635W        W27895  12.782  44.353  13.317
55636W        W27896  25.178  30.055   0.783
55637W        W27897  14.290  24.162   2.304
55638W        W27898  21.635  22.200   5.709
55639W        W27899   1.404   0.761   2.411
55640W        W27900  18.247   6.288  12.011
55641W        W27901   6.188   0.868   5.223
55642W        W27902  26.691  13.771  10.492
55643W        W27903  30.019  20.172   1.238
55644W        W27904  19.612  12.342   1.448
55645W        W27905  37.851  23.530   3.633
55646W        W27906  18.208  32.589   3.149
55647W        W27907  38.996   8.862   3.189
55648W        W27908  22.613  17.601   0.827
55649W        W27909  17.657   7.716  12.043
55650W        W27910  38.421  34.605  14.824
55651W        W27911  44.786   2.829  11.416
55652W        W27912  25.191   9.710   2.750
55653W        W27913  10.732   6.775  11.903
55654W        W27914  41.832  33.406   0.785
55655W        W27915  23.727  36.894  13.488
55656W        W27916  40.996   9.328  12.482
55657W        W27917  21.191  27.529   1.885
55658W        W27918   0.264  18.687  14.373
55659W        W27919   3.418  35.000  14.347
55660W        W27920   5.406  44.411   4.799
55661W        W27921   3.258  29.020  10.935
55662W        W27922  42.284  27.970   1.782
55663W        W27923  31.132  26.527   0.890
55664W        W27924   4.209   4.299  11.894
55665W        W27925   6.914  44.006   0.831
55666W        W27926   1.393   0.815   2.787
55667W        W27927  41.020  36.556  14.403
55668W        W27928   8.366   9.152   0.929
55669W        W27929  25.166   7.325   0.362
55670W        W27930  23.622  32.073   3.281
55671W        W27931  10.852  21.228  14.356
55672W        W27932  29.088  35.558  14.388
55673W        W27933  17.769  33.520  12.022
55674W        W27934  19.110   9.677  14.923
55675W        W27935  37.844  13.829  10.902
55676W        W27936  35.091  15.738   3.865
55677W        W27937  29.927  44.328   3.656
55678W        W27938   9.321   6.853  13.029
55679W        W27939   0.299  39.519  14.277
55680W        W27940  13.135  17.724  14.911
55681W        W27941  14.290   7.739   1.438
55682W        W27942  22.226  25.141  11.590
55683W        W27943  26.555  10.860   0.833
55684W        W27944  34.575  36.373  14.412
55685W        W27945  38.049  37.946   4.308
55686W        W27946   6.716  25.665  11.970
55687W        W27947  28.480  27.510  11.061
55688W        W27948   5.751  11.210   4.295
55689W        W27949  39.503  13.229   2.229
55690W        W27950  30.607  22.663   1.272
55691W        W27951   6.395   6.260   1.866
55692W        W27952   9.209   9.882  10.483
55693W        W27953  28.018  34.444   3.714
55694W        W27954  10.356   3.831   0.250
55695W        W27955   6.811  14.183   4.338
55696W        W27956   4.444  12.818   1.753
55697W        W27957  35.493  36.060   2.321
55698W        W27958  18.136  24.203   2.773
55699W        W27959  42.515  37.868  10.491
55700W        W27960   5.743   2.849  14.328
55701W        W27961  28.087  24.013  13.913
55702W        W27962  15.304  11.844   1.730
55703W        W27963  16.129  20.251  13.851
55704W        W27964  30.545  27.552   4.664
55705W        W27965  38.852  44.404  12.999
55706W        W27966  17.191  15.788   4.687
55707W        W27967  30.959   6.385  11.469
55708W        W27968  27.958  36.912  12.385
55709W        W27969  34.867   4.438  14.414
55710W        W27970  37.977  31.482   1.908
55711W        W27971  42.924  41.933  13.893
55712W        W27972  40.306  13.647   2.808
55713W        W27973  37.901  35.393  13.852
55714W        W27974  10.687  19.729  14.492
55715W        W27975  22.524  34.543   1.867
55716W        W27976  19.764  17.598  11.876
55717W        W27977  25.546   5.899   1.920
55718W        W27978   5.376  31.034  12.893
55719W        W27979  29.546   2.837  10.556
55720W        W27980  33.517   1.462   3.283
55721W        W27981  25.132  27.955  10.440
55722W        W27982  38.979   2.783  10.954
55723W        W27983  12.223  39.390   4.231
55724W        W27984   4.882  35.956  13.946
55725W        W27985   3.377   6.243  13.527
55726W        W27986  25.166  41.357  13.475
55727W        W27987  19.146  31.933   0.942
55728W        W27988  23.596  34.613  14.824
55729W        W27989  13.816  41.503  10.969
55730W        W27990   0.446  34.459   3.155
55731W        W27991  25.062  25.674  10.621
55732W        W27992   4.310  24.202  11.881
55733W        W27993  22.697   4.778   3.688
55734W        W27994  18.255  37.930   2.395
55735W        W27995  44.449  21.224  11.027
55736W        W27996  40.965  15.594  12.545
55737W        W27997   2.357  33.417   1.839
55738W        W27998  32.995  30.066  10.978
55739W        W27999   1.890  10.858   4.214
55740W        W28000  14.773   4.232   3.250
55741W        W28001  32.633   0.763  13.544
55742W        W28002  32.921  23.188  14.010
55743W        W28003   0.280  28.968  12.000
55744W        W28004  40.472  44.388  13.806
55745W        W28005  38.980  35.089  13.446
55746W        W28006  42.793  33.507   5.277
55747W        W28007   7.222  26.555  14.450
55748W        W28008  39.437   0.838   2.258
55749W        W28009  35.908  32.599   4.805
55750W        W28010  28.479  32.996  11.897
55751W        W28011  39.353  34.516  12.869
55752W        W28012  34.463  18.684  10.466
55753W        W28013   2.231   9.313  11.565
55754W        W28014   1.250  16.313   4.671
55755W        W28015  40.054  34.380   3.759
55756W        W28016  40.490  30.135  14.021
55757W        W28017  22.746   8.163   3.205
55758W        W28018  38.530  38.347   1.892
55759W        W28019  41.815   0.866  10.961
55760W        W28020  12.750  19.710  12.532
55761W        W28021  40.893   7.844  11.488
55762W        W28022  14.731  41.534   3.672
55763W        W28023  18.141  22.154  11.562
55764W        W28024  42.466  40.439  14.406
55765W        W28025  40.952  36.989   3.774
55766W        W28026  33.001  27.108  10.988
55767W        W28027  15.311  34.455   4.622
55768W        W28028   6.812   3.310  10.970
55769W        W28029  24.589  39.976   1.766
55770W        W28030  32.086  23.192   3.822
55771W        W28031   9.878  17.212  13.473
55772W        W28032  14.290  24.059   1.701
55773W        W28033   2.440  18.192   2.371
55774W        W28034  21.263  15.708  10.619
55775W        W28035  25.503  34.456   2.802
55776W        W28036  28.001  37.465   2.390
55777W        W28037  16.107  34.064   1.867
55778W        W28038  17.719  35.040  12.435
55779W        W28039  32.035  14.116  14.776
55780W        W28040   6.827  38.041  12.982
55781W        W28041  41.032  15.172   0.831
55782W        W28042  29.065  12.829  12.469
55783W        W28043   0.857  16.726  12.827
55784W        W28044  21.734  27.621  13.505
55785W        W28045  37.934  29.022   3.225
55786W        W28046  25.976  37.517   1.707
55787W        W28047  26.515   2.852  14.782
55788W        W28048  44.798  40.458  12.509
55789W        W28049  30.108  18.100  12.576
55790W        W28050  10.700  27.540   2.314
55791W        W28051  40.875   1.273  13.484
55792W        W28052  16.792  23.563  12.578
55793W        W28053  21.663  28.053  12.838
55794W        W28054  15.820  28.074  10.589
55795W        W28055   6.709  29.442  10.566
55796W        W28056   8.753   4.754   1.833
55797W        W28057   8.173  25.690  13.805
55798W        W28058  21.087   5.366   3.293
55799W        W28059  24.569   3.277  13.383
55800W        W28060  15.760  21.257  13.400
55801W        W28061  32.552  24.541   4.205
55802W        W28062  34.470  34.966   2.851
55803W        W28063  38.895  31.469  13.795
55804W        W28064  44.813  20.733  14.790
55805W        W28065  27.651   2.871  10.495
55806W        W28066   0.360  18.228   1.915
55807W        W28067   1.403  38.371   3.749
55808W        W28068  27.062   9.837  13.968
55809W        W28069  34.582  34.985   4.277
55810W        W28070  30.593  17.097   1.225
55811W        W28071  16.647  25.506  11.402
55812W        W28072  22.573  19.729   2.874
55813W        W28073   6.742   4.876   0.429
55814W        W28074  27.000  35.026   2.315
55815W        W28075   3.318   6.395   3.199
55816W        W28076  36.477  29.618   0.839
55817W        W28077  17.739  32.910  13.819
55818W        W28078   4.871  38.889   3.214
55819W        W28079  24.150  34.393  14.364
55820W        W28080  26.973  43.847   2.403
55821W        W28081  25.578  29.620  12.057
55822W        W28082  11.370  19.624   3.711
55823W        W28083   2.867  25.990  10.947
55824W        W28084  14.679  38.983  14.972
55825W        W28085  38.419  35.992   0.450
55826W        W28086  25.486   0.943  10.096
55827W        W28087  44.271  27.651   0.768
55828W        W28088  10.724  30.516  12.077
55829W        W28089  21.244  18.221   4.342
55830W        W28090   5.774  42.434  10.581
55831W        W28091  30.604   3.846  10.570
55832W        W28092   0.748  43.804  14.017
55833W        W28093  35.453  17.600   2.226
55834W        W28094   0.366  26.656  12.923
55835W        W28095   7.390  11.697  12.092
55836W        W28096  25.105   8.661  14.910
55837W        W28097  26.670   1.441  11.531
55838W        W28098  20.761  17.743  12.987
55839W        W28099  13.162   9.241  13.336
55840W        W28100  41.933  39.548   3.654
55841W        W28101  31.932  18.217  13.846
55842W        W28102  37.845  28.116  14.931
55843W        W28103  16.087  26.954   3.653
55844W        W28104  43.986  43.939  11.045
55845W        W28105  11.130   0.424  12.966
55846W        W28106  41.322  17.594  11.442
55847W        W28107  43.864  19.652  14.939
55848W        W28108  38.466   7.317  13.945
55849W        W28109   2.368  29.530  13.505
55850W        W28110  14.800  43.325   0.396
55851W        W28111  41.379   3.393   1.410
55852W        W28112  32.102  18.060  12.031
55853W        W28113  28.016   2.915  10.623
55854W        W28114   4.928  41.431   4.304
55855W        W28115  20.637  19.603   5.127
55856W        W28116  14.612  17.576  10.920
55857W        W28117   1.866  27.676  10.593
55858W        W28118  19.744  39.393  11.119
55859W        W28119  37.019  19.611   9.477
55860W        W28120  24.570  13.322   4.308
55861W        W28121   3.413  35.391   1.323
55862W        W28122  42.873   8.799  11.610
55863W        W28123  38.957  35.521   0.332
55864W        W28124   3.717  40.392   3.665
55865W        W28125  13.309   9.816   0.958
55866W        W28126  35.033   8.862   1.440
55867W        W28127  43.862  14.757   4.679
55868W        W28128  21.248  37.440   1.281
55869W        W28129  30.503  23.733  11.085
55870W        W28130  34.504  17.071  13.361
55871W        W28131  10.178  36.420  14.817
55872W        W28132  25.627  34.974  13.315
55873W        W28133  21.601  30.147   1.819
55874W        W28134  19.617  39.494   2.858
55875W        W28135   8.391  43.914   2.797
55876W        W28136  28.164  40.334   2.898
55877W        W28137   1.348   2.824  14.350
55878W        W28138  19.072  12.167   0.413
55879W        W28139   5.796  17.775   4.332
55880W        W28140   2.284  33.998   0.332
55881W        W28141  29.933  18.286   0.444
55882W        W28142   2.775  37.015  10.449
55883W        W28143  13.720   4.399  10.587
55884W        W28144  18.565  10.227  11.098
55885W        W28145   4.430  22.008  12.902
55886W        W28146  19.604   4.430   3.341
55887W        W28147  40.312  33.610   2.180
55888W        W28148  24.535  38.889   0.887
55889W        W28149  12.835  34.902  13.413
55890W        W28150   1.446   1.474   2.875
55891W        W28151  35.471  27.681  13.001
55892W        W28152   4.777   3.358   1.240
55893W        W28153  35.499  25.034  11.540
55894W        W28154  32.886   7.780  14.474
55895W        W28155  18.216  18.720  10.523
55896W        W28156  22.724  36.569  11.537
55897W        W28157  31.008   7.229  11.420
55898W        W28158  34.454  20.623   5.249
55899W        W28159  35.529  40.968   4.740
55900W        W28160  25.078  34.917  10.931
55901W        W28161   0.810  34.908  12.400
55902W        W28162  27.093  37.844  14.480
55903W        W28163   2.747   6.695   2.752
55904W        W28164  15.786  35.993   3.346
55905W        W28165  28.038  24.651   3.637
55906W        W28166  41.531  44.992   1.343
55907W        W28167  26.620  29.014   1.741
55908W        W28168  44.833  29.614   1.899
55909W        W28169   3.227  10.817  14.298
55910W        W28170   3.907  14.141  12.458
55911W        W28171  43.765  17.250   4.236
55912W        W28172  41.879  15.810   4.202
55913W        W28173  29.991  17.740  14.953
55914W        W28174  42.473  22.028   1.894
55915W        W28175  37.383  36.443  10.582
55916W        W28176  35.007  42.298   3.296
55917W        W28177  38.508  24.694  10.411
55918W        W28178  44.822  29.458   4.198
55919W        W28179  13.183  43.449   4.731
55920W        W28180  23.566  41.915   3.218
55921W        W28181  32.956   7.669   2.381
55922W        W28182   6.375   8.345  14.486
55923W        W28183  13.350  21.544   3.357
55924W        W28184  26.484  30.990  14.403
55925W        W28185  25.015  28.156   2.256
55926W        W28186  23.702  34.887   3.744
55927W        W28187  12.286   4.228  13.919
55928W        W28188   4.942  16.187  14.838
55929W        W28189  39.031   8.848  11.590
55930W        W28190  20.530  27.955   3.799
55931W        W28191  42.944  31.587   3.739
55932W        W28192   6.250  10.182  13.059
55933W        W28193  13.216  15.235   0.364
55934W        W28194  10.849  21.716  11.094
55935W        W28195  15.286  28.648  11.953
55936W        W28196  21.022  25.500   1.784
55937W        W28197   2.465  39.954  10.569
55938W        W28198  29.074  19.557  13.347
55939W        W28199  41.827   0.758  12.864
55940W        W28200  37.920   9.303   5.289
55941W        W28201  31.149   0.768   5.289
55942W        W28202  42.341   6.894  12.480
55943W        W28203  28.036  33.875  10.629
55944W        W28204   0.852  16.630   3.724
55945W        W28205   6.406  21.059   1.778
55946W        W28206   5.379  17.262  14.492
55947W        W28207  29.622   1.815   0.405
55948W        W28208  11.836  44.460   2.671
55949W        W28209  43.508  42.856  10.159
55950W        W28210  38.001  41.301   1.224
55951W        W28211   3.365  13.339   2.686
55952W        W28212  14.764  21.255  14.296
55953W        W28213   6.874  41.907  14.413
55954W        W28214  22.086  10.787   2.299
55955W        W28215  26.073  43.781  13.056
55956W        W28216  14.261  37.528   4.726
55957W        W28217  21.042  15.824   0.953
55958W        W28218  28.544  32.074   9.468
55959W        W28219  43.779  32.925  12.964
55960W        W28220   6.685  25.012   3.223
55961W        W28221  28.974  13.687   2.765
55962W        W28222  39.814  17.143   1.362
55963W        W28223  32.961   0.303   4.280
55964W        W28224  19.578   2.389   5.284
55965W        W28225   0.456  13.164   2.329
55966W        W28226  44.422  41.015  10.449
55967W        W28227  12.307  29.977   1.438
55968W        W28228  30.999  13.208   1.387
55969W        W28229  27.526  27.993   2.215
55970W        W28230  18.257  21.155   5.104
55971W        W28231   4.846  17.151  13.016
55972W        W28232  23.569  20.064  14.810
55973W        W28233  30.121  14.288  13.994
55974W        W28234  19.159  13.808  14.879
55975W        W28235  44.468  23.655   4.318
55976W        W28236  27.023  41.295   1.862
55977W        W28237  27.462  24.168   2.305
55978W        W28238  32.989  38.566   3.235
55979W        W28239   3.428  43.012   3.282
55980W        W28240  13.122   4.846  12.938
55981W        W28241  35.519   5.256  12.981
55982W        W28242   6.782  28.057   0.831
55983W        W28243  10.355  35.968  11.060
55984W        W28244  11.283  25.660   3.743
55985W        W28245  32.436  28.063  12.016
55986W        W28246  19.720  37.917  10.459
55987W        W28247  33.968  43.323  11.485
55988W        W28248  18.606   7.306   2.178
55989W        W28249  32.006  24.569  14.466
55990W        W28250  21.209  30.511  11.007
55991W        W28251  30.634  24.718   4.668
55992W        W28252  34.604   8.810   0.885
55993W        W28253  33.501  38.355   1.365
55994W        W28254  35.477  43.411   0.935
55995W        W28255  19.707   7.782   1.886
55996W        W28256   7.806  40.869   3.156
55997W        W28257   9.356  30.413  10.486
55998W        W28258  25.631  35.448   1.230
55999W        W28259   2.814  33.456   1.733
56000W        W28260  44.869   9.855  14.896
56001W        W28261   0.403  12.648   0.351
56002W        W28262  21.719  21.683   0.361
56003W        W28263  14.130  21.084   1.348
56004W        W28264  41.293  25.012   0.309
56005W        W28265  18.674  32.557  11.461
56006W        W28266   2.266  23.096  13.421
56007W        W28267  13.816  20.266  14.826
56008W        W28268   6.797   0.816   3.155
56009W        W28269  21.529  11.274  12.377
56010W        W28270  31.415  43.515   3.248
56011W        W28271  44.967   8.858  12.854
56012W        W28272  30.540   7.335   1.824
56013W        W28273  20.130   9.278   0.896
56014W        W28274  19.090  12.322   2.388
56015W        W28275   1.395  33.415  11.113
56016W        W28276   4.942  12.264  10.065
56017W        W28277  20.083  22.252  11.098
56018W        W28278  29.026   3.285  11.538
56019W        W28279  20.714   2.464  12.343
56020W        W28280  36.868   3.835  11.908
56021W        W28281  22.162  14.261   3.784
56022W        W28282  31.063  13.149  14.333
56023W        W28283  30.540  18.749   4.723
56024W        W28284  20.701  19.665  12.461
56025W        W28285  34.522  21.701  14.486
56026W        W28286  39.401  25.543  14.442
56027W        W28287  28.652  26.561  13.989
56028W        W28288  30.020  36.567  11.942
56029W        W28289  30.583  43.326  12.399
56030W        W28290  11.806  42.384   4.293
56031W        W28291  28.020  19.131   3.368
56032W        W28292  23.611  24.695   4.620
56033W        W28293  15.197  12.762  13.517
56034W        W28294  22.217  31.588  11.478
56035W        W28295   5.858   9.675   0.264
56036W        W28296  39.348  38.993   0.253
56037W        W28297  19.072  30.133  14.484
56038W        W28298  37.018  42.800   0.249
56039W        W28299  39.871  34.070   1.934
56040W        W28300  43.017  25.205  13.047
56041W        W28301  19.274  16.615  12.542
56042W        W28302  37.067  32.081   2.265
56043W        W28303  41.823  14.209   2.289
56044W        W28304  31.579  28.508   4.663
56045W        W28305  43.457  13.150   0.735
56046W        W28306  28.079   3.456  10.405
56047W        W28307  42.305  38.502  10.535
56048W        W28308  18.164   8.681  11.863
56049W        W28309  25.053   5.256  13.024
56050W        W28310  23.024  37.538  11.917
56051W        W28311  19.131  16.236   1.906
56052W        W28312   7.185   9.885   4.256
56053W        W28313  17.703   5.927  12.828
56054W        W28314   0.809  34.870  10.017
56055W        W28315   6.345  18.685   3.806
56056W        W28316   5.930  36.524   0.397
56057W        W28317   0.875  30.953   1.306
56058W        W28318  32.400  16.657  11.871
56059W        W28319   0.919   2.953  13.396
56060W        W28320  39.875  13.276  11.578
56061W        W28321  15.130   6.895   0.758
56062W        W28322  15.593  25.573  13.359
56063W        W28323  13.147  21.262   4.181
56064W        W28324   6.338   5.427   3.351
56065W        W28325  18.068  27.644   2.702
56066W        W28326  34.486  31.494  13.482
56067W        W28327  44.897   6.322   2.258
56068W        W28328  33.066   7.711  10.631
56069W        W28329  44.831  42.457  14.852
56070W        W28330   1.781  39.004  13.980
56071W        W28331  33.901  30.646  11.450
56072W        W28332  29.987  41.444  14.785
56073W        W28333   7.911  29.441  11.068
56074W        W28334  12.134  40.330   1.840
56075W        W28335  17.639  41.940   0.387
56076W        W28336   3.236  42.921   1.880
56077W        W28337  29.074  29.090  10.516
56078W        W28338  16.693  14.718  12.950
56079W        W28339  43.400  23.675  11.013
56080W        W28340   1.884  25.681  11.421
56081W        W28341  30.503   6.364   0.872
56082W        W28342  34.909  38.432   4.656
56083W        W28343  10.248   1.736  14.932
56084W        W28344  26.692  40.878   5.122
56085W        W28345  29.572  15.733  12.041
56086W        W28346  21.175  44.324  14.913
56087W        W28347  14.827  24.070   2.752
56088W        W28348   2.848  14.759  13.428
56089W        W28349  10.181   1.808  13.421
56090W        W28350   2.443   5.865   3.352
56091W        W28351  40.909   1.359  11.892
56092W        W28352  24.187  43.353  11.073
56093W        W28353  21.017  44.499   2.317
56094W        W28354  33.568  25.965   0.277
56095W        W28355  42.523  15.082   1.284
56096W        W28356  29.971   4.310  11.081
56097W        W28357  40.503   0.904  10.945
56098W        W28358   5.824  22.133   0.411
56099W        W28359  31.989  13.190  13.016
56100W        W28360   6.783  29.074  11.899
56101W        W28361   6.343  33.402   4.350
56102W        W28362  20.636  21.167   9.590
56103W        W28363  13.332  25.637   2.716
56104W        W28364  15.589  29.552  10.505
56105W        W28365  38.499   8.888   2.734
56106W        W28366  41.988  31.077   2.411
56107W        W28367   7.780  15.132   3.204
56108W        W28368  40.038  29.515  13.915
56109W        W28369  43.358  34.451   4.204
56110W        W28370  35.580  36.845   1.890
56111W        W28371  29.135   4.272   4.212
56112W        W28372   4.794  43.471  13.399
56113W        W28373  18.068  42.490  14.834
56114W        W28374  32.014  33.998  11.444
56115W        W28375  26.019  16.765   1.703
56116W        W28376  40.882  12.136   4.248
56117W        W28377   5.260  38.947  13.357
56118W        W28378   6.858  25.668   0.883
56119W        W28379  25.605   1.314   1.695
56120W        W28380   7.779   8.667  11.482
56121W        W28381  44.775   9.801   3.329
56122W        W28382  30.071  23.557   4.189
56123W        W28383   2.277  44.266   4.153
56124W        W28384  29.050   3.317   3.694
56125W        W28385  36.026  42.415   3.857
56126W        W28386  37.064   0.387   3.303
56127W        W28387  19.633  18.771  14.450
56128W        W28388  14.166   9.887  10.910
56129W        W28389  26.594  43.498   1.386
56130W        W28390   2.957  21.242   1.919
56131W        W28391  42.019  19.175  13.957
56132W        W28392  44.835   8.734   4.831
56133W        W28393  24.600  30.470   4.188
56134W        W28394   7.292   1.251  13.803
56135W        W28395  16.229  34.482   4.355
56136W        W28396  43.972   4.738   3.309
56137W        W28397  41.010  31.481   4.607
56138W        W28398  12.332  20.065  14.787
56139W        W28399  25.655  39.556   3.710
56140W        W28400  30.617  25.650   2.236
56141W        W28401  32.627  33.047  11.096
56142W        W28402   6.256  10.297   2.235
56143W        W28403  22.543  16.287   3.178
56144W        W28404  27.172  31.472   0.813
56145W        W28405   1.333  38.334   4.755
56146W        W28406  31.104  10.236   1.293
56147W        W28407  31.614  41.873   1.705
56148W        W28408   5.339   9.663   2.321
56149W        W28409   4.825  10.663   1.922
56150W        W28410  23.495  26.011  14.766
56151W        W28411  43.468  38.923  11.425
56152W        W28412  15.136  36.944   2.696
56153W        W28413  39.929   5.371   2.894
56154W        W28414   3.948   6.374   0.471
56155W        W28415  15.614  29.001  11.065
56156W        W28416  37.418  16.703  11.879
56157W        W28417  39.005  11.199  12.006
56158W        W28418   7.214  33.619   0.440
56159W        W28419  26.546  42.453  13.394
56160W        W28420  28.546  15.780  14.011
56161W        W28421  35.962  14.612  14.279
56162W        W28422   7.273  11.662   1.361
56163W        W28423  42.990  10.706   2.286
56164W        W28424  25.508  26.696   4.765
56165W        W28425  14.308  20.767  12.825
56166W        W28426  22.731  43.962   0.274
56167W        W28427   2.420  38.831  12.457
56168W        W28428  31.904  27.945  12.471
56169W        W28429  43.314  39.448   1.740
56170W        W28430  21.134  29.972  14.980
56171W        W28431   0.256   5.200   1.811
56172W        W28432  41.966  33.619   1.824
56173W        W28433  30.492   4.353   2.858
56174W        W28434  18.084  32.588   2.399
56175W        W28435  11.810  43.332   3.699
56176W        W28436  35.087  27.641   0.869
56177W        W28437  44.004  33.874   4.639
56178W        W28438   6.423   4.755   1.840
56179W        W28439  44.856  13.635  11.997
56180W        W28440  23.720  20.160   1.423
56181W        W28441  29.990   6.753   2.690
56182W        W28442  41.035  40.369   3.333
56183W        W28443  25.985  25.502  13.943
56184W        W28444  15.319   5.857   0.810
56185W        W28445  23.038  26.071   4.623
56186W        W28446  25.010  24.069  10.477
56187W        W28447   8.688  24.186  11.475
56188W        W28448  34.551  19.180   4.790
56189W        W28449  38.041  11.733   4.258
56190W        W28450  10.157   6.772   4.273
56191W        W28451   8.270  12.679   0.429
56192W        W28452  19.728  36.447   5.250
56193W        W28453  37.977  29.553   1.340
56194W        W28454   7.900  16.226   3.711
56195W        W28455   6.684  34.590  13.432
56196W        W28456  35.098  16.210   0.759
56197W        W28457   6.397  39.445  13.470
56198W        W28458  42.966  43.813   3.216
56199W        W28459  21.722  10.296  11.395
56200W        W28460  14.707  36.016   4.316
56201W        W28461  21.736  19.720   1.414
56202W        W28462  31.981  36.914  11.979
56203W        W28463   2.744   3.826   1.768
56204W        W28464  21.721   2.915  14.277
56205W        W28465  29.591   1.871   3.768
56206W        W28466   6.215  36.918   1.212
56207W        W28467  22.171  31.458   1.748
56208W        W28468  26.053  24.096  13.366
56209W        W28469  34.397  10.642  14.332
56210W        W28470  32.096   3.272  13.545
56211W        W28471  24.663  15.793   0.894
56212W        W28472  14.239  22.677  13.327
56213W        W28473  33.893   3.714  13.940
56214W        W28474  20.194  15.692   9.998
56215W        W28475  11.727  19.195  10.640
56216W        W28476  19.535  34.926  11.442
56217W        W28477  17.241  42.851   3.174
56218W        W28478  43.498   6.396  14.932
56219W        W28479  15.277  36.530   1.836
56220W        W28480  16.648   6.730   2.364
56221W        W28481  39.872  23.544  12.957
56222W        W28482  20.083  20.074   9.955
56223W        W28483   0.796   3.717   0.342
56224W        W28484  21.058   1.931   4.213
56225W        W28485  40.477   4.922   1.415
56226W        W28486  19.249  18.127  14.978
56227W        W28487  10.660  21.742   2.794
56228W        W28488  42.479  13.648  11.549
56229W        W28489   8.855  37.969   4.601
56230W        W28490  26.543  13.144   0.355
56231W        W28491   9.832  19.044  11.604
56232W        W28492   8.399  44.844  12.430
56233W        W28493   9.199  24.230  13.039
56234W        W28494  28.987  12.189   0.745
56235W        W28495  10.797  19.670   2.367
56236W        W28496  40.901  38.570   3.739
56237W        W28497  35.105  15.715   2.251
56238W        W28498   9.248  21.677   4.124
56239W        W28499  15.731   8.240  12.416
56240W        W28500  44.299  41.866  12.877
56241W        W28501  42.851  38.454  11.438
56242W        W28502   9.177  42.506   1.280
56243W        W28503  35.578  24.603   2.314
56244W        W28504  20.693   1.949  11.058
56245W        W28505   1.470  36.872   1.708
56246W        W28506  24.210  10.648   1.861
56247W        W28507  39.416  41.026  14.905
56248W        W28508  16.177  21.227   2.249
56249W        W28509  33.036  39.912  13.939
56250W        W28510  22.697   7.867   3.334
56251W        W28511  18.201  20.537  10.410
56252W        W28512  18.069  33.903   1.274
56253W        W28513  27.500  11.192   1.297
56254W        W28514  33.109  18.566   4.678
56255W        W28515   4.705   9.761   0.953
56256W        W28516  29.162  36.440   2.357
56257W        W28517  35.982  20.746  10.951
56258W        W28518  38.474   4.751  10.001
56259W        W28519  30.958   9.189  13.893
56260W        W28520  33.388  13.119   4.716
56261W        W28521  10.769  10.874  12.867
56262W        W28522   6.255   4.300   4.775
56263W        W28523  39.835   8.685   2.265
56264W        W28524  33.611  11.282   2.252
56265W        W28525   9.725  18.178  13.031
56266W        W28526  31.059  34.402   5.097
56267W        W28527  29.923  19.221   3.668
56268W        W28528  36.487  13.267   3.829
56269W        W28529   2.905  15.311  10.558
56270W        W28530  42.856  29.528   5.299
56271W        W28531  41.878  13.742   0.452
56272W        W28532  41.983  35.900   0.250
56273W        W28533  22.652   5.821  12.361
56274W        W28534   5.689  21.057  14.760
56275W        W28535  41.979  20.570  13.063
56276W        W28536  36.351  14.252   2.212
56277W        W28537  26.036  11.847   3.843
56278W        W28538  28.545  17.150  14.301
56279W        W28539   8.253  34.446  13.870
56280W        W28540  18.078  36.998  12.974
56281W        W28541  17.178   1.804   3.260
56282W        W28542  23.506  34.111   3.151
56283W        W28543   0.935  27.599  11.856
56284W        W28544  24.690  21.139   1.252
56285W        W28545  19.692   5.196  11.028
56286W        W28546  33.878  21.534   4.666
56287W        W28547   1.309  23.127  13.003
56288W        W28548   2.281  41.958  14.363
56289W        W28549  10.822  27.014   2.892
56290W        W28550  41.536  30.105  13.044
56291W        W28551  17.247   2.268   4.334
56292W        W28552  39.944   0.853   4.240
56293W        W28553  26.507  42.495   0.769
56294W        W28554  35.504  38.053   3.382
56295W        W28555  28.096  38.965   3.362
56296W        W28556  17.133   7.876  11.443
56297W        W28557  41.973  34.983  13.973
56298W        W28558  16.813  39.831   2.750
56299W        W28559  16.805  23.018   4.650
56300W        W28560   1.408  34.546   1.826
56301W        W28561  37.393  12.835   1.417
56302W        W28562  43.327  38.528  14.386
56303W        W28563  26.635  25.184  12.532
56304W        W28564  42.296   8.240  13.393
56305W        W28565  13.776   6.200  14.975
56306W        W28566  26.530  19.237  14.447
56307W        W28567   7.893  26.651   2.336
56308W        W28568  38.402  19.228  11.905
56309W        W28569  39.957   3.893  13.820
56310W        W28570  21.512   0.419   2.902
56311W        W28571  24.611  24.555   2.668
56312W        W28572  20.559  25.491  14.969
56313W        W28573   6.817  21.739  13.943
56314W        W28574   4.435  44.394  14.802
56315W        W28575  20.676  18.218  10.604
56316W        W28576   0.919  14.726  13.456
56317W        W28577  15.299   1.822   4.610
56318W        W28578  37.878  37.372  12.019
56319W        W28579  11.836  21.261  14.877
56320W        W28580  29.645  33.421  10.033
56321W        W28581  13.273   4.214   4.798
56322W        W28582  16.689   1.329  14.955
56323W        W28583   9.394  23.718  12.430
56324W        W28584   1.953  39.985  11.897
56325W        W28585  27.007   4.913   2.689
56326W        W28586  36.533  15.606   3.710
56327W        W28587  24.140  38.056  12.967
56328W        W28588  16.607   1.451  12.885
56329W        W28589  25.562   0.940  12.541
56330W        W28590  36.475  35.939  13.486
56331W        W28591   5.875  44.805   2.307
56332W        W28592  31.429  10.284   2.882
56333W        W28593  29.625  13.180   2.345
56334W        W28594   0.280  16.686  12.433
56335W        W28595   0.373  15.634   2.225
56336W        W28596  14.834   8.200  11.383
56337W        W28597  20.591  15.740  13.906
56338W        W28598  22.523  42.021   1.810
56339W        W28599  25.626  22.610  13.807
56340W        W28600  27.482   3.365   4.290
56341W        W28601  16.163  29.517  14.894
56342W        W28602  21.630   0.917   1.797
56343W        W28603  42.465   3.891   3.748
56344W        W28604  31.922  10.160  14.875
56345W        W28605  15.284  22.513   3.150
56346W        W28606  23.175  22.530   0.795
56347W        W28607  17.200  36.083   1.308
56348W        W28608  21.757  33.899  10.580
56349W        W28609   5.437  15.203  11.961
56350W        W28610   1.479  23.494   1.440
56351W        W28611  36.433  16.228   4.640
56352W        W28612  30.445  40.886  14.963
56353W        W28613  30.554   4.866   3.682
56354W        W28614  21.168  18.062   0.821
56355W        W28615  14.217   3.309  11.029
56356W        W28616  36.039  17.718   4.797
56357W        W28617   8.182  27.147   3.373
56358W        W28618  26.154   9.223  14.974
56359W        W28619  43.415  12.214  12.557
56360W        W28620  28.032  26.187  12.388
56361W        W28621  30.438   6.238  11.416
56362W        W28622  28.982  28.627   1.246
56363W        W28623  39.876  10.823  11.961
56364W        W28624  36.991  14.236  11.044
56365W        W28625  22.533  10.301   3.742
56366W        W28626  10.767  29.596  11.562
56367W        W28627  11.717  31.436   4.712
56368W        W28628  23.499   5.781  14.809
56369W        W28629  37.911   1.810   0.759
56370W        W28630  19.554  41.518   0.243
56371W        W28631  10.231  22.148   1.447
56372W        W28632  15.328  11.623   4.256
56373W        W28633  13.195  31.422  14.805
56374W        W28634  22.516   7.685  14.847
56375W        W28635  38.873  24.661   1.843
56376W        W28636  30.633  16.589   3.859
56377W        W28637  25.496  36.918   0.870
56378W        W28638  44.994  31.420   4.822
56379W        W28639   1.427  24.479   1.843
56380W        W28640  32.904  44.769   0.398
56381W        W28641  12.264  12.685   2.868
56382W        W28642  20.087  23.569  12.832
56383W        W28643  30.423  18.274   2.335
56384W        W28644  17.086  39.991   2.247
56385W        W28645  28.665   0.915   2.221
56386W        W28646  14.264  11.138   4.729
56387W        W28647   4.777  14.683  13.045
56388W        W28648  44.808  25.058  12.514
56389W        W28649  37.443   2.265  10.955
56390W        W28650  43.295  11.704   1.763
56391W        W28651  28.026  20.707  11.124
56392W        W28652  36.093  14.284   2.311
56393W        W28653   6.235   3.329  13.878
56394W        W28654  35.861  16.261  11.103
56395W        W28655  21.238  32.543  11.519
56396W        W28656  28.100  26.956   1.935
56397W        W28657   8.279  37.396   2.710
56398W        W28658  20.140  25.966  14.948
56399W        W28659  11.824  18.754   2.875
56400W        W28660   9.284  17.268   9.926
56401W        W28661   2.230  36.880  14.474
56402W        W28662  42.894  35.571  12.040
56403W        W28663  10.848  11.287  12.540
56404W        W28664  26.961   2.914  12.030
56405W        W28665  21.111   4.423   2.871
56406W        W28666  14.246  14.296   1.319
56407W        W28667  28.173  21.142   0.931
56408W        W28668  13.332   0.461  12.417
56409W        W28669  35.431  22.684   0.930
56410W        W28670  43.895  43.499  10.523
56411W        W28671  42.925   4.700  14.008
56412W        W28672  27.532  25.522   3.302
56413W        W28673  19.110  27.480   2.794
56414W        W28674  42.300  19.276  11.041
56415W        W28675  20.764  24.642   4.250
56416W        W28676   4.348  29.050   2.818
56417W        W28677   0.923  15.617   4.156
56418W        W28678  20.230  28.524   4.769
56419W        W28679  11.663  17.787  13.471
56420W        W28680  39.492   5.841  11.052
56421W        W28681  26.150   5.856  12.519
56422W        W28682  39.371   2.316   3.682
56423W        W28683  25.058  12.648  13.484
56424W        W28684  29.586  14.827  11.610
56425W        W28685  23.651   6.691  13.936
56426W        W28686   5.313  36.527  13.059
56427W        W28687  29.015   2.390   1.357
56428W        W28688  21.250  27.073   5.724
56429W        W28689  29.463  11.313  11.587
56430W        W28690  28.625  17.611   4.319
56431W        W28691  31.479  18.156   3.319
56432W        W28692   0.854  35.380  12.559
56433W        W28693  21.650  39.024  13.504
56434W        W28694  40.424  39.453   0.778
56435W        W28695  14.644  19.551  11.561
56436W        W28696   3.330  40.818  10.514
56437W        W28697   5.346  32.990  13.832
56438W        W28698  11.710  17.297   2.405
56439W        W28699  13.156  27.007   2.879
56440W        W28700  28.953  38.526  13.354
56441W        W28701  25.620  27.588   1.393
56442W        W28702   6.366   1.377   2.662
56443W        W28703  30.594  10.255   1.241
56444W        W28704  13.120  15.814   4.807
56445W        W28705  29.429  24.977  14.324
56446W        W28706  24.211  40.462   0.941
56447W        W28707  38.446  37.380  11.928
56448W        W28708  40.349   5.706  14.996
56449W        W28709  24.548   1.861  11.979
56450W        W28710  14.291  35.928   1.761
56451W        W28711  10.301  22.091  13.380
56452W        W28712  36.562  34.489  13.492
56453W        W28713   8.661  16.582  14.390
56454W        W28714   4.229  14.786   0.254
56455W        W28715  27.990  44.820  12.446
56456W        W28716   3.915  20.596  12.492
56457W        W28717  29.435  43.277  12.384
56458W        W28718  32.603  33.478  10.926
56459W        W28719  43.909  16.775  12.860
56460W        W28720  32.015  13.224   4.791
56461W        W28721  18.604  43.819  12.363
56462W        W28722  29.558  41.409  12.030
56463W        W28723  14.264  43.005  13.814
56464W        W28724  28.560  34.058   3.150
56465W        W28725  41.964  21.254   1.391
56466W        W28726  37.074  12.840  12.953
56467W        W28727  29.987  40.923   1.363
56468W        W28728  29.640  42.016  12.395
56469W        W28729   6.395  19.193   3.249
56470W        W28730  20.033   1.868   9.938
56471W        W28731   2.420  12.857  11.481
56472W        W28732  15.325  18.078   4.114
56473W        W28733  23.001  40.472  13.793
56474W        W28734  39.823  32.917  14.807
56475W        W28735  29.048   7.746  13.453
56476W        W28736  42.974   7.748  14.397
56477W        W28737   9.369  17.653  14.319
56478W        W28738  40.974  28.995   4.785
56479W        W28739  13.315   7.689  13.548
56480W        W28740  31.489  16.800  14.017
56481W        W28741  18.561  12.271  10.416
56482W        W28742  24.015   0.465   2.873
56483W        W28743  28.451  34.434  11.405
56484W        W28744  10.382  37.440  11.913
56485W        W28745  15.190  25.529  13.430
56486W        W28746  16.308  43.513  13.883
56487W        W28747  20.706  12.611  11.858
56488W        W28748  39.393   7.377   3.860
56489W        W28749  37.965  29.115  10.592
56490W        W28750  26.514  34.012  12.365
56491W        W28751   7.367  44.886   3.692
56492W        W28752  41.515  43.928  10.504
56493W        W28753  10.222  41.850   2.788
56494W        W28754  14.619  18.267  14.785
56495W        W28755  16.258  25.034  12.394
56496W        W28756  28.547  13.714   0.760
56497W        W28757  39.851  23.599  11.049
56498W        W28758   8.183  20.237   1.781
56499W        W28759  12.842   6.308   3.180
56500W        W28760   4.284  27.584  13.966
56501W        W28761  12.626   3.219   2.395
56502W        W28762   4.802  34.090  14.295
56503W        W28763   3.786  33.129  13.520
56504W        W28764  14.615  14.178   0.391
56505W        W28765  15.652   4.913  12.062
56506W        W28766  22.579  22.501  11.510
56507W        W28767  13.298   4.284  14.276
56508W        W28768  30.096  31.514  11.981
56509W        W28769  12.284  29.541   2.246
56510W        W28770   5.693   8.189  12.036
56511W        W28771   7.315  20.087  12.973
56512W        W28772  21.165  17.079  11.539
56513W        W28773  17.266  42.526   2.208
56514W        W28774  27.648  22.224  10.485
56515W        W28775  35.860  32.570  11.031
56516W        W28776   6.403  36.569  11.581
56517W        W28777   1.441  38.490   2.856
56518W        W28778  28.502  22.136   0.246
56519W        W28779   4.273   3.329   2.694
56520W        W28780  25.570   2.863  14.032
56521W        W28781  27.684  29.053   3.342
56522W        W28782   3.728  10.720  12.394
56523W        W28783  23.220  20.762   0.931
56524W        W28784  13.683  15.783  14.956
56525W        W28785  37.349  13.762   2.342
56526W        W28786   7.708  21.137   1.225
56527W        W28787   2.274  44.404   0.857
56528W        W28788  42.019  14.779   4.806
56529W        W28789   2.421  31.144  12.481
56530W        W28790  15.222   0.295   1.801
56531W        W28791  34.380  44.388   3.284
56532W        W28792  30.459  34.606   1.221
56533W        W28793  25.013  33.933  13.014
56534W        W28794  26.481  42.917  10.025
56535W        W28795  41.812   3.458   0.915
56536W        W28796  15.235  35.070   3.633
56537W        W28797   8.875  23.589  14.973
56538W        W28798  33.561  32.121   4.343
56539W        W28799  38.544  34.602   4.186
56540W        W28800  11.128  11.826   3.635
56541W        W28801  35.364  17.728  11.115
56542W        W28802  27.034   0.424   4.286
56543W        W28803  27.538  14.626  10.936
56544W        W28804   9.870   6.690  11.910
56545W        W28805  29.085  29.972  11.016
56546W        W28806  33.472  14.803  11.060
56547W        W28807  42.990  28.003   3.383
56548W        W28808  40.333   4.872   1.764
56549W        W28809   6.907   2.269  12.941
56550W        W28810   0.942   6.306  11.975
56551W        W28811  32.464  26.010   1.720
56552W        W28812  33.960  16.137  13.318
56553W        W28813  15.222  41.043   3.714
56554W        W28814  41.802  28.957   4.747
56555W        W28815  12.834  39.874  13.057
56556W        W28816  37.883  43.469   0.389
56557W        W28817  39.442  33.943  11.983
56558W        W28818   7.787  23.632   1.283
56559W        W28819   1.914   0.855  13.447
56560W        W28820  32.942  20.203   1.286
56561W        W28821  32.410  21.062  14.011
56562W        W28822  21.263  36.527   1.342
56563W        W28823  43.285  21.586   4.797
56564W        W28824  33.572   6.759   1.886
56565W        W28825  11.193  40.425   4.607
56566W        W28826  34.989   1.334   2.673
56567W        W28827  36.067  27.504  13.934
56568W        W28828  17.779  41.796   1.768
56569W        W28829  22.011   7.846   1.332
56570W        W28830  15.322  31.908  10.619
56571W        W28831  18.607   9.845   0.409
56572W        W28832  32.928   7.710  11.475
56573W        W28833  44.502   9.377  11.949
56574W        W28834  11.140  44.972  11.071
56575W        W28835  27.992  12.733  11.602
56576W        W28836  40.941   5.839  13.004
56577W        W28837  42.481  35.060   1.257
56578W        W28838  38.541   8.754   5.230
56579W        W28839   4.732  28.954  14.916
56580W        W28840  39.903  37.073  12.052
56581W        W28841  42.351  26.029   3.823
56582W        W28842   5.283  24.643   0.374
56583W        W28843  14.294  13.616   9.978
56584W        W28844  16.615  21.742   2.810
56585W        W28845  11.345  22.714   3.191
56586W        W28846  31.568  20.702   4.698
56587W        W28847  42.963   3.418   4.225
56588W        W28848  39.935   4.706   1.257
56589W        W28849  13.711  22.024   3.358
56590W        W28850  37.905  12.780   1.769
56591W        W28851  25.482  27.958   0.816
56592W        W28852  30.462   4.901  12.052
56593W        W28853   3.804  21.196  12.348
56594W        W28854  38.837   5.732  12.085
56595W        W28855   9.746  37.894   1.450
56596W        W28856  39.516  34.882  10.900
56597W        W28857  38.820   6.254   4.777
56598W        W28858   4.793  26.478   2.416
56599W        W28859  13.333  41.404   2.857
56600W        W28860  26.524  16.791   2.705
56601W        W28861  12.134   9.704   0.338
56602W        W28862  20.635  12.796   4.597
56603W        W28863  15.765  35.557   3.199
56604W        W28864  27.086  30.606  10.912
56605W        W28865  17.722  42.912  12.984
56606W        W28866  24.034  25.975   3.818
56607W        W28867  30.463   0.309  12.383
56608W        W28868  39.523  13.805   0.892
56609W        W28869  41.831  44.945  12.402
56610W        W28870   1.301  17.110   3.375
56611W        W28871   5.210  42.850  10.545
56612W        W28872  13.661  23.607   1.213
56613W        W28873  22.718  12.841   0.303
56614W        W28874   3.334  31.131   2.330
56615W        W28875   9.275  19.205  10.899
56616W        W28876  44.483  29.652   1.446
56617W        W28877  43.455   7.414   3.292
56618W        W28878   6.788  21.566  13.529
56619W        W28879  39.992  32.981   4.331
56620W        W28880  27.015  16.087   1.791
56621W        W28881  42.305   5.829   0.951
56622W        W28882   4.898  44.399  13.493
56623W        W28883  30.584  34.614  11.103
56624W        W28884  12.253  29.962  13.825
56625W        W28885   7.305   0.852  10.605
56626W        W28886   6.332  40.474  10.412
56627W        W28887  10.765   7.902   0.474
56628W        W28888  32.572  43.955   4.340
56629W        W28889  17.776  13.199  13.468
56630W        W28890  39.884  23.026   2.264
56631W        W28891  42.018  12.296  14.786
56632W        W28892   7.891  14.804   2.356
56633W        W28893  13.332  14.163  14.327
56634W        W28894  26.586  40.818  11.976
56635W        W28895  11.691  37.883   2.180
56636W        W28896   0.307  18.280  11.022
56637W        W28897  16.229  27.543   3.791
56638W        W28898  23.636  10.338   0.868
56639W        W28899  11.732   9.863  12.451
56640W        W28900   1.963  41.800  14.406
56641W        W28901  42.323  34.405  12.509
56642W        W28902  14.095   7.890   2.250
56643W        W28903  44.872  30.151  13.900
56644W        W28904  12.653  27.459  10.000
56645W        W28905  44.814  39.888   1.728
56646W        W28906   3.222  41.873   1.916
56647W        W28907  10.805  24.615   3.734
56648W        W28908  29.596  33.569   4.785
56649W        W28909  14.636  44.490   1.935
56650W        W28910   1.829  20.676   4.206
56651W        W28911  28.175   8.707   4.311
56652W        W28912   6.810  34.994  14.854
56653W        W28913  19.647  26.465  12.921
56654W        W28914  11.179   8.312   3.681
56655W        W28915  19.122  42.031  12.899
56656W        W28916  23.057   1.842  10.463
56657W        W28917  44.498  13.604  11.445
56658W        W28918  20.236  26.594   0.483
56659W        W28919  23.538   1.466   1.215
56660W        W28920  23.646   0.840   0.752
56661W        W28921   7.809  17.659  12.999
56662W        W28922  21.133  21.630  10.601
56663W        W28923  10.774   7.727  11.085
56664W        W28924  34.524  36.381  14.766
56665W        W28925  11.298  20.682   1.394
56666W        W28926  18.215  31.439   1.388
56667W        W28927  37.900  24.516   2.231
56668W        W28928  22.143   3.805   0.768
56669W        W28929   1.898  15.260   4.267
56670W        W28930  44.935  25.585  11.371
56671W        W28931   3.844  21.065   3.166
56672W        W28932   2.784  25.156  13.450
56673W        W28933   3.246  21.136   1.342
56674W        W28934  22.240  15.120  11.428
56675W        W28935   8.391   1.735   2.337
56676W        W28936   0.938  31.564   2.761
56677W        W28937  29.535  33.118   3.257
56678W        W28938   6.204  39.036   0.404
56679W        W28939   5.760  28.177  13.977
56680W        W28940  38.835  31.955   0.325
56681W        W28941  17.117  26.996  14.424
56682W        W28942   4.800   2.960  10.600
56683W        W28943   5.737  21.533  14.403
56684W        W28944  11.730  28.173  12.531
56685W        W28945  36.898   1.481   1.714
56686W        W28946   5.719   3.818   0.461
56687W        W28947   2.352  29.942  12.969
56688W        W28948  17.231  15.586   1.879
56689W        W28949   6.864  12.322  14.986
56690W        W28950   5.328  28.587  13.010
56691W        W28951  36.567  42.014   1.258
56692W        W28952  39.988   7.182   3.180
56693W        W28953  39.953  36.357  10.635
56694W        W28954   7.411  19.165  12.863
56695W        W28955   8.213  15.741   0.844
56696W        W28956  42.032  12.791   4.312
56697W        W28957  27.060  16.802   1.788
56698W        W28958  41.994   2.230   2.891
56699W        W28959  23.626  39.539   1.821
56700W        W28960  34.369  16.136   2.781
56701W        W28961  26.019  27.493  10.938
56702W        W28962  24.074  41.849  10.631
56703W        W28963  18.095   4.720  14.296
56704W        W28964  12.681  21.074   2.794
56705W        W28965  44.280   5.702   2.775
56706W        W28966   0.264  36.921   0.383
56707W        W28967  24.648  13.323   3.832
56708W        W28968  31.091  30.935  11.478
56709W        W28969  14.624  10.783   2.775
56710W        W28970  33.887  40.326  13.848
56711W        W28971  26.564  16.199  12.871
56712W        W28972  20.651  28.635   1.733
56713W        W28973  10.855   5.330   0.752
56714W        W28974  32.067   7.718   1.706
56715W        W28975   9.324  42.843  10.498
56716W        W28976  38.417  27.178   2.201
56717W        W28977  12.267  42.833  13.040
56718W        W28978  10.840  35.942   4.170
56719W        W28979   5.855  27.123  11.434
56720W        W28980  39.348  16.299   3.211
56721W        W28981  39.474  24.509   2.336
56722W        W28982  37.337  32.404  14.474
56723W        W28983  15.772  43.342   3.327
56724W        W28984  17.700  12.625  14.445
56725W        W28985  25.572   2.875   4.696
56726W        W28986  24.977  37.353  10.996
56727W        W28987  24.011  33.436  12.047
56728W        W28988  23.110   8.670   0.249
56729W        W28989  38.324  13.641  14.777
56730W        W28990  40.033  13.772  13.324
56731W        W28991  18.058  37.367   3.266
56732W        W28992  17.569   2.947   4.693
56733W        W28993  14.158  25.591  10.584
56734W        W28994  10.238  34.427   1.294
56735W        W28995   9.826   0.891  14.886
56736W        W28996  11.757  32.514   4.295
56737W        W28997  19.630  12.235  10.408
56738W        W28998  23.088  10.198  12.391
56739W        W28999  38.356   6.863   3.166
56740W        W29000  28.445  23.182  11.422
56741W        W29001  30.111  29.608  13.011
56742W        W29002  26.157   1.378  10.947
56743W        W29003  31.982  39.466   0.736
56744W        W29004   9.279  43.447   0.351
56745W        W29005  21.036  12.660   2.699
56746W        W29006   5.277   9.244  10.577
56747W        W29007   7.819  29.053   0.294
56748W        W29008  38.358   3.409   4.314
56749W        W29009  39.453  42.516  14.433
56750W        W29010  28.156   2.344  14.767
56751W        W29011  16.781  36.476   0.242
56752W        W29012  29.133  15.593  11.861
56753W        W29013  39.040  19.233   5.214
56754W        W29014   4.449   4.703  12.382
56755W        W29015  17.782  21.522  11.065
56756W        W29016  26.522  18.182  11.518
56757W        W29017  36.918  11.168   0.352
56758W        W29018  41.522  29.583   2.318
56759W        W29019  10.680  22.026   4.606
56760W        W29020   4.788  41.441   0.430
56761W        W29021  44.804  33.089  11.613
56762W        W29022  22.513   3.751   1.222
56763W        W29023  27.480  20.635   4.711
56764W        W29024   3.383  27.023   1.840
56765W        W29025  19.712  43.284   1.759
56766W        W29026  17.626  44.857  13.910
56767W        W29027   2.947  30.152   1.245
56768W        W29028  32.579  19.711   5.087
56769W        W29029  39.979   2.264   1.842
56770W        W29030   9.847   4.444  11.048
56771W        W29031  29.098  16.246  11.442
56772W        W29032  18.576  25.493  13.897
56773W        W29033  17.117  15.083   1.811
56774W        W29034  43.871  44.496  14.806
56775W        W29035  38.526   1.367  11.047
56776W        W29036  26.597   1.816  10.558
56777W        W29037   3.264  30.488  12.349
56778W        W29038  43.884   1.389   0.254
56779W        W29039  38.432   6.753  13.405
56780W        W29040  41.802  13.125  10.982
56781W        W29041  21.164  15.814   4.176
56782W        W29042  12.325  21.733   1.381
56783W        W29043  10.273  37.841  12.086
56784W        W29044  39.508  15.130   2.832
56785W        W29045  42.292  42.517  11.057
56786W        W29046   9.313  26.625   3.629
56787W        W29047   2.467  23.545  12.055
56788W        W29048  25.638  11.321  14.821
56789W        W29049  37.831  35.528   2.199
56790W        W29050  28.601  14.105  14.009
56791W        W29051  31.443  25.558  11.982
56792W        W29052  29.583   8.799   5.298
56793W        W29053  15.697  31.493   0.873
56794W        W29054  21.534   1.800   4.828
56795W        W29055  21.217  37.358   2.293
56796W        W29056  24.036  22.726   2.231
56797W        W29057  31.963   9.322   1.392
56798W        W29058  10.800  14.329  12.521
56799W        W29059  36.916  38.487  13.804
56800W        W29060  10.649  36.858  14.470
56801W        W29061   6.202  17.663   1.923
56802W        W29062  25.475  44.807  12.377
56803W        W29063   2.858  19.695   0.870
56804W        W29064  39.833  16.245  11.912
56805W        W29065   6.262  31.055   2.410
56806W        W29066  18.211   3.849   4.316
56807W        W29067   5.914   8.174  11.431
56808W        W29068   4.302  37.872  11.029
56809W        W29069  21.597  32.623  11.035
56810W        W29070  40.490  32.139  13.433
56811W        W29071   5.888   7.750  13.510
56812W        W29072  32.130  28.656  12.083
56813W        W29073  10.377   9.260   2.890
56814W        W29074  21.066  12.748   0.247
56815W        W29075  43.353  26.009  10.522
56816W        W29076  29.627  26.190   3.743
56817W        W29077  27.555   2.928   3.317
56818W        W29078  40.970   1.409   4.791
56819W        W29079   8.840   5.817  10.477
56820W        W29080  14.766  33.953   4.598
56821W        W29081  36.508  35.601   4.643
56822W        W29082  11.770  12.281   0.818
56823W        W29083  27.948  42.462   1.392
56824W        W29084  32.547  32.025  13.935
56825W        W29085  23.566  40.022   0.425
56826W        W29086  12.119  30.007   5.579
56827W        W29087  42.970  20.099  13.532
56828W        W29088  29.976  15.110   1.236
56829W        W29089  13.800  38.465  10.503
56830W        W29090  42.360  30.602   0.907
56831W        W29091  30.139   8.865  14.335
56832W        W29092  11.295  32.515   2.707
56833W        W29093  22.095   7.840  10.515
56834W        W29094  21.733  34.422   3.226
56835W        W29095  31.472   9.880   1.821
56836W        W29096  28.508  10.225  13.395
56837W        W29097  11.705   0.451   2.300
56838W        W29098  11.130  34.866  12.567
56839W        W29099  30.127  37.843   1.390
56840W        W29100   6.387  29.640  10.892
56841W        W29101  10.691  22.670  13.992
56842W        W29102  28.956  17.199  14.447
56843W        W29103  14.289  31.406   2.354
56844W        W29104  28.126  43.286   0.831
56845W        W29105  36.369  12.218  12.532
56846W        W29106  19.668  38.048   1.890
56847W        W29107  11.644  18.250  13.314
56848W        W29108   6.677  41.445  13.790
56849W        W29109  35.569  34.502   0.414
56850W        W29110  38.494  18.764   4.328
56851W        W29111  22.679  17.581  12.389
56852W        W29112  17.179  27.036   4.736
56853W        W29113   7.682  18.231   2.202
56854W        W29114  18.702  29.049  12.943
56855W        W29115  25.481  30.158  11.518
56856W        W29116  40.888  23.689   3.216
56857W        W29117  20.227   5.204   1.718
56858W        W29118  22.036   5.702  14.444
56859W        W29119  22.538   2.918   2.273
56860W        W29120  22.679  40.423   4.275
56861W        W29121  11.809  14.283  14.327
56862W        W29122  43.496  26.050  14.841
56863W        W29123  40.498  16.239  13.353
56864W        W29124  36.081  33.402  11.582
56865W        W29125  29.452  11.824  10.157
56866W        W29126  39.046   5.432  11.921
56867W        W29127  34.090  25.150   4.632
56868W        W29128  25.083  16.684   4.132
56869W        W29129  17.733   9.660  11.112
56870W        W29130  14.760  31.450  10.527
56871W        W29131  27.946  14.819  14.282
56872W        W29132   5.288  10.250  14.277
56873W        W29133  19.055   2.742  12.918
56874W        W29134  18.208   7.792   1.250
56875W        W29135   5.210   8.692   3.160
56876W        W29136  21.133  38.960   2.808
56877W        W29137  17.646  31.521   0.948
56878W        W29138  18.610   1.340   4.837
56879W        W29139   8.226  16.202   0.376
56880W        W29140  34.940  14.681   3.300
56881W        W29141  16.777  26.023  13.027
56882W        W29142  40.855  33.482  14.900
56883W        W29143  17.688  36.394   4.805
56884W        W29144  39.809  44.471   2.246
56885W        W29145   5.910  31.467  13.388
56886W        W29146  36.860   3.435  14.307
56887W        W29147  36.053   9.250   0.403
56888W        W29148  39.358  13.139   2.677
56889W        W29149  40.502  44.952   0.472
56890W        W29150   8.381  42.836  12.857
56891W        W29151  28.510   8.857   4.644
56892W        W29152  36.533  24.680   4.304
56893W        W29153  42.810  23.998   2.335
56894W        W29154  33.484  27.941  10.152
56895W        W29155  20.241  41.531   0.426
56896W        W29156  14.673  43.292   3.163
56897W        W29157  16.797   6.784  11.977
56898W        W29158  16.245  23.542   2.210
56899W        W29159  36.547   0.831   1.727
56900W        W29160  25.710  36.461   4.665
56901W        W29161   8.803  20.639   4.754
56902W        W29162   6.894  29.627   3.316
56903W        W29163  36.348  42.028   4.352
56904W        W29164  31.590  40.371  12.007
56905W        W29165  34.918  33.963   2.387
56906W        W29166  21.198  42.300   3.301
56907W        W29167  27.006  21.602  12.869
56908W        W29168  13.152  36.556  14.848
56909W        W29169  27.662  35.976   2.234
56910W        W29170  23.168  20.605  10.110
56911W        W29171  34.377   3.385   2.735
56912W        W29172  36.949  38.398  11.857
56913W        W29173   1.922   1.276  14.470
56914W        W29174  37.500  10.327  14.872
56915W        W29175  21.706  15.099   2.869
56916W        W29176  35.898  34.044  12.498
56917W        W29177  19.741  34.915  10.464
56918W        W29178   0.482  43.816   0.959
56919W        W29179  18.643   3.822   3.634
56920W        W29180  15.672  24.112  13.911
56921W        W29181  23.686  41.373   2.411
56922W        W29182   0.308  41.484   3.809
56923W        W29183  14.095  27.659   4.239
56924W        W29184  30.587  11.830   4.835
56925W        W29185  24.721  31.579   2.890
56926W        W29186  27.680  16.621   0.786
56927W        W29187   5.756  37.560  12.909
56928W        W29188   1.317  43.333   2.842
56929W        W29189  11.135  30.526  13.344
56930W        W29190  11.187  31.954  13.008
56931W        W29191  40.840  15.188  12.000
56932W        W29192   0.988   0.975   1.264
56933W        W29193  13.616  37.063   4.309
56934W        W29194  20.600  20.665   2.335
56935W        W29195  41.526  29.669   4.203
56936W        W29196  13.140  10.254   1.786
56937W        W29197  32.464  20.074  13.532
56938W        W29198  17.578  20.671  14.479
56939W        W29199  12.811  42.302  10.560
56940W        W29200  11.668  34.935   0.416
56941W        W29201  21.107   9.264  10.486
56942W        W29202  19.754  36.074  14.821
56943W        W29203  36.360  10.858  11.963
56944W        W29204  28.471  26.103   2.723
56945W        W29205  24.653  28.054   1.923
56946W        W29206  37.382  38.941   1.750
56947W        W29207   6.245  18.570   0.846
56948W        W29208  38.570  26.637   5.174
56949W        W29209  41.512   8.270  11.115
56950W        W29210  25.652  36.357  11.884
56951W        W29211  25.180  42.939   4.176
56952W        W29212   1.474  32.574   4.331
56953W        W29213  17.238  38.516   4.814
56954W        W29214  29.161   4.819  14.812
56955W        W29215  27.530  21.234   3.649
56956W        W29216   4.705  18.091   1.915
56957W        W29217   4.724   4.333   0.315
56958W        W29218  27.174  28.536   2.218
56959W        W29219  44.001   3.373  12.031
56960W        W29220  15.747  27.510   1.887
56961W        W29221  34.931   8.355  13.880
56962W        W29222  33.512  38.554   2.743
56963W        W29223   2.750  25.034  14.826
56964W        W29224  37.570  38.346   2.385
56965W        W29225  37.524  33.975  11.506
56966W        W29226   7.261  19.757   3.839
56967W        W29227  16.644  10.644   3.278
56968W        W29228  32.123  36.022  11.023
56969W        W29229   6.774  34.966   2.774
56970W        W29230   8.741  25.562  10.962
56971W        W29231   1.865   4.934   1.372
56972W        W29232  27.137  37.503   0.760
56973W        W29233  25.651  18.153  14.943
56974W        W29234  35.562  36.941  14.402
56975W        W29235   3.884  10.792   3.801
56976W        W29236  25.627  42.439   0.386
56977W        W29237  18.172  34.874  13.940
56978W        W29238   8.760  22.574  11.991
56979W        W29239  19.605  39.827   3.159
56980W        W29240  23.050  36.895  13.840
56981W        W29241  34.021  35.595   0.379
56982W        W29242  22.239   8.828   5.137
56983W        W29243  29.939  40.918  13.021
56984W        W29244  31.063  40.429   2.195
56985W        W29245  43.920  29.062   3.372
56986W        W29246  15.644   1.776   5.156
56987W        W29247   1.788  19.728  13.523
56988W        W29248  33.584  28.578   4.713
56989W        W29249  42.400  16.097  13.367
56990W        W29250   3.871   2.339   3.681
56991W        W29251  21.729  35.537   3.257
56992W        W29252   5.293   3.730  12.491
56993W        W29253   9.200  40.857  13.910
56994W        W29254  12.133  15.209  12.411
56995W        W29255  42.934  26.667   1.844
56996W        W29256   2.388  25.053   5.291
56997W        W29257  19.194  28.961   3.767
56998W        W29258  12.187  43.285  11.460
56999W        W29259  15.084  17.275   2.729
57000W        W29260  29.452   0.329   4.624
57001W        W29261  40.803  15.317   3.852
57002W        W29262  12.160  10.842   4.693
57003W        W29263  14.817  43.508  12.825
57004W        W29264   2.760  15.589  10.595
57005W        W29265  17.773  35.417   2.871
57006W        W29266   1.237  40.418   4.253
57007W        W29267  37.512  18.107   1.869
57008W        W29268  29.116  30.045  11.933
57009W        W29269   0.775   8.181  11.552
57010W        W29270  33.440   3.887  12.548
57011W        W29271  30.145  43.812   1.750
57012W        W29272  39.352  13.194   0.259
57013W        W29273  36.849  43.795  12.568
57014W        W29274  35.924  23.633  12.502
57015W        W29275  28.563   3.405   1.450
57016W        W29276  41.424   2.325   4.178
57017W        W29277  36.064   6.688  13.965
57018W        W29278   5.272  12.331  11.083
57019W        W29279  33.906  27.649   2.310
57020W        W29280   1.265  32.905  13.871
57021W        W29281  15.251  36.522   4.796
57022W        W29282  25.965  15.773  14.321
57023W        W29283  10.640  30.462  10.414
57024W        W29284   8.900  29.949  11.072
57025W        W29285  18.775   9.714  11.019
57026W        W29286  31.434  16.234  13.461
57027W        W29287  31.435  43.412  11.937
57028W        W29288   8.176  22.605  12.021
57029W        W29289  24.674   4.728   0.406
57030W        W29290  13.718  33.949  14.006
57031W        W29291  26.618  22.649  12.942
57032W        W29292  10.663  33.909   2.687
57033W        W29293  30.623  13.200   1.267
57034W        W29294  31.143  17.092   1.791
57035W        W29295  15.760  28.145  10.975
57036W        W29296  28.578  31.036   4.668
57037W        W29297  10.286  43.775  11.938
57038W        W29298  33.073  38.422  13.494
57039W        W29299  30.478   6.701  13.932
57040W        W29300  15.285   1.467   4.759
57041W        W29301  22.711  19.257   0.933
57042W        W29302  41.035  14.792  13.886
57043W        W29303  28.158  36.525   2.196
57044W        W29304  44.370  14.712  10.474
57045W        W29305  37.068   3.261  13.061
57046W        W29306  27.973  24.175  10.532
57047W        W29307  32.890  13.684  12.465
57048W        W29308  20.668  10.153  11.591
57049W        W29309   5.836  24.006   2.867
57050W        W29310   0.809  38.058  13.999
57051W        W29311  16.744   6.353   5.718
57052W        W29312   6.252  23.170  10.468
57053W        W29313   7.685  25.994   5.750
57054W        W29314  39.391  28.493  14.427
57055W        W29315  44.478  23.547  13.448
57056W        W29316   4.909  17.590  13.369
57057W        W29317   1.402  41.312  11.371
57058W        W29318  18.098  23.516   3.371
57059W        W29319  37.882  27.145  14.808
57060W        W29320  31.431  19.718   1.707
57061W        W29321  10.362  10.239   4.783
57062W        W29322  23.730  28.131  10.621
57063W        W29323   5.230   9.281  12.540
57064W        W29324   6.786  33.574  12.073
57065W        W29325  43.001  28.179  12.985
57066W        W29326  31.906  23.689   4.762
57067W        W29327  11.180   6.290  13.450
57068W        W29328  20.625  16.086   4.276
57069W        W29329   8.805  22.679   1.927
57070W        W29330  13.250  41.393   3.314
57071W        W29331   9.173  37.555  12.443
57072W        W29332   4.809  30.080   2.826
57073W        W29333  22.192  41.390   4.838
57074W        W29334  38.568  44.989  11.041
57075W        W29335  17.302  17.250  10.644
57076W        W29336  43.960  11.275  12.564
57077W        W29337  36.492   9.208   2.704
57078W        W29338  24.203  25.646  11.881
57079W        W29339   7.202  35.489   1.298
57080W        W29340  39.957  13.344  14.429
57081W        W29341  30.507  14.335   2.830
57082W        W29342  15.755  21.131  13.919
57083W        W29343   6.236  32.140   5.311
57084W        W29344  41.031  44.965  10.636
57085W        W29345  10.342  23.019  12.519
57086W        W29346  34.581   1.967   2.294
57087W        W29347  27.093  10.682  12.860
57088W        W29348   8.808  38.486   0.358
57089W        W29349  20.588  28.088   4.152
57090W        W29350  16.789  13.310  10.499
57091W        W29351   3.862   8.725   5.308
57092W        W29352   1.272  30.951  14.966
57093W        W29353  30.575   1.744   2.363
57094W        W29354   3.232  23.709  11.494
57095W        W29355  29.577  20.059  13.405
57096W        W29356  39.004  31.919   1.932
57097W        W29357   0.389   7.230  11.528
57098W        W29358  36.093   6.917  12.877
57099W        W29359  43.279   9.740   4.245
57100W        W29360   0.834   2.801   4.779
57101W        W29361   5.294  20.254  11.078
57102W        W29362  29.517   6.833  12.451
57103W        W29363  33.492   1.923   0.316
57104W        W29364  41.401  30.100  13.901
57105W        W29365  37.499  23.517  11.977
57106W        W29366  25.694  36.985  14.303
57107W        W29367   2.266  10.747  14.803
57108W        W29368  32.067  37.884   3.739
57109W        W29369  39.978  20.068   2.763
57110W        W29370   5.781   9.714  11.502
57111W        W29371   3.874  34.099   1.220
57112W        W29372  14.316  32.584  12.559
57113W        W29373  35.387  38.369   2.239
57114W        W29374  15.115   6.395  13.061
57115W        W29375  30.982  32.994  11.514
57116W        W29376  40.888   7.871  11.873
57117W        W29377  25.036  26.577  13.413
57118W        W29378  30.097  34.031   0.413
57119W        W29379  32.587  25.156   1.400
57120W        W29380  26.636  44.471   3.210
57121W        W29381  26.951   5.774   1.381
57122W        W29382   0.494  24.020   2.699
57123W        W29383   9.162   0.747  10.404
57124W        W29384  27.026   2.871  12.391
57125W        W29385  33.030  13.240   1.876
57126W        W29386  22.687   2.279   4.766
57127W        W29387  28.609  15.274  11.917
57128W        W29388  39.368   0.774   2.796
57129W        W29389  23.179  19.663   3.384
57130W        W29390  21.020  26.956  10.406
57131W        W29391  31.640  30.432   9.933
57132W        W29392  18.652  35.026   4.287
57133W        W29393  18.581  39.865  13.851
57134W        W29394  41.005  41.908  13.792
57135W        W29395   5.400  21.594  12.975
57136W        W29396  19.104   9.649  12.357
57137W        W29397  19.204   0.288  10.596
57138W        W29398   6.773  15.322  14.505
57139W        W29399   3.785  23.545  11.440
57140W        W29400  43.508  20.555  14.400
57141W        W29401  42.956  25.565  12.557
57142W        W29402  36.414  12.824  10.005
57143W        W29403   8.277   4.730  13.975
57144W        W29404   7.180  26.064  10.912
57145W        W29405   9.370  39.498  12.564
57146W        W29406  39.025   0.358  11.394
57147W        W29407  37.972  25.055   9.926
57148W        W29408  22.025  32.579   1.888
57149W        W29409  13.180   8.332   1.740
57150W        W29410  33.541  40.902  10.518
57151W        W29411   9.864  43.311   0.454
57152W        W29412  19.650  36.852  13.324
57153W        W29413  43.356  17.643   2.724
57154W        W29414   0.963  38.432  12.385
57155W        W29415  16.296   0.978  14.956
57156W        W29416  27.151  43.273   0.382
57157W        W29417   9.206  43.837  11.991
57158W        W29418  13.277  27.494  14.855
57159W        W29419  20.167  15.208   2.688
57160W        W29420   9.252  27.531  14.285
57161W        W29421  29.139  39.502   4.796
57162W        W29422  36.011  42.946   0.470
57163W        W29423   9.878  31.958  12.367
57164W        W29424  24.049  41.447  12.987
57165W        W29425  29.570  40.405  11.472
57166W        W29426  35.503  42.818  12.986
57167W        W29427  32.492  12.640  10.990
57168W        W29428   1.960  21.090   3.328
57169W        W29429  14.169  29.148  12.898
57170W        W29430  24.578  17.147  12.895
57171W        W29431  39.476   5.725  11.862
57172W        W29432  22.118  28.486   2.705
57173W        W29433  24.537  42.867  11.376
57174W        W29434  10.154  42.516  10.628
57175W        W29435  16.270  38.913   1.292
57176W        W29436  38.065  32.920   3.380
57177W        W29437   5.358   7.251  14.494
57178W        W29438  16.264   0.867  13.944
57179W        W29439  23.221  10.364   2.730
57180W        W29440  29.568  35.568  11.028
57181W        W29441   0.843   4.721  10.119
57182W        W29442   8.661  44.908   0.912
57183W        W29443  38.067  36.936  10.469
57184W        W29444  24.489  33.017   2.186
57185W        W29445  18.087   9.843  14.933
57186W        W29446  16.111  35.973  11.047
57187W        W29447  24.544  36.548  10.642
57188W        W29448  31.489   2.449   2.383
57189W        W29449  20.575  12.353  13.401
57190W        W29450  16.650  26.051  11.564
57191W        W29451  22.713  19.585  11.893
57192W        W29452   2.242  38.853   3.685
57193W        W29453  14.203  18.664  10.446
57194W        W29454  18.221  10.322   0.394
57195W        W29455  27.578  17.066   2.275
57196W        W29456  28.967  15.305   3.265
57197W        W29457  22.020  14.158  14.785
57198W        W29458  27.973  33.997   0.801
57199W        W29459   6.259  42.884   1.873
57200W        W29460  18.256  29.531   2.801
57201W        W29461   6.396  24.646  11.106
57202W        W29462  23.504  30.652   1.401
57203W        W29463   4.270  14.120   2.729
57204W        W29464  36.538  34.107   2.342
57205W        W29465   2.361  31.537  12.041
57206W        W29466  33.408  24.219  12.861
57207W        W29467  13.203  34.598  12.430
57208W        W29468   3.440   4.362   4.265
57209W        W29469  23.616  19.225   1.703
57210W        W29470  16.157   5.321   0.294
57211W        W29471   4.394  15.224  13.484
57212W        W29472   7.376  32.041  12.014
57213W        W29473   2.876  10.298  11.079
57214W        W29474   3.808  25.696   2.773
57215W        W29475  44.867  34.965   2.714
57216W        W29476  19.607  18.215   0.461
57217W        W29477  42.799   7.792  14.893
57218W        W29478  11.248  44.282   4.239
57219W        W29479  17.065  30.628   1.269
57220W        W29480   5.752  41.009   2.223
57221W        W29481  19.105  28.486  13.993
57222W        W29482  37.996  12.643  10.526
57223W        W29483  14.700  10.160   4.259
57224W        W29484  37.345  13.612  12.870
57225W        W29485  41.859  11.212  12.412
57226W        W29486   5.803   2.940   3.649
57227W        W29487   3.900   8.866   3.312
57228W        W29488  32.439  17.674  11.403
57229W        W29489   1.921  41.359   4.613
57230W        W29490  21.536   6.358   0.447
57231W        W29491  26.105  25.001   0.402
57232W        W29492   0.296  43.475  10.979
57233W        W29493  42.397  27.601  11.445
57234W        W29494  30.101  17.289  11.985
57235W        W29495  43.425  27.191  14.025
57236W        W29496  40.874  21.029   2.681
57237W        W29497  27.648  26.634   0.751
57238W        W29498  29.047  18.283   2.783
57239W        W29499  24.659   0.358  13.908
57240W        W29500   3.232   2.243  10.551
57241W        W29501   7.673  22.518   4.752
57242W        W29502  33.118  18.189   0.362
57243W        W29503   3.923  21.092  11.390
57244W        W29504  10.152  30.456   1.370
57245W        W29505  24.124  23.074  10.533
57246W        W29506  33.415  14.671   2.322
57247W        W29507   7.899  39.907   2.231
57248W        W29508  36.366   4.274  13.998
57249W        W29509  36.502  37.362  11.465
57250W        W29510  30.581  39.878   2.816
57251W        W29511  23.515  13.710   0.275
57252W        W29512   5.694  22.099   4.334
57253W        W29513  22.012  31.051  13.501
57254W        W29514  31.018  30.445  14.964
57255W        W29515   2.892   1.781   0.344
57256W        W29516   3.393  25.541   0.415
57257W        W29517  33.965   1.260  14.420
57258W        W29518  42.440   3.439  10.404
57259W        W29519   0.278   5.347   4.318
57260W        W29520  37.430   0.802  13.360
57261W        W29521   2.305  40.376  12.345
57262W        W29522  39.362   5.266  10.625
57263W        W29523   7.889  23.122  13.418
57264W        W29524  36.573  26.207   0.882
57265W        W29525  16.776   0.789   2.377
57266W        W29526  37.850  39.894   0.800
57267W        W29527  42.981   0.250   4.210
57268W        W29528  39.422  39.931   4.747
57269W        W29529   3.288  11.692  14.503
57270W        W29530  21.184  41.926  14.397
57271W        W29531  20.120  31.029   1.788
57272W        W29532  19.052  21.114   1.733
57273W        W29533   9.197  10.748  11.013
57274W        W29534  11.164   8.821  11.608
57275W        W29535   9.255  27.479   3.163
57276W        W29536  25.521   6.334   2.694
57277W        W29537  24.027   1.777  14.762
57278W        W29538  39.974  34.991   0.792
57279W        W29539   5.389   9.343   0.460
57280W        W29540   1.756  37.992  11.567
57281W        W29541   8.779  10.339   4.123
57282W        W29542  39.850  18.084  14.960
57283W        W29543  21.176  21.080   4.204
57284W        W29544   9.882  36.479  11.922
57285W        W29545  36.033  23.511   2.860
57286W        W29546   3.434  32.528   1.214
57287W        W29547  23.614  18.770  10.631
57288W        W29548  17.593  10.330  14.015
57289W        W29549  22.745  32.454  14.779
57290W        W29550  10.878   0.267  12.423
57291W        W29551  23.637  27.102   5.260
57292W        W29552  33.109  30.980   4.215
57293W        W29553  13.261  12.142   0.880
57294W        W29554   3.263  29.628   4.613
57295W        W29555  23.187  20.084  12.361
57296W        W29556   8.169  12.700   0.813
57297W        W29557   5.776  44.828  10.538
57298W        W29558   6.333  40.886   0.753
57299W        W29559  29.664   9.203   2.263
57300W        W29560  31.544  24.121  12.349
57301W        W29561  21.710  15.577   4.623
57302W        W29562  34.603   8.762   2.864
57303W        W29563  34.397   7.849  14.921
57304W        W29564  13.156  15.765  13.874
57305W        W29565  21.721   6.205  12.573
57306W        W29566  35.452  15.701  14.013
57307W        W29567   2.242  36.446  12.504
57308W        W29568  36.895  17.798   0.849
57309W        W29569  25.488  12.792  13.846
57310W        W29570  13.133   0.929  13.979
57311W        W29571   5.858   4.790  11.087
57312W        W29572  22.248  23.164   4.122
57313W        W29573  37.076  42.789  14.934
57314W        W29574   8.245  35.599   2.310
57315W        W29575  34.073  20.739  13.839
57316W        W29576  10.218   0.363  12.413
57317W        W29577  15.306  22.669   3.695
57318W        W29578  20.550  35.897  13.343
57319W        W29579  39.331  40.425  14.897
57320W        W29580  26.974  14.282  10.422
57321W        W29581  40.502  28.973  12.500
57322W        W29582  31.921  43.791  12.073
57323W        W29583  32.473  18.734   4.322
57324W        W29584  36.087  41.452  13.794
57325W        W29585  22.067  22.018   0.425
57326W        W29586   0.824  12.716  14.505
57327W        W29587   3.420  20.084   4.770
57328W        W29588  33.039  31.906  12.498
57329W        W29589  14.591  23.219  11.054
57330W        W29590  29.513  36.467  10.892
57331W        W29591   0.420  12.281  13.377
57332W        W29592  42.366  12.805  12.925
57333W        W29593  13.626   7.841   2.888
57334W        W29594   6.918  19.241  11.098
57335W        W29595  13.676  28.944   1.820
57336W        W29596  31.119  35.475  11.513
57337W        W29597  29.098   8.226  14.829
57338W        W29598  41.528  27.522   4.708
57339W        W29599  15.805   5.808  13.948
57340W        W29600  39.405  39.361   2.690
57341W        W29601  37.039  19.769   0.263
57342W        W29602  40.916  44.445  13.389
57343W        W29603  44.341  14.594  14.799
57344W        W29604  29.923   2.922  14.013
57345W        W29605  28.568  27.524   0.768
57346W        W29606  15.236  40.439  11.118
57347W        W29607   7.355  23.533   4.735
57348W        W29608  37.027  29.470  11.399
57349W        W29609  30.420  44.327  11.973
57350W        W29610  28.680  20.769   3.744
57351W        W29611  41.966  22.520   1.402
57352W        W29612  42.359  35.572  11.374
57353W        W29613  29.613  22.015  13.396
57354W        W29614   5.730  42.329  11.584
57355W        W29615   9.327   7.875   1.335
57356W        W29616   5.378  16.226  13.831
57357W        W29617  19.146  10.301   1.749
57358W        W29618  34.944  32.963   0.459
57359W        W29619   6.892  41.995   1.339
57360W        W29620  11.154  42.979  11.389
57361W        W29621   6.391   5.239  13.328
57362W        W29622  17.228  26.519   1.335
57363W        W29623  26.096   7.745   1.328
57364W        W29624   2.766  22.717   3.167
57365W        W29625   7.250  38.918  14.976
57366W        W29626  23.604  16.262  12.065
57367W        W29627   8.353  40.446  12.007
57368W        W29628  30.654   1.321  11.956
57369W        W29629  28.604  40.002  12.406
57370W        W29630  36.011   1.838   0.406
57371W        W29631   5.776  15.172  12.875
57372W        W29632  18.240   4.441  13.524
57373W        W29633  17.119   4.928  13.926
57374W        W29634   0.858  35.914   2.862
57375W        W29635  16.148  11.680   3.315
57376W        W29636  12.314   0.263  14.281
57377W        W29637  37.520  15.210   1.226
57378W        W29638  30.444  33.399   3.146
57379W        W29639   9.207   8.299  11.993
57380W        W29640  21.022  21.044   1.301
57381W        W29641  36.030   8.397   2.696
57382W        W29642   6.182  44.903   4.271
57383W        W29643  40.867  20.132   3.206
57384W        W29644  22.526  38.424  11.096
57385W        W29645  25.551   2.847   3.304
57386W        W29646  12.155   6.211   0.782
57387W        W29647  12.250  19.584  14.328
57388W        W29648  44.844  41.337  11.520
57389W        W29649   0.898   2.778  14.331
57390W        W29650   9.865  14.105  11.401
57391W        W29651  35.028  27.043   2.672
57392W        W29652  32.901  19.142  10.141
57393W        W29653  17.651  25.041   1.431
57394W        W29654  36.455   9.744  12.456
57395W        W29655   7.854  39.057  11.403
57396W        W29656  28.989  27.469  13.856
57397W        W29657  40.926  35.099  14.423
57398W        W29658  16.603  15.662  11.485
57399W        W29659   9.281  35.476   3.645
57400W        W29660   5.912  23.128  11.461
57401W        W29661   7.728   0.493   4.744
57402W        W29662  39.020  10.175  12.414
57403W        W29663  19.250  38.899  12.466
57404W        W29664   3.359  30.125  12.009
57405W        W29665  38.511   0.964   3.798
57406W        W29666  23.191  20.055   5.174
57407W        W29667  35.026  21.696   5.124
57408W        W29668   8.763  13.662   3.357
57409W        W29669  42.847  27.596  12.342
57410W        W29670  44.419   8.713  12.980
57411W        W29671  11.823  39.478  13.356
57412W        W29672  40.854  14.776  10.943
57413W        W29673  13.798   2.301  10.522
57414W        W29674  28.632   5.347  11.483
57415W        W29675  21.754   3.366   3.360
57416W        W29676   0.763  29.991   0.924
57417W        W29677  33.536   8.838   1.289
57418W        W29678   7.891  27.018   2.786
57419W        W29679  44.282   1.901  11.033
57420W        W29680   1.830   4.775   3.356
57421W        W29681  10.718  20.641   3.691
57422W        W29682  20.246  17.198  13.475
57423W        W29683  20.585   8.679  11.015
57424W        W29684  19.545  23.665   3.326
57425W        W29685  16.078  31.026  12.870
57426W        W29686   6.283  16.237  13.048
57427W        W29687  15.232  25.655   3.844
57428W        W29688  18.253  27.015   2.210
57429W        W29689  39.041  12.181   2.269
57430W        W29690  11.630  30.042   4.160
57431W        W29691   3.414  24.057   0.363
57432W        W29692  40.825  17.686   4.160
57433W        W29693  25.671  15.270  14.492
57434W        W29694  32.142  13.220   3.383
57435W        W29695  44.483  16.661   4.633
57436W        W29696  35.358  30.529   2.813
57437W        W29697  20.068  24.109   2.835
57438W        W29698  16.292  11.169   3.749
57439W        W29699  40.345   7.720  13.473
57440W        W29700  28.580  31.645  14.292
57441W        W29701   7.353  27.586   4.763
57442W        W29702   1.318  22.217  11.118
57443W        W29703  42.281  39.404   2.708
57444W        W29704  34.440   9.843   4.349
57445W        W29705  41.438  11.801   4.212
57446W        W29706  34.024  18.551  10.068
57447W        W29707   2.935   5.722   1.306
57448W        W29708   9.251  20.585  12.475
57449W        W29709   5.239  25.015   2.304
57450W        W29710   4.813  42.938   3.837
57451W        W29711   6.699  36.388   0.966
57452W        W29712  27.055  10.174   4.261
57453W        W29713  17.201  34.507   1.340
57454W        W29714  35.901  27.189  13.845
57455W        W29715  11.236   6.737  10.515
57456W        W29716  13.747  32.429   2.395
57457W        W29717  11.321   5.419  13.925
57458W        W29718  24.545  38.006   0.824
57459W        W29719  26.504   8.871   0.440
57460W        W29720   5.428  28.674   5.692
57461W        W29721  40.904  38.049  14.791
57462W        W29722  21.085   3.415   3.687
57463W        W29723  33.592   3.370  14.330
57464W        W29724  23.001  44.462  12.454
57465W        W29725  30.599  17.124   3.244
57466W        W29726  29.457  36.879  14.890
57467W        W29727   0.924  23.718   0.338
57468W        W29728  11.278   7.338   3.237
57469W        W29729   9.851  13.843   1.349
57470W        W29730  20.711  21.701  10.575
57471W        W29731   6.909  30.586   1.256
57472W        W29732   4.836  22.573   4.799
57473W        W29733  31.903  30.917  12.528
57474W        W29734  16.715   2.357   3.183
57475W        W29735  11.752  39.966  11.881
57476W        W29736  33.605  43.000  13.314
57477W        W29737  17.687  32.088  14.386
57478W        W29738   4.430  16.697  11.001
57479W        W29739   2.730  15.670   0.910
57480W        W29740   5.406  42.527   3.191
57481W        W29741  42.009  15.260  11.976
57482W        W29742   0.908  37.347  12.954
57483W        W29743   1.390  22.090  14.887
57484W        W29744  18.139  38.497   4.211
57485W        W29745  38.456  16.124  14.973
57486W        W29746  38.540  34.914   3.166
57487W        W29747  17.688  38.347   0.382
57488W        W29748   4.317  29.443  12.049
57489W        W29749  15.083  18.726  11.126
57490W        W29750  36.580  37.555  13.476
57491W        W29751  18.201   8.342  12.565
57492W        W29752   8.686  17.735  13.893
57493W        W29753  36.985  14.666   4.658
57494W        W29754  27.074  39.377  11.895
57495W        W29755  21.119   1.944   2.258
57496W        W29756  39.010   3.779   3.744
57497W        W29757  13.113  33.907   2.853
57498W        W29758  37.395  23.016   0.254
57499W        W29759  37.983  33.539   1.254
57500W        W29760  32.918  14.747   0.913
57501W        W29761  30.509  25.070  12.525
57502W        W29762  10.853   6.865  13.460
57503W        W29763   2.957  32.132   0.935
57504W        W29764  32.986  14.635  13.530
57505W        W29765  23.726  33.405   4.749
57506W        W29766  20.727  39.931  12.048
57507W        W29767  18.618  30.485   3.326
57508W        W29768  25.550  22.242   1.419
57509W        W29769   0.923  42.309   3.160
57510W        W29770  21.699  39.809  10.955
57511W        W29771  15.160  20.210  13.506
57512W        W29772  10.875   4.281  14.029
57513W        W29773  14.266  15.239   5.612
57514W        W29774  11.682  41.299  12.341
57515W        W29775  30.641  31.139   2.723
57516W        W29776  21.592   6.721  13.365
57517W        W29777  25.989  25.632  14.386
57518W        W29778  24.207  17.121   0.458
57519W        W29779  43.445  23.544  10.514
57520W        W29780  29.012  10.379   0.476
57521W        W29781  34.978  35.967  10.021
57522W        W29782  23.240  25.177  12.437
57523W        W29783  31.592   5.396   2.870
57524W        W29784   0.492   9.744  14.849
57525W        W29785  29.493  15.287   4.241
57526W        W29786  39.986   6.804  14.498
57527W        W29787  28.517  27.162   1.292
57528W        W29788  25.636  42.512   1.932
57529W        W29789  36.501   8.239   1.442
57530W        W29790  31.560  22.238  14.909
57531W        W29791   9.664  15.812   0.815
57532W        W29792  38.332  11.809  13.523
57533W        W29793  18.284  33.889  14.448
57534W        W29794   8.763  11.763  12.080
57535W        W29795   7.226   3.894  14.496
57536W        W29796  26.082  31.554  11.112
57537W        W29797  30.435  44.889  11.961
57538W        W29798  20.646  13.713   0.295
57539W        W29799   0.898  24.170   2.667
57540W        W29800  23.173  15.690  12.470
57541W        W29801  21.096  18.787  10.419
57542W        W29802  44.259  26.477  12.835
57543W        W29803  31.007  44.986  12.410
57544W        W29804  31.922  18.186  12.508
57545W        W29805   6.867  12.231   2.682
57546W        W29806  10.647   1.805   2.690
57547W        W29807  40.316   7.672   1.820
57548W        W29808  33.461  43.364   1.713
57549W        W29809  22.726   6.704  12.980
57550W        W29810   2.442  44.844   1.399
57551W        W29811  24.693  35.510   0.937
57552W        W29812  38.337  28.989   3.820
57553W        W29813  41.393  29.937   3.252
57554W        W29814  26.577  44.360  14.960
57555W        W29815  36.347  19.053   1.740
57556W        W29816   3.313  33.408   3.854
57557W        W29817  31.625  10.822   4.683
57558W        W29818  12.786  33.505  13.416
57559W        W29819   0.328   6.856   1.222
57560W        W29820  24.207  23.140   4.680
57561W        W29821   0.461   8.406  13.500
57562W        W29822  14.174  36.515  12.884
57563W        W29823  27.135  34.464  10.955
57564W        W29824   5.803  39.854  12.969
57565W        W29825   4.300  33.076  13.876
57566W        W29826  17.630  32.081   2.407
57567W        W29827  13.129  23.236  13.838
57568W        W29828   1.787  20.592  11.882
57569W        W29829  37.450  24.655  14.490
57570W        W29830  30.003  41.027   1.802
57571W        W29831  40.449  20.575  11.090
57572W        W29832   2.401  21.219  11.567
57573W        W29833  16.617  19.249  10.993
57574W        W29834  10.349  22.696   3.247
57575W        W29835  12.196  28.532  13.028
57576W        W29836  15.186  36.347   0.345
57577W        W29837  16.129  15.678  13.829
57578W        W29838   9.729   1.435  13.333
57579W        W29839  33.508  35.538   3.336
57580W        W29840  39.462  42.884   0.835
57581W        W29841   8.161  16.635   0.363
57582W        W29842  22.532  41.537  12.823
57583W        W29843   3.926  42.309  13.359
57584W        W29844  12.782  27.997   4.342
57585W        W29845   0.333  23.178  14.801
57586W        W29846   0.935  23.220   0.852
57587W        W29847  38.003  21.233  10.042
57588W        W29848   4.232  39.343   1.398
57589W        W29849  20.750  34.875   1.321
57590W        W29850  23.117  24.089  14.515
57591W        W29851  41.493  39.371   0.479
57592W        W29852  32.489  41.326  11.978
57593W        W29853   9.175   0.957  14.410
57594W        W29854   7.674  23.102   4.769
57595W        W29855  28.139   0.340  13.326
57596W        W29856  11.797  37.511  14.770
57597W        W29857   3.794  34.070   4.771
57598W        W29858  21.179  22.654  12.377
57599W        W29859  15.633  27.105   2.750
57600W        W29860  30.987   5.343  11.505
57601W        W29861  20.189  16.276  12.063
57602W        W29862   1.312   7.803   2.238
57603W        W29863  36.526  15.614  11.571
57604W        W29864  28.468  18.669   3.310
57605W        W29865  20.112   7.214   3.794
57606W        W29866   7.384  33.111  13.862
57607W        W29867  30.642  15.646  10.424
57608W        W29868  35.966  26.007   4.330
57609W        W29869  25.709  18.093  10.620
57610W        W29870   2.945  25.966  14.482
57611W        W29871  38.876   5.290  13.820
57612W        W29872   9.709  26.105   4.287
57613W        W29873   1.956  19.064   4.658
57614W        W29874   7.319  30.130  11.415
57615W        W29875  26.649  14.150  10.631
57616W        W29876   2.430  36.359  11.431
57617W        W29877  28.668  42.996   1.779
57618W        W29878  44.297   5.245  14.314
57619W        W29879  37.039  39.416  11.081
57620W        W29880  24.502  18.651   0.805
57621W        W29881  10.676  24.487   0.307
57622W        W29882  11.633  33.521   1.762
57623W        W29883  38.833   4.360   4.317
57624W        W29884  20.089   6.197  11.986
57625W        W29885  25.033  39.041  11.894
57626W        W29886  11.784  24.184  12.927
57627W        W29887  20.119  40.942  12.443
57628W        W29888  38.540   6.803  14.439
57629W        W29889  43.456  12.727   4.671
57630W        W29890   3.861  44.326   4.648
57631W        W29891   5.737  21.693  12.562
57632W        W29892  14.095  17.775  12.367
57633W        W29893  43.878  41.036   3.300
57634W        W29894  35.969  34.410   0.929
57635W        W29895   4.781  36.851   2.353
57636W        W29896  15.586  32.495   3.761
57637W        W29897   8.355  38.962   0.436
57638W        W29898  24.118   6.691   3.818
57639W        W29899  21.716  15.588   2.834
57640W        W29900  31.441  26.195   4.294
57641W        W29901   3.939  23.999  14.984
57642W        W29902   7.754  15.732   4.253
57643W        W29903  22.562   0.845  12.868
57644W        W29904  19.128  11.678  10.405
57645W        W29905  38.486  43.799  12.374
57646W        W29906  17.637  19.664   4.200
57647W        W29907  38.961  29.641   1.795
57648W        W29908  29.560   7.800   3.158
57649W        W29909   1.345  33.063  11.950
57650W        W29910  19.081  14.637  14.815
57651W        W29911  31.437   2.795  12.014
57652W        W29912  36.379  24.023   4.632
57653W        W29913  38.487  30.577  12.545
57654W        W29914  34.049   0.268   3.845
57655W        W29915  33.050  26.092   2.765
57656W        W29916  35.387  41.819  10.445
57657W        W29917   8.392  11.268  14.296
57658W        W29918  44.339  32.913   4.326
57659W        W29919  17.079  22.016  11.072
57660W        W29920  25.154  22.661   4.613
57661W        W29921  40.923  40.390  10.902
57662W        W29922  32.002  26.962   0.433
57663W        W29923  22.121   3.445  10.507
57664W        W29924   6.395  11.809  13.021
57665W        W29925  11.186  26.460   4.774
57666W        W29926  29.137  24.517   3.236
57667W        W29927  30.006  10.796   1.864
57668W        W29928  28.586   2.898   0.764
57669W        W29929  23.992  36.517  10.903
57670W        W29930  36.474   0.748   0.850
57671W        W29931  26.065  35.031  13.422
57672W        W29932   9.373  29.471  11.438
57673W        W29933  26.590  27.971   3.380
57674W        W29934   4.878   0.753   3.152
57675W        W29935  39.323  11.178   0.912
57676W        W29936  25.966   4.428  14.803
57677W        W29937   7.188  31.596   2.346
57678W        W29938  13.175   7.290   0.321
57679W        W29939   2.948  27.956  14.838
57680W        W29940  31.498   9.679  12.546
57681W        W29941   3.235  41.958  14.393
57682W        W29942  30.572  44.330   0.796
57683W        W29943  26.167  41.791   3.775
57684W        W29944   6.820   5.308   0.247
57685W        W29945  38.882  37.575   4.302
57686W        W29946  13.303  11.310   4.210
57687W        W29947  23.596   1.464   4.150
57688W        W29948  13.345  40.504  12.970
57689W        W29949  14.624  31.460   0.244
57690W        W29950  34.531  18.685   2.663
57691W        W29951  44.359  21.183  13.453
57692W        W29952  27.085  19.190   2.281
57693W        W29953  24.981   0.440   2.258
57694W        W29954  28.492  36.384  12.012
57695W        W29955   1.835  18.290  14.990
57696W        W29956  29.448  30.526  14.313
57697W        W29957  40.991  41.830  11.949
57698W        W29958  20.116  37.017  13.522
57699W        W29959   8.748  18.546  14.771
57700W        W29960  35.071   6.884   2.322
57701W        W29961  33.929  16.707  12.947
57702W        W29962  19.635   5.417   2.237
57703W        W29963  13.750  22.173  13.874
57704W        W29964  17.715  28.500   4.795
57705W        W29965  29.947  26.968   4.749
57706W        W29966  30.923  41.524   1.366
57707W        W29967  22.054  11.349   1.337
57708W        W29968  19.561   4.238  12.367
57709W        W29969   2.741  24.499  13.487
57710W        W29970  31.914   6.819  14.962
57711W        W29971  25.637  22.609   2.308
57712W        W29972  18.253  27.119  14.375
57713W        W29973  31.549  22.553   3.333
57714W        W29974   3.378  15.089   3.748
57715W        W29975   5.926   1.947  10.427
57716W        W29976  15.275   1.742  12.891
57717W        W29977  22.698  33.581   5.316
57718W        W29978  24.692  10.713  13.497
57719W        W29979  43.438  43.315   1.710
57720W        W29980  42.312  19.138   3.772
57721W        W29981  36.005  22.527  13.529
57722W        W29982  43.955  27.507  11.862
57723W        W29983  39.533   5.204   2.262
57724W        W29984   9.770  16.746  12.411
57725W        W29985  27.692   8.802   4.802
57726W        W29986  16.606   0.866   3.279
57727W        W29987  20.539   3.799  14.514
57728W        W29988  43.928  14.220   2.733
57729W        W29989  29.465  30.972   1.928
57730W        W29990  16.617   9.758  14.284
57731W        W29991  24.648   9.828   1.266
57732W        W29992  37.500  44.830   4.351
57733W        W29993  44.931  19.657   1.385
57734W        W29994  39.907  29.511  11.564
57735W        W29995  40.323  23.197   0.764
57736W        W29996  37.414  28.522  10.626
57737W        W29997  19.123  35.581   0.333
57738W        W29998   5.840  39.475  12.842
57739W        W29999  10.251  33.473  13.021
57740W        W30000  44.388   3.219   2.237
57741W        W30001  20.754   7.376   3.815
57742W        W30002  28.663  12.774   4.221
57743W        W30003  41.868  32.587   3.314
57744W        W30004  34.447  38.331  12.078
57745W        W30005  36.461  18.586  11.106
57746W        W30006  30.597  10.140  13.334
57747W        W30007  40.502  23.043  14.443
57748W        W30008  35.081   8.364   0.832
57749W        W30009   7.800  15.090  11.594
57750W        W30010   3.930   4.240  14.402
57751W        W30011   2.760  16.600   1.420
57752W        W30012   6.774  14.709   1.785
57753W        W30013  22.062  22.743   3.870
57754W        W30014  34.943  10.789  12.025
57755W        W30015  14.295  22.581   4.622
57756W        W30016   1.400  31.470   0.418
57757W        W30017  31.088  39.941  13.907
57758W        W30018  26.456  37.479   1.801
57759W        W30019   3.235  22.729   4.340
57760W        W30020  25.589  24.698   2.820
57761W        W30021   4.406  23.607   3.810
57762W        W30022  18.188  19.639   2.716
57763W        W30023  33.544  18.124  10.990
57764W        W30024  25.641  12.707  11.479
57765W        W30025  44.410   5.810   0.327
57766W        W30026   5.758  41.368  11.427
57767W        W30027  10.369   1.804   3.822
57768W        W30028  39.868   7.784   1.696
57769W        W30029   7.854   6.808  11.541
57770W        W30030  24.557   9.296  14.874
57771W        W30031   7.911  15.749  13.059
57772W        W30032  18.648  24.560   4.343
57773W        W30033  19.216  18.148  12.498
57774W        W30034  37.417   4.920   3.724
57775W        W30035  43.482  44.797  12.899
57776W        W30036   4.365  42.415   0.851
57777W        W30037  34.118  11.848  11.038
57778W        W30038  43.500  42.403   4.761
57779W        W30039  39.437  24.228  11.026
57780W        W30040  41.854   8.262   0.734
57781W        W30041  38.558  43.893   4.690
57782W        W30042  28.463  38.016  12.451
57783W        W30043   1.862  34.583  10.437
57784W        W30044   5.739  26.064   0.410
57785W        W30045  10.652  19.217  10.557
57786W        W30046  30.917  30.479  11.388
57787W        W30047  31.549  20.142  13.359
57788W        W30048  28.663   3.395  13.930
57789W        W30049   4.339   9.267  14.406
57790W        W30050  43.984   0.845  13.446
57791W        W30051  30.120  13.114   3.789
57792W        W30052  27.156  24.058  12.874
57793W        W30053  40.935  25.578   1.309
57794W        W30054  16.116  17.074   4.695
57795W        W30055  17.234  27.176   1.423
57796W        W30056  31.968  36.508   4.646
57797W        W30057   0.318  14.121  13.535
57798W        W30058   3.374  36.883  12.409
57799W        W30059  22.160   5.331  11.478
57800W        W30060  14.196   1.344  12.470
57801W        W30061  15.096  15.610   3.211
57802W        W30062   0.915  24.697  11.074
57803W        W30063  38.974   8.813  13.931
57804W        W30064  22.718  35.935   1.771
57805W        W30065   2.374  19.136   3.800
57806W        W30066  17.061  13.709  11.429
57807W        W30067  36.961  10.851   1.417
57808W        W30068  44.430  33.544  14.958
57809W        W30069  29.468  35.084  14.358
57810W        W30070  22.681  21.189   2.792
57811W        W30071   8.377  23.194   4.704
57812W        W30072   3.898  11.285   4.761
57813W        W30073  36.478  14.174   1.928
57814W        W30074   7.254  37.883  11.942
57815W        W30075  22.648  21.701  13.986
57816W        W30076  14.741  44.484  10.129
57817W        W30077  17.732  39.477  14.431
57818W        W30078  18.115   0.986  11.929
57819W        W30079  43.397   0.772   4.231
57820W        W30080  29.008   1.273   1.318
57821W        W30081   9.265   5.400   2.752
57822W        W30082   2.849  33.124   2.304
57823W        W30083  41.019   3.842  13.366
57824W        W30084  12.778  17.155   2.681
57825W        W30085  16.110  26.593   2.370
57826W        W30086  29.486  27.639  12.543
57827W        W30087  32.605  26.544   5.244
57828W        W30088  43.875   5.871   3.170
57829W        W30089  12.258  22.583   3.163
57830W        W30090   2.426  21.247   9.955
57831W        W30091  22.226   8.309  14.490
57832W        W30092  31.036  33.010   4.812
57833W        W30093  29.085  23.512   3.190
57834W        W30094   5.295  15.600  12.418
57835W        W30095  29.105  38.532  10.635
57836W        W30096  36.897  31.612   0.475
57837W        W30097   0.821   9.711   2.229
57838W        W30098  22.119  29.476  11.996
57839W        W30099  13.237  42.292  12.880
57840W        W30100  32.434  12.269   3.685
57841W        W30101  22.172   4.849  14.795
57842W        W30102   5.372  36.382   1.350
57843W        W30103  21.192  33.059   2.320
57844W        W30104   3.349  29.953  11.501
57845W        W30105   4.362  29.073  10.957
57846W        W30106  18.637  26.173  10.607
57847W        W30107  44.763   0.780   3.308
57848W        W30108  14.096  12.347   1.414
57849W        W30109  25.555   6.406  12.342
57850W        W30110  11.132  42.356   2.244
57851W        W30111  39.546  23.678  14.826
57852W        W30112  38.398  36.877  12.501
57853W        W30113  44.487  32.125  14.798
57854W        W30114  44.442  12.651  10.033
57855W        W30115  14.701   6.351  12.488
57856W        W30116  35.051  43.940   0.337
57857W        W30117   5.875  26.160  11.575
57858W        W30118  37.027   7.742  14.795
57859W        W30119  14.125  17.298   4.163
57860W        W30120  15.134  20.656   3.252
57861W        W30121  12.123  38.534   4.280
57862W        W30122   4.863  18.697  13.410
57863W        W30123  27.471  43.020  10.614
57864W        W30124  21.101  27.069  14.876
57865W        W30125  15.177  16.262  10.456
57866W        W30126  35.065  41.413   4.317
57867W        W30127   5.901  32.049   2.861
57868W        W30128   3.794  10.256  14.767
57869W        W30129   9.207  37.410  12.868
57870W        W30130  16.755  21.195   0.464
57871W        W30131  41.429  37.840   1.807
57872W        W30132   8.679  37.522  11.526
57873W        W30133   5.829   6.870  12.504
57874W        W30134  18.266  16.124  10.909
57875W        W30135  24.563  42.944   2.249
57876W        W30136  35.439  20.636   3.225
57877W        W30137  35.434  44.926   3.169
57878W        W30138  14.663  27.652   3.759
57879W        W30139  30.033   5.338  13.847
57880W        W30140  15.707  22.053  12.023
57881W        W30141  26.582  30.440   1.760
57882W        W30142   3.454  10.736   4.245
57883W        W30143  37.504  44.331   2.213
57884W        W30144  19.603  23.664   0.374
57885W        W30145   8.284   1.749  13.005
57886W        W30146  44.912  28.963   3.853
57887W        W30147  12.136  36.521  10.581
57888W        W30148  20.149   3.372   0.850
57889W        W30149  21.074  14.656  12.907
57890W        W30150  43.453  36.415   1.308
57891W        W30151  14.687  15.611   2.700
57892W        W30152   6.853  44.888  13.316
57893W        W30153  21.553  13.615   1.898
57894W        W30154  26.047   8.891  14.921
57895W        W30155  27.107   8.731  12.342
57896W        W30156  21.620  34.544  10.471
57897W        W30157  26.956  25.080  13.358
57898W        W30158  35.601  35.432  14.891
57899W        W30159  27.601  38.393  12.542
57900W        W30160  36.930  42.961   1.407
57901W        W30161  35.998  24.075   5.244
57902W        W30162  26.004  12.740   1.303
57903W        W30163  27.108  42.940   2.255
57904W        W30164  18.785   1.322   2.858
57905W        W30165  37.987  11.356  13.357
57906W        W30166   6.215  25.976   4.151
57907W        W30167   0.925  15.620   4.681
57908W        W30168  16.235   9.762   2.668
57909W        W30169   2.833  25.618  14.770
57910W        W30170  13.690  41.806   2.274
57911W        W30171  23.601  33.041   4.204
57912W        W30172  36.542   1.731  11.921
57913W        W30173   3.782  12.651  10.498
57914W        W30174  36.577  28.144  13.348
57915W        W30175   3.846  17.086   1.766
57916W        W30176  12.320  14.213  14.426
57917W        W30177  42.519  37.360  10.055
57918W        W30178  42.848  26.562   2.819
57919W        W30179  11.817  21.526  14.942
57920W        W30180  20.728  41.453  11.524
57921W        W30181  31.009  29.587  12.425
57922W        W30182   0.768  32.042   0.290
57923W        W30183  32.964  23.025  12.843
57924W        W30184  26.040  32.620  10.431
57925W        W30185  42.475  10.695  12.023
57926W        W30186  16.661  12.624   4.350
57927W        W30187  31.513  25.085   3.225
57928W        W30188  31.912  40.416   0.347
57929W        W30189   6.252  38.846  13.980
57930W        W30190  27.501  38.555   0.953
57931W        W30191  40.350  10.719   1.215
57932W        W30192  12.817  21.514  12.437
57933W        W30193  38.381  16.605  11.499
57934W        W30194  23.153  42.822   2.718
57935W        W30195  22.561  42.803   4.272
57936W        W30196  18.145  30.958   4.672
57937W        W30197  23.661  24.531  11.121
57938W        W30198  13.330  19.778   0.344
57939W        W30199  43.883  13.153   1.281
57940W        W30200   7.303  19.072  11.964
57941W        W30201  38.045  19.259   0.445
57942W        W30202  18.662   1.818  13.915
57943W        W30203  44.801  16.210   3.344
57944W        W30204  36.845  40.416   2.301
57945W        W30205  40.494  35.992  10.144
57946W        W30206  31.097  23.663  14.954
57947W        W30207  32.459   6.366  13.323
57948W        W30208   9.187  43.899  13.381
57949W        W30209  19.236  30.501   2.855
57950W        W30210   8.356  41.355  12.572
57951W        W30211  16.107  17.116  13.449
57952W        W30212  17.799  20.618   0.939
57953W        W30213   1.289  37.465   1.273
57954W        W30214   6.362  12.251   2.416
57955W        W30215  43.950  37.973  13.983
57956W        W30216  12.812  30.028   2.711
57957W        W30217  27.665  15.137   3.257
57958W        W30218  31.923  12.631  13.349
57959W        W30219  44.996  16.123   0.965
57960W        W30220   2.861  17.761   3.845
57961W        W30221   3.877  23.623   2.894
57962W        W30222  15.278   2.898  13.949
57963W        W30223  10.194   0.446  13.818
57964W        W30224  22.027   5.748  14.800
57965W        W30225  31.011  39.409  12.399
57966W        W30226   4.396   8.871  11.422
57967W        W30227  39.950  15.762   2.822
57968W        W30228   9.847  23.042  14.493
57969W        W30229   2.947  31.042  14.421
57970W        W30230  28.147  32.617  12.984
57971W        W30231  11.640   8.402  14.441
57972W        W30232  39.045  22.666   1.831
57973W        W30233  40.917  10.855  14.941
57974W        W30234  40.386  39.853   0.802
57975W        W30235  19.117  17.122  13.841
57976W        W30236  37.461  35.528  11.560
57977W        W30237  15.771  26.089   0.465
57978W        W30238  13.735   4.843  10.921
57979W        W30239  41.462  39.398   0.839
57980W        W30240  18.666  25.541   3.800
57981W        W30241   1.441  22.239   2.410
57982W        W30242  14.701  36.899   0.325
57983W        W30243  34.066  41.514  13.047
57984W        W30244  25.536   6.787   1.380
57985W        W30245  38.433  41.919  10.572
57986W        W30246  12.790  36.463  11.128
57987W        W30247  35.578  15.313   0.739
57988W        W30248  31.408  17.099  13.519
57989W        W30249  42.906  17.783   3.786
57990W        W30250  18.076  39.395  13.045
57991W        W30251  28.135  16.685   4.211
57992W        W30252   5.282  39.022  11.504
57993W        W30253  34.538  20.643  14.292
57994W        W30254   2.241  31.101   4.825
57995W        W30255   4.264  37.085  10.932
57996W        W30256   0.948   5.200  13.890
57997W        W30257  36.896  10.724   2.382
57998W        W30258   6.802  12.668  10.938
57999W        W30259   0.745  25.133  12.564
58000W        W30260   0.846   3.922  14.908
58001W        W30261  42.849  24.084  14.437
58002W        W30262  39.029  34.017  11.998
58003W        W30263  12.203  43.829   1.301
58004W        W30264  11.315   4.392   2.833
58005W        W30265  36.358  19.748   1.807
58006W        W30266   7.219   2.730  14.433
58007W        W30267  17.799   4.262  12.072
58008W        W30268  44.407  19.191  10.630
58009W        W30269  30.960  16.231   2.731
58010W        W30270  11.805  43.811  13.935
58011W        W30271  12.352   3.294   2.871
58012W        W30272  14.609  39.481  10.564
58013W        W30273  12.276  39.029  12.015
58014W        W30274  13.189  41.813  10.474
58015W        W30275   8.297  12.669   2.418
58016W        W30276   3.354  29.973   4.764
58017W        W30277  12.323   7.378   1.918
58018W        W30278   9.848  23.215   3.773
58019W        W30279   8.803   6.848  14.509
58020W        W30280  29.085  43.368   2.251
58021W        W30281  17.750  20.158   0.460
58022W        W30282  19.241  31.983   4.800
58023W        W30283   2.378   6.365  12.889
58024W        W30284   3.252  32.128   2.303
58025W        W30285  25.110   8.875  13.874
58026W        W30286  42.436  30.627   3.711
58027W        W30287  21.170  20.184   4.281
58028W        W30288  10.363   6.804   3.710
58029W        W30289  37.573  22.072   0.878
58030W        W30290  26.538  14.784  14.433
58031W        W30291  28.070  23.722   4.233
58032W        W30292  30.049  19.718   2.205
58033W        W30293  31.469  43.966  14.456
58034W        W30294  20.661  12.628   2.891
58035W        W30295  11.193  41.918   2.891
58036W        W30296  24.174  30.555  11.386
58037W        W30297  27.002   0.857   1.339
58038W        W30298  37.041  38.359   1.797
58039W        W30299   0.248   1.262  12.081
58040W        W30300   5.805  15.191  14.873
58041W        W30301  16.780  22.708   0.896
58042W        W30302  17.244  36.495  10.896
58043W        W30303   7.873  19.755   0.304
58044W        W30304  36.532  41.345   0.343
58045W        W30305  37.075  38.468   2.277
58046W        W30306   8.719  42.783  11.889
58047W        W30307  44.287  32.901  14.458
58048W        W30308   4.790  43.272   3.162
58049W        W30309  15.099  13.310  12.374
58050W        W30310  36.366   8.172  14.833
58051W        W30311  35.383   5.878   1.433
58052W        W30312  12.809  16.302  14.369
58053W        W30313  25.533  36.471  13.349
58054W        W30314  41.495  26.150   3.296
58055W        W30315  18.689  33.409  12.461
58056W        W30316  18.773  36.571  10.507
58057W        W30317   4.941  23.613   1.408
58058W        W30318  36.425  27.595  12.833
58059W        W30319   2.867  36.936  12.046
58060W        W30320  24.213  24.088  10.909
58061W        W30321  12.208  10.152   4.788
58062W        W30322   2.343  12.295   4.170
58063W        W30323   5.336  15.184  10.516
58064W        W30324  39.854  28.965   1.828
58065W        W30325  33.979  30.057  11.025
58066W        W30326   1.872   4.214   0.956
58067W        W30327   8.266  14.739   2.368
58068W        W30328  18.120  12.121  14.345
58069W        W30329  23.240   8.740  12.895
58070W        W30330  13.799   3.442   2.236
58071W        W30331  38.336  17.157  13.855
58072W        W30332  31.624  34.865  12.570
58073W        W30333  16.123  27.966  14.958
58074W        W30334  24.988  22.742   1.907
58075W        W30335  41.788  26.517  10.091
58076W        W30336   8.856  27.105  12.385
58077W        W30337  29.062  34.608   2.815
58078W        W30338  39.511  21.531  13.543
58079W        W30339  24.019   7.321   4.628
58080W        W30340  17.620  26.674  10.981
58081W        W30341  44.841  24.216   4.144
58082W        W30342   8.759  44.316  10.448
58083W        W30343  14.628  16.280   2.832
58084W        W30344  27.488   7.178  12.868
58085W        W30345  36.392  20.727   9.666
58086W        W30346  35.575  30.010   4.634
58087W        W30347  32.506  13.265  11.047
58088W        W30348  34.909   1.405  14.362
58089W        W30349   2.441  14.228  14.320
58090W        W30350   8.218  18.788   0.786
58091W        W30351  34.549  27.582   0.356
58092W        W30352  42.849  22.047   3.636
58093W        W30353  36.055  42.501   0.442
58094W        W30354   7.784  10.736  11.582
58095W        W30355  13.131   4.245  14.968
58096W        W30356  43.378  20.178   4.155
58097W        W30357  29.665  26.085  12.827
58098W        W30358  40.340  10.821  13.947
58099W        W30359   1.911  28.974   1.768
58100W        W30360  40.430  17.173  14.834
58101W        W30361   4.293  44.441  10.897
58102W        W30362  27.003  15.788   2.296
58103W        W30363  11.215   8.354   0.832
58104W        W30364  30.592   1.411  13.450
58105W        W30365  33.115  26.691   1.402
58106W        W30366  23.557  17.294   3.359
58107W        W30367  22.507  29.153  14.867
58108W        W30368  23.237  43.382   2.881
58109W        W30369  10.339  30.052   3.243
58110W        W30370  21.547  17.755   0.753
58111W        W30371   6.868  12.254  12.408
58112W        W30372  38.873   8.676   4.230
58113W        W30373  14.718   1.831   3.207
58114W        W30374   9.152   0.310   1.758
58115W        W30375   6.272   5.858  11.918
58116W        W30376  21.658  30.570  12.015
58117W        W30377  25.176   4.730   9.929
58118W        W30378  24.575  43.833  14.765
58119W        W30379  28.970  12.214  13.999
58120W        W30380   3.735  19.545   3.687
58121W        W30381  38.460   6.277  10.925
58122W        W30382  39.393  40.940   1.782
58123W        W30383  10.747   5.396  13.309
58124W        W30384   0.248  38.848   4.260
58125W        W30385   8.750  18.774  12.062
58126W        W30386   9.702   9.362  13.371
58127W        W30387  38.361  25.968  11.551
58128W        W30388   8.268   8.852   3.377
58129W        W30389  41.939  20.533  14.491
58130W        W30390  25.044  21.163  12.351
58131W        W30391  26.480   8.320  12.037
58132W        W30392  20.231  33.452  14.856
58133W        W30393  16.280  37.430   1.895
58134W        W30394  34.932  20.523   4.618
58135W        W30395  25.141   2.374   2.860
58136W        W30396   4.811   8.400  12.428
58137W        W30397  16.615  28.664   2.360
58138W        W30398  12.676   1.886  12.886
58139W        W30399  23.999   9.692   3.765
58140W        W30400  29.970  26.973  14.949
58141W        W30401  26.689  36.519  12.091
58142W        W30402  11.143  13.155   1.822
58143W        W30403   9.340   9.338  14.908
58144W        W30404  42.961   7.770  11.582
58145W        W30405  29.952   2.246   2.199
58146W        W30406  35.585  38.847   1.442
58147W        W30407  41.322  34.579   4.220
58148W        W30408  44.283   5.317   3.262
58149W        W30409  44.898  42.888   1.422
58150W        W30410   4.937  30.601   0.832
58151W        W30411  25.645  23.571   0.940
58152W        W30412  31.097  30.424  12.924
58153W        W30413  13.678  40.033  14.355
58154W        W30414  16.761   6.724   5.793
58155W        W30415  35.416  36.391   0.744
58156W        W30416  43.915  41.855   0.906
58157W        W30417  42.500   1.892   4.718
58158W        W30418  28.094  26.682  14.477
58159W        W30419  25.119  35.097   3.700
58160W        W30420   9.842  20.702   3.225
58161W        W30421  19.738  29.110  11.968
58162W        W30422  39.917   7.227  12.868
58163W        W30423  34.056  42.796   5.188
58164W        W30424  44.422  39.443  14.408
58165W        W30425   1.792  13.674   3.641
58166W        W30426  38.391  22.708   0.275
58167W        W30427   5.803  33.399  14.913
58168W        W30428   6.251  34.584  14.379
58169W        W30429  22.746  23.535  13.921
58170W        W30430  10.874  18.645  14.437
58171W        W30431  36.866  11.665   4.208
58172W        W30432   8.343   3.386   4.827
58173W        W30433   9.188  29.168   4.252
58174W        W30434  36.927   2.940  11.444
58175W        W30435   1.426  39.508   3.760
58176W        W30436  36.447  21.097   2.816
58177W        W30437  15.183   4.359   2.222
58178W        W30438  25.518  20.162  13.311
58179W        W30439  37.028  27.047   2.832
58180W        W30440  24.574  39.396   4.322
58181W        W30441  32.539  26.005   4.657
58182W        W30442  23.117  30.135   4.144
58183W        W30443   4.875  33.448   0.400
58184W        W30444  40.896  40.953   3.340
58185W        W30445  20.534  18.101   4.650
58186W        W30446  35.966  22.244  11.535
58187W        W30447  38.423  35.456  13.315
58188W        W30448  23.140  18.145  10.097
58189W        W30449   0.294  26.574   1.757
58190W        W30450  14.115  14.274  11.031
58191W        W30451   8.395  43.001   4.733
58192W        W30452  11.631  27.651  13.043
58193W        W30453   7.686   7.815   0.906
58194W        W30454  28.459  14.169  12.037
58195W        W30455  21.756   7.288  13.021
58196W        W30456  17.093   8.702   1.412
58197W        W30457  40.464  18.270  13.865
58198W        W30458  10.293  17.639  12.074
58199W        W30459  10.813  40.380   2.860
58200W        W30460  11.262  29.926   5.176
58201W        W30461  14.732  41.366  12.544
58202W        W30462  13.186  27.185  10.999
58203W        W30463  38.395  29.167   1.829
58204W        W30464  28.132  15.132  13.804
58205W        W30465   0.890  33.442  10.636
58206W        W30466  27.550   8.783  14.785
58207W        W30467  22.715  15.595   3.302
58208W        W30468   3.261  39.007   4.739
58209W        W30469  31.929  10.366   4.129
58210W        W30470  37.481   2.837   4.263
58211W        W30471  17.282  36.400  14.819
58212W        W30472  11.685  38.878  14.862
58213W        W30473  19.244  40.493   3.846
58214W        W30474  37.408   9.878  14.896
58215W        W30475   5.332   8.837  13.871
58216W        W30476   1.976  21.091  11.560
58217W        W30477   2.469  39.373   3.677
58218W        W30478  22.087  31.896   4.350
58219W        W30479  43.329  12.753   3.206
58220W        W30480  30.616  14.834   2.287
58221W        W30481  39.502   1.925   3.298
58222W        W30482  14.225  10.246   4.837
58223W        W30483  13.625  21.193   5.262
58224W        W30484   8.259  16.077   3.300
58225W        W30485   6.777  10.239   5.167
58226W        W30486  38.066   2.850  10.918
58227W        W30487  15.265   3.392   3.351
58228W        W30488  24.571  43.965   1.844
58229W        W30489  28.446  12.201  11.968
58230W        W30490  13.260   4.289  13.942
58231W        W30491  13.766   7.686  14.501
58232W        W30492   7.713  28.677   1.908
58233W        W30493  19.615  18.549   5.083
58234W        W30494  11.646  35.585  13.504
58235W        W30495  27.956  43.804  14.814
58236W        W30496  44.425  37.915   3.731
58237W        W30497   2.965  39.834  11.407
58238W        W30498  11.130   9.826  11.055
58239W        W30499  10.208  15.808   3.774
58240W        W30500  36.067  44.350  13.840
58241W        W30501   7.904  17.589   2.834
58242W        W30502  12.214  44.382   2.842
58243W        W30503  22.086  25.646  13.363
58244W        W30504  30.483  11.822   0.304
58245W        W30505  37.507   1.418  13.326
58246W        W30506  26.568  41.480   4.700
58247W        W30507  41.988  28.021   0.325
58248W        W30508   2.322  40.920   2.750
58249W        W30509   6.410   3.866   1.318
58250W        W30510  23.609  11.210  14.488
58251W        W30511  23.505  27.968   0.339
58252W        W30512   6.800  40.821  13.024
58253W        W30513  21.694  33.600   4.345
58254W        W30514   5.897  31.109  11.992
58255W        W30515  20.754   9.196   0.472
58256W        W30516   6.723  26.628   3.291
58257W        W30517  30.571  43.859  11.413
58258W        W30518  44.381  16.588   2.832
58259W        W30519   1.809  17.130   2.337
58260W        W30520  27.509  27.522   4.689
58261W        W30521   0.379   3.735   0.268
58262W        W30522   5.292  41.000  13.974
58263W        W30523  35.431  43.350   1.297
58264W        W30524  37.408  40.384  12.922
58265W        W30525  30.576  21.571  14.352
58266W        W30526  23.028  21.233  12.579
58267W        W30527   8.216   8.834  14.880
58268W        W30528  25.618  10.192  13.910
58269W        W30529  35.434   4.936   9.931
58270W        W30530  20.601  10.207  12.541
58271W        W30531  32.538  14.588   1.736
58272W        W30532   8.161  42.931  10.033
58273W        W30533  18.683  39.432  12.568
58274W        W30534  43.805   8.678   0.783
58275W        W30535  24.992  30.965   1.909
58276W        W30536  31.522  11.840  14.806
58277W        W30537  29.618  21.018   5.151
58278W        W30538   2.859  44.481   4.771
58279W        W30539  11.137   1.756   1.760
58280W        W30540  10.711  35.565  14.470
58281W        W30541  24.070  43.343   2.734
58282W        W30542   1.828  22.074  14.027
58283W        W30543  17.076   8.743  10.513
58284W        W30544   4.230  38.902  13.395
58285W        W30545   0.797  41.933   1.750
58286W        W30546  36.424  22.031  12.401
58287W        W30547  25.195  26.088  12.548
58288W        W30548  11.282   8.843  12.546
58289W        W30549  41.887  42.375  14.920
58290W        W30550  29.993  37.357  14.911
58291W        W30551   3.232  16.301  15.000
58292W        W30552  30.911  19.043  14.833
58293W        W30553   0.407   1.935   1.447
58294W        W30554  36.957  44.393   1.310
58295W        W30555   2.858  19.726  13.902
58296W        W30556  21.171  23.206   0.335
58297W        W30557  37.392  23.987   2.184
58298W        W30558  27.643  11.782   0.766
58299W        W30559  31.413  24.712  10.629
58300W        W30560   7.358  31.412  10.526
58301W        W30561  15.806   6.418   3.219
58302W        W30562  16.641  19.683  14.379
58303W        W30563  12.294   4.446   1.451
58304W        W30564  36.367  39.915  10.957
58305W        W30565  42.841   0.860   0.918
58306W        W30566  37.567   6.375  10.436
58307W        W30567   3.809   5.777   3.673
58308W        W30568  25.510   8.269  12.483
58309W        W30569  26.598  35.376   2.327
58310W        W30570  35.496  28.582   4.741
58311W        W30571  33.603  29.920   3.837
58312W        W30572  18.180  16.092   0.889
58313W        W30573  29.090  32.615   2.902
58314W        W30574  44.865  34.454   1.401
58315W        W30575  32.564   8.211  12.377
58316W        W30576  20.051  25.494   4.273
58317W        W30577  11.859   5.393  14.513
58318W        W30578  23.553  26.657  14.949
58319W        W30579   3.850   3.898   2.744
58320W        W30580  33.997   4.864  12.455
58321W        W30581   4.840  41.961  13.875
58322W        W30582  13.633   0.342  11.399
58323W        W30583  40.328  13.762  10.551
58324W        W30584  15.734  22.014   0.805
58325W        W30585  19.176  14.206   1.883
58326W        W30586   2.247  39.956   2.313
58327W        W30587  31.144  34.102   2.252
58328W        W30588   2.444  12.649   0.745
58329W        W30589  18.627   0.922   3.716
58330W        W30590  37.909   7.869  12.484
58331W        W30591  27.150   8.227   2.307
58332W        W30592   4.230  17.682  12.075
58333W        W30593   4.222  33.424  10.552
58334W        W30594   8.315  23.528  14.904
58335W        W30595   4.730  40.050  14.295
58336W        W30596  18.571  44.766  10.609
58337W        W30597  26.629   9.346   0.434
58338W        W30598  31.948   0.372  11.477
58339W        W30599   2.921  14.633  12.513
58340W        W30600  44.943  16.173   4.661
58341W        W30601   5.716  20.705   2.735
58342W        W30602  38.033  42.516   2.662
58343W        W30603  26.166  22.069   1.770
58344W        W30604   3.871  23.042  13.945
58345W        W30605   2.269  33.605   0.449
58346W        W30606  19.584   3.387   3.297
58347W        W30607   6.846  42.923  14.007
58348W        W30608  38.996  43.443   5.292
58349W        W30609   0.313  27.191  13.533
58350W        W30610  26.464  37.535   3.372
58351W        W30611   8.401  10.192   4.289
58352W        W30612  23.683  25.173   3.711
58353W        W30613  14.597  40.821   3.755
58354W        W30614  39.952  38.509  10.926
58355W        W30615  18.072  33.552   0.884
58356W        W30616  14.316  19.125   1.843
58357W        W30617  23.716  38.411   0.253
58358W        W30618  42.862  23.636  10.504
58359W        W30619  18.712   7.718   4.679
58360W        W30620  11.632  40.988   1.295
58361W        W30621  13.320  44.974   4.677
58362W        W30622  14.600  44.774  12.353
58363W        W30623   8.674  17.138   0.760
58364W        W30624  35.002   2.421   0.827
58365W        W30625  12.768  10.262  14.994
58366W        W30626   1.341  30.955   3.808
58367W        W30627  21.101  36.877   5.157
58368W        W30628  14.305  17.593  13.043
58369W        W30629  38.521  12.722  13.050
58370W        W30630  13.757  18.589  13.354
58371W        W30631   8.790  16.282  11.042
58372W        W30632  28.646   1.271   3.732
58373W        W30633  13.310  44.278  11.111
58374W        W30634   9.775   2.251   1.293
58375W        W30635  25.121  24.599  11.059
58376W        W30636   5.882  30.934  10.915
58377W        W30637  37.989  24.680   0.799
58378W        W30638   6.283  15.238   0.393
58379W        W30639  24.060  26.169  14.771
58380W        W30640  24.532  30.628  10.443
58381W        W30641  17.778  27.509   4.790
58382W        W30642  37.086  25.471  11.491
58383W        W30643  44.459  22.110   2.889
58384W        W30644  24.559  30.133  13.348
58385W        W30645  34.446  36.936  12.010
58386W        W30646  19.063  37.425   0.250
58387W        W30647  39.021  23.223  13.310
58388W        W30648   1.953   3.805  14.902
58389W        W30649  32.895   1.325   1.758
58390W        W30650  38.540  43.394  11.918
58391W        W30651  25.134  31.600  12.497
58392W        W30652  16.179   1.752   0.457
58393W        W30653   6.800   4.435   0.870
58394W        W30654  37.867  11.657   3.645
58395W        W30655   0.775  44.794  10.889
58396W        W30656  39.980  31.429   2.813
58397W        W30657  30.421  26.964   1.256
58398W        W30658  12.318  30.962   2.742
58399W        W30659  35.990  24.620   1.778
58400W        W30660  12.623  25.135  13.962
58401W        W30661  29.986  28.661  10.582
58402W        W30662  40.402  11.187   0.347
58403W        W30663   4.288   4.780   3.197
58404W        W30664   9.241  40.463  10.570
58405W        W30665  18.674  30.519  10.933
58406W        W30666  34.063  43.463   1.770
58407W        W30667  31.511  21.556  11.036
58408W        W30668  26.609  12.734   2.369
58409W        W30669  34.505  37.859  13.885
58410W        W30670  38.828   7.348  12.052
58411W        W30671  15.634  42.503  12.576
58412W        W30672   8.170  41.461  14.316
58413W        W30673  15.760   8.802   1.784
58414W        W30674  37.470   7.245   3.744
58415W        W30675  34.039  33.093   3.816
58416W        W30676  18.608  43.917   4.129
58417W        W30677  26.979  20.531   3.846
58418W        W30678  34.520   2.413  11.383
58419W        W30679  43.290  33.506  12.833
58420W        W30680  20.158  17.274  14.989
58421W        W30681   4.244  20.123  14.429
58422W        W30682  10.703  33.541   4.650
58423W        W30683   6.922  31.415   2.711
58424W        W30684  12.357  28.164  14.918
58425W        W30685  17.121  28.939  10.081
58426W        W30686  42.300   5.405   2.409
58427W        W30687   2.897   2.453  13.801
58428W        W30688  15.093   3.930   0.455
58429W        W30689  32.548  16.178   4.257
58430W        W30690  31.547  33.107  11.504
58431W        W30691   2.374  22.510   2.396
58432W        W30692  34.448  25.051   4.297
58433W        W30693  38.340  40.396  12.450
58434W        W30694  35.375   1.950   0.448
58435W        W30695  31.519  42.428   3.705
58436W        W30696   9.178  40.900   3.683
58437W        W30697  23.721   3.242   2.666
58438W        W30698  38.918   1.320   0.797
58439W        W30699  31.506  33.949  14.361
58440W        W30700  33.483  12.351   4.141
58441W        W30701  30.977  44.931   2.312
58442W        W30702  37.950  36.930  14.941
58443W        W30703  43.896  16.215  11.387
58444W        W30704  36.965  15.655   1.902
58445W        W30705  36.041  18.274  12.069
58446W        W30706  24.629  23.505  12.867
58447W        W30707   1.948   7.278   3.661
58448W        W30708  18.064  23.544   1.760
58449W        W30709   1.420  21.655  12.006
58450W        W30710   5.823   8.256   0.896
58451W        W30711   7.879  13.655  12.480
58452W        W30712   8.340  27.090  12.575
58453W        W30713  39.494  32.467  13.441
58454W        W30714  22.140   6.276   4.218
58455W        W30715  11.244  31.962   4.313
58456W        W30716  22.071  11.847  13.792
58457W        W30717   4.218  38.047   3.796
58458W        W30718   2.900  28.027  12.860
58459W        W30719  16.238  30.555  12.893
58460W        W30720  19.626   7.811   3.302
58461W        W30721   3.946  11.204   2.295
58462W        W30722   6.836  25.210  14.833
58463W        W30723  13.343  34.943  10.623
58464W        W30724  25.543  31.005   4.341
58465W        W30725   0.827  10.314  10.014
58466W        W30726   9.660  10.766  11.898
58467W        W30727  16.205  27.137  12.853
58468W        W30728   1.396  17.122   4.764
58469W        W30729  12.663  30.121  11.019
58470W        W30730  19.712   2.340   2.340
58471W        W30731  31.451  40.534   0.371
58472W        W30732  11.257   6.894   3.234
58473W        W30733  26.081  13.708  13.490
58474W        W30734  19.663  32.021   1.280
58475W        W30735  14.654  15.292   0.274
58476W        W30736  30.986  27.053   0.392
58477W        W30737  39.030  24.227  12.346
58478W        W30738  38.895   7.309   9.934
58479W        W30739   4.755  12.778  13.852
58480W        W30740   9.645   9.178  11.976
58481W        W30741   3.926   9.370   2.715
58482W        W30742  35.598  10.846   2.264
58483W        W30743  38.828  33.530  11.443
58484W        W30744  31.956  34.061  13.910
58485W        W30745  43.888   4.895   2.686
58486W        W30746  35.417  32.984  13.026
58487W        W30747  16.751  16.756   9.613
58488W        W30748  44.411  24.083  13.871
58489W        W30749  16.670  37.940  12.514
58490W        W30750  20.103  34.369   1.258
58491W        W30751  30.097  29.593   1.899
58492W        W30752   6.371  19.092  10.434
58493W        W30753  19.539  38.388  12.073
58494W        W30754  27.179  25.043  11.124
58495W        W30755   8.728  20.198  12.077
58496W        W30756  38.001  36.494   3.694
58497W        W30757  40.053   2.733  11.571
58498W        W30758  24.172  32.577   3.287
58499W        W30759  41.860  11.356  11.943
58500W        W30760   0.273   1.888  14.497
58501W        W30761  17.589  30.116   0.443
58502W        W30762  33.541  11.264  14.310
58503W        W30763   8.350  22.657  14.865
58504W        W30764  12.735  41.363  10.969
58505W        W30765  41.356   9.382   0.805
58506W        W30766  31.645  15.127   1.409
58507W        W30767  23.683   6.894  14.974
58508W        W30768   8.170   2.339   0.875
58509W        W30769  10.186   1.317  12.505
58510W        W30770   7.313  21.106  10.983
58511W        W30771  30.600  33.951   4.778
58512W        W30772  16.804  37.058   3.641
58513W        W30773  27.599   6.292   4.654
58514W        W30774  14.746  29.022   3.804
58515W        W30775  39.007   1.733   2.804
58516W        W30776  44.444   5.331  11.431
58517W        W30777  15.325  30.082  13.936
58518W        W30778  25.595  33.883  12.079
58519W        W30779  23.996  12.683   1.806
58520W        W30780  24.698  24.023  13.474
58521W        W30781  38.415  39.533   1.880
58522W        W30782  38.900  19.661  14.941
58523W        W30783  15.737  38.378  11.554
58524W        W30784   4.420  37.040   4.639
58525W        W30785  28.586  22.554  13.448
58526W        W30786  24.026   9.685   1.424
58527W        W30787  25.146   3.363  11.477
58528W        W30788  30.546  15.813   4.670
58529W        W30789  29.938  27.682  12.845
58530W        W30790  25.649  36.931   0.345
58531W        W30791  42.413   6.721   0.307
58532W        W30792  41.501  41.890  11.916
58533W        W30793  37.518   8.659  14.481
58534W        W30794   9.887   4.346   0.771
58535W        W30795   7.195   2.804   1.219
58536W        W30796  18.249   0.405   4.218
58537W        W30797   2.339  31.124  14.479
58538W        W30798   3.721  27.140   0.954
58539W        W30799  11.256  43.948  14.514
58540W        W30800  16.211  13.119  14.383
58541W        W30801  13.638   3.358   5.166
58542W        W30802   7.345  44.801   0.832
58543W        W30803  34.943  13.238  10.910
58544W        W30804  22.738  13.115  10.962
58545W        W30805  23.600   5.381   0.343
58546W        W30806  44.965  15.741   1.901
58547W        W30807  18.751   8.681   2.298
58548W        W30808  37.449  20.733  12.470
58549W        W30809  17.232  34.476  11.944
58550W        W30810  38.012  42.389   3.659
58551W        W30811  37.929  27.646  14.479
58552W        W30812  12.129  29.939  14.879
58553W        W30813  22.681   3.751  11.921
58554W        W30814  19.265  30.648   3.162
58555W        W30815   6.863  12.734   1.400
58556W        W30816  32.978   5.202   1.773
58557W        W30817  34.465  15.579  13.361
58558W        W30818   5.320  29.656   1.254
58559W        W30819   1.387  31.406  11.458
58560W        W30820  33.898   7.195  13.021
58561W        W30821  35.999  43.814  11.954
58562W        W30822   3.232  18.672  10.935
58563W        W30823  26.140  39.505   3.294
58564W        W30824  22.745  13.701  10.622
58565W        W30825  10.320  30.106  14.436
58566W        W30826  31.948  19.585   2.725
58567W        W30827   8.308   6.239  12.836
58568W        W30828  28.595   3.880   2.217
58569W        W30829  19.266  44.963   4.728
58570W        W30830   2.959  34.049  12.968
58571W        W30831  35.432  14.763   2.400
58572W        W30832  16.105  14.750   3.684
58573W        W30833  21.646   3.401   3.744
58574W        W30834  33.519  22.147  13.318
58575W        W30835  11.199  35.895   0.473
58576W        W30836  23.203   9.198  13.364
58577W        W30837  32.497   3.856  12.500
58578W        W30838  33.588  27.612  12.973
58579W        W30839  31.498  42.973  11.919
58580W        W30840   3.812   7.673  11.939
58581W        W30841   7.683  20.063  11.530
58582W        W30842  31.628  26.604   3.173
58583W        W30843  13.328  14.217   0.366
58584W        W30844  16.267  38.821  12.536
58585W        W30845  22.011  40.054  11.064
58586W        W30846  37.578  40.346   3.299
58587W        W30847   8.320  24.022   2.678
58588W        W30848  11.823  42.929  14.479
58589W        W30849  22.531   7.862  12.365
58590W        W30850  28.634   8.798   1.707
58591W        W30851   9.251  30.979  14.784
58592W        W30852   2.391  37.499   0.461
58593W        W30853  24.230   3.268   3.314
58594W        W30854  26.990  24.533  10.608
58595W        W30855   6.821  12.253   3.660
58596W        W30856   5.266  31.980   3.728
58597W        W30857  40.482  32.065  14.292
58598W        W30858  16.617  24.167   0.447
58599W        W30859  32.573   4.398   2.842
58600W        W30860  34.600  43.383  14.978
58601W        W30861  28.440   3.274  12.884
58602W        W30862   3.817  32.068   4.247
58603W        W30863   2.264  14.169   2.179
58604W        W30864  26.023  14.232  13.516
58605W        W30865  33.896  42.427   3.680
58606W        W30866  11.180  27.590   1.740
58607W        W30867  22.154  23.138  12.858
58608W        W30868   2.450  28.645  13.372
58609W        W30869  44.422  30.067  10.621
58610W        W30870   8.308   8.800   1.390
58611W        W30871  33.562  39.922   5.154
58612W        W30872  42.935  30.953   4.354
58613W        W30873  19.752  11.333  13.806
58614W        W30874  14.205  19.607   2.247
58615W        W30875  25.665  18.584  14.960
58616W        W30876  14.808   9.665  13.441
58617W        W30877   5.830  34.108   3.203
58618W        W30878  38.017  44.825  11.494
58619W        W30879  15.303   3.759  11.561
58620W        W30880   7.893   3.285  13.512
58621W        W30881  18.185  37.862  11.463
58622W        W30882  37.075  27.944   1.714
58623W        W30883  40.547  13.787  11.097
58624W        W30884  10.314  23.053  11.042
58625W        W30885  37.078  13.110   0.762
58626W        W30886  26.059  38.941   9.473
58627W        W30887  24.097  24.075  12.553
58628W        W30888   3.789  13.630   1.304
58629W        W30889  20.269  32.945   2.318
58630W        W30890  28.587   2.771   2.890
58631W        W30891  44.288   0.910  11.963
58632W        W30892  44.977   2.863  10.910
58633W        W30893  23.088  29.561   5.099
58634W        W30894  38.417  22.021   0.273
58635W        W30895   9.391  23.051  11.476
58636W        W30896   3.390  22.252   4.230
58637W        W30897  30.980   8.395   0.774
58638W        W30898   7.326  20.152   1.391
58639W        W30899  20.670  34.580  10.421
58640W        W30900  33.003  36.936   1.347
58641W        W30901  11.162  44.488  11.858
58642W        W30902   0.333  16.721  13.841
58643W        W30903  37.377  19.066   0.409
58644W        W30904  15.712   2.935   1.747
58645W        W30905  27.987  11.279   2.893
58646W        W30906  29.576  13.347  12.375
58647W        W30907   1.929  41.917  12.910
58648W        W30908  35.069   7.262  12.466
58649W        W30909  37.482  25.122  10.422
58650W        W30910  44.464  40.327  14.307
58651W        W30911  27.072   2.458   2.727
58652W        W30912   2.747  30.530   3.842
58653W        W30913  10.857  20.139  14.913
58654W        W30914  29.518  30.559  12.028
58655W        W30915  22.678   5.374  10.994
58656W        W30916  21.056  14.713   1.331
58657W        W30917  16.199   1.280  12.464
58658W        W30918  38.040  22.664   3.800
58659W        W30919  43.863  16.787  11.936
58660W        W30920   1.745   7.183   0.889
58661W        W30921  19.747  41.943   5.219
58662W        W30922  17.653  41.417   3.318
58663W        W30923  35.898  30.970  10.966
58664W        W30924  22.586  28.624   0.958
58665W        W30925  40.318  39.519  13.839
58666W        W30926  16.633  21.241  11.525
58667W        W30927  16.768   4.781  10.519
58668W        W30928   7.307  23.038   1.339
58669W        W30929  11.244  39.857   1.388
58670W        W30930  36.993  16.680  14.839
58671W        W30931  20.652   1.402   0.954
58672W        W30932  38.372   0.869  14.993
58673W        W30933  22.127  20.064  14.945
58674W        W30934  20.265  17.291   1.414
58675W        W30935   5.927   3.887  14.841
58676W        W30936  22.515   0.343   1.907
58677W        W30937   6.909  42.358  13.030
58678W        W30938   1.967  18.585   3.838
58679W        W30939  35.603   7.715  11.433
58680W        W30940  16.266  23.099  11.524
58681W        W30941   9.841  16.102  14.481
58682W        W30942  36.888  38.550   0.967
58683W        W30943  36.087  42.862   1.744
58684W        W30944  12.334  39.330  12.568
58685W        W30945   4.382  19.073  13.816
58686W        W30946  11.249   9.182   2.662
58687W        W30947  16.264  34.060   2.860
58688W        W30948  33.017  42.401   1.288
58689W        W30949   5.796  15.613  13.538
58690W        W30950  25.603  32.128  11.068
58691W        W30951   7.891  35.557  11.396
58692W        W30952  32.593   0.257   0.435
58693W        W30953  12.188  24.517   3.719
58694W        W30954  18.095  36.908  14.959
58695W        W30955  12.118  33.498   3.814
58696W        W30956  22.094  35.904   4.635
58697W        W30957  23.192  41.887   2.824
58698W        W30958  10.724  40.544   2.339
58699W        W30959  27.003  34.416  13.810
58700W        W30960   5.284  30.418  12.510
58701W        W30961  44.929  15.198  12.023
58702W        W30962   1.955  25.526  10.426
58703W        W30963  10.793   7.181  12.577
58704W        W30964   2.318   9.740  12.878
58705W        W30965  11.305  25.560  14.449
58706W        W30966   2.818  40.952  11.918
58707W        W30967   3.291  42.828  12.437
58708W        W30968  24.533  20.132   2.719
58709W        W30969  22.043  43.787   0.753
58710W        W30970  26.522  12.686   3.331
58711W        W30971  12.782  29.653  13.467
58712W        W30972   1.319  13.765  10.934
58713W        W30973  21.260  32.456   1.763
58714W        W30974  44.478  26.183   1.340
58715W        W30975  42.482  12.685   3.744
58716W        W30976  16.707  24.555   1.792
58717W        W30977  21.036  19.705   2.746
58718W        W30978  29.427   1.904   2.786
58719W        W30979  13.599  38.347  13.383
58720W        W30980  42.468   3.801   4.205
58721W        W30981   7.895  43.307   2.415
58722W        W30982  34.509  30.492  14.349
58723W        W30983  44.941  43.918  11.911
58724W        W30984  44.951  25.981  13.452
58725W        W30985  35.535   3.907   1.719
58726W        W30986  41.915  30.431  13.872
58727W        W30987  23.493  12.745  12.921
58728W        W30988  25.615  28.503   4.184
58729W        W30989  14.278  16.656   5.659
58730W        W30990  36.979   0.924  11.075
58731W        W30991  16.186  23.499  14.032
58732W        W30992  11.272   0.275   3.173
58733W        W30993  14.669  13.799   4.691
58734W        W30994  22.116   3.276   0.437
58735W        W30995   9.882  27.676  11.051
58736W        W30996  37.845  24.509  11.076
58737W        W30997   4.743  44.430   3.360
58738W        W30998   9.712  11.702   2.752
58739W        W30999   9.701  32.436  13.051
58740W        W31000  43.347  32.458   2.901
58741W        W31001  12.128  26.072  10.928
58742W        W31002  15.813  15.822   0.817
58743W        W31003  42.897   3.339   4.757
58744W        W31004  15.136   0.837  11.085
58745W        W31005  36.487  25.567   4.172
58746W        W31006  14.114   2.249  13.484
58747W        W31007  39.381  27.953  14.002
58748W        W31008  27.467  10.654  12.414
58749W        W31009  26.102  23.215  14.426
58750W        W31010   1.366  28.082   0.771
58751W        W31011   1.940   2.888   0.749
58752W        W31012   9.228  19.645  12.414
58753W        W31013  12.316  38.873   1.916
58754W        W31014   6.807  14.221  11.023
58755W        W31015  38.551   9.356   2.858
58756W        W31016   0.847  30.497   1.387
58757W        W31017  14.235  28.461   3.366
58758W        W31018  12.290  34.939   1.320
58759W        W31019  15.177  26.515  14.319
58760W        W31020  15.171  43.485   4.272
58761W        W31021  10.332   7.753   1.758
58762W        W31022  38.015  25.076   1.364
58763W        W31023  26.484   5.807   0.479
58764W        W31024   1.242  14.762  11.432
58765W        W31025  23.168  21.214   3.286
58766W        W31026  30.106  37.894  14.769
58767W        W31027   0.471  21.181  10.429
58768W        W31028  35.991  27.075  13.493
58769W        W31029   7.805  11.645   2.813
58770W        W31030  25.032  44.865  13.030
58771W        W31031   7.673  36.347   1.389
58772W        W31032  33.111  35.866   3.174
58773W        W31033  31.082  32.050   0.899
58774W        W31034  43.994  42.817  14.285
58775W        W31035  25.992  29.019   4.121
58776W        W31036  24.980   1.410  10.950
58777W        W31037  17.643  29.430   2.777
58778W        W31038  18.158  15.100  11.905
58779W        W31039  25.080  44.272  11.940
58780W        W31040  21.753   7.799  10.988
58781W        W31041  22.584   6.837   3.262
58782W        W31042  32.100  19.063  13.480
58783W        W31043  35.046  30.483  11.415
58784W        W31044  38.350   5.807   1.837
58785W        W31045  40.933   0.973  13.536
58786W        W31046  36.380  39.913  10.522
58787W        W31047  29.116  44.807   1.213
58788W        W31048   4.878   7.411   0.383
58789W        W31049  28.936   7.773   3.272
58790W        W31050  10.144  28.636  12.361
58791W        W31051  10.683  10.301   1.741
58792W        W31052   4.932  21.576   1.339
58793W        W31053   1.246   8.895  11.034
58794W        W31054   7.259  40.536   3.377
58795W        W31055  38.863  36.394   0.847
58796W        W31056  44.276  40.846   1.229
58797W        W31057  12.289   0.904   4.335
58798W        W31058  18.282  36.892   2.320
58799W        W31059  35.097  41.877  14.960
58800W        W31060  17.758  40.444  13.355
58801W        W31061  18.168  42.013   4.771
58802W        W31062  30.472   1.391  11.479
58803W        W31063  17.220  15.595  11.551
58804W        W31064  21.115  19.074  12.831
58805W        W31065  35.859  24.097  10.493
58806W        W31066   2.790   0.365  13.029
58807W        W31067  38.363  10.379  10.020
58808W        W31068  37.928  41.406  12.377
58809W        W31069   3.444  21.544   3.831
58810W        W31070  11.279  18.118  10.505
58811W        W31071  39.966  22.668  11.431
58812W        W31072   2.787  28.450   1.343
58813W        W31073  37.577  29.624   4.697
58814W        W31074  20.653  18.575   2.886
58815W        W31075  43.409  10.652   2.733
58816W        W31076  38.031  20.131  12.049
58817W        W31077   6.368  36.363   1.708
58818W        W31078  23.643   8.312   1.897
58819W        W31079  11.816   5.198   0.388
58820W        W31080  10.726  17.103  13.922
58821W        W31081  21.068  21.644  13.483
58822W        W31082  19.074  28.131  14.994
58823W        W31083  37.563  13.808   4.709
58824W        W31084  16.252  19.594   1.747
58825W        W31085  31.091  18.762   0.373
58826W        W31086   6.756  32.459   1.275
58827W        W31087  27.486  32.057  13.813
58828W        W31088   4.277   9.254  11.477
58829W        W31089   4.216  38.044   0.242
58830W        W31090  15.248  39.843   2.846
58831W        W31091  43.332   1.402  14.825
58832W        W31092  26.521  38.071   1.309
58833W        W31093   7.377  18.096  10.591
58834W        W31094  27.608  31.624   3.666
58835W        W31095  35.979   6.676  12.081
58836W        W31096  21.751  27.511   0.273
58837W        W31097  23.071  30.444  11.944
58838W        W31098  44.472  29.524   4.189
58839W        W31099  22.089  38.042   1.317
58840W        W31100  32.426   0.883  11.569
58841W        W31101  10.749  22.244  12.022
58842W        W31102   3.401  35.428   0.420
58843W        W31103  35.449  37.995   4.724
58844W        W31104  25.066   5.707  11.611
58845W        W31105  26.196  40.816   3.200
58846W        W31106  24.981  13.636   1.243
58847W        W31107   5.700  24.189   2.199
58848W        W31108  14.698  40.320   2.252
58849W        W31109  14.305  29.484   3.675
58850W        W31110  22.232  42.867   1.213
58851W        W31111  19.756  40.015  10.437
58852W        W31112  40.542  41.887   3.843
58853W        W31113  36.563   4.899   2.269
58854W        W31114  26.653   3.947   1.272
58855W        W31115  43.286  16.672   3.635
58856W        W31116  36.945   6.688  12.874
58857W        W31117   9.280  24.159  13.344
58858W        W31118  36.986  27.586   4.118
58859W        W31119  32.627  10.689  12.071
58860W        W31120  38.384  40.963  12.473
58861W        W31121  22.700   6.825   4.826
58862W        W31122  38.351   3.386   2.722
58863W        W31123  39.969  34.069  14.374
58864W        W31124   3.920  35.853   4.266
58865W        W31125  32.061  34.087   0.360
58866W        W31126  32.982  15.715   0.757
58867W        W31127  41.824   8.753  13.039
58868W        W31128  44.290  25.568  14.834
58869W        W31129  24.668  38.333  13.350
58870W        W31130   9.700  27.190  13.375
58871W        W31131   1.241   3.848   0.810
58872W        W31132  12.629  30.578   1.244
58873W        W31133  44.440  30.981   1.797
58874W        W31134  34.514  15.282   4.693
58875W        W31135  35.464  13.245  11.601
58876W        W31136  16.629  41.836   0.252
58877W        W31137  12.816  17.228  10.138
58878W        W31138  13.622  24.529  12.406
58879W        W31139  11.203  44.307  10.990
58880W        W31140  27.594  16.190   1.792
58881W        W31141   7.877  20.249   2.367
58882W        W31142   6.255   1.444   3.789
58883W        W31143  35.866  20.086  13.375
58884W        W31144  31.017  38.501   1.885
58885W        W31145  40.542  37.538   3.173
58886W        W31146  12.814  10.804  13.523
58887W        W31147  22.159   4.429  11.475
58888W        W31148  23.633  37.847   0.757
58889W        W31149   8.372  37.506   4.312
58890W        W31150   1.411   9.363   3.240
58891W        W31151   1.969   9.337  11.976
58892W        W31152  18.593  15.203  13.988
58893W        W31153  18.241  34.950   0.871
58894W        W31154  44.503  18.715   2.852
58895W        W31155  18.774  23.604   0.878
58896W        W31156  12.357  25.486   3.747
58897W        W31157  42.901  30.571   3.697
58898W        W31158   7.229  12.247   0.727
58899W        W31159  36.442  28.554  12.482
58900W        W31160  30.082  26.702  11.457
58901W        W31161  29.083  39.485   3.833
58902W        W31162   7.417   0.855  11.009
58903W        W31163  24.670  27.028  10.476
58904W        W31164   1.249   9.866  11.044
58905W        W31165   5.840  17.121  10.483
58906W        W31166  31.639   9.248  13.979
58907W        W31167   4.403  37.535   2.783
58908W        W31168  24.977  42.427  12.458
58909W        W31169  16.199   6.701  11.926
58910W        W31170  30.554  26.022  12.053
58911W        W31171  40.417  44.489  11.005
58912W        W31172  16.751  19.129   1.744
58913W        W31173  32.940  40.445  10.571
58914W        W31174  39.390  37.358   3.813
58915W        W31175  34.460  33.021   3.219
58916W        W31176  41.340   1.826  10.425
58917W        W31177   5.877  25.169  14.303
58918W        W31178  21.111   8.854  12.361
58919W        W31179  38.506  22.730   2.818
58920W        W31180   7.881  14.328   3.184
58921W        W31181  29.634  31.946  11.922
58922W        W31182  36.515  23.631  12.577
58923W        W31183  15.780   9.323  10.470
58924W        W31184  40.052  38.383   1.785
58925W        W31185   6.278  44.801  10.624
58926W        W31186   3.298   1.789   3.247
58927W        W31187  41.473   1.334   0.406
58928W        W31188   6.281   3.225   4.705
58929W        W31189  37.077  10.252  14.510
58930W        W31190  35.557  26.593   1.257
58931W        W31191  21.102   0.306  13.492
58932W        W31192  11.161  39.418  13.975
58933W        W31193  25.576  26.122   0.827
58934W        W31194  19.746  44.833   2.793
58935W        W31195  27.940  18.178   4.215
58936W        W31196  23.175   9.672   0.919
58937W        W31197  32.577  22.225   0.380
58938W        W31198  16.655   7.189  12.000
58939W        W31199  31.471  42.784   4.764
58940W        W31200   7.335  28.068  13.530
58941W        W31201  35.025  32.081   0.794
58942W        W31202  27.153  38.565   4.215
58943W        W31203  20.682  10.325  13.390
58944W        W31204  22.032  43.918  12.051
58945W        W31205   4.269  38.875   1.736
58946W        W31206  38.434  17.593   4.122
58947W        W31207  32.905  24.031  10.934
58948W        W31208  35.040   7.805  14.495
58949W        W31209  31.495  44.898  14.416
58950W        W31210   5.335  38.558   2.237
58951W        W31211  19.039  11.770  10.893
58952W        W31212  11.781  19.739  10.600
58953W        W31213   8.373   3.804  12.498
58954W        W31214  24.652  18.247  11.043
58955W        W31215   9.309  39.392   4.219
58956W        W31216  29.483  31.450  13.453
58957W        W31217  29.153  44.331  12.825
58958W        W31218  26.535   4.211  13.058
58959W        W31219   8.766   4.215  12.431
58960W        W31220  12.692  44.847   1.311
58961W        W31221  22.665  11.844   2.349
58962W        W31222  14.177  28.565  13.011
58963W        W31223   8.834  28.167   1.839
58964W        W31224  14.249  24.214  11.467
58965W        W31225  26.121   7.413  11.940
58966W        W31226  32.025  37.901  10.466
58967W        W31227   6.200  25.079  12.412
58968W        W31228  16.179  26.129  11.936
58969W        W31229   6.418  24.117  12.522
58970W        W31230  13.843  22.668  12.846
58971W        W31231  26.487  44.379  13.365
58972W        W31232  19.115  33.607   2.754
58973W        W31233   1.247  16.610  11.104
58974W        W31234  22.015  38.847   1.757
58975W        W31235  18.161  33.109   0.947
58976W        W31236  33.982   2.459   1.793
58977W        W31237  32.593  19.713   3.850
58978W        W31238   4.855  17.205  13.866
58979W        W31239  25.171   8.334  11.442
58980W        W31240  27.026  30.941  11.484
58981W        W31241  25.642  22.067  14.956
58982W        W31242   4.269  33.040  14.373
58983W        W31243  10.788   0.976   0.421
58984W        W31244  34.425  13.739  12.898
58985W        W31245   4.861  32.395  12.079
58986W        W31246  21.601  18.614   2.183
58987W        W31247   0.293   9.837  12.551
58988W        W31248  17.775  16.115  12.843
58989W        W31249  44.498  28.527   4.703
58990W        W31250  13.348  19.663   3.227
58991W        W31251  29.092  42.861  11.473
58992W        W31252  17.666   2.927   4.303
58993W        W31253  26.536  19.084   0.873
58994W        W31254  42.919  44.336   2.381
58995W        W31255  13.641   0.345   4.678
58996W        W31256  27.162  42.861   4.639
58997W        W31257  22.685   7.232  11.612
58998W        W31258   3.435  44.989  10.528
58999W        W31259   4.366  28.615   3.641
59000W        W31260  27.570  12.166   1.871
59001W        W31261  24.584  41.810   5.243
59002W        W31262  30.594  10.307   4.817
59003W        W31263  44.791   7.876  10.980
59004W        W31264  26.493  10.141   1.447
59005W        W31265   0.901   5.915   2.784
59006W        W31266   1.889  15.795  12.541
59007W        W31267  28.592  35.870  11.455
59008W        W31268  13.800  30.912   1.340
59009W        W31269  34.896  29.994  10.637
59010W        W31270  29.107  19.089   3.773
59011W        W31271  14.594  10.844   4.340
59012W        W31272  38.542  16.222  13.908
59013W        W31273  20.712  17.168  14.342
59014W        W31274  26.170  40.319  13.412
59015W        W31275  43.899  32.064  12.904
59016W        W31276  19.739  33.412   3.374
59017W        W31277  15.604  21.523   2.893
59018W        W31278  25.063  29.045   1.389
59019W        W31279  27.524  11.763   2.229
59020W        W31280  40.968  40.817  10.518
59021W        W31281  27.988   3.313   4.351
59022W        W31282  11.212  19.748  10.637
59023W        W31283  40.997  10.832   3.269
59024W        W31284  13.667   2.944  11.107
59025W        W31285  44.836  17.753  13.506
59026W        W31286  32.035  26.204   3.753
59027W        W31287   2.316  33.918  12.535
59028W        W31288  11.698   0.910   0.460
59029W        W31289  35.439  41.011   3.377
59030W        W31290   9.651  26.986  11.372
59031W        W31291  38.068  43.275  11.984
59032W        W31292  33.412  19.223  12.980
59033W        W31293  34.587  32.444  10.960
59034W        W31294  16.240  26.999  13.352
59035W        W31295  31.084   3.423  12.423
59036W        W31296  19.654  26.107   0.304
59037W        W31297   0.341  42.964  14.866
59038W        W31298  13.194  41.040   3.232
59039W        W31299  28.494  39.816  12.833
59040W        W31300  10.378  17.702  12.469
59041W        W31301  39.822  38.051  10.501
59042W        W31302  29.562   0.916   2.409
59043W        W31303  11.267  20.254  10.583
59044W        W31304  33.915   6.785  14.972
59045W        W31305  24.097  23.720  12.487
59046W        W31306  16.758  15.298  12.497
59047W        W31307   9.364   0.269  12.466
59048W        W31308  44.885  40.428   1.399
59049W        W31309  41.001  10.640   1.819
59050W        W31310  27.184  31.580  14.292
59051W        W31311   8.741  10.834   3.333
59052W        W31312  28.930  40.876   4.759
59053W        W31313  42.014  14.263  12.568
59054W        W31314   1.841  14.144  11.064
59055W        W31315  36.922  40.350  14.322
59056W        W31316   8.211  27.098  11.093
59057W        W31317  35.003  42.847   3.732
59058W        W31318  35.025  35.567  12.023
59059W        W31319  12.299  24.604   3.313
59060W        W31320  35.878  31.904   4.174
59061W        W31321  28.147  37.375  12.887
59062W        W31322  21.102   9.801  10.989
59063W        W31323  16.585  30.044  10.514
59064W        W31324  15.668  26.056   3.836
59065W        W31325  13.716   5.419   4.636
59066W        W31326  28.025  26.522  12.466
59067W        W31327  28.118   8.660   1.700
59068W        W31328  13.798   0.786  10.551
59069W        W31329  12.329  17.074  11.071
59070W        W31330   5.791  34.016  14.276
59071W        W31331  18.114  32.939  13.884
59072W        W31332   5.397  36.383  10.505
59073W        W31333  19.754  23.708  14.333
59074W        W31334  17.613  19.647  12.461
59075W        W31335  21.748  39.996  13.959
59076W        W31336  10.194  33.899  14.930
59077W        W31337  40.017   5.194   2.249
59078W        W31338  15.643  31.996   5.094
59079W        W31339  38.994   4.847  10.514
59080W        W31340  38.054  11.247  13.793
59081W        W31341  20.751  36.992  14.484
59082W        W31342  25.657  27.044   4.120
59083W        W31343   2.465   6.305  12.093
59084W        W31344  20.212  40.434  11.422
59085W        W31345   7.344   6.422   2.242
59086W        W31346   1.313  24.664   2.707
59087W        W31347  29.664  42.823  11.010
59088W        W31348   8.341  15.681   3.303
59089W        W31349  37.871  17.303   2.178
59090W        W31350  12.275  41.465  11.504
59091W        W31351  17.619  41.019  11.511
59092W        W31352  30.144  32.597  10.439
59093W        W31353   6.193  36.564  14.454
59094W        W31354  41.403   3.245   0.966
59095W        W31355  15.809  22.588  13.342
59096W        W31356  26.192  29.012   3.334
59097W        W31357  13.665  35.093   3.315
59098W        W31358  13.255  28.964   0.904
59099W        W31359  38.006  42.281   1.254
59100W        W31360  12.151  28.587   3.239
59101W        W31361  41.318  18.212   3.867
59102W        W31362  40.895  21.090   4.678
59103W        W31363  23.559  17.088   0.362
59104W        W31364   6.822  30.147  11.991
59105W        W31365  26.070  24.691   1.373
59106W        W31366  40.876  29.432  13.360
59107W        W31367  19.772  18.628  13.364
59108W        W31368  24.574  15.759  13.392
59109W        W31369  11.851   9.362  14.323
59110W        W31370   7.900  13.756   4.159
59111W        W31371  41.025  13.334  12.455
59112W        W31372  23.226  17.749  11.385
59113W        W31373  33.622   5.698  10.404
59114W        W31374  16.584  12.306   4.235
59115W        W31375   8.722   2.315  11.981
59116W        W31376  29.971  27.625  12.530
59117W        W31377  16.214  19.728  10.899
59118W        W31378  25.623  16.705  13.333
59119W        W31379   0.973  12.678   5.117
59120W        W31380  21.181  29.494   3.363
59121W        W31381  42.819  11.754   2.673
59122W        W31382  16.729  20.637  12.480
59123W        W31383  26.009   4.816  10.893
59124W        W31384  23.716  15.201   1.713
59125W        W31385  15.099  38.990   3.673
59126W        W31386  14.240  35.539  12.439
59127W        W31387   0.284  21.070   0.828
59128W        W31388  31.010   4.780  11.404
59129W        W31389  27.513  40.315  14.773
59130W        W31390  33.626   2.294  13.445
59131W        W31391  41.955   1.921   2.407
59132W        W31392  18.143  40.428  14.279
59133W        W31393   8.377  10.656  14.904
59134W        W31394  36.566  35.567  13.431
59135W        W31395  18.077  26.564  12.077
59136W        W31396  38.954   9.271  12.369
59137W        W31397  28.079  28.050   4.675
59138W        W31398  44.010  43.007   0.918
59139W        W31399  11.826  32.991   0.939
59140W        W31400  16.107  21.091  11.487
59141W        W31401  32.418   7.334  14.884
59142W        W31402  13.702  27.003  11.970
59143W        W31403   6.272  24.553   4.735
59144W        W31404  33.070  13.622   0.822
59145W        W31405  17.721   4.827   3.727
59146W        W31406  41.960  44.962   0.384
59147W        W31407  26.591  17.261  12.512
59148W        W31408  34.567   0.774  13.887
59149W        W31409   6.215  14.809   0.909
59150W        W31410  29.958   6.687  11.080
59151W        W31411  27.592  35.360  13.795
59152W        W31412  18.130  20.203   1.926
59153W        W31413  32.916  13.200   0.420
59154W        W31414  43.311  18.258  12.015
59155W        W31415  26.019  10.744  12.467
59156W        W31416  17.790  31.049   4.355
59157W        W31417  30.162  35.598  10.419
59158W        W31418  19.683   8.895  14.468
59159W        W31419  20.701  33.427   3.245
59160W        W31420  20.759  37.476   3.849
59161W        W31421  38.571   1.462  14.441
59162W        W31422  11.295  38.327   2.816
59163W        W31423  41.297   4.413  11.574
59164W        W31424   3.848  19.761  11.504
59165W        W31425  43.416  34.427   3.319
59166W        W31426  24.151  24.032  14.498
59167W        W31427  14.134   8.683   2.673
59168W        W31428   7.238  16.184   3.223
59169W        W31429  16.569  22.735  12.917
59170W        W31430  37.058  37.061   3.210
59171W        W31431  19.249   4.776   0.378
59172W        W31432  20.182  43.468  11.418
59173W        W31433  18.138  31.642  13.954
59174W        W31434  23.102   0.424   2.843
59175W        W31435  11.358  37.954  10.945
59176W        W31436  16.285  14.652   9.983
59177W        W31437  16.235  18.117   4.731
59178W        W31438   2.830   1.269  12.389
59179W        W31439  12.138  12.785  12.516
59180W        W31440   0.841  40.403   4.758
59181W        W31441  26.053  32.997  12.406
59182W        W31442  39.979  14.627   4.154
59183W        W31443  34.533  28.643   2.709
59184W        W31444  36.935  36.086   1.394
59185W        W31445  25.121  13.815   4.303
59186W        W31446   1.960   0.487  14.885
59187W        W31447  39.911  12.360  13.020
59188W        W31448  38.894  39.021  11.899
59189W        W31449  34.877  44.877  14.281
59190W        W31450  21.184   8.172  11.904
59191W        W31451  16.693   7.752  13.816
59192W        W31452   7.883  16.758   3.866
59193W        W31453  14.220  33.405  11.522
59194W        W31454   0.745  22.145   2.411
59195W        W31455  40.451  16.811   0.342
59196W        W31456  13.731  13.107   3.861
59197W        W31457  11.142   4.286  12.544
59198W        W31458  30.042  35.033  12.464
59199W        W31459   9.650  13.129   0.815
59200W        W31460   4.855  31.965  10.134
59201W        W31461   1.927  36.576   2.188
59202W        W31462  31.077  21.034   3.653
59203W        W31463  12.147  18.749   0.359
59204W        W31464  13.797   4.728   4.647
59205W        W31465  12.342  12.257   4.782
59206W        W31466   9.201  42.789  11.097
59207W        W31467  12.245  32.133   3.795
59208W        W31468  16.087  40.915  14.946
59209W        W31469  34.556  27.979   2.807
59210W        W31470   0.748  37.976  12.062
59211W        W31471  16.136  29.166  12.457
59212W        W31472  28.930  38.912   1.257
59213W        W31473  19.089   9.269   2.863
59214W        W31474   0.932  31.084   2.375
59215W        W31475   7.874  21.693   4.210
59216W        W31476  22.655  33.381  12.442
59217W        W31477   8.725   4.907  11.884
59218W        W31478  31.406  11.748   3.824
59219W        W31479  27.997  38.036   2.277
59220W        W31480  11.778  23.497   9.947
59221W        W31481  26.609  15.287   3.652
59222W        W31482  37.935  17.694   2.749
59223W        W31483  18.768   4.854   3.178
59224W        W31484  35.095  17.298   2.853
59225W        W31485  17.740  14.292   4.818
59226W        W31486  36.091  22.072   1.240
59227W        W31487  32.898  33.131  14.966
59228W        W31488  11.819  10.249  13.004
59229W        W31489  40.325  25.654  12.485
59230W        W31490  37.357  10.183  10.422
59231W        W31491  34.090  28.084  13.803
59232W        W31492  34.444  13.282   4.668
59233W        W31493  10.326  43.768   0.844
59234W        W31494  21.618  35.428  12.395
59235W        W31495  11.177  21.750   4.223
59236W        W31496  10.636  35.923  13.494
59237W        W31497  42.836  14.304  14.770
59238W        W31498  27.182   6.876   4.837
59239W        W31499  15.315   1.291  12.031
59240W        W31500  39.370  38.930   3.788
59241W        W31501  11.175   1.873  13.887
59242W        W31502  38.039   9.694  10.918
59243W        W31503  37.946  44.859   3.179
59244W        W31504  40.836  29.600   1.833
59245W        W31505  37.429  12.242  11.591
59246W        W31506  37.834  17.626  11.992
59247W        W31507  36.864  32.888   0.382
59248W        W31508  27.123  25.020   4.217
59249W        W31509  17.695  19.114  12.990
59250W        W31510  36.411  11.776  12.443
59251W        W31511  27.455  27.596   3.379
59252W        W31512  32.485  22.657  12.928
59253W        W31513  39.438  30.948  13.421
59254W        W31514   9.743   3.399  14.939
59255W        W31515  36.963  13.224  14.336
59256W        W31516   6.861  11.166   4.282
59257W        W31517  14.196  22.243  10.511
59258W        W31518  27.498  30.507  10.036
59259W        W31519  36.436  25.983   2.278
59260W        W31520  39.349  33.606   4.731
59261W        W31521   3.931  18.272   1.275
59262W        W31522  33.091  40.905  11.936
59263W        W31523  28.137  28.453  13.493
59264W        W31524  31.065  13.719  10.625
59265W        W31525   1.294   4.855   0.479
59266W        W31526  27.469  38.850   4.242
59267W        W31527  22.199  19.084  13.499
59268W        W31528  20.752  14.214  12.889
59269W        W31529  11.705  29.424  10.090
59270W        W31530  14.723  32.012  13.359
59271W        W31531  12.206  32.102   2.327
59272W        W31532  39.946  27.486  14.510
59273W        W31533  38.891   0.493  11.857
59274W        W31534  40.339  33.961  13.056
59275W        W31535  38.987  15.316  10.450
59276W        W31536  29.541   3.912  14.831
59277W        W31537  17.727  38.844   0.732
59278W        W31538  30.031   1.928   2.809
59279W        W31539  36.030  39.515   0.868
59280W        W31540  26.566  25.210  14.815
59281W        W31541  26.042   0.327  10.929
59282W        W31542  41.364  40.541   3.302
59283W        W31543  42.521   7.746   1.397
59284W        W31544  23.553   6.396  14.377
59285W        W31545  18.142  29.174  11.901
59286W        W31546  28.974  37.453   0.844
59287W        W31547  39.384   4.794  13.055
59288W        W31548  41.871  43.476   4.200
59289W        W31549   7.206  23.042   3.657
59290W        W31550  18.269  24.159  10.915
59291W        W31551  30.917   5.824  10.407
59292W        W31552  37.044  31.057  14.290
59293W        W31553  17.290  31.014   1.830
59294W        W31554   8.750  41.935  14.991
59295W        W31555  31.145  41.939  10.589
59296W        W31556  44.936  20.672  12.394
59297W        W31557  38.509  41.880   2.310
59298W        W31558   7.874   6.334   2.298
59299W        W31559  30.066  21.600  14.943
59300W        W31560  42.303   3.755   2.250
59301W        W31561  11.731  25.702   3.274
59302W        W31562  11.816   8.356   3.343
59303W        W31563  42.940  15.228   4.652
59304W        W31564  32.105  42.319   1.272
59305W        W31565  15.709  20.206   3.713
59306W        W31566   0.481  28.453   3.222
59307W        W31567  28.113  36.040  14.333
59308W        W31568  28.549  12.268   1.877
59309W        W31569  22.667  36.057  12.867
59310W        W31570  26.043  26.075  12.580
59311W        W31571  19.566  36.952   0.388
59312W        W31572  32.067  31.115  12.897
59313W        W31573  19.729  42.840  12.363
59314W        W31574   9.722   5.822  13.531
59315W        W31575  31.627  24.607   4.663
59316W        W31576  35.977  44.317   2.722
59317W        W31577  38.954  29.465   4.708
59318W        W31578  43.292   2.443  14.980
59319W        W31579  19.628  40.459   2.870
59320W        W31580  31.974  17.715  13.422
59321W        W31581   8.816  22.143   1.219
59322W        W31582   3.298   0.414   4.708
59323W        W31583   1.897  18.054   2.674
59324W        W31584  28.657  34.476  12.846
59325W        W31585  27.021  32.411  10.620
59326W        W31586  23.685  33.457  11.572
59327W        W31587  19.233   7.892  11.896
59328W        W31588  40.460   1.372  11.900
59329W        W31589  21.522   5.218   0.421
59330W        W31590  41.805  32.494   4.598
59331W        W31591  28.960  17.598  11.856
59332W        W31592  16.291  23.060   1.929
59333W        W31593  15.597   2.806   1.291
59334W        W31594  30.069  40.375   2.877
59335W        W31595  10.858  31.493  14.871
59336W        W31596  20.730  17.711  11.577
59337W        W31597  41.371  31.139  13.053
59338W        W31598  18.701  33.416  14.795
59339W        W31599  43.931  30.946   2.210
59340W        W31600  36.893  25.020  13.494
59341W        W31601  29.096  17.123  10.890
59342W        W31602  23.541  36.916  10.404
59343W        W31603  39.535  16.755  13.895
59344W        W31604  44.942  23.516  14.899
59345W        W31605  33.889   9.236   2.669
59346W        W31606   3.253  24.182   5.094
59347W        W31607  12.843   8.745   2.748
59348W        W31608   5.859  15.663  10.949
59349W        W31609  18.282  43.443  10.914
59350W        W31610   8.782   7.710   4.178
59351W        W31611   5.431  11.349  13.907
59352W        W31612  27.153   1.402   1.210
59353W        W31613  40.910  44.823  12.398
59354W        W31614  14.155   2.309  14.796
59355W        W31615  42.808  16.103  10.929
59356W        W31616  13.704  27.106  11.053
59357W        W31617   8.734  20.114   4.121
59358W        W31618  40.015   8.895   5.193
59359W        W31619   9.702  25.642  11.088
59360W        W31620   7.268  40.376  12.379
59361W        W31621  34.893  17.098   2.270
59362W        W31622  32.504   1.425  11.566
59363W        W31623  36.543  16.785  10.585
59364W        W31624  30.045  11.129   4.740
59365W        W31625   0.763  40.902   3.831
59366W        W31626   8.769  20.615  11.863
59367W        W31627   5.284  27.059   0.311
59368W        W31628   7.811  34.569  13.946
59369W        W31629   3.228  25.080  14.927
59370W        W31630  33.408  39.372  11.577
59371W        W31631  44.454  33.101  11.383
59372W        W31632  34.030  20.164   3.316
59373W        W31633  24.981  17.603   1.282
59374W        W31634  24.227   8.890   3.830
59375W        W31635  16.078  20.717  12.034
59376W        W31636  36.021  43.301   4.599
59377W        W31637  23.147   4.916   0.383
59378W        W31638  17.583  24.698  12.035
59379W        W31639  28.162  21.262  14.983
59380W        W31640  10.379   4.345  12.005
59381W        W31641  17.742  12.251  12.925
59382W        W31642   8.212  38.902  12.517
59383W        W31643  34.881   5.715  14.446
59384W        W31644  29.044  12.742   4.133
59385W        W31645  42.955  32.113  14.429
59386W        W31646  39.850  38.930   0.388
59387W        W31647  16.677  37.910   0.304
59388W        W31648   7.297  34.462  12.895
59389W        W31649   5.760  24.700   0.473
59390W        W31650   8.719   8.879  12.970
59391W        W31651  23.600  30.093   0.813
59392W        W31652   8.172  44.491   0.371
59393W        W31653  22.233  38.861  14.331
59394W        W31654   0.892  11.325   1.406
59395W        W31655  44.432  24.600  13.513
59396W        W31656  32.443  34.925  14.815
59397W        W31657  35.047   9.210   2.809
59398W        W31658  19.046  42.948  10.594
59399W        W31659  41.839  18.719  14.847
59400W        W31660  36.571  20.151  13.330
59401W        W31661  21.706  26.026   3.336
59402W        W31662  35.951  43.334   3.649
59403W        W31663  28.506   8.185   0.418
59404W        W31664  35.004  36.536   3.809
59405W        W31665   8.671  28.499   4.824
59406W        W31666  33.892   1.463  13.396
59407W        W31667  24.144   3.710  13.323
59408W        W31668  27.047  32.100  10.580
59409W        W31669   5.913  34.424   1.247
59410W        W31670  40.372  33.392  11.540
59411W        W31671  31.558  13.325   4.214
59412W        W31672  35.364  18.112   4.199
59413W        W31673   7.698  26.701   5.237
59414W        W31674  41.417  40.529   4.234
59415W        W31675  18.227  30.465   1.379
59416W        W31676  30.544  13.109  12.974
59417W        W31677  14.166  17.711  13.846
59418W        W31678   3.900  36.591  13.336
59419W        W31679   0.305   5.798   1.789
59420W        W31680  19.153  27.121  13.460
59421W        W31681   4.319   3.449   0.357
59422W        W31682  31.586  12.679  10.484
59423W        W31683   6.735  39.907  11.579
59424W        W31684   9.196   9.170   3.835
59425W        W31685   1.827   7.306  13.342
59426W        W31686  33.521  38.548  13.958
59427W        W31687  39.539  26.518  12.356
59428W        W31688   6.868   9.802   3.677
59429W        W31689  36.990  18.141  10.156
59430W        W31690   1.335  11.675  13.528
59431W        W31691   7.729  24.185  13.369
59432W        W31692  13.265  38.359  10.975
59433W        W31693  14.331  18.118  10.460
59434W        W31694  26.468  16.576   0.397
59435W        W31695  35.490  20.224  14.323
59436W        W31696  30.989  31.506   1.768
59437W        W31697  30.543  41.886  12.955
59438W        W31698  23.697  38.963  14.368
59439W        W31699   0.957  17.166   3.383
59440W        W31700  24.636  30.913  10.893
59441W        W31701  31.920  13.707  14.973
59442W        W31702  14.834  33.114  10.982
59443W        W31703  20.030  14.176  11.522
59444W        W31704  24.159   3.786   2.900
59445W        W31705  32.057  39.055  13.965
59446W        W31706  11.320  19.601  13.870
59447W        W31707   9.781  11.212  10.613
59448W        W31708  34.417  20.704   3.766
59449W        W31709  11.258  20.066   3.686
59450W        W31710  17.160   0.956   1.413
59451W        W31711   0.987   6.333  12.939
59452W        W31712  10.870  19.730  12.031
59453W        W31713  35.517  11.641   4.274
59454W        W31714  37.495   2.854   0.885
59455W        W31715  22.687  12.302  10.889
59456W        W31716  43.359  10.853  12.413
59457W        W31717  39.983   0.880  11.050
59458W        W31718   1.468  43.340  11.011
59459W        W31719   3.343   5.706  14.314
59460W        W31720  42.507   1.819  14.415
59461W        W31721  27.646  29.044   3.703
59462W        W31722  26.467  37.881  12.465
59463W        W31723  42.373  18.646   3.368
59464W        W31724  34.392   6.712   1.442
59465W        W31725  30.153   6.381  12.838
59466W        W31726  20.599  20.644  10.965
59467W        W31727   6.870  36.459   3.714
59468W        W31728  14.142   4.274   3.840
59469W        W31729   1.867  38.510  10.494
59470W        W31730  22.085  28.131   9.643
59471W        W31731   6.790  30.636   4.782
59472W        W31732  22.584  28.976   2.402
59473W        W31733   8.350  18.288  12.458
59474W        W31734  23.113  41.836   1.316
59475W        W31735  36.500  12.715  14.432
59476W        W31736  29.979   0.921  11.608
59477W        W31737  14.627   8.746   1.227
59478W        W31738  17.764  20.077   1.226
59479W        W31739  35.503  20.659   1.716
59480W        W31740  41.917  11.131   1.779
59481W        W31741  44.330   8.706   2.299
59482W        W31742  25.549  11.264   3.822
59483W        W31743  15.185  33.958   3.379
59484W        W31744   6.276  39.413  10.956
59485W        W31745  11.213   7.808  12.442
59486W        W31746   6.406  32.990  12.554
59487W        W31747  22.062   8.193  13.405
59488W        W31748  18.125  38.476  14.275
59489W        W31749  25.164  34.531  10.586
59490W        W31750  38.881  39.329  10.556
59491W        W31751  16.141  31.932   1.235
59492W        W31752  17.127   0.937  13.953
59493W        W31753  35.520  18.777   4.296
59494W        W31754   5.786  44.432   0.266
59495W        W31755  10.179  17.758  11.489
59496W        W31756  24.549  28.614   4.645
59497W        W31757   2.962  38.914   4.789
59498W        W31758  43.888  19.668  12.421
59499W        W31759   7.774   7.324   5.179
59500W        W31760   6.741   5.224   4.120
59501W        W31761  17.690  23.706  10.934
59502W        W31762  40.534  22.201  11.874
59503W        W31763  37.871  39.441  12.460
59504W        W31764  26.650  15.161  12.551
59505W        W31765  10.833  14.165  10.506
59506W        W31766  24.134  27.106   9.656
59507W        W31767   5.407  10.853   0.334
59508W        W31768   8.230  16.776   3.311
59509W        W31769  25.657   4.318  12.411
59510W        W31770   1.315  15.620   4.332
59511W        W31771  25.177  32.003  12.941
59512W        W31772   3.783  37.061  10.461
59513W        W31773  37.832  40.832   3.793
59514W        W31774  26.581   0.829   2.361
59515W        W31775  43.010  18.208   2.709
59516W        W31776  41.958  12.278   4.703
59517W        W31777  16.635  12.183  12.565
59518W        W31778   2.874  19.047   0.769
59519W        W31779  39.888   4.838  12.884
59520W        W31780  10.768  41.973   1.297
59521W        W31781  19.052  27.654   0.423
59522W        W31782  12.317  23.548  10.567
59523W        W31783  26.462  20.247  12.929
59524W        W31784  39.833  27.970  10.595
59525W        W31785  12.131  14.182   1.890
59526W        W31786  20.106  10.275   4.678
59527W        W31787  11.346   8.389  13.056
59528W        W31788  20.181  20.083  13.308
59529W        W31789  19.075  21.227  10.475
59530W        W31790  22.626   0.484   4.229
59531W        W31791  16.075   1.440  13.483
59532W        W31792  34.448  24.546   1.912
59533W        W31793  36.892  17.137  12.551
59534W        W31794  14.209   8.892  12.857
59535W        W31795  35.504  11.132  12.981
59536W        W31796  19.668   0.987   4.634
59537W        W31797  15.168   9.209  10.494
59538W        W31798  39.424  28.590  13.910
59539W        W31799  10.341   2.864   4.173
59540W        W31800  20.177  10.215   3.661
59541W        W31801  35.060   2.893   2.275
59542W        W31802   1.375  10.632  14.860
59543W        W31803  25.553  25.968  14.342
59544W        W31804  42.883  20.139  13.934
59545W        W31805  18.618  33.947  13.904
59546W        W31806   3.250  16.266   1.258
59547W        W31807  26.972  25.194   0.764
59548W        W31808  27.047  29.059  10.549
59549W        W31809  40.964   8.849   2.859
59550W        W31810  43.351  14.301   4.164
59551W        W31811  41.374  10.294  11.949
59552W        W31812  13.659  13.764  10.609
59553W        W31813   3.307  42.338  14.812
59554W        W31814  10.213  15.279  14.515
59555W        W31815  42.324  40.365  12.050
59556W        W31816  31.479  25.157  11.933
59557W        W31817   1.303   0.438  11.589
59558W        W31818  15.653   4.312  12.365
59559W        W31819  24.556   2.315   3.352
59560W        W31820  14.735  42.825   2.733
59561W        W31821  16.172  26.032  10.923
59562W        W31822  17.692   7.369   4.686
59563W        W31823  23.015  34.894   4.739
59564W        W31824  31.564  26.568   4.294
59565W        W31825  28.565  29.547   3.771
59566W        W31826  37.988  28.083  13.058
59567W        W31827  13.799   7.299   3.197
59568W        W31828  25.083  44.871  10.410
59569W        W31829  42.468  20.081  12.014
59570W        W31830  25.511  20.617   0.450
59571W        W31831  33.530  37.007  11.530
59572W        W31832  16.141  22.571  10.921
59573W        W31833  23.207  19.282   5.578
59574W        W31834  32.986  27.483  11.585
59575W        W31835  22.165  25.160  14.395
59576W        W31836  24.035  18.734   0.958
59577W        W31837  32.500   9.735   4.815
59578W        W31838  29.105  41.821   3.863
59579W        W31839   4.749  29.637   4.160
59580W        W31840  22.633  44.858  14.945
59581W        W31841  24.064  21.129  12.376
59582W        W31842  30.582   9.190   2.193
59583W        W31843  24.127  41.320  10.559
59584W        W31844  30.039  40.988   0.293
59585W        W31845  15.166   4.329  12.084
59586W        W31846  21.075  25.592   0.446
59587W        W31847  10.819  32.909   0.430
59588W        W31848  12.769  18.069   3.767
59589W        W31849  36.004   9.725  14.337
59590W        W31850  17.077   7.826  14.760
59591W        W31851  13.325  31.078   3.384
59592W        W31852   1.925   2.302   4.220
59593W        W31853  19.553  44.362  13.903
59594W        W31854  42.887  37.455  13.980
59595W        W31855  10.752  35.548   1.791
59596W        W31856  36.034  23.718  13.360
59597W        W31857   2.924  41.462  13.324
59598W        W31858  11.781  34.387   5.181
59599W        W31859  21.630  42.778   2.698
59600W        W31860  43.419  29.463   0.941
59601W        W31861  34.415  15.711   0.959
59602W        W31862  19.721   4.281   0.372
59603W        W31863   8.343   1.843   4.210
59604W        W31864  10.671  23.615   2.416
59605W        W31865  30.582  39.356   4.256
59606W        W31866  28.448  19.735   4.616
59607W        W31867   6.831  34.529   1.907
59608W        W31868  20.646  22.625  14.784
59609W        W31869   2.457   6.378   0.452
59610W        W31870  33.098   8.241  14.498
59611W        W31871  26.620   8.391   0.875
59612W        W31872  36.920  21.215   4.759
59613W        W31873  26.519  20.581  11.509
59614W        W31874  41.327  36.514   3.856
59615W        W31875  37.507  21.249  12.944
59616W        W31876  21.559  11.761  14.777
59617W        W31877  31.505  43.452  13.335
59618W        W31878  16.716  23.587   2.761
59619W        W31879  13.286  34.991  11.112
59620W        W31880  36.900   4.936  14.432
59621W        W31881   3.754  13.120  14.329
59622W        W31882  17.263  41.830  12.933
59623W        W31883   7.323   9.697   2.716
59624W        W31884  34.547  15.253  11.480
59625W        W31885   9.652  36.590   2.697
59626W        W31886   3.294   6.287  11.984
59627W        W31887  36.951  16.167  14.507
59628W        W31888  26.637  36.057  12.039
59629W        W31889  43.947   2.960  12.402
59630W        W31890   6.914   2.765  13.331
59631W        W31891  10.760  10.744   2.680
59632W        W31892  16.262  43.455  11.563
59633W        W31893   8.736   6.401   4.202
59634W        W31894  34.983  36.945   2.414
59635W        W31895  23.174  35.962   3.650
59636W        W31896  41.909  43.014   3.366
59637W        W31897  16.751  27.179  11.887
59638W        W31898   9.361   2.409  12.534
59639W        W31899  19.276  12.833  14.981
59640W        W31900   9.269   9.234  12.851
59641W        W31901  18.650   4.420  11.871
59642W        W31902  42.466   8.719   1.220
59643W        W31903  19.620  12.831  14.429
59644W        W31904   8.668  30.931  14.007
59645W        W31905   1.867   3.246   3.826
59646W        W31906   2.262  42.838  11.023
59647W        W31907  35.474  14.706   0.341
59648W        W31908  42.309  19.724  11.975
59649W        W31909  28.963  44.361  14.945
59650W        W31910  27.135   7.239  12.046
59651W        W31911  44.930   0.280   4.310
59652W        W31912   6.264   8.285   4.339
59653W        W31913  30.151  27.038   2.761
59654W        W31914  28.631  26.132   4.118
59655W        W31915   9.329  12.135   4.757
59656W        W31916  23.721   0.752   0.277
59657W        W31917  18.585  41.387   2.323
59658W        W31918  40.433   9.354  12.495
59659W        W31919  44.338   7.315   1.407
59660W        W31920  17.709   3.368  13.370
59661W        W31921  16.738  25.628   0.820
59662W        W31922   5.709  38.030  11.425
59663W        W31923  20.616  21.211  13.849
59664W        W31924  11.679  35.560  10.504
59665W        W31925  21.566  27.999   0.741
59666W        W31926   4.851  25.966  10.048
59667W        W31927  44.262  42.327   0.446
59668W        W31928  12.280  23.730  13.810
59669W        W31929  37.999  18.154   0.400
59670W        W31930  19.210   8.851  11.500
59671W        W31931  26.992  17.288  13.499
59672W        W31932  26.955  40.015   0.786
59673W        W31933  42.865   6.268   2.808
59674W        W31934  18.188  22.599   1.237
59675W        W31935   4.723  16.798  10.610
59676W        W31936  29.926  27.522   0.404
59677W        W31937  38.517   3.898  14.513
59678W        W31938  28.186  34.048  11.506
59679W        W31939  37.087  35.010   0.419
59680W        W31940  20.156  27.003  13.054
59681W        W31941  16.154  35.978  14.836
59682W        W31942  42.327  18.212  11.469
59683W        W31943   8.686   7.899  10.558
59684W        W31944  18.754  42.421  11.573
59685W        W31945  29.949  40.397   1.876
59686W        W31946   2.322  28.039   2.703
59687W        W31947  35.452  40.884  11.536
59688W        W31948  33.514   4.717   0.802
59689W        W31949  29.547   4.917   0.360
59690W        W31950  13.347  27.592   9.638
59691W        W31951  13.695   2.795   3.332
59692W        W31952  15.266  16.755  10.622
59693W        W31953  12.745  21.136   4.332
59694W        W31954  14.670  39.863   2.902
59695W        W31955  19.066  22.096   4.688
59696W        W31956  43.301  37.857   3.732
59697W        W31957   7.706  17.153   4.291
59698W        W31958  35.565  27.194   1.852
59699W        W31959  15.809   2.241  12.411
59700W        W31960  15.106  16.799   3.365
59701W        W31961   2.362   7.237   1.891
59702W        W31962  44.292   3.458   1.694
59703W        W31963   8.186  32.042   5.291
59704W        W31964  39.023  42.850   4.183
59705W        W31965  11.276  14.151   4.237
59706W        W31966  43.795  27.562   1.851
59707W        W31967  43.403  21.156  13.481
59708W        W31968  43.284  28.521  14.480
59709W        W31969  41.003  23.222   3.222
59710W        W31970  33.985   4.444   0.869
59711W        W31971  16.641  10.261  10.995
59712W        W31972  28.571  30.615   0.749
59713W        W31973  35.974  32.988  11.934
59714W        W31974   1.240  37.937   2.901
59715W        W31975  36.064  12.720   2.417
59716W        W31976  18.744  10.249   4.782
59717W        W31977  26.475  10.272   3.724
59718W        W31978  15.709   8.808   3.803
59719W        W31979  34.422   3.925  10.472
59720W        W31980  19.727   7.350  13.535
59721W        W31981  21.033  39.838   1.385
59722W        W31982  17.712  16.269   3.250
59723W        W31983   6.347  34.872  11.395
59724W        W31984  14.188  12.776  12.884
59725W        W31985   0.377  40.325  12.946
59726W        W31986  11.644  25.039   0.297
59727W        W31987  26.661  40.024  12.384
59728W        W31988  23.619  23.519   0.919
59729W        W31989  41.509   4.223  12.357
59730W        W31990  22.541  15.129  10.497
59731W        W31991  16.087   3.457  14.943
59732W        W31992  41.996  16.579  13.880
59733W        W31993   2.804  33.056  13.803
59734W        W31994   5.205  16.160  13.053
59735W        W31995  17.157  16.781   3.163
59736W        W31996  36.028  39.010   1.893
59737W        W31997  38.867  26.607   3.253
59738W        W31998  28.565  15.653   4.264
59739W        W31999  13.710  40.365   4.816
59740W        W32000   8.679  26.078   0.947
59741W        W32001  41.483   0.831   1.401
59742W        W32002  15.084   0.486   2.761
59743W        W32003  27.966  18.783   0.870
59744W        W32004  44.441  41.526  11.495
59745W        W32005  36.524  43.793   4.725
59746W        W32006   6.317   7.870   9.929
59747W        W32007  21.584   4.775   2.860
59748W        W32008  19.042   4.267  11.926
59749W        W32009  26.097   6.810   0.961
59750W        W32010   3.955  39.416  10.896
59751W        W32011  16.772  41.470   3.832
59752W        W32012  31.507  16.720  10.501
59753W        W32013   8.771  21.668  11.910
59754W        W32014  40.523  40.006   0.262
59755W        W32015  42.370  18.760   1.419
59756W        W32016  36.412  22.238   1.227
59757W        W32017  42.911   0.466  14.795
59758W        W32018  16.715  14.177  13.509
59759W        W32019  17.078  26.962  12.551
59760W        W32020  16.317   7.410  13.516
59761W        W32021  30.582  18.106   0.398
59762W        W32022   6.344  33.572   3.210
59763W        W32023  21.149  29.588  10.564
59764W        W32024   3.870  21.048  13.464
59765W        W32025   2.470  14.123   5.139
59766W        W32026  25.665  20.030  12.354
59767W        W32027   2.933  14.671   2.838
59768W        W32028  26.077  13.824   2.744
59769W        W32029  16.715  44.407  12.956
59770W        W32030  10.195  17.213  13.405
59771W        W32031   6.418  39.491   0.965
59772W        W32032  27.649  21.039   0.360
59773W        W32033  35.096  34.034   2.682
59774W        W32034  28.567   1.894   1.900
59775W        W32035  16.738  30.983   1.718
59776W        W32036  22.103   0.294  10.986
59777W        W32037   9.177  21.632   1.444
59778W        W32038   4.863  27.029  11.977
59779W        W32039  18.628   1.876   3.639
59780W        W32040  44.849  31.106  10.585
59781W        W32041  15.620  38.559   2.791
59782W        W32042   5.859  22.067  13.326
59783W        W32043  25.099  43.280  11.445
59784W        W32044  10.208  18.755  12.021
59785W        W32045   3.866  41.420   3.829
59786W        W32046   5.771  11.196   3.670
59787W        W32047  20.644  19.540  13.900
59788W        W32048  13.632  25.665  12.525
59789W        W32049  19.663  12.294  12.536
59790W        W32050  30.501  44.483   3.375
59791W        W32051  35.525  23.186   0.458
59792W        W32052  23.541   6.372  13.525
59793W        W32053  23.085  44.332   0.738
59794W        W32054  14.754  10.381  10.469
59795W        W32055  32.505  44.345   3.202
59796W        W32056   9.264  30.616   3.666
59797W        W32057  27.637  41.308   5.803
59798W        W32058   7.398   6.866  12.979
59799W        W32059  32.921  29.437  12.580
59800W        W32060  18.624  18.659  11.384
59801W        W32061  35.031   5.334   1.350
59802W        W32062  27.488   8.875   2.838
59803W        W32063  14.326  32.925   4.791
59804W        W32064   0.937  18.099  12.403
59805W        W32065  43.901  37.538  10.609
59806W        W32066  33.415  20.125   4.762
59807W        W32067  43.948  36.896   0.357
59808W        W32068  31.103   2.290  14.372
59809W        W32069  32.487  36.916  11.435
59810W        W32070   9.848  26.471  14.513
59811W        W32071   3.866  25.602  13.807
59812W        W32072  21.694  23.681  14.866
59813W        W32073  20.545  35.972  10.566
59814W        W32074  34.976  21.540  12.455
59815W        W32075  18.719  44.315   4.189
59816W        W32076   5.870   9.367   2.710
59817W        W32077   8.710  44.834  14.401
59818W        W32078  38.470   8.665  10.067
59819W        W32079  33.072  36.525  12.455
59820W        W32080   6.278  22.232  14.005
59821W        W32081  35.403  38.487  12.980
59822W        W32082   6.763  37.461  12.536
59823W        W32083  23.151   9.664  14.276
59824W        W32084  32.004  38.006   1.265
59825W        W32085  16.739  21.180   1.699
59826W        W32086  13.635   0.327  14.960
59827W        W32087  18.119  27.475  12.404
59828W        W32088  31.616  25.677  10.919
59829W        W32089  16.579  29.036  13.876
59830W        W32090  41.455  38.001   5.206
59831W        W32091  33.006  12.821   3.703
59832W        W32092  22.133  30.946   3.314
59833W        W32093  33.562  14.595  14.296
59834W        W32094  13.675  35.100   0.473
59835W        W32095  18.709  22.137   2.248
59836W        W32096  32.450  27.627  11.917
59837W        W32097   5.343   0.860   0.864
59838W        W32098  11.371  34.970   3.797
59839W        W32099  28.029  39.557  11.948
59840W        W32100  43.932  43.277  13.411
59841W        W32101  36.906  22.609  12.528
59842W        W32102  28.076   7.784  10.558
59843W        W32103  24.588  19.052   3.826
59844W        W32104   2.432   6.215  10.916
59845W        W32105   9.861  13.724  12.443
59846W        W32106  42.916   5.892   3.758
59847W        W32107   3.291  16.775   3.669
59848W        W32108  40.338  24.175   2.383
59849W        W32109  27.563   0.413   1.339
59850W        W32110  34.378  44.971   4.206
59851W        W32111   7.776  19.221  13.865
59852W        W32112  15.092  34.026  14.938
59853W        W32113  13.789  18.559   1.752
59854W        W32114   2.872  40.802   2.181
59855W        W32115   2.329   8.245  12.032
59856W        W32116   3.338  16.772   0.409
59857W        W32117   6.248  12.748  10.901
59858W        W32118  13.131  15.660  11.897
59859W        W32119  44.754  20.272  11.996
59860W        W32120  43.454  25.053   5.280
59861W        W32121  30.605  26.673  14.291
59862W        W32122  14.259  11.265  13.962
59863W        W32123  11.253  10.276  10.913
59864W        W32124  33.877  40.359   3.262
59865W        W32125   3.722   0.387   2.776
59866W        W32126  25.651  17.271   1.922
59867W        W32127   7.360   2.427  14.819
59868W        W32128   9.172  16.098  13.941
59869W        W32129   9.857  33.092   0.819
59870W        W32130  11.316  28.525   5.120
59871W        W32131  33.880  30.482   2.714
59872W        W32132  40.812  36.948  13.884
59873W        W32133   4.206   1.901  12.983
59874W        W32134   8.245  17.286  11.997
59875W        W32135  34.429   4.925  13.998
59876W        W32136   6.302  18.156   3.312
59877W        W32137  41.436  14.826  14.954
59878W        W32138  37.474  24.199  11.972
59879W        W32139  13.308  20.263   1.917
59880W        W32140   5.287   9.796  12.462
59881W        W32141  20.738  15.623   2.287
59882W        W32142  15.609  26.554   3.736
59883W        W32143  20.036  37.470  13.341
59884W        W32144  25.201  15.286   4.253
59885W        W32145  35.407   5.342   0.361
59886W        W32146  38.519  22.693  11.055
59887W        W32147  35.424  18.068   0.809
59888W        W32148  27.556  18.223   4.172
59889W        W32149  40.867  24.975   4.666
59890W        W32150  39.964  40.812   0.944
59891W        W32151  17.787   9.846  12.021
59892W        W32152   1.318   4.289  13.315
59893W        W32153  15.718  17.223  13.987
59894W        W32154  23.049   9.165  11.022
59895W        W32155  38.017  15.792   1.380
59896W        W32156  44.426  42.315  13.535
59897W        W32157  21.695  36.096  11.861
59898W        W32158  44.279  25.989  14.820
59899W        W32159  17.095  32.011   1.821
59900W        W32160  40.830  12.787   1.425
59901W        W32161  35.486  33.521  11.025
59902W        W32162  18.214   3.749   2.335
59903W        W32163   5.873   1.319   4.118
59904W        W32164   2.260   5.825   4.616
59905W        W32165  27.597  31.603  13.815
59906W        W32166  22.520  29.434   9.946
59907W        W32167  18.216  17.742  11.017
59908W        W32168   3.737  44.885  13.422
59909W        W32169   9.667   0.401   0.730
59910W        W32170   0.789   5.812   0.439
59911W        W32171  41.953  27.946  10.520
59912W        W32172   9.186   6.382  11.436
59913W        W32173  12.828  26.076  12.940
59914W        W32174  23.665  42.819   4.696
59915W        W32175  35.589  21.650   9.467
59916W        W32176  21.729   5.883   2.251
59917W        W32177  43.973  33.420  12.920
59918W        W32178   9.803  41.505   0.768
59919W        W32179  12.814  16.781  11.589
59920W        W32180  16.073  43.511  10.986
59921W        W32181   5.688  23.591  12.911
59922W        W32182  40.958   6.298  12.831
59923W        W32183   8.839   9.373  11.952
59924W        W32184  13.264  20.754  13.385
59925W        W32185  37.440  21.058  13.313
59926W        W32186  15.087  33.559   4.156
59927W        W32187   1.263  14.122  11.547
59928W        W32188  44.309  16.193  14.475
59929W        W32189   1.457  35.383   1.711
59930W        W32190  26.066  15.607  12.830
59931W        W32191  34.004  39.010  13.904
59932W        W32192  20.144  44.944  12.990
59933W        W32193  26.102  39.451   4.797
59934W        W32194   4.343  22.114   3.332
59935W        W32195   4.817   5.749   1.826
59936W        W32196  44.959  26.670  13.792
59937W        W32197   7.671   9.704  12.938
59938W        W32198   5.814  23.621   4.254
59939W        W32199   2.738  33.084  14.371
59940W        W32200  10.860  31.592   4.667
59941W        W32201  24.178  31.600  11.068
59942W        W32202  34.606  25.693  11.987
59943W        W32203  23.024  28.546  13.425
59944W        W32204   7.729  31.430   0.376
59945W        W32205   4.942  30.601   9.999
59946W        W32206  11.320  35.544  10.493
59947W        W32207  10.287  14.096   1.912
59948W        W32208  39.450  38.838  13.809
59949W        W32209  36.850  31.545  10.954
59950W        W32210  15.308  16.668  13.545
59951W        W32211  29.499   3.923   1.316
59952W        W32212  30.013  19.564   4.770
59953W        W32213  16.284  44.886   2.196
59954W        W32214  11.786  28.948   0.390
59955W        W32215   1.265  39.981   0.451
59956W        W32216  25.641  43.774  12.846
59957W        W32217  12.335  23.624   3.723
59958W        W32218  35.078  21.059  13.036
59959W        W32219  18.581  30.070  13.867
59960W        W32220  26.456   3.380   1.910
59961W        W32221  18.583  12.611   2.370
59962W        W32222  12.715   9.169   0.753
59963W        W32223  33.077  40.976   4.614
59964W        W32224  10.846  22.558   0.335
59965W        W32225  18.121  19.574   2.376
59966W        W32226  38.926  29.153  13.001
59967W        W32227   8.242   4.894   1.790
59968W        W32228  19.695  24.651   4.730
59969W        W32229  27.558   9.810  12.536
59970W        W32230  39.023  25.118   1.344
59971W        W32231   0.493  25.537  11.950
59972W        W32232  14.622   1.977  14.900
59973W        W32233  24.641  41.379   4.217
59974W        W32234  39.381  19.068   4.266
59975W        W32235   7.321   0.825  14.406
59976W        W32236  34.529  12.278  12.577
59977W        W32237   3.737  24.013  11.400
59978W        W32238   9.834  17.660   4.806
59979W        W32239   5.770  36.996  12.523
59980W        W32240  43.833  34.605   0.250
59981W        W32241  18.709  10.175  11.413
59982W        W32242   5.308   2.907  14.324
59983W        W32243   8.695  19.136  11.883
59984W        W32244  25.166   2.949   0.829
59985W        W32245   1.849  42.510   2.189
59986W        W32246  33.131  39.901   1.841
59987W        W32247   1.906  13.248   0.939
59988W        W32248  35.921   3.276  11.883
59989W        W32249  38.404  24.023   4.209
59990W        W32250  44.341  40.329  11.516
59991W        W32251  44.354   0.334  13.388
59992W        W32252  13.122  11.224  13.482
59993W        W32253  36.414   8.359   0.466
59994W        W32254  30.496  16.782  14.840
59995W        W32255   3.818  33.540  11.943
59996W        W32256  10.180   5.283   1.335
59997W        W32257  24.144  40.964  11.046
59998W        W32258   0.925  44.264   2.867
59999W        W32259  14.097  15.802  10.408
60000W        W32260  23.043  39.348  12.030
60001W        W32261  34.425  33.399   1.302
60002W        W32262  41.517  12.801  14.350
60003W        W32263   3.855  31.078   0.364
60004W        W32264  31.933   4.932  12.477
60005W        W32265  42.304  10.695  12.912
60006W        W32266  26.635   2.260   0.729
60007W        W32267  35.003   6.407   1.312
60008W        W32268  17.071   3.915   4.350
60009W        W32269  10.714  36.466  11.898
60010W        W32270  24.703   5.417   0.864
60011W        W32271  29.618  42.008   1.792
60012W        W32272   3.272   6.888   2.281
60013W        W32273   5.806  40.031   4.119
60014W        W32274   4.212  31.410  10.908
60015W        W32275  15.661  19.221   3.814
60016W        W32276   3.723   7.329   1.228
60017W        W32277   9.824  19.264  12.977
60018W        W32278  19.609  26.102   0.770
60019W        W32279   7.823  30.914   2.844
60020W        W32280   3.936  29.611  14.839
60021W        W32281   9.201  11.680  13.535
60022W        W32282  42.901  29.053   9.943
60023W        W32283  24.548  18.629  10.899
60024W        W32284  30.118   3.366   4.187
60025W        W32285   7.247  32.143  13.820
60026W        W32286  15.133  42.009   2.225
60027W        W32287  26.005   0.938   1.438
60028W        W32288  31.105  17.166  13.538
60029W        W32289  41.899  21.534  11.507
60030W        W32290  31.599  30.032   0.327
60031W        W32291  31.058  35.957   2.219
60032W        W32292  17.660   9.227   3.187
60033W        W32293  32.538  43.802  12.395
60034W        W32294  44.011  25.558  14.795
60035W        W32295   1.457   5.728   4.131
60036W        W32296  26.499  32.968   0.768
60037W        W32297  17.214   3.224  12.076
60038W        W32298  27.060  42.972   0.745
60039W        W32299  17.284  39.905   3.805
60040W        W32300   9.224  12.700  10.455
60041W        W32301  39.969  40.536  11.594
60042W        W32302  18.742  36.996  14.374
60043W        W32303  42.999   5.404   2.797
60044W        W32304  25.176  23.671   0.944
60045W        W32305  11.843  35.592  14.866
60046W        W32306  26.463  40.547  13.385
60047W        W32307  18.773  30.539   5.268
60048W        W32308   6.802  18.094   3.319
60049W        W32309  38.391  22.553  11.400
60050W        W32310  32.576  13.140   0.755
60051W        W32311   7.867   7.318  11.092
60052W        W32312  21.664  32.421  10.476
60053W        W32313  21.530  23.181   2.274
60054W        W32314   0.444  35.109  12.476
60055W        W32315  20.711  35.005  12.433
60056W        W32316  42.032  19.545  10.088
60057W        W32317  16.207  38.400  10.572
60058W        W32318  12.663  38.071  12.902
60059W        W32319   7.244  15.213  10.533
60060W        W32320  28.088   7.345  11.933
60061W        W32321  34.598   9.302   3.175
60062W        W32322  13.180   1.350  12.993
60063W        W32323   9.308  33.387   0.374
60064W        W32324  33.880  34.055   0.947
60065W        W32325   3.904   3.846   0.416
60066W        W32326  29.975  36.006  12.552
60067W        W32327  14.631  21.109  14.807
60068W        W32328   3.735  33.037   2.891
60069W        W32329  37.474   3.765   2.708
60070W        W32330  29.136  19.133  14.762
60071W        W32331  16.579  22.041   4.658
60072W        W32332  34.078   8.762   1.767
60073W        W32333   9.379  40.424  11.951
60074W        W32334  43.371  27.988   1.791
60075W        W32335  37.461   9.358   5.680
60076W        W32336  27.187  34.381   3.176
60077W        W32337   9.774  28.486   2.392
60078W        W32338   2.410   6.736   4.597
60079W        W32339  30.086  39.001   4.257
60080W        W32340   7.728  44.432   3.869
60081W        W32341  16.795   3.939   4.643
60082W        W32342  31.041  33.943  12.839
60083W        W32343  23.730  11.743   2.884
60084W        W32344  22.546  22.542   3.661
60085W        W32345  27.464  36.968  14.498
60086W        W32346   5.282  30.648   3.278
60087W        W32347  18.641  40.488  11.895
60088W        W32348  27.533  10.729  13.002
60089W        W32349   8.341  36.918   0.378
60090W        W32350   2.736  44.795   2.377
60091W        W32351   1.955   0.765   1.280
60092W        W32352  13.151  25.029  12.454
60093W        W32353   8.238  16.220  14.021
60094W        W32354  23.592  28.446  13.843
60095W        W32355  16.189  37.555   4.284
60096W        W32356  23.032  14.738  11.536
60097W        W32357  40.482  25.536   4.682
60098W        W32358  12.808   3.936  13.042
60099W        W32359  33.094   0.297  14.759
60100W        W32360  33.500  28.649   4.243
60101W        W32361  26.995  41.913   5.162
60102W        W32362  20.054  22.117  14.391
60103W        W32363  35.574  30.998   3.186
60104W        W32364  17.100  40.375  13.958
60105W        W32365   9.706  29.087   2.785
60106W        W32366  36.854   5.256  12.083
60107W        W32367  41.462  29.523   0.419
60108W        W32368   5.749  22.076   1.873
60109W        W32369   8.269   3.790  12.043
60110W        W32370  17.273  17.163  12.523
60111W        W32371   4.941   1.476  12.881
60112W        W32372  15.135   0.276  14.462
60113W        W32373  31.098  28.662   2.232
60114W        W32374  34.923  43.811   2.842
60115W        W32375  31.481  33.468  13.026
60116W        W32376  22.688  13.221   4.648
60117W        W32377  32.633  24.191   2.342
60118W        W32378  22.621   1.790  10.643
60119W        W32379  24.975   1.966   4.323
60120W        W32380  33.447  30.032  10.925
60121W        W32381  15.286  33.104   4.661
60122W        W32382   1.782  13.222   2.738
60123W        W32383  17.691  10.151  10.538
60124W        W32384   4.821  23.651  12.367
60125W        W32385  31.501  18.731  10.620
60126W        W32386  21.066  25.605  11.871
60127W        W32387   2.244  34.482   9.930
60128W        W32388  40.438  17.227   4.766
60129W        W32389   2.727   5.273  14.386
60130W        W32390   3.758  28.659   0.923
60131W        W32391  24.040  15.655  11.901
60132W        W32392  13.641  10.367   4.233
60133W        W32393   5.721   4.867   2.268
60134W        W32394  39.446  33.125   4.752
60135W        W32395   8.797  35.487  14.909
60136W        W32396  34.523  12.166   2.374
60137W        W32397  24.216  20.766  13.791
60138W        W32398   2.872  19.553  14.341
60139W        W32399  21.569  10.300   1.212
60140W        W32400  38.468  31.064   1.844
60141W        W32401  16.210  39.411  10.558
60142W        W32402   1.859  20.134   4.134
60143W        W32403  16.613  24.593  11.419
60144W        W32404  19.255  37.059   2.730
60145W        W32405  12.181   0.358  11.872
60146W        W32406  30.074  23.507   1.725
60147W        W32407  37.352  41.999   0.354
60148W        W32408  41.030  36.444   4.702
60149W        W32409  17.777  10.245   4.723
60150W        W32410  22.204   3.239  14.934
60151W        W32411  22.607  23.736  11.517
60152W        W32412  11.713  22.248   4.761
60153W        W32413  28.593  17.781  14.429
60154W        W32414   2.375  20.246  12.057
60155W        W32415  41.333  20.595  13.831
60156W        W32416  42.405  32.409   4.752
60157W        W32417   8.313  14.606   4.160
60158W        W32418  36.476   4.301  10.634
60159W        W32419  20.593  42.025   2.809
60160W        W32420  44.335  23.731   9.973
60161W        W32421  29.973  44.343   2.829
60162W        W32422  40.037  10.689   3.793
60163W        W32423   7.385  30.486   1.411
60164W        W32424  42.481  17.590   0.882
60165W        W32425   2.397  12.723   1.902
60166W        W32426  40.527   9.804   0.804
60167W        W32427  16.633  35.500  14.782
60168W        W32428  24.499  15.142  14.409
60169W        W32429   3.757   4.745   3.214
60170W        W32430  29.654  25.530  10.644
60171W        W32431  10.357  11.187  14.442
60172W        W32432   5.391   8.850   0.364
60173W        W32433   1.902  20.681   3.736
60174W        W32434  14.657  31.483  11.568
60175W        W32435  24.064  14.747   1.338
60176W        W32436   4.410   6.855   4.624
60177W        W32437  24.153   5.698  13.049
60178W        W32438   6.352  21.178   1.236
60179W        W32439   2.337  10.300   2.239
60180W        W32440   5.732  18.133   2.364
60181W        W32441  31.601   6.270  12.864
60182W        W32442   7.873   7.722  13.943
60183W        W32443  14.150   2.844  14.316
60184W        W32444   5.233  40.531  10.889
60185W        W32445  37.505   7.827  14.448
60186W        W32446  35.459   5.912  13.365
60187W        W32447  40.534  30.910   2.755
60188W        W32448  30.630  23.528   0.356
60189W        W32449   5.231   6.318   2.799
60190W        W32450  27.966   6.415  12.448
60191W        W32451  14.819   5.328  10.597
60192W        W32452  41.534  41.396   0.376
60193W        W32453  34.998  17.790   2.839
60194W        W32454  41.341  40.524  11.957
60195W        W32455  24.988  19.075  11.421
60196W        W32456  13.117  34.443  14.028
60197W        W32457  33.072  27.020  13.813
60198W        W32458   9.392  32.463   1.870
60199W        W32459  27.551  27.976  13.507
60200W        W32460  31.412  44.333  11.534
60201W        W32461  15.670  38.951   4.702
60202W        W32462   9.695   1.440   0.271
60203W        W32463  24.569  19.738  11.005
60204W        W32464  29.526  29.653  14.827
60205W        W32465  38.012   5.325  14.859
60206W        W32466  31.604   9.165   2.300
60207W        W32467  33.597  41.397   0.465
60208W        W32468  36.396   9.391  14.350
60209W        W32469  12.316  40.354  14.898
60210W        W32470  38.407   3.407  13.422
60211W        W32471   5.886  34.525  11.055
60212W        W32472  26.082  24.982  12.404
60213W        W32473   8.717   7.727  13.399
60214W        W32474  11.657  36.451  10.635
60215W        W32475  24.605  38.960  13.806
60216W        W32476  33.575  30.427  12.011
60217W        W32477   6.744  28.625   0.893
60218W        W32478  22.680  21.701   2.235
60219W        W32479  34.424  29.495   1.705
60220W        W32480  30.484  19.644  11.552
60221W        W32481  43.768  33.917   1.289
60222W        W32482  36.378  12.739   0.421
60223W        W32483  16.310  10.345   3.787
60224W        W32484   6.388   5.906  14.430
60225W        W32485   2.417   6.897   2.791
60226W        W32486  40.399  43.419  11.129
60227W        W32487  42.933  38.908   5.244
60228W        W32488  10.831  11.144   1.714
60229W        W32489  43.836  14.809   0.351
60230W        W32490  30.606  14.183   3.762
60231W        W32491  16.180   9.680  12.094
60232W        W32492  27.154   5.250  14.431
60233W        W32493  40.466  40.932   2.418
60234W        W32494  37.547   0.872   0.818
60235W        W32495  19.705  11.765   2.398
60236W        W32496  41.953  26.166   1.351
60237W        W32497  40.968  39.909   2.319
60238W        W32498   2.312  12.159  12.894
60239W        W32499   3.443  31.041   3.767
60240W        W32500   8.207  23.996  13.373
60241W        W32501  38.339   7.844  13.349
60242W        W32502  30.928  32.455   9.549
60243W        W32503   1.392  33.437   4.302
60244W        W32504  38.495  38.432  13.403
60245W        W32505   4.850  27.958  14.430
60246W        W32506   0.310  23.500   0.422
60247W        W32507  17.600  17.702   1.339
60248W        W32508  42.857   3.888  11.106
60249W        W32509   6.198  19.160  12.010
60250W        W32510  25.218  41.923  14.875
60251W        W32511  33.124   1.405  14.485
60252W        W32512   9.682  36.384   0.731
60253W        W32513   9.867  37.501   0.371
60254W        W32514  24.013   6.712   0.806
60255W        W32515   9.395  31.071   2.399
60256W        W32516  34.937  16.595   4.151
60257W        W32517  18.286  21.221   4.634
60258W        W32518   5.833   1.302   2.894
60259W        W32519  23.227  25.625   1.775
60260W        W32520  27.660  28.447   2.225
60261W        W32521  25.098  43.824   4.257
60262W        W32522  30.456  28.577   3.726
60263W        W32523  11.762  17.199  13.930
60264W        W32524  12.686  13.269  14.998
60265W        W32525   6.893  32.543  14.866
60266W        W32526  29.444  31.420  10.492
60267W        W32527   3.327  27.018  14.881
60268W        W32528  19.075  22.520  14.891
60269W        W32529  28.933  28.599  11.412
60270W        W32530  21.255  28.462  10.913
60271W        W32531  21.261  23.127  14.362
60272W        W32532   9.820  34.450   3.367
60273W        W32533  28.675  29.016   1.776
60274W        W32534   2.266   1.388   3.862
60275W        W32535   4.439  43.819  13.340
60276W        W32536  11.182  38.359  11.539
60277W        W32537  12.186  24.158   2.303
60278W        W32538  23.078  43.841   0.900
60279W        W32539  39.884   2.905  10.449
60280W        W32540  37.944  24.979   3.789
60281W        W32541  14.815  31.572   3.376
60282W        W32542  38.419  42.316   4.659
60283W        W32543  37.578   1.385  13.919
60284W        W32544  30.500  28.447   0.799
60285W        W32545  41.020  33.437   0.464
60286W        W32546   4.268  40.802   4.770
60287W        W32547   0.813  28.605  11.879
60288W        W32548  11.707  36.019   0.745
60289W        W32549  20.135  25.998   0.922
60290W        W32550  21.575   1.898  13.010
60291W        W32551   5.852  34.088  14.952
60292W        W32552   0.272  26.506   3.657
60293W        W32553  16.248   3.275   5.194
60294W        W32554  30.017  17.066   1.296
60295W        W32555  23.560   0.376   3.171
60296W        W32556  26.025  38.517  10.576
60297W        W32557  18.258  15.662   0.331
60298W        W32558  34.591  33.395   3.792
60299W        W32559   1.950   4.286   4.182
60300W        W32560   2.279  30.101   4.354
60301W        W32561  29.059  15.282   0.326
60302W        W32562  18.553  40.328  14.014
60303W        W32563  42.950  14.832   4.710
60304W        W32564  32.120  42.478   2.269
60305W        W32565  18.665   9.357   2.781
60306W        W32566   0.285   5.908   3.218
60307W        W32567  44.377  41.860   4.687
60308W        W32568  41.799  12.153  10.991
60309W        W32569   6.731  15.658   3.840
60310W        W32570  22.671  23.234  11.894
60311W        W32571  23.697  33.408   2.252
60312W        W32572  39.034  17.759   2.358
60313W        W32573  32.406  32.617   0.766
60314W        W32574  18.084  40.492  13.484
60315W        W32575  23.508  42.502   1.731
60316W        W32576  33.997  17.656   0.772
60317W        W32577  29.939  43.473  13.393
60318W        W32578  18.742  19.272  14.853
60319W        W32579   0.860  39.031   5.277
60320W        W32580  22.603   7.226   0.889
60321W        W32581  18.631   3.392   2.198
60322W        W32582   7.835  32.565  11.058
60323W        W32583  13.221  36.937   1.439
60324W        W32584   5.872  13.112   4.208
60325W        W32585   2.815  14.338   3.293
60326W        W32586  13.170   5.281  10.573
60327W        W32587   9.254   0.973   0.833
60328W        W32588  15.597  10.691  14.323
60329W        W32589  11.253  33.572  12.460
60330W        W32590  30.435  18.601  13.880
60331W        W32591  19.264   7.680   2.854
60332W        W32592  42.522  29.943   3.181
60333W        W32593  33.596  13.180   0.253
60334W        W32594  19.641  14.174   1.770
60335W        W32595  42.830   9.309  11.413
60336W        W32596  12.723  26.139   4.296
60337W        W32597  12.753   4.352  11.550
60338W        W32598  25.496  40.504  10.920
60339W        W32599  29.553  43.918  11.857
60340W        W32600  26.518  30.441  11.551
60341W        W32601  27.645  15.638  10.097
60342W        W32602  22.016  24.654  14.503
60343W        W32603  10.291  21.733  10.890
60344W        W32604  30.627  31.583  13.411
60345W        W32605  15.253  12.348   0.913
60346W        W32606   6.346  20.244  11.588
60347W        W32607  38.879  25.004   4.239
60348W        W32608   6.193   9.318   4.335
60349W        W32609   2.287  34.615  12.466
60350W        W32610  18.703  27.575  12.374
60351W        W32611  27.164  26.531   2.722
60352W        W32612   9.232   5.816  11.054
60353W        W32613   4.744   9.357   4.145
60354W        W32614  37.370  15.246   4.272
60355W        W32615  24.220  32.006   2.318
60356W        W32616  24.056  28.524  12.982
60357W        W32617  19.245   7.876   5.210
60358W        W32618  28.658  16.228  12.377
60359W        W32619  24.535   1.280  10.949
60360W        W32620  16.568  24.605  10.501
60361W        W32621  25.518  24.721  12.362
60362W        W32622  35.011   5.408   1.790
60363W        W32623   3.282  28.489  14.795
60364W        W32624  21.251  36.921   4.354
60365W        W32625  20.150  22.503  13.420
60366W        W32626  19.666  36.369   4.182
60367W        W32627  19.737   5.784   0.963
60368W        W32628  16.579  35.014  10.906
60369W        W32629   2.331  28.516   0.963
60370W        W32630  37.545  16.657  10.932
60371W        W32631  19.045  39.977   1.886
60372W        W32632  42.000   9.250   1.877
60373W        W32633   3.780  25.989   2.861
60374W        W32634   2.880  12.123   3.831
60375W        W32635  15.192   4.709   9.991
60376W        W32636  25.663   3.860  12.385
60377W        W32637  16.626  19.109   2.380
60378W        W32638  37.998   4.336   3.178
60379W        W32639  10.809  42.820   0.331
60380W        W32640  18.202  31.464  11.494
60381W        W32641  34.418  40.996  12.065
60382W        W32642  26.137   3.333   2.729
60383W        W32643  39.934   3.303   0.387
60384W        W32644  42.970  19.081  12.834
60385W        W32645  22.577  12.626   9.952
60386W        W32646  41.904  26.574   1.269
60387W        W32647  30.547   7.263   3.257
60388W        W32648  20.552  27.491  14.375
60389W        W32649  14.631  16.113  11.952
60390W        W32650  26.624  15.191   2.394
60391W        W32651  12.288  25.214  11.979
60392W        W32652  29.921  38.836  14.959
60393W        W32653  43.869   6.882   4.118
60394W        W32654   8.377  15.095  11.468
60395W        W32655  11.863  35.398   2.771
60396W        W32656   7.750  26.095  11.487
60397W        W32657  25.481  42.329   0.887
60398W        W32658   4.281  19.177   4.743
60399W        W32659   9.224  20.180  11.900
60400W        W32660  23.666  23.529  12.080
60401W        W32661  24.145  27.028   1.919
60402W        W32662   4.773  37.471   9.959
60403W        W32663  11.264  43.823   0.482
60404W        W32664  26.672  30.012   3.640
60405W        W32665  26.679  28.162  11.499
60406W        W32666  38.012  10.748   1.423
60407W        W32667  19.756  19.156   2.857
60408W        W32668  28.083  34.878   2.327
60409W        W32669  22.995  15.282  11.405
60410W        W32670  41.941   4.371   2.332
60411W        W32671  33.535  28.576  14.845
60412W        W32672  11.366  40.921   2.903
60413W        W32673  17.683   7.672  13.490
60414W        W32674  19.671  17.076   1.927
60415W        W32675  16.568  12.145   1.781
60416W        W32676  30.984  12.354   3.381
60417W        W32677   0.798  19.138  10.584
60418W        W32678  12.223  42.356  12.362
60419W        W32679  29.515  20.171   2.363
60420W        W32680  34.004  40.015   1.735
60421W        W32681  13.137  14.212  13.478
60422W        W32682  12.687  19.757   3.244
60423W        W32683   8.770   0.789  10.581
60424W        W32684  17.146  30.063  12.401
60425W        W32685  26.636  25.504   4.774
60426W        W32686  18.753  29.162   0.300
60427W        W32687  41.996  27.953  11.092
60428W        W32688  13.168  13.219   1.917
60429W        W32689  29.488   3.288  11.034
60430W        W32690  38.849  37.473   2.402
60431W        W32691  19.615  10.197  14.864
60432W        W32692  15.764  40.858   2.677
60433W        W32693  25.168   1.803  14.455
60434W        W32694   6.909  25.200  11.871
60435W        W32695  42.027  35.100  13.508
60436W        W32696   1.791  31.112   3.801
60437W        W32697  36.943  29.541   4.734
60438W        W32698  44.832  37.045   4.226
60439W        W32699  40.540  12.194   3.675
60440W        W32700  43.392   3.736  12.503
60441W        W32701  33.604  25.471   0.820
60442W        W32702  30.089  22.500   2.830
60443W        W32703  36.438  21.613   2.671
60444W        W32704  43.939  36.518  14.440
60445W        W32705  19.709  29.047  11.385
60446W        W32706  25.216  42.898  12.909
60447W        W32707  17.078  26.152   4.202
60448W        W32708  32.108  24.523  13.315
60449W        W32709  40.454   6.877  14.359
60450W        W32710  24.705  39.406   2.841
60451W        W32711  16.665  16.677   5.243
60452W        W32712  14.143   6.841  10.546
60453W        W32713  18.233  25.003   1.894
60454W        W32714  34.067  42.951   2.714
60455W        W32715  38.032  13.301   4.805
60456W        W32716  18.282  43.512   2.765
60457W        W32717  24.198   4.839   3.341
60458W        W32718  24.666   2.331  10.561
60459W        W32719   4.426   9.712   4.811
60460W        W32720  15.257  20.169   0.935
60461W        W32721  15.278  44.981   0.808
60462W        W32722  33.497  29.654   2.779
60463W        W32723  22.715   6.912  13.369
60464W        W32724  22.661  44.361   1.853
60465W        W32725  22.596   7.261   2.892
60466W        W32726  10.822  44.373  13.799
60467W        W32727  10.170   2.384  10.887
60468W        W32728   8.270   7.704  12.934
60469W        W32729  24.012  13.245   2.308
60470W        W32730  10.212   7.329   3.258
60471W        W32731  34.565  21.624   0.889
60472W        W32732  41.396  26.007   0.484
60473W        W32733  27.450  20.700   1.803
60474W        W32734  29.559   9.311   1.772
60475W        W32735  40.438   7.699  14.443
60476W        W32736  27.074   7.890  10.504
60477W        W32737  28.968  30.029  11.385
60478W        W32738  36.920  11.214   1.322
60479W        W32739   9.687   1.340   2.803
60480W        W32740  27.031  24.586  11.990
60481W        W32741  37.034  22.730   3.742
60482W        W32742  38.345  25.709  13.999
60483W        W32743   5.717  33.925   1.294
60484W        W32744  13.626  12.149   4.598
60485W        W32745  43.511  33.578  11.924
60486W        W32746   5.435  19.670  12.517
60487W        W32747   7.682  20.167  10.462
60488W        W32748  15.157  22.628  12.973
60489W        W32749  10.241   7.313   4.693
60490W        W32750   7.266   6.744   4.300
60491W        W32751  30.086  39.557  12.415
60492W        W32752  38.331  32.133  11.085
60493W        W32753  41.298  44.905   4.141
60494W        W32754   7.746  14.136  13.957
60495W        W32755  35.407   8.791  11.113
60496W        W32756  19.273   0.388  14.775
60497W        W32757  20.031  11.751  11.868
60498W        W32758  20.265  41.794  12.441
60499W        W32759  28.632  23.152  14.300
60500W        W32760  14.763  37.030   3.705
60501W        W32761  44.799  43.804   3.773
60502W        W32762  11.803  31.560  10.933
60503W        W32763   9.756  33.490   4.160
60504W        W32764  15.218  41.523   1.790
60505W        W32765  30.485  23.999   1.829
60506W        W32766   5.845   6.302   1.890
60507W        W32767  28.973  26.081   4.607
60508W        W32768  13.150  28.151   9.536
60509W        W32769   6.384  21.177  11.918
60510W        W32770  11.745   9.665   3.735
60511W        W32771  34.564  12.336   4.249
60512W        W32772  18.631  34.415   2.889
60513W        W32773  13.199  27.132  10.151
60514W        W32774   5.218  35.868  14.414
60515W        W32775   6.751   0.289  12.832
60516W        W32776  15.229  32.095  12.840
60517W        W32777  34.878  27.184   1.720
60518W        W32778  36.510   1.280  10.586
60519W        W32779  41.460  43.802  14.346
60520W        W32780  35.460  20.225   1.362
60521W        W32781  39.980   6.738  11.529
60522W        W32782  43.785  31.038   4.620
60523W        W32783   6.909  43.432   3.202
60524W        W32784   1.930  32.479  14.395
60525W        W32785  39.928  28.552   2.327
60526W        W32786  26.641  16.192   1.845
60527W        W32787  38.430   5.209  12.491
60528W        W32788  28.527  28.131  11.559
60529W        W32789  36.409  39.342  11.887
60530W        W32790   0.854  16.316  13.995
60531W        W32791   2.855  10.262   2.887
60532W        W32792  15.746  34.963   2.803
60533W        W32793  44.343   9.781   2.804
60534W        W32794  13.194  37.353  11.388
60535W        W32795  25.024  42.797   2.872
60536W        W32796  10.766  20.651   4.172
60537W        W32797  41.469  20.758   1.726
60538W        W32798   4.888  20.239   2.749
60539W        W32799   0.371  20.656   0.263
60540W        W32800  41.393   6.716   2.846
60541W        W32801  31.952   0.333  14.862
60542W        W32802   1.738  30.084  11.417
60543W        W32803   3.402  11.354  11.420
60544W        W32804   2.332  31.967   9.969
60545W        W32805  37.504  15.705   1.878
60546W        W32806   7.383  35.517   4.690
60547W        W32807  30.428  34.988   0.966
60548W        W32808  29.578  10.230   5.119
60549W        W32809  19.120  23.075  10.509
60550W        W32810  17.251   6.697   0.945
60551W        W32811  23.511  25.076  14.938
60552W        W32812  17.560  27.982  10.935
60553W        W32813  42.984  28.110  14.997
60554W        W32814  28.450  17.617   0.298
60555W        W32815  39.420  25.550  11.968
60556W        W32816   9.798  16.725   1.305
60557W        W32817  30.447  38.371   2.734
60558W        W32818  24.655   8.862  11.431
60559W        W32819  20.045  39.449  10.637
60560W        W32820   5.846  34.054   1.698
60561W        W32821   8.301   7.880   3.769
60562W        W32822   7.403  33.903   3.717
60563W        W32823  43.017  19.113   3.812
60564W        W32824  44.777  39.054   0.884
60565W        W32825  22.552  37.553   1.429
60566W        W32826   0.439  16.643   1.702
60567W        W32827  14.751   1.240  12.026
60568W        W32828  42.914  38.327   1.435
60569W        W32829   2.366  10.159   1.823
60570W        W32830  24.991  36.353  10.464
60571W        W32831  31.072   2.727  12.962
60572W        W32832  33.952  24.599  12.375
60573W        W32833  17.216  37.865  11.117
60574W        W32834  20.130  19.176   4.708
60575W        W32835  37.923  22.635  11.570
60576W        W32836  41.828  26.565  12.407
60577W        W32837   8.296   3.719  11.519
60578W        W32838   8.839  10.870  14.326
60579W        W32839  32.115  21.123   2.418
60580W        W32840  27.082  23.623  14.341
60581W        W32841  40.043  35.362   4.735
60582W        W32842  37.430  22.079  14.403
60583W        W32843  11.845   3.823   1.713
60584W        W32844  30.475  28.983  12.386
60585W        W32845  11.757  14.105   0.869
60586W        W32846  28.010   7.774   3.352
60587W        W32847  34.881  25.025  11.991
60588W        W32848  14.601  37.517   2.742
60589W        W32849   0.791  11.781  12.926
60590W        W32850  13.159  17.589   4.714
60591W        W32851  23.041  27.652   3.688
60592W        W32852  13.240  19.187   3.174
60593W        W32853   6.336   3.370   5.209
60594W        W32854  14.198  37.055   3.678
60595W        W32855  39.834   7.892   9.997
60596W        W32856  13.150  36.566  11.950
60597W        W32857  15.783  42.860   0.427
60598W        W32858  38.882  18.771  13.490
60599W        W32859  32.086  28.632  13.937
60600W        W32860  14.200  41.318  14.792
60601W        W32861  42.417  35.514   3.231
60602W        W32862   8.282  30.124  12.832
60603W        W32863  25.503  20.677  11.420
60604W        W32864  21.231  23.701  14.399
60605W        W32865  41.877   8.255   4.213
60606W        W32866  35.969   9.199  14.322
60607W        W32867  16.801  11.655  14.408
60608W        W32868  11.197  23.646  11.997
60609W        W32869   9.835  27.029   3.656
60610W        W32870  20.093  33.070   3.699
60611W        W32871   6.863  11.653   0.341
60612W        W32872  38.498  41.463   0.390
60613W        W32873   3.852  38.338  14.487
60614W        W32874  34.911  35.971  12.041
60615W        W32875  26.990  20.657  11.975
60616W        W32876  40.049  37.500  14.852
60617W        W32877  11.850  38.342   4.646
60618W        W32878  13.311  29.173   3.249
60619W        W32879  27.690  10.709  12.025
60620W        W32880  29.951  25.099  11.104
60621W        W32881   8.847  20.196   1.839
60622W        W32882   4.889  34.863  11.001
60623W        W32883  29.170  12.655   0.951
60624W        W32884  12.231  11.289  11.981
60625W        W32885  38.888  23.585   0.727
60626W        W32886   9.714  37.977  11.948
60627W        W32887  20.702  20.658  12.567
60628W        W32888  19.718   5.758   2.836
60629W        W32889   7.213  27.561  12.960
60630W        W32890   5.263   6.213   0.795
60631W        W32891  39.367  25.545   1.379
60632W        W32892  44.988  26.657  10.966
60633W        W32893  32.459  15.706   1.360
60634W        W32894  31.146  26.043  11.077
60635W        W32895  38.020  21.152  12.899
60636W        W32896  36.479  26.577  11.871
60637W        W32897  39.496   5.403   1.236
60638W        W32898  29.631  33.926  14.470
60639W        W32899  31.038  18.234   3.318
60640W        W32900  35.437  36.084   1.794
60641W        W32901  14.231  27.527  12.032
60642W        W32902  26.150  30.500   2.665
60643W        W32903  42.411  15.104   3.197
60644W        W32904  29.051  10.699   1.696
60645W        W32905   9.179  11.663   4.119
60646W        W32906  31.942  29.482  13.337
60647W        W32907  36.008  37.074  12.441
60648W        W32908  10.663  14.094   2.335
60649W        W32909  42.356  16.080   1.393
60650W        W32910   3.804  31.071   3.856
60651W        W32911  20.270  41.807  14.950
60652W        W32912  24.604   4.712   0.889
60653W        W32913  20.660  20.215   5.198
60654W        W32914  12.166  27.477   1.748
60655W        W32915  38.005  28.077   1.909
60656W        W32916  43.764  16.265  14.815
60657W        W32917  31.122  25.584  14.765
60658W        W32918  23.185  21.665   3.770
60659W        W32919   3.824  16.121   2.669
60660W        W32920   9.817   6.880   4.283
60661W        W32921  25.692  40.905   3.728
60662W        W32922  33.606  18.209   4.195
60663W        W32923  36.509  41.815  10.436
60664W        W32924  29.548  23.091   2.229
60665W        W32925  26.547  36.062  12.536
60666W        W32926  19.179   6.378   2.201
60667W        W32927   1.834  19.729   2.672
60668W        W32928   0.449  37.847   2.223
60669W        W32929   7.190   8.239   2.687
60670W        W32930  21.175   8.195  10.451
60671W        W32931   4.718  42.315   1.248
60672W        W32932  23.235  11.261   1.873
60673W        W32933  24.222   1.802   2.882
60674W        W32934   5.351  40.967   1.442
60675W        W32935  42.515   5.401   1.238
60676W        W32936  44.481   0.978  13.394
60677W        W32937  40.307  35.596  10.619
60678W        W32938  15.784  41.311   3.252
60679W        W32939  27.548  20.159  11.504
60680W        W32940  37.957  12.315  14.313
60681W        W32941  36.405  26.206  13.976
60682W        W32942  41.331  26.589   4.321
60683W        W32943  32.398  19.088   4.218
60684W        W32944   8.822   6.806   1.450
60685W        W32945   7.265  11.794   2.765
60686W        W32946  11.745  14.626  14.295
60687W        W32947   7.257  32.592  13.963
60688W        W32948   8.362  30.947   1.714
60689W        W32949   0.778  35.460  13.990
60690W        W32950  14.752  42.375   1.239
60691W        W32951  29.942  29.569  10.503
60692W        W32952  18.765  34.941  13.891
60693W        W32953  25.100  42.306   0.479
60694W        W32954   2.375  43.393   1.823
60695W        W32955  40.871  17.211  12.348
60696W        W32956  22.100  26.620  14.396
60697W        W32957   3.369  13.613  10.470
60698W        W32958  28.142   9.663   2.305
60699W        W32959   2.896   5.823  13.394
60700W        W32960   1.406   9.784  13.451
60701W        W32961  35.881  19.147   4.221
60702W        W32962   2.383   2.953   2.724
60703W        W32963  36.565  40.930  10.562
60704W        W32964  31.429  19.752  14.814
60705W        W32965   5.882  29.938  14.503
60706W        W32966  25.191   7.381   3.268
60707W        W32967  36.536   6.245   0.333
60708W        W32968  35.438  28.947  10.970
60709W        W32969  31.063  16.089  11.878
60710W        W32970   3.358  14.153  10.575
60711W        W32971  38.945  26.970   0.458
60712W        W32972   4.921  28.126   4.209
60713W        W32973   5.193   1.849  10.466
60714W        W32974   1.976  29.441   3.848
60715W        W32975  15.818  28.485  14.825
60716W        W32976  35.535  11.810   3.194
60717W        W32977  43.908  37.531  11.063
60718W        W32978   2.832  27.988  11.464
60719W        W32979   8.161  35.855  12.931
60720W        W32980  12.842  43.386   3.838
60721W        W32981  44.331  39.037   3.802
60722W        W32982  16.196  28.582  13.013
60723W        W32983  29.138  38.930   1.743
60724W        W32984  23.628   2.901  13.411
60725W        W32985  20.745  34.953   3.191
60726W        W32986  29.064  14.253   2.287
60727W        W32987  34.910  25.665  11.485
60728W        W32988  31.554  13.283   3.236
60729W        W32989  27.183  41.898   1.433
60730W        W32990  38.842   9.352  10.015
60731W        W32991  39.350   9.803   3.297
60732W        W32992  19.201  41.447   2.884
60733W        W32993  31.019  23.546   3.195
60734W        W32994  33.116  23.043  11.113
60735W        W32995  11.798  14.718  10.628
60736W        W32996   1.437  44.919   2.742
60737W        W32997  29.545  31.639   5.220
60738W        W32998  10.853  18.296   5.234
60739W        W32999  13.667  38.378   0.325
60740W        W33000  42.858  32.992  11.091
60741W        W33001   8.371  29.517   4.327
60742W        W33002  36.088   3.229  12.557
60743W        W33003   2.939  40.819   2.672
60744W        W33004  28.485  24.555  13.400
60745W        W33005   0.794  31.929   1.925
60746W        W33006  29.131  23.023  11.486
60747W        W33007  35.427  36.459  13.876
60748W        W33008  38.927  25.611  10.620
60749W        W33009  30.102  28.648   2.698
60750W        W33010  13.793   9.184  14.423
60751W        W33011  14.119  12.827   0.394
60752W        W33012   7.854  26.124   4.742
60753W        W33013  30.571  37.907   2.833
60754W        W33014  29.936  38.532   3.840
60755W        W33015   7.238   9.362  12.957
60756W        W33016   6.906   1.825  12.894
60757W        W33017  29.161  20.526   0.260
60758W        W33018  28.600  41.373   0.390
60759W        W33019   3.881  41.958  10.426
60760W        W33020  39.539  42.902   1.243
60761W        W33021  17.196  21.262   2.792
60762W        W33022  29.062  34.985  14.352
60763W        W33023  19.211  29.473   0.428
60764W        W33024  41.902   2.412   3.304
60765W        W33025  23.527  35.504   3.275
60766W        W33026   5.733  44.412   4.822
60767W        W33027  35.927  41.812  13.346
60768W        W33028  13.770  36.958  14.951
60769W        W33029   5.298  13.742  13.523
60770W        W33030   4.376  42.375  13.900
60771W        W33031   2.387  24.600   1.845
60772W        W33032  29.606  27.193  13.537
60773W        W33033  17.607  43.965  11.388
60774W        W33034  42.974  17.296   5.177
60775W        W33035  10.695  11.142  11.955
60776W        W33036  18.284  25.134  12.474
60777W        W33037  14.774  35.933   1.440
60778W        W33038  42.823  22.729   4.309
60779W        W33039  43.336  35.079  12.844
60780W        W33040  26.007  18.749  10.951
60781W        W33041  26.673  34.912   3.341
60782W        W33042  17.255  32.536   4.690
60783W        W33043  26.160  26.029  14.352
60784W        W33044   2.464  30.047   2.389
60785W        W33045  15.817   6.412   1.815
60786W        W33046  41.479  34.547  12.511
60787W        W33047  44.820   6.895  12.367
60788W        W33048  22.621  26.682  13.401
60789W        W33049  35.001   9.362  11.974
60790W        W33050  33.408  31.062  12.015
60791W        W33051   1.943   1.355  10.890
60792W        W33052   8.297  10.784  12.044
60793W        W33053  21.707   3.227   2.867
60794W        W33054  30.475   7.908   4.835
60795W        W33055  21.152  15.645  11.458
60796W        W33056  28.573  30.566   3.151
60797W        W33057  13.682   6.238   3.852
60798W        W33058  29.521  18.131   4.719
60799W        W33059  28.511   0.875   1.296
60800W        W33060  31.963  14.186  11.551
60801W        W33061   6.876  11.342   3.148
60802W        W33062  41.939  27.015  14.356
60803W        W33063  25.130  33.100   0.256
60804W        W33064  12.279  26.686  13.464
60805W        W33065   4.806  36.091  14.813
60806W        W33066  12.125  38.035   0.385
60807W        W33067  16.671  10.821  14.396
60808W        W33068  14.747  11.700   0.820
60809W        W33069  35.486  44.330  10.965
60810W        W33070  19.641  30.600  13.837
60811W        W33071  23.061  20.251  14.510
60812W        W33072  42.525  33.391   1.823
60813W        W33073  41.942  24.692   0.798
60814W        W33074  30.023  31.003  14.023
60815W        W33075  10.798  24.599   4.787
60816W        W33076  10.833   8.831   4.207
60817W        W33077  30.438  24.139   0.782
60818W        W33078  25.692   0.815   1.705
60819W        W33079  33.076  41.498  10.593
60820W        W33080  13.832   0.444   2.301
60821W        W33081  43.480  14.807   2.334
60822W        W33082  39.953  43.819   0.947
60823W        W33083  26.532  24.103   1.266
60824W        W33084  36.872  39.443  13.961
60825W        W33085  41.306  22.539   3.744
60826W        W33086   9.289  14.761  11.429
60827W        W33087  40.535   8.880   5.145
60828W        W33088  27.120  41.434  11.509
60829W        W33089   6.891  42.882   3.153
60830W        W33090  30.523   5.719   2.279
60831W        W33091  32.081  28.033  14.484
60832W        W33092  13.263  42.937  10.074
60833W        W33093  14.675  26.046  13.000
60834W        W33094  22.995  24.498   3.800
60835W        W33095  35.492  16.157   2.661
60836W        W33096  35.933  28.150  10.498
60837W        W33097  11.759  25.707  12.007
60838W        W33098   8.742   2.721  10.576
60839W        W33099  24.675  11.632  12.069
60840W        W33100  10.273  12.819  13.461
60841W        W33101   1.357  18.183   4.794
60842W        W33102  12.176  36.419  13.390
60843W        W33103   8.759  35.505   2.735
60844W        W33104  10.852  34.404   0.748
60845W        W33105  13.788  37.378   3.159
60846W        W33106   6.384   2.939  11.092
60847W        W33107  19.252  34.098   4.703
60848W        W33108  44.428  31.562   2.673
60849W        W33109  16.089  36.067   3.213
60850W        W33110  32.472  37.520  10.587
60851W        W33111  30.637  40.386   3.657
60852W        W33112   3.258  16.076  12.535
60853W        W33113   8.278   5.733  10.473
60854W        W33114  16.773  10.691  12.577
60855W        W33115   5.362  42.408  14.020
60856W        W33116   0.874  21.160  13.008
60857W        W33117  22.729  23.554   2.728
60858W        W33118  30.125  42.381   2.693
60859W        W33119   0.889   8.872   3.781
60860W        W33120  24.144  26.076   3.176
60861W        W33121  20.097  42.465   4.686
60862W        W33122   7.904  25.076   2.901
60863W        W33123  43.877  14.752  12.370
60864W        W33124  16.636  27.043  11.088
60865W        W33125  26.961  11.643  14.358
60866W        W33126   7.885  32.451  12.087
60867W        W33127  12.714  11.223  12.894
60868W        W33128   7.715  41.533  14.445
60869W        W33129  38.966  41.039  10.606
60870W        W33130  24.143  42.339  10.522
60871W        W33131  42.407  31.103   3.709
60872W        W33132  35.365  44.907   1.934
60873W        W33133  27.050  33.581   1.448
60874W        W33134  17.198  38.865  14.909
60875W        W33135  27.941  29.971   0.273
60876W        W33136  21.720  34.120   0.762
60877W        W33137  32.607   4.217  10.458
60878W        W33138   4.780  10.183  13.053
60879W        W33139  25.039   3.760   4.260
60880W        W33140   6.767  44.435   3.790
60881W        W33141  15.752  33.123  14.860
60882W        W33142  28.178  33.560   3.214
60883W        W33143  13.248   2.300  13.804
60884W        W33144   0.769  42.993   0.298
60885W        W33145  33.929   8.886  14.360
60886W        W33146  16.218  23.053  13.019
60887W        W33147  19.263  28.553  11.003
60888W        W33148   9.771  15.606   1.882
60889W        W33149  20.098   1.907  13.973
60890W        W33150  12.336  22.146  10.493
60891W        W33151  21.643  13.804   2.881
60892W        W33152  16.609   9.222  12.960
60893W        W33153  14.186  36.075  11.504
60894W        W33154  35.890   2.740  10.465
60895W        W33155  24.072  29.526   0.321
60896W        W33156  31.111  26.579  11.954
60897W        W33157   0.841  29.093  12.948
60898W        W33158   5.906   9.659   2.339
60899W        W33159  14.674   3.923   4.286
60900W        W33160  37.524  19.734   5.314
60901W        W33161  29.103   0.856   1.810
60902W        W33162   2.283  31.980   4.668
60903W        W33163   1.329  41.294  10.992
60904W        W33164   4.789  43.362   2.686
60905W        W33165  15.656  34.036  10.945
60906W        W33166  37.890  18.096   2.847
60907W        W33167  38.484  41.402   2.756
60908W        W33168   1.465   4.417   3.666
60909W        W33169   2.766   5.881   2.275
60910W        W33170  29.061  41.888   3.387
60911W        W33171  21.589  21.625   1.436
60912W        W33172  27.032  19.562  14.911
60913W        W33173   6.733  31.116   0.476
60914W        W33174  35.919   8.311  10.078
60915W        W33175  15.137  36.527  11.599
60916W        W33176  12.754  27.566   3.147
60917W        W33177  41.386  27.006   3.251
60918W        W33178  14.803  16.635  12.079
60919W        W33179  43.933  17.572  13.452
60920W        W33180  11.655  11.776   0.421
60921W        W33181  35.935  31.044  11.425
60922W        W33182  14.617  44.882   1.750
60923W        W33183   4.925  43.010   2.662
60924W        W33184   7.849  42.423  12.894
60925W        W33185  35.964  37.971  14.777
60926W        W33186  24.164  11.278   4.198
60927W        W33187  33.543  43.941  14.399
60928W        W33188  15.304  25.566  14.951
60929W        W33189  31.081  18.220  14.897
60930W        W33190   6.262  21.565   1.750
60931W        W33191  36.386  22.554  10.578
60932W        W33192   8.872  13.763  11.454
60933W        W33193  39.352  18.661  11.500
60934W        W33194  41.837  35.549  14.797
60935W        W33195  14.726  39.833  13.533
60936W        W33196  15.747  24.620  10.958
60937W        W33197  17.675  21.698  14.394
60938W        W33198   8.231  22.623   3.867
60939W        W33199  36.084  34.911  10.412
60940W        W33200  21.640  43.927  13.360
60941W        W33201   2.280  29.025  10.484
60942W        W33202   3.435   9.731  11.903
60943W        W33203  26.958  26.466  13.881
60944W        W33204  42.357  24.217  14.010
60945W        W33205  23.687  21.136   2.361
60946W        W33206  30.028   1.346   2.679
60947W        W33207   7.190  35.863   2.794
60948W        W33208  23.558  42.389  10.976
60949W        W33209   2.354  29.159  13.336
60950W        W33210  39.907  21.019   0.742
60951W        W33211  11.797  36.880  14.287
60952W        W33212  16.213  29.975  12.933
60953W        W33213   2.326   9.684  14.993
60954W        W33214   1.786  26.180  10.575
60955W        W33215  28.938  25.098   0.825
60956W        W33216  15.206  37.966  10.938
60957W        W33217  34.112  26.195  14.960
60958W        W33218   3.881   4.925   3.758
60959W        W33219  11.357  13.743  14.276
60960W        W33220  41.535  15.795  10.025
60961W        W33221  21.181  16.599   0.289
60962W        W33222   6.206  32.956   0.416
60963W        W33223  13.158  11.673  14.007
60964W        W33224   8.276  25.623   1.431
60965W        W33225  37.010  10.872   0.934
60966W        W33226   3.922  13.247   2.375
60967W        W33227  29.663  36.861   1.216
60968W        W33228  26.472  28.515  11.106
60969W        W33229  33.934  25.182   1.766
60970W        W33230  34.597   5.894  12.957
60971W        W33231   4.220  17.130   1.884
60972W        W33232  18.188  24.671  13.825
60973W        W33233   5.432  43.817   3.215
60974W        W33234  33.892  23.209   4.143
60975W        W33235   1.802  30.504   3.213
60976W        W33236   4.803  11.833   1.413
60977W        W33237  36.442   3.803  12.539
60978W        W33238  44.281   1.272   4.294
60979W        W33239  27.076  13.701   3.242
60980W        W33240  38.500   9.721   1.862
60981W        W33241  26.503   7.900  11.501
60982W        W33242  44.315  35.366  12.510
60983W        W33243  15.798  28.576   2.677
60984W        W33244   2.337  17.746  11.893
60985W        W33245  12.789   4.915   1.298
60986W        W33246   5.808  36.417   2.234
60987W        W33247   5.931  22.523  14.419
60988W        W33248  38.853   8.770   4.671
60989W        W33249   9.874  42.837  14.015
60990W        W33250  15.804  30.486   0.370
60991W        W33251   4.769   4.237   4.623
60992W        W33252   6.406  31.959   4.191
60993W        W33253  44.332  30.414  11.384
60994W        W33254  10.810   6.402  12.950
60995W        W33255  30.598  21.255  11.049
60996W        W33256  38.544  13.730   3.829
60997W        W33257  40.996  33.030   4.234
60998W        W33258  23.660  25.661   4.628
60999W        W33259   9.212  37.492   3.168
61000W        W33260  36.436   5.828  14.386
61001W        W33261  44.364   4.877   5.103
61002W        W33262  34.888  17.168  11.862
61003W        W33263   7.808   3.299  12.882
61004W        W33264   3.303  29.423  12.826
61005W        W33265   7.869  26.022  14.817
61006W        W33266  18.175  24.724  14.970
61007W        W33267  37.516   8.754  13.350
61008W        W33268   7.335  35.500   0.828
61009W        W33269  14.156  25.107  14.387
61010W        W33270  33.469  26.951   0.416
61011W        W33271  33.994  43.864   4.142
61012W        W33272  33.446   5.317   3.169
61013W        W33273  34.545  38.454   4.769
61014W        W33274   3.805  39.486  12.385
61015W        W33275  34.568  34.909   1.736
61016W        W33276  19.646   2.950  11.997
61017W        W33277  27.627  32.959  12.003
61018W        W33278   1.285  20.704  14.460
61019W        W33279  36.035  35.090   4.353
61020W        W33280  35.980  37.047   1.913
61021W        W33281  40.527  12.286   0.828
61022W        W33282   4.794  29.134  11.525
61023W        W33283  35.067  24.174   3.810
61024W        W33284   7.414  24.204  14.032
61025W        W33285   9.266   4.813   2.368
61026W        W33286  32.575  40.511   1.219
61027W        W33287  24.139   3.720   0.744
61028W        W33288  29.592   2.336  13.542
61029W        W33289  27.609  42.364   1.327
61030W        W33290  42.939  32.971  13.017
61031W        W33291  28.942  21.572  13.015
61032W        W33292  24.494  11.825   3.246
61033W        W33293   9.351  33.458  13.011
61034W        W33294   0.859  42.341   4.632
61035W        W33295  28.650  17.777   1.807
61036W        W33296  35.448  19.216   1.863
61037W        W33297  40.375   0.829   1.423
61038W        W33298  39.919  35.518   2.776
61039W        W33299  26.062  10.740  13.853
61040W        W33300  11.227  28.680  14.891
61041W        W33301  25.147  33.099   4.220
61042W        W33302  10.775  39.385   1.424
61043W        W33303  18.784   4.923   2.698
61044W        W33304  26.676  44.891  13.938
61045W        W33305  43.014   7.667   1.778
61046W        W33306  11.847  10.856  14.509
61047W        W33307  39.371  44.276   4.762
61048W        W33308  15.644  19.672   1.813
61049W        W33309   0.919  21.622   4.831
61050W        W33310  16.748   6.776   3.250
61051W        W33311  42.902  12.308  10.613
61052W        W33312   2.313  21.097   1.790
61053W        W33313  42.508   1.443  14.422
61054W        W33314  26.607   9.888  14.999
61055W        W33315  41.367  10.657   2.896
61056W        W33316   0.299  23.130   4.718
61057W        W33317  38.835  23.685  10.511
61058W        W33318  16.285  30.146   1.914
61059W        W33319  36.384  42.476   2.874
61060W        W33320   0.917  11.244  13.801
61061W        W33321  34.458   4.930   1.828
61062W        W33322  12.199  36.947   4.157
61063W        W33323  43.883   2.964  14.490
61064W        W33324  27.507   2.907  10.981
61065W        W33325  38.521  16.590  10.639
61066W        W33326  37.966  30.974   2.353
61067W        W33327  35.009   5.822   1.358
61068W        W33328  30.600   1.925   3.276
61069W        W33329  20.066  27.595   3.862
61070W        W33330   7.393   7.733   2.783
61071W        W33331  36.531  16.177   3.819
61072W        W33332  38.038  13.128   3.385
61073W        W33333   3.837  18.588  11.885
61074W        W33334  37.564  40.935   1.868
61075W        W33335  38.993  15.304  14.508
61076W        W33336  41.894  39.441   2.341
61077W        W33337  44.448  20.660  12.580
61078W        W33338   5.239  20.575  14.801
61079W        W33339  28.982  34.464  12.580
61080W        W33340  15.633  37.064   1.899
61081W        W33341  37.458   7.738   5.139
61082W        W33342  37.448   0.331  14.446
61083W        W33343  10.143  38.441  13.329
61084W        W33344  16.073  20.690  12.351
61085W        W33345  19.630  11.128   1.410
61086W        W33346  15.646   7.236  10.964
61087W        W33347  17.792   3.822   2.199
61088W        W33348  38.453  20.563   2.401
61089W        W33349   2.884  43.325   0.915
61090W        W33350   7.867  39.826  13.401
61091W        W33351   0.389  24.627  14.451
61092W        W33352  15.204  20.538   1.245
61093W        W33353  32.117   1.245   3.358
61094W        W33354  39.988  35.984  12.366
61095W        W33355  10.797  24.038   1.926
61096W        W33356   2.256  30.918  13.973
61097W        W33357  29.460  17.220   4.307
61098W        W33358  43.864  43.508  12.927
61099W        W33359  43.993  31.530  12.978
61100W        W33360  26.167  33.411   1.916
61101W        W33361  41.963  25.153   2.407
61102W        W33362  30.058  24.003  12.426
61103W        W33363  26.952  34.073  14.961
61104W        W33364  19.563  36.429   3.684
61105W        W33365  44.278   6.773  12.552
61106W        W33366  36.910  25.503   0.323
61107W        W33367  14.120   4.376   3.361
61108W        W33368  10.244  12.773  12.967
61109W        W33369  40.824  10.790  13.946
61110W        W33370  14.767   9.730  11.388
61111W        W33371  25.179  41.976   4.221
61112W        W33372  33.035  21.601  14.457
61113W        W33373  15.285  35.902  13.397
61114W        W33374  35.553  26.017  12.023
61115W        W33375  41.900  33.613   9.945
61116W        W33376  21.605  33.017  11.965
61117W        W33377  22.028  18.136   3.722
61118W        W33378  33.994  35.997   0.306
61119W        W33379   3.911  29.602  10.963
61120W        W33380  14.767  15.823  11.957
61121W        W33381  15.255  26.695   3.362
61122W        W33382   6.408  32.073  10.644
61123W        W33383   1.408  19.770   3.326
61124W        W33384  12.269  41.823  12.361
61125W        W33385  17.194  38.036  12.540
61126W        W33386  39.972   9.280   5.632
61127W        W33387  14.810  32.107  11.508
61128W        W33388   3.915  11.331   0.745
61129W        W33389  25.536  34.494   1.424
61130W        W33390  18.142  13.623  10.496
61131W        W33391  20.119  15.683   1.873
61132W        W33392  29.927  14.215   1.429
61133W        W33393  22.030  11.293  12.880
61134W        W33394  28.013  31.630   0.737
61135W        W33395   5.327  37.051   1.829
61136W        W33396  39.910  24.063   1.227
61137W        W33397   6.818   1.906   0.466
61138W        W33398  27.095  42.415  14.515
61139W        W33399   7.312   7.836   0.443
61140W        W33400  16.172  10.681  13.949
61141W        W33401  29.042  12.340   1.759
61142W        W33402  17.602  32.527   1.714
61143W        W33403  12.135  12.234   3.350
61144W        W33404  37.864  17.705  12.386
61145W        W33405   6.800  43.843  13.835
61146W        W33406  39.378   8.775  13.890
61147W        W33407  40.372   1.944   3.278
61148W        W33408  34.876  27.088  14.443
61149W        W33409  29.662  34.875   5.091
61150W        W33410  18.562   3.956   4.122
61151W        W33411  25.534  22.088  13.016
61152W        W33412  39.902   0.935  14.875
61153W        W33413  33.513  28.937   0.961
61154W        W33414  17.128   3.838   0.869
61155W        W33415   3.766  33.475  12.543
61156W        W33416  18.081  21.216   3.335
61157W        W33417  27.016  33.028   0.337
61158W        W33418  44.310   5.728  14.384
61159W        W33419   5.698   8.315   0.252
61160W        W33420  42.794  21.710   3.313
61161W        W33421  21.680  30.140  12.497
61162W        W33422  21.143  24.677  13.939
61163W        W33423  38.006   1.821  12.479
61164W        W33424  35.890  18.545   0.310
61165W        W33425  13.803   8.177  13.899
61166W        W33426   3.331  43.937   4.605
61167W        W33427  30.930  24.679  11.077
61168W        W33428   4.769  38.343  14.344
61169W        W33429  13.267  22.604   1.354
61170W        W33430  31.537  39.035  11.598
61171W        W33431  15.292  30.643  14.845
61172W        W33432  17.295  37.935  14.447
61173W        W33433  35.862  37.940  13.340
61174W        W33434  39.874  39.375   4.836
61175W        W33435  21.030  21.703   4.801
61176W        W33436   7.734  37.851   3.286
61177W        W33437   1.909  26.191   2.362
61178W        W33438  40.044  10.790   2.885
61179W        W33439   8.870   9.878  13.930
61180W        W33440  36.098  22.052   2.688
61181W        W33441  34.582  33.006  14.387
61182W        W33442  31.052  37.006  11.109
61183W        W33443  27.529  12.691  14.448
61184W        W33444   4.923  17.712   3.793
61185W        W33445  21.578   1.779   0.251
61186W        W33446  19.234  17.602   1.340
61187W        W33447  22.062  21.103  14.851
61188W        W33448   7.728  38.955   1.746
61189W        W33449  35.487  31.632  14.809
61190W        W33450   1.872  19.655  13.824
61191W        W33451  10.843  41.298   4.624
61192W        W33452   7.780  37.844  12.059
61193W        W33453   6.198  33.037  12.012
61194W        W33454  37.981   3.461  14.506
61195W        W33455  42.287  38.371  12.864
61196W        W33456  19.272  36.424   4.181
61197W        W33457  32.397  42.461   4.768
61198W        W33458  43.494   9.831   1.394
61199W        W33459  25.593   9.855   0.298
61200W        W33460  13.674  12.662  13.318
61201W        W33461  42.326  11.366   1.295
61202W        W33462  16.681  38.975   0.964
61203W        W33463  10.767  35.550  10.578
61204W        W33464  18.610   1.320  12.533
61205W        W33465  35.541  39.505   0.818
61206W        W33466  17.118  21.720  13.473
61207W        W33467   1.952  34.868   2.786
61208W        W33468  18.616  27.967   0.251
61209W        W33469  27.012  14.730   3.680
61210W        W33470  14.617   8.898   2.837
61211W        W33471  43.851  19.647   3.686
61212W        W33472  10.313   3.456   1.325
61213W        W33473   2.294  41.956   1.329
61214W        W33474  35.105  25.202   5.289
61215W        W33475  23.034  26.194  11.456
61216W        W33476  39.354  27.190  13.390
61217W        W33477  17.203  20.261   4.652
61218W        W33478  40.901  23.629   3.635
61219W        W33479  21.051  17.245  14.445
61220W        W33480  15.273   3.870   4.272
61221W        W33481   2.232  14.673   1.806
61222W        W33482   7.358   4.700   0.911
61223W        W33483  35.522  37.556   0.794
61224W        W33484  39.046   9.676   1.784
61225W        W33485  19.182   7.764  14.994
61226W        W33486   0.882  24.193   1.887
61227W        W33487  38.350   0.904  11.451
61228W        W33488  22.012   2.361  11.985
61229W        W33489  35.892   7.381   2.714
61230W        W33490  42.918  42.887  14.769
61231W        W33491  38.848  16.186   4.192
61232W        W33492   2.341  42.331   4.138
61233W        W33493   2.758   3.856   4.207
61234W        W33494  39.932   8.397   4.760
61235W        W33495  18.741  20.577  11.402
61236W        W33496  25.663  24.230   1.759
61237W        W33497  36.856  41.895   1.797
61238W        W33498  44.952  35.103   1.874
61239W        W33499  15.299  20.065   3.695
61240W        W33500  33.050  14.720  13.021
61241W        W33501  16.709  31.454   1.709
61242W        W33502  44.947   5.830   0.884
61243W        W33503  26.595  13.113  14.399
61244W        W33504  36.061  11.718  13.916
61245W        W33505  42.998  41.330  13.002
61246W        W33506  12.672  10.853   4.667
61247W        W33507  27.997  12.171  10.429
61248W        W33508   7.881  42.514   1.757
61249W        W33509   4.217   4.450   0.754
61250W        W33510  34.056  15.153  14.372
61251W        W33511  41.848  18.066   1.226
61252W        W33512   2.230  37.902  11.973
61253W        W33513  21.174   6.851   0.779
61254W        W33514   4.899  20.551  11.438
61255W        W33515  44.884  28.469   1.404
61256W        W33516  20.162  14.113  11.885
61257W        W33517  13.289  21.739  10.611
61258W        W33518   0.338  38.538  11.545
61259W        W33519   4.701   0.320   1.335
61260W        W33520  23.621  35.510  13.905
61261W        W33521  34.030  25.670   2.371
61262W        W33522  19.541  31.020  11.565
61263W        W33523  20.624  14.823  13.495
61264W        W33524   4.882  24.549  12.084
61265W        W33525  43.343  14.736   3.266
61266W        W33526   9.845  32.048   4.785
61267W        W33527  14.725  13.801   3.174
61268W        W33528  26.610   9.785  10.624
61269W        W33529  24.671  19.260  12.884
61270W        W33530  40.816  38.355   3.322
61271W        W33531  25.988  26.662   1.919
61272W        W33532   4.252  40.010   1.405
61273W        W33533   4.901  31.626   1.864
61274W        W33534  32.945  11.163   3.344
61275W        W33535  15.249  40.344   1.902
61276W        W33536  29.628  30.651   4.812
61277W        W33537  11.355  10.266  10.517
61278W        W33538  39.396  23.225  10.545
61279W        W33539   2.467  27.623  13.919
61280W        W33540  44.272  23.028   4.261
61281W        W33541   4.882  35.551   4.248
61282W        W33542  13.209   3.823   0.313
61283W        W33543   6.421  26.703  12.868
61284W        W33544  31.138  42.855   0.387
61285W        W33545  15.173   5.316   4.334
61286W        W33546   8.743  11.813   1.323
61287W        W33547  29.492  12.678  11.428
61288W        W33548  38.495  25.138  13.398
61289W        W33549  35.892  18.710  12.352
61290W        W33550   1.277  40.313   0.867
61291W        W33551  25.048   4.907   2.802
61292W        W33552  35.429  17.149  12.343
61293W        W33553  27.675  29.558  11.061
61294W        W33554   6.733  34.370  10.416
61295W        W33555  36.077  14.296   2.686
61296W        W33556  33.575  42.978  12.445
61297W        W33557  34.523  43.356  11.947
61298W        W33558  11.670   6.189   1.710
61299W        W33559  16.157  41.365   4.785
61300W        W33560  22.745  44.388   5.302
61301W        W33561  33.063  12.213   2.255
61302W        W33562  44.503  36.536   0.384
61303W        W33563  44.306  24.526   4.344
61304W        W33564  10.157  21.250   2.362
61305W        W33565  27.006   9.855  14.405
61306W        W33566  36.869  44.828  10.525
61307W        W33567  39.014  13.132   4.814
61308W        W33568  27.541   7.675  10.601
61309W        W33569  37.895  17.740  10.627
61310W        W33570  41.524  44.489  13.866
61311W        W33571  42.290  35.079   3.342
61312W        W33572  35.485   5.303   2.365
61313W        W33573  31.073  42.437   2.379
61314W        W33574  22.174  33.974  11.505
61315W        W33575  29.984  32.467  14.275
61316W        W33576  43.901   4.359   3.267
61317W        W33577  40.822  20.163   1.749
61318W        W33578  22.622  41.851   0.781
61319W        W33579   0.405  22.136   2.356
61320W        W33580   2.360   9.274   2.251
61321W        W33581   5.295   4.699  14.422
61322W        W33582  40.919  25.676   2.406
61323W        W33583   5.412  36.434   0.894
61324W        W33584  34.888  31.047   2.898
61325W        W33585   7.854  13.226   1.311
61326W        W33586  28.020   9.802  13.923
61327W        W33587  38.048  44.954  12.432
61328W        W33588   5.924  44.477   1.923
61329W        W33589  23.560   2.944   2.889
61330W        W33590  12.293   8.876   3.634
61331W        W33591   0.454  12.302  10.506
61332W        W33592  28.439  14.633   3.711
61333W        W33593  25.150  12.683  10.567
61334W        W33594   2.465  10.822   4.782
61335W        W33595   1.390   4.450  10.999
61336W        W33596  42.427   0.920  10.556
61337W        W33597  11.687  42.838   3.639
61338W        W33598  29.455  37.552   4.251
61339W        W33599   6.376  37.844  14.364
61340W        W33600  10.225   9.338  13.394
61341W        W33601  23.189  11.188  14.828
61342W        W33602   7.695  14.247  12.518
61343W        W33603   4.759  32.900  13.501
61344W        W33604  42.369  43.796  10.967
61345W        W33605  36.933   6.204   3.387
61346W        W33606  32.023  13.607   4.637
61347W        W33607  19.227  34.572  12.576
61348W        W33608  40.865  40.524  12.069
61349W        W33609  14.293  37.869   2.837
61350W        W33610  32.555  22.017   2.383
61351W        W33611  14.732  14.173   3.242
61352W        W33612   0.324  24.147  14.808
61353W        W33613  22.564  34.588   3.859
61354W        W33614  25.153  32.637   1.353
61355W        W33615  32.433  22.606  11.439
61356W        W33616  33.980  11.242  14.461
61357W        W33617   9.344  19.285   3.354
61358W        W33618  20.610  35.974   3.232
61359W        W33619  44.833  17.558  11.126
61360W        W33620  36.022  40.446  14.872
61361W        W33621  31.492   7.372  14.449
61362W        W33622  17.088  42.905  13.042
61363W        W33623   0.876  43.487   4.151
61364W        W33624  16.086  23.708   3.305
61365W        W33625  43.917  37.521   3.230
61366W        W33626  20.209  43.308  14.933
61367W        W33627  34.015   7.711  10.944
61368W        W33628  24.128  27.554  13.515
61369W        W33629  31.110  24.991   1.213
61370W        W33630  12.801  20.056  13.006
61371W        W33631  16.103  28.034   4.129
61372W        W33632  41.883  36.067   4.265
61373W        W33633  20.610  40.802  12.959
61374W        W33634  12.706  25.145   4.662
61375W        W33635  38.486  11.359  11.013
61376W        W33636  35.416  16.621  11.542
61377W        W33637   5.224  13.756   4.151
61378W        W33638  32.594  21.715   1.919
61379W        W33639  35.063  40.458  14.407
61380W        W33640  19.726  36.044   0.872
61381W        W33641  28.455   1.337   3.246
61382W        W33642  14.790  44.386  13.954
61383W        W33643  13.127  30.570   3.634
61384W        W33644  31.529  35.894   1.708
61385W        W33645  29.480  22.557   3.707
61386W        W33646   2.820  37.830  11.564
61387W        W33647  27.080  29.932   4.838
61388W        W33648  23.031   4.317   3.228
61389W        W33649  44.976  17.191   3.713
61390W        W33650   7.868  39.321  12.402
61391W        W33651  28.063   5.250   2.325
61392W        W33652   9.236  34.880  10.448
61393W        W33653   3.811   3.411  13.419
61394W        W33654  16.289  16.277   1.896
61395W        W33655  38.333  30.944  14.798
61396W        W33656  19.747  11.150   4.722
61397W        W33657  38.505   2.946   0.771
61398W        W33658  30.979  43.868   3.763
61399W        W33659   3.837   4.795   2.795
61400W        W33660  35.546  40.840  10.579
61401W        W33661  39.442  26.020   3.157
61402W        W33662   6.323   6.871   4.728
61403W        W33663   5.400  18.742  12.870
61404W        W33664  38.350   7.794   4.296
61405W        W33665  31.597   9.822  12.990
61406W        W33666  44.009  44.842  12.446
61407W        W33667  34.485  31.107   4.677
61408W        W33668  34.007  12.699  13.892
61409W        W33669   5.724  38.485  13.053
61410W        W33670  39.931   8.349   1.871
61411W        W33671   0.305  35.084   4.684
61412W        W33672  34.481  20.086   2.220
61413W        W33673  35.043   1.331  13.435
61414W        W33674  44.404   8.249   4.676
61415W        W33675   0.806  20.237  11.511
61416W        W33676   5.333  17.664  12.851
61417W        W33677  39.479  14.702   3.195
61418W        W33678  12.146  39.832   2.353
61419W        W33679  43.404   3.256   3.733
61420W        W33680  12.856   7.890  13.864
61421W        W33681  35.963  19.644  14.288
61422W        W33682   9.854  26.591   0.270
61423W        W33683  41.937  34.068   1.403
61424W        W33684   2.762  37.389   4.155
61425W        W33685  15.679  43.939  10.489
61426W        W33686   4.788  13.686  14.404
61427W        W33687  36.093  15.652   0.909
61428W        W33688  38.415  28.525   4.742
61429W        W33689  26.085   3.847  11.504
61430W        W33690  28.981  21.255   0.418
61431W        W33691  24.221  20.049   4.270
61432W        W33692  33.596  40.850   0.298
61433W        W33693  27.647  40.430  10.454
61434W        W33694  18.292   9.866  10.548
61435W        W33695  34.903   1.242   4.162
61436W        W33696  35.555  30.537  10.555
61437W        W33697  31.614  19.279   1.396
61438W        W33698  23.633  31.537  10.594
61439W        W33699  24.102  26.011   5.308
61440W        W33700  14.171  14.138  11.990
61441W        W33701  23.680  14.814  13.930
61442W        W33702   4.220  26.618  14.516
61443W        W33703  42.399   6.364  14.772
61444W        W33704  11.728   1.833  11.909
61445W        W33705  25.535  37.378   2.830
61446W        W33706   0.757  31.912  10.469
61447W        W33707   9.748  12.837   3.156
61448W        W33708  33.427  20.134   3.788
61449W        W33709  17.779   8.229   1.805
61450W        W33710   4.278   7.395   1.849
61451W        W33711  37.001  25.043  11.125
61452W        W33712  30.060  26.016   2.294
61453W        W33713  33.504  41.439  12.459
61454W        W33714  17.153  39.500   3.766
61455W        W33715  20.639  27.016  11.931
61456W        W33716  42.852  12.623  10.408
61457W        W33717   8.863  30.163   0.480
61458W        W33718   1.245  30.547  10.472
61459W        W33719  15.598  19.279  12.442
61460W        W33720  32.439  13.123  14.956
61461W        W33721  16.169   1.397  12.906
61462W        W33722  41.347  23.135   4.222
61463W        W33723  43.383   8.762   4.612
61464W        W33724  16.787  44.498  13.885
61465W        W33725  20.111   8.260   5.254
61466W        W33726  27.130  17.150  14.863
61467W        W33727  31.017   4.909   0.357
61468W        W33728   4.941   6.807   0.478
61469W        W33729  42.825  12.141  13.948
61470W        W33730  44.789  33.498  10.034
61471W        W33731   4.894  36.942  10.998
61472W        W33732  35.441  42.307  10.438
61473W        W33733  33.999  18.659   2.889
61474W        W33734  12.684  29.589  11.897
61475W        W33735  25.633  23.703  10.631
61476W        W33736   8.404  21.555  11.049
61477W        W33737  14.293  22.185  11.447
61478W        W33738   6.195  18.765  10.517
61479W        W33739   1.305  36.511   2.300
61480W        W33740  21.250  27.153   4.355
61481W        W33741   2.868   9.281   4.267
61482W        W33742  37.995  28.977  11.923
61483W        W33743  18.606  24.506  10.593
61484W        W33744  19.157  21.241  12.447
61485W        W33745  25.010  29.456  11.477
61486W        W33746  14.110  42.350   1.778
61487W        W33747  38.845   2.830   1.391
61488W        W33748  31.062  11.261   0.967
61489W        W33749  17.097  37.366   1.212
61490W        W33750  27.449  40.493  12.836
61491W        W33751  36.989  30.438   1.798
61492W        W33752  23.733   2.423  10.444
61493W        W33753  25.989   6.833   3.864
61494W        W33754  21.625  14.646   3.788
61495W        W33755  25.642  11.359   1.274
61496W        W33756  28.082  12.730   4.667
61497W        W33757  40.371  34.069   2.672
61498W        W33758  15.691  35.888  12.005
61499W        W33759  39.395  24.129   2.249
61500W        W33760   4.738  24.103   2.666
61501W        W33761  20.671  44.762   1.858
61502W        W33762  37.054  17.800  13.989
61503W        W33763  13.139  11.703   4.616
61504W        W33764  24.110   4.275  11.883
61505W        W33765  33.911  17.656  14.494
61506W        W33766  28.070  41.002  11.495
61507W        W33767  35.547  39.492  12.537
61508W        W33768  15.583  29.038   3.351
61509W        W33769  33.965  29.975  13.356
61510W        W33770   2.858  44.486  10.537
61511W        W33771  22.563  28.033   5.281
61512W        W33772   2.424  15.144   2.710
61513W        W33773  35.575  17.215  12.889
61514W        W33774  20.545   4.936  12.902
61515W        W33775   3.390  42.893  10.075
61516W        W33776   8.676   6.844   4.167
61517W        W33777   0.268   0.489   3.721
61518W        W33778  19.072   9.154   4.761
61519W        W33779  14.786   0.492  13.969
61520W        W33780  33.534  36.387  10.037
61521W        W33781  35.511  35.865  12.904
61522W        W33782  37.987  24.996  14.360
61523W        W33783   2.751  40.998  13.831
61524W        W33784  31.548   9.651  11.373
61525W        W33785   5.240  43.957  12.435
61526W        W33786   2.847  24.550   2.317
61527W        W33787  26.593  20.738   1.858
61528W        W33788  25.160  20.059   1.423
61529W        W33789  24.616  25.011  14.819
61530W        W33790  16.737  44.275   1.786
61531W        W33791  28.063   4.924  10.626
61532W        W33792  31.146   1.243  13.395
61533W        W33793  16.650  22.027   2.300
61534W        W33794   6.911  16.288   1.907
61535W        W33795   3.259   4.942   2.238
61536W        W33796  33.623  35.070   0.966
61537W        W33797  28.947  35.554   4.150
61538W        W33798  11.812  36.990   4.126
61539W        W33799  22.019  32.525   3.868
61540W        W33800   7.722  20.675   2.883
61541W        W33801  27.583  16.643   4.724
61542W        W33802  36.911  15.605  10.596
61543W        W33803  42.435  11.761  14.975
61544W        W33804  21.627  41.878   3.761
61545W        W33805  25.679  33.952  12.527
61546W        W33806  19.215  42.521  14.433
61547W        W33807  13.122   9.751  14.390
61548W        W33808  21.066  43.360   4.263
61549W        W33809  24.587  14.695   0.817
61550W        W33810  13.720  21.235  12.524
61551W        W33811  25.111  42.824   0.360
61552W        W33812  26.994  36.568   4.681
61553W        W33813  15.801  16.163   1.709
61554W        W33814  18.651  30.014  11.450
61555W        W33815  17.566  43.403   0.919
61556W        W33816   6.185  18.614   4.304
61557W        W33817   8.385  26.628   1.750
61558W        W33818  33.020  44.009   2.376
61559W        W33819   7.332   0.347   3.790
61560W        W33820  10.365  38.490   5.108
61561W        W33821  44.271  27.075  11.995
61562W        W33822   8.344   6.270  14.445
61563W        W33823  27.144  10.726   1.934
61564W        W33824  31.404  43.384  10.409
61565W        W33825  21.104  40.314  12.922
61566W        W33826  27.962  19.628  10.953
61567W        W33827  31.431  18.647   2.708
61568W        W33828  23.049  23.994  13.966
61569W        W33829   4.940  21.252  11.121
61570W        W33830  42.458   6.383   1.758
61571W        W33831   3.721  42.994  12.090
61572W        W33832  38.480  31.645   0.932
61573W        W33833  10.657   8.203  10.637
61574W        W33834  41.794   6.390  14.819
61575W        W33835  12.697  18.564   3.289
61576W        W33836  31.097  38.335  13.820
61577W        W33837  44.950   0.483  11.542
61578W        W33838  15.759  29.590  10.919
61579W        W33839  41.318  16.260  11.125
61580W        W33840  24.615  41.889  14.516
61581W        W33841  20.622   6.366  12.449
61582W        W33842  32.137  28.971  13.310
61583W        W33843  36.533  40.452   2.401
61584W        W33844  36.048  12.159  14.512
61585W        W33845   5.377  41.367  12.472
61586W        W33846   6.731   5.375   3.779
61587W        W33847   7.795   9.369  13.958
61588W        W33848  30.086  26.517   4.670
61589W        W33849  37.020  35.586   0.473
61590W        W33850   0.775  30.605  10.962
61591W        W33851   4.299  11.680   1.229
61592W        W33852  34.116  15.791  10.604
61593W        W33853  32.468   5.775  13.457
61594W        W33854  21.093  12.145  11.428
61595W        W33855  32.123  22.144   2.675
61596W        W33856  34.603  10.193   1.891
61597W        W33857  25.686  16.576  12.438
61598W        W33858  22.731  41.321   3.823
61599W        W33859  33.431  33.587   5.139
61600W        W33860  20.643  22.512   2.194
61601W        W33861  23.086  33.565   1.841
61602W        W33862   7.381  12.238  11.939
61603W        W33863   3.296  11.249   4.784
61604W        W33864   9.764  44.881  10.967
61605W        W33865  33.392  23.689  11.541
61606W        W33866  33.128  17.789   2.735
61607W        W33867  23.144   7.233  10.505
61608W        W33868   1.947  37.564  11.592
61609W        W33869  10.311   6.380   1.420
61610W        W33870   4.800  26.647   3.818
61611W        W33871  39.467   2.746  11.517
61612W        W33872  20.154  21.749   4.706
61613W        W33873  28.975  15.187  14.401
61614W        W33874  39.375  25.141   4.134
61615W        W33875  28.640  13.319  12.371
61616W        W33876   1.422  17.165  10.488
61617W        W33877  33.465  13.223  11.524
61618W        W33878  12.307  30.659  11.040
61619W        W33879  34.529  35.570   0.748
61620W        W33880  26.040   2.872  11.427
61621W        W33881  24.128   9.222  12.468
61622W        W33882  32.513  40.401   0.822
61623W        W33883   8.822  16.793  10.618
61624W        W33884  19.709  28.593   2.371
61625W        W33885   8.712   9.306   1.318
61626W        W33886  11.135  23.662   2.328
61627W        W33887  11.751   8.671  13.931
61628W        W33888   2.359   8.362  14.031
61629W        W33889  41.894  29.103  12.505
61630W        W33890  30.643  40.467  11.373
61631W        W33891   4.303  35.901   4.707
61632W        W33892  18.575  38.007  10.639
61633W        W33893   0.837   4.341  12.036
61634W        W33894  20.633  10.214  14.956
61635W        W33895   4.206  11.260  11.381
61636W        W33896  24.079  28.098   2.237
61637W        W33897   1.852  17.677   0.427
61638W        W33898   0.364  12.292  11.517
61639W        W33899  15.789  29.971   2.415
61640W        W33900  14.239  23.226   1.842
61641W        W33901  39.820  10.820   2.339
61642W        W33902  39.935  12.263   0.849
61643W        W33903  11.292   6.213  10.439
61644W        W33904  41.911  35.989  14.375
61645W        W33905  12.335  17.597   2.385
61646W        W33906  22.619   4.912   1.833
61647W        W33907   4.420  10.302   2.874
61648W        W33908  21.185   2.394  12.040
61649W        W33909  39.421   5.405   3.800
61650W        W33910   9.261  32.637  11.122
61651W        W33911  42.364  25.097  13.350
61652W        W33912  15.088  41.414  12.931
61653W        W33913   7.888   0.278   0.433
61654W        W33914   6.781  44.308   1.930
61655W        W33915  36.486  37.952  10.489
61656W        W33916   6.916  20.617   4.833
61657W        W33917   6.239  26.688   3.791
61658W        W33918   6.713  37.076   2.837
61659W        W33919  19.729  24.196  10.898
61660W        W33920  27.037   2.761   2.714
61661W        W33921  42.310  18.791  12.527
61662W        W33922  12.286  23.678   2.694
61663W        W33923  37.505  25.204   3.735
61664W        W33924  18.728  34.573  12.484
61665W        W33925  12.747  10.684   4.284
61666W        W33926  25.037  41.399  11.921
61667W        W33927   7.724  23.578  11.115
61668W        W33928  10.777  15.171  11.120
61669W        W33929   6.193   8.252   3.285
61670W        W33930  14.146   7.254  11.942
61671W        W33931  28.166  14.621   3.746
61672W        W33932  27.539  38.470  13.356
61673W        W33933  15.087  43.791  11.118
61674W        W33934  43.322  21.540   3.274
61675W        W33935  35.950  35.368  13.445
61676W        W33936  16.145  33.621  10.409
61677W        W33937  39.373  41.525   1.862
61678W        W33938  27.067  37.414   2.210
61679W        W33939  44.353  15.149   3.693
61680W        W33940  29.605  10.160   2.807
61681W        W33941  41.003  39.538  12.946
61682W        W33942  16.308   9.329  13.441
61683W        W33943  29.148  39.412  13.987
61684W        W33944  34.563  37.530   3.637
61685W        W33945  40.852  30.156  11.093
61686W        W33946  25.468  25.985  13.390
61687W        W33947  41.917  36.914   4.819
61688W        W33948  42.392  42.899   2.295
61689W        W33949  12.645   9.255   3.706
61690W        W33950  14.264  17.248   0.353
61691W        W33951  24.014  35.361  10.454
61692W        W33952  43.407   5.200   4.274
61693W        W33953  41.982  33.062   0.376
61694W        W33954  28.056   2.262  14.377
61695W        W33955   0.281  33.580  12.961
61696W        W33956   2.251  17.282  11.462
61697W        W33957  37.487  16.650   0.362
61698W        W33958   7.880  27.646   1.705
61699W        W33959  10.692   2.882  10.594
61700W        W33960   5.338   2.957  10.999
61701W        W33961   1.436  31.436   0.846
61702W        W33962  33.120  23.993   3.181
61703W        W33963  29.572  44.874   4.759
61704W        W33964  21.171  36.550  12.493
61705W        W33965  42.436   8.654   2.399
61706W        W33966  35.017  13.615  14.472
61707W        W33967  24.982  17.176   3.697
61708W        W33968   8.313  39.469   3.788
61709W        W33969  36.557   7.183  11.405
61710W        W33970  14.279   2.372   1.323
61711W        W33971  32.107  11.172  14.765
61712W        W33972   3.281  40.546   2.750
61713W        W33973  13.801  43.841   3.291
61714W        W33974  42.299  19.649  11.088
61715W        W33975   4.365  44.458   3.762
61716W        W33976  28.171  28.542   2.199
61717W        W33977  13.682  15.806  11.916
61718W        W33978  19.080  22.729   0.276
61719W        W33979  30.023  23.131   2.327
61720W        W33980   8.406  10.278  14.975
61721W        W33981  15.289   0.884  14.857
61722W        W33982  21.156   7.694   4.668
61723W        W33983  42.331  40.923   1.800
61724W        W33984  22.524   5.386   4.667
61725W        W33985  27.576  11.734  12.886
61726W        W33986  43.507   7.767  12.055
61727W        W33987  37.379  36.885  11.599
61728W        W33988  44.773  16.291  13.522
61729W        W33989  21.658  38.030  12.862
61730W        W33990  28.552  25.020  13.548
61731W        W33991  33.969  15.146  12.870
61732W        W33992   1.323  11.346  13.462
61733W        W33993  42.857  40.916  14.352
61734W        W33994   0.369   6.755  10.897
61735W        W33995  14.694  18.635   3.662
61736W        W33996  35.941  32.512   0.282
61737W        W33997  13.748  24.550  10.476
61738W        W33998   7.247   0.935   4.298
61739W        W33999  30.977  25.473  12.957
61740W        W34000  24.068  14.170  12.030
61741W        W34001  24.629  32.501  12.390
61742W        W34002  32.945  16.127  14.011
61743W        W34003   8.801  38.522   1.409
61744W        W34004  43.441  15.225  14.383
61745W        W34005  16.151  15.615   2.821
61746W        W34006  15.189  19.572  14.453
61747W        W34007  20.626  37.973   4.766
61748W        W34008  12.852  42.524   0.912
61749W        W34009  30.029  17.774   1.244
61750W        W34010  37.949  36.362  12.037
61751W        W34011  26.657  43.323   2.754
61752W        W34012   1.892  26.576   4.288
61753W        W34013   5.887  14.733   2.703
61754W        W34014  32.597   3.269  11.484
61755W        W34015  38.414  16.120   3.313
61756W        W34016   1.938   4.725   0.390
61757W        W34017  39.836  27.610   1.763
61758W        W34018  38.565   0.360  12.534
61759W        W34019  42.818  13.755   0.278
61760W        W34020  30.595  19.263   4.335
61761W        W34021  26.588  30.492   0.825
61762W        W34022  27.479   8.313   3.796
61763W        W34023   2.461  29.156   0.460
61764W        W34024  27.616  44.983   1.342
61765W        W34025   4.819   1.256  10.898
61766W        W34026  32.518  27.986   3.705
61767W        W34027  25.995  40.966   0.270
61768W        W34028  10.152  12.170  12.510
61769W        W34029  30.458  31.043   0.735
61770W        W34030   3.421   9.739   0.389
61771W        W34031   1.816  28.537  12.867
61772W        W34032  10.694  31.099  12.941
61773W        W34033  32.461  22.222   2.711
61774W        W34034   7.747  42.289  13.806
61775W        W34035   4.793  12.700   0.943
61776W        W34036   7.668  24.095  14.030
61777W        W34037  25.521  44.304  10.948
61778W        W34038   4.706   0.306   2.403
61779W        W34039  14.242  24.574  14.948
61780W        W34040  21.609  26.068  12.390
61781W        W34041  35.863   1.828  10.621
61782W        W34042  17.099  36.417   2.331
61783W        W34043  29.664  18.061  10.157
61784W        W34044  38.370   1.953  10.992
61785W        W34045  41.343  37.500   4.205
61786W        W34046   1.444  36.992   4.614
61787W        W34047  23.209  23.702  14.787
61788W        W34048  12.228  37.986  14.351
61789W        W34049  21.049   5.285   3.645
61790W        W34050   2.430   4.230  13.502
61791W        W34051  38.484  25.133   3.225
61792W        W34052  30.554  33.042  13.979
61793W        W34053  35.058   8.860  14.495
61794W        W34054  12.611  29.038   0.359
61795W        W34055  28.652   0.988  13.010
61796W        W34056  30.139   6.760   1.705
61797W        W34057  12.670  31.896  14.900
61798W        W34058  17.137  13.839  13.443
61799W        W34059  44.828  44.407  10.531
61800W        W34060  17.650  38.884   2.385
61801W        W34061  26.074   4.705   3.350
61802W        W34062   1.770   4.437   2.763
61803W        W34063  27.652  44.908   1.930
61804W        W34064  28.600  29.575   4.706
61805W        W34065  11.729  42.507  14.910
61806W        W34066  39.467   5.247  13.534
61807W        W34067  13.832  11.293  11.980
61808W        W34068  25.513  18.253  13.025
61809W        W34069   0.438   6.708  13.547
61810W        W34070  43.488  28.614   2.729
61811W        W34071  18.242  13.746  14.816
61812W        W34072   9.213  26.094  11.062
61813W        W34073  41.538  29.520  13.328
61814W        W34074  23.512  34.966  12.882
61815W        W34075  30.527  37.463   5.278
61816W        W34076  21.512  34.471   2.278
61817W        W34077  37.955  24.059   1.871
61818W        W34078  39.940   4.823   4.220
61819W        W34079   9.226  28.082   3.746
61820W        W34080  27.460  18.748  13.971
61821W        W34081  44.450  15.680   3.365
61822W        W34082   5.343  14.834  14.305
61823W        W34083  44.471  32.089   4.294
61824W        W34084  10.371  13.264  12.391
61825W        W34085  23.544  29.960  14.321
61826W        W34086  23.199  13.604  14.763
61827W        W34087  29.015  33.530   3.364
61828W        W34088  17.575  10.733   4.680
61829W        W34089  18.241   7.364   3.281
61830W        W34090  26.637  44.501  10.957
61831W        W34091  38.017  33.420   3.862
61832W        W34092   0.822  41.817  13.035
61833W        W34093  12.218   3.795  14.989
61834W        W34094  37.450  32.436  10.462
61835W        W34095   8.230   8.396   0.824
61836W        W34096  23.002  36.375  13.877
61837W        W34097  38.419   3.879   0.809
61838W        W34098  41.015  14.789  11.431
61839W        W34099  39.818  19.741  14.435
61840W        W34100   4.221  24.083  12.526
61841W        W34101  44.799   1.431  11.092
61842W        W34102   0.364  31.938  14.918
61843W        W34103  34.606  40.460   1.269
61844W        W34104  40.383  30.520   1.732
61845W        W34105  16.753   4.856  13.394
61846W        W34106  42.023   7.731   2.413
61847W        W34107  17.593  12.762  11.049
61848W        W34108  14.684   9.867  12.970
61849W        W34109   4.271  43.350  13.343
61850W        W34110   0.834   7.791  13.409
61851W        W34111  31.415  16.676  12.042
61852W        W34112   6.259  43.303   4.606
61853W        W34113  42.453   6.419   1.274
61854W        W34114   8.729  42.398  11.924
61855W        W34115  19.110  13.701  10.642
61856W        W34116   5.891  39.323  11.113
61857W        W34117  12.236   0.800  13.376
61858W        W34118  33.594   0.380   4.785
61859W        W34119   2.903  28.647   2.822
61860W        W34120  25.024  38.375   4.268
61861W        W34121   7.806  31.543  13.791
61862W        W34122  30.962  10.320  10.541
61863W        W34123  30.024  13.197   4.598
61864W        W34124  36.507  34.881  12.371
61865W        W34125  28.944   2.226   0.781
61866W        W34126   9.322   6.767   4.715
61867W        W34127  41.496  43.877  12.070
61868W        W34128  13.749  23.727  12.491
61869W        W34129  26.143  38.348  12.936
61870W        W34130  27.642  40.988   3.343
61871W        W34131  41.819  15.587   3.231
61872W        W34132  24.719  36.893   2.899
61873W        W34133  23.702  37.932  12.045
61874W        W34134  11.147  13.614  12.826
61875W        W34135   3.353   4.228  12.463
61876W        W34136  24.159  15.794   2.273
61877W        W34137  27.651  43.770   0.858
61878W        W34138   5.333   9.196   2.352
61879W        W34139  19.596  43.362   4.808
61880W        W34140  26.602  34.931  12.874
61881W        W34141  17.746  17.567   0.398
61882W        W34142  10.254   1.974   1.342
61883W        W34143  14.788  21.177  11.565
61884W        W34144   9.769  20.067   1.701
61885W        W34145  16.255   8.757  13.949
61886W        W34146  23.161  32.074   2.285
61887W        W34147  41.528  12.273   2.319
61888W        W34148  16.717  25.159   0.944
61889W        W34149  23.576   8.227  12.068
61890W        W34150  38.471  44.816   1.853
61891W        W34151   9.157  22.541   1.292
61892W        W34152  31.594   8.303  11.537
61893W        W34153  29.468  32.415   3.683
61894W        W34154  37.376  38.455  10.969
61895W        W34155  28.015   9.880   0.398
61896W        W34156  31.605  37.346   2.903
61897W        W34157  15.585  19.552   3.806
61898W        W34158  36.895  10.301  11.605
61899W        W34159  13.757  36.561  10.581
61900W        W34160  14.235  22.078  14.470
61901W        W34161   9.265  44.942  14.338
61902W        W34162   6.832  19.274  13.807
61903W        W34163  13.793  12.115   3.241
61904W        W34164  36.495  11.361  12.954
61905W        W34165  34.924  34.050   3.711
61906W        W34166  10.874  12.293   0.445
61907W        W34167  32.622  37.955  12.384
61908W        W34168  42.388  14.733  10.938
61909W        W34169  30.970  33.415   3.261
61910W        W34170   9.679  37.415   3.798
61911W        W34171  31.030  42.458  11.430
61912W        W34172   9.358  14.317  12.484
61913W        W34173  16.620  26.139  14.876
61914W        W34174  43.850  17.177   1.274
61915W        W34175  29.087  37.399   3.765
61916W        W34176  29.525  39.520   2.379
61917W        W34177  39.511   2.227   1.826
61918W        W34178   7.843  18.127  13.006
61919W        W34179  22.631  27.952  13.794
61920W        W34180  22.714  23.668   0.766
61921W        W34181  21.625  30.531  13.047
61922W        W34182  37.437  34.588   2.252
61923W        W34183   8.381  31.427  11.884
61924W        W34184  19.055  34.089   4.271
61925W        W34185   2.238  16.577   4.803
61926W        W34186  12.180  20.600   2.397
61927W        W34187  44.328  26.507   4.235
61928W        W34188  44.325  43.803  11.082
61929W        W34189   2.888  29.585  12.370
61930W        W34190  44.310  24.098   3.850
61931W        W34191   4.719  33.097   2.183
61932W        W34192  29.050  20.583   0.755
61933W        W34193   2.730   9.231  13.847
61934W        W34194   7.296  41.404   3.725
61935W        W34195  11.270   9.344  14.788
61936W        W34196  38.558  39.897  14.991
61937W        W34197  15.129  29.124   3.243
61938W        W34198  24.135  15.773   0.887
61939W        W34199  29.060  13.634   0.963
61940W        W34200   9.863  13.147   4.222
61941W        W34201  13.769  11.866  14.935
61942W        W34202  34.386   7.308  12.484
61943W        W34203  22.208  38.989   0.887
61944W        W34204   6.766  18.686  12.916
61945W        W34205  24.174  42.479  11.509
61946W        W34206  34.426  21.160  12.513
61947W        W34207  21.120  36.892   1.743
61948W        W34208  23.647  43.822   1.394
61949W        W34209  31.536  38.895  13.968
61950W        W34210  43.810  19.548   3.185
61951W        W34211  35.476   4.396   0.364
61952W        W34212   6.409  26.172  14.761
61953W        W34213   3.444  44.276   4.130
61954W        W34214   4.331  40.421   3.344
61955W        W34215  43.775   0.268   2.217
61956W        W34216  25.186   3.315   4.214
61957W        W34217  19.224  36.486   1.770
61958W        W34218  35.981  23.656   0.453
61959W        W34219  24.631  10.382  13.042
61960W        W34220   4.919  33.518   0.947
61961W        W34221  12.357   8.170  13.453
61962W        W34222  30.547  43.324  13.900
61963W        W34223  16.266  14.184  10.971
61964W        W34224  35.558  40.810  13.004
61965W        W34225  25.155  13.721   3.365
61966W        W34226   8.666  27.082   0.826
61967W        W34227   5.818  27.606  12.432
61968W        W34228  16.175  24.521   0.876
61969W        W34229  35.563   6.330   0.269
61970W        W34230  13.318  20.162  13.801
61971W        W34231  43.468  38.953  12.884
61972W        W34232  10.674  31.496   0.255
61973W        W34233   1.963  10.683  11.580
61974W        W34234  42.786   0.841   3.644
61975W        W34235  34.875  32.131   4.671
61976W        W34236  24.154  36.994   1.233
61977W        W34237  25.051  40.313   0.313
61978W        W34238  14.326  12.673  14.820
61979W        W34239  18.577  12.774   9.955
61980W        W34240  34.074   3.461   3.830
61981W        W34241  30.490  18.116   3.341
61982W        W34242  16.252   0.481   1.381
61983W        W34243  35.872  29.988   0.351
61984W        W34244  41.812   1.437   1.727
61985W        W34245   8.273  22.041   4.123
61986W        W34246  30.095  38.015  13.874
61987W        W34247  19.739   8.810  13.020
61988W        W34248   2.812  25.546   3.216
61989W        W34249  34.056   0.752  12.571
61990W        W34250  23.166   1.954  13.059
61991W        W34251  16.762  27.959   0.269
61992W        W34252  19.112  42.831   2.796
61993W        W34253   9.174  14.689  13.430
61994W        W34254  31.471  27.057  13.482
61995W        W34255  40.541   7.886  12.919
61996W        W34256  26.156  32.093   4.257
61997W        W34257   4.209  17.772  11.035
61998W        W34258  35.459  41.011  12.074
61999W        W34259  34.535  41.327   3.149
62000W        W34260   5.256  19.165   3.279
62001W        W34261  19.140   7.252  14.450
62002W        W34262  38.993  29.063  13.819
62003W        W34263  25.211   7.890   2.255
62004W        W34264  42.306  29.167  11.935
62005W        W34265   3.771  36.995   2.835
62006W        W34266   7.773  30.102  12.431
62007W        W34267   1.409  20.670  13.394
62008W        W34268  22.641  16.219  12.368
62009W        W34269  33.948  18.671   4.827
62010W        W34270  34.904  44.305   1.702
62011W        W34271  34.891  17.613  14.860
62012W        W34272  24.695  36.045  13.007
62013W        W34273  41.963   2.959  13.872
62014W        W34274  14.799  13.239   3.274
62015W        W34275   2.332   5.193   0.429
62016W        W34276  38.013  11.209  14.468
62017W        W34277  32.135  34.435   2.875
62018W        W34278  13.673  15.605   0.899
62019W        W34279  12.821  42.859   2.342
62020W        W34280  11.150  19.274  12.402
62021W        W34281  24.993  11.689   2.273
62022W        W34282  44.000  30.481   3.187
62023W        W34283  18.205  22.009  13.320
62024W        W34284  44.989  27.487  14.340
62025W        W34285  24.049  21.567   2.876
62026W        W34286  25.007  39.550   1.764
62027W        W34287  21.628   3.793   1.283
62028W        W34288  15.273  16.702  11.874
62029W        W34289  33.875  38.444  10.423
62030W        W34290   9.196   0.377  10.539
62031W        W34291  14.248   2.898   3.758
62032W        W34292  33.483  20.078  13.020
62033W        W34293  22.686  40.822  11.501
62034W        W34294  11.722  19.777   4.687
62035W        W34295   2.798  21.174  13.330
62036W        W34296  14.178  18.747  10.918
62037W        W34297  42.344  16.567  11.045
62038W        W34298  12.298  14.767   0.297
62039W        W34299  32.578  40.900  12.850
62040W        W34300  12.664   8.754  12.537
62041W        W34301  36.087  42.998   4.343
62042W        W34302   9.164  39.007   1.221
62043W        W34303  22.716   9.693  10.543
62044W        W34304  41.827   6.742   1.714
62045W        W34305  37.881  28.974   0.936
62046W        W34306  21.225  29.450  14.007
62047W        W34307  44.831  40.011  11.871
62048W        W34308  36.040   7.798  14.443
62049W        W34309  32.117  21.610   2.830
62050W        W34310  25.702   2.434  12.381
62051W        W34311  22.013   0.335  12.356
62052W        W34312  24.020  15.175   1.828
62053W        W34313  34.955   9.712   1.393
62054W        W34314  36.459  38.475  11.891
62055W        W34315  44.411  40.885  11.572
62056W        W34316   4.801  29.574   0.875
62057W        W34317  12.683  38.064   2.720
62058W        W34318  13.202  30.018   9.656
62059W        W34319  25.005  15.752  11.522
62060W        W34320   1.814  28.153   3.748
62061W        W34321  12.161  23.572  14.504
62062W        W34322   6.265  28.474  13.965
62063W        W34323   9.373  36.556  13.364
62064W        W34324  42.438  18.670   3.754
62065W        W34325   0.804  26.074  14.398
62066W        W34326   3.909  28.937   1.431
62067W        W34327  24.668  22.534   1.318
62068W        W34328   7.298  32.084  14.850
62069W        W34329  19.771  39.881   3.804
62070W        W34330   5.871  21.752  12.899
62071W        W34331  35.944  23.654  12.865
62072W        W34332  29.116  13.611   4.195
62073W        W34333  32.047   8.195   1.375
62074W        W34334  41.825   3.219  10.486
62075W        W34335  27.120  42.457  14.934
62076W        W34336   1.309   5.308   4.633
62077W        W34337  19.074  29.107  11.084
62078W        W34338  15.658  24.093  13.056
62079W        W34339  31.147   4.365  13.833
62080W        W34340  18.091   7.289   1.765
62081W        W34341   8.192   2.752  14.899
62082W        W34342  22.642  36.398   4.757
62083W        W34343  20.249  44.763  11.373
62084W        W34344  24.014  16.582  12.003
62085W        W34345  20.676  38.887   4.773
62086W        W34346  12.157  19.720  12.357
62087W        W34347  31.099   4.209   3.652
62088W        W34348  21.521   3.829   1.735
62089W        W34349  43.492   4.377  12.356
62090W        W34350  32.396  41.956  13.924
62091W        W34351   0.813  40.842  14.918
62092W        W34352  28.049  38.467  11.953
62093W        W34353  21.516   8.885  11.906
62094W        W34354  14.695  21.623  12.405
62095W        W34355  11.819  34.970  14.858
62096W        W34356   5.381   6.856   1.718
62097W        W34357   9.744  32.444   1.414
62098W        W34358   5.887   4.341   4.730
62099W        W34359  42.932  32.440   2.200
62100W        W34360  37.567   7.208   2.180
62101W        W34361  29.654  32.637  10.580
62102W        W34362  13.767   2.738   0.256
62103W        W34363   2.798   2.765  14.297
62104W        W34364   8.757  31.912   2.779
62105W        W34365  30.023  38.846   2.795
62106W        W34366   6.822  41.966  10.978
62107W        W34367  37.958   0.487   3.386
62108W        W34368  31.916  38.843   1.717
62109W        W34369   5.433  22.133  14.403
62110W        W34370  23.527  21.736  13.384
62111W        W34371  39.448  36.496   1.887
62112W        W34372  38.420   2.747   4.753
62113W        W34373  18.165   1.470   0.445
62114W        W34374  33.565  29.450   5.284
62115W        W34375  32.109   7.829  11.551
62116W        W34376  37.339  18.246  10.947
62117W        W34377  34.046   0.336  10.481
62118W        W34378  38.478  33.617   4.758
62119W        W34379  16.675  27.055   1.766
62120W        W34380  26.536   3.286   2.851
62121W        W34381  15.802  11.281  13.507
62122W        W34382  31.528   8.228  11.096
62123W        W34383  23.691  38.942   2.716
62124W        W34384  17.266  40.948   3.382
62125W        W34385  32.523   3.785  10.524
62126W        W34386  37.087  24.198  11.570
62127W        W34387  30.496  22.997  11.902
62128W        W34388   6.744  30.990   2.706
62129W        W34389   0.489  41.432   0.433
62130W        W34390  12.178   7.820  14.306
62131W        W34391  22.102  40.042   0.811
62132W        W34392   3.810  11.334   3.218
62133W        W34393  32.922  44.499   1.733
62134W        W34394  12.803  28.964  14.831
62135W        W34395  38.394  13.638  13.056
62136W        W34396  32.556  25.554  13.368
62137W        W34397  40.338  22.513   5.132
62138W        W34398   0.371   9.317  13.477
62139W        W34399  40.533  44.939   2.274
62140W        W34400  30.435  40.328   3.218
62141W        W34401  26.510  41.336   3.245
62142W        W34402  42.518  24.077   2.791
62143W        W34403  30.924  28.174  14.003
62144W        W34404  21.091  21.210  14.773
62145W        W34405  13.843  26.073   2.256
62146W        W34406   2.883  38.929  11.474
62147W        W34407  19.754   5.788   1.232
62148W        W34408  18.732  40.384  11.379
62149W        W34409  34.593  35.061  10.979
62150W        W34410  32.627  24.175   1.406
62151W        W34411  24.602  41.433   5.125
62152W        W34412  11.350  34.397   1.346
62153W        W34413  11.141  13.302  11.051
62154W        W34414   2.873  17.595  10.606
62155W        W34415   9.216   0.415  13.855
62156W        W34416  16.294  18.790   2.846
62157W        W34417  24.093  25.580   0.376
62158W        W34418  11.859  18.157  12.078
62159W        W34419  18.774  33.936  10.612
62160W        W34420  16.128  30.011  13.825
62161W        W34421  11.346  19.595   0.305
62162W        W34422   4.745  44.307   0.822
62163W        W34423  26.117  12.204  13.887
62164W        W34424  22.622  26.528  14.847
62165W        W34425  41.424  22.217  10.432
62166W        W34426   6.881  10.152  13.031
62167W        W34427  34.114  41.790  14.503
62168W        W34428  20.693  22.623   0.835
62169W        W34429  24.222  36.851  14.504
62170W        W34430  24.656  38.854   4.815
62171W        W34431  39.430  17.562   2.199
62172W        W34432  21.675  30.916  14.997
62173W        W34433  18.722  35.361   4.180
62174W        W34434  31.421   7.232   1.870
62175W        W34435  30.488  13.253   0.931
62176W        W34436  11.767  13.162  12.403
62177W        W34437  25.526  23.588  13.011
62178W        W34438  41.987   6.896  13.064
62179W        W34439  12.648  26.966  10.543
62180W        W34440  34.915  44.448  11.882
62181W        W34441   7.329   3.869   4.664
62182W        W34442  39.370  39.387  12.403
62183W        W34443  18.672  43.787  11.394
62184W        W34444   5.743  25.703  14.915
62185W        W34445  34.521  35.492   2.313
62186W        W34446  41.362   0.295   3.339
62187W        W34447   4.917  23.509   0.843
62188W        W34448  34.435  43.993  14.455
62189W        W34449  19.733  24.707  14.023
62190W        W34450  14.808  17.796   1.412
62191W        W34451  41.508   6.766  14.030
62192W        W34452   1.783  40.978   1.821
62193W        W34453  16.239   3.950  10.935
62194W        W34454  23.241  35.520  11.970
62195W        W34455  43.969  24.482  13.472
62196W        W34456  25.193  44.839   3.739
62197W        W34457   8.674  30.982   1.715
62198W        W34458  21.720   0.491   4.246
62199W        W34459  23.124  18.545  10.907
62200W        W34460   4.403  18.739  13.868
62201W        W34461  29.472  29.621  13.413
62202W        W34462  23.040  36.443   2.899
62203W        W34463  35.059  38.540   2.282
62204W        W34464  34.980  15.112   3.328
62205W        W34465  23.151  31.073   1.868
62206W        W34466  43.916   2.400   4.121
62207W        W34467  43.986   2.955  13.791
62208W        W34468  11.360  25.556  11.011
62209W        W34469  29.946  20.126  11.601
62210W        W34470   9.313   0.422  11.445
62211W        W34471   2.278  21.235   1.260
62212W        W34472   0.375  42.878   1.715
62213W        W34473   2.953  43.933  11.415
62214W        W34474  44.314  40.878   2.804
62215W        W34475  28.483   4.336  11.417
62216W        W34476  40.349  11.321   2.831
62217W        W34477  14.760   8.227  13.542
62218W        W34478  31.467  30.910   9.652
62219W        W34479   6.727  20.587  11.881
62220W        W34480  29.635   8.818  13.372
62221W        W34481  38.880  22.582  10.494
62222W        W34482  10.779  28.449   3.717
62223W        W34483  16.212  17.556   9.636
62224W        W34484  13.111   7.345   5.196
62225W        W34485  22.698  26.468   2.197
62226W        W34486  34.921  40.800  14.408
62227W        W34487   6.867  32.535   2.855
62228W        W34488  37.879   8.829   2.235
62229W        W34489  37.908  37.997   3.212
62230W        W34490   2.433  22.100  10.598
62231W        W34491   3.279  33.957  13.866
62232W        W34492   4.402   8.845   2.662
62233W        W34493  29.451  37.028  11.911
62234W        W34494  26.628   0.906  10.462
62235W        W34495  37.879  11.326   4.271
62236W        W34496  14.673  25.632   0.250
62237W        W34497  31.145  22.118   3.172
62238W        W34498  33.096  24.200   4.705
62239W        W34499  28.468  19.676   0.907
62240W        W34500  19.185  24.096   4.825
62241W        W34501  38.531  34.580  11.522
62242W        W34502  22.154  18.587   4.350
62243W        W34503  11.754  28.451   9.593
62244W        W34504  24.087  37.493  12.033
62245W        W34505  12.264  13.230  12.849
62246W        W34506  29.973   5.274  14.317
62247W        W34507  27.473  44.940   2.205
62248W        W34508  43.952  24.039   0.396
62249W        W34509   7.745   0.876   5.092
62250W        W34510  20.120  13.748  14.499
62251W        W34511  22.723  36.066  13.451
62252W        W34512   5.797  34.403  12.410
62253W        W34513  40.359  13.654   0.246
62254W        W34514  30.154  28.998  13.396
62255W        W34515  29.536  25.499   0.755
62256W        W34516  22.091  41.427  12.848
62257W        W34517  12.710  23.514  13.510
62258W        W34518  44.476  21.186   0.943
62259W        W34519  22.584  25.521   3.236
62260W        W34520   5.866   3.917  10.900
62261W        W34521   1.467  27.186  12.976
62262W        W34522  14.792   0.358   0.384
62263W        W34523  24.991   8.835   0.732
62264W        W34524  42.907   4.823   3.635
62265W        W34525   2.910  26.041  12.529
62266W        W34526  36.919  34.587  14.407
62267W        W34527  38.553  20.162  13.009
62268W        W34528  25.663  34.002  13.016
62269W        W34529   2.419  33.047   0.923
62270W        W34530  35.369  15.120   0.447
62271W        W34531  14.181  22.506   0.754
62272W        W34532   4.283  41.005  10.615
62273W        W34533  29.151  38.885   0.383
62274W        W34534  29.440  35.485   3.236
62275W        W34535  27.115  19.090   1.331
62276W        W34536  22.221  43.014  10.578
62277W        W34537   7.348   8.184   4.299
62278W        W34538   6.347  32.550  13.399
62279W        W34539  14.739  20.563   0.957
62280W        W34540  37.962  26.608  10.981
62281W        W34541  24.549  35.452  13.353
62282W        W34542  35.508  23.004  12.031
62283W        W34543  29.948  11.230  12.907
62284W        W34544  16.681  27.528   1.874
62285W        W34545  21.105  40.323   4.265
62286W        W34546  34.970  24.604   4.703
62287W        W34547  41.026  16.073   4.793
62288W        W34548  19.055  44.331   4.768
62289W        W34549   8.168  24.162   1.730
62290W        W34550  10.761  42.521  13.361
62291W        W34551  44.909  11.191  13.330
62292W        W34552  25.210  10.236  12.032
62293W        W34553  34.980   8.725  10.516
62294W        W34554  40.494  44.834  14.934
62295W        W34555  12.801  13.760  13.949
62296W        W34556  11.353  41.398   4.140
62297W        W34557   5.239  25.020  13.354
62298W        W34558  29.092  38.043   1.260
62299W        W34559  26.528  28.605  13.395
62300W        W34560  19.088  22.170  14.887
62301W        W34561   3.216   9.192   0.868
62302W        W34562  31.926  15.252   1.234
62303W        W34563  37.931  13.650   3.630
62304W        W34564  33.470  13.639  13.964
62305W        W34565  38.021   8.392   1.715
62306W        W34566  41.311  10.762   4.221
62307W        W34567  17.592  20.690  12.442
62308W        W34568   8.782  42.847  10.945
62309W        W34569  10.791  26.696  13.004
62310W        W34570  13.797  40.374   2.682
62311W        W34571  27.659  28.451  12.922
62312W        W34572   7.681   3.374   1.835
62313W        W34573   3.763   4.915  12.054
62314W        W34574  41.413  21.120  12.353
62315W        W34575  33.557  40.402  14.332
62316W        W34576  36.045   1.256  11.992
62317W        W34577  20.079  20.031   9.439
62318W        W34578  30.958  31.442  14.912
62319W        W34579   6.893   0.490   4.231
62320W        W34580   2.234  27.603  10.423
62321W        W34581  31.470  30.556   1.405
62322W        W34582  26.633  34.907  13.955
62323W        W34583  13.652  33.449  11.430
62324W        W34584  33.975  17.738  13.974
62325W        W34585  29.128  27.529   2.682
62326W        W34586  28.082  38.492   3.863
62327W        W34587  43.492   9.796  12.051
62328W        W34588  29.979  25.533   3.731
62329W        W34589  30.928  41.440   5.149
62330W        W34590   4.926  37.043   0.352
62331W        W34591  32.504   3.840  11.566
62332W        W34592  35.858  44.478  10.415
62333W        W34593  30.115  20.191  13.449
62334W        W34594  34.958  13.708  12.909
62335W        W34595  15.326  24.055   3.849
62336W        W34596   0.848  24.019   3.718
62337W        W34597  20.156  11.357   3.369
62338W        W34598  41.004  41.963   1.739
62339W        W34599  24.069  41.838  12.036
62340W        W34600   3.946  18.785  11.569
62341W        W34601  40.972   6.283  12.024
62342W        W34602  18.171   3.376   2.732
62343W        W34603   1.808   2.861   3.280
62344W        W34604  17.181  29.538   4.648
62345W        W34605  17.748  28.458  13.509
62346W        W34606  39.480   5.712   2.184
62347W        W34607  18.196  41.488   0.729
62348W        W34608   6.904   4.234   2.412
62349W        W34609   8.894  31.125   3.658
62350W        W34610  32.038  31.101  14.486
62351W        W34611   5.853  42.815   1.851
62352W        W34612  24.069  31.588  11.417
62353W        W34613  23.585  38.333   4.124
62354W        W34614   3.743  39.406  13.988
62355W        W34615  39.316  41.441  14.817
62356W        W34616   4.278  32.406   0.286
62357W        W34617  11.250  34.936   4.832
62358W        W34618  24.552   8.275  14.813
62359W        W34619  28.962  25.999  10.904
62360W        W34620  28.930   6.413  11.548
62361W        W34621  36.537  24.066   2.761
62362W        W34622  17.744  10.172  12.346
62363W        W34623  43.302  23.142  14.310
62364W        W34624  31.980   8.345   3.739
62365W        W34625  17.688  22.209  12.394
62366W        W34626  12.766   2.732   1.755
62367W        W34627  12.180   9.681   1.835
62368W        W34628   0.490  26.190   1.928
62369W        W34629  41.905  14.630  11.114
62370W        W34630  23.137  38.834   0.854
62371W        W34631  13.142  13.175  11.982
62372W        W34632  23.540  43.325  11.084
62373W        W34633  17.684   8.183  10.116
62374W        W34634  39.846  25.044   0.446
62375W        W34635  15.712  17.114   0.808
62376W        W34636   8.678  39.404  12.086
62377W        W34637   0.348  19.746  10.632
62378W        W34638  20.614  19.262   4.648
62379W        W34639  38.844  33.428  12.347
62380W        W34640  26.598   1.832   4.258
62381W        W34641   1.862   3.219   4.252
62382W        W34642   2.855  35.095   3.155
62383W        W34643  21.109   3.388   5.179
62384W        W34644  11.755  22.682   4.297
62385W        W34645   9.282   0.469   2.865
62386W        W34646  30.097   7.333   3.289
62387W        W34647   6.843  14.126  14.391
62388W        W34648  38.433  21.177  13.476
62389W        W34649  29.549   3.373   3.200
62390W        W34650  24.633  43.803  12.340
62391W        W34651  30.122  11.821   3.326
62392W        W34652  21.071  30.050   3.704
62393W        W34653  26.648   0.936   0.955
62394W        W34654   1.311  23.188   3.179
62395W        W34655  28.495   7.386  13.848
62396W        W34656  13.656   8.392   1.344
62397W        W34657   2.917  17.573   2.255
62398W        W34658  17.153  14.689  13.861
62399W        W34659  22.188   1.803   3.239
62400W        W34660  37.569   0.765  13.830
62401W        W34661  29.971  29.174  13.811
62402W        W34662  37.508   2.753   3.827
62403W        W34663  17.306  40.456   2.378
62404W        W34664  20.228  40.810   2.290
62405W        W34665  10.241  16.602  11.890
62406W        W34666  37.560  34.497  10.497
62407W        W34667   1.882  41.347   0.882
62408W        W34668  36.592  32.909   3.663
62409W        W34669   0.494  39.553  11.446
62410W        W34670  33.935  27.454   3.248
62411W        W34671  12.749  14.117   3.199
62412W        W34672  34.038   8.184  11.529
62413W        W34673  30.613  17.254  13.857
62414W        W34674  42.984  33.525  12.096
62415W        W34675  36.010  26.513  14.443
62416W        W34676  17.792  21.108  10.600
62417W        W34677   4.229  14.115  13.473
62418W        W34678  19.623  31.945  12.915
62419W        W34679   1.975  15.703   5.198
62420W        W34680  32.433  12.702  13.860
62421W        W34681  16.747  13.654   4.735
62422W        W34682  21.545  23.114   1.882
62423W        W34683  18.552  36.882   3.280
62424W        W34684  21.559  24.096   3.837
62425W        W34685  15.302  21.620   4.217
62426W        W34686  22.179  24.583   1.383
62427W        W34687  12.829   6.710   1.705
62428W        W34688  18.136  36.876  14.331
62429W        W34689  42.510   2.949  13.922
62430W        W34690  33.454  41.859   2.227
62431W        W34691  28.048  17.145  11.571
62432W        W34692  44.826  15.769  13.903
62433W        W34693  18.245  26.026  13.933
62434W        W34694  39.419   9.660   9.520
62435W        W34695  37.958  30.634  10.535
62436W        W34696  30.658   7.346   4.195
62437W        W34697  19.615  25.053   3.746
62438W        W34698   3.927   9.175  14.004
62439W        W34699  36.017  36.362   4.648
62440W        W34700  31.439  15.781  11.396
62441W        W34701   0.264  43.777   4.606
62442W        W34702   3.339  22.185   1.419
62443W        W34703  32.634   2.470  13.861
62444W        W34704  41.014  19.664  14.419
62445W        W34705  21.622  12.198   0.886
62446W        W34706   7.787  38.973  13.990
62447W        W34707  31.488  43.453   0.262
62448W        W34708  30.916  13.176  12.960
62449W        W34709  33.988  23.001  14.462
62450W        W34710  40.968   1.872  11.608
62451W        W34711  44.942  25.075  14.786
62452W        W34712  31.451  15.181   3.753
62453W        W34713  42.479  12.249   0.365
62454W        W34714  22.238  26.567   2.203
62455W        W34715  21.523  24.131   4.626
62456W        W34716  40.041   7.214   1.888
62457W        W34717   6.695   2.808   3.373
62458W        W34718   1.397  32.506   2.252
62459W        W34719  31.921  21.257   1.399
62460W        W34720  41.854   2.260  12.081
62461W        W34721  23.051   6.691  10.430
62462W        W34722  28.143  10.878  14.015
62463W        W34723   1.858   9.323  14.288
62464W        W34724  12.734  28.181   3.794
62465W        W34725  44.952  26.679   0.259
62466W        W34726  38.950  43.356   2.354
62467W        W34727   5.736   7.229   4.751
62468W        W34728   9.273  11.269   4.267
62469W        W34729  36.447  42.865   5.215
62470W        W34730  28.455  42.435   4.334
62471W        W34731  33.539  29.124  12.382
62472W        W34732  13.602  38.418  12.898
62473W        W34733  33.893  14.694  12.021
62474W        W34734  12.780   8.670   3.315
62475W        W34735  26.698  23.210   0.425
62476W        W34736  31.496  23.985  11.087
62477W        W34737  32.620  43.334   1.263
62478W        W34738  41.499   9.213   4.749
62479W        W34739  26.543  26.138  10.929
62480W        W34740  44.915  36.042  12.431
62481W        W34741   5.304  16.791   2.855
62482W        W34742  17.244  23.721  11.602
62483W        W34743  24.633  34.876  14.894
62484W        W34744  25.077  39.393   4.746
62485W        W34745  34.017   6.893   0.785
62486W        W34746  26.501  38.979   4.657
62487W        W34747   9.709  28.627  10.930
62488W        W34748  15.116   2.748   1.926
62489W        W34749  22.666  20.208  14.798
62490W        W34750  26.202  32.932  14.914
62491W        W34751  41.921  15.796  11.494
62492W        W34752  22.226   6.295   1.824
62493W        W34753   3.896  10.346  14.439
62494W        W34754   5.415   2.282  14.929
62495W        W34755  28.929  33.604  11.918
62496W        W34756  27.460  25.215   0.960
62497W        W34757  16.679   3.712  12.895
62498W        W34758  26.525  39.984   0.465
62499W        W34759  35.991  32.024  13.359
62500W        W34760  40.023  44.350  14.915
62501W        W34761  24.014  43.379   1.761
62502W        W34762  36.909   6.220   0.405
62503W        W34763  14.108  39.884  14.967
62504W        W34764  32.139  31.035  13.832
62505W        W34765  22.670  13.114  11.434
62506W        W34766  27.482  44.407   4.790
62507W        W34767  19.094   2.722   3.800
62508W        W34768  30.538  24.201   2.418
62509W        W34769   0.354  28.152   4.288
62510W        W34770  29.486  37.503  13.545
62511W        W34771   7.826  14.663  13.482
62512W        W34772  13.312  26.465   2.780
62513W        W34773  11.748  13.150   9.960
62514W        W34774  29.039  10.673   3.362
62515W        W34775  25.518  16.092  10.488
62516W        W34776   1.237  10.819  13.798
62517W        W34777  23.587  36.917   0.862
62518W        W34778   7.234   5.781  11.593
62519W        W34779  30.548  44.887   4.310
62520W        W34780  16.617  21.068   2.780
62521W        W34781  24.622  35.956  14.440
62522W        W34782  15.672  25.515  14.877
62523W        W34783   4.891   1.873   3.153
62524W        W34784  33.900  44.799  10.604
62525W        W34785  34.032   3.461  13.842
62526W        W34786  13.624  25.637   1.733
62527W        W34787  24.503  41.379   1.933
62528W        W34788   4.831  12.186   2.260
62529W        W34789  25.500  24.128  13.485
62530W        W34790  15.596  44.470  11.383
62531W        W34791  25.680  29.160  14.509
62532W        W34792  16.592   5.374  10.913
62533W        W34793  25.131  36.885  14.429
62534W        W34794  36.408  20.164   9.626
62535W        W34795  29.540  11.352   4.255
62536W        W34796   1.252  20.122  14.845
62537W        W34797  17.698  38.907  11.962
62538W        W34798  24.097   9.242  13.047
62539W        W34799  11.683  16.689   0.777
62540W        W34800  38.367  25.213   1.412
62541W        W34801  11.698  43.021  13.791
62542W        W34802  13.736  12.294   0.863
62543W        W34803  18.116  32.580   1.426
62544W        W34804  19.096   9.856  13.544
62545W        W34805  22.122   2.278  10.952
62546W        W34806  12.177   3.784   1.337
62547W        W34807  21.755  38.931  11.564
62548W        W34808  12.341  17.210   2.326
62549W        W34809  41.025  11.657   2.680
62550W        W34810   6.745  25.962  12.036
62551W        W34811   6.873  11.730  11.952
62552W        W34812  20.146  24.216  14.472
62553W        W34813  13.625  22.713  12.417
62554W        W34814  33.583  32.408   2.877
62555W        W34815  33.518  16.112  10.511
62556W        W34816  36.549  23.018   1.775
62557W        W34817  32.983  27.137   4.797
62558W        W34818  38.328  23.607   4.792
62559W        W34819  10.638  21.046  14.789
62560W        W34820   7.833  40.462   1.768
62561W        W34821   3.324   4.821   4.318
62562W        W34822  38.948  23.103  13.993
62563W        W34823  23.099  13.177  10.941
62564W        W34824  40.521  42.524   0.435
62565W        W34825  20.262  11.690  12.472
62566W        W34826  26.123  22.512   4.300
62567W        W34827   9.202  24.705   0.342
62568W        W34828  16.697  16.689   1.887
62569W        W34829  28.491   2.746   1.348
62570W        W34830  35.571  13.298   0.275
62571W        W34831  24.679  42.311   5.315
62572W        W34832  21.653  26.066  11.874
62573W        W34833   0.427  27.951  10.519
62574W        W34834  43.870  33.894  14.855
62575W        W34835  28.538  31.441  14.807
62576W        W34836   1.387   3.403   0.821
62577W        W34837   9.674  38.503   0.350
62578W        W34838  25.082  26.547  14.401
62579W        W34839  44.357  32.603  14.423
62580W        W34840  17.717  42.487   1.789
62581W        W34841  19.088  26.201   1.280
62582W        W34842  39.468  41.399  14.024
62583W        W34843  17.771   0.749  11.867
62584W        W34844  14.280  28.996  14.452
62585W        W34845  20.710  31.950  12.083
62586W        W34846  35.563  21.236   0.822
62587W        W34847  12.646  39.975  10.936
62588W        W34848  11.814  27.625   4.800
62589W        W34849  24.495  34.468   4.778
62590W        W34850  42.887  17.579  11.416
62591W        W34851  40.892   0.762   1.275
62592W        W34852  33.108   0.800  14.775
62593W        W34853  43.487  22.531   3.770
62594W        W34854  26.024  39.468  14.773
62595W        W34855  42.933  29.058  13.839
62596W        W34856  42.526  25.052   0.876
62597W        W34857  39.921  10.668   4.328
62598W        W34858   6.229  28.532   4.699
62599W        W34859  20.260  28.514   4.255
62600W        W34860  16.248   9.281  11.882
62601W        W34861  17.265  42.366  10.465
62602W        W34862  23.682  25.188   4.252
62603W        W34863  11.764  11.229  12.948
62604W        W34864  41.025  25.675   3.739
62605W        W34865  18.575  17.081  12.440
62606W        W34866   3.838  32.612   2.370
62607W        W34867  30.982  25.041   4.210
62608W        W34868  35.004  32.888  12.420
62609W        W34869  17.090   5.746   4.175
62610W        W34870   8.326  17.686   1.913
62611W        W34871  34.426  23.030  11.040
62612W        W34872  33.527  17.569  14.308
62613W        W34873  40.475  27.079   0.281
62614W        W34874   1.360  24.507  14.865
62615W        W34875  39.961  29.052  13.925
62616W        W34876   0.902  12.343   3.326
62617W        W34877   8.662   7.326  13.451
62618W        W34878  38.377  44.903  13.795
62619W        W34879   3.725  12.347   1.804
62620W        W34880  21.026  30.947   1.372
62621W        W34881  32.917  37.476  12.057
62622W        W34882  32.610  22.520   1.828
62623W        W34883  19.155  27.643   4.816
62624W        W34884  32.445  16.210  14.879
62625W        W34885  42.959  34.385   2.880
62626W        W34886   1.387  29.986  13.992
62627W        W34887  40.010  17.165  12.093
62628W        W34888  41.508  33.965  14.898
62629W        W34889   8.690  18.760  10.608
62630W        W34890  25.974   0.420   4.328
62631W        W34891  26.071  31.146   0.345
62632W        W34892  25.113  22.114  14.818
62633W        W34893  32.461  26.102   2.670
62634W        W34894  35.394  43.968  14.910
62635W        W34895  20.107  39.532  12.054
62636W        W34896   2.929  41.800   0.281
62637W        W34897  21.215  25.173  10.437
62638W        W34898  38.879  23.104   2.724
62639W        W34899   7.821   0.808  11.538
62640W        W34900  31.046  23.494  14.440
62641W        W34901  12.167  22.057   3.808
62642W        W34902  37.357  36.922   0.741
62643W        W34903   6.388  32.486  12.029
62644W        W34904  33.953  28.491  11.021
62645W        W34905  11.164   7.798   3.324
62646W        W34906   8.391  21.708  12.432
62647W        W34907  41.941  16.224   4.603
62648W        W34908  30.137  21.686   2.184
62649W        W34909  23.657  29.927  11.964
62650W        W34910  23.011   6.354  10.465
62651W        W34911  10.175  30.023  11.555
62652W        W34912  20.563  10.323   1.370
62653W        W34913  28.590  35.053   0.456
62654W        W34914   1.773  26.656   1.916
62655W        W34915  17.576  10.180   1.231
62656W        W34916  39.905  36.567   3.258
62657W        W34917  21.556   6.919  13.930
62658W        W34918   5.392  43.836   4.223
62659W        W34919  10.272  34.114   0.475
62660W        W34920  17.627  35.991   0.894
62661W        W34921  15.294  34.914  14.951
62662W        W34922  27.082  36.860   2.216
62663W        W34923  17.278  38.442  14.903
62664W        W34924  21.696  41.860   4.130
62665W        W34925  12.289  27.094   4.796
62666W        W34926  41.024  14.320  14.792
62667W        W34927   3.383  11.829  12.400
62668W        W34928  27.502   7.694   0.964
62669W        W34929  37.944   7.798  11.873
62670W        W34930  20.722  13.262   4.630
62671W        W34931  25.046  21.147  14.802
62672W        W34932   5.252  37.031  12.388
62673W        W34933  25.473  29.457   2.330
62674W        W34934  12.275  33.509  10.051
62675W        W34935  33.063  37.935   2.182
62676W        W34936  13.172  34.077   4.269
62677W        W34937  42.302  34.918  11.450
62678W        W34938   1.310  18.627   3.861
62679W        W34939  40.881   2.766  12.454
62680W        W34940  35.003  16.728   2.757
62681W        W34941   9.808   7.834   4.666
62682W        W34942  24.662   4.239  12.027
62683W        W34943  37.578  44.419  12.407
62684W        W34944  29.141  40.899   2.687
62685W        W34945  39.984   3.293  13.474
62686W        W34946  37.481  20.196  12.091
62687W        W34947  14.277  26.618   1.280
62688W        W34948  13.743  21.137  14.015
62689W        W34949  44.865  32.595  14.906
62690W        W34950   7.680  32.015   0.868
62691W        W34951   5.913  30.146   3.725
62692W        W34952  14.189  40.048  12.879
62693W        W34953   0.308  38.903  13.998
62694W        W34954  20.694  43.303  11.432
62695W        W34955  24.027  37.065   0.945
62696W        W34956  17.236  28.102   0.420
62697W        W34957   9.890  26.626  13.856
62698W        W34958  25.191  23.119  13.892
62699W        W34959  34.045   4.344  14.007
62700W        W34960  12.326   5.379   2.766
62701W        W34961  43.403  23.572  12.413
62702W        W34962  39.381  43.485  11.908
62703W        W34963  22.123  31.068  13.930
62704W        W34964  29.971  24.167   0.833
62705W        W34965  27.650  36.494  10.479
62706W        W34966  28.083   5.824   1.239
62707W        W34967  38.928  24.589  14.821
62708W        W34968   6.859  16.700  10.415
62709W        W34969   3.784  39.042  10.038
62710W        W34970  18.140  16.083  14.507
62711W        W34971   7.361  28.502   0.771
62712W        W34972  29.000  19.762   1.894
62713W        W34973  25.111  41.933   1.853
62714W        W34974   0.855   1.389  14.868
62715W        W34975   1.949  24.508  12.485
62716W        W34976   9.260  44.989   4.289
62717W        W34977  13.634  42.881  10.468
62718W        W34978   2.263  14.212  10.598
62719W        W34979  19.617  31.459   0.943
62720W        W34980  27.650  32.449  12.412
62721W        W34981  12.840  13.245  13.508
62722W        W34982  42.328  38.453  13.793
62723W        W34983  35.870  29.059  11.570
62724W        W34984  24.223  11.802   0.937
62725W        W34985  14.204  12.340  12.838
62726W        W34986  39.998  18.282   1.736
62727W        W34987  28.451  16.639   0.296
62728W        W34988  26.090  10.291  12.936
62729W        W34989  11.709  35.008   2.702
62730W        W34990  44.309  34.911   0.865
62731W        W34991  39.406   1.411  12.385
62732W        W34992  28.954  32.053   4.623
62733W        W34993  42.869  41.852  11.612
62734W        W34994  10.712  13.302  13.958
62735W        W34995   3.721  43.352  11.007
62736W        W34996  39.323  36.864  14.358
62737W        W34997   5.255   4.767  10.408
62738W        W34998  14.139  23.139   1.380
62739W        W34999  38.392  44.763  14.462
62740W        W35000  41.867  17.565  13.864
62741W        W35001  15.607   2.802   3.310
62742W        W35002  20.246  40.855   0.325
62743W        W35003  32.567  11.751  12.975
62744W        W35004   6.824  26.175   2.899
62745W        W35005  10.280  27.624  11.452
62746W        W35006   1.252  26.504  12.438
62747W        W35007   8.371  28.935   2.789
62748W        W35008  43.987  15.270   1.324
62749W        W35009  35.400   3.458  14.944
62750W        W35010  12.793   6.813   3.307
62751W        W35011  16.195   1.916  14.392
62752W        W35012  13.288  36.952  12.355
62753W        W35013  41.403  15.181  13.510
62754W        W35014  10.735  23.730  11.066
62755W        W35015   1.378  39.399   4.720
62756W        W35016   9.859  10.371  11.018
62757W        W35017  42.419  42.906   3.689
62758W        W35018  42.393  28.535   2.337
62759W        W35019   6.368  37.994  12.480
62760W        W35020  43.494   0.921  10.897
62761W        W35021  19.774   4.729   2.382
62762W        W35022  33.089  32.528   1.351
62763W        W35023  24.612  30.949   3.843
62764W        W35024   6.720   4.764  13.022
62765W        W35025  27.655  26.974  14.358
62766W        W35026  34.019  14.203   3.233
62767W        W35027  39.476  24.725  11.034
62768W        W35028  38.560   2.812  14.847
62769W        W35029   1.952  35.505  13.974
62770W        W35030  13.217  36.493   2.272
62771W        W35031  40.943   4.824  10.943
62772W        W35032  14.128  20.767   0.309
62773W        W35033   0.957  41.837   2.273
62774W        W35034  10.778  17.579  10.965
62775W        W35035   8.786  13.262   2.223
62776W        W35036  10.251  25.033  11.934
62777W        W35037  15.811  26.497  14.844
62778W        W35038  27.187  37.537  12.410
62779W        W35039  12.157  43.420  13.427
62780W        W35040  41.862   2.862   0.765
62781W        W35041  21.179   8.376   4.794
62782W        W35042  26.173  24.557  11.007
62783W        W35043  16.590  31.416   0.482
62784W        W35044  19.770  36.007  13.939
62785W        W35045  25.126  20.186  11.110
62786W        W35046  32.416  30.443   5.133
62787W        W35047  38.998  44.817   2.838
62788W        W35048  29.113  26.173  12.368
62789W        W35049  27.501  35.869  11.899
62790W        W35050  26.675  27.478  11.015
62791W        W35051  27.559  27.610   4.329
62792W        W35052  43.954  43.887   0.320
62793W        W35053  31.038  12.724   3.647
62794W        W35054  16.722  16.120   9.508
62795W        W35055  36.955   9.277   5.586
62796W        W35056  32.116  30.495   4.670
62797W        W35057  38.008  10.184  14.963
62798W        W35058   5.282  37.874   4.221
62799W        W35059   2.904   4.709   1.909
62800W        W35060  43.421  28.542   3.834
62801W        W35061  38.856  31.521   3.289
62802W        W35062  19.280   2.822   0.248
62803W        W35063   6.405  40.370   2.822
62804W        W35064  31.995  25.531  14.342
62805W        W35065  37.953  28.068  14.429
62806W        W35066  35.437  32.613   2.254
62807W        W35067  15.744  43.825   5.260
62808W        W35068  24.984  10.714  11.533
62809W        W35069   3.900  41.390   5.210
62810W        W35070  44.905   1.370  13.017
62811W        W35071  12.650  40.919  10.479
62812W        W35072   1.400  41.385   0.772
62813W        W35073  18.151  13.265   2.843
62814W        W35074  25.084  33.545  12.532
62815W        W35075   6.849  34.905   1.806
62816W        W35076  11.368  31.618   4.217
62817W        W35077  18.120  29.521   3.151
62818W        W35078  21.591  16.123  12.951
62819W        W35079   3.352  41.995  12.089
62820W        W35080  32.610   4.774  10.438
62821W        W35081   3.329  29.011   0.884
62822W        W35082  10.196  18.096  13.856
62823W        W35083  16.227   5.759  12.915
62824W        W35084  17.664  39.484  10.912
62825W        W35085  15.821  11.197  12.435
62826W        W35086  10.267  10.191  13.432
62827W        W35087  15.793  17.251   2.768
62828W        W35088   7.259   7.380  13.983
62829W        W35089  24.048  15.209   0.369
62830W        W35090  33.080  31.132  12.026
62831W        W35091   8.886  14.107   1.762
62832W        W35092  39.449  23.663   0.747
62833W        W35093   0.881   7.207  13.922
62834W        W35094  30.458  44.301  14.861
62835W        W35095  14.806  14.316  14.483
62836W        W35096  18.053  31.444  10.443
62837W        W35097   6.786   9.835  14.341
62838W        W35098  19.753  36.025   2.712
62839W        W35099  29.470  10.185  11.085
62840W        W35100  36.587   7.266   1.415
62841W        W35101  14.133  13.770  11.894
62842W        W35102  18.569  18.166   2.252
62843W        W35103  44.805   4.371   3.733
62844W        W35104  41.455  19.266  14.469
62845W        W35105   8.783  26.534   2.873
62846W        W35106  29.670   7.669   4.289
62847W        W35107  43.773  35.589  13.435
62848W        W35108  30.122   0.953  14.982
62849W        W35109  26.003  15.657   0.906
62850W        W35110  31.109  22.707  14.026
62851W        W35111   0.410   8.675   0.380
62852W        W35112  13.789  16.629  10.444
62853W        W35113  21.151   2.797  12.411
62854W        W35114  25.192   4.827  12.072
62855W        W35115  25.059  15.171  13.344
62856W        W35116  22.240  24.187   1.438
62857W        W35117  41.293  20.261   0.419
62858W        W35118  13.841   3.358  10.416
62859W        W35119  16.133  15.753   5.215
62860W        W35120  40.939  31.974   4.673
62861W        W35121  34.587  22.552  12.059
62862W        W35122  37.937  27.451  13.437
62863W        W35123  11.645   2.292  10.564
62864W        W35124  17.064  25.158  10.037
62865W        W35125  34.897  11.635   0.869
62866W        W35126  16.293   7.781  14.360
62867W        W35127  33.019   7.793  12.563
62868W        W35128   5.351  30.929   1.709
62869W        W35129  29.434  42.818   9.997
62870W        W35130   1.325  23.594   2.819
62871W        W35131  18.188  33.029  10.999
62872W        W35132  43.820  18.610   0.931
62873W        W35133  30.122  28.005   4.775
62874W        W35134  40.461  42.504   3.221
62875W        W35135  23.645  23.995  10.636
62876W        W35136  23.234  25.687   4.318
62877W        W35137   2.275  37.052  11.060
62878W        W35138  19.217  22.730   3.263
62879W        W35139  27.498   2.353  13.381
62880W        W35140  35.028  14.737   1.849
62881W        W35141   2.871   2.765  13.890
62882W        W35142  26.184  30.958   1.701
62883W        W35143  13.171  33.984  12.488
62884W        W35144  35.996  10.348   2.411
62885W        W35145  19.660   3.260  10.920
62886W        W35146  15.660  40.539   3.764
62887W        W35147  39.393  27.677  11.870
62888W        W35148   6.238  17.726  14.369
62889W        W35149  31.130  35.036   4.157
62890W        W35150  16.265   1.338   3.179
62891W        W35151  35.972  23.009  13.419
62892W        W35152  43.948   9.273   3.290
62893W        W35153  39.850   3.291  13.000
62894W        W35154   4.759  36.409  14.451
62895W        W35155  36.482   6.316   1.251
62896W        W35156   1.901  42.522  12.580
62897W        W35157  33.124  41.301  11.555
62898W        W35158  42.878  15.636   1.364
62899W        W35159   2.958  40.500  14.855
62900W        W35160  26.496  41.407  11.113
62901W        W35161   5.220   0.897  14.505
62902W        W35162  42.435  37.056   4.329
62903W        W35163  17.285   9.170  12.412
62904W        W35164  24.998  37.019  11.535
62905W        W35165  40.511  34.376  10.906
62906W        W35166  14.246  39.342   3.171
62907W        W35167  15.671  44.757  11.938
62908W        W35168  38.844  30.598   1.850
62909W        W35169  41.526   3.747  12.886
62910W        W35170  20.629  42.511  14.483
62911W        W35171  21.655  20.739  10.082
62912W        W35172   4.750  19.759   1.274
62913W        W35173   6.741   1.414   2.217
62914W        W35174   6.222   8.850  14.309
62915W        W35175  25.626  40.852   0.885
62916W        W35176  36.890  30.458   0.266
62917W        W35177  15.612  16.270  11.039
62918W        W35178  39.828  27.562  10.582
62919W        W35179  20.200  35.435  14.803
62920W        W35180  27.131  22.161  11.055
62921W        W35181  39.043  22.562  14.397
62922W        W35182  29.639   4.401  13.963
62923W        W35183  39.007   8.264  13.051
62924W        W35184  41.869  25.180   1.213
62925W        W35185  22.617   6.216   4.204
62926W        W35186  11.709  41.430  13.499
62927W        W35187  28.533  14.170  11.426
62928W        W35188  43.886  27.123   3.177
62929W        W35189   7.199  10.656   3.665
62930W        W35190   0.352  36.415   1.806
62931W        W35191  11.159  20.708   0.430
62932W        W35192  44.851  42.514  11.119
62933W        W35193  44.295  24.715  12.861
62934W        W35194  28.105  14.217  10.118
62935W        W35195  38.343  28.522  12.830
62936W        W35196  23.596  11.216  11.991
62937W        W35197  15.289  29.487  13.418
62938W        W35198  36.985  31.620  10.573
62939W        W35199  13.809  40.424  13.475
62940W        W35200  38.826  44.996  12.023
62941W        W35201  27.120  32.484   3.746
62942W        W35202  26.637  34.037   3.865
62943W        W35203  15.255  21.542  12.942
62944W        W35204  18.629   3.265   1.257
62945W        W35205  30.438  10.765  10.573
62946W        W35206  10.350   5.300  14.398
62947W        W35207  42.929  31.571   1.431
62948W        W35208   7.769  40.925  14.491
62949W        W35209  30.999  24.481  11.862
62950W        W35210   8.690  23.633  12.914
62951W        W35211   9.311  31.424   1.809
62952W        W35212   9.873  14.320  11.962
62953W        W35213  30.587  24.634   3.809
62954W        W35214  14.308  27.132  14.486
62955W        W35215  44.488  40.420   1.319
62956W        W35216  41.941  38.444  13.461
62957W        W35217  30.027  22.080   0.801
62958W        W35218   3.400  14.340   2.721
62959W        W35219   8.351  44.973  12.868
62960W        W35220  12.345  23.509   2.334
62961W        W35221  23.129  31.057   3.232
62962W        W35222  16.254  27.996  11.550
62963W        W35223  41.312  28.460   0.800
62964W        W35224   3.780  15.219  12.013
62965W        W35225  32.942  43.325  11.401
62966W        W35226  18.086  41.302   2.310
62967W        W35227  29.662  16.775  12.386
62968W        W35228   0.353  28.535  11.420
62969W        W35229   4.438  24.024  10.969
62970W        W35230  12.182  36.388   4.173
62971W        W35231  43.342  20.759  14.851
62972W        W35232  35.949  24.672  11.609
62973W        W35233  36.543  26.147  12.085
62974W        W35234  37.869   6.252  14.478
62975W        W35235  17.182  36.517  12.370
62976W        W35236  25.154  24.505  13.815
62977W        W35237   1.953  11.777   0.272
62978W        W35238  12.767  20.748   2.179
62979W        W35239  29.443  14.335  11.093
62980W        W35240  37.574  29.080   0.265
62981W        W35241  35.394   3.829  13.935
62982W        W35242  11.152   4.315  10.550
62983W        W35243  12.232   0.441   4.624
62984W        W35244   9.254  41.990  14.881
62985W        W35245  29.609  23.608   1.288
62986W        W35246   0.400  19.161  12.951
62987W        W35247  15.171  40.912   4.323
62988W        W35248  22.676   6.412   1.812
62989W        W35249  44.961   2.780   3.194
62990W        W35250  29.482  24.664  10.946
62991W        W35251  12.227  17.270  14.970
62992W        W35252  43.324  17.595   1.889
62993W        W35253  33.900   4.887   2.701
62994W        W35254  33.542  35.050  13.543
62995W        W35255  18.194  22.007  13.014
62996W        W35256  43.887   3.261  10.887
62997W        W35257  41.022  16.803   1.927
62998W        W35258  41.467  10.654  10.965
62999W        W35259  26.186  20.628   2.289
63000W        W35260  32.567  25.203  14.456
63001W        W35261  18.269  32.529  13.018
63002W        W35262  38.972   9.654   1.327
63003W        W35263  17.701  32.037  10.909
63004W        W35264  25.159  42.853  10.451
63005W        W35265  24.199  12.699   4.702
63006W        W35266  35.106  26.175   1.781
63007W        W35267  44.875  15.684  10.147
63008W        W35268   2.419   9.164   0.756
63009W        W35269   4.247   6.271   3.348
63010W        W35270   9.390  33.478   1.335
63011W        W35271   2.810  27.028  14.870
63012W        W35272  14.165  25.476  13.924
63013W        W35273  33.977  29.496   0.405
63014W        W35274   6.273   9.875   1.295
63015W        W35275  17.209   2.237  10.119
63016W        W35276  40.969  16.576   0.942
63017W        W35277  17.655   2.942  11.049
63018W        W35278  23.632  18.152  13.876
63019W        W35279  31.935   6.810  11.989
63020W        W35280  12.743   4.328   2.855
63021W        W35281   5.264   5.810  14.861
63022W        W35282  26.966  20.574   0.385
63023W        W35283  21.084  40.992  11.894
63024W        W35284  29.462  27.047   0.292
63025W        W35285   5.307   3.838   1.399
63026W        W35286  17.258  20.677  11.400
63027W        W35287  25.625  11.839   5.252
63028W        W35288   2.750   4.927   1.359
63029W        W35289   7.767  27.617   5.135
63030W        W35290  27.625   1.774   2.817
63031W        W35291   5.733  34.968   3.382
63032W        W35292   6.286  13.709  12.846
63033W        W35293  29.437   8.240  14.802
63034W        W35294  31.042  29.087   1.777
63035W        W35295  36.457  40.359  14.331
63036W        W35296  33.944   4.758   4.631
63037W        W35297  10.729  25.196   4.190
63038W        W35298  22.208  34.067   3.369
63039W        W35299   7.253  19.095   3.218
63040W        W35300   8.195  31.480  14.449
63041W        W35301   1.948   2.305  12.824
63042W        W35302   1.477  35.490  12.505
63043W        W35303  35.860   7.295   4.619
63044W        W35304  14.326  34.524  12.878
63045W        W35305  26.608  38.996  12.010
63046W        W35306   0.764  28.488   3.250
63047W        W35307  40.422  32.554  12.423
63048W        W35308  11.709   8.802   2.337
63049W        W35309  41.434  28.637   3.763
63050W        W35310  30.649   6.408  14.781
63051W        W35311  31.466  39.832   3.310
63052W        W35312  38.547  31.946  11.584
63053W        W35313  17.263  21.171  10.038
63054W        W35314  34.014   3.737   2.310
63055W        W35315   0.355  16.087   3.214
63056W        W35316  11.276   6.770   2.899
63057W        W35317  34.043  43.868   1.440
63058W        W35318  13.730  11.324   3.369
63059W        W35319  32.525  14.270  10.954
63060W        W35320  20.270  16.749  11.409
63061W        W35321  12.252  42.408  14.368
63062W        W35322   1.732   2.282  11.564
63063W        W35323   0.311  34.596   0.275
63064W        W35324  10.230  35.909  13.392
63065W        W35325  20.748  23.699   3.252
63066W        W35326   5.319  25.088   4.673
63067W        W35327   4.242  35.478  12.475
63068W        W35328   6.195  41.809   0.340
63069W        W35329  15.673  15.239  12.376
63070W        W35330  15.788  13.665  13.063
63071W        W35331  26.124  31.493   0.885
63072W        W35332  17.171  16.081  12.019
63073W        W35333  44.987  16.107   2.340
63074W        W35334  42.470  36.461  10.643
63075W        W35335  37.871  13.335  14.823
63076W        W35336  15.797  37.432   4.250
63077W        W35337  43.310  20.192  14.927
63078W        W35338  43.880  21.719  10.604
63079W        W35339  36.070  17.690  11.479
63080W        W35340  10.273   5.702   1.708
63081W        W35341  18.733   1.381  10.993
63082W        W35342  25.053   8.241   1.836
63083W        W35343   9.277  26.111   4.635
63084W        W35344  42.398   7.192   1.361
63085W        W35345  25.129  19.162  12.081
63086W        W35346  14.681  34.598  10.529
63087W        W35347  18.588  11.822  11.467
63088W        W35348   0.379  35.054  12.065
63089W        W35349  22.612   4.716   2.745
63090W        W35350  18.702   3.401   1.930
63091W        W35351  42.902  31.542   0.765
63092W        W35352  20.710   4.361  12.940
63093W        W35353  29.982  21.537  10.409
63094W        W35354  21.075   2.311   0.464
63095W        W35355   1.945  41.885  12.402
63096W        W35356  38.495  21.624   1.338
63097W        W35357  12.784  18.164  12.401
63098W        W35358   0.961  34.378  13.896
63099W        W35359  11.623  17.563  14.443
63100W        W35360  24.996  38.424  10.507
63101W        W35361   1.739  28.551  13.410
63102W        W35362  44.313  12.206  11.547
63103W        W35363   9.646  35.095  10.993
63104W        W35364  44.766  34.572   3.751
63105W        W35365  27.064   0.486  10.575
63106W        W35366  42.832  31.022  14.335
63107W        W35367  28.990   8.798  12.930
63108W        W35368  19.556  41.332  12.966
63109W        W35369   7.873  26.514  11.541
63110W        W35370  28.599  16.739   3.313
63111W        W35371  21.017  39.521   2.786
63112W        W35372  18.217  41.947  14.968
63113W        W35373  33.902  39.034   1.794
63114W        W35374  20.247  32.440  12.561
63115W        W35375  39.839  21.242  13.526
63116W        W35376  22.641  23.535  12.424
63117W        W35377   9.159  11.129   0.289
63118W        W35378  11.138  42.813   1.905
63119W        W35379  21.644  35.905   0.736
63120W        W35380  30.944   3.291  12.092
63121W        W35381   3.894  39.812  12.014
63122W        W35382  28.437  17.572  10.905
63123W        W35383  13.838  25.989   1.335
63124W        W35384   8.867  37.995  11.518
63125W        W35385  10.786   5.272   1.221
63126W        W35386  25.635  31.554   3.730
63127W        W35387   9.851  15.734  13.363
63128W        W35388  27.161   1.755   3.373
63129W        W35389  11.358  11.710  11.044
63130W        W35390   9.173  22.600  14.320
63131W        W35391  28.128   3.274   4.636
63132W        W35392  40.407  18.574  12.037
63133W        W35393  19.663  11.283   0.411
63134W        W35394   9.673  30.937  12.011
63135W        W35395  33.071  31.104  14.479
63136W        W35396  26.601  39.873  10.134
63137W        W35397   5.872  42.432  13.826
63138W        W35398  32.496  39.958   4.815
63139W        W35399  21.105   8.887  11.497
63140W        W35400  20.039   1.284  10.477
63141W        W35401  15.668  23.185   2.234
63142W        W35402  32.436  37.912  14.806
63143W        W35403   7.316   2.962  10.901
63144W        W35404   7.775  30.022  14.294
63145W        W35405  28.673  25.628   4.337
63146W        W35406  16.163  35.924   4.621
63147W        W35407  40.884   0.352  11.857
63148W        W35408  20.046  37.474  12.989
63149W        W35409  38.549  24.976   3.738
63150W        W35410  27.518  33.909  12.378
63151W        W35411   5.688  15.184   3.755
63152W        W35412  12.610  13.744  11.552
63153W        W35413  38.942  33.945  13.807
63154W        W35414  20.692  16.782   4.335
63155W        W35415   1.432  24.107  12.530
63156W        W35416  17.624  26.642  14.887
63157W        W35417  40.033  11.755  11.468
63158W        W35418   5.214  41.358   3.679
63159W        W35419  33.128  25.509  12.969
63160W        W35420  34.520  33.563  13.545
63161W        W35421   9.359   1.763   2.838
63162W        W35422   6.353   7.688   4.201
63163W        W35423  24.708  31.487   0.745
63164W        W35424  38.040  16.648  13.868
63165W        W35425  31.980  15.238  11.523
63166W        W35426   8.187  35.555  11.063
63167W        W35427  27.469  41.017   4.796
63168W        W35428  44.853  26.106  14.311
63169W        W35429  39.834  36.857   0.361
63170W        W35430  14.657  30.040   5.738
63171W        W35431  29.163  27.485  11.014
63172W        W35432  40.014  24.196  10.928
63173W        W35433   0.936  37.562  12.024
63174W        W35434   2.286   9.164   0.421
63175W        W35435  24.159  39.388  14.989
63176W        W35436  19.201   6.400   4.644
63177W        W35437   4.750  15.758  10.956
63178W        W35438  10.197  33.611  11.413
63179W        W35439   4.352  11.317  14.344
63180W        W35440  42.453  15.742  13.522
63181W        W35441  38.506  19.685   2.740
63182W        W35442  33.478  18.080  10.436
63183W        W35443  36.586  12.342   4.155
63184W        W35444  38.977  37.997   1.735
63185W        W35445  40.012   7.216   9.988
63186W        W35446   1.442  17.709   2.882
63187W        W35447  23.079  17.616   0.901
63188W        W35448  40.374  28.555  14.484
63189W        W35449  40.879  21.636   4.214
63190W        W35450  17.077  28.176  13.906
63191W        W35451  41.415   7.407  11.861
63192W        W35452  11.754  33.097   3.224
63193W        W35453  42.943  11.191   4.204
63194W        W35454  43.335  18.243  13.342
63195W        W35455  33.013  17.659  14.938
63196W        W35456  17.793  11.647   1.405
63197W        W35457  12.347  12.835  11.384
63198W        W35458  40.977  14.726   3.817
63199W        W35459  28.978  16.226  12.879
63200W        W35460  15.102  25.539   4.697
63201W        W35461   9.258  12.286  14.793
63202W        W35462  35.898   8.675   4.309
63203W        W35463  33.492  23.046   1.344
63204W        W35464  15.287   7.677  14.497
63205W        W35465   9.351  41.390  11.903
63206W        W35466  27.608   0.319   0.918
63207W        W35467  24.522  44.378   2.727
63208W        W35468  40.831  15.818   9.970
63209W        W35469  24.644  41.035   3.795
63210W        W35470  24.105   9.665   0.400
63211W        W35471   4.366   3.361  13.809
63212W        W35472  19.679  15.250   4.196
63213W        W35473  15.801  23.676  12.540
63214W        W35474   4.409  13.267   3.367
63215W        W35475  39.960  29.926   0.944
63216W        W35476  34.983  20.576   9.933
63217W        W35477  27.454  34.921   3.309
63218W        W35478   3.459  14.109  13.893
63219W        W35479  15.584   9.364   4.716
63220W        W35480   3.284  44.300   4.661
63221W        W35481  15.317   0.754   3.310
63222W        W35482  37.516  16.128   3.636
63223W        W35483  40.998  33.951  13.431
63224W        W35484  16.252  39.826   0.912
63225W        W35485  17.661  41.859  12.033
63226W        W35486  19.546   0.896   3.309
63227W        W35487  38.861   0.751  11.563
63228W        W35488  16.291  43.893   0.306
63229W        W35489  24.562  14.692  12.495
63230W        W35490  23.640  34.574   3.711
63231W        W35491  18.552  18.603   4.276
63232W        W35492  14.723  12.631  11.518
63233W        W35493  36.484   7.762  11.042
63234W        W35494  30.922  18.093  11.543
63235W        W35495   4.243  24.106  12.882
63236W        W35496  42.451  39.370   3.768
63237W        W35497  21.532  32.928   1.438
63238W        W35498   3.744  41.505  13.967
63239W        W35499   1.291   1.849   4.769
63240W        W35500   2.761  17.712   4.181
63241W        W35501   5.888  16.772  10.966
63242W        W35502   1.780  17.563  12.967
63243W        W35503  31.614  18.677   1.759
63244W        W35504  10.379   4.275  14.958
63245W        W35505   5.294  14.224   3.768
63246W        W35506   7.259  13.841   2.730
63247W        W35507  14.646  10.643   4.792
63248W        W35508  43.438   6.292   3.202
63249W        W35509  14.770  24.695  13.994
63250W        W35510   3.245  38.500   1.782
63251W        W35511  10.877  11.190  14.908
63252W        W35512  42.293  15.783   3.164
63253W        W35513  16.143  32.096  13.432
63254W        W35514   6.285  35.003  13.813
63255W        W35515   9.187  37.049   0.333
63256W        W35516  18.261  23.571  14.993
63257W        W35517  24.984  36.378   4.642
63258W        W35518   7.837  34.935   3.374
63259W        W35519   6.855   3.283   1.313
63260W        W35520  21.607  28.057   9.583
63261W        W35521   9.843  25.093   3.729
63262W        W35522  19.729  32.588  10.437
63263W        W35523  38.907  21.615  14.794
63264W        W35524   1.962   0.480   4.291
63265W        W35525  43.331  10.653  13.500
63266W        W35526   8.180  31.058  13.420
63267W        W35527   9.852  27.159  14.418
63268W        W35528  38.437  25.608   2.702
63269W        W35529   0.974  36.438  11.569
63270W        W35530  44.312  20.188   3.353
63271W        W35531  12.624  34.931   1.721
63272W        W35532  33.379  19.072  13.467
63273W        W35533  31.460  17.637   4.627
63274W        W35534  10.260  26.698  14.992
63275W        W35535  37.854   0.938   3.361
63276W        W35536  27.024  37.845   0.333
63277W        W35537  21.245  11.194  12.850
63278W        W35538  33.411  15.786   3.164
63279W        W35539  41.923  39.002   3.311
63280W        W35540  14.693  38.031   1.327
63281W        W35541  38.974  35.033  11.513
63282W        W35542  41.860  43.009   1.250
63283W        W35543  40.331  22.159   9.922
63284W        W35544  35.411  43.981   0.806
63285W        W35545  30.925  19.606  12.494
63286W        W35546  34.421  31.924  12.507
63287W        W35547  21.087   1.286   0.796
63288W        W35548  13.667  15.770   0.359
63289W        W35549  11.361  26.205  11.558
63290W        W35550  42.778  43.350  13.012
63291W        W35551  36.426  28.122   0.906
63292W        W35552  21.228  10.864   4.158
63293W        W35553  41.467   8.789  12.902
63294W        W35554  24.600   9.175   2.243
63295W        W35555   5.848  35.003   0.819
63296W        W35556  15.086  29.985  11.858
63297W        W35557   3.244  17.082   0.272
63298W        W35558  18.291  37.000   2.882
63299W        W35559  11.231  26.481   1.714
63300W        W35560  17.788  26.010   4.793
63301W        W35561  21.580  31.088   0.273
63302W        W35562  17.605   8.201  11.502
63303W        W35563  38.027  29.530   9.969
63304W        W35564  10.772  13.759   3.801
63305W        W35565   5.353  35.074   3.717
63306W        W35566   7.694  23.522  10.619
63307W        W35567  27.137   0.833  12.524
63308W        W35568  31.531   9.249  14.347
63309W        W35569  23.621  33.601   4.284
63310W        W35570  31.094  32.499   5.687
63311W        W35571   2.452  36.556  10.598
63312W        W35572  24.228  32.143  10.090
63313W        W35573   7.713  22.572  13.384
63314W        W35574  44.912   4.205  11.950
63315W        W35575   8.894  27.977   4.756
63316W        W35576  28.531  26.531   1.248
63317W        W35577  11.359  21.701   3.646
63318W        W35578   8.251   3.935  13.383
63319W        W35579  24.045  15.726  10.506
63320W        W35580   4.740   7.234   2.795
63321W        W35581  42.874  22.716   0.430
63322W        W35582   2.775   0.875   4.710
63323W        W35583   7.909  40.376  12.990
63324W        W35584  17.146  36.844  12.490
63325W        W35585  43.281  32.593   3.226
63326W        W35586  21.094  10.199  10.446
63327W        W35587  42.503   4.881  11.020
63328W        W35588  42.332  15.276  11.008
63329W        W35589  10.655  14.757  11.037
63330W        W35590  38.053  40.940   1.316
63331W        W35591   2.786  30.022  13.334
63332W        W35592  21.731   5.746  11.956
63333W        W35593  44.388   0.804   0.355
63334W        W35594  23.710  22.181  12.567
63335W        W35595  16.242  31.444  11.048
63336W        W35596  34.054  44.357  11.491
63337W        W35597  29.538  37.837  12.005
63338W        W35598  11.771  31.941  10.995
63339W        W35599  10.869   4.810  10.153
63340W        W35600  34.370  18.074   4.709
63341W        W35601  37.840   3.791  13.886
63342W        W35602   2.426  30.063  11.073
63343W        W35603   9.243  25.981   3.186
63344W        W35604  24.989  31.425   3.271
63345W        W35605  20.229  38.523   1.275
63346W        W35606   6.923  22.198   0.261
63347W        W35607  26.117  17.619  12.906
63348W        W35608   8.379  28.080   2.679
63349W        W35609  37.059  18.728   0.838
63350W        W35610  40.934  44.859  13.452
63351W        W35611  41.998  25.973  13.442
63352W        W35612  29.059   9.315  11.958
63353W        W35613  44.285  16.725  11.057
63354W        W35614   2.287  34.944  12.347
63355W        W35615  23.526  16.251   3.797
63356W        W35616  30.022  35.947  13.450
63357W        W35617  11.636  24.028  11.985
63358W        W35618  24.650  33.922   2.815
63359W        W35619   0.779  44.274  10.157
63360W        W35620  12.181   6.838   4.618
63361W        W35621   8.667  27.565   3.816
63362W        W35622  27.006   6.307  11.434
63363W        W35623  22.593   3.298  12.883
63364W        W35624  13.704  41.498  12.434
63365W        W35625  36.926   7.171   1.908
63366W        W35626  42.284  27.170   0.934
63367W        W35627   8.285  16.209  12.472
63368W        W35628   2.292  15.819  10.941
63369W        W35629  22.093  43.475  11.122
63370W        W35630  38.877  22.547   1.362
63371W        W35631  42.000  25.111  10.103
63372W        W35632  24.493  27.603   5.626
63373W        W35633   3.445   9.250  11.485
63374W        W35634  26.951  18.218  13.950
63375W        W35635  41.449   9.697   1.923
63376W        W35636  42.017  12.196  13.443
63377W        W35637  37.571  41.535   0.411
63378W        W35638   6.678   0.477   2.775
63379W        W35639  33.582   0.804   2.793
63380W        W35640   7.703  43.952   0.285
63381W        W35641  25.003   9.792   4.336
63382W        W35642  19.551  26.056  13.866
63383W        W35643  13.786  39.936   3.387
63384W        W35644   5.390  33.907  14.511
63385W        W35645   8.801  29.174  14.396
63386W        W35646  17.306  44.448  12.937
63387W        W35647  21.530   5.383  14.004
63388W        W35648  23.615  16.317   1.912
63389W        W35649  15.773  13.328   1.319
63390W        W35650   0.931  14.146  10.474
63391W        W35651  18.202  24.688   1.269
63392W        W35652  19.767  13.623   2.670
63393W        W35653  20.738  26.518   4.254
63394W        W35654   8.282   4.229  13.809
63395W        W35655  25.543  31.004   0.823
63396W        W35656  44.386   7.812   2.869
63397W        W35657  14.279  27.561  10.414
63398W        W35658  43.004   7.195   1.440
63399W        W35659   1.867   4.846   3.682
63400W        W35660  27.683  36.018   1.827
63401W        W35661  15.181  37.874  11.927
63402W        W35662  34.978  43.514   2.665
63403W        W35663  19.133  29.011  13.432
63404W        W35664  21.669  18.579   3.160
63405W        W35665   7.257  30.085   3.283
63406W        W35666  32.126  42.010  10.570
63407W        W35667   4.447  18.745   1.810
63408W        W35668  28.126  35.414  14.281
63409W        W35669  23.517  41.531  13.385
63410W        W35670  42.360  43.503  10.633
63411W        W35671  15.214   9.864   4.286
63412W        W35672  42.927  38.946   2.688
63413W        W35673  26.098   9.649  13.503
63414W        W35674   6.775  33.577   2.867
63415W        W35675  27.542  36.069  11.521
63416W        W35676  11.679  30.077  14.017
63417W        W35677   0.377  31.435  13.988
63418W        W35678  33.443   2.257  12.966
63419W        W35679   4.347   4.829  10.140
63420W        W35680  23.026  30.453   4.220
63421W        W35681  28.174  19.239  13.027
63422W        W35682   4.736  41.023  14.356
63423W        W35683   7.833  40.977   2.366
63424W        W35684  37.366  43.309   5.096
63425W        W35685  42.859  14.818  12.569
63426W        W35686   2.804   8.247  11.000
63427W        W35687  27.105  13.619  11.534
63428W        W35688  21.649  13.273   1.696
63429W        W35689  24.483  20.605   3.227
63430W        W35690  15.115  37.560  11.505
63431W        W35691   6.300  12.676  12.849
63432W        W35692   1.376  10.860  11.969
63433W        W35693  19.153  18.663  12.467
63434W        W35694  43.981  36.558   0.357
63435W        W35695  19.092  34.116   1.791
63436W        W35696  34.488  20.266   2.728
63437W        W35697   4.857  17.070   5.081
63438W        W35698  11.138  37.855  14.313
63439W        W35699  17.179  17.786   1.752
63440W        W35700  10.797  18.268   4.630
63441W        W35701  21.733  38.990  12.901
63442W        W35702  34.502   2.283  13.815
63443W        W35703   1.963  12.740  13.486
63444W        W35704  42.029  40.426  12.432
63445W        W35705  11.751  14.611  13.471
63446W        W35706  31.552   9.878   2.696
63447W        W35707  31.489   6.793  11.985
63448W        W35708  18.581  36.875  10.542
63449W        W35709   1.294  11.665  14.889
63450W        W35710  34.386  22.600  10.936
63451W        W35711   3.920  22.623  13.939
63452W        W35712  32.416  22.034   0.793
63453W        W35713   6.337   4.738   2.392
63454W        W35714   2.417   0.857   3.799
63455W        W35715   6.778  40.434   2.298
63456W        W35716  26.600   6.886   2.342
63457W        W35717   3.303  35.395  14.814
63458W        W35718  29.971   7.734  10.915
63459W        W35719  34.079  12.254  11.432
63460W        W35720  28.938  19.236   4.766
63461W        W35721  33.030  17.196   4.171
63462W        W35722  43.503  13.704  10.474
63463W        W35723  29.101   3.839   4.159
63464W        W35724  22.613  32.606  10.536
63465W        W35725  38.001   4.400  13.975
63466W        W35726  35.452  42.331  13.923
63467W        W35727  17.198   0.851   2.226
63468W        W35728  25.157  40.043  12.937
63469W        W35729  10.150  10.662   0.786
63470W        W35730  41.442  10.697   1.778
63471W        W35731  44.977  15.763  12.562
63472W        W35732  17.680  27.119  13.929
63473W        W35733   5.258  12.628   1.438
63474W        W35734  34.602  44.998  14.765
63475W        W35735  23.036  42.803  10.416
63476W        W35736  31.923  26.658   2.799
63477W        W35737  24.983  43.800   1.412
63478W        W35738  22.166  17.139  13.006
63479W        W35739   5.901   6.908  12.020
63480W        W35740   4.218  33.530  12.487
63481W        W35741  20.150  35.589  13.055
63482W        W35742  25.622  25.041   3.286
63483W        W35743   0.846   7.681   3.348
63484W        W35744  18.203  14.694  13.468
63485W        W35745  37.883  31.490  13.893
63486W        W35746  28.965   9.285  14.409
63487W        W35747  29.576  32.956   1.819
63488W        W35748  28.171  13.139   0.829
63489W        W35749  41.829  39.422  12.480
63490W        W35750  23.527  10.819   2.394
63491W        W35751  39.473  26.613  14.906
63492W        W35752  18.716  35.553  12.091
63493W        W35753  44.295  42.909  10.117
63494W        W35754   0.414   7.287   2.734
63495W        W35755  36.405  44.389  12.873
63496W        W35756  23.532  13.683  12.836
63497W        W35757  38.325  34.434   0.372
63498W        W35758  34.934  40.836   2.335
63499W        W35759   3.869   2.417   1.312
63500W        W35760  25.063  12.679   4.664
63501W        W35761   0.293   0.449  12.023
63502W        W35762  25.022  41.868   3.708
63503W        W35763  13.637   4.282  12.985
63504W        W35764  26.463  23.564  14.919
63505W        W35765  25.063  38.367   3.339
63506W        W35766  28.441  29.510   1.785
63507W        W35767  16.183  13.723   1.402
63508W        W35768   1.449   9.767   3.776
63509W        W35769  29.958  11.775  12.504
63510W        W35770   4.708  30.653  11.418
63511W        W35771  18.560  42.367   1.377
63512W        W35772   0.415  30.161   0.433
63513W        W35773  32.402  31.033  10.939
63514W        W35774  17.261  16.590  10.930
63515W        W35775  21.621  21.224   9.534
63516W        W35776   0.258  31.951   0.774
63517W        W35777  17.617  37.515   3.754
63518W        W35778  38.007  30.425  10.912
63519W        W35779  35.918  30.994   2.278
63520W        W35780  24.613  44.290  11.010
63521W        W35781   1.815  43.014  13.877
63522W        W35782   4.252  33.893  14.856
63523W        W35783  15.326   9.867   0.814
63524W        W35784  23.049  34.947   0.406
63525W        W35785  14.204  31.009  14.323
63526W        W35786   5.775  14.629   4.770
63527W        W35787   3.354  33.481  12.092
63528W        W35788  20.186  15.651  11.960
63529W        W35789  43.357   2.753   4.833
63530W        W35790  43.963  16.567   2.384
63531W        W35791  22.710  36.387   2.207
63532W        W35792   9.830   6.759  14.875
63533W        W35793  25.982  23.988   4.122
63534W        W35794  27.185  21.724  10.548
63535W        W35795  22.692   0.744   4.666
63536W        W35796  41.524  13.777   2.210
63537W        W35797  15.712  35.865  10.408
63538W        W35798  13.795  37.455   3.688
63539W        W35799   7.388   4.766  12.880
63540W        W35800  44.428  14.743   0.268
63541W        W35801  15.749  19.239  13.054
63542W        W35802   4.713  37.914   0.364
63543W        W35803   4.283   1.442  12.533
63544W        W35804  31.141  16.103  13.875
63545W        W35805  33.048  15.783  13.889
63546W        W35806  12.284  40.999   4.661
63547W        W35807  43.298  43.436  14.509
63548W        W35808  24.217  37.925  14.458
63549W        W35809   2.900  14.787   3.159
63550W        W35810  33.968   8.756  12.848
63551W        W35811  40.535   5.812  13.985
63552W        W35812  36.423  25.558  10.533
63553W        W35813  39.324   5.864  11.612
63554W        W35814  26.109   8.670   2.415
63555W        W35815   0.344   2.429   4.209
63556W        W35816   1.415  28.669   4.242
63557W        W35817  41.529   8.742  14.302
63558W        W35818  33.509  22.643  12.093
63559W        W35819  39.065  30.490   5.239
63560W        W35820   8.699  34.409  12.918
63561W        W35821  27.603  29.544  14.831
63562W        W35822  20.242   2.743  12.863
63563W        W35823   5.688  10.349  13.817
63564W        W35824  27.516  11.131   2.832
63565W        W35825  44.950  27.051  11.387
63566W        W35826   3.422  23.090   4.161
63567W        W35827  29.567  15.192   2.326
63568W        W35828  22.188  41.794  11.421
63569W        W35829  15.279   4.345  10.491
63570W        W35830  12.764  19.687  14.904
63571W        W35831  15.287  16.255  13.006
63572W        W35832  13.235  14.824  11.000
63573W        W35833   7.198  27.073   5.135
63574W        W35834   1.941  24.618   0.309
63575W        W35835  31.135  19.126   2.305
63576W        W35836  28.461  32.601   3.284
63577W        W35837   4.329   4.328   1.308
63578W        W35838   5.330  35.002  13.416
63579W        W35839  29.004   9.378  10.538
63580W        W35840  12.704  19.270   4.150
63581W        W35841  38.073  14.292   2.886
63582W        W35842   4.436  43.312  12.994
63583W        W35843  17.065  19.120   4.305
63584W        W35844  12.706  28.090  12.912
63585W        W35845  31.139  33.613  13.376
63586W        W35846  40.432  11.730   9.997
63587W        W35847  16.794  11.763   2.707
63588W        W35848  36.481   5.266   4.780
63589W        W35849   6.378  16.640  11.427
63590W        W35850  39.544  32.983  11.055
63591W        W35851  19.715  12.209  13.825
63592W        W35852  40.020   8.187   2.714
63593W        W35853  14.216  19.547   2.773
63594W        W35854  22.084   7.764  11.059
63595W        W35855  11.769   8.347   0.354
63596W        W35856  22.108  32.908   3.157
63597W        W35857  37.487  29.517  14.870
63598W        W35858   4.814  38.898  14.779
63599W        W35859  37.833  17.164   3.267
63600W        W35860   2.783  11.271   4.682
63601W        W35861   2.724  43.937  10.597
63602W        W35862   6.197  29.643  13.418
63603W        W35863  15.649   6.904  10.489
63604W        W35864  30.448   9.864  11.064
63605W        W35865  36.890   4.225   2.381
63606W        W35866  29.111  38.907  12.908
63607W        W35867  16.692  40.377   0.394
63608W        W35868  31.483  37.397  14.997
63609W        W35869  17.634   7.884   4.602
63610W        W35870  42.904   9.855  10.964
63611W        W35871   5.754   6.801   4.122
63612W        W35872  20.250  40.469  13.420
63613W        W35873  18.707  25.177  12.468
63614W        W35874  38.828  27.690   1.359
63615W        W35875  27.968  10.307  11.050
63616W        W35876  35.514  31.900  12.013
63617W        W35877  29.568  34.553   3.353
63618W        W35878   1.451   4.824   4.291
63619W        W35879  24.717  41.484   5.581
63620W        W35880  14.636  20.037  12.082
63621W        W35881  29.925   6.734  13.514
63622W        W35882  32.941   6.800  10.528
63623W        W35883  44.899  37.912   4.691
63624W        W35884  18.114  37.473  14.030
63625W        W35885  38.939  12.349   4.152
63626W        W35886  32.509   9.199  14.852
63627W        W35887  18.673   7.375   3.823
63628W        W35888  18.289   4.835  13.444
63629W        W35889  12.680  30.444   0.793
63630W        W35890  26.641  12.635   1.273
63631W        W35891   1.827  10.853  13.478
63632W        W35892  28.162  36.461  10.442
63633W        W35893  39.531  13.304  13.016
63634W        W35894  36.470  34.082   0.275
63635W        W35895  29.454  21.245  10.458
63636W        W35896  23.730   9.187   0.467
63637W        W35897   1.733  44.802   0.928
63638W        W35898  25.980  35.992   1.403
63639W        W35899   7.187   8.683   1.904
63640W        W35900  38.070  26.148  13.807
63641W        W35901  27.560  30.510   1.381
63642W        W35902  40.411  38.489  14.814
63643W        W35903  21.614  21.523   2.681
63644W        W35904   8.251  33.426  14.807
63645W        W35905  41.998   2.441   0.293
63646W        W35906  22.550  30.973  14.484
63647W        W35907   8.214  24.524  10.484
63648W        W35908  20.155   0.407   2.717
63649W        W35909  37.508  23.720   4.238
63650W        W35910  26.575  11.155  13.908
63651W        W35911   2.826   2.427   3.777
63652W        W35912  18.655  26.697   3.860
63653W        W35913  10.675   4.221  14.869
63654W        W35914  22.699  38.932   5.229
63655W        W35915  19.720  26.637  11.585
63656W        W35916   9.332  25.582   2.662
63657W        W35917  25.123  36.369   3.823
63658W        W35918  16.774  16.237  12.901
63659W        W35919   8.745  38.016   5.216
63660W        W35920  32.447   2.312   0.872
63661W        W35921   8.709  13.745   2.788
63662W        W35922  17.094  22.712   2.221
63663W        W35923   7.244  24.522  11.596
63664W        W35924   7.766   5.921   2.771
63665W        W35925   2.942  10.649  13.881
63666W        W35926  31.406  24.640   3.276
63667W        W35927  38.488  38.422   0.409
63668W        W35928  26.188  35.908   3.785
63669W        W35929  28.955  29.474  10.048
63670W        W35930   4.393  33.381  10.892
63671W        W35931  16.308  13.689   4.763
63672W        W35932  36.383  19.706   4.825
63673W        W35933   5.246  34.051   1.850
63674W        W35934  14.326  25.474  11.913
63675W        W35935  24.094  44.879   3.691
63676W        W35936  18.771   7.864   5.719
63677W        W35937   2.318  31.573  10.521
63678W        W35938  15.796   4.813   1.935
63679W        W35939  27.067  33.973  13.947
63680W        W35940  14.330  18.654  13.938
63681W        W35941  14.132  43.390   4.128
63682W        W35942   6.197  19.676   5.291
63683W        W35943  35.915  32.989  13.443
63684W        W35944  17.076  31.954   3.694
63685W        W35945  34.922   9.768  12.954
63686W        W35946  10.785  13.816   0.844
63687W        W35947  19.543   7.758   3.638
63688W        W35948   4.771  25.696  14.500
63689W        W35949  33.975  40.813  12.026
63690W        W35950  37.466  26.195  10.457
63691W        W35951  40.827  26.136   3.718
63692W        W35952  32.967   9.219   3.151
63693W        W35953  28.944  28.501  12.570
63694W        W35954  27.987  11.257  11.490
63695W        W35955  11.239  22.205  13.357
63696W        W35956  32.009  18.709   3.749
63697W        W35957  22.509  10.384  12.999
63698W        W35958  33.909  40.832  14.348
63699W        W35959   9.740  38.867  12.014
63700W        W35960   0.294  33.420   2.233
63701W        W35961   5.688  39.338   4.706
63702W        W35962   7.788  11.317  11.070
63703W        W35963  35.983   0.789  10.487
63704W        W35964  10.383  32.117   3.638
63705W        W35965  10.696  15.205   0.861
63706W        W35966  13.188  25.153  13.923
63707W        W35967  12.180   2.368  10.479
63708W        W35968  27.656  42.398   0.935
63709W        W35969  36.484  11.139   4.772
63710W        W35970  30.148  19.240   1.339
63711W        W35971  37.388  42.833  11.607
63712W        W35972   2.396  35.918  12.360
63713W        W35973   3.262  19.732  13.936
63714W        W35974  27.538  14.809  13.894
63715W        W35975   4.362   7.404  10.906
63716W        W35976  38.022  40.305   3.829
63717W        W35977  11.287   9.842   4.291
63718W        W35978  15.276  19.162   0.953
63719W        W35979  32.568   5.288  12.071
63720W        W35980  35.431  23.599   4.658
63721W        W35981  19.206  14.171   3.187
63722W        W35982   2.868  41.498  11.986
63723W        W35983   5.901  44.345  13.912
63724W        W35984  34.005  17.600   4.638
63725W        W35985  38.062  16.721   2.347
63726W        W35986   1.327  10.727   4.314
63727W        W35987  13.128  43.827  14.774
63728W        W35988  32.046  42.431  13.007
63729W        W35989   6.417  15.621   4.726
63730W        W35990   7.326  15.598   0.308
63731W        W35991  29.536  41.515  11.058
63732W        W35992   6.771  17.170  12.056
63733W        W35993  14.761  16.733   2.749
63734W        W35994   3.297  15.179   4.227
63735W        W35995   0.913  35.405  14.471
63736W        W35996  28.953  21.694   4.811
63737W        W35997  32.503  40.342   4.165
63738W        W35998  35.572   4.926  11.901
63739W        W35999  23.711  12.728  11.920
63740W        W36000  43.914  27.954   2.665
63741W        W36001  43.345  17.693  14.852
63742W        W36002  27.973  30.932   1.872
63743W        W36003  31.625   0.347   0.449
63744W        W36004  17.757  15.318   1.745
63745W        W36005  31.422  10.274  13.001
63746W        W36006   1.927   1.257  12.457
63747W        W36007  37.508  17.758  14.397
63748W        W36008  41.971  40.928   2.744
63749W        W36009  23.529  20.630   1.261
63750W        W36010  27.618   9.201   0.965
63751W        W36011   6.698   3.417   3.268
63752W        W36012   4.840   6.880  14.954
63753W        W36013  35.106  41.302  11.442
63754W        W36014  22.548  14.165  13.003
63755W        W36015  17.112  43.851   1.850
63756W        W36016  20.754  16.245  14.298
63757W        W36017  35.067  34.040   1.297
63758W        W36018  25.521  16.104  11.117
63759W        W36019  39.458  33.897   2.780
63760W        W36020  16.105  24.563   4.164
63761W        W36021  34.502  31.054  10.905
63762W        W36022  15.314   9.753  13.943
63763W        W36023  28.572  43.295  10.471
63764W        W36024   4.403  28.528   1.346
63765W        W36025   0.947   1.792   2.370
63766W        W36026  10.316  20.254  13.499
63767W        W36027  33.592  26.082   1.414
63768W        W36028  31.403  41.993  10.561
63769W        W36029   3.307   4.798  12.496
63770W        W36030  20.040  33.105   0.296
63771W        W36031  35.519  10.691   0.384
63772W        W36032   0.928   5.314  12.854
63773W        W36033   2.763   0.822  13.929
63774W        W36034   3.767  30.067   1.211
63775W        W36035  17.740  19.136   1.264
63776W        W36036  30.066   4.316  12.498
63777W        W36037   3.727  10.193  10.550
63778W        W36038  42.523   9.683   4.727
63779W        W36039  34.574  25.036  13.811
63780W        W36040  20.267   1.364   4.342
63781W        W36041  33.551  31.629   4.120
63782W        W36042  15.761   6.291   3.817
63783W        W36043  13.752  40.352  14.968
63784W        W36044  30.001  43.373  11.438
63785W        W36045  13.128  35.452   1.843
63786W        W36046  22.174  15.736  10.509
63787W        W36047  27.134  14.310   2.239
63788W        W36048  32.910  12.205  14.463
63789W        W36049  38.529  33.558  12.352
63790W        W36050  39.882  44.949   0.266
63791W        W36051  36.522  14.596  12.833
63792W        W36052  43.288  44.764   0.472
63793W        W36053  14.131   6.292  14.277
63794W        W36054  17.090  18.712  14.463
63795W        W36055   9.852  20.645  12.910
63796W        W36056   4.861  33.444   3.321
63797W        W36057  11.273  15.096  11.881
63798W        W36058  22.041  19.224   5.242
63799W        W36059  39.808  36.590  10.952
63800W        W36060   7.910  28.612   0.345
63801W        W36061   3.293  13.729  13.047
63802W        W36062   2.229  35.914   4.265
63803W        W36063  21.252   3.893   3.700
63804W        W36064   6.251   8.265   3.850
63805W        W36065   7.685   8.334  12.840
63806W        W36066  44.910  17.083  13.937
63807W        W36067  31.927  33.085  11.451
63808W        W36068  43.838  41.502  12.341
63809W        W36069   6.846  11.212   2.835
63810W        W36070  35.362  38.427   2.887
63811W        W36071  11.300  14.226   2.747
63812W        W36072  10.846  14.172   1.435
63813W        W36073  43.458  29.918   3.746
63814W        W36074  22.579  44.899  14.502
63815W        W36075  11.707  38.047  10.962
63816W        W36076   4.849  25.482   2.326
63817W        W36077  25.121  35.099  14.001
63818W        W36078  42.485  42.369   3.688
63819W        W36079   1.741  36.060  13.836
63820W        W36080  24.664  20.554   1.375
63821W        W36081  34.562   9.210  10.905
63822W        W36082  32.944  42.409   0.858
63823W        W36083  18.094  13.713  14.477
63824W        W36084  30.490  35.372   2.186
63825W        W36085  30.111  31.946  10.049
63826W        W36086  16.258  33.888  11.453
63827W        W36087  16.670  11.130   4.642
63828W        W36088  16.600  43.312  11.466
63829W        W36089   7.822  27.032   5.116
63830W        W36090  16.283  25.628   4.807
63831W        W36091  10.203  40.958  14.835
63832W        W36092  28.605  41.327   4.659
63833W        W36093  29.635  19.762   1.344
63834W        W36094  10.800  19.772  11.063
63835W        W36095   4.740  33.526   5.123
63836W        W36096  35.941   3.833   1.749
63837W        W36097  44.854   5.432   1.440
63838W        W36098   6.282   8.179   2.340
63839W        W36099  18.119  34.042   0.428
63840W        W36100  10.354   0.362   3.298
63841W        W36101  21.124  11.854   2.380
63842W        W36102   0.841  25.712   4.114
63843W        W36103  30.466  35.879  13.881
63844W        W36104  29.944  10.840   4.350
63845W        W36105   1.458   9.315   4.735
63846W        W36106  15.247  37.862   1.797
63847W        W36107  15.214  12.331  12.025
63848W        W36108  30.982  14.150  12.362
63849W        W36109  32.894   0.868   0.425
63850W        W36110   7.215  35.512  11.061
63851W        W36111  18.153  28.623   3.342
63852W        W36112  29.991  15.128  11.102
63853W        W36113  29.639   4.270  14.352
63854W        W36114  25.171   9.354   0.865
63855W        W36115  17.102  23.527   1.299
63856W        W36116   5.895  42.947   0.766
63857W        W36117   1.806  32.468   4.346
63858W        W36118  21.055  35.091  11.420
63859W        W36119  11.299  36.009   3.673
63860W        W36120  13.115  23.568  10.061
63861W        W36121   8.808   9.284   0.759
63862W        W36122  20.214  28.178   0.891
63863W        W36123   4.290   7.677   1.421
63864W        W36124  15.097   8.194   4.350
63865W        W36125  24.192  10.256   0.818
63866W        W36126  34.505  19.649   4.707
63867W        W36127   8.392  28.046   2.396
63868W        W36128  27.033  25.206  12.555
63869W        W36129  22.150   3.820  14.967
63870W        W36130  18.246  43.894  14.328
63871W        W36131  35.517  28.015   3.816
63872W        W36132  28.935  39.519  14.967
63873W        W36133  40.018   4.269  13.512
63874W        W36134  35.544   1.321  12.988
63875W        W36135   1.309  15.197  14.840
63876W        W36136   4.413  13.223   1.761
63877W        W36137  16.301  40.996   2.194
63878W        W36138  44.434  19.191   0.732
63879W        W36139   4.417  21.626   0.462
63880W        W36140   1.300  33.437   1.258
63881W        W36141   5.371  18.164   1.855
63882W        W36142  27.140  43.463  10.906
63883W        W36143  38.060   2.755   1.741
63884W        W36144  17.240  26.164  14.957
63885W        W36145  21.255   4.938  11.578
63886W        W36146  21.674   6.391   4.687
63887W        W36147  31.495  10.765   4.126
63888W        W36148  16.674  12.613   0.336
63889W        W36149  30.506  23.724  14.274
63890W        W36150  27.591  26.564  11.981
63891W        W36151  23.074  34.066  13.476
63892W        W36152  30.634  28.003  12.823
63893W        W36153  19.086  11.187   4.693
63894W        W36154  31.636  19.597   3.674
63895W        W36155   7.810  37.033   4.680
63896W        W36156  33.397  24.516  12.017
63897W        W36157   2.380  36.997  12.095
63898W        W36158   4.881   1.291   0.878
63899W        W36159  35.906  40.489   1.244
63900W        W36160  26.169  13.291   2.261
63901W        W36161  26.092   9.799  11.609
63902W        W36162  28.596  25.504  11.894
63903W        W36163  18.771   9.157   1.278
63904W        W36164  33.971  30.477  13.934
63905W        W36165  15.768  26.206   2.708
63906W        W36166  25.600  22.534   4.123
63907W        W36167  22.722   6.780   2.817
63908W        W36168  43.455  28.012  11.087
63909W        W36169   4.434  33.892  13.026
63910W        W36170  24.598  28.121  11.081
63911W        W36171  40.449  10.684  11.572
63912W        W36172  16.744  22.521   3.699
63913W        W36173  20.196  30.931   3.852
63914W        W36174  30.556  18.231  11.975
63915W        W36175  26.599  25.500  13.898
63916W        W36176   9.650  38.883  12.397
63917W        W36177  13.221  26.460  10.556
63918W        W36178  29.022  40.476  13.348
63919W        W36179   6.222  40.007  13.008
63920W        W36180  42.492  21.235   3.164
63921W        W36181  29.587  37.444   0.948
63922W        W36182  32.887  26.019   0.461
63923W        W36183  29.628  31.072  11.101
63924W        W36184   7.214   2.306  13.956
63925W        W36185  31.511  31.574   9.967
63926W        W36186   8.329  36.929  13.839
63927W        W36187   2.443  13.176  10.580
63928W        W36188  24.072  42.367  11.066
63929W        W36189  11.761  41.418  10.532
63930W        W36190  44.913  27.992  10.911
63931W        W36191   3.352  16.080   2.766
63932W        W36192  23.015  19.254   3.366
63933W        W36193   7.834  29.550   3.261
63934W        W36194  33.580   4.417   2.693
63935W        W36195  29.564   2.736   2.878
63936W        W36196  36.391  37.907  10.939
63937W        W36197  36.409  30.117   1.773
63938W        W36198  22.008  15.790  13.542
63939W        W36199   0.980   6.420   5.261
63940W        W36200   7.351  14.201  12.857
63941W        W36201  37.356   3.880  14.816
63942W        W36202  13.178  41.341   3.837
63943W        W36203  39.400  40.517  13.064
63944W        W36204  38.947  14.199   0.881
63945W        W36205  25.193  22.114  11.385
63946W        W36206  13.625  21.098   0.882
63947W        W36207   0.787  22.151   3.765
63948W        W36208  37.557  36.847   2.885
63949W        W36209  32.574  32.608  11.034
63950W        W36210  32.102  13.209   0.802
63951W        W36211  22.679  43.965   0.794
63952W        W36212  27.489  17.114  13.431
63953W        W36213   2.467  26.677   5.114
63954W        W36214  38.344  14.321   4.618
63955W        W36215  33.908   1.398  11.103
63956W        W36216  41.388  22.137   1.232
63957W        W36217  26.651   3.388   2.229
63958W        W36218  15.325  35.070  12.480
63959W        W36219  38.922  16.650   1.250
63960W        W36220  27.180   1.331  14.457
63961W        W36221  30.639   6.206   3.289
63962W        W36222  37.367  13.128   1.759
63963W        W36223  12.175  34.887   3.734
63964W        W36224  36.585  29.128  12.078
63965W        W36225  38.341   9.247   2.409
63966W        W36226  25.610  29.471  10.917
63967W        W36227  32.911  40.420   1.900
63968W        W36228  44.954  21.742  13.983
63969W        W36229   5.294  39.976   0.956
63970W        W36230  43.940   0.875   2.265
63971W        W36231  41.441  14.267   3.689
63972W        W36232  40.907  11.175  10.615
63973W        W36233  29.986   7.348  14.427
63974W        W36234   5.274  22.520   1.873
63975W        W36235  30.571  31.046  10.892
63976W        W36236  27.966  20.646   1.727
63977W        W36237  23.493  38.888  14.780
63978W        W36238   6.712  26.474  11.957
63979W        W36239   9.870  34.403   3.815
63980W        W36240  30.952  35.515  13.344
63981W        W36241  12.830  15.636  10.444
63982W        W36242   8.835  29.492   3.360
63983W        W36243  42.458  11.849   0.809
63984W        W36244  44.956  16.710   0.728
63985W        W36245  24.610   1.735  13.031
63986W        W36246   7.341   9.365   4.293
63987W        W36247   6.794  39.331  13.855
63988W        W36248  20.135  44.971  14.308
63989W        W36249  22.583  34.903  14.773
63990W        W36250  34.027  10.680   3.341
63991W        W36251  23.239  23.722   3.743
63992W        W36252   2.446  19.764  14.442
63993W        W36253   3.369  25.024  14.011
63994W        W36254   6.345  31.501   3.773
63995W        W36255  20.690  41.330  12.573
63996W        W36256  21.121  11.247  10.081
63997W        W36257  24.033  13.805  13.872
63998W        W36258  24.567  28.573   0.839
63999W        W36259  29.580   9.161   0.754
64000W        W36260  17.768  18.757  13.843
64001W        W36261  23.553  30.468   3.636
64002W        W36262  32.934  17.235   2.316
64003W        W36263  42.511   8.852   0.261
64004W        W36264  32.073   4.776  12.052
64005W        W36265  25.155  41.991  13.856
64006W        W36266  10.729  32.544  11.108
64007W        W36267  17.769   0.760  10.432
64008W        W36268  17.213   9.849   3.651
64009W        W36269   9.672  26.102  12.489
64010W        W36270  29.651  35.423  14.361
64011W        W36271   4.769  36.497  11.998
64012W        W36272  12.679  34.511  11.589
64013W        W36273  21.646  24.576   3.816
64014W        W36274  39.854  25.712  12.482
64015W        W36275  13.295  28.014  12.874
64016W        W36276   3.769  37.872   4.693
64017W        W36277   3.813   5.227  12.039
64018W        W36278  14.602  43.856  10.438
64019W        W36279  38.854  31.966   5.107
64020W        W36280  43.320   8.236  13.875
64021W        W36281  11.670  38.571  12.037
64022W        W36282  29.128   3.421  13.878
64023W        W36283  42.298   9.154   2.337
64024W        W36284  42.871  18.188   4.119
64025W        W36285  13.270  15.324   1.884
64026W        W36286   9.848  13.150   2.235
64027W        W36287  10.682  15.321   3.631
64028W        W36288  42.857  27.660   0.910
64029W        W36289  12.618  37.517  13.473
64030W        W36290  12.245  18.718   4.777
64031W        W36291  17.741  29.045  14.940
64032W        W36292   7.819  27.965   3.808
64033W        W36293  10.671  40.340   1.421
64034W        W36294   7.732  22.737   1.404
64035W        W36295   6.867  26.040  10.124
64036W        W36296  39.046   6.191  10.911
64037W        W36297  37.863  27.155  12.519
64038W        W36298  11.242  33.945   3.287
64039W        W36299  35.578  21.172   2.677
64040W        W36300  23.017  28.613  11.544
64041W        W36301  36.529  39.374  13.519
64042W        W36302   2.866   2.753   3.183
64043W        W36303   4.445   1.341   2.271
64044W        W36304  11.662  32.621  14.941
64045W        W36305   9.247  30.518  11.527
64046W        W36306   6.313  33.924  13.998
64047W        W36307  28.547  39.551  11.027
64048W        W36308   8.753  17.776  10.627
64049W        W36309  14.671  26.044  11.051
64050W        W36310  24.581  36.876  11.902
64051W        W36311  42.839  20.190   0.477
64052W        W36312  31.616  18.112   0.760
64053W        W36313  12.727  16.077   4.690
64054W        W36314  18.656  27.065   4.717
64055W        W36315   1.882  12.261   4.251
64056W        W36316  40.963  25.475  12.977
64057W        W36317  32.417  18.755   2.685
64058W        W36318  22.121  24.224  12.886
64059W        W36319  40.388  31.638   1.804
64060W        W36320  22.135  35.098   0.813
64061W        W36321   8.341  35.966  10.988
64062W        W36322   3.312  42.027  12.541
64063W        W36323  37.844  41.944  14.935
64064W        W36324  40.406  13.607   0.845
64065W        W36325  30.154   1.740  11.520
64066W        W36326  31.926   9.381  13.967
64067W        W36327  25.492   6.701  11.467
64068W        W36328  41.529  31.584   0.440
64069W        W36329  22.086  11.667   4.333
64070W        W36330  20.569  14.620  13.807
64071W        W36331   7.868  20.209  11.059
64072W        W36332  44.884  17.191  12.343
64073W        W36333  10.709  21.623  14.918
64074W        W36334  17.595  19.696  11.921
64075W        W36335  44.376  21.563  10.945
64076W        W36336  44.926   2.242  12.093
64077W        W36337  19.771   9.387  14.993
64078W        W36338  32.519  16.314  13.466
64079W        W36339  27.496  14.793  12.395
64080W        W36340  31.152  19.686  14.423
64081W        W36341  18.635  38.003   4.778
64082W        W36342  43.290  39.459   1.414
64083W        W36343  14.769  25.104  10.515
64084W        W36344  35.995   0.881  11.373
64085W        W36345  11.175  23.657  13.338
64086W        W36346  10.748  36.551   0.923
64087W        W36347  14.098   9.254   2.395
64088W        W36348  15.588   4.792  13.009
64089W        W36349   1.862   8.276  12.344
64090W        W36350  37.040  10.757  14.427
64091W        W36351  23.197  30.654   0.930
64092W        W36352   0.929  43.381  14.278
64093W        W36353   5.875   9.818  10.624
64094W        W36354  13.603   5.931   4.256
64095W        W36355  39.378  25.533   2.319
64096W        W36356  38.422  35.892  12.930
64097W        W36357  15.209  40.483   2.719
64098W        W36358  14.686  19.051  14.340
64099W        W36359  34.925  19.717   4.694
64100W        W36360  38.402  11.646   3.631
64101W        W36361  37.001  18.647   1.213
64102W        W36362  23.657  29.437  13.454
64103W        W36363  22.041  44.486  14.876
64104W        W36364  42.305  31.623   3.790
64105W        W36365  20.030   0.785   4.114
64106W        W36366  41.811  27.682  10.527
64107W        W36367  32.430  14.690  11.420
64108W        W36368  33.956   3.730  14.770
64109W        W36369  34.906  11.741  10.488
64110W        W36370  40.033  41.838   4.205
64111W        W36371  12.322  39.900  14.425
64112W        W36372   6.380  41.535   0.328
64113W        W36373  34.980  25.675   1.742
64114W        W36374  34.994  38.830   2.350
64115W        W36375   8.889  33.060   4.266
64116W        W36376  21.607  14.325  10.443
64117W        W36377  35.600  21.216   0.328
64118W        W36378  38.830  42.397   1.724
64119W        W36379  26.643  34.966  12.476
64120W        W36380  11.284   2.438  12.574
64121W        W36381  13.612  44.821   4.835
64122W        W36382  42.520  21.603   1.402
64123W        W36383  26.011  36.391   1.290
64124W        W36384  35.918   8.191  12.434
64125W        W36385  24.218  29.056  11.448
64126W        W36386  41.004  20.141   2.398
64127W        W36387  43.286  26.535   0.934
64128W        W36388  21.213  44.472  12.019
64129W        W36389  29.463  16.193  11.857
64130W        W36390  17.249   2.406   2.696
64131W        W36391  22.741  31.527  10.607
64132W        W36392  41.018  35.016   3.760
64133W        W36393  12.190   5.822   4.718
64134W        W36394  19.670  23.033   3.381
64135W        W36395  15.264  11.816   0.283
64136W        W36396  31.586   0.440  13.376
64137W        W36397  22.712  37.873   4.706
64138W        W36398  20.201   3.269   1.340
64139W        W36399   6.398   0.812  10.585
64140W        W36400  29.621  37.078   3.303
64141W        W36401  17.306  22.137   4.795
64142W        W36402  44.423   1.840  12.515
64143W        W36403  35.381  14.762  10.443
64144W        W36404  17.731  21.136   0.882
64145W        W36405  27.974  36.520   0.477
64146W        W36406  38.350   2.907  14.394
64147W        W36407  43.846  18.213  12.925
64148W        W36408  41.988  25.644  14.814
64149W        W36409  10.866   1.962  11.373
64150W        W36410   0.836  40.053   3.864
64151W        W36411  21.106  28.997  10.096
64152W        W36412  29.008   7.882   4.130
64153W        W36413  24.601  35.920   0.364
64154W        W36414   9.332   8.321   3.156
64155W        W36415   5.879  10.829  11.534
64156W        W36416  30.515  44.370   1.270
64157W        W36417   6.828   6.320  11.022
64158W        W36418  41.402  21.223  14.840
64159W        W36419   8.749  12.162  14.944
64160W        W36420   4.291  10.774  11.557
64161W        W36421  41.441  15.152   0.872
64162W        W36422  43.514  18.284   1.332
64163W        W36423  19.176   2.958   1.368
64164W        W36424  24.006  41.943  13.793
64165W        W36425  42.321  33.078  13.438
64166W        W36426   6.694   7.898  12.543
64167W        W36427  38.374  27.496   1.776
64168W        W36428   1.448  34.542  13.527
64169W        W36429  12.170   2.404   3.207
64170W        W36430  40.450   6.889   2.291
64171W        W36431   5.835  32.391  10.407
64172W        W36432  36.401  44.834  12.067
64173W        W36433  10.842   0.799  11.413
64174W        W36434  40.007  11.330   2.877
64175W        W36435  28.458  40.981   1.270
64176W        W36436   5.900   5.327   1.365
64177W        W36437   4.268  24.039   1.394
64178W        W36438  39.894  40.326   0.819
64179W        W36439  42.028   6.760  14.017
64180W        W36440   1.426   7.180   1.325
64181W        W36441  19.648  19.245  12.082
64182W        W36442  42.025   3.762   2.316
64183W        W36443   6.323   1.329  10.008
64184W        W36444  30.485  41.308   3.216
64185W        W36445  36.940  25.656   2.834
64186W        W36446  26.175  22.703  10.523
64187W        W36447   6.842  22.612  12.447
64188W        W36448  43.804  34.039  11.950
64189W        W36449  22.707   4.896  12.963
64190W        W36450   9.268  41.514  13.450
64191W        W36451  39.980  35.068  10.575
64192W        W36452  10.282  44.798  11.995
64193W        W36453   5.302   4.393  10.509
64194W        W36454   2.436   9.819   4.324
64195W        W36455  38.965  14.163  12.492
64196W        W36456  20.108  31.078  10.634
64197W        W36457  39.987   7.856  14.828
64198W        W36458  44.975  38.507   0.798
64199W        W36459  11.776  34.027   3.703
64200W        W36460   6.227   4.863  12.856
64201W        W36461  19.194  26.074   2.727
64202W        W36462  18.603  26.529  11.088
64203W        W36463  16.744  22.107   3.788
64204W        W36464   9.848  21.526   0.830
64205W        W36465  18.237  34.011  12.885
64206W        W36466   6.248  31.127   1.884
64207W        W36467  14.330  39.387  11.928
64208W        W36468  29.469  11.355  10.431
64209W        W36469  27.518   0.366  11.864
64210W        W36470   2.387   6.820   1.814
64211W        W36471  18.233  19.606  13.895
64212W        W36472  22.577  31.907   4.190
64213W        W36473  26.025  20.759  10.997
64214W        W36474  11.789  35.041  12.982
64215W        W36475  44.288  37.581  13.860
64216W        W36476  16.695  16.775  11.129
64217W        W36477  33.022  10.683   2.682
64218W        W36478  30.430  43.981  14.978
64219W        W36479  20.690   2.818  14.369
64220W        W36480  37.897  28.677  12.490
64221W        W36481  40.914  12.306  12.501
64222W        W36482  12.340  16.228   4.764
64223W        W36483  16.261   6.347   0.462
64224W        W36484   4.809  22.615  12.511
64225W        W36485   0.822   2.923   1.363
64226W        W36486  36.550  27.065  12.990
64227W        W36487  24.116  34.030  13.431
64228W        W36488  15.320  13.150  14.939
64229W        W36489  14.169   3.421   4.773
64230W        W36490   6.307  42.789   1.432
64231W        W36491  26.104  22.154  13.951
64232W        W36492  44.838  38.435   0.409
64233W        W36493  11.636   5.266   2.736
64234W        W36494   5.717   7.259  13.792
64235W        W36495  36.538  20.671   4.296
64236W        W36496  37.404  30.504  14.484
64237W        W36497  29.995  35.095   0.279
64238W        W36498  22.630  43.014  14.422
64239W        W36499   3.745   2.375   2.197
64240W        W36500  33.468  20.549   2.285
64241W        W36501   4.253  29.640   2.319
64242W        W36502  28.080  41.498  10.972
64243W        W36503  27.980  39.322   3.228
64244W        W36504   5.308  40.331  13.353
64245W        W36505  12.208  11.190   3.250
64246W        W36506  10.155  12.688   4.838
64247W        W36507  41.954  31.524   3.242
64248W        W36508  31.144  24.498  12.499
64249W        W36509  21.711  40.799   2.222
64250W        W36510  24.708  37.867   2.837
64251W        W36511  19.594  17.746   1.401
64252W        W36512  22.613  31.563   3.811
64253W        W36513  27.561  25.147  14.978
64254W        W36514  30.591   0.475  14.797
64255W        W36515  24.657   6.274  11.093
64256W        W36516  17.253  16.137   2.743
64257W        W36517  42.929   0.453   1.221
64258W        W36518   1.412  43.966  14.977
64259W        W36519   3.310  13.239  12.462
64260W        W36520  44.420  38.892  14.433
64261W        W36521  23.110  27.660  11.994
64262W        W36522  41.851  10.840  14.958
64263W        W36523  18.614  44.770   0.927
64264W        W36524  44.902  41.917  12.390
64265W        W36525  27.035  22.714  11.076
64266W        W36526  25.170   5.933   2.206
64267W        W36527  37.422  44.841   1.249
64268W        W36528  39.442   6.916  14.844
64269W        W36529   0.270  13.298  12.959
64270W        W36530  12.732  37.559   2.194
64271W        W36531  23.601  36.542  12.356
64272W        W36532  15.303  10.239   4.825
64273W        W36533  18.730  21.186  10.468
64274W        W36534  37.934  33.128   1.846
64275W        W36535  30.587  14.264   3.209
64276W        W36536   1.263  18.649  11.106
64277W        W36537   4.443  25.028   0.260
64278W        W36538   7.905  19.116  10.513
64279W        W36539  19.588  30.526   9.928
64280W        W36540  44.827  30.025  11.593
64281W        W36541   1.851  22.029   1.275
64282W        W36542  36.369   3.779  13.015
64283W        W36543  41.345   4.420  11.860
64284W        W36544  26.983  13.263  12.486
64285W        W36545  31.056  20.699  13.516
64286W        W36546  19.544  31.453  13.467
64287W        W36547  11.364  29.564   1.244
64288W        W36548  31.983  23.180  11.395
64289W        W36549   6.186  42.857  11.122
64290W        W36550  16.164  11.641  13.811
64291W        W36551  18.583  19.768  11.441
64292W        W36552  19.148  28.460  13.406
64293W        W36553  28.177   5.296   1.416
64294W        W36554  12.818  19.093  13.885
64295W        W36555   8.251   5.241  12.411
64296W        W36556  42.950  42.363  10.995
64297W        W36557  30.627   1.824  10.935
64298W        W36558  41.446   2.741  12.889
64299W        W36559  39.000  27.615   4.686
64300W        W36560  24.135  37.340   1.859
64301W        W36561  36.026  27.609  10.517
64302W        W36562  22.105   6.853  12.982
64303W        W36563  33.920  32.888   2.306
64304W        W36564   6.893  39.363  12.429
64305W        W36565  12.835  31.127  13.957
64306W        W36566  30.608   9.394   0.945
64307W        W36567   2.798  17.754  12.527
64308W        W36568  39.491   1.829  11.406
64309W        W36569  36.394  21.031   2.244
64310W        W36570   7.892  22.025  14.483
64311W        W36571  12.360  20.196  13.044
64312W        W36572   0.316  25.987  13.422
64313W        W36573  30.059  16.207  13.939
64314W        W36574  11.290  37.845   1.294
64315W        W36575  18.700  43.408   4.740
64316W        W36576  16.748  25.189   1.273
64317W        W36577  38.408  35.514   2.804
64318W        W36578  37.367  30.589  13.421
64319W        W36579  18.654   4.378  12.847
64320W        W36580  38.476   3.278   3.179
64321W        W36581  22.573  25.083  14.894
64322W        W36582  11.307  29.064   2.740
64323W        W36583  37.566  10.337  11.947
64324W        W36584  35.526  32.901  12.539
64325W        W36585  36.939   9.212   4.299
64326W        W36586  30.658  21.541  12.355
64327W        W36587  41.413  14.241  14.316
64328W        W36588  43.478  29.085  14.805
64329W        W36589  41.312  31.408   3.334
64330W        W36590   3.829  43.307   1.777
64331W        W36591   6.770  35.382  14.396
64332W        W36592  14.122   3.411  14.915
64333W        W36593  10.820  42.967  14.416
64334W        W36594  22.189   3.218  13.910
64335W        W36595   7.784  33.437   1.810
64336W        W36596  40.827  19.748   1.366
64337W        W36597  23.611  13.732   1.304
64338W        W36598   2.393  26.168  13.903
64339W        W36599  39.879  40.524   1.889
64340W        W36600  39.022  16.688  14.982
64341W        W36601  37.977   0.789  10.498
64342W        W36602  23.643  28.540   1.402
64343W        W36603  13.147  28.478   1.762
64344W        W36604  40.532   7.867   5.162
64345W        W36605   9.660   2.411  11.921
64346W        W36606  25.682  31.943  14.280
64347W        W36607  18.557  22.559   1.248
64348W        W36608  38.030  37.953   2.867
64349W        W36609  37.007  17.613   3.344
64350W        W36610   5.898  18.246   3.281
64351W        W36611   1.909   9.389   4.271
64352W        W36612  29.623   7.248   5.148
64353W        W36613  19.122  40.813   3.158
64354W        W36614  38.504  37.986   2.277
64355W        W36615  28.512  29.041  11.590
64356W        W36616  26.160   3.318   0.321
64357W        W36617  41.031  37.350   4.782
64358W        W36618  40.982  41.470  10.434
64359W        W36619  36.032  44.430  13.477
64360W        W36620  11.756  32.396   0.426
64361W        W36621  18.554  18.077  14.838
64362W        W36622   0.424  41.018  11.452
64363W        W36623  40.391  15.589  10.640
64364W        W36624  27.581  19.589   2.248
64365W        W36625   7.316  25.177  13.005
64366W        W36626  10.768   6.346  14.792
64367W        W36627  35.948  30.523   0.950
64368W        W36628   9.750  29.072   3.742
64369W        W36629  22.537  41.034   2.212
64370W        W36630  16.301  35.934  13.943
64371W        W36631   7.693  29.105  14.292
64372W        W36632  17.798  15.608  13.307
64373W        W36633   5.326  43.447   3.190
64374W        W36634  26.205  28.500   2.706
64375W        W36635  42.968  32.560  10.454
64376W        W36636  34.498  34.572  11.431
64377W        W36637  34.494  32.959  13.968
64378W        W36638  10.729  23.006   2.662
64379W        W36639  35.454  44.407   3.735
64380W        W36640  16.641  19.128  13.957
64381W        W36641  19.547  43.803   1.334
64382W        W36642  16.180   6.314   0.766
64383W        W36643  37.519  14.632  12.892
64384W        W36644   8.190  37.947   4.284
64385W        W36645  14.644  18.622   2.763
64386W        W36646   4.231  10.862   2.746
64387W        W36647   3.893   3.799  14.309
64388W        W36648   0.864  41.360   2.787
64389W        W36649  43.008  27.564  14.337
64390W        W36650  32.398   8.769  12.514
64391W        W36651  30.598   0.780  12.545
64392W        W36652   7.242  28.048   0.799
64393W        W36653  16.706  23.984  10.568
64394W        W36654   3.890   9.170  14.290
64395W        W36655  40.915   1.339  12.577
64396W        W36656  33.102  12.233  13.956
64397W        W36657  24.023  22.673  11.985
64398W        W36658  34.480  28.983   0.806
64399W        W36659   8.889  23.079   0.924
64400W        W36660  36.497  38.930  11.086
64401W        W36661  36.009  36.067   2.376
64402W        W36662  14.749   4.245  14.397
64403W        W36663  20.551  10.759   2.864
64404W        W36664  12.752   8.258  12.493
64405W        W36665  41.411  38.555  10.499
64406W        W36666  12.837   5.744   1.844
64407W        W36667  22.680  34.025  14.944
64408W        W36668  16.772  11.286   0.393
64409W        W36669   1.370  36.521  12.094
64410W        W36670  14.259  36.873  10.946
64411W        W36671  33.875  31.083   3.348
64412W        W36672  41.889  33.557  12.879
64413W        W36673  13.127  17.685   3.351
64414W        W36674  35.966  15.256   1.698
64415W        W36675   7.872  21.159   4.811
64416W        W36676   7.860  28.645  13.968
64417W        W36677  38.394  17.149   0.278
64418W        W36678   4.818  36.985  14.895
64419W        W36679  16.125  18.160   2.239
64420W        W36680  24.628  35.430  14.885
64421W        W36681  13.836  36.010   0.755
64422W        W36682  10.805  15.754   3.835
64423W        W36683  38.956  24.179   3.232
64424W        W36684  34.984   4.763   3.777
64425W        W36685  11.291  27.506  12.507
64426W        W36686  10.864   9.312  13.990
64427W        W36687  35.038  24.221   3.174
64428W        W36688  33.897  17.144   0.277
64429W        W36689  10.311  25.552   3.216
64430W        W36690  24.707  43.873  13.816
64431W        W36691   3.782  11.643   2.755
64432W        W36692  42.422  44.785  11.544
64433W        W36693   9.285  13.707  13.446
64434W        W36694   3.357   0.860   4.129
64435W        W36695  31.464  44.940   3.315
64436W        W36696  42.987  27.619  11.989
64437W        W36697  11.638  33.988   4.154
64438W        W36698  16.253  27.121  14.933
64439W        W36699  26.584  21.529  12.062
64440W        W36700  21.682  11.309   2.692
64441W        W36701   2.423  32.958  14.794
64442W        W36702  21.536   9.696  13.429
64443W        W36703  38.022  35.532   1.431
64444W        W36704  23.616   7.771   3.773
64445W        W36705  36.506  42.422  13.949
64446W        W36706   3.281  11.682   0.287
64447W        W36707  31.448  10.163  11.412
64448W        W36708   7.814  28.569  13.321
64449W        W36709   3.731  25.662   1.837
64450W        W36710  20.712  27.506  11.398
64451W        W36711  35.520  25.102  11.905
64452W        W36712  33.027  32.498  11.383
64453W        W36713  21.627  13.147   1.389
64454W        W36714   7.888  39.918   4.124
64455W        W36715  40.407   8.773  10.075
64456W        W36716  23.987  19.065   1.825
64457W        W36717  15.653   5.239   2.390
64458W        W36718  27.685   9.317   2.689
64459W        W36719  15.618  28.572  14.399
64460W        W36720  33.547  27.076   0.921
64461W        W36721   7.790   0.923  11.109
64462W        W36722  19.053  32.977   0.906
64463W        W36723   0.466  38.925  11.387
64464W        W36724  13.109  23.643  12.576
64465W        W36725   9.818  39.825  13.792
64466W        W36726   4.732  36.853   1.287
64467W        W36727  36.359   5.711   0.381
64468W        W36728  14.628  42.961   3.658
64469W        W36729  37.874  15.638  14.385
64470W        W36730  14.206   4.285   1.753
64471W        W36731  21.206  40.898   1.804
64472W        W36732  42.354   4.763   2.222
64473W        W36733  20.697  10.833  14.841
64474W        W36734  23.011  21.565   3.367
64475W        W36735   2.723  27.945   2.808
64476W        W36736   4.253   0.815   4.165
64477W        W36737  29.087   0.875   2.242
64478W        W36738  12.819  34.986  14.420
64479W        W36739  12.836  26.039  14.428
64480W        W36740   9.732  13.115  12.024
64481W        W36741  17.304  27.653  14.871
64482W        W36742  30.493  17.262   1.724
64483W        W36743  20.676  32.551   0.826
64484W        W36744  36.936   2.731  10.470
64485W        W36745   1.925  21.152   4.687
64486W        W36746  42.804  19.609  14.310
64487W        W36747  23.237  21.578  10.607
64488W        W36748  25.098  30.076   2.744
64489W        W36749   3.399  21.206   3.153
64490W        W36750  22.700   8.844  13.978
64491W        W36751  30.646  27.506   2.790
64492W        W36752  18.277  19.566   1.718
64493W        W36753  34.112  27.061   0.835
64494W        W36754   4.914  33.899  14.766
64495W        W36755  30.644  37.948   4.270
64496W        W36756  22.644  15.737  14.280
64497W        W36757  24.192  40.991  14.888
64498W        W36758  35.017  17.599   3.273
64499W        W36759   7.193   5.931   3.280
64500W        W36760  17.071  10.197   1.310
64501W        W36761  14.167  26.646   9.930
64502W        W36762   8.357  10.269  10.643
64503W        W36763  20.729  25.021   1.406
64504W        W36764  36.415  26.607  10.462
64505W        W36765  26.151  11.278   1.304
64506W        W36766  38.445  14.818  10.948
64507W        W36767  20.198  36.516   3.781
64508W        W36768   2.795  11.233  10.515
64509W        W36769  35.386  12.265  13.872
64510W        W36770  20.185  25.975   3.378
64511W        W36771  20.177  41.466  13.016
64512W        W36772  43.804  39.808   3.746
64513W        W36773  13.237  35.883  14.452
64514W        W36774  39.014  11.693  10.462
64515W        W36775  18.086   5.870   5.176
64516W        W36776   6.368  24.516  10.541
64517W        W36777   7.870   9.665  10.904
64518W        W36778   4.725  23.083   3.757
64519W        W36779  26.056  15.200   3.276
64520W        W36780  16.746  34.112   1.831
64521W        W36781  21.756   2.727  12.831
64522W        W36782  18.588  36.553   2.230
64523W        W36783  26.546  33.898  11.016
64524W        W36784  10.856  29.575   0.328
64525W        W36785  29.477  39.036  14.933
64526W        W36786  41.491  44.395  11.107
64527W        W36787   4.449  25.016   3.749
64528W        W36788   0.756  13.756   1.759
64529W        W36789  11.714  42.973   3.222
64530W        W36790   1.313   9.355  13.486
64531W        W36791  37.521  38.860   1.385
64532W        W36792   0.277  29.028   3.152
64533W        W36793  37.372  19.649  11.005
64534W        W36794  12.291  31.495  13.420
64535W        W36795  37.433  42.490  14.323
64536W        W36796   2.836   5.720  10.903
64537W        W36797  17.289  11.255  11.945
64538W        W36798  28.986  29.622  10.455
64539W        W36799  36.429  16.113  12.088
64540W        W36800  33.087   2.781   3.732
64541W        W36801  15.267  27.477  14.952
64542W        W36802   3.738  23.599   3.774
64543W        W36803   7.716  11.232   4.718
64544W        W36804  38.394  38.955   4.680
64545W        W36805  24.136  43.998  12.470
64546W        W36806  15.177   2.309   4.719
64547W        W36807  36.357  15.667  13.895
64548W        W36808  33.061  17.703  13.453
64549W        W36809  12.625  36.575  14.894
64550W        W36810  29.098  33.560  12.531
64551W        W36811   2.795  16.634   0.923
64552W        W36812  19.642  39.880   0.382
64553W        W36813  24.974  31.120   4.283
64554W        W36814  33.034  14.641  11.444
64555W        W36815   4.820  36.352  14.822
64556W        W36816  35.455   6.330  14.762
64557W        W36817  34.943   0.939  11.452
64558W        W36818  33.021  41.328  12.979
64559W        W36819  11.220   3.401   2.388
64560W        W36820   6.285  23.721  10.913
64561W        W36821  11.179  41.320  14.897
64562W        W36822  35.408  28.057  10.538
64563W        W36823  33.620  30.048   1.263
64564W        W36824  25.995  43.864  13.984
64565W        W36825  32.015  12.821   3.217
64566W        W36826   4.758  17.261   4.781
64567W        W36827  27.034  11.306   3.303
64568W        W36828  33.900  38.437  10.934
64569W        W36829  17.142  12.239  11.423
64570W        W36830  20.120   0.910  14.289
64571W        W36831  13.278   6.847   2.859
64572W        W36832  42.861  23.112  13.855
64573W        W36833  13.325  17.119  11.897
64574W        W36834  36.479  38.946  10.556
64575W        W36835  13.254  41.885   1.730
64576W        W36836   4.895  19.685   9.948
64577W        W36837  16.784  26.034  11.902
64578W        W36838  25.617  20.076  12.862
64579W        W36839  38.875  20.101  14.409
64580W        W36840  11.752  37.414   0.277
64581W        W36841  36.903  43.870   2.673
64582W        W36842  19.675  28.127   1.259
64583W        W36843  23.600   5.839   1.884
64584W        W36844  40.041  21.671   3.320
64585W        W36845  10.378   1.819   0.382
64586W        W36846  25.002  25.137  14.378
64587W        W36847  36.089  18.271   1.396
64588W        W36848  17.099  29.032  13.817
64589W        W36849  18.744  31.642   3.660
64590W        W36850  24.540  15.747   3.702
64591W        W36851  16.101  22.252  14.942
64592W        W36852  26.464  31.944   2.326
64593W        W36853  34.090  32.987  14.810
64594W        W36854   8.748  40.467  11.094
64595W        W36855   1.422  31.901  12.910
64596W        W36856  35.361  22.101   1.856
64597W        W36857  18.632  22.064   1.814
64598W        W36858  22.611  19.076  11.467
64599W        W36859  31.051  26.666   1.273
64600W        W36860  22.535  16.774  10.523
64601W        W36861  15.321  37.057  11.063
64602W        W36862  37.406  15.129   0.447
64603W        W36863   1.259  42.523   3.364
64604W        W36864  34.546  19.071  14.378
64605W        W36865  43.776  39.557   2.299
64606W        W36866  24.600  38.330  12.047
64607W        W36867  17.629  35.572  14.773
64608W        W36868   7.333  28.005   2.796
64609W        W36869  36.009  25.111  13.337
64610W        W36870  24.566  33.563   1.760
64611W        W36871  39.337  37.085   4.763
64612W        W36872  26.101   4.870  12.028
64613W        W36873   3.930  12.683  12.088
64614W        W36874  13.237  21.639  12.075
64615W        W36875   5.925  40.443  13.042
64616W        W36876   8.794  40.975   4.131
64617W        W36877  38.878  13.806  11.570
64618W        W36878  36.395  20.528   5.675
64619W        W36879  13.127  26.476   1.393
64620W        W36880  34.047  32.015  14.819
64621W        W36881  14.115  23.133  14.807
64622W        W36882   4.784  17.680  11.925
64623W        W36883  36.876  33.128   0.771
64624W        W36884  29.618  21.189   4.676
64625W        W36885   2.364  41.357   3.300
64626W        W36886  13.154  39.827   2.743
64627W        W36887   7.280  42.994   3.329
64628W        W36888   8.781  21.204   5.173
64629W        W36889   8.358  42.286   1.404
64630W        W36890  10.805  39.057   2.789
64631W        W36891   8.760   5.240  12.937
64632W        W36892  18.281   4.817   4.272
64633W        W36893  34.507  30.531  12.074
64634W        W36894  29.100   9.236   2.306
64635W        W36895   6.757  44.259   1.253
64636W        W36896  21.533   6.759  11.586
64637W        W36897  16.618  29.463   2.210
64638W        W36898  29.927  17.154  14.311
64639W        W36899  44.860   8.180  10.595
64640W        W36900   5.732   0.898  13.480
64641W        W36901  16.289   1.916   3.717
64642W        W36902   9.192  39.824  11.079
64643W        W36903  16.261  40.031   4.804
64644W        W36904  17.066   8.850   0.937
64645W        W36905   3.917  11.812  13.845
64646W        W36906   3.840  33.473  13.533
64647W        W36907  15.741  13.657   2.822
64648W        W36908  11.742  31.505  13.448
64649W        W36909   9.202  15.801   4.736
64650W        W36910  31.105  11.356   1.795
64651W        W36911  20.208   6.837   0.269
64652W        W36912  27.065  35.920   1.334
64653W        W36913  34.882  16.793   1.380
64654W        W36914   3.865  39.480  11.967
64655W        W36915  22.144  16.697  12.394
64656W        W36916  29.544  44.899   2.232
64657W        W36917   6.830   7.307  12.527
64658W        W36918  16.789  43.971  13.907
64659W        W36919  43.360  36.948   2.786
64660W        W36920  12.191  30.954   4.645
64661W        W36921  32.451  43.948  14.479
64662W        W36922   0.479  37.444   1.698
64663W        W36923  32.101  25.506   3.718
64664W        W36924  19.230  25.679  11.869
64665W        W36925  34.402  41.303   0.840
64666W        W36926  21.591   4.745   0.387
64667W        W36927  15.169  29.935   5.714
64668W        W36928  23.989  28.540  12.520
64669W        W36929  10.146  26.692  13.379
64670W        W36930  31.585   6.388  13.819
64671W        W36931  32.593  30.509  11.111
64672W        W36932   5.888  30.138  11.999
64673W        W36933  43.964  23.049   3.824
64674W        W36934  23.070  35.903   0.824
64675W        W36935  20.678  24.189  14.934
64676W        W36936  29.535  15.742   2.351
64677W        W36937   9.785  38.075   1.930
64678W        W36938  40.014  44.856  13.466
64679W        W36939  11.867  25.202   9.961
64680W        W36940  15.808  23.160  10.534
64681W        W36941  14.097  32.014   4.317
64682W        W36942   5.695   8.755   0.910
64683W        W36943   3.278  35.594   3.279
64684W        W36944  20.629  13.779   4.800
64685W        W36945  32.050  26.472  14.292
64686W        W36946  20.242  40.366  10.583
64687W        W36947  40.466   0.478  10.941
64688W        W36948  43.939  41.997   2.198
64689W        W36949  43.417   8.720  14.795
64690W        W36950  26.995  15.632  13.459
64691W        W36951  28.658  37.949   4.166
64692W        W36952  24.033   4.234  10.534
64693W        W36953  31.148   6.419  10.571
64694W        W36954   8.677  38.987  14.941
64695W        W36955   8.342   6.290  11.943
64696W        W36956  16.301   0.980  14.369
64697W        W36957  18.754   3.371  11.911
64698W        W36958   8.206   7.335   3.821
64699W        W36959  12.690  27.007  12.093
64700W        W36960  44.821  31.025   2.788
64701W        W36961   1.810  23.640  10.907
64702W        W36962  14.206   8.322  11.492
64703W        W36963  37.484  29.641   2.279
64704W        W36964  13.200  26.494   0.407
64705W        W36965   8.808  24.215  10.947
64706W        W36966  12.662   4.763   0.808
64707W        W36967  25.216  35.551  12.061
64708W        W36968  11.622  43.299  14.942
64709W        W36969  31.144  32.002   1.309
64710W        W36970  37.437  29.668  13.327
64711W        W36971   5.829   6.253  11.492
64712W        W36972  23.157  25.617  12.382
64713W        W36973  12.294  43.880  10.619
64714W        W36974  30.564  25.148  13.342
64715W        W36975  22.138   2.303  14.432
64716W        W36976   5.778  35.372  10.571
64717W        W36977   7.796  39.828  11.102
64718W        W36978  44.286  23.726   5.234
64719W        W36979  44.327  32.052   4.793
64720W        W36980   9.304   0.932  10.921
64721W        W36981  18.265   4.352  11.460
64722W        W36982   4.308   3.915  12.412
64723W        W36983   9.814  27.195  10.910
64724W        W36984   7.722  17.653   3.713
64725W        W36985  19.270  31.480  14.396
64726W        W36986  19.607  37.013  11.083
64727W        W36987  42.914  22.729   3.308
64728W        W36988  11.318  24.691   0.383
64729W        W36989  29.123  42.816   0.759
64730W        W36990  28.476  15.301  13.028
64731W        W36991   5.848   1.436  11.027
64732W        W36992  27.069   7.290   4.273
64733W        W36993   6.875  41.917  13.048
64734W        W36994  13.727   8.306   3.727
64735W        W36995  31.149  15.642  11.010
64736W        W36996  21.045  44.873  10.489
64737W        W36997  13.777  33.488  10.933
64738W        W36998   1.758  26.167   2.820
64739W        W36999  28.463  39.822   3.201
64740W        W37000  31.615   4.333   1.791
64741W        W37001  16.737   5.199   2.705
64742W        W37002  44.428  11.829   2.761
64743W        W37003  25.633   6.294  10.958
64744W        W37004  20.172  40.419   4.633
64745W        W37005  44.400  31.565   4.221
64746W        W37006  29.956  13.710   3.705
64747W        W37007  22.702   6.309   2.760
64748W        W37008  17.652  11.685   4.192
64749W        W37009  34.386  15.219   0.748
64750W        W37010  24.117   1.474   3.711
64751W        W37011  35.543   1.416   1.717
64752W        W37012   0.824  37.443   0.328
64753W        W37013  39.954  24.193  11.951
64754W        W37014  30.536  26.461   3.250
64755W        W37015  23.564  31.096   3.283
64756W        W37016   2.933  24.613   2.803
64757W        W37017   1.456  29.495  10.902
64758W        W37018  20.690   0.859   1.874
64759W        W37019  25.039  11.782  13.378
64760W        W37020  17.218  11.700   2.750
64761W        W37021  12.307  18.057   0.267
64762W        W37022   6.313  38.834  13.430
64763W        W37023   7.266  25.215  10.959
64764W        W37024   4.405  31.463   4.267
64765W        W37025  15.250  17.210  10.150
64766W        W37026  17.109  20.754  13.460
64767W        W37027   9.769  30.145   4.342
64768W        W37028  10.740  31.536   1.404
64769W        W37029  41.475  10.295   1.365
64770W        W37030  31.110  37.546  14.501
64771W        W37031  42.328  10.810  13.430
64772W        W37032  33.127  18.641  11.117
64773W        W37033  36.493  15.225   0.339
64774W        W37034  43.775  11.702  14.020
64775W        W37035  25.184  21.661  11.941
64776W        W37036   1.733   3.953   3.151
64777W        W37037  32.964  12.240  11.410
64778W        W37038   5.413   4.209  11.046
64779W        W37039  41.827  33.130  11.382
64780W        W37040  21.061  10.733   3.689
64781W        W37041   5.903  18.641  13.970
64782W        W37042  16.114   8.395  10.565
64783W        W37043  29.454   2.290  11.126
64784W        W37044  19.732  33.028  14.881
64785W        W37045  35.423  22.171  11.027
64786W        W37046  11.243  18.720  14.839
64787W        W37047  31.980   6.224  13.368
64788W        W37048  13.309   5.417  12.095
64789W        W37049  39.995  15.196  11.114
64790W        W37050  40.002  26.581   1.832
64791W        W37051   7.892  42.454  14.869
64792W        W37052  24.000  37.928  13.995
64793W        W37053  39.547  36.570   2.835
64794W        W37054  23.988  13.190  12.869
64795W        W37055  10.699  29.078   1.778
64796W        W37056  15.667   1.834  14.994
64797W        W37057  31.943  39.370  14.293
64798W        W37058  21.521   2.852  12.523
64799W        W37059   3.770  43.811  12.067
64800W        W37060  30.089  33.044  12.077
64801W        W37061   3.346  31.927  14.305
64802W        W37062   0.811  13.833  11.914
64803W        W37063   1.962   4.448  13.531
64804W        W37064   2.905   7.668   4.310
64805W        W37065   9.681  17.139   4.217
64806W        W37066  37.573  15.218   4.669
64807W        W37067  36.037  17.080  14.412
64808W        W37068  43.868  13.186   1.864
64809W        W37069  42.828  25.664  11.528
64810W        W37070  25.969  32.447  14.021
64811W        W37071  20.530  42.803  14.788
64812W        W37072  22.711  24.183   3.362
64813W        W37073  14.738   7.257  13.432
64814W        W37074  41.425  28.972   3.784
64815W        W37075  15.579  20.709  11.963
64816W        W37076  35.046  34.520  10.532
64817W        W37077  32.133  44.807  11.455
64818W        W37078  37.981  40.303  10.453
64819W        W37079   0.898  30.418  11.898
64820W        W37080   4.386  19.550  13.492
64821W        W37081  25.968   1.917   3.689
64822W        W37082   1.385  36.041  13.362
64823W        W37083  43.383  42.935   4.810
64824W        W37084  24.046  13.323   3.788
64825W        W37085  42.019  29.496  11.592
64826W        W37086  13.830  32.590  13.967
64827W        W37087  32.522  11.661  10.410
64828W        W37088   6.328   5.737   3.844
64829W        W37089  14.331  38.442  13.862
64830W        W37090  29.029   1.785  10.931
64831W        W37091  21.625   0.331  13.313
64832W        W37092  21.720  24.491  10.605
64833W        W37093   5.368  32.065  13.997
64834W        W37094  20.241  18.554  13.935
64835W        W37095  16.119  42.867   0.830
64836W        W37096  11.239  39.457   1.821
64837W        W37097  25.209  11.760  13.903
64838W        W37098  18.719  41.520  13.048
64839W        W37099  30.576   2.954  13.996
64840W        W37100  35.043  19.076   0.967
64841W        W37101  34.082  30.589  10.440
64842W        W37102  40.500  35.485   2.265
64843W        W37103  18.146   5.843   4.619
64844W        W37104   8.160  16.647  14.334
64845W        W37105  44.427  36.372  14.795
64846W        W37106   2.828  24.155  11.516
64847W        W37107  10.155  41.966  12.561
64848W        W37108  40.927  16.117  11.541
64849W        W37109   7.748  29.669  12.406
64850W        W37110   8.197  23.058  10.493
64851W        W37111  35.574  32.517  14.497
64852W        W37112  41.845  42.784  14.436
64853W        W37113  11.865  28.610   4.753
64854W        W37114  14.778   7.840   2.743
64855W        W37115  20.078  16.158  11.479
64856W        W37116  34.571  26.538   0.287
64857W        W37117  20.185  38.042  14.021
64858W        W37118   4.898   5.256   4.658
64859W        W37119  31.555  19.777  11.015
64860W        W37120  20.064   3.842   1.780
64861W        W37121  28.941  23.671   2.409
64862W        W37122  39.895  23.148  14.480
64863W        W37123  15.607  38.562  11.087
64864W        W37124  20.106  17.764  14.015
64865W        W37125  24.136  36.521   0.946
64866W        W37126  42.955  40.836  12.457
64867W        W37127  25.703  29.437   4.800
64868W        W37128  24.718  22.061   0.447
64869W        W37129   5.219  14.264   3.156
64870W        W37130  16.808   4.903   1.327
64871W        W37131  14.159  26.647   0.914
64872W        W37132   2.844   5.909  12.393
64873W        W37133  38.560   9.328  10.138
64874W        W37134  12.295  40.994  14.796
64875W        W37135  42.346  18.182   1.907
64876W        W37136  38.926  23.128   3.662
64877W        W37137   6.350  18.631   1.286
64878W        W37138  40.885   4.419   2.225
64879W        W37139  14.234  15.592   1.283
64880W        W37140  30.143  26.153  14.444
64881W        W37141  41.300  31.048   0.900
64882W        W37142  38.571  21.568   1.822
64883W        W37143  31.899  40.524   5.165
64884W        W37144  35.060   9.774   4.263
64885W        W37145  44.456  31.468  13.046
64886W        W37146  42.879  29.478   0.819
64887W        W37147   2.352  17.635   4.718
64888W        W37148  42.997  39.842  10.554
64889W        W37149  18.545  37.871   2.785
64890W        W37150  42.818  21.172   1.894
64891W        W37151  15.116  42.303  13.040
64892W        W37152  26.050  29.105   1.837
64893W        W37153  21.202  36.495   0.874
64894W        W37154  26.997  33.124   4.234
64895W        W37155  16.586   2.380   0.939
64896W        W37156  22.054  14.244  11.498
64897W        W37157  33.950  43.380   3.346
64898W        W37158   8.838  28.505   2.704
64899W        W37159  17.184   7.834   4.826
64900W        W37160  15.774   1.773  13.316
64901W        W37161   7.324  25.973   2.410
64902W        W37162  31.579   9.317  12.564
64903W        W37163  25.114  39.933  14.986
64904W        W37164  22.706  44.754   4.715
64905W        W37165  14.676  19.541  13.503
64906W        W37166  20.031  22.533   1.300
64907W        W37167  29.963   5.860  12.978
64908W        W37168  36.094   7.338   2.227
64909W        W37169  26.542  40.541   2.408
64910W        W37170  23.235  21.192  11.079
64911W        W37171  16.576  43.511   4.641
64912W        W37172  30.505  13.810  14.309
64913W        W37173   3.855  34.612  13.477
64914W        W37174  10.322   4.781  12.451
64915W        W37175  20.759  27.943  11.081
64916W        W37176  40.376  10.771   0.757
64917W        W37177  43.020  30.936  12.469
64918W        W37178  21.151   7.906  12.080
64919W        W37179  19.559  13.194   3.831
64920W        W37180   0.248  21.683  12.386
64921W        W37181   9.815  31.432   0.267
64922W        W37182   1.831  38.951  12.885
64923W        W37183  12.343  34.966  12.856
64924W        W37184  44.494  24.534  11.607
64925W        W37185  16.664   9.202   4.127
64926W        W37186  33.480  21.725   1.448
64927W        W37187  44.490   8.724   5.177
64928W        W37188  29.534  30.116  12.910
64929W        W37189   8.351  36.910   1.353
64930W        W37190  24.161  25.613  13.523
64931W        W37191  10.255  25.565  12.352
64932W        W37192  11.298  24.083   0.382
64933W        W37193  30.991  37.015   1.834
64934W        W37194  31.079  42.024   1.829
64935W        W37195  37.982  16.582   4.714
64936W        W37196  30.018  17.151   1.923
64937W        W37197   5.752  23.647   3.810
64938W        W37198   4.422  35.944  12.376
64939W        W37199   3.308  43.494  11.462
64940W        W37200  13.165  24.103  13.840
64941W        W37201   6.698  38.075   0.885
64942W        W37202  18.130   3.796  13.547
64943W        W37203  36.971  39.539   4.631
64944W        W37204   3.368  30.545  13.349
64945W        W37205  17.089  38.565   1.757
64946W        W37206   6.253  26.961  12.009
64947W        W37207  13.730  42.428  11.900
64948W        W37208  26.567  43.346   4.701
64949W        W37209   1.944  41.327   1.237
64950W        W37210   4.878  21.742   4.258
64951W        W37211  13.846  28.933  13.435
64952W        W37212   6.921  21.118  12.480
64953W        W37213  38.976  25.032  10.148
64954W        W37214  22.099  28.511   1.779
64955W        W37215  17.122  19.668   0.282
64956W        W37216  21.241  27.144  10.953
64957W        W37217  18.274   2.758  12.474
64958W        W37218  42.011  13.690  12.421
64959W        W37219  41.852   6.830  13.472
64960W        W37220  24.112   1.339   4.251
64961W        W37221  27.017  44.447  12.092
64962W        W37222  28.662  18.083   1.379
64963W        W37223   5.408  28.470  14.950
64964W        W37224  35.053  33.043  10.578
64965W        W37225   3.395  27.595   1.247
64966W        W37226  16.248  27.529  11.550
64967W        W37227   9.669  36.878   0.469
64968W        W37228  16.255   8.771   2.272
64969W        W37229  43.324  14.728  11.375
64970W        W37230   0.809  35.075  13.484
64971W        W37231   7.791  25.603  14.963
64972W        W37232  43.858   8.716  12.963
64973W        W37233  20.760   8.834   1.755
64974W        W37234   4.816  24.555   2.377
64975W        W37235   9.191   6.181  13.468
64976W        W37236  27.137  38.959   0.777
64977W        W37237  15.252  14.605  10.632
64978W        W37238  24.692  14.813   2.788
64979W        W37239  30.459   0.249  13.856
64980W        W37240  16.193  37.972  14.336
64981W        W37241   7.387  30.412   0.922
64982W        W37242  13.139  25.141   3.762
64983W        W37243  41.935  42.901   3.660
64984W        W37244  42.301  12.762  12.459
64985W        W37245   1.839  16.581  12.984
64986W        W37246  18.177  28.044   0.777
64987W        W37247   1.363   5.795  10.991
64988W        W37248   7.682   7.338   0.483
64989W        W37249  38.397  40.012   2.274
64990W        W37250  14.693  39.469   4.182
64991W        W37251  34.578   8.842   5.151
64992W        W37252  28.982  18.108  10.594
64993W        W37253   2.415  32.581   4.266
64994W        W37254  38.367  40.420  14.378
64995W        W37255  39.482  19.779  14.808
64996W        W37256  32.510   1.931   2.820
64997W        W37257  33.609  12.838  12.069
64998W        W37258  42.819  44.302  12.950
64999W        W37259   2.271  10.162  10.479
65000W        W37260  18.711  35.382   2.278
65001W        W37261  31.098   5.352  14.338
65002W        W37262  29.173  23.529  12.842
65003W        W37263  39.545  19.615   0.737
65004W        W37264  19.570  29.466   0.455
65005W        W37265  21.101  44.916  13.892
65006W        W37266  26.669  37.521  11.579
65007W        W37267  30.952  41.952   3.232
65008W        W37268  34.015   2.258  14.764
65009W        W37269  16.285  29.598   4.734
65010W        W37270  27.131  41.009   9.926
65011W        W37271  31.587   5.694   1.761
65012W        W37272  32.451  26.007   0.395
65013W        W37273   2.415   5.873  11.394
65014W        W37274  38.992   9.644  10.108
65015W        W37275  41.464  29.426  12.910
65016W        W37276  19.170  13.283   3.213
65017W        W37277  27.688  13.283  11.983
65018W        W37278  19.197  37.461   5.145
65019W        W37279   1.772  35.902  11.441
65020W        W37280  39.988  35.482   2.277
65021W        W37281  21.516  29.999  11.564
65022W        W37282  40.482  42.417  12.453
65023W        W37283   2.742  18.212  11.462
65024W        W37284  33.587  18.136   4.680
65025W        W37285   9.321  21.695   0.439
65026W        W37286  19.637  14.803   2.370
65027W        W37287   6.707  40.346   3.230
65028W        W37288  15.169  10.830   1.316
65029W        W37289  17.765  29.644  11.958
65030W        W37290  39.349  28.150   1.274
65031W        W37291  18.728  26.621  10.080
65032W        W37292  38.369  42.311  14.986
65033W        W37293  34.909  32.943   2.803
65034W        W37294  23.682  10.298   0.277
65035W        W37295  39.032  29.660   0.954
65036W        W37296  12.256  26.142  14.975
65037W        W37297  38.484  31.145   2.370
65038W        W37298  43.329   1.240  11.969
65039W        W37299  38.941  27.954   0.432
65040W        W37300  38.355   5.310   4.208
65041W        W37301  39.525  28.177  14.344
65042W        W37302  22.641  41.516   0.768
65043W        W37303   7.223   6.393   3.147
65044W        W37304   7.332   3.452   1.257
65045W        W37305  42.381   7.902   0.857
65046W        W37306  28.182  34.921  14.308
65047W        W37307   1.318  24.627  11.114
65048W        W37308  12.829  14.213   0.874
65049W        W37309  44.782  14.807   4.331
65050W        W37310   2.843  33.422  13.419
65051W        W37311  16.293  15.737   4.703
65052W        W37312  12.813  33.477  10.615
65053W        W37313  38.449  14.127  14.839
65054W        W37314  23.720  43.287   0.294
65055W        W37315  39.413  33.418   1.786
65056W        W37316  23.230   8.222   4.190
65057W        W37317  29.433  37.898  11.399
65058W        W37318  32.607  37.080  12.874
65059W        W37319  18.667  20.063  14.886
65060W        W37320  22.620  29.026  12.092
65061W        W37321  23.006  34.918   1.264
65062W        W37322   7.331  27.083  11.592
65063W        W37323   6.859   4.717   3.868
65064W        W37324   4.885  34.610   1.770
65065W        W37325   4.872   4.266  12.060
65066W        W37326   8.897  19.191  14.764
65067W        W37327   3.789  31.550   4.246
65068W        W37328  16.148  10.157  14.930
65069W        W37329   7.214  24.022  12.444
65070W        W37330  34.071  32.095  14.495
65071W        W37331  24.104  34.980   4.252
65072W        W37332  44.295  36.507  11.897
65073W        W37333  29.520   9.317  11.012
65074W        W37334   6.888   9.674   4.687
65075W        W37335  14.672  32.592  12.945
65076W        W37336  30.502  13.822  10.523
65077W        W37337   4.916  34.092   4.243
65078W        W37338   5.852  41.501  14.788
65079W        W37339   5.249  30.580   2.852
65080W        W37340  41.007  23.655  13.823
65081W        W37341  18.155   8.767   0.907
65082W        W37342  41.431  42.817   2.743
65083W        W37343   7.675  35.966   4.312
65084W        W37344  44.854   4.929  12.494
65085W        W37345  44.992  15.602   0.372
65086W        W37346   3.226   1.755  11.422
65087W        W37347  34.867  20.200   0.344
65088W        W37348  21.514  21.547   3.249
65089W        W37349  40.916  19.054  12.068
65090W        W37350  38.476   1.450  12.534
65091W        W37351  23.053  33.399  14.910
65092W        W37352   8.388  38.935  11.015
65093W        W37353   5.305  38.989   3.794
65094W        W37354  21.614   4.396  10.920
65095W        W37355   7.399  23.183  14.880
65096W        W37356  13.226   6.681  10.412
65097W        W37357  25.628  38.391   4.300
65098W        W37358  31.626  13.757  12.914
65099W        W37359   9.339  15.582   3.313
65100W        W37360   4.412  25.622  14.812
65101W        W37361  42.837  21.146  12.823
65102W        W37362  15.143   9.360   1.446
65103W        W37363  10.697  35.101  13.823
65104W        W37364  14.609  24.717   2.410
65105W        W37365  24.588  39.023   2.708
65106W        W37366   3.782  10.806  13.935
65107W        W37367  28.501  30.467  13.416
65108W        W37368  30.657  15.274   1.227
65109W        W37369   6.704   0.911  11.919
65110W        W37370   1.749  32.012  13.860
65111W        W37371  15.203  18.705  12.984
65112W        W37372  23.028  16.315  14.833
65113W        W37373  35.035  31.083  13.877
65114W        W37374  37.527  34.466  11.406
65115W        W37375  29.451  44.788   0.748
65116W        W37376  33.617  20.073   4.314
65117W        W37377   6.770  34.996  14.289
65118W        W37378  19.571  40.320   1.440
65119W        W37379  42.419  36.952   3.843
65120W        W37380  20.702  28.176   3.168
65121W        W37381  26.660  21.195  12.087
65122W        W37382   6.272  31.554   1.706
65123W        W37383  36.870   2.296   0.405
65124W        W37384  41.937  29.467   3.683
65125W        W37385  17.580  36.052   0.329
65126W        W37386  30.140   0.945  11.038
65127W        W37387  27.459  40.918  13.008
65128W        W37388  44.954   3.259   5.166
65129W        W37389  44.272   3.709   1.848
65130W        W37390  10.735  35.098  11.071
65131W        W37391  21.043   9.854  11.512
65132W        W37392  17.166   4.431  13.848
65133W        W37393  17.786   8.173   3.322
65134W        W37394  36.483   0.296   0.399
65135W        W37395  40.519  27.519  10.948
65136W        W37396  13.341  35.897  10.079
65137W        W37397  16.186  10.265  12.973
65138W        W37398   8.242  16.131   1.224
65139W        W37399  10.680  38.484  11.993
65140W        W37400  44.308  44.875  11.562
65141W        W37401  31.937  39.857   0.477
65142W        W37402  13.674  31.575   3.177
65143W        W37403  40.033  39.899   3.356
65144W        W37404  21.687  19.197   0.872
65145W        W37405  38.024   6.791   2.812
65146W        W37406  25.545  21.709  14.971
65147W        W37407  14.757   7.744   0.966
65148W        W37408  31.494  41.399  12.887
65149W        W37409   1.393  35.427   2.299
65150W        W37410  16.633   0.744  11.594
65151W        W37411  32.995  31.927   1.295
65152W        W37412  30.585  11.690   1.734
65153W        W37413  27.035  18.739   4.205
65154W        W37414   8.891  26.644   5.318
65155W        W37415   3.717  22.222  12.403
65156W        W37416  13.811   4.851   4.264
65157W        W37417  20.186  10.763   0.803
65158W        W37418   6.841  24.591  14.909
65159W        W37419   8.843  14.261   3.301
65160W        W37420  19.109   3.954  10.893
65161W        W37421  19.192   7.255  11.460
65162W        W37422  37.036  38.981  13.511
65163W        W37423   8.829  40.988  13.308
65164W        W37424  23.085  17.286  10.421
65165W        W37425  17.769  25.131  14.879
65166W        W37426  14.330  43.891   0.835
65167W        W37427   9.830   5.323   1.845
65168W        W37428  20.533  32.532  13.968
65169W        W37429  26.606  38.863   0.311
65170W        W37430  23.514  10.208  14.371
65171W        W37431  28.060  16.141  14.790
65172W        W37432  43.419  32.558  13.797
65173W        W37433  29.132  17.203   3.646
65174W        W37434  25.175  27.502  14.440
65175W        W37435  19.609  21.125   1.793
65176W        W37436  33.473   5.868   5.103
65177W        W37437  29.545  33.064  13.308
65178W        W37438  14.192  27.981  11.992
65179W        W37439  18.667   4.225   3.778
65180W        W37440  17.190  26.699   2.794
65181W        W37441  25.512   9.717   3.644
65182W        W37442  22.747  32.390   4.337
65183W        W37443  22.059  30.160   0.764
65184W        W37444   8.267  35.987  11.479
65185W        W37445  12.203  31.484   2.763
65186W        W37446  28.100  11.179  11.930
65187W        W37447  37.359  20.620  12.929
65188W        W37448  32.899  31.524   1.220
65189W        W37449  43.778  38.012  14.904
65190W        W37450   7.711  25.584  10.545
65191W        W37451  39.556   4.398   1.757
65192W        W37452  26.621   8.664   9.955
65193W        W37453  22.666  40.430   0.784
65194W        W37454  32.020   7.771   0.255
65195W        W37455  29.052  18.720  13.052
65196W        W37456  12.717  30.989   2.379
65197W        W37457  20.237   8.275   1.211
65198W        W37458  16.220  26.559   1.339
65199W        W37459   1.245   3.932  10.452
65200W        W37460  34.566  40.916  12.929
65201W        W37461   9.319  21.074  14.373
65202W        W37462   3.415  28.085   0.299
65203W        W37463  39.556   0.433  11.473
65204W        W37464  39.551   8.692  13.475
65205W        W37465  29.430  28.669  12.016
65206W        W37466  19.281   3.435   4.775
65207W        W37467  39.380  12.706   5.235
65208W        W37468  26.001  29.084   2.755
65209W        W37469  19.713  42.456   4.217
65210W        W37470  39.903  11.361   3.699
65211W        W37471  37.503  38.058  13.546
65212W        W37472  13.235  21.685  12.564
65213W        W37473  35.008  16.230   2.333
65214W        W37474   2.917  35.037  12.405
65215W        W37475  36.538   0.877  11.017
65216W        W37476   4.224   5.439   3.314
65217W        W37477  13.204  20.248   0.434
65218W        W37478  28.114  14.623   4.324
65219W        W37479  14.191  21.553   2.893
65220W        W37480  18.053  24.709   4.262
65221W        W37481  13.614   0.484  13.809
65222W        W37482  29.599  36.552   4.307
65223W        W37483  33.548  43.993   3.324
65224W        W37484  19.620  18.067  11.429
65225W        W37485   7.360  30.587   1.796
65226W        W37486  40.417   7.260  13.405
65227W        W37487  23.603   4.888   4.186
65228W        W37488  37.484  18.574  13.842
65229W        W37489   4.770  24.206  14.386
65230W        W37490   1.803   1.412   0.400
65231W        W37491   2.244   6.226   5.278
65232W        W37492  16.684  30.111   4.817
65233W        W37493   9.707  15.638  10.484
65234W        W37494  38.495  19.054   0.482
65235W        W37495  38.462  16.227   0.462
65236W        W37496  14.666  43.898   2.308
65237W        W37497  21.662  44.344   0.347
65238W        W37498  22.157  18.090   3.304
65239W        W37499  14.292  42.836  11.061
65240W        W37500   7.854  36.545  13.040
65241W        W37501  26.087  13.795  13.870
65242W        W37502  33.028   6.746  12.916
65243W        W37503  40.940  22.584  14.924
65244W        W37504   8.367  41.486   0.470
65245W        W37505  24.030  21.233  14.398
65246W        W37506  31.411  33.022  13.467
65247W        W37507  29.073  32.955   2.406
65248W        W37508  29.981  10.727  10.464
65249W        W37509  39.898  19.688   0.379
65250W        W37510   3.325  40.441  14.913
65251W        W37511   7.297  41.919  14.880
65252W        W37512  24.638  17.666  11.469
65253W        W37513   2.778  43.316   4.133
65254W        W37514  34.063  17.108   1.342
65255W        W37515   7.763   7.315  14.328
65256W        W37516  28.047  21.260   3.709
65257W        W37517  19.285  33.109  13.052
65258W        W37518  41.428  28.663  10.970
65259W        W37519  42.023  30.063   3.276
65260W        W37520  27.638  44.505  13.834
65261W        W37521  27.534   5.734  11.466
65262W        W37522  14.144  44.802   2.247
65263W        W37523  29.146  22.159  10.565
65264W        W37524  35.368  29.608  13.061
65265W        W37525  35.924  22.623   2.240
65266W        W37526  11.347  23.517   3.854
65267W        W37527  24.601  44.338   2.195
65268W        W37528  10.697  21.203  13.959
65269W        W37529  44.819   9.653  13.825
65270W        W37530  30.021  25.482   4.756
65271W        W37531  39.356  20.676   3.149
65272W        W37532   0.291  10.849   4.670
65273W        W37533  27.666  40.965   9.579
65274W        W37534  20.531  28.166  12.991
65275W        W37535   1.404  16.649   3.781
65276W        W37536  24.038  32.419  14.327
65277W        W37537  23.143  22.096   0.391
65278W        W37538  30.487  29.573  13.953
65279W        W37539  13.119  35.411   4.672
65280W        W37540  25.470  23.995   0.785
65281W        W37541  17.242  29.066  14.502
65282W        W37542   9.206  35.085  11.571
65283W        W37543  40.811  34.461   0.927
65284W        W37544  33.098  30.954  12.942
65285W        W37545  41.830   0.952   1.801
65286W        W37546   0.961  36.358   1.726
65287W        W37547  35.362   5.424  11.560
65288W        W37548   5.837  20.569  14.277
65289W        W37549  10.224  40.878  13.052
65290W        W37550  27.185  11.319  14.028
65291W        W37551  14.787  29.489  11.488
65292W        W37552   2.472   6.370  13.422
65293W        W37553  33.027  42.339  14.481
65294W        W37554   3.279  32.999  11.542
65295W        W37555  11.737  41.912   0.272
65296W        W37556  42.466   3.810  13.908
65297W        W37557  31.902  44.362  14.022
65298W        W37558   9.811  24.501  11.461
65299W        W37559  15.613   0.786  12.926
65300W        W37560   7.175  35.485  14.284
65301W        W37561   7.365  16.201  14.769
65302W        W37562  43.846  25.965   2.746
65303W        W37563  41.950   4.341  12.070
65304W        W37564  23.595  27.068  13.912
65305W        W37565  23.194  37.030  13.546
65306W        W37566  23.239   0.410  10.472
65307W        W37567  23.239  25.636   2.213
65308W        W37568  22.645  41.948   4.644
65309W        W37569   1.898  32.567  13.051
65310W        W37570   6.756  13.645   1.396
65311W        W37571   3.779   0.271   3.176
65312W        W37572  29.538   7.681  14.282
65313W        W37573  40.911  37.460  14.023
65314W        W37574  33.067   8.228   3.831
65315W        W37575  16.670  31.006   2.667
65316W        W37576  26.657  32.919   1.238
65317W        W37577  43.333  17.766  13.326
65318W        W37578  29.157   7.331   1.296
65319W        W37579  27.947  23.159   0.777
65320W        W37580  16.316  33.385   1.421
65321W        W37581   9.820  18.592  11.907
65322W        W37582  17.273   1.826  12.873
65323W        W37583  39.320   9.245   2.692
65324W        W37584   2.277   9.282   1.329
65325W        W37585  24.034  28.505  10.128
65326W        W37586  40.494   2.835  13.905
65327W        W37587   2.417  33.621  10.111
65328W        W37588  24.029  35.562   1.712
65329W        W37589  27.114  16.121  11.919
65330W        W37590  25.482  41.449   1.376
65331W        W37591  13.292  35.107   4.143
65332W        W37592  32.098  16.224   3.810
65333W        W37593  25.196   5.238  14.500
65334W        W37594  43.285  32.629   1.771
65335W        W37595  22.577   9.272  14.880
65336W        W37596  15.194   1.732   3.653
65337W        W37597  28.961  19.137   1.918
65338W        W37598  26.659  28.055  14.436
65339W        W37599  32.034  36.519   4.227
65340W        W37600   4.245  34.501   2.863
65341W        W37601  44.300   2.444  13.057
65342W        W37602  25.570  21.531   4.252
65343W        W37603  33.073  31.042   4.604
65344W        W37604  37.370  16.775   1.290
65345W        W37605  13.815  10.140  14.456
65346W        W37606  33.535  43.883   4.138
65347W        W37607   1.898   2.236  14.805
65348W        W37608   1.971  20.614  10.946
65349W        W37609  44.790  13.298  14.498
65350W        W37610  35.384  23.736  14.015
65351W        W37611  40.425  17.766   2.329
65352W        W37612   2.437  27.162   2.691
65353W        W37613  23.639  29.045  13.384
65354W        W37614  28.609  15.313  11.055
65355W        W37615  39.883   8.874   1.406
65356W        W37616   8.207  31.566   1.878
65357W        W37617   8.874  15.310  14.905
65358W        W37618  37.909  43.281   4.295
65359W        W37619  27.497  43.319  10.632
65360W        W37620  29.662  14.614   4.344
65361W        W37621  14.719   0.360   2.715
65362W        W37622  41.358  36.038  14.461
65363W        W37623   4.351  40.930   0.252
65364W        W37624  35.597  41.361  14.028
65365W        W37625  18.550  20.128  13.815
65366W        W37626  40.938  21.533  11.411
65367W        W37627  37.078   5.873  12.531
65368W        W37628   7.368   5.326   2.341
65369W        W37629  40.939  34.427  11.443
65370W        W37630   5.879  24.617  11.571
65371W        W37631  35.049  13.657  13.521
65372W        W37632  10.865  37.540  10.441
65373W        W37633  15.618  17.090   1.284
65374W        W37634  10.702  36.521  11.541
65375W        W37635  35.550   2.791  12.956
65376W        W37636  38.376  13.692   4.310
65377W        W37637  33.580   1.470  11.050
65378W        W37638  31.910   4.306  14.993
65379W        W37639  44.919   1.902   3.233
65380W        W37640   0.361  43.873   4.264
65381W        W37641  15.640   0.763   2.382
65382W        W37642   5.399  11.354   2.278
65383W        W37643  42.951  26.963   4.743
65384W        W37644  38.827  42.308  10.947
65385W        W37645  11.728   4.944  12.496
65386W        W37646  28.020  34.044   3.763
65387W        W37647  34.025  38.532  14.968
65388W        W37648  38.009  39.833   2.685
65389W        W37649  19.583  34.615  14.972
65390W        W37650  24.982  33.402  14.453
65391W        W37651  27.124  29.927   3.229
65392W        W37652  38.842  34.985  13.996
65393W        W37653  24.214  40.908   5.274
65394W        W37654  43.930  27.095   2.281
65395W        W37655  36.034  33.961  11.574
65396W        W37656  21.017  32.572   4.702
65397W        W37657  38.887  32.941   0.270
65398W        W37658  34.490   0.955   1.375
65399W        W37659  31.427  13.293   0.389
65400W        W37660   0.399   3.392  14.876
65401W        W37661  12.313   2.351  12.076
65402W        W37662   5.378  44.000   2.405
65403W        W37663  18.684  20.052   4.809
65404W        W37664  11.130  42.488  13.037
65405W        W37665  23.073  24.176   3.173
65406W        W37666   0.350   0.903  14.911
65407W        W37667  27.614  38.385   0.268
65408W        W37668  12.780  11.753   0.874
65409W        W37669   7.811   5.862  12.509
65410W        W37670  32.028  44.393   0.775
65411W        W37671   4.776  11.834  11.978
65412W        W37672   4.895  38.390   1.333
65413W        W37673  26.005  16.700   3.184
65414W        W37674   6.684  28.556   2.407
65415W        W37675  35.892  42.834  12.468
65416W        W37676   6.915  11.687  11.016
65417W        W37677  30.013  22.573  12.916
65418W        W37678  24.725  41.301  10.889
65419W        W37679  26.686  25.023   0.851
65420W        W37680   0.769  18.050  10.030
65421W        W37681  16.716  41.472  12.844
65422W        W37682   2.299   9.799   2.206
65423W        W37683  14.749  33.527   1.782
65424W        W37684  13.794   1.926   4.263
65425W        W37685  27.179  36.415  11.037
65426W        W37686  34.522  24.100  10.583
65427W        W37687  34.108   9.682  12.980
65428W        W37688  18.167  29.143  14.494
65429W        W37689  29.604  18.207   2.759
65430W        W37690  14.724  41.009  14.392
65431W        W37691   9.818  10.692   2.239
65432W        W37692  26.970  37.849  12.378
65433W        W37693   8.379  19.203  11.892
65434W        W37694  28.545  19.192  11.085
65435W        W37695  27.541  39.958  14.362
65436W        W37696  19.116  32.027  11.859
65437W        W37697   9.306  15.814  12.846
65438W        W37698  11.321  15.797   1.774
65439W        W37699  17.600  43.496   3.812
65440W        W37700   2.308  39.824   0.905
65441W        W37701  25.075  18.611  10.470
65442W        W37702  18.098  30.954  10.950
65443W        W37703  20.233   2.866   3.835
65444W        W37704  22.039  22.053  13.008
65445W        W37705  44.756   2.744  14.485
65446W        W37706  41.870  29.029  12.860
65447W        W37707  13.692   6.903   4.821
65448W        W37708  18.758  14.190   0.455
65449W        W37709   0.840  27.671   3.177
65450W        W37710  12.232  27.083   1.298
65451W        W37711   7.180  39.495  12.022
65452W        W37712  36.535  38.013   1.337
65453W        W37713   7.898  29.610   3.678
65454W        W37714  25.558   9.341   3.646
65455W        W37715  21.115  30.644   0.385
65456W        W37716  34.548  15.755   1.754
65457W        W37717  12.244  40.972   0.811
65458W        W37718  19.141   5.742  10.480
65459W        W37719  42.326  40.978  12.063
65460W        W37720  35.589  43.280   4.754
65461W        W37721  20.666  16.573  12.953
65462W        W37722  40.508   3.822   1.775
65463W        W37723  23.234   9.247   2.828
65464W        W37724  35.578  20.728   0.741
65465W        W37725  24.111  41.327  10.055
65466W        W37726   2.786   8.781   4.720
65467W        W37727  18.234  21.199  12.881
65468W        W37728  42.909   8.214   2.662
65469W        W37729   7.771  13.786   0.415
65470W        W37730  28.636   4.309   2.806
65471W        W37731   0.435   3.441   4.340
65472W        W37732  27.041  12.793   0.961
65473W        W37733  39.924  14.779   1.732
65474W        W37734  28.488  40.325   3.273
65475W        W37735  44.263  14.820   0.743
65476W        W37736  14.771  40.956   3.206
65477W        W37737  16.259  44.804   1.356
65478W        W37738  19.237   7.748  11.502
65479W        W37739   8.844  29.959  13.793
65480W        W37740   6.803  15.193   1.731
65481W        W37741  44.449   0.784  12.936
65482W        W37742  36.401   2.287  14.377
65483W        W37743  10.843  34.100  13.899
65484W        W37744  18.780  10.349  11.869
65485W        W37745  27.447  19.272  11.078
65486W        W37746  12.719  41.396   3.859
65487W        W37747  43.333  26.521   5.134
65488W        W37748   9.194  35.386  13.981
65489W        W37749  40.390  44.428   3.199
65490W        W37750  10.338  11.718  13.424
65491W        W37751  39.406  16.688  13.030
65492W        W37752   7.416  31.623  12.517
65493W        W37753  23.565   1.285   3.343
65494W        W37754  11.830   4.863   1.725
65495W        W37755  10.273  17.746   2.308
65496W        W37756  24.105  26.671  10.912
65497W        W37757   5.439  20.648   1.769
65498W        W37758   5.904  43.893   4.679
65499W        W37759  18.162  40.907  14.971
65500W        W37760  34.396  34.452   2.302
65501W        W37761  25.138  21.103   4.246
65502W        W37762  44.429  30.031  13.026
65503W        W37763  16.805   4.267  11.872
65504W        W37764  22.149  25.179  12.988
65505W        W37765   8.319  43.276  14.396
65506W        W37766  22.644  11.745  11.978
65507W        W37767  32.922  31.923  13.809
65508W        W37768  34.570   6.219  11.120
65509W        W37769  31.632  39.322   1.930
65510W        W37770  28.167   6.697   2.364
65511W        W37771  37.410   9.359   3.630
65512W        W37772  33.951  34.593   4.782
65513W        W37773  25.069  33.080   2.366
65514W        W37774  40.471   2.366   0.338
65515W        W37775   5.269   8.388   4.769
65516W        W37776   6.216  32.526   4.331
65517W        W37777   4.375  42.924   3.150
65518W        W37778  21.207   8.277  14.495
65519W        W37779  30.435   6.321   4.617
65520W        W37780  11.221   2.295  14.491
65521W        W37781   9.769  20.559   0.942
65522W        W37782  27.490   2.242   0.950
65523W        W37783  17.073  11.708  12.035
65524W        W37784  21.148   5.218   1.898
65525W        W37785   6.402  35.014   2.785
65526W        W37786   8.354  13.349   3.339
65527W        W37787   8.861  43.971   3.262
65528W        W37788   7.209  34.388  13.985
65529W        W37789  16.206  23.202   0.733
65530W        W37790  22.213  20.712  11.024
65531W        W37791   9.646  16.786  13.849
65532W        W37792   3.338  43.886   0.830
65533W        W37793  17.185  44.877   2.287
65534W        W37794  15.781  32.534  10.508
65535W        W37795  34.060   1.917   0.890
65536W        W37796   8.830  14.263  14.981
65537W        W37797  33.450   1.309   1.875
65538W        W37798  13.827  14.325  14.786
65539W        W37799  27.985   8.254  13.031
65540W        W37800  19.123  44.300   2.303
65541W        W37801  25.575  19.215   1.873
65542W        W37802  13.287  41.858  12.043
65543W        W37803  13.257  21.604   0.799
65544W        W37804   0.279  44.940   2.683
65545W        W37805   7.695  27.952   9.458
65546W        W37806  31.082   0.301  10.629
65547W        W37807  22.592   8.352  12.988
65548W        W37808  27.522  26.641  13.316
65549W        W37809  19.586  12.835   0.890
65550W        W37810  10.654  44.770   0.912
65551W        W37811  21.132  43.801  12.514
65552W        W37812  29.084  23.001  13.944
65553W        W37813  43.326  29.551  11.374
65554W        W37814  40.323  41.412   0.421
65555W        W37815  24.213   0.304   0.728
65556W        W37816  31.451   4.910  14.449
65557W        W37817  32.968  10.662  12.984
65558W        W37818   0.886  19.209   0.336
65559W        W37819  34.057   3.229  10.964
65560W        W37820  42.294  37.016   1.313
65561W        W37821   0.830   6.704  14.510
65562W        W37822  39.965  25.001  13.511
65563W        W37823  44.988  23.561  11.962
65564W        W37824  38.912  28.672  11.504
65565W        W37825  33.385  39.877  13.959
65566W        W37826  30.091  17.775  13.001
65567W        W37827  15.292  24.619  13.967
65568W        W37828  30.501  21.544  13.337
65569W        W37829  27.104  44.808  14.322
65570W        W37830  11.694  10.268   5.232
65571W        W37831  18.628  19.253   4.242
65572W        W37832   2.246  24.128  14.784
65573W        W37833   6.305  21.579   4.719
65574W        W37834   6.241  42.391  11.384
65575W        W37835  33.123  44.448   2.707
65576W        W37836  20.266  42.861   1.821
65577W        W37837  21.671  22.224   1.248
65578W        W37838  21.137  42.466  13.506
65579W        W37839   5.750   2.403   4.297
65580W        W37840  30.929  40.376  13.866
65581W        W37841   3.427  38.459   2.379
65582W        W37842  41.427  40.986   3.764
65583W        W37843  36.068   1.844   3.655
65584W        W37844  26.640  34.566   1.275
65585W        W37845   0.259  12.674   3.752
65586W        W37846  13.631  34.580   2.391
65587W        W37847   4.831  42.387   0.482
65588W        W37848  27.065  27.149  14.290
65589W        W37849  19.685  39.850   4.136
65590W        W37850  35.383  42.009   0.950
65591W        W37851  19.709  23.197  13.322
65592W        W37852  39.858  29.982  13.796
65593W        W37853   2.348  42.861   3.328
65594W        W37854  13.202  42.336   2.785
65595W        W37855  43.509   4.419   2.364
65596W        W37856  38.906  20.158   5.090
65597W        W37857   6.919  13.612   4.254
65598W        W37858  44.877  35.601   3.674
65599W        W37859  17.298  35.498  11.449
65600W        W37860  11.175  43.791  11.894
65601W        W37861  36.346  32.028  11.567
65602W        W37862  40.853  38.940  14.881
65603W        W37863  10.836  33.387  13.051
65604W        W37864  33.513  37.487   9.924
65605W        W37865   5.252  25.546   9.546
65606W        W37866   1.364  20.606   2.188
65607W        W37867   6.293  15.736  10.603
65608W        W37868  25.189  41.985  11.602
65609W        W37869   2.461  25.042  13.483
65610W        W37870  32.413  41.930   2.670
65611W        W37871  33.003   0.795  11.921
65612W        W37872  11.671   7.255   1.296
65613W        W37873   7.702   4.891   4.303
65614W        W37874  22.628  29.457  11.087
65615W        W37875   2.322   2.241  11.126
65616W        W37876  10.859  38.049   4.312
65617W        W37877  37.560  43.888   2.295
65618W        W37878   7.816  36.509  11.493
65619W        W37879  44.477  14.330   3.766
65620W        W37880  23.091  22.238  10.556
65621W        W37881  25.596  44.791  13.011
65622W        W37882  40.444  36.061  11.928
65623W        W37883  23.228  22.590  14.004
65624W        W37884  13.167  23.001   4.290
65625W        W37885  35.490  18.652  10.461
65626W        W37886  28.002  19.644   2.821
65627W        W37887  23.547  25.080  14.315
65628W        W37888  42.973   1.884   1.281
65629W        W37889  20.611  16.605  14.329
65630W        W37890   2.244  29.943  12.410
65631W        W37891   4.920  40.546   1.728
65632W        W37892  16.655  37.500  11.925
65633W        W37893  40.954  36.537   3.218
65634W        W37894  31.483  18.606   2.413
65635W        W37895  14.824  18.685  13.036
65636W        W37896   8.279  40.538  11.477
65637W        W37897  17.211   1.270  10.025
65638W        W37898   4.338  40.027   0.812
65639W        W37899  31.130  40.447   0.843
65640W        W37900  33.957   9.691   0.439
65641W        W37901  26.692  10.719   1.269
65642W        W37902  44.503  34.996   1.410
65643W        W37903  31.596  41.495  13.460
65644W        W37904  11.309  21.091  11.015
65645W        W37905   7.789  31.959  12.058
65646W        W37906  33.118   4.794  11.875
65647W        W37907  24.714  40.797   0.796
65648W        W37908  43.018   8.877  10.410
65649W        W37909   3.820  29.598  13.432
65650W        W37910  39.813  15.183   2.308
65651W        W37911  33.578  25.096  12.922
65652W        W37912  36.928  21.063  10.636
65653W        W37913  23.997  20.119   4.656
65654W        W37914  40.837  31.023  14.950
65655W        W37915   1.873  14.669   4.670
65656W        W37916  39.839  27.581   2.766
65657W        W37917   2.834  37.992   2.901
65658W        W37918  26.121  19.274  14.015
65659W        W37919  40.803   0.984  12.857
65660W        W37920   8.672   6.782  13.856
65661W        W37921  28.497  27.104   3.259
65662W        W37922  20.750  18.250   4.305
65663W        W37923  29.104  20.534  14.393
65664W        W37924   4.395  37.938   1.884
65665W        W37925  18.730  38.907  11.067
65666W        W37926  29.514  22.552  11.608
65667W        W37927  35.405   3.224  11.123
65668W        W37928  26.584  42.902   1.873
65669W        W37929  40.334  36.067  11.572
65670W        W37930   7.778   3.900  13.415
65671W        W37931   3.284  18.578  12.352
65672W        W37932   2.956  39.471  14.499
65673W        W37933  37.011  18.579   3.787
65674W        W37934  36.474  33.509   3.859
65675W        W37935   5.837   9.758  12.563
65676W        W37936  29.125  42.304  13.987
65677W        W37937  28.068  19.167  13.355
65678W        W37938   3.421  34.097   0.316
65679W        W37939  28.634  26.698  11.444
65680W        W37940  23.726  35.082   1.750
65681W        W37941   5.307  35.429  12.924
65682W        W37942  24.101   4.762   1.418
65683W        W37943   3.917  23.655  10.984
65684W        W37944  19.245  17.064  11.394
65685W        W37945  21.701  18.230  13.499
65686W        W37946  23.237  14.188  10.951
65687W        W37947   6.386   0.884  10.960
65688W        W37948   1.747  24.028  10.556
65689W        W37949  15.254  11.195  14.897
65690W        W37950  38.545  19.653  11.946
65691W        W37951   3.896  39.962   4.772
65692W        W37952  20.634  39.043  13.791
65693W        W37953  33.522  15.189  13.854
65694W        W37954  29.087  29.603   4.271
65695W        W37955  25.159   6.767  14.516
65696W        W37956  14.329  22.738   2.259
65697W        W37957   3.318  44.480   2.769
65698W        W37958  43.460  41.533   1.448
65699W        W37959  38.964  28.055   5.256
65700W        W37960   8.171  37.831   0.408
65701W        W37961  28.478  35.365   0.772
65702W        W37962  38.857  21.228  11.602
65703W        W37963  27.983  40.966   1.305
65704W        W37964  35.430  34.047   3.862
65705W        W37965   3.773  21.106  14.947
65706W        W37966  27.986  16.267   2.308
65707W        W37967  22.019   8.327   2.851
65708W        W37968  27.949  44.864  14.466
65709W        W37969  42.792   1.412   2.821
65710W        W37970  12.166  42.431   1.296
65711W        W37971   7.242   9.375   3.657
65712W        W37972   8.825  41.891   1.270
65713W        W37973  27.448  32.580  12.915
65714W        W37974   4.757   4.873   5.117
65715W        W37975  35.889  35.390   4.829
65716W        W37976   0.818  43.791   0.290
65717W        W37977  28.602  30.435  10.525
65718W        W37978  27.647  36.932   3.380
65719W        W37979   7.877  30.021   3.191
65720W        W37980  27.098  18.290  13.497
65721W        W37981  20.533   8.211   1.775
65722W        W37982   0.336  38.919   4.625
65723W        W37983   5.778  21.213  13.532
65724W        W37984  14.173   0.827   3.186
65725W        W37985  18.059  37.983   0.437
65726W        W37986  33.067  31.143  13.491
65727W        W37987  31.106  35.909   4.713
65728W        W37988   1.374  17.250  14.468
65729W        W37989   7.765  31.039   4.743
65730W        W37990  16.804  14.291  10.084
65731W        W37991  26.207  24.719   0.284
65732W        W37992  13.658  38.846  11.050
65733W        W37993   4.747  16.110  13.467
65734W        W37994  28.046  12.819  12.048
65735W        W37995  35.552  33.488   4.117
65736W        W37996  36.984   4.919  10.139
65737W        W37997  27.673  18.287  14.470
65738W        W37998  28.996   9.663   4.782
65739W        W37999   3.912   6.758   0.395
65740W        W38000   9.304  11.172  13.848
65741W        W38001  24.004  11.671  12.461
65742W        W38002  13.610  33.090  10.475
65743W        W38003  33.055  31.409  12.962
65744W        W38004  28.507  19.234   1.919
65745W        W38005  31.079  15.820   0.735
65746W        W38006   9.206  25.577   4.135
65747W        W38007  17.590  14.295  10.517
65748W        W38008  17.642  44.868   0.794
65749W        W38009  41.838  20.719   1.741
65750W        W38010  43.428  13.675   4.230
65751W        W38011  39.945   3.737   3.792
65752W        W38012   1.254  36.867  11.086
65753W        W38013   2.360  43.832   3.646
65754W        W38014  25.577  17.573  14.338
65755W        W38015   6.788  11.807   1.279
65756W        W38016   4.311   9.756  13.884
65757W        W38017  24.139  10.384  14.899
65758W        W38018  13.793  37.982  10.893
65759W        W38019  34.613  39.029   4.287
65760W        W38020  32.590  30.019   3.370
65761W        W38021  10.372   1.816   4.251
65762W        W38022  29.553  12.256   3.799
65763W        W38023  23.585  19.122   9.981
65764W        W38024   5.875  40.342  13.528
65765W        W38025  10.210  36.965   1.897
65766W        W38026   6.783  20.680  13.832
65767W        W38027   7.865  19.241  11.903
65768W        W38028  16.291  36.886   1.381
65769W        W38029   0.461  30.151  11.611
65770W        W38030  17.577   4.377  12.474
65771W        W38031  44.394  32.905   1.863
65772W        W38032  29.129  33.459   0.763
65773W        W38033  13.131  41.384   0.304
65774W        W38034  27.191   6.315  11.875
65775W        W38035  27.054  22.152  11.587
65776W        W38036  26.695   3.381  14.453
65777W        W38037  39.512   3.928   1.753
65778W        W38038   3.870  17.642   4.182
65779W        W38039  15.749  10.336   3.196
65780W        W38040  27.452   3.440  12.909
65781W        W38041   7.344  29.516  13.395
65782W        W38042   7.845  17.712  11.575
65783W        W38043  10.723  25.059  10.509
65784W        W38044  39.454  23.588  12.036
65785W        W38045  24.982   0.363  12.446
65786W        W38046  11.261   3.412  10.508
65787W        W38047  33.009   4.321  13.385
65788W        W38048  14.720  37.926  13.457
65789W        W38049  44.482  27.553   4.673
65790W        W38050   6.398  34.017  11.483
65791W        W38051  39.329  12.288  12.437
65792W        W38052   9.738  17.671   3.155
65793W        W38053  22.602  32.496   0.933
65794W        W38054   9.274   7.355   2.713
65795W        W38055  24.662  35.555  12.450
65796W        W38056  27.565  25.203  11.872
65797W        W38057  43.928  36.415   1.362
65798W        W38058  11.210   3.829  13.350
65799W        W38059  33.046  37.570   2.336
65800W        W38060  17.280   2.347   2.372
65801W        W38061   8.179  22.215   2.339
65802W        W38062  15.691  37.928   4.273
65803W        W38063  42.423   9.712  11.921
65804W        W38064  20.032  23.716  14.414
65805W        W38065  20.628   8.712   2.230
65806W        W38066  33.901  42.307  14.461
65807W        W38067  29.436   3.292  12.557
65808W        W38068  12.213  42.868  12.002
65809W        W38069  19.185   1.351  12.580
65810W        W38070  42.304  22.079   4.156
65811W        W38071  37.475  24.978  14.907
65812W        W38072  21.639  39.855   4.306
65813W        W38073  14.114  21.731   4.644
65814W        W38074  12.283  28.991  12.448
65815W        W38075  43.481  35.425  11.455
65816W        W38076  32.401  15.269  12.511
65817W        W38077  19.679  41.459   3.208
65818W        W38078  37.532  37.347  12.997
65819W        W38079  35.524  25.536   3.366
65820W        W38080  11.787  13.190   1.356
65821W        W38081  41.035  24.192  11.509
65822W        W38082  12.200  25.530   1.312
65823W        W38083   0.462  44.390   3.325
65824W        W38084   6.901  38.872   4.226
65825W        W38085  40.966   3.356   0.803
65826W        W38086  12.241  31.930   0.245
65827W        W38087   4.305   2.451  12.850
65828W        W38088  40.369  35.104   0.907
65829W        W38089  29.606  20.125  11.568
65830W        W38090  44.294   4.411   2.858
65831W        W38091   2.790  15.185  12.848
65832W        W38092  29.473  40.382  13.840
65833W        W38093  39.877  33.024  13.822
65834W        W38094   2.901   1.427  12.021
65835W        W38095  18.063  26.533   4.669
65836W        W38096   0.907  38.924   1.758
65837W        W38097  13.805  22.251   3.728
65838W        W38098  34.936  34.055  14.447
65839W        W38099  25.091  23.150   4.186
65840W        W38100   8.230  23.157   1.899
65841W        W38101  22.233  24.038   4.726
65842W        W38102  44.801  12.181  14.385
65843W        W38103   3.884  28.542   1.314
65844W        W38104  42.306   6.216   4.303
65845W        W38105  37.971  42.835  11.062
65846W        W38106  32.107  31.146   2.869
65847W        W38107   3.409  31.943   1.759
65848W        W38108  41.531  24.045  11.566
65849W        W38109  20.654  21.554   1.229
65850W        W38110  32.113   6.391   1.366
65851W        W38111   0.317  37.050   1.398
65852W        W38112  10.143   9.258  12.898
65853W        W38113   9.654   8.174  13.794
65854W        W38114  21.054  24.143   2.261
65855W        W38115  36.471  43.480   0.296
65856W        W38116  29.607  40.870   3.164
65857W        W38117  39.983   6.387  12.535
65858W        W38118  41.930  39.446  10.579
65859W        W38119  44.330  20.142  10.917
65860W        W38120  33.385  34.553  11.114
65861W        W38121   2.835  17.615   0.394
65862W        W38122  29.931   0.344   2.410
65863W        W38123  38.438  29.055  12.342
65864W        W38124  44.441  10.219   1.743
65865W        W38125  30.652  32.496  11.380
65866W        W38126   0.295  24.634   2.388
65867W        W38127  18.591  35.394   1.840
65868W        W38128  15.716  41.950  14.932
65869W        W38129  12.852  12.660  11.608
65870W        W38130  14.230  42.333   2.753
65871W        W38131  38.342  40.851   3.836
65872W        W38132  25.552  43.827   2.697
65873W        W38133  37.355   9.373  11.504
65874W        W38134  14.702  27.144   3.761
65875W        W38135   1.479  35.426  14.383
65876W        W38136  26.528  22.009   4.649
65877W        W38137   3.384  11.189   3.697
65878W        W38138  15.647  37.558  11.075
65879W        W38139   3.824   1.811  13.422
65880W        W38140   8.205   0.985  10.891
65881W        W38141  24.635  39.037   1.720
65882W        W38142  36.555  27.490   3.155
65883W        W38143  42.966   6.782   2.288
65884W        W38144  21.652  14.733  12.476
65885W        W38145   7.374  10.309  14.307
65886W        W38146   4.241   1.452   3.365
65887W        W38147   7.749  20.659  12.880
65888W        W38148   8.369   0.395   0.949
65889W        W38149  10.842  27.470   3.269
65890W        W38150  42.856  17.707  10.891
65891W        W38151   7.872  30.545  11.923
65892W        W38152  32.530   1.384  12.078
65893W        W38153   9.261  33.951  13.866
65894W        W38154   9.371  20.584  11.409
65895W        W38155  26.185   8.206   4.146
65896W        W38156  35.862  19.555   1.408
65897W        W38157  25.186  17.138  11.900
65898W        W38158  30.020  24.047   4.699
65899W        W38159  20.553  24.197   4.686
65900W        W38160  35.878  29.452  11.028
65901W        W38161  10.258  36.498   0.850
65902W        W38162  21.082   5.410   4.630
65903W        W38163  32.127  23.126  13.425
65904W        W38164  17.102  11.200   0.291
65905W        W38165  34.533  33.941  10.452
65906W        W38166   2.257   5.374  13.547
65907W        W38167  10.765   4.342  11.902
65908W        W38168   4.840  28.631  10.413
65909W        W38169   9.797  17.114  12.354
65910W        W38170  30.483  32.026   2.841
65911W        W38171  35.096  32.535   3.219
65912W        W38172  38.338  27.623  14.001
65913W        W38173  15.742  32.996  12.997
65914W        W38174  30.625  32.509   1.900
65915W        W38175  28.596  30.105  11.997
65916W        W38176  39.034  10.371   2.705
65917W        W38177  13.269  16.097   0.746
65918W        W38178   5.311   2.934   1.737
65919W        W38179  26.966  17.167   2.415
65920W        W38180  34.611  44.483   3.849
65921W        W38181  13.112  41.809   3.356
65922W        W38182  30.044   8.196   2.417
65923W        W38183  35.417  17.153   2.852
65924W        W38184  24.712  22.038  10.412
65925W        W38185  17.776   5.871  11.413
65926W        W38186  26.659   1.457  14.387
65927W        W38187  28.480   7.257  11.406
65928W        W38188  44.376  16.259   1.844
65929W        W38189  37.983  36.890   4.658
65930W        W38190  29.432  40.397   5.287
65931W        W38191  41.891  31.113   2.764
65932W        W38192  25.645  43.413  10.939
65933W        W38193  31.442  34.002   3.227
65934W        W38194  27.195  32.558  12.388
65935W        W38195  19.575  34.449   0.774
65936W        W38196  36.561  14.833   1.296
65937W        W38197  10.723  33.024  14.418
65938W        W38198   2.323  31.935  13.434
65939W        W38199  35.504  35.361  10.904
65940W        W38200  28.492  30.416   0.394
65941W        W38201  32.558  22.573  11.036
65942W        W38202  18.098  17.692   3.264
65943W        W38203  31.061  20.179   2.803
65944W        W38204  25.992  22.714  12.393
65945W        W38205  38.566   2.365   4.115
65946W        W38206  28.179  22.010   0.829
65947W        W38207  17.597  21.091   0.471
65948W        W38208   4.721  14.726   0.914
65949W        W38209  23.718  23.047  14.967
65950W        W38210  26.620  42.869  13.869
65951W        W38211  25.471  10.383   3.851
65952W        W38212  41.896  20.158   1.797
65953W        W38213  29.089  26.687   2.263
65954W        W38214  18.715   9.836   4.779
65955W        W38215  38.373  17.708   4.646
65956W        W38216  27.089   3.429  12.556
65957W        W38217  18.616  16.721   3.822
65958W        W38218  36.470  29.935   0.285
65959W        W38219  10.211  17.697  13.964
65960W        W38220   9.830  42.883   3.259
65961W        W38221  35.064  37.983  14.898
65962W        W38222  25.543  22.514   3.815
65963W        W38223  43.994  10.259   2.775
65964W        W38224  44.262   5.884  10.550
65965W        W38225  44.415  19.658   5.293
65966W        W38226  40.915  10.728   0.408
65967W        W38227  22.732  42.815  11.936
65968W        W38228  29.612  43.444  12.882
65969W        W38229  11.222  26.119  14.899
65970W        W38230  27.670  23.221  14.345
65971W        W38231  42.447   8.671   2.854
65972W        W38232  33.915  12.733  10.433
65973W        W38233  14.309   1.481   3.300
65974W        W38234  43.999   2.908  11.939
65975W        W38235  27.664  27.142   2.743
65976W        W38236  23.658  41.318  13.799
65977W        W38237  25.518   7.183   1.314
65978W        W38238  39.063  44.318   0.866
65979W        W38239  22.170  40.039   2.189
65980W        W38240  21.564   7.228  13.339
65981W        W38241   0.392  29.918   4.201
65982W        W38242   7.310  21.201  13.006
65983W        W38243  31.977  30.629   3.350
65984W        W38244  36.552   4.217   1.717
65985W        W38245   3.869  14.290  11.994
65986W        W38246   2.870  28.171  14.359
65987W        W38247   4.797   3.363   0.810
65988W        W38248  11.242  19.691   3.307
65989W        W38249  36.855  30.513   2.223
65990W        W38250  20.263  10.312   0.955
65991W        W38251  43.991   4.723   3.669
65992W        W38252  32.399  26.529   1.716
65993W        W38253  30.099  21.156  11.965
65994W        W38254  36.045  27.971   1.340
65995W        W38255  11.196   9.882   2.713
65996W        W38256  26.165  41.365   1.234
65997W        W38257  39.345  39.861  14.472
65998W        W38258   0.787  11.306   3.357
65999W        W38259  21.746  44.422  13.486
66000W        W38260  24.716  25.095   0.847
66001W        W38261  35.087   9.849   4.787
66002W        W38262  44.915   4.213  10.607
66003W        W38263   9.748  25.964  12.832
66004W        W38264  41.411  31.110  11.916
66005W        W38265  10.145  25.975  10.404
66006W        W38266  12.616  13.309   2.188
66007W        W38267  28.030  28.931  10.939
66008W        W38268   3.766  21.116  14.430
66009W        W38269  34.908  18.065   4.663
66010W        W38270   9.701  14.685   3.735
66011W        W38271  13.256  39.008   4.637
66012W        W38272  24.175   6.780  14.508
66013W        W38273  18.672  44.356  11.922
66014W        W38274  16.099  33.607   0.290
66015W        W38275  38.449   6.722  13.047
66016W        W38276  25.542  41.445   5.169
66017W        W38277  38.535  22.506  10.519
66018W        W38278  42.365  13.286   1.725
66019W        W38279  33.879   0.833   2.663
66020W        W38280  13.321  37.485   3.715
66021W        W38281  14.748  27.054  12.853
66022W        W38282  31.637  28.520  12.952
66023W        W38283  44.493   8.899  13.829
66024W        W38284  37.503  32.027  12.946
66025W        W38285   3.412  12.675  14.487
66026W        W38286   8.168  28.126  13.009
66027W        W38287  40.378  24.181  11.856
66028W        W38288  38.444  42.325   4.247
66029W        W38289  13.828   7.866  11.526
66030W        W38290  12.285   9.344   2.663
66031W        W38291  22.691  13.702   2.681
66032W        W38292  38.400  20.680  14.902
66033W        W38293  20.031   3.300   2.901
66034W        W38294  38.430  26.621  13.931
66035W        W38295  26.173  10.810  14.779
66036W        W38296  11.711  19.125   2.191
66037W        W38297  30.655  21.617   2.761
66038W        W38298  33.557   8.769  12.998
66039W        W38299  40.977  31.623  14.376
66040W        W38300  43.331  36.033   0.943
66041W        W38301   6.816   8.883  12.893
66042W        W38302  19.157  15.790  10.559
66043W        W38303  44.791  41.961   4.177
66044W        W38304  18.751  23.047  14.891
66045W        W38305  31.422  20.044   2.396
66046W        W38306  39.537  40.827  11.486
66047W        W38307  20.107  16.785   3.295
66048W        W38308  11.333   5.216  11.043
66049W        W38309  23.670  44.777  13.059
66050W        W38310  30.624  39.333   0.357
66051W        W38311  43.278  24.545   4.826
66052W        W38312   8.679   0.308   4.199
66053W        W38313  12.292  20.629   0.314
66054W        W38314  39.808  40.534  12.952
66055W        W38315  41.962  40.503  10.485
66056W        W38316  22.052  37.421   4.619
66057W        W38317  37.984  31.511   3.338
66058W        W38318  30.486  42.307   0.757
66059W        W38319   2.825   8.354   1.929
66060W        W38320  44.260  37.037   3.218
66061W        W38321  14.234  11.859  14.758
66062W        W38322   0.373   3.797   1.755
66063W        W38323  35.392  25.675   1.763
66064W        W38324   1.770  10.238   0.413
66065W        W38325  38.063  41.806   3.304
66066W        W38326  34.565   0.486   4.125
66067W        W38327  22.091  12.638  14.400
66068W        W38328   2.429  22.157  11.895
66069W        W38329   8.873   5.848   3.643
66070W        W38330  37.956  34.888  14.376
66071W        W38331  25.617  31.921   1.317
66072W        W38332  19.766  16.141  10.995
66073W        W38333  11.307  18.120   3.816
66074W        W38334  22.726  23.215   4.180
66075W        W38335  21.117   7.746  13.436
66076W        W38336  22.133  13.751  14.318
66077W        W38337   9.857  40.336   1.779
66078W        W38338  12.706  44.928   3.277
66079W        W38339   7.808  30.104  14.972
66080W        W38340  28.532  25.185   1.873
66081W        W38341  17.224  38.996   3.655
66082W        W38342  42.379   1.840   2.229
66083W        W38343  38.535  14.833   0.844
66084W        W38344  14.665   8.317   0.408
66085W        W38345  18.072   4.758   0.254
66086W        W38346  18.788  24.096   2.294
66087W        W38347  18.132   7.247  10.643
66088W        W38348  33.538   9.306   0.853
66089W        W38349  27.952  42.790  13.348
66090W        W38350  37.399  25.573   4.623
66091W        W38351  28.457  36.535  13.480
66092W        W38352  21.615  37.359  11.604
66093W        W38353  25.995   0.459  11.580
66094W        W38354  32.439  12.260  11.982
66095W        W38355  31.954  24.615   4.134
66096W        W38356  19.076  27.959  11.050
66097W        W38357  13.639  17.744   0.760
66098W        W38358   9.715   9.396  10.564
66099W        W38359  12.794  17.684   0.298
66100W        W38360  43.911  39.992   0.286
66101W        W38361  14.721   9.277   1.817
66102W        W38362  33.569   9.260  13.409
66103W        W38363  40.421   8.830   3.846
66104W        W38364   6.700  26.590  14.001
66105W        W38365   4.280  28.021  10.919
66106W        W38366  39.542  27.502  12.863
66107W        W38367   9.322  32.019  13.488
66108W        W38368  26.987  44.399  12.579
66109W        W38369  18.641   6.187   3.277
66110W        W38370  18.219   5.299  14.469
66111W        W38371  21.156   4.422   3.292
66112W        W38372  20.041  29.605   4.242
66113W        W38373  44.819   6.890   2.826
66114W        W38374  22.999  37.339  13.012
66115W        W38375  20.132  10.725   1.725
66116W        W38376  26.556  40.978   2.239
66117W        W38377  27.968   0.278   3.754
66118W        W38378   2.383  33.957   4.687
66119W        W38379  21.246   5.853  10.941
66120W        W38380  10.832  11.722  10.524
66121W        W38381  24.642   3.881   4.813
66122W        W38382   3.950   9.650   3.754
66123W        W38383  27.979   9.155   1.801
66124W        W38384  38.941   2.241   2.771
66125W        W38385  14.804  13.349   4.221
66126W        W38386  11.784  16.195   1.811
66127W        W38387  11.244   2.872  14.454
66128W        W38388  25.631  11.171   0.484
66129W        W38389  21.065  30.421   4.163
66130W        W38390   5.859  41.486   4.817
66131W        W38391  18.198  40.004   0.406
66132W        W38392  21.604   5.388  13.402
66133W        W38393  27.988  10.364   4.812
66134W        W38394  12.314  13.287   4.695
66135W        W38395   1.937  21.199   3.785
66136W        W38396   8.288  21.020  14.941
66137W        W38397   3.725  34.001  10.470
66138W        W38398  22.013   1.799   3.747
66139W        W38399   9.274   8.823  11.930
66140W        W38400  14.130  16.643   0.911
66141W        W38401  35.523   0.425  11.874
66142W        W38402  39.410   9.675   2.732
66143W        W38403  34.550  24.635   3.255
66144W        W38404  31.901  34.119  10.514
66145W        W38405  34.079  39.014   0.267
66146W        W38406  24.988  12.232  14.885
66147W        W38407  20.630  33.387   2.308
66148W        W38408  44.431  34.498   1.290
66149W        W38409   2.924  23.492  12.427
66150W        W38410  44.292  16.729  11.905
66151W        W38411  27.612   7.795  13.954
66152W        W38412   5.811  13.749   1.441
66153W        W38413   0.267  26.007   0.351
66154W        W38414  39.036  34.920  12.092
66155W        W38415   6.693  20.619   2.809
66156W        W38416  33.495  43.812  13.020
66157W        W38417  42.340  14.733  12.942
66158W        W38418  43.980   2.846  12.999
66159W        W38419  31.937   0.756   0.248
66160W        W38420  17.655  21.577   4.163
66161W        W38421  15.584  32.553   3.307
66162W        W38422  37.451  18.711  14.373
66163W        W38423  13.340  27.954  13.871
66164W        W38424  13.699  36.381  13.911
66165W        W38425   9.658  39.436   1.725
66166W        W38426  33.532  43.476   4.782
66167W        W38427  15.809   3.457   3.750
66168W        W38428  19.142   4.444  13.821
66169W        W38429  10.211  14.245   3.319
66170W        W38430   2.866   5.239  11.546
66171W        W38431  10.832  38.987  11.074
66172W        W38432  33.980  43.407  13.538
66173W        W38433  37.062  33.600   2.307
66174W        W38434   6.280  19.197  12.422
66175W        W38435  24.655  41.511   2.774
66176W        W38436  14.695  15.679  10.585
66177W        W38437   2.295  32.946  13.839
66178W        W38438   9.797  17.242  11.583
66179W        W38439  34.936  23.732  10.589
66180W        W38440  44.326  11.682   0.965
66181W        W38441  18.573  25.659  10.958
66182W        W38442   6.892  33.610   3.168
66183W        W38443  24.056  25.211  13.431
66184W        W38444  37.564  13.803  11.974
66185W        W38445  14.113   4.849  14.376
66186W        W38446  43.859  11.223  14.311
66187W        W38447  39.529   7.279   5.689
66188W        W38448   1.913  25.686  11.985
66189W        W38449  15.218   1.871  13.406
66190W        W38450  11.673  40.015   2.696
66191W        W38451  42.785  26.544  13.379
66192W        W38452  27.598  30.651   4.777
66193W        W38453   4.702  10.823  10.612
66194W        W38454  43.973  33.586  14.026
66195W        W38455  36.970   2.803  10.892
66196W        W38456  26.476  32.611   1.768
66197W        W38457  21.155  23.104   1.416
66198W        W38458  13.638  27.509   0.372
66199W        W38459  16.251  27.099   4.321
66200W        W38460  18.621  22.696  12.376
66201W        W38461  19.143  21.134   4.627
66202W        W38462  10.863  26.599  14.283
66203W        W38463  34.865  43.883   2.323
66204W        W38464  20.225  23.162   0.378
66205W        W38465  36.034  20.267   2.231
66206W        W38466  31.943  10.855  14.787
66207W        W38467  29.434  42.341  11.537
66208W        W38468  29.647  10.790   1.850
66209W        W38469  26.618   8.357   2.319
66210W        W38470  18.712  35.598  12.393
66211W        W38471  29.991  31.515  14.405
66212W        W38472  44.773  27.665   0.322
66213W        W38473  40.908  37.572   2.418
66214W        W38474   1.476  15.756   4.726
66215W        W38475  17.684  11.348  14.493
66216W        W38476   6.913  40.974   4.271
66217W        W38477  25.666  19.727  13.829
66218W        W38478  21.675  27.019   5.297
66219W        W38479  11.163   9.351  13.820
66220W        W38480  27.619  15.689  11.410
66221W        W38481  43.396  12.760   0.756
66222W        W38482   4.290   4.349  11.592
66223W        W38483  37.909  29.108  13.017
66224W        W38484   2.773  20.588   1.275
66225W        W38485  41.999  26.023  10.962
66226W        W38486  44.990  24.663  13.860
66227W        W38487  42.943  39.913   0.761
66228W        W38488  25.606  11.712  13.408
66229W        W38489  26.661  19.592   0.852
66230W        W38490  36.003  19.576   4.699
66231W        W38491   3.790  39.853  13.913
66232W        W38492  17.088  16.706   1.427
66233W        W38493   1.889   7.368  12.970
66234W        W38494  22.529  18.724  10.415
66235W        W38495   1.350  28.980   4.668
66236W        W38496  21.020  18.296  13.431
66237W        W38497  38.064   6.313  13.799
66238W        W38498  36.517  21.573  13.421
66239W        W38499  29.146   9.338   1.865
66240W        W38500  40.891  12.624   0.327
66241W        W38501  24.714  19.664   1.345
66242W        W38502   6.257  40.381   3.854
66243W        W38503  28.099  23.690  14.408
66244W        W38504  41.411  19.160   2.849
66245W        W38505  35.900   5.808  14.857
66246W        W38506   6.743  40.932  10.548
66247W        W38507  36.362  25.709   2.674
66248W        W38508  23.106  12.710   2.750
66249W        W38509  15.321  13.708   9.984
66250W        W38510  18.054  43.508   1.721
66251W        W38511  23.489  17.087  12.427
66252W        W38512  37.469   1.863  12.915
66253W        W38513  23.648  27.112  14.828
66254W        W38514  42.478  18.259  13.400
66255W        W38515  37.052  25.019   1.720
66256W        W38516  11.770   0.744   0.808
66257W        W38517  25.158  43.460  11.083
66258W        W38518   3.851  24.585   0.728
66259W        W38519  18.743  32.608  11.917
66260W        W38520  32.123  14.131  11.931
66261W        W38521   2.846  18.708   3.383
66262W        W38522   1.890  15.297   2.727
66263W        W38523  24.040  12.259  11.559
66264W        W38524  31.442  30.547   3.205
66265W        W38525   6.399  28.018   2.269
66266W        W38526   5.736  38.882   2.795
66267W        W38527  36.842  42.402  11.107
66268W        W38528   4.770  19.627  12.978
66269W        W38529  10.276  26.128   0.341
66270W        W38530  37.033  27.687  14.842
66271W        W38531   1.449  23.596  12.367
66272W        W38532   2.802  32.595   1.710
66273W        W38533   9.665  11.175  13.049
66274W        W38534  10.176  30.481  13.533
66275W        W38535   5.892  16.128   3.866
66276W        W38536  19.633  41.326   2.307
66277W        W38537   0.420  14.270   2.719
66278W        W38538  33.033  18.702   1.925
66279W        W38539  34.930   7.710   0.954
66280W        W38540   0.763  13.108   3.780
66281W        W38541  22.215  10.844   1.427
66282W        W38542  42.814  17.144  10.983
66283W        W38543  30.996   6.732  11.949
66284W        W38544  24.686  11.775   3.740
66285W        W38545  15.821   7.407   4.336
66286W        W38546  28.147  18.183   5.173
66287W        W38547  27.022  14.290  12.403
66288W        W38548   6.811  12.172   4.793
66289W        W38549  35.417  19.772   4.702
66290W        W38550   5.321  17.225   2.368
66291W        W38551  42.007  20.211  13.902
66292W        W38552   1.416  20.234  11.432
66293W        W38553  26.470   8.805  11.599
66294W        W38554  30.457  12.748   0.461
66295W        W38555  19.636   1.293   3.207
66296W        W38556   4.348  16.733   1.896
66297W        W38557  30.920  30.950  11.110
66298W        W38558  35.496  32.470  14.995
66299W        W38559  26.698   4.412   1.695
66300W        W38560  14.204  10.730  11.501
66301W        W38561  25.575  41.937   9.501
66302W        W38562   8.786  44.931   0.321
66303W        W38563   5.747   9.687   2.730
66304W        W38564  41.901   8.897   3.323
66305W        W38565  30.631  32.617  12.366
66306W        W38566  19.551   1.405  13.318
66307W        W38567   8.670  37.887   2.245
66308W        W38568  25.103  30.549   1.363
66309W        W38569  41.520  22.190   1.724
66310W        W38570  13.836  35.532  14.872
66311W        W38571  22.250  23.199  13.436
66312W        W38572  20.069   8.282  14.429
66313W        W38573   1.455   3.811   2.788
66314W        W38574  25.616   8.749   1.281
66315W        W38575  16.664  10.697   3.662
66316W        W38576  16.695  20.569  13.929
66317W        W38577  35.491  29.031  11.601
66318W        W38578  37.370  24.176   3.237
66319W        W38579  27.606   0.942   3.665
66320W        W38580  28.528  18.736  13.963
66321W        W38581  28.681   6.205  13.911
66322W        W38582  23.562  21.692   4.663
66323W        W38583   9.705  24.644  10.460
66324W        W38584  25.615  32.581  12.977
66325W        W38585  29.939  28.168  10.899
66326W        W38586  25.483   5.209  12.890
66327W        W38587  30.011  24.551   2.850
66328W        W38588  16.748  32.898   0.452
66329W        W38589  10.835  25.481  11.401
66330W        W38590   4.838  36.962   4.260
66331W        W38591  33.038  41.814   1.846
66332W        W38592  37.928  15.283   4.837
66333W        W38593  24.497  18.595   2.896
66334W        W38594  14.301   0.982  10.970
66335W        W38595   0.392   7.892  13.943
66336W        W38596  37.344  34.606  11.867
66337W        W38597  16.572  26.584   4.796
66338W        W38598   8.311  40.808  12.551
66339W        W38599   5.727  43.351  14.808
66340W        W38600  21.574   7.397  14.873
66341W        W38601  43.331  38.928  14.360
66342W        W38602   4.392  28.948  11.591
66343W        W38603  30.495  31.515   0.426
66344W        W38604  14.833  42.993   1.695
66345W        W38605  26.464   3.932   2.287
66346W        W38606   6.206   1.362   4.159
66347W        W38607   0.927  30.472   1.697
66348W        W38608   7.183  41.837  14.404
66349W        W38609   1.882   0.457   0.774
66350W        W38610   2.227   0.283  12.872
66351W        W38611  24.094   9.382   2.778
66352W        W38612  13.308  44.967   1.921
66353W        W38613  32.563  37.385  13.958
66354W        W38614  18.267  24.576   0.868
66355W        W38615  38.344  37.457  12.981
66356W        W38616   8.192  20.608   0.747
66357W        W38617  20.129  12.761  13.402
66358W        W38618  22.503   8.816   4.169
66359W        W38619   6.884  28.148   0.475
66360W        W38620  23.184  29.664   0.395
66361W        W38621  24.698  20.644  12.490
66362W        W38622  18.165  22.008   2.309
66363W        W38623   6.270  37.047   0.814
66364W        W38624  25.610  25.124   5.109
66365W        W38625  11.371  32.008   2.890
66366W        W38626  31.972  44.479   1.922
66367W        W38627  28.504  24.675   4.735
66368W        W38628  29.079  41.013  14.422
66369W        W38629   3.730  16.758   3.778
66370W        W38630  30.001  37.053  10.906
66371W        W38631  32.480  38.456   0.962
66372W        W38632  14.271  19.723  13.893
66373W        W38633   1.882  23.999  11.111
66374W        W38634  16.167  38.842   3.802
66375W        W38635  22.111   9.295  14.369
66376W        W38636  43.930  26.153  10.566
66377W        W38637  39.555  25.975  10.571
66378W        W38638  34.119  15.647  14.485
66379W        W38639  36.000  41.916   1.329
66380W        W38640  23.662   3.446  13.514
66381W        W38641  40.819  11.767  12.891
66382W        W38642   5.432  19.058  10.548
66383W        W38643   4.389  35.867   0.742
66384W        W38644  42.791  12.319   0.248
66385W        W38645   4.855  13.218   4.114
66386W        W38646  13.285  14.598   1.219
66387W        W38647  24.105  19.535  12.557
66388W        W38648  12.267   9.730  12.900
66389W        W38649  38.970  35.956  10.990
66390W        W38650  31.483  21.626  14.320
66391W        W38651  17.099  18.151  14.784
66392W        W38652  43.838  38.820   1.883
66393W        W38653  38.955  40.005  11.492
66394W        W38654  27.174  16.260  11.534
66395W        W38655   2.269  39.338  12.071
66396W        W38656  29.630  16.104   0.432
66397W        W38657  14.809  18.293   2.414
66398W        W38658  43.384  28.005   3.309
66399W        W38659   6.289   1.454  13.361
66400W        W38660   9.293  30.076  14.490
66401W        W38661  28.099  36.992  10.531
66402W        W38662   6.871  12.295   3.290
66403W        W38663  40.867  35.881   1.364
66404W        W38664  33.513   9.230   4.817
66405W        W38665   2.343  41.316  10.933
66406W        W38666  40.966  12.814   2.406
66407W        W38667  20.626   8.816   3.223
66408W        W38668  29.036  15.583  11.444
66409W        W38669  21.081  12.337  13.894
66410W        W38670  35.500   7.275  10.948
66411W        W38671  11.675  18.767   1.831
66412W        W38672  41.343  28.571  13.335
66413W        W38673  34.595  34.112   0.322
66414W        W38674  30.498  42.445  14.308
66415W        W38675  37.500  40.035  14.424
66416W        W38676  24.104  12.148   4.260
66417W        W38677  37.581   7.730   2.872
66418W        W38678  10.822  29.019   0.355
66419W        W38679  33.949  13.800   1.819
66420W        W38680  17.239  34.410  10.631
66421W        W38681   5.734   5.814  12.825
66422W        W38682  30.608  33.573  12.432
66423W        W38683  31.129  43.418   2.256
66424W        W38684   1.305  12.855  12.076
66425W        W38685  31.062  31.569   2.353
66426W        W38686  18.051  24.090  13.536
66427W        W38687  24.658  16.126  13.429
66428W        W38688  11.629  13.213   0.727
66429W        W38689  39.498  34.079  11.534
66430W        W38690   9.690   9.329  13.988
66431W        W38691  33.601  28.584   3.834
66432W        W38692  17.133  29.062   1.788
66433W        W38693  43.814  18.281   4.128
66434W        W38694  16.689  29.156  10.969
66435W        W38695  11.272   2.413   2.370
66436W        W38696   6.250  21.185   4.736
66437W        W38697  23.503  18.178  13.315
66438W        W38698  39.429  42.798  12.023
66439W        W38699  29.559  11.213   2.900
66440W        W38700  41.376  35.021   5.307
66441W        W38701  13.677   4.335  14.308
66442W        W38702   9.365  38.827  12.052
66443W        W38703  14.763   5.408  12.087
66444W        W38704  27.487  28.020   2.726
66445W        W38705   9.149  22.142  14.277
66446W        W38706  22.601  35.372   0.398
66447W        W38707   5.723  17.652  10.534
66448W        W38708  22.183  40.387  12.053
66449W        W38709  14.284   8.278  13.893
66450W        W38710  31.034  19.688   3.280
66451W        W38711  29.443  27.979  10.019
66452W        W38712  36.587  29.622  13.975
66453W        W38713  19.149  23.561   3.870
66454W        W38714  19.134  27.571  14.850
66455W        W38715   8.759  18.553   3.670
66456W        W38716  43.322  33.579   2.896
66457W        W38717   5.273  37.361   4.713
66458W        W38718  26.958   3.230  13.000
66459W        W38719  21.714   1.447   2.412
66460W        W38720  17.593   5.306  11.900
66461W        W38721  24.691  10.201  14.407
66462W        W38722  26.616  31.913   1.446
66463W        W38723  24.508  18.249   1.895
66464W        W38724  42.476  22.028  12.973
66465W        W38725  33.593  40.844  12.379
66466W        W38726  14.273  29.165   2.352
66467W        W38727  12.837  38.475   1.724
66468W        W38728  20.262   7.695  13.371
66469W        W38729  30.161   6.333  13.963
66470W        W38730  41.861  23.513  10.918
66471W        W38731  40.920   1.917  12.547
66472W        W38732  15.697  24.498  13.354
66473W        W38733   6.198  32.892   3.153
66474W        W38734  22.656  22.583  10.445
66475W        W38735  21.212  34.595   0.749
66476W        W38736  37.521  13.290   0.284
66477W        W38737  10.750  23.111  11.464
66478W        W38738  39.867   0.472  12.063
66479W        W38739  12.210  18.124  14.501
66480W        W38740   5.363  19.627  14.313
66481W        W38741  41.926  31.058  11.104
66482W        W38742  23.702  35.405   1.757
66483W        W38743  26.692   7.728   3.708
66484W        W38744   3.258   2.739  13.509
66485W        W38745  27.999  26.522   0.310
66486W        W38746  42.932   7.858   2.332
66487W        W38747  39.455   8.380  14.386
66488W        W38748  19.212  34.372  10.430
66489W        W38749   9.261  43.317  12.062
66490W        W38750   2.366  20.554   1.246
66491W        W38751  29.090  44.475  13.477
66492W        W38752   4.359  19.167   0.752
66493W        W38753  33.623  27.082   3.862
66494W        W38754  26.176   6.412  14.880
66495W        W38755  37.575  18.236  12.991
66496W        W38756   1.876   2.896  12.442
66497W        W38757  10.667   2.801  12.037
66498W        W38758  25.528  14.192   5.100
66499W        W38759   7.285   9.820   1.820
66500W        W38760   2.386  36.084  10.998
66501W        W38761   1.877  41.358   0.363
66502W        W38762  37.984   2.304  12.027
66503W        W38763  34.118  43.937   3.771
66504W        W38764  20.709  40.827   4.136
66505W        W38765  28.475  24.186   0.295
66506W        W38766  40.355  26.057  11.917
66507W        W38767  11.823   6.316   2.383
66508W        W38768  35.919  17.269  13.994
66509W        W38769  18.274  44.985  12.577
66510W        W38770   8.319  32.535  12.500
66511W        W38771   1.437  12.350   1.332
66512W        W38772  17.765   3.947   3.824
66513W        W38773  32.907  39.055  12.912
66514W        W38774  25.522  16.124   1.332
66515W        W38775   3.791  37.944  14.925
66516W        W38776  14.140  28.473   1.790
66517W        W38777   8.789  19.079  11.126
66518W        W38778  23.672  31.591  11.534
66519W        W38779   0.846   4.210   2.406
66520W        W38780  22.725   9.867  12.048
66521W        W38781   9.688   0.927   3.352
66522W        W38782  17.783  17.640  11.955
66523W        W38783  32.900  23.020  11.516
66524W        W38784   8.227   7.245   1.260
66525W        W38785  31.441  32.140   1.906
66526W        W38786  21.045  43.878  13.399
66527W        W38787  27.166  22.534   1.396
66528W        W38788  27.161  14.221   3.185
66529W        W38789  16.161  23.036   2.717
66530W        W38790  16.645  44.872  14.339
66531W        W38791  18.243  42.482  10.455
66532W        W38792  31.490   7.394  13.800
66533W        W38793  28.662   9.356   1.716
66534W        W38794   4.435  38.470   1.293
66535W        W38795  25.494  16.097  13.471
66536W        W38796  19.110   5.861  11.591
66537W        W38797  26.043  34.499   4.749
66538W        W38798   6.917  40.921  13.415
66539W        W38799  39.967  14.731  14.909
66540W        W38800  28.555  23.492  11.054
66541W        W38801   1.345  43.845  11.388
66542W        W38802   7.770   6.696   1.436
66543W        W38803   0.803  43.463  13.505
66544W        W38804  35.055  25.696  13.864
66545W        W38805  12.263  20.657  11.477
66546W        W38806  14.799  37.549   1.309
66547W        W38807   8.160  20.272  10.577
66548W        W38808  12.279   4.700   1.248
66549W        W38809  39.422  40.457  10.070
66550W        W38810  36.520  31.041   2.723
66551W        W38811   8.175  10.843   0.787
66552W        W38812  23.177  14.218  14.374
66553W        W38813   0.823  11.136  12.892
66554W        W38814  29.571   3.396   5.293
66555W        W38815  34.918   9.310   3.198
66556W        W38816  12.173  39.809   2.819
66557W        W38817  12.351  42.940   4.203
66558W        W38818  39.012   3.444   3.270
66559W        W38819  30.433  30.608  12.358
66560W        W38820  15.263  40.345  11.965
66561W        W38821  30.129   4.701   0.394
66562W        W38822   5.792   9.310  14.864
66563W        W38823  43.934   8.378   0.801
66564W        W38824  22.592  20.107   3.374
66565W        W38825   5.208  22.248  12.068
66566W        W38826  27.100  31.015   3.272
66567W        W38827  14.690  33.036   1.744
66568W        W38828  12.641   6.275   4.765
66569W        W38829  24.145  39.900  11.407
66570W        W38830  21.066  10.273   5.139
66571W        W38831  14.626  13.600  12.827
66572W        W38832  13.194  19.167   0.454
66573W        W38833  24.597   6.289   1.719
66574W        W38834   0.366  24.672  13.837
66575W        W38835  39.323   5.308  11.868
66576W        W38836   2.746  16.145  11.603
66577W        W38837  42.527  25.676  12.391
66578W        W38838  30.908  40.956  12.910
66579W        W38839  25.127  39.062   9.971
66580W        W38840   6.821  17.105  11.030
66581W        W38841  23.116  27.125   3.648
66582W        W38842  37.869  10.763  11.440
66583W        W38843  22.596   7.233  13.016
66584W        W38844  22.516  22.574  12.543
66585W        W38845   2.435  32.622   1.247
66586W        W38846  31.010  41.459  11.943
66587W        W38847  42.474  38.836  13.385
66588W        W38848  37.034  12.327   0.908
66589W        W38849  10.838  36.074   1.839
66590W        W38850  14.231  12.190   2.696
66591W        W38851  21.167  26.029   3.805
66592W        W38852   8.289   2.906   0.885
66593W        W38853  35.565   2.410   3.282
66594W        W38854  32.968  17.063  11.060
66595W        W38855   3.882   8.773  12.869
66596W        W38856  20.725  38.387  11.001
66597W        W38857   6.923  15.268   4.809
66598W        W38858  32.398   9.743   3.646
66599W        W38859  10.790   1.398  14.952
66600W        W38860   0.897   9.242   0.937
66601W        W38861  28.054  28.951   4.163
66602W        W38862  32.465  35.857   0.947
66603W        W38863  21.606   5.250  12.354
66604W        W38864  19.771  38.951   1.934
66605W        W38865  15.653   8.712   4.644
66606W        W38866  37.516  41.518  11.958
66607W        W38867  19.152  18.223   4.312
66608W        W38868  18.231  26.956  10.435
66609W        W38869   4.844  18.292   2.355
66610W        W38870  17.642  24.004   1.273
66611W        W38871  26.953   1.796  12.499
66612W        W38872  43.333  20.649   0.859
66613W        W38873  26.672   8.163  11.432
66614W        W38874  14.174  30.488   0.765
66615W        W38875  34.512  22.537   3.186
66616W        W38876  40.866   0.448  14.872
66617W        W38877   9.186  40.374   3.790
66618W        W38878  26.998  41.905  10.471
66619W        W38879  30.435  40.372  14.908
66620W        W38880  21.240  20.132   2.320
66621W        W38881  44.758  37.890  14.824
66622W        W38882  35.403   0.481  14.369
66623W        W38883  40.828  39.320   1.842
66624W        W38884   7.831  29.425   0.437
66625W        W38885  32.077   4.420  12.081
66626W        W38886  34.443  31.125   3.832
66627W        W38887  22.116   1.279   0.802
66628W        W38888  25.711   4.891  12.943
66629W        W38889  34.068   2.260  10.950
66630W        W38890  44.945   6.261   3.224
66631W        W38891  14.768  25.557  11.081
66632W        W38892  43.466  18.242   2.800
66633W        W38893  33.566   7.703  14.979
66634W        W38894  32.910  32.498  12.462
66635W        W38895  29.035  38.999   3.270
66636W        W38896   7.389   3.362   2.231
66637W        W38897  10.364  24.195  10.992
66638W        W38898  41.527  17.585   0.331
66639W        W38899  33.074  14.186  10.979
66640W        W38900  10.697   8.832  11.396
66641W        W38901  40.363  25.003   5.248
66642W        W38902   7.807  19.549   5.088
66643W        W38903  28.023  20.639   2.378
66644W        W38904   5.434   1.847  12.562
66645W        W38905  36.570  13.839  12.069
66646W        W38906  10.172  12.183   4.728
66647W        W38907  39.985  13.836  11.010
66648W        W38908  33.510  43.920   3.724
66649W        W38909   9.186   0.329   4.127
66650W        W38910  12.116  30.035   3.270
66651W        W38911  36.995  16.316   1.225
66652W        W38912  30.620   8.674   2.317
66653W        W38913  21.572  40.925  14.835
66654W        W38914   1.760  23.108  13.885
66655W        W38915  14.125   7.832   1.893
66656W        W38916   1.405  32.544  11.382
66657W        W38917  26.158  12.200   4.755
66658W        W38918  10.258  20.212   2.232
66659W        W38919  27.473   9.252   3.708
66660W        W38920  43.488  36.546   3.725
66661W        W38921  33.549  19.593   2.307
66662W        W38922  34.475  25.709   1.874
66663W        W38923  27.633  19.173  14.815
66664W        W38924  26.586   5.228   2.365
66665W        W38925   2.965  23.660  10.960
66666W        W38926  18.261  38.951  14.464
66667W        W38927  28.967  28.002   0.835
66668W        W38928  38.042   8.791  13.973
66669W        W38929   4.266   1.238  10.472
66670W        W38930  38.895  30.636   1.324
66671W        W38931  30.085   1.315   3.736
66672W        W38932  34.589  43.381   1.215
66673W        W38933  21.054  28.581   4.654
66674W        W38934  34.993  44.770   2.849
66675W        W38935  18.770   8.349  11.121
66676W        W38936  12.155  22.013   3.192
66677W        W38937  41.825  14.702  11.899
66678W        W38938  33.027  41.866  14.858
66679W        W38939  43.351  41.380   4.618
66680W        W38940   4.329  23.723   2.365
66681W        W38941  26.624  18.055   1.318
66682W        W38942  36.561  29.147  10.045
66683W        W38943  13.289  27.512   4.141
66684W        W38944   0.345  15.618  13.833
66685W        W38945  31.451  36.581   2.322
66686W        W38946  10.262  14.188   5.157
66687W        W38947  17.198   8.820  12.344
66688W        W38948  35.416   3.719  12.017
66689W        W38949  22.682   4.295  11.416
66690W        W38950  21.685  41.451   2.386
66691W        W38951  44.451  36.500  10.462
66692W        W38952  23.193   0.780  11.559
66693W        W38953  13.189  10.848  14.988
66694W        W38954   9.201  13.623   0.921
66695W        W38955  38.564  23.123   1.831
66696W        W38956  27.121  28.998   3.328
66697W        W38957  25.670  41.414   2.732
66698W        W38958  43.324  35.952   1.695
66699W        W38959  38.459   1.283   0.417
66700W        W38960  32.026   9.305   4.152
66701W        W38961  33.443  20.061  13.820
66702W        W38962   2.744  24.536  12.006
66703W        W38963  13.105   4.833  12.572
66704W        W38964  38.891  37.848  11.114
66705W        W38965   3.844   8.389   3.265
66706W        W38966  21.598  29.984   3.176
66707W        W38967   2.373  11.683  14.458
66708W        W38968   8.681  21.703  13.877
66709W        W38969  33.471  23.033  13.992
66710W        W38970  12.246  21.060  13.895
66711W        W38971  37.840  20.038   3.238
66712W        W38972  40.951   7.879   0.399
66713W        W38973  38.871   8.246  13.313
66714W        W38974   4.303  28.039  10.565
66715W        W38975   3.417  16.768   2.202
66716W        W38976  29.935   4.369   4.131
66717W        W38977  44.865  14.624  12.401
66718W        W38978  41.490   6.352  13.454
66719W        W38979  40.432  36.875  13.897
66720W        W38980   4.378  28.550   1.928
66721W        W38981  17.214  39.048   2.825
66722W        W38982   5.850  41.816   4.633
66723W        W38983  34.060  13.317   2.417
66724W        W38984  35.894  19.070   3.174
66725W        W38985   4.382   4.824  11.552
66726W        W38986  19.194  38.570   4.149
66727W        W38987   7.408  38.847  11.962
66728W        W38988  20.191  20.667  11.120
66729W        W38989   6.920  30.153  12.371
66730W        W38990  17.293  39.342   1.850
66731W        W38991  37.421   6.720   0.300
66732W        W38992  33.606   6.277  10.563
66733W        W38993  12.759   5.294  13.496
66734W        W38994  12.812  25.669  13.949
66735W        W38995  15.278  28.029  13.045
66736W        W38996  30.546  28.033   0.796
66737W        W38997  24.689  37.418   1.888
66738W        W38998  44.505  41.349   5.096
66739W        W38999  19.710  23.008   3.734
66740W        W39000  42.897   5.821  12.058
66741W        W39001  25.122  29.592  12.859
66742W        W39002  33.510   9.825  11.111
66743W        W39003  22.508  10.245  13.837
66744W        W39004  12.639  26.539  11.508
66745W        W39005  22.242  34.973   4.610
66746W        W39006  44.920  32.496  13.882
66747W        W39007  15.800  30.082  14.458
66748W        W39008  11.327  23.139  12.567
66749W        W39009  29.623  15.749   9.995
66750W        W39010  18.629  21.619   0.420
66751W        W39011  30.492  29.001  11.433
66752W        W39012  22.090  42.796  13.007
66753W        W39013  26.476  18.121   4.791
66754W        W39014  29.579  33.501  12.515
66755W        W39015   3.777  25.026  14.484
66756W        W39016   1.927  39.988   3.870
66757W        W39017  41.972  13.279   3.170
66758W        W39018  34.056  18.293   4.262
66759W        W39019   6.312  34.519  11.962
66760W        W39020  31.096  41.807  13.034
66761W        W39021  12.696  26.660  10.628
66762W        W39022  27.615  22.510  11.998
66763W        W39023  36.504   4.927  13.990
66764W        W39024   5.368   9.830  10.953
66765W        W39025   7.712  38.952   3.224
66766W        W39026  41.849  14.675  12.846
66767W        W39027  11.272  27.469   4.689
66768W        W39028  12.807   2.264   4.603
66769W        W39029  33.071  21.701   0.771
66770W        W39030  32.415  11.151   4.737
66771W        W39031  22.998  24.660  13.998
66772W        W39032  44.430   0.255  10.434
66773W        W39033  31.903  15.720  13.495
66774W        W39034  15.264  13.814   3.261
66775W        W39035  27.063  43.020   1.751
66776W        W39036  31.611  23.180  12.574
66777W        W39037  29.462  10.289  14.866
66778W        W39038   7.274  31.945   1.451
66779W        W39039   0.410  37.896   0.336
66780W        W39040  38.010  32.458   1.773
66781W        W39041  23.015  12.815  13.507
66782W        W39042  43.826   7.296  11.579
66783W        W39043  27.109  25.614   2.770
66784W        W39044  16.221  35.937   2.225
66785W        W39045  14.140   6.767   2.670
66786W        W39046  41.864  25.145  11.525
66787W        W39047  20.543   8.381   4.256
66788W        W39048  26.624  39.837   2.186
66789W        W39049  31.000  30.522   5.135
66790W        W39050  42.903  44.835   1.232
66791W        W39051  35.869   5.361  14.344
66792W        W39052  44.952   2.248   3.714
66793W        W39053  27.050   1.943   4.144
66794W        W39054   9.855   7.224   1.760
66795W        W39055  12.615  16.164   1.785
66796W        W39056  28.967  17.689  13.914
66797W        W39057  18.645  14.632  10.464
66798W        W39058  43.388  42.874   3.711
66799W        W39059  32.128  19.541  10.475
66800W        W39060  40.331  33.534  10.448
66801W        W39061   1.739   3.904   0.424
66802W        W39062   5.204  37.435  13.424
66803W        W39063  16.626   5.325  13.337
66804W        W39064   2.417  34.864   3.249
66805W        W39065  26.035   1.777  11.028
66806W        W39066   5.264  43.005  11.412
66807W        W39067  12.761  13.188   1.264
66808W        W39068   0.270  20.626   3.836
66809W        W39069   3.769  14.169   5.114
66810W        W39070   4.376  19.167  13.380
66811W        W39071  44.876  31.607   1.220
66812W        W39072  43.493   4.889  14.771
66813W        W39073  44.887  10.227  11.955
66814W        W39074  44.347   1.425  11.430
66815W        W39075  29.974  33.053   9.972
66816W        W39076   2.837  23.675  11.877
66817W        W39077   9.318  35.542   2.368
66818W        W39078  31.006   2.471   4.774
66819W        W39079   4.833  19.094  11.863
66820W        W39080  28.558  35.559   2.320
66821W        W39081  33.884  16.591   2.212
66822W        W39082  22.740  35.934  14.954
66823W        W39083  16.747  34.051  13.357
66824W        W39084  28.950   4.802   3.846
66825W        W39085  33.955  28.133   1.446
66826W        W39086  44.405  20.636   3.299
66827W        W39087  23.074   8.284  12.990
66828W        W39088  44.329  39.477   0.363
66829W        W39089  30.996  24.038   3.818
66830W        W39090  40.938  27.494   4.187
66831W        W39091  18.568   0.259  14.856
66832W        W39092  43.010  29.992  11.863
66833W        W39093   5.394  14.629  14.783
66834W        W39094  10.243  34.579  12.970
66835W        W39095  37.446  27.968   2.364
66836W        W39096  18.642   0.351  10.514
66837W        W39097  24.017  29.450  11.471
66838W        W39098  25.995  30.064  11.395
66839W        W39099  10.356   8.279   0.876
66840W        W39100  36.063  19.194   1.722
66841W        W39101  30.524   5.439   3.829
66842W        W39102  34.399   2.340  14.335
66843W        W39103  19.205  18.771   4.828
66844W        W39104   1.346  11.280  12.058
66845W        W39105  37.966   4.372  13.523
66846W        W39106  41.919  40.421   3.385
66847W        W39107  40.365  38.070   0.758
66848W        W39108  39.922  23.566  12.508
66849W        W39109  21.578  39.386   3.205
66850W        W39110  37.008  21.668  12.494
66851W        W39111  18.227   8.253   5.625
66852W        W39112  29.978  11.798   1.882
66853W        W39113  34.039  14.623   1.779
66854W        W39114  28.021   7.811  14.797
66855W        W39115  22.086  27.066   3.381
66856W        W39116   8.299  33.001   4.646
66857W        W39117  25.707   5.267  13.400
66858W        W39118  25.675  26.473  13.350
66859W        W39119  14.175  14.700  11.492
66860W        W39120  34.398  21.573   3.833
66861W        W39121  17.666  10.651  13.861
66862W        W39122  42.397  24.509   2.693
66863W        W39123  33.012  42.895  13.324
66864W        W39124  43.332  12.829   4.161
66865W        W39125  11.752  12.733   2.278
66866W        W39126  22.668  12.751   3.773
66867W        W39127   5.345  15.131   3.865
66868W        W39128  40.447  40.882  14.011
66869W        W39129  11.746  27.001   3.363
66870W        W39130   0.431  15.270  11.418
66871W        W39131  37.036  36.967  13.957
66872W        W39132   8.698  26.493  13.876
66873W        W39133  20.236  14.261   0.324
66874W        W39134  40.955  20.619  13.907
66875W        W39135  41.854  39.535   1.435
66876W        W39136  31.546   6.213   4.225
66877W        W39137  17.161  23.028  11.939
66878W        W39138  16.755   4.823   2.215
66879W        W39139  35.075  41.850  13.895
66880W        W39140   7.908  28.029  12.565
66881W        W39141  10.789   0.858  12.047
66882W        W39142   6.321   0.448  11.909
66883W        W39143   8.390   6.349   2.823
66884W        W39144  31.920  25.548  11.092
66885W        W39145   5.807  27.004  10.151
66886W        W39146  30.944  39.419  13.801
66887W        W39147  31.509  25.088   0.420
66888W        W39148   9.696   5.333   3.188
66889W        W39149  35.397  43.452   3.269
66890W        W39150   8.189   3.279  11.415
66891W        W39151   1.461   9.668   4.155
66892W        W39152   0.371  18.565  13.947
66893W        W39153  39.907   7.258   2.771
66894W        W39154  27.160  35.065   3.332
66895W        W39155  27.632  40.901   2.197
66896W        W39156  35.039  24.172  14.444
66897W        W39157  36.386  10.731  13.022
66898W        W39158  23.030  26.076  14.309
66899W        W39159  16.783  38.441   0.779
66900W        W39160   0.249  22.551  14.359
66901W        W39161  35.577   7.897   0.802
66902W        W39162  24.105  13.298   3.380
66903W        W39163  38.354  30.915  10.528
66904W        W39164  40.328  17.748   3.361
66905W        W39165   5.863  36.516   4.132
66906W        W39166   7.888  26.502   5.623
66907W        W39167  38.044   5.913   1.358
66908W        W39168  35.945  24.483   3.634
66909W        W39169   6.186  21.573  13.805
66910W        W39170  18.589   5.225  14.412
66911W        W39171  26.643  27.450  13.532
66912W        W39172  21.172  26.143   2.179
66913W        W39173  16.577  20.621   3.632
66914W        W39174  38.432   1.872   0.464
66915W        W39175   2.229  31.008  11.500
66916W        W39176  10.306  44.483  13.864
66917W        W39177  44.307  39.897   1.310
66918W        W39178  24.661  14.616  13.995
66919W        W39179  13.203   1.342   3.176
66920W        W39180  44.469  40.942  14.456
66921W        W39181  28.540  28.002   1.370
66922W        W39182  23.012  24.641  10.434
66923W        W39183  39.910  31.419  11.020
66924W        W39184   4.851  13.600   2.830
66925W        W39185  32.009   9.326   2.870
66926W        W39186  38.958   6.731  12.580
66927W        W39187  39.959   2.247  14.986
66928W        W39188  42.368  20.599   3.657
66929W        W39189  13.675  22.583   1.369
66930W        W39190   2.902  16.094   3.282
66931W        W39191   6.896   1.383   4.643
66932W        W39192   8.303  22.133  10.567
66933W        W39193  17.794  37.905  11.393
66934W        W39194  38.487  21.207  11.076
66935W        W39195  29.606  32.634  12.400
66936W        W39196  32.939  31.444  12.433
66937W        W39197  29.509  10.352   1.400
66938W        W39198  27.980   3.782  10.468
66939W        W39199  30.026  39.064   2.322
66940W        W39200  10.232  21.043  14.423
66941W        W39201  12.686  36.904  13.830
66942W        W39202  13.664  29.670   1.244
66943W        W39203  13.308  27.557   3.324
66944W        W39204  42.393  31.131   4.631
66945W        W39205   4.217  38.824  12.413
66946W        W39206  10.234   7.330  13.852
66947W        W39207  34.114  20.203   4.194
66948W        W39208  26.135   3.278  10.941
66949W        W39209  19.214   2.892  14.371
66950W        W39210  28.615  40.880   4.343
66951W        W39211   9.863  33.570  13.493
66952W        W39212  37.984  10.708  13.970
66953W        W39213   6.826  38.048  12.396
66954W        W39214  13.788  15.238  11.414
66955W        W39215   0.835  24.513   4.740
66956W        W39216  29.522  27.953   2.412
66957W        W39217  17.590  36.045  12.342
66958W        W39218  14.745  24.567   3.216
66959W        W39219  30.162  40.458  12.372
66960W        W39220  27.043   8.878   1.391
66961W        W39221  29.950  44.765   3.828
66962W        W39222   8.213   0.419  13.998
66963W        W39223  16.808  15.795  13.347
66964W        W39224  22.549  19.618   1.815
66965W        W39225   9.778  39.378  12.379
66966W        W39226  23.516   7.781  13.547
66967W        W39227  27.671  32.041  11.531
66968W        W39228   0.863  22.515   1.438
66969W        W39229  31.140  10.286  11.100
66970W        W39230   5.803  21.679   3.173
66971W        W39231  13.840  17.715   0.279
66972W        W39232   0.966   4.922   1.362
66973W        W39233  38.836  23.583   4.284
66974W        W39234   2.869   4.408  12.003
66975W        W39235   1.354  13.293  14.811
66976W        W39236  35.375   8.370  14.330
66977W        W39237   7.904  28.058  14.991
66978W        W39238  20.552  40.349  10.496
66979W        W39239  32.582   3.758  13.993
66980W        W39240  40.876   8.190  14.853
66981W        W39241   6.259  14.296   3.297
66982W        W39242   6.874  35.094   0.321
66983W        W39243  10.289  41.876   3.644
66984W        W39244  28.106  36.969   0.956
66985W        W39245  25.035  42.968  11.870
66986W        W39246  34.588   4.429  14.387
66987W        W39247  41.893  30.929  11.564
66988W        W39248  26.483  33.482  12.394
66989W        W39249  19.629   7.800  12.409
66990W        W39250  19.585   7.812   2.733
66991W        W39251  21.664  33.085  11.091
66992W        W39252  18.189  21.056   9.996
66993W        W39253  16.092  19.081  11.110
66994W        W39254  22.167  24.499  11.510
66995W        W39255  22.190   9.871  13.436
66996W        W39256  13.804  13.814  13.910
66997W        W39257   5.418  39.895   2.318
66998W        W39258  14.606  33.579   2.220
66999W        W39259   4.741   6.863   3.236
67000W        W39260  32.952  43.972  11.106
67001W        W39261  22.022  21.615  13.033
67002W        W39262  19.183  23.217  12.857
67003W        W39263  38.502  17.710   0.868
67004W        W39264  18.686  35.600  14.918
67005W        W39265  43.976  29.518  10.563
67006W        W39266  41.408  38.965   2.716
67007W        W39267  38.891  30.487   2.889
67008W        W39268  30.963  35.038   4.676
67009W        W39269   7.352  17.291   2.223
67010W        W39270   7.240  44.838  13.405
67011W        W39271  34.491  39.456   1.396
67012W        W39272  15.642   2.743  14.005
67013W        W39273  17.236  13.242   1.405
67014W        W39274  33.543  16.104   2.889
67015W        W39275   6.783  29.669  12.898
67016W        W39276  38.366  41.923   3.673
67017W        W39277  11.731  43.395   0.947
67018W        W39278   5.207   3.363   0.334
67019W        W39279  20.098  23.241  14.784
67020W        W39280  26.633  23.705   3.697
67021W        W39281  13.823  20.218  13.885
67022W        W39282  18.554  41.361   3.325
67023W        W39283  34.605  19.558   3.679
67024W        W39284  26.657   3.350  11.957
67025W        W39285   4.427  14.759  12.534
67026W        W39286  28.662   3.920   0.837
67027W        W39287  27.181  10.268   4.697
67028W        W39288  36.973  11.784  12.913
67029W        W39289  28.654  36.515   0.774
67030W        W39290  19.149   9.743   3.232
67031W        W39291  44.809  14.161  14.841
67032W        W39292  20.252   7.277  11.928
67033W        W39293   3.424  44.320  11.030
67034W        W39294  32.926  44.856   4.727
67035W        W39295  16.271  15.235  12.095
67036W        W39296  25.669  42.523  11.538
67037W        W39297  41.851  18.131  12.368
67038W        W39298  11.305   8.889   1.925
67039W        W39299   2.464  25.990   3.245
67040W        W39300  39.975  32.490  10.955
67041W        W39301   3.823  33.625  14.819
67042W        W39302  15.626  15.740  14.371
67043W        W39303  35.015  35.956  13.371
67044W        W39304  41.444   7.806  13.477
67045W        W39305  35.588  28.068  11.408
67046W        W39306   8.836  44.438  12.021
67047W        W39307  43.820  25.069  11.895
67048W        W39308  44.939  23.642  12.574
67049W        W39309  27.164  30.544   5.180
67050W        W39310  36.998  15.773  11.416
67051W        W39311   9.196  17.578  12.393
67052W        W39312  13.738   8.273   0.816
67053W        W39313   6.904  18.764  11.554
67054W        W39314   6.426  34.377   0.428
67055W        W39315  11.304  24.668  11.912
67056W        W39316  28.031  15.217   2.787
67057W        W39317  22.098  35.589  10.563
67058W        W39318   6.914  35.467   0.964
67059W        W39319  38.429  25.176   0.416
67060W        W39320   1.333   8.401  10.501
67061W        W39321   4.902   8.396   3.355
67062W        W39322  36.991  22.539   2.211
67063W        W39323  14.310  26.682   0.272
67064W        W39324  20.163  29.669  10.918
67065W        W39325  12.831  37.502  14.292
67066W        W39326  36.900  16.659   1.760
67067W        W39327  44.373  44.466  14.938
67068W        W39328  18.100   7.362  13.015
67069W        W39329   0.404  35.558   1.229
67070W        W39330  34.901  33.622  14.408
67071W        W39331  14.315  41.914  11.587
67072W        W39332  42.855  35.423   3.655
67073W        W39333  34.050   8.249   0.866
67074W        W39334  29.636  37.023  12.877
67075W        W39335  23.230  19.619  11.383
67076W        W39336  37.036  32.117  13.894
67077W        W39337  23.075   6.329   0.869
67078W        W39338   5.762  42.474  10.936
67079W        W39339   6.861  42.524   0.411
67080W        W39340   4.819  18.101  12.990
67081W        W39341  13.770  17.189  14.971
67082W        W39342  15.280  31.514   2.287
67083W        W39343   4.435  42.028   3.380
67084W        W39344  30.491  22.017   4.610
67085W        W39345  37.479  19.171   4.732
67086W        W39346  28.545   8.349  13.010
67087W        W39347   9.785  28.972   0.256
67088W        W39348  25.163  23.608  14.334
67089W        W39349  11.366  12.262   3.263
67090W        W39350  14.752  29.086   5.089
67091W        W39351  14.224  12.236   4.151
67092W        W39352  13.722  26.572  13.853
67093W        W39353   6.227  31.006   0.899
67094W        W39354  29.603  21.592   1.748
67095W        W39355  36.967  32.056   4.668
67096W        W39356  30.513   9.240  11.553
67097W        W39357  21.563  23.220   0.337
67098W        W39358  34.532  31.630   2.722
67099W        W39359  38.504   2.740  13.827
67100W        W39360  29.539  19.140  13.972
67101W        W39361  35.995  43.836  13.544
67102W        W39362  39.542  31.114  12.073
67103W        W39363  30.043  11.710   1.355
67104W        W39364  11.350   4.774  14.868
67105W        W39365  15.243  37.496  11.008
67106W        W39366  37.561  13.828  12.448
67107W        W39367  11.854  44.391   4.126
67108W        W39368   4.429  21.752  14.872
67109W        W39369  40.422   2.771   0.337
67110W        W39370   9.386  20.577   1.749
67111W        W39371  42.470   9.743  10.897
67112W        W39372   0.814  22.621  11.564
67113W        W39373   3.747  31.949   0.277
67114W        W39374  10.186  20.713   4.303
67115W        W39375  13.212   5.714  12.365
67116W        W39376  26.632  22.606  13.899
67117W        W39377   4.939  16.229   3.292
67118W        W39378  21.716  14.667   2.698
67119W        W39379   2.824  22.592   2.369
67120W        W39380  16.076  29.582  12.386
67121W        W39381  33.002  17.579   4.304
67122W        W39382  43.995  44.984  10.634
67123W        W39383  41.305  14.723  13.835
67124W        W39384  14.306   1.438  11.959
67125W        W39385   4.264  16.707  14.000
67126W        W39386  19.058  31.984   3.315
67127W        W39387  34.387  15.614   4.251
67128W        W39388   7.201  34.516   0.896
67129W        W39389  31.963  29.568   4.669
67130W        W39390   1.332  42.428   4.290
67131W        W39391  28.963  19.069   2.259
67132W        W39392  22.692  27.658  10.525
67133W        W39393  40.491  38.552  11.951
67134W        W39394   4.426  16.133   1.913
67135W        W39395  35.084  42.288  10.914
67136W        W39396  25.516  31.501  12.028
67137W        W39397  22.701  23.150   3.361
67138W        W39398  38.035   6.369   3.741
67139W        W39399   1.257  33.931  10.928
67140W        W39400  15.634  17.758   3.670
67141W        W39401  44.403  37.884  10.073
67142W        W39402  37.508  30.147  10.593
67143W        W39403  42.900  31.639  12.447
67144W        W39404  44.334  15.259  14.782
67145W        W39405  25.029  20.269   4.244
67146W        W39406  19.688  38.835   1.341
67147W        W39407  20.121  19.158   1.801
67148W        W39408  29.985  27.118  10.558
67149W        W39409  15.707  44.468  13.479
67150W        W39410  11.769  33.900   3.192
67151W        W39411  38.904  13.684   1.369
67152W        W39412   0.903  37.484   1.334
67153W        W39413  18.644  43.499  14.914
67154W        W39414   9.282  31.995   2.232
67155W        W39415  28.472  28.521  11.532
67156W        W39416  40.370  15.196  12.036
67157W        W39417  19.762  28.670  13.975
67158W        W39418  22.511  10.173   3.311
67159W        W39419  13.257   9.841   3.237
67160W        W39420  13.629  30.446   5.160
67161W        W39421  17.269  32.994   0.345
67162W        W39422  29.035   6.345   2.701
67163W        W39423  11.138  32.418  12.989
67164W        W39424   2.368  20.526  12.408
67165W        W39425  24.022   4.935   5.185
67166W        W39426   0.394  10.334   4.231
67167W        W39427  13.659  15.286   0.751
67168W        W39428  13.293  31.533  11.868
67169W        W39429   0.436  16.765  11.555
67170W        W39430   8.851  34.009   0.448
67171W        W39431  15.777   1.316  14.875
67172W        W39432  24.201  11.294   3.154
67173W        W39433  34.992  43.387   1.934
67174W        W39434  29.649  24.540   2.756
67175W        W39435  37.968  23.165   0.384
67176W        W39436  26.698  42.815   5.167
67177W        W39437  40.820  24.483  12.491
67178W        W39438   4.885  11.138   4.714
67179W        W39439  16.203  17.716  11.048
67180W        W39440  22.614   0.878  10.999
67181W        W39441  11.708  41.442   9.936
67182W        W39442  13.185  14.203  10.644
67183W        W39443  43.478  33.932   1.881
67184W        W39444   0.339  32.141  11.096
67185W        W39445  28.968  22.518  10.550
67186W        W39446  26.094   9.771   1.241
67187W        W39447  13.764  32.887  14.028
67188W        W39448   3.757   3.748   0.866
67189W        W39449  22.518  23.145   0.341
67190W        W39450  33.575   8.185   1.735
67191W        W39451  19.755  37.852   2.662
67192W        W39452  21.678  22.535  14.932
67193W        W39453  44.844  15.293  13.936
67194W        W39454  41.304  28.504  11.440
67195W        W39455  12.341  22.234  11.896
67196W        W39456  40.956  31.028  11.591
67197W        W39457  36.480  28.453  11.455
67198W        W39458   6.351  35.965  12.004
67199W        W39459   7.229  41.020  13.537
67200W        W39460   3.328  40.816   2.756
67201W        W39461  14.222  28.161   9.933
67202W        W39462   4.281  42.982  13.520
67203W        W39463  35.398   0.970   0.479
67204W        W39464   4.379  17.208   4.703
67205W        W39465  23.618  39.813   4.207
67206W        W39466  31.505  39.332  10.622
67207W        W39467   6.406  22.061   0.776
67208W        W39468  14.631  39.039  10.509
67209W        W39469  10.146  41.980   4.258
67210W        W39470  41.462  42.423  14.304
67211W        W39471  34.457  25.664   1.440
67212W        W39472  27.544  34.078   1.431
67213W        W39473  41.863   4.856  14.357
67214W        W39474  20.220  28.508   3.671
67215W        W39475  24.130   0.987  12.860
67216W        W39476  10.338   2.321  12.340
67217W        W39477  18.109   2.468   1.433
67218W        W39478  14.113  44.887   1.296
67219W        W39479  31.000  38.513   3.639
67220W        W39480  16.657  33.518   3.280
67221W        W39481  15.197  12.629  11.063
67222W        W39482  44.284  16.202  11.998
67223W        W39483   2.743  37.905  10.577
67224W        W39484   5.795   0.963   3.193
67225W        W39485   6.337  11.742  11.440
67226W        W39486   0.349  41.791   3.708
67227W        W39487  21.670  21.679  10.500
67228W        W39488  11.264   0.338   1.239
67229W        W39489  22.192  13.710   3.871
67230W        W39490   3.394  40.802   0.385
67231W        W39491  39.049  14.281  13.823
67232W        W39492  10.184  15.607  11.885
67233W        W39493  32.898   1.254   0.732
67234W        W39494  24.696   8.894   1.755
67235W        W39495   5.712  36.926   2.848
67236W        W39496  42.016  22.042   3.383
67237W        W39497  21.609  14.769  11.888
67238W        W39498  25.215  38.400  14.853
67239W        W39499  34.605  34.567  14.888
67240W        W39500  17.145   6.337   1.233
67241W        W39501   4.267  21.736   0.788
67242W        W39502  38.829  43.495  13.443
67243W        W39503  22.147  37.047   4.707
67244W        W39504  38.067  22.659   3.268
67245W        W39505  41.983  28.037  13.911
67246W        W39506  20.068  32.016  12.930
67247W        W39507  37.855   8.863   3.174
67248W        W39508  42.777  13.799  12.918
67249W        W39509  14.314  31.932  11.563
67250W        W39510  23.711   5.785   4.772
67251W        W39511  20.048  17.160   4.302
67252W        W39512  42.905   4.929  12.339
67253W        W39513  13.705  31.520   0.357
67254W        W39514  37.048   5.885  11.592
67255W        W39515  13.161   4.374   1.783
67256W        W39516   7.694  17.121  12.543
67257W        W39517  32.909  43.787   0.940
67258W        W39518  38.935   0.258  10.041
67259W        W39519  25.681  34.939  12.380
67260W        W39520   3.851  37.574  14.311
67261W        W39521  28.638  44.839   1.343
67262W        W39522  32.046  43.425  11.972
67263W        W39523  15.620   2.226   4.307
67264W        W39524   5.696  14.729  11.865
67265W        W39525  31.468   2.747   1.372
67266W        W39526  20.033  21.093  11.477
67267W        W39527  33.908  29.670  14.989
67268W        W39528  41.005  10.326  13.451
67269W        W39529   7.197  16.292   4.718
67270W        W39530   2.724  44.876   2.716
67271W        W39531  42.958  15.220  13.867
67272W        W39532  32.531  10.289  10.123
67273W        W39533  28.472   6.388  12.824
67274W        W39534   9.816  16.094  13.064
67275W        W39535  41.969   6.216   3.313
67276W        W39536  21.154  28.944   2.757
67277W        W39537   3.753  16.637  14.421
67278W        W39538  39.369  15.753  12.836
67279W        W39539  16.686  23.007  12.084
67280W        W39540  41.418  12.194  13.544
67281W        W39541  35.901  36.935  13.906
67282W        W39542  26.508  24.065  13.472
67283W        W39543  29.590  16.220   4.695
67284W        W39544   9.850  37.511   4.685
67285W        W39545   1.960   4.793  14.026
67286W        W39546  32.066  19.638  10.089
67287W        W39547  32.991  39.381   0.441
67288W        W39548  44.946   4.835  14.965
67289W        W39549  19.564  22.604  11.582
67290W        W39550  14.165   5.277  13.040
67291W        W39551  25.173  42.402  14.977
67292W        W39552  25.016  29.426  14.491
67293W        W39553  26.020  43.418   3.697
67294W        W39554  42.414   3.956  12.530
67295W        W39555  23.628   6.305   3.354
67296W        W39556  23.022  26.665   3.864
67297W        W39557   4.244  39.349  14.839
67298W        W39558  11.131   0.443  13.910
67299W        W39559   1.771   5.248   3.719
67300W        W39560  15.263   5.692   4.685
67301W        W39561   5.852   4.352  11.576
67302W        W39562   1.438   6.858  10.437
67303W        W39563   2.746  14.251   1.374
67304W        W39564  23.619  24.527  11.890
67305W        W39565  26.993   2.447   3.713
67306W        W39566  10.792  14.634  12.882
67307W        W39567  31.595  24.704   2.710
67308W        W39568   1.901  15.136  13.398
67309W        W39569   9.668  15.098  14.370
67310W        W39570  16.214  10.349  11.451
67311W        W39571  12.270  39.330   1.418
67312W        W39572  20.105  38.562   3.832
67313W        W39573  13.619   3.404  11.559
67314W        W39574  42.992  20.645   2.784
67315W        W39575   4.264  30.932  12.077
67316W        W39576  43.018   2.766   1.782
67317W        W39577  42.892  20.607   1.875
67318W        W39578  24.624   7.665   0.948
67319W        W39579  37.351  11.690   0.883
67320W        W39580   5.417  42.777   0.954
67321W        W39581  37.077   5.884  13.448
67322W        W39582  33.511  25.544   5.152
67323W        W39583  14.283   1.777  13.462
67324W        W39584  25.517  38.535  11.912
67325W        W39585  37.391  20.222  13.918
67326W        W39586   0.433  35.489  14.907
67327W        W39587  37.538  15.324   2.325
67328W        W39588  21.217  31.017  11.998
67329W        W39589  44.826  27.054   0.359
67330W        W39590  28.503  19.572  13.929
67331W        W39591  19.606  33.578   2.800
67332W        W39592  41.803  37.459  12.038
67333W        W39593   4.783   3.249   2.359
67334W        W39594  13.831  37.085  12.352
67335W        W39595  40.329   8.340  11.410
67336W        W39596  13.707   2.307  10.915
67337W        W39597  22.130  27.089  13.315
67338W        W39598  19.088   5.761  13.814
67339W        W39599  25.569  43.768   0.315
67340W        W39600   1.874  26.196  14.773
67341W        W39601  22.216  24.531   4.298
67342W        W39602  37.990  24.058  12.970
67343W        W39603  20.270  42.025  11.487
67344W        W39604  27.512  20.051   4.732
67345W        W39605  31.575  14.644   4.338
67346W        W39606   6.313  43.005   0.341
67347W        W39607  42.455  39.823   1.257
67348W        W39608  10.641  16.218  14.813
67349W        W39609   9.250  23.123   4.132
67350W        W39610   5.383  12.124  11.382
67351W        W39611  44.008  16.120   3.809
67352W        W39612  37.895  33.396   0.848
67353W        W39613  31.963   5.847   1.775
67354W        W39614  19.226  39.019  11.604
67355W        W39615  36.941  13.146   2.694
67356W        W39616  16.749  15.665  14.764
67357W        W39617  40.014  42.979   0.730
67358W        W39618  31.948  13.254   5.091
67359W        W39619  11.251  22.705   1.874
67360W        W39620   1.778  36.369  14.359
67361W        W39621  42.950   1.435  14.003
67362W        W39622  25.580   3.374  12.470
67363W        W39623  28.519  39.467   1.913
67364W        W39624  24.097  36.077  10.905
67365W        W39625   8.364  11.672   1.879
67366W        W39626  29.559  41.403   0.905
67367W        W39627  34.932  17.158   4.739
67368W        W39628  18.184  40.027  13.838
67369W        W39629  35.909  11.298   0.414
67370W        W39630  36.010   6.841   2.267
67371W        W39631  20.658  40.009   3.761
67372W        W39632   0.899  23.032   3.680
67373W        W39633   8.682  23.230  11.999
67374W        W39634  20.713  29.017  11.054
67375W        W39635  39.823  14.254   3.743
67376W        W39636  14.185   5.405   1.776
67377W        W39637  31.938  15.745   2.419
67378W        W39638  15.750  32.014  10.011
67379W        W39639  13.265  11.624  13.022
67380W        W39640  32.416   4.901  11.545
67381W        W39641  40.892  19.212   2.837
67382W        W39642  23.015  20.069   4.337
67383W        W39643  15.599  15.303   2.708
67384W        W39644   8.334   0.455   2.738
67385W        W39645  26.520  15.766  10.161
67386W        W39646  23.191  16.283   4.339
67387W        W39647  35.500  37.425  12.567
67388W        W39648  22.679  13.663  13.934
67389W        W39649  23.123  42.830  12.507
67390W        W39650  21.091  27.453   4.770
67391W        W39651  25.500   7.841  14.390
67392W        W39652  33.498  25.637  12.011
67393W        W39653  36.086  32.987  14.476
67394W        W39654   2.883  30.423   0.932
67395W        W39655   1.874  18.636  12.339
67396W        W39656  20.085  22.664   3.218
67397W        W39657  31.645  32.609   0.443
67398W        W39658  23.581   7.349  13.396
67399W        W39659  27.644   0.428  14.462
67400W        W39660  20.620   2.907   0.339
67401W        W39661  36.461   8.337   2.325
67402W        W39662  31.625   2.444  12.382
67403W        W39663  39.482  10.276   0.930
67404W        W39664  27.607  21.700  11.607
67405W        W39665  28.972  13.753   0.435
67406W        W39666  33.482  22.712   2.236
67407W        W39667  13.659  24.226  11.895
67408W        W39668   5.798  20.075  13.949
67409W        W39669   3.267  37.398  12.558
67410W        W39670  33.583   3.218   1.403
67411W        W39671  32.982   3.259   2.212
67412W        W39672   5.279   2.306  14.434
67413W        W39673  44.862  31.022   1.736
67414W        W39674   8.371  20.054   3.682
67415W        W39675  39.879   0.780  13.385
67416W        W39676  31.927  14.706  11.859
67417W        W39677  38.949  29.583   4.314
67418W        W39678  27.074   5.795  14.863
67419W        W39679  40.461  20.738  13.971
67420W        W39680  36.436  12.750   4.684
67421W        W39681  43.823  27.147  14.306
67422W        W39682  21.749  39.398   3.653
67423W        W39683  16.084   4.393  14.961
67424W        W39684  40.492   5.307  10.438
67425W        W39685   4.738  16.744   1.814
67426W        W39686  28.678  18.614   4.659
67427W        W39687  12.217   3.364   3.252
67428W        W39688   0.316  19.168  14.504
67429W        W39689   5.419  43.946  12.858
67430W        W39690  15.262  33.125   1.300
67431W        W39691  44.444  21.157   1.268
67432W        W39692  36.078   9.697  10.522
67433W        W39693   0.801  37.003  11.933
67434W        W39694   0.926  34.371   2.897
67435W        W39695   2.794  20.660  12.413
67436W        W39696  21.572  15.810   1.736
67437W        W39697  12.354  27.602  13.047
67438W        W39698  25.662  27.568  12.379
67439W        W39699  14.179  20.569   4.827
67440W        W39700   0.803  43.407  10.499
67441W        W39701  38.539   4.398  13.063
67442W        W39702  20.067  19.637   4.668
67443W        W39703  42.494  41.488  14.502
67444W        W39704  39.824  11.340  10.566
67445W        W39705  42.379   9.670  13.331
67446W        W39706  37.920   1.409  13.513
67447W        W39707  33.447  34.435  14.763
67448W        W39708   0.946  15.248  13.384
67449W        W39709  22.517  14.740   4.227
67450W        W39710  19.771   7.189  11.478
67451W        W39711   2.908  19.533  10.623
67452W        W39712  34.531  24.177   4.634
67453W        W39713  35.539  31.055  13.319
67454W        W39714  27.555   8.221   0.369
67455W        W39715  33.028  12.826  14.971
67456W        W39716  19.768  41.995  12.078
67457W        W39717  33.906  15.166   3.216
67458W        W39718   6.257  42.394  13.950
67459W        W39719  28.029  42.368   4.700
67460W        W39720   2.373  17.787  11.051
67461W        W39721  31.560  41.438   2.414
67462W        W39722  32.971  31.137   1.248
67463W        W39723  38.061  13.120  13.977
67464W        W39724  14.238  44.420  13.883
67465W        W39725  28.446  28.073  10.569
67466W        W39726  17.133  41.378  13.974
67467W        W39727  29.447   0.256  14.352
67468W        W39728   9.223  17.075   5.106
67469W        W39729   3.383  36.909  12.852
67470W        W39730  31.599  14.684  11.558
67471W        W39731  38.015  11.781  13.307
67472W        W39732   7.218  22.146  12.071
67473W        W39733  32.614  23.652   4.155
67474W        W39734  19.684  30.639   3.797
67475W        W39735   8.170   4.844   4.195
67476W        W39736  39.559  20.188  10.492
67477W        W39737  12.290  12.717  14.958
67478W        W39738  24.713  28.490   3.848
67479W        W39739  15.599  24.558  14.988
67480W        W39740  33.944  35.934  12.867
67481W        W39741  14.191  37.512  14.769
67482W        W39742  36.544   3.747   4.769
67483W        W39743   2.256  42.332  11.968
67484W        W39744  36.460   5.364   4.321
67485W        W39745  13.618   1.949  12.348
67486W        W39746   9.889   2.886  12.025
67487W        W39747   6.249  33.061  14.803
67488W        W39748   8.749  14.183  13.347
67489W        W39749  12.342  39.843   1.442
67490W        W39750   2.353  10.787  12.850
67491W        W39751  27.051  16.585  14.408
67492W        W39752  33.035   0.972   3.647
67493W        W39753  32.504  38.537  12.085
67494W        W39754  31.035  23.185   3.158
67495W        W39755  33.069   0.422   1.245
67496W        W39756  13.341   7.812   1.730
67497W        W39757  24.035   2.807  12.942
67498W        W39758  17.644  27.452  13.930
67499W        W39759  40.327  36.428  14.996
67500W        W39760  15.738  15.186  11.962
67501W        W39761  24.552  10.712  13.056
67502W        W39762  23.489  10.735   1.865
67503W        W39763  14.627  23.701  14.871
67504W        W39764  42.010  33.980   4.598
67505W        W39765  14.163  19.638   3.807
67506W        W39766  32.114  12.265   3.748
67507W        W39767  14.734   4.822  14.297
67508W        W39768  19.244  33.396   4.315
67509W        W39769  42.799   6.416  11.546
67510W        W39770  18.674  34.057  12.017
67511W        W39771   2.368  24.195  14.025
67512W        W39772  13.223   2.283  13.394
67513W        W39773  41.870   3.323   3.183
67514W        W39774  43.399  44.480   4.280
67515W        W39775  33.430  10.746   3.717
67516W        W39776  13.311  26.679   3.757
67517W        W39777  22.697  44.907  11.955
67518W        W39778  32.450   4.787   4.219
67519W        W39779   0.747  14.192   1.326
67520W        W39780   2.895   7.214  14.767
67521W        W39781  18.173  43.915   4.803
67522W        W39782  10.188  19.060   5.317
67523W        W39783  10.358  20.146  13.897
67524W        W39784  14.241  26.033   0.304
67525W        W39785   1.859   0.441   2.866
67526W        W39786  12.250   0.853   4.626
67527W        W39787  36.406  11.731  10.505
67528W        W39788  14.657  16.632   3.197
67529W        W39789   1.978  28.569   1.262
67530W        W39790   5.242  27.096  14.029
67531W        W39791  16.635  26.999   0.951
67532W        W39792  39.433  28.964   4.341
67533W        W39793  34.929  23.584  10.891
67534W        W39794  40.006  44.315  12.055
67535W        W39795   4.232   8.184  13.472
67536W        W39796  31.057  10.733   4.732
67537W        W39797  17.767   5.330   0.794
67538W        W39798  15.219  29.426   4.345
67539W        W39799  38.350   2.737  13.521
67540W        W39800   7.860  24.034   2.346
67541W        W39801  13.326   4.808   4.790
67542W        W39802  17.223  32.405   0.422
67543W        W39803   7.817  35.563   3.641
67544W        W39804  18.203  44.395  11.982
67545W        W39805  30.025  20.227   0.282
67546W        W39806  41.316   0.983   1.892
67547W        W39807   7.358  32.412  12.566
67548W        W39808  25.116  30.599   3.841
67549W        W39809   7.291  42.308  12.044
67550W        W39810  27.994  22.186   1.346
67551W        W39811   6.737  11.634  12.354
67552W        W39812   3.286   9.763  12.857
67553W        W39813  30.961  12.246  11.488
67554W        W39814   7.792   6.244  14.341
67555W        W39815  39.859  25.549   3.378
67556W        W39816  40.465  41.412   4.171
67557W        W39817  22.632  33.128  13.361
67558W        W39818  39.870  44.374  12.891
67559W        W39819  24.627  26.972  13.837
67560W        W39820  10.745  15.128  13.530
67561W        W39821  32.512  31.927   0.262
67562W        W39822  12.361  34.048   2.675
67563W        W39823  29.099  25.051   0.334
67564W        W39824   8.763  27.498   2.797
67565W        W39825  39.862  19.697  10.641
67566W        W39826  20.646  44.876  11.092
67567W        W39827   0.917  31.551  13.514
67568W        W39828  14.660  43.765  13.804
67569W        W39829  42.988  21.184  10.435
67570W        W39830  12.745   5.359   0.910
67571W        W39831  12.682  26.583   2.719
67572W        W39832  10.784  31.543   3.328
67573W        W39833   6.901  40.470   0.786
67574W        W39834   5.304  34.503   0.822
67575W        W39835  20.146   1.367  12.891
67576W        W39836  33.451  15.738  10.939
67577W        W39837  43.366  33.414   4.643
67578W        W39838  21.641  11.779  10.623
67579W        W39839  26.123  26.683  13.903
67580W        W39840  39.884  28.152   2.348
67581W        W39841   0.319  41.913  13.943
67582W        W39842  31.018   9.184   0.310
67583W        W39843  29.478  42.497   4.224
67584W        W39844  44.290  36.466  10.978
67585W        W39845  39.379  29.079   2.188
67586W        W39846   7.830  43.801  14.872
67587W        W39847  41.507  29.117  13.461
67588W        W39848  29.095  13.248   4.825
67589W        W39849  34.892  14.330  13.975
67590W        W39850   5.225  26.552   3.630
67591W        W39851  34.492   6.408   0.926
67592W        W39852  17.685  25.965   3.360
67593W        W39853  33.009  38.330  11.535
67594W        W39854  37.045   8.874   5.137
67595W        W39855  20.259  27.149   4.821
67596W        W39856  22.639  16.151   2.901
67597W        W39857  29.612  31.580   1.846
67598W        W39858  24.016  28.162  13.964
67599W        W39859   2.761  35.373  12.828
67600W        W39860  43.503  18.693  10.513
67601W        W39861   4.360  23.530  14.479
67602W        W39862  39.049  35.505  14.836
67603W        W39863  34.041  34.447  12.537
67604W        W39864   7.721  24.081  12.918
67605W        W39865  19.572  32.447  13.461
67606W        W39866  33.471  22.594   0.796
67607W        W39867   0.293  19.102   2.784
67608W        W39868  37.081  21.665  13.424
67609W        W39869  38.016  10.286  10.141
67610W        W39870  34.387   9.682  14.991
67611W        W39871   1.780  31.907   4.774
67612W        W39872  36.920  16.288   1.780
67613W        W39873  20.214  14.324   4.675
67614W        W39874  14.268  39.398   0.434
67615W        W39875  14.674  26.177   3.277
67616W        W39876  23.663  24.629   3.739
67617W        W39877   5.343  35.596   4.342
67618W        W39878   0.382  28.164  13.931
67619W        W39879  13.214  14.728  12.826
67620W        W39880  25.690   3.332   3.271
67621W        W39881  23.993  28.497   3.257
67622W        W39882  33.433   3.943  14.901
67623W        W39883  18.627  16.620   1.253
67624W        W39884  33.990  18.757   0.936
67625W        W39885  31.926  35.549   4.350
67626W        W39886  21.073   5.275  11.486
67627W        W39887   5.265  25.170  12.046
67628W        W39888  28.938  44.308   3.252
67629W        W39889  39.461  23.598   1.247
67630W        W39890  15.112  14.233   3.266
67631W        W39891  18.267   5.344   4.647
67632W        W39892  36.544  28.479  10.510
67633W        W39893   0.361  24.172   0.755
67634W        W39894  43.777  22.623   4.322
67635W        W39895  32.560   0.380  11.395
67636W        W39896   1.777  10.204   2.274
67637W        W39897   2.278  26.956   3.358
67638W        W39898  14.750  26.061  11.602
67639W        W39899  10.148  28.002   3.214
67640W        W39900  38.496  14.730  11.880
67641W        W39901  33.487  12.164   1.381
67642W        W39902  19.049  26.628  14.976
67643W        W39903  32.469  35.593  10.965
67644W        W39904  36.062  44.367   0.844
67645W        W39905  10.170  20.108   4.137
67646W        W39906   7.390   5.308  14.801
67647W        W39907  44.810  14.660   2.375
67648W        W39908  27.970  19.231   4.315
67649W        W39909  44.959   0.750   4.778
67650W        W39910  14.762   2.416   0.917
67651W        W39911  41.788  12.616   3.241
67652W        W39912  12.173  23.585   4.219
67653W        W39913  26.956  17.762   2.775
67654W        W39914  24.714   7.209   2.241
67655W        W39915  39.397  36.910  12.935
67656W        W39916  18.213  18.622   2.684
67657W        W39917   8.367  36.589  11.487
67658W        W39918  22.218  22.534  11.404
67659W        W39919   5.330  21.141   3.238
67660W        W39920  22.021   7.266  13.472
67661W        W39921  43.939   1.775   1.329
67662W        W39922   0.314  16.640   3.307
67663W        W39923   8.263  14.111   4.831
67664W        W39924  36.391   5.780   1.839
67665W        W39925   7.875  10.213   9.944
67666W        W39926  33.619  18.705   2.754
67667W        W39927  20.727  17.569   0.381
67668W        W39928  22.183  21.140   9.440
67669W        W39929  27.584  26.980   0.343
67670W        W39930  11.644  44.451  11.086
67671W        W39931  28.605   8.207  13.397
67672W        W39932  17.690   2.233  10.939
67673W        W39933   0.793   8.884   4.273
67674W        W39934  20.241  30.479  12.497
67675W        W39935  37.453   7.863  12.999
67676W        W39936  10.667  31.017   0.396
67677W        W39937   7.736  28.450  14.802
67678W        W39938  23.712  23.522  13.892
67679W        W39939  16.708  30.635  10.980
67680W        W39940   9.811  22.081   0.762
67681W        W39941  15.300  32.990  13.944
67682W        W39942   8.794  25.179  12.433
67683W        W39943   5.876  20.227   2.217
67684W        W39944  35.081  10.259  10.640
67685W        W39945  18.203  30.925  11.909
67686W        W39946  38.506  26.091  13.485
67687W        W39947  36.545   2.846  13.349
67688W        W39948  24.638  40.535   3.677
67689W        W39949   7.835  13.200  13.444
67690W        W39950   7.233  26.209  11.388
67691W        W39951  23.018  43.274  12.447
67692W        W39952   7.307  13.643   1.325
67693W        W39953   5.407  21.670  14.872
67694W        W39954   3.393  20.124  12.495
67695W        W39955  32.071  42.930  12.911
67696W        W39956  35.020  36.366   1.713
67697W        W39957  40.511  14.340   1.924
67698W        W39958  12.284  22.736   2.887
67699W        W39959  36.975  14.758  12.040
67700W        W39960  40.362  41.977  14.776
67701W        W39961   5.386  22.596  11.029
67702W        W39962  43.472  23.099   4.715
67703W        W39963  35.391  15.297   2.182
67704W        W39964  39.037  19.638   1.353
67705W        W39965  36.560  10.218   4.162
67706W        W39966   2.922  15.710   1.763
67707W        W39967  21.680  42.019   2.340
67708W        W39968  10.812  11.837  12.938
67709W        W39969  33.897  20.187   2.862
67710W        W39970  25.670  17.229  10.974
67711W        W39971   6.373   5.414  10.947
67712W        W39972   8.822   2.817   0.397
67713W        W39973   2.458  17.210   1.365
67714W        W39974  15.807  32.016  11.997
67715W        W39975   4.719  11.677   0.794
67716W        W39976  34.413  29.488  13.411
67717W        W39977  23.562  42.887   3.796
67718W        W39978  19.645  35.436   0.798
67719W        W39979   2.429  21.251   2.668
67720W        W39980  23.594   6.243  11.372
67721W        W39981  30.456  44.998   3.333
67722W        W39982  17.718  44.294  10.558
67723W        W39983  32.139  41.412  12.898
67724W        W39984   4.410  12.272  14.954
67725W        W39985   9.752   7.707  11.893
67726W        W39986  35.102  11.817  13.799
67727W        W39987  41.484  36.050  10.950
67728W        W39988   5.341  32.497  11.987
67729W        W39989   5.334  17.231  10.905
67730W        W39990   4.723  44.915  14.353
67731W        W39991  23.702  31.622  13.851
67732W        W39992  43.992  10.202  13.833
67733W        W39993  43.920  43.370  14.809
67734W        W39994  27.169  33.081  13.007
67735W        W39995  25.577  30.512  14.799
67736W        W39996  21.219  28.094   4.797
67737W        W39997  20.565  21.143  13.378
67738W        W39998  34.053  44.801  12.343
67739W        W39999  24.719  23.645  13.441
67740W        W40000  12.718  27.605   1.737
67741W        W40001  30.064   4.224   3.309
67742W        W40002  27.073  38.922  12.992
67743W        W40003  21.059   7.291   1.819
67744W        W40004  33.085  11.306   0.863
67745W        W40005  15.698  19.121  11.049
67746W        W40006  37.888  23.035   1.878
67747W        W40007  14.317  38.513   0.259
67748W        W40008  32.982  16.792  11.470
67749W        W40009  26.611   0.968  12.839
67750W        W40010  18.064  11.348   4.170
67751W        W40011  38.994   7.901   1.400
67752W        W40012  23.698  10.230  11.068
67753W        W40013  39.520  26.972   3.259
67754W        W40014  15.306  10.833  13.405
67755W        W40015   8.768  13.815   0.279
67756W        W40016  39.315   2.271  14.302
67757W        W40017   0.449  44.796   1.841
67758W        W40018  42.959  12.159  14.993
67759W        W40019  44.373  13.603  13.385
67760W        W40020  33.979  28.932   0.764
67761W        W40021  39.040   4.825  13.982
67762W        W40022  23.154  17.735  13.321
67763W        W40023  16.259  33.405   1.767
67764W        W40024  16.795   2.809   4.302
67765W        W40025  24.098  29.493   3.847
67766W        W40026  26.633  12.838  11.965
67767W        W40027  12.770  23.543   3.688
67768W        W40028  40.797  16.214   1.423
67769W        W40029  28.069  29.006   1.812
67770W        W40030  11.734  16.631   1.868
67771W        W40031  36.851  42.904   4.606
67772W        W40032  12.195  38.857   3.647
67773W        W40033   4.274  40.945   0.956
67774W        W40034  38.508  29.101  14.429
67775W        W40035  39.013  24.083  13.413
67776W        W40036  38.002  32.076  12.886
67777W        W40037  38.497  18.548  11.484
67778W        W40038  26.656  43.854  13.892
67779W        W40039  20.526   4.726  11.563
67780W        W40040  44.761   8.773   5.154
67781W        W40041  31.112  26.537   5.212
67782W        W40042   3.872  38.346  11.405
67783W        W40043   2.961  29.575  12.888
67784W        W40044   8.351  16.258  14.798
67785W        W40045  34.112  42.989   3.685
67786W        W40046  44.360  34.405  10.594
67787W        W40047  19.213  41.986   0.943
67788W        W40048  16.269  15.687  11.004
67789W        W40049   8.754  10.162   0.389
67790W        W40050  43.489  35.003  10.501
67791W        W40051  10.674  16.198   0.384
67792W        W40052  38.397  43.341   4.692
67793W        W40053   7.186  33.545   1.216
67794W        W40054  34.005  29.058  14.806
67795W        W40055  30.439  38.838   1.696
67796W        W40056  20.530  22.199   3.221
67797W        W40057   4.355  18.115   3.383
67798W        W40058   4.450   8.308  11.091
67799W        W40059  44.402   2.908  10.620
67800W        W40060  27.544  25.689   1.800
67801W        W40061  24.596  31.405  11.974
67802W        W40062  25.168  23.996   3.738
67803W        W40063   2.376  39.443   1.835
67804W        W40064   7.389  39.397  12.487
67805W        W40065  20.761  27.643   1.269
67806W        W40066  25.992  20.632   3.642
67807W        W40067  19.142   9.219   1.755
67808W        W40068  31.151  29.998   1.907
67809W        W40069  42.383  12.346  10.552
67810W        W40070  13.296   6.879   0.331
67811W        W40071  43.332  30.590   5.281
67812W        W40072  33.512   6.692  10.606
67813W        W40073  15.317  19.255   0.452
67814W        W40074  40.499  28.648  10.570
67815W        W40075  28.105  39.963  11.477
67816W        W40076  38.493  33.009  13.377
67817W        W40077  41.043   1.917  12.016
67818W        W40078  43.492  33.989   0.354
67819W        W40079  25.104  10.317  14.007
67820W        W40080   0.340  39.904   4.262
67821W        W40081  34.487  10.283  13.870
67822W        W40082  10.776  17.101  14.959
67823W        W40083   8.337  20.058  13.813
67824W        W40084  33.494   4.774   0.417
67825W        W40085  39.500   0.434   3.675
67826W        W40086  37.446  31.567   2.347
67827W        W40087  12.753  36.533   0.858
67828W        W40088  16.087  34.012  13.873
67829W        W40089  12.171  42.330  14.797
67830W        W40090   8.766  39.394   2.354
67831W        W40091  12.832  15.796  12.961
67832W        W40092  22.220  43.444  12.934
67833W        W40093  29.630  10.757  13.475
67834W        W40094  33.612  44.755  14.995
67835W        W40095   4.359   5.429  13.791
67836W        W40096  12.677  16.315  10.438
67837W        W40097  36.048  28.514  10.501
67838W        W40098  22.639  27.032  14.407
67839W        W40099   3.891  22.680  11.061
67840W        W40100  25.194  40.504  12.402
67841W        W40101   8.844  16.693   0.272
67842W        W40102  10.219  22.670  10.539
67843W        W40103  28.587  21.044   4.833
67844W        W40104  28.003  18.097   2.898
67845W        W40105  41.880  32.002  11.610
67846W        W40106  29.612  27.516  11.894
67847W        W40107  28.534   4.842   4.828
67848W        W40108  15.241  28.951  10.409
67849W        W40109   1.285  14.269   3.742
67850W        W40110  29.561  20.553   3.218
67851W        W40111  17.079   8.690  11.899
67852W        W40112  40.389   4.828   3.205
67853W        W40113  13.599   7.851  12.457
67854W        W40114  34.549  19.660   3.185
67855W        W40115  44.365   4.779  10.617
67856W        W40116   5.389  34.470   4.774
67857W        W40117  21.696   2.420  11.855
67858W        W40118  11.683  38.484  14.921
67859W        W40119  37.951  25.038  14.980
67860W        W40120  20.641   5.229   3.332
67861W        W40121  19.760  37.881   0.854
67862W        W40122  21.119  24.490   0.865
67863W        W40123  24.724  18.683  14.832
67864W        W40124  16.131   3.345   4.227
67865W        W40125  23.228  34.464  14.464
67866W        W40126  41.440   7.908  11.016
67867W        W40127  25.569  31.068  11.481
67868W        W40128  28.045  34.493  14.490
67869W        W40129  43.293  31.049  10.643
67870W        W40130  42.006  18.090  13.454
67871W        W40131  41.904  29.023  12.027
67872W        W40132  27.197   8.181   1.723
67873W        W40133   1.320   6.328  13.483
67874W        W40134  23.173  26.581   2.810
67875W        W40135  26.527  23.009   2.726
67876W        W40136  19.656  40.496   0.954
67877W        W40137  10.659  28.542  12.948
67878W        W40138   2.737  31.436   3.271
67879W        W40139  34.436  23.503  13.520
67880W        W40140  26.113  12.792  11.475
67881W        W40141  22.714  31.107   3.171
67882W        W40142   1.841  22.703  14.898
67883W        W40143  35.048  22.616   1.915
67884W        W40144  27.060   3.735  14.944
67885W        W40145  43.303   9.217   0.941
67886W        W40146  42.970   2.817   0.849
67887W        W40147  25.979  41.925  10.603
67888W        W40148  36.583  28.952   3.283
67889W        W40149  39.497  17.797  10.555
67890W        W40150  39.926  29.430  10.953
67891W        W40151  18.208  44.864   1.851
67892W        W40152  43.974  13.837   3.851
67893W        W40153  44.283  13.233  12.891
67894W        W40154  30.061  24.687   1.767
67895W        W40155  36.411  28.089  13.883
67896W        W40156  33.444  42.524  12.065
67897W        W40157  37.395   5.244   1.836
67898W        W40158  23.098  10.802  14.908
67899W        W40159  40.055  33.036  12.868
67900W        W40160  42.809  43.820   2.264
67901W        W40161  17.296  39.979  14.370
67902W        W40162  16.655   8.239   0.267
67903W        W40163   6.775  37.361   1.369
67904W        W40164   1.290  37.518   4.208
67905W        W40165  23.731  37.013  11.972
67906W        W40166   2.391   7.382  14.301
67907W        W40167  35.025   1.946   4.818
67908W        W40168  19.246  40.842   1.378
67909W        W40169   9.220   8.278   1.236
67910W        W40170  19.589   2.805   0.938
67911W        W40171  24.108   3.727  13.028
67912W        W40172  13.300  12.654   3.291
67913W        W40173   8.165   4.236   1.909
67914W        W40174  15.249  13.792   0.869
67915W        W40175  40.361  43.772  13.379
67916W        W40176  26.686  10.230  12.571
67917W        W40177  29.038  18.692   2.307
67918W        W40178  33.895  32.502  11.480
67919W        W40179  15.696   7.395   3.685
67920W        W40180   4.751  37.579  13.535
67921W        W40181  31.495  17.784  13.367
67922W        W40182  21.073  11.203   3.693
67923W        W40183  14.120   6.221  11.588
67924W        W40184  38.421   8.244   2.750
67925W        W40185  24.061  21.021  11.882
67926W        W40186  31.445  11.721  13.323
67927W        W40187  27.050  16.081  10.962
67928W        W40188   3.368  34.455  12.997
67929W        W40189  31.105  10.639  14.336
67930W        W40190  29.047  23.643   3.698
67931W        W40191  32.929  10.235   3.308
67932W        W40192  25.987  17.719  13.837
67933W        W40193  21.710   8.887  11.113
67934W        W40194  40.480  43.852   0.747
67935W        W40195   0.960  37.085  13.807
67936W        W40196   0.330  29.551  11.026
67937W        W40197  16.749  18.729  11.870
67938W        W40198  20.118  42.972   0.736
67939W        W40199   0.870   6.740  13.493
67940W        W40200  20.725  24.690  11.464
67941W        W40201   6.234  40.044  12.540
67942W        W40202  14.335  21.738   1.844
67943W        W40203   9.162  39.011  13.917
67944W        W40204   9.804   3.345   4.133
67945W        W40205  33.019   8.880   2.819
67946W        W40206  42.370  13.698  10.426
67947W        W40207   0.465  20.694  13.058
67948W        W40208  10.384  31.571   2.749
67949W        W40209   6.419  36.059  11.098
67950W        W40210   5.900  17.719   1.864
67951W        W40211  36.362   5.825   2.194
67952W        W40212   2.245  10.213  11.442
67953W        W40213   4.239   8.320   4.252
67954W        W40214   0.841   3.257  11.597
67955W        W40215  13.733  11.809   1.701
67956W        W40216  19.219   8.664   3.839
67957W        W40217  31.511  41.305  12.449
67958W        W40218   9.369  11.189  14.821
67959W        W40219  12.168  14.190   3.356
67960W        W40220  15.822  22.130  14.325
67961W        W40221   3.429   3.227  12.544
67962W        W40222   4.221  21.686  12.871
67963W        W40223  28.605  35.074   4.323
67964W        W40224  12.726  35.899  12.933
67965W        W40225  12.262   8.742  13.481
67966W        W40226  29.022  31.976  12.906
67967W        W40227  29.447  37.905   3.290
67968W        W40228  25.016  11.803  14.820
67969W        W40229  27.640  14.824   1.317
67970W        W40230  36.427  21.592   1.761
67971W        W40231  27.941  25.069  13.033
67972W        W40232  20.172  13.647  14.812
67973W        W40233   3.408  22.620   0.480
67974W        W40234  25.192  18.110   3.866
67975W        W40235  27.551  17.182   3.683
67976W        W40236   8.196   4.728   4.667
67977W        W40237  24.621   7.349  13.433
67978W        W40238  15.186  28.484  10.015
67979W        W40239  42.281  32.508   4.331
67980W        W40240  16.659  27.959  11.373
67981W        W40241  38.502  31.991   5.241
67982W        W40242   9.244   6.364   0.483
67983W        W40243  23.606  26.206   1.823
67984W        W40244  33.893   7.259   1.439
67985W        W40245  17.195  20.639  10.453
67986W        W40246  42.307  42.407  12.858
67987W        W40247  39.546  10.181  12.340
67988W        W40248  36.526  44.756   0.393
67989W        W40249  40.839  28.985   4.196
67990W        W40250  41.354  41.967   3.646
67991W        W40251  22.674  32.031   2.900
67992W        W40252  39.488  36.536   4.657
67993W        W40253  28.934  30.082   1.357
67994W        W40254  29.007  19.049  12.361
67995W        W40255  18.168   5.695  10.955
67996W        W40256  14.205   0.474  11.103
67997W        W40257  28.178  24.710   2.300
67998W        W40258  30.988   5.327  14.932
67999W        W40259  26.166  11.768   1.349
68000W        W40260   5.292  19.719   2.723
68001W        W40261  33.437  33.549  14.993
68002W        W40262  33.121   3.266  11.938
68003W        W40263  36.012   1.962   3.289
68004W        W40264  28.453   8.774  12.087
68005W        W40265  39.919  20.186  11.883
68006W        W40266  33.433   5.246   0.902
68007W        W40267   3.881  23.554   4.319
68008W        W40268  17.126  44.775   3.185
68009W        W40269  38.850  41.302   1.444
68010W        W40270  21.573  18.660   1.378
68011W        W40271  28.605  38.555   3.833
68012W        W40272  10.637   6.803  10.478
68013W        W40273  16.221  20.679   4.728
68014W        W40274   5.781  23.634   4.776
68015W        W40275  34.422  15.674  10.428
68016W        W40276  34.078  26.137  11.087
68017W        W40277  44.320   3.770   0.783
68018W        W40278  29.668  31.911   4.724
68019W        W40279   0.810   5.409  13.309
68020W        W40280  28.661   2.464  14.962
68021W        W40281  27.540   8.283  14.919
68022W        W40282  31.461  42.952  13.948
68023W        W40283  19.660  23.063  13.051
68024W        W40284  39.049   7.779   0.324
68025W        W40285   0.748  23.031  12.916
68026W        W40286   7.890  14.310  12.875
68027W        W40287  13.606  30.119   5.244
68028W        W40288  40.395  26.997  11.944
68029W        W40289  41.435  21.631  13.973
68030W        W40290  18.596   9.333   0.922
68031W        W40291   0.453  15.170  14.950
68032W        W40292  13.835  39.985  12.478
68033W        W40293   4.395  13.239  14.007
68034W        W40294  30.115   8.263  12.472
68035W        W40295  16.622  38.331  14.281
68036W        W40296  26.174  32.601  14.302
68037W        W40297  28.552  24.044  11.092
68038W        W40298   5.329  10.227   2.688
68039W        W40299  26.964  17.250   2.716
68040W        W40300  13.109   2.312   3.798
68041W        W40301  42.494  14.815  10.562
68042W        W40302  38.549   0.862   2.713
68043W        W40303  40.895  16.187   1.869
68044W        W40304  31.958  31.997   5.299
68045W        W40305  37.345  42.456  10.498
68046W        W40306  16.186  32.971  14.891
68047W        W40307  34.563  43.883   4.269
68048W        W40308   0.909  39.999  12.394
68049W        W40309  30.505  30.949   3.289
68050W        W40310  24.149   0.368  11.564
68051W        W40311  37.016   2.427  12.489
68052W        W40312  38.861  26.633  10.493
68053W        W40313  23.579   6.712  11.028
68054W        W40314  20.739  38.374  13.878
68055W        W40315  41.457  34.535  11.055
68056W        W40316  22.075  16.214   4.829
68057W        W40317  27.506  26.106  11.504
68058W        W40318  39.340   3.880   2.762
68059W        W40319  16.677   6.321  14.793
68060W        W40320  31.502  19.588   4.143
68061W        W40321  30.495  24.498   2.780
68062W        W40322  15.106   5.285   3.368
68063W        W40323  32.424  25.061   5.214
68064W        W40324  35.889  18.689  10.001
68065W        W40325   9.194   2.765  13.032
68066W        W40326   0.852  44.904   4.119
68067W        W40327  11.660   5.215  10.434
68068W        W40328   9.766  30.043  11.116
68069W        W40329  13.793  21.583   4.633
68070W        W40330  41.349  37.946  13.487
68071W        W40331  10.311   7.280  10.060
68072W        W40332   4.273  43.793  11.116
68073W        W40333  13.292  40.535  14.318
68074W        W40334  43.270  43.860  13.355
68075W        W40335   4.839   4.873   0.322
68076W        W40336  28.626  33.446  14.030
68077W        W40337  14.658  18.084   3.230
68078W        W40338  37.471  24.666  14.977
68079W        W40339  24.093  44.413   3.693
68080W        W40340  35.881  15.124   4.345
68081W        W40341  21.161  27.105   0.762
68082W        W40342  38.555  29.025   3.352
68083W        W40343   2.797  35.597  10.560
68084W        W40344  21.606  36.586  10.530
68085W        W40345  19.199  33.020   1.372
68086W        W40346   4.876  23.711  10.507
68087W        W40347   8.356   5.387   1.715
68088W        W40348  30.444  11.740  10.931
68089W        W40349  14.146  11.668   3.715
68090W        W40350  13.240   7.883  12.919
68091W        W40351  29.134  44.497  11.422
68092W        W40352  22.713  33.613  14.797
68093W        W40353  32.023  40.400   3.380
68094W        W40354  20.195  29.623  10.580
68095W        W40355   9.384  25.555   0.834
68096W        W40356  27.171   5.905   4.637
68097W        W40357  24.483  29.083   2.856
68098W        W40358  24.676  32.484  13.799
68099W        W40359   8.767  37.567  14.456
68100W        W40360  28.553  32.460  10.639
68101W        W40361  43.911  27.666   4.127
68102W        W40362  22.724  19.100   1.859
68103W        W40363   1.778   2.373  13.541
68104W        W40364  27.458  14.602  14.338
68105W        W40365   0.473  14.299  13.827
68106W        W40366  23.189  17.684  10.615
68107W        W40367  35.029   7.221   4.127
68108W        W40368  30.125  15.261  13.045
68109W        W40369  40.018  43.324   4.769
68110W        W40370  19.543  32.597  11.884
68111W        W40371  39.466   9.367  11.439
68112W        W40372  33.527  30.436   2.345
68113W        W40373  34.115   0.815   3.752
68114W        W40374  33.604  41.450  11.490
68115W        W40375  43.282  12.811  12.528
68116W        W40376  12.615  20.728   2.672
68117W        W40377  36.966  10.242   5.296
68118W        W40378  42.841  36.404  14.323
68119W        W40379  27.555   1.462   3.763
68120W        W40380  39.381  40.927   3.299
68121W        W40381   3.420  36.031  13.961
68122W        W40382  23.666  13.690  14.450
68123W        W40383   4.224  20.072   4.184
68124W        W40384  35.603   5.806   2.386
68125W        W40385  31.467  20.616  10.901
68126W        W40386  19.162  37.033   4.261
68127W        W40387   9.264  15.637  12.361
68128W        W40388  13.782  31.102  14.512
68129W        W40389  34.584  20.223  13.429
68130W        W40390   1.736  11.170   1.229
68131W        W40391   8.700   8.824   2.293
68132W        W40392   5.327  44.803  14.276
68133W        W40393  11.637  44.953  14.283
68134W        W40394  19.642  19.753   2.366
68135W        W40395  26.956  22.739  10.012
68136W        W40396  30.124  25.534  14.770
68137W        W40397  36.563  40.022   3.750
68138W        W40398  42.827  17.209  13.046
68139W        W40399  19.577  12.679   3.304
68140W        W40400  31.494  30.480  14.506
68141W        W40401  41.528   0.249  13.425
68142W        W40402  14.792   0.441  11.094
68143W        W40403  11.267  40.815   3.336
68144W        W40404   1.871  33.493   3.843
68145W        W40405  19.145   8.215  11.526
68146W        W40406  31.449  43.829  12.041
68147W        W40407   3.403  39.818   0.277
68148W        W40408   3.806   0.895   4.783
68149W        W40409  37.578  33.108   2.186
68150W        W40410   4.724   9.807  13.960
68151W        W40411  42.355  20.028   3.702
68152W        W40412  42.788  14.800  14.938
68153W        W40413  34.492  33.616   3.312
68154W        W40414   1.398  34.059  11.570
68155W        W40415  39.891  10.326   3.205
68156W        W40416  19.731  27.058  11.383
68157W        W40417  14.621  42.864  13.370
68158W        W40418  41.938  31.032  13.995
68159W        W40419  34.576  18.051   1.814
68160W        W40420   5.871  21.120   3.223
68161W        W40421  23.184  44.370  11.121
68162W        W40422  35.534  20.195   1.755
68163W        W40423  13.174   5.218   3.171
68164W        W40424   1.755  38.037   4.719
68165W        W40425  31.605  38.071  13.368
68166W        W40426  12.777   8.189   3.226
68167W        W40427   9.343  35.949   3.814
68168W        W40428  38.831  35.443   4.210
68169W        W40429   0.938  24.663   1.300
68170W        W40430  19.088  15.654   0.397
68171W        W40431  36.384  34.595   1.795
68172W        W40432  16.720  41.303   1.763
68173W        W40433  23.219  13.613  12.414
68174W        W40434  44.810  32.540   1.811
68175W        W40435   5.212   4.778   2.772
68176W        W40436  38.908   1.398  14.323
68177W        W40437   5.817  17.710  10.931
68178W        W40438  20.037  18.662  11.564
68179W        W40439   2.396  15.699   2.740
68180W        W40440  13.687  20.105   2.202
68181W        W40441  36.934   8.654  11.092
68182W        W40442  24.116  29.156   1.446
68183W        W40443  38.819  35.529  13.382
68184W        W40444   7.880   5.248  12.051
68185W        W40445   0.356  27.660  14.764
68186W        W40446  16.786  32.123   1.390
68187W        W40447   1.320  37.947   3.641
68188W        W40448  43.867  39.060  13.882
68189W        W40449  31.635   6.772  14.359
68190W        W40450  43.899  25.191   3.178
68191W        W40451   5.711  18.593   1.818
68192W        W40452  39.339  42.494  11.115
68193W        W40453  15.645  22.089  11.400
68194W        W40454  13.649  35.919   4.831
68195W        W40455  36.066  30.052  14.375
68196W        W40456  18.716  21.142   3.234
68197W        W40457   6.795  19.699  11.992
68198W        W40458  29.667  26.036   4.120
68199W        W40459  16.072  10.782  11.957
68200W        W40460   4.238  17.148  11.591
68201W        W40461  34.452  25.660  10.888
68202W        W40462   8.161  28.559   0.466
68203W        W40463   6.704  37.835   2.412
68204W        W40464  30.498  12.769   0.736
68205W        W40465  41.913   0.828   0.438
68206W        W40466  34.081  20.734  11.905
68207W        W40467  31.627  22.240  13.378
68208W        W40468   3.299  37.471  11.895
68209W        W40469  14.166  18.688  10.085
68210W        W40470  41.329   7.231  13.921
68211W        W40471   4.308  25.700   3.846
68212W        W40472  18.735  23.546  10.528
68213W        W40473  35.051  16.659   3.837
68214W        W40474  36.391  21.564   0.817
68215W        W40475   7.763  40.477  12.036
68216W        W40476  29.048  16.229   1.760
68217W        W40477   7.206  13.815  11.440
68218W        W40478   9.646   9.812   0.887
68219W        W40479   6.233  44.979  13.008
68220W        W40480  25.478  43.513  10.446
68221W        W40481  17.558  35.960  10.557
68222W        W40482  25.526  34.589   9.994
68223W        W40483  17.761  25.179  13.948
68224W        W40484  35.088   2.927  12.477
68225W        W40485  18.699  24.154  13.327
68226W        W40486  42.311  12.723  11.467
68227W        W40487  31.933  11.159   0.848
68228W        W40488   5.814  23.026   1.254
68229W        W40489  12.250   9.699   0.750
68230W        W40490  23.231  35.359   1.847
68231W        W40491  30.457  13.159  13.531
68232W        W40492   3.397  33.460  14.810
68233W        W40493  11.154  22.042   0.355
68234W        W40494  21.052  23.132  12.002
68235W        W40495  13.690   8.300   4.671
68236W        W40496  17.276  21.055  11.564
68237W        W40497  22.019  41.836  12.556
68238W        W40498  39.041  31.431   0.801
68239W        W40499  11.850  11.253   3.839
68240W        W40500  14.633  18.583   1.401
68241W        W40501  28.051  35.874  11.952
68242W        W40502   0.825   7.856   1.694
68243W        W40503  39.818  15.328   3.301
68244W        W40504   2.883  20.707   0.906
68245W        W40505   6.349  28.560  11.881
68246W        W40506   3.756   6.368   0.800
68247W        W40507  31.924   0.927  10.472
68248W        W40508  27.109   4.943   1.883
68249W        W40509  10.341   1.820  10.928
68250W        W40510  17.297  18.765  10.485
68251W        W40511  17.149  32.075  11.601
68252W        W40512   3.735  14.699  11.562
68253W        W40513  44.987  15.326  12.919
68254W        W40514  24.513  17.098  11.972
68255W        W40515   1.451  35.007  14.913
68256W        W40516  44.767  15.799  12.840
68257W        W40517   8.390  26.562   2.347
68258W        W40518  30.046  18.722   3.751
68259W        W40519  38.844  12.788  14.340
68260W        W40520   1.444  18.077  11.881
68261W        W40521   9.844  10.331   3.196
68262W        W40522   3.936   4.790  11.034
68263W        W40523  41.345  27.961  11.498
68264W        W40524  44.770  39.954   3.666
68265W        W40525  14.635  44.968   3.721
68266W        W40526  25.044   4.783   3.239
68267W        W40527   2.849  31.451  14.841
68268W        W40528  22.741  20.188  10.543
68269W        W40529   3.857  31.011   2.337
68270W        W40530  35.976  31.559   4.713
68271W        W40531  36.390   1.397  14.867
68272W        W40532  41.520  23.050   4.788
68273W        W40533   1.910  14.658  12.372
68274W        W40534   7.305  20.678  14.994
68275W        W40535  37.957  42.857  14.954
68276W        W40536  30.914   6.329   0.453
68277W        W40537  30.455  27.516  13.986
68278W        W40538  42.851  22.724   3.851
68279W        W40539   4.205  15.272   1.425
68280W        W40540  35.874  35.604  10.589
68281W        W40541   3.821  35.544   2.870
68282W        W40542  43.305   4.781   0.936
68283W        W40543  23.066   4.806  10.566
68284W        W40544  13.265  25.218  10.594
68285W        W40545  40.840  14.319  12.397
68286W        W40546  28.546  34.598  13.963
68287W        W40547  19.624  38.042  14.470
68288W        W40548  21.069  25.168  14.891
68289W        W40549  37.455   5.733   4.707
68290W        W40550  21.608  15.695   2.405
68291W        W40551  21.242  42.484   0.897
68292W        W40552  38.916  27.189  10.432
68293W        W40553   3.743   9.713  13.463
68294W        W40554  36.981  11.817   2.189
68295W        W40555  35.986  24.036  14.280
68296W        W40556  27.588  35.085   0.338
68297W        W40557  25.613  27.164  11.964
68298W        W40558  18.126  30.038  11.059
68299W        W40559  29.569  38.356   3.327
68300W        W40560   6.267  10.814  12.358
68301W        W40561   6.676  30.094   1.858
68302W        W40562  29.127  21.192  13.880
68303W        W40563  30.511  30.652   2.181
68304W        W40564  20.529   8.837  10.614
68305W        W40565  35.397  10.178  13.346
68306W        W40566  29.608   9.263  12.859
68307W        W40567  10.239  30.947   4.597
68308W        W40568  12.771  28.027   4.728
68309W        W40569  13.125  44.387   2.766
68310W        W40570  27.095   3.807  12.557
68311W        W40571  10.828  21.242  12.860
68312W        W40572  21.165   9.687   1.925
68313W        W40573   5.924  28.071  14.873
68314W        W40574  32.558  18.557  10.632
68315W        W40575  39.906  31.989   0.337
68316W        W40576  31.531  18.284  14.018
68317W        W40577  39.033  40.532   2.373
68318W        W40578   7.201   0.376   4.315
68319W        W40579  36.956  27.196   0.393
68320W        W40580  43.510  44.908  14.871
68321W        W40581  22.250  12.260   0.825
68322W        W40582   2.829   2.843  12.438
68323W        W40583  31.017  28.675   0.466
68324W        W40584  32.560   3.274  11.857
68325W        W40585  21.197  41.304  11.073
68326W        W40586  39.985   4.426   4.249
68327W        W40587   3.733  11.196   2.698
68328W        W40588   4.784  37.434  14.448
68329W        W40589  41.484   9.267  10.449
68330W        W40590  36.981  36.433  10.438
68331W        W40591  16.170   2.791  11.609
68332W        W40592  31.015  35.362   3.280
68333W        W40593  16.812  16.167  14.407
68334W        W40594  42.346  27.445  10.601
68335W        W40595  40.950  10.260  13.930
68336W        W40596  22.729  44.417   3.702
68337W        W40597   4.302  39.410   3.256
68338W        W40598  43.270  11.279  13.937
68339W        W40599  21.109  18.091  12.401
68340W        W40600   7.258   7.773  12.475
68341W        W40601  32.066  38.406   0.291
68342W        W40602  17.587  11.677  11.992
68343W        W40603   3.266  23.638   1.744
68344W        W40604  34.923  17.577  11.006
68345W        W40605  34.982  31.472  11.884
68346W        W40606   7.817   9.228   2.218
68347W        W40607  28.619  18.089   4.720
68348W        W40608  42.318  11.830   3.648
68349W        W40609  21.112  23.087   0.960
68350W        W40610  41.382  37.445   2.183
68351W        W40611   5.780  24.632  11.905
68352W        W40612  25.517  40.935  14.415
68353W        W40613  17.588   8.294   4.235
68354W        W40614  27.564  17.080   4.327
68355W        W40615  38.846  16.634  13.000
68356W        W40616  41.932   1.877   4.597
68357W        W40617  30.622  18.678  14.346
68358W        W40618  30.029  29.994  12.832
68359W        W40619  42.834  18.217  10.050
68360W        W40620  20.119  22.545  12.053
68361W        W40621  44.896  12.295   3.709
68362W        W40622  37.380  38.536   1.828
68363W        W40623  12.753  15.817   2.844
68364W        W40624  31.969  15.819   5.090
68365W        W40625  22.535  27.636   5.283
68366W        W40626  10.375   5.880   0.921
68367W        W40627  23.124  14.712   2.241
68368W        W40628  37.921  10.382   3.174
68369W        W40629  35.030   7.803   1.225
68370W        W40630  40.829   7.713  14.416
68371W        W40631  30.144   8.376  13.927
68372W        W40632  14.831  38.382  14.859
68373W        W40633  24.057  23.220   3.341
68374W        W40634  18.705   2.440   2.662
68375W        W40635  39.317   2.462  13.521
68376W        W40636  20.186  20.067  10.523
68377W        W40637  26.484   2.948  13.371
68378W        W40638  28.624   4.731   0.451
68379W        W40639   0.439   9.874   0.891
68380W        W40640  17.111  22.511   0.334
68381W        W40641  30.624  10.848   0.290
68382W        W40642  19.282  42.311  13.316
68383W        W40643  40.457  16.680   4.288
68384W        W40644  13.223   0.297   4.200
68385W        W40645   2.264  11.812   3.226
68386W        W40646  34.400  19.218  12.991
68387W        W40647  31.104  14.732  10.540
68388W        W40648  11.345  23.154  13.972
68389W        W40649  30.942  17.216   2.876
68390W        W40650  14.779  42.891   5.304
68391W        W40651  19.644  40.046  14.291
68392W        W40652   3.768  12.671  12.901
68393W        W40653   5.398  30.152   1.876
68394W        W40654  19.274  36.494  13.855
68395W        W40655   3.776  25.549   4.811
68396W        W40656  36.890  44.360   4.346
68397W        W40657   8.661  23.530  12.506
68398W        W40658  35.525  35.897   1.328
68399W        W40659   1.842   8.745  12.071
68400W        W40660  18.691  38.928  14.018
68401W        W40661   6.813   7.319   2.276
68402W        W40662  36.349  33.996  14.884
68403W        W40663  42.013   2.818  14.381
68404W        W40664   3.311  39.523   2.716
68405W        W40665  20.540   1.330   3.189
68406W        W40666   5.905  22.128  10.514
68407W        W40667  14.129  30.113  11.978
68408W        W40668   9.170  12.822   2.834
68409W        W40669  18.576  10.663   4.686
68410W        W40670   1.963  18.724  12.070
68411W        W40671   9.856  44.432   2.738
68412W        W40672   4.906   8.291  14.961
68413W        W40673  11.770  17.116  11.457
68414W        W40674  27.963   1.387  10.130
68415W        W40675  36.855  10.181   1.880
68416W        W40676  25.109  33.622   4.833
68417W        W40677  19.242   8.186   0.332
68418W        W40678   3.330  43.933   1.327
68419W        W40679  12.247   3.346   0.261
68420W        W40680  20.671  32.072  12.369
68421W        W40681   9.769   9.340   3.323
68422W        W40682  28.931  37.086  14.960
68423W        W40683  10.264   9.842  11.485
68424W        W40684  17.276   8.725  14.820
68425W        W40685  14.703  28.003  11.895
68426W        W40686  41.375  25.081   1.842
68427W        W40687  21.555  17.092  12.938
68428W        W40688  17.301  20.209  11.405
68429W        W40689  28.580  15.703   1.316
68430W        W40690  16.201  22.146  13.387
68431W        W40691  10.342   1.811  12.858
68432W        W40692  13.250  20.655  11.948
68433W        W40693  28.110  18.723  11.926
68434W        W40694  29.066  18.100  13.496
68435W        W40695  24.019   7.840   4.749
68436W        W40696  27.447  44.933  12.513
68437W        W40697  40.922  38.389   0.898
68438W        W40698  41.340  30.981   2.782
68439W        W40699  43.402  44.786  11.998
68440W        W40700  30.982  43.311  12.091
68441W        W40701  27.991  39.064  14.988
68442W        W40702  40.923  20.729   3.189
68443W        W40703   4.709   2.755   4.806
68444W        W40704  25.486  22.746  11.411
68445W        W40705   7.391  15.313   1.377
68446W        W40706  22.653  39.376   1.416
68447W        W40707   1.338  40.328   1.409
68448W        W40708  11.134  31.054   0.820
68449W        W40709  31.141  25.658  11.527
68450W        W40710  41.523  30.026   4.746
68451W        W40711   6.684  24.596  12.918
68452W        W40712   0.823  31.080  11.861
68453W        W40713   3.424  23.055   3.225
68454W        W40714  23.237   7.197  11.917
68455W        W40715  34.560  29.944   3.684
68456W        W40716  25.120  36.890  13.893
68457W        W40717  24.992  28.093   0.854
68458W        W40718   9.661   6.278  12.475
68459W        W40719  34.370  41.996   4.208
68460W        W40720  32.492  18.559   3.379
68461W        W40721   9.374   7.701  11.962
68462W        W40722  32.002  35.914   1.853
68463W        W40723  28.493  25.674  13.390
68464W        W40724  21.054  10.820   2.797
68465W        W40725  40.475  20.033  13.382
68466W        W40726  19.713  14.137  14.366
68467W        W40727  18.127   2.744   4.260
68468W        W40728  11.348  40.984  12.073
68469W        W40729   1.281   8.787  13.320
68470W        W40730   3.325  28.655  13.460
68471W        W40731   8.362  39.552  11.583
68472W        W40732  22.655  31.019   2.803
68473W        W40733  20.588  26.184  14.792
68474W        W40734  23.190  40.009   3.377
68475W        W40735  17.105  44.821   1.795
68476W        W40736  31.052   4.761  12.358
68477W        W40737   9.260  34.940   3.190
68478W        W40738   6.897  23.526  13.892
68479W        W40739   7.754  21.631  12.558
68480W        W40740  27.493   8.664   1.782
68481W        W40741  21.570  20.725   1.840
68482W        W40742  31.407  33.472  13.889
68483W        W40743  31.959   5.369  13.018
68484W        W40744  38.822   7.372   0.452
68485W        W40745   3.285  26.547   0.826
68486W        W40746  34.569  44.415  11.907
68487W        W40747  34.033   4.348  10.963
68488W        W40748   2.786  13.315  14.855
68489W        W40749   4.822  15.194  14.931
68490W        W40750  28.545  10.298  12.905
68491W        W40751  29.966  36.413   0.886
68492W        W40752   8.733   7.403  14.907
68493W        W40753  20.080  10.730  14.445
68494W        W40754   6.282   8.767  11.983
68495W        W40755  29.937  42.853  14.837
68496W        W40756  14.759  31.073   5.161
68497W        W40757  28.936  33.117   4.657
68498W        W40758  39.953  25.109   4.821
68499W        W40759  39.315  27.577  12.366
68500W        W40760  12.117  22.746   1.802
68501W        W40761  15.121  11.234  10.464
68502W        W40762  21.196  30.967   4.766
68503W        W40763  42.954  14.180  11.086
68504W        W40764  44.326   6.869  13.008
68505W        W40765  41.908  29.495  14.475
68506W        W40766  19.144  35.478   0.800
68507W        W40767   9.653   1.807  12.849
68508W        W40768  15.222  24.228  12.008
68509W        W40769  38.924  43.832   0.822
68510W        W40770  17.645  39.976  13.060
68511W        W40771  26.461  18.214  12.997
68512W        W40772   6.306  27.179   3.272
68513W        W40773  38.038  20.701  13.429
68514W        W40774  27.129  40.506  10.049
68515W        W40775  17.645  10.652  13.528
68516W        W40776  24.116  23.601  11.866
68517W        W40777  22.225  31.047   2.412
68518W        W40778  13.718  28.604   0.884
68519W        W40779  39.404  27.566  14.314
68520W        W40780   0.248  40.931   4.322
68521W        W40781  41.397  28.030   3.650
68522W        W40782  27.951   4.735   3.741
68523W        W40783   1.957  37.902   0.293
68524W        W40784  20.534  32.435  14.862
68525W        W40785  20.760  40.923  10.965
68526W        W40786   7.229  23.566   4.127
68527W        W40787  30.577  10.285   4.149
68528W        W40788  42.377   7.385  12.447
68529W        W40789  35.044  39.340  11.938
68530W        W40790  33.407  33.980  13.938
68531W        W40791  14.192  26.628   3.192
68532W        W40792  18.121  27.468  14.855
68533W        W40793   1.781  25.629  14.946
68534W        W40794  22.104  33.009  13.988
68535W        W40795   4.322  11.202   4.176
68536W        W40796   4.434  33.005  14.896
68537W        W40797   8.259  14.588  13.398
68538W        W40798  36.389  14.334   0.378
68539W        W40799  30.934  41.357  13.942
68540W        W40800  34.536  27.674  12.517
68541W        W40801   6.850  35.486  11.570
68542W        W40802  18.103  36.415   3.355
68543W        W40803  40.047  14.671  10.418
68544W        W40804   1.792   8.358   2.830
68545W        W40805  30.163  37.001  14.516
68546W        W40806  23.716   3.266  10.929
68547W        W40807  22.014  17.620   2.344
68548W        W40808  19.579  11.236  14.485
68549W        W40809  21.599  32.566   3.797
68550W        W40810   4.880  31.627   4.721
68551W        W40811  32.528  33.938  14.849
68552W        W40812  21.140  32.082  12.914
68553W        W40813  34.119  18.682   2.336
68554W        W40814   5.812  22.081   1.364
68555W        W40815  18.700  16.318  10.627
68556W        W40816  32.018  34.866  14.479
68557W        W40817   4.795  11.331  10.104
68558W        W40818  13.226  26.633  13.826
68559W        W40819  14.269   1.325  13.049
68560W        W40820  40.494  11.860  14.799
68561W        W40821  24.070  28.033   2.896
68562W        W40822  18.246  44.903  14.963
68563W        W40823  39.353  37.083   1.225
68564W        W40824  22.717  36.862   4.662
68565W        W40825  37.527  14.133  10.058
68566W        W40826  24.553  39.033  14.326
68567W        W40827  17.269   3.900   0.400
68568W        W40828   9.165   6.877  10.455
68569W        W40829   7.248   5.234   2.797
68570W        W40830  20.203   0.289   3.633
68571W        W40831  40.927   6.841  12.866
68572W        W40832  19.092  43.276   4.141
68573W        W40833  17.146  44.948  11.946
68574W        W40834  13.130  30.636   9.632
68575W        W40835   5.301   6.923   0.846
68576W        W40836  41.993  41.313   1.740
68577W        W40837  40.422   3.811   2.881
68578W        W40838  27.489  12.803   1.699
68579W        W40839  40.885   0.866  11.442
68580W        W40840  11.781  37.526   0.953
68581W        W40841   1.293  20.245  12.906
68582W        W40842  11.758  16.630  13.414
68583W        W40843  11.776   0.875  13.462
68584W        W40844  40.993  19.182  14.809
68585W        W40845   6.304  10.692  14.013
68586W        W40846  41.312   2.875   4.774
68587W        W40847  19.612   5.231   0.467
68588W        W40848  30.912   6.338   2.242
68589W        W40849   7.322  30.014  14.939
68590W        W40850  14.818  30.550  11.092
68591W        W40851  17.108  27.604  12.545
68592W        W40852   9.267  27.156   4.169
68593W        W40853  26.167  31.451  12.497
68594W        W40854  23.202  32.435   3.161
68595W        W40855  23.733  38.472   1.885
68596W        W40856  41.472  17.741  12.915
68597W        W40857  32.042  17.179   1.806
68598W        W40858  30.095  15.130   4.834
68599W        W40859  38.514  20.259   4.773
68600W        W40860   6.693  24.170   4.324
68601W        W40861  28.563  16.110   3.289
68602W        W40862  21.656  18.252  12.081
68603W        W40863  38.967  33.466   1.390
68604W        W40864   0.975   0.749  14.778
68605W        W40865   3.340   3.291  11.063
68606W        W40866  25.022  40.931  12.349
68607W        W40867  28.082  20.211   3.170
68608W        W40868   8.259   2.834  11.573
68609W        W40869  19.131  24.085   2.400
68610W        W40870   3.801  22.641  12.891
68611W        W40871  35.077  35.952   2.871
68612W        W40872  35.104  32.068  14.958
68613W        W40873  39.536  15.760  11.864
68614W        W40874  24.637  26.457   1.792
68615W        W40875  35.024   6.291  14.772
68616W        W40876  22.237  20.576  14.473
68617W        W40877  34.454   4.214  14.827
68618W        W40878  12.164   8.841  11.100
68619W        W40879   8.657  17.238  11.459
68620W        W40880   5.228  25.617   1.396
68621W        W40881  31.456  25.588   0.826
68622W        W40882  26.682  25.555   1.335
68623W        W40883  39.441   0.469   3.177
68624W        W40884  35.420  29.576   3.267
68625W        W40885  14.204  12.317   2.179
68626W        W40886  13.197  44.973  11.587
68627W        W40887  23.192  42.019   0.728
68628W        W40888  10.328  18.598  11.035
68629W        W40889  35.501  44.984   0.826
68630W        W40890  41.894  24.511   4.307
68631W        W40891   9.255  38.558  13.822
68632W        W40892   4.440  33.939  13.423
68633W        W40893   6.395  10.220  13.497
68634W        W40894   9.710  32.610  11.612
68635W        W40895  44.372   3.818   4.719
68636W        W40896  23.110  36.856  10.936
68637W        W40897  28.641  37.014  12.430
68638W        W40898  27.012  31.617   1.723
68639W        W40899  40.504  26.518   3.167
68640W        W40900  12.826  43.390   2.295
68641W        W40901  32.409  39.853   9.949
68642W        W40902  20.543  11.672  12.357
68643W        W40903  27.946  16.593  11.000
68644W        W40904  30.994  32.089   2.378
68645W        W40905   9.684   8.769  14.457
68646W        W40906  18.151   6.727   4.813
68647W        W40907  32.069   5.325   3.165
68648W        W40908  33.092  27.049  13.443
68649W        W40909   4.799  33.913  13.842
68650W        W40910  43.953  13.829   4.769
68651W        W40911  32.947  40.460   0.814
68652W        W40912  13.204  11.839   4.354
68653W        W40913  37.878  35.387   1.695
68654W        W40914  16.279   0.769  11.072
68655W        W40915  39.545  39.814   2.387
68656W        W40916  31.972  30.045  14.286
68657W        W40917  21.179  27.648  13.445
68658W        W40918  23.083   5.390  10.447
68659W        W40919  39.560  36.084  13.862
68660W        W40920  14.244  13.126  11.393
68661W        W40921  28.937  24.676   1.429
68662W        W40922  19.079   4.798   2.206
68663W        W40923  27.476   0.347   3.286
68664W        W40924  25.001  32.609   3.866
68665W        W40925  10.858  31.637  10.996
68666W        W40926  21.682  28.566  10.405
68667W        W40927  29.072  10.280  12.378
68668W        W40928   5.332  21.622   0.861
68669W        W40929  34.574  41.854   3.187
68670W        W40930   6.308  37.469   1.411
68671W        W40931  19.194  38.506  12.022
68672W        W40932   4.908   1.764  11.597
68673W        W40933  42.298  37.387  11.500
68674W        W40934  30.561   3.256  14.480
68675W        W40935  18.552  25.515   2.260
68676W        W40936   9.750  29.992   1.872
68677W        W40937  17.717  35.512  11.903
68678W        W40938  21.037  39.455  12.417
68679W        W40939  27.953  23.991  13.056
68680W        W40940   0.871  21.530   1.350
68681W        W40941  18.112  41.897  13.911
68682W        W40942  16.761  19.584   4.815
68683W        W40943  41.486  17.062  11.436
68684W        W40944  19.689  31.471  11.427
68685W        W40945  13.747   9.277   2.317
68686W        W40946  42.300   0.376   2.197
68687W        W40947  14.612  28.940  14.459
68688W        W40948  38.395  10.735   4.162
68689W        W40949  13.713  17.104   1.361
68690W        W40950   0.934   5.361   3.854
68691W        W40951  39.955  12.627   2.733
68692W        W40952  36.522   3.766   3.729
68693W        W40953  41.819  16.271   2.724
68694W        W40954  12.151  33.571   2.750
68695W        W40955  30.134  18.081  10.499
68696W        W40956  30.988   0.758   4.698
68697W        W40957   0.966  32.479  13.014
68698W        W40958  20.630  38.071  13.944
68699W        W40959  21.066   7.356   2.365
68700W        W40960   0.357  16.087  13.807
68701W        W40961  18.609  36.068  14.346
68702W        W40962  22.092  12.231  11.424
68703W        W40963  32.417  22.616   2.845
68704W        W40964  22.249   5.744   3.292
68705W        W40965  15.278  26.170  10.956
68706W        W40966  29.621  27.005  10.988
68707W        W40967  26.486  37.472  10.967
68708W        W40968  29.150  18.609  13.986
68709W        W40969  39.314   1.941  11.108
68710W        W40970   1.758  33.431   4.687
68711W        W40971   9.658   3.866  10.540
68712W        W40972  14.225  12.135  12.417
68713W        W40973   9.172   9.715  11.420
68714W        W40974   3.729  21.532  12.525
68715W        W40975  28.162  29.652   3.731
68716W        W40976  26.570  15.244  14.489
68717W        W40977  41.460  22.593  14.346
68718W        W40978  36.008  13.611  12.889
68719W        W40979   3.818  29.430  14.297
68720W        W40980   5.793  25.512  13.036
68721W        W40981  22.997  15.699  11.488
68722W        W40982  17.750   1.964   4.167
68723W        W40983  39.322  12.223   0.278
68724W        W40984  39.855   2.423   0.450
68725W        W40985  15.289  33.618  12.551
68726W        W40986  10.851   3.373   4.675
68727W        W40987  11.710   1.258   3.329
68728W        W40988  26.078  25.091  13.507
68729W        W40989  35.883  13.803  14.443
68730W        W40990   7.679  44.972  13.445
68731W        W40991  44.831  41.496   3.205
68732W        W40992  20.626  12.691   0.390
68733W        W40993   3.247  25.032  10.584
68734W        W40994   4.264  37.356  13.542
68735W        W40995  27.607  36.942   1.922
68736W        W40996  17.076  28.593  12.479
68737W        W40997  21.077  35.962  10.013
68738W        W40998  36.423  28.525  12.840
68739W        W40999   0.452  29.522   2.326
68740W        W41000  22.018  41.981   3.731
68741W        W41001  23.592  38.345   0.880
68742W        W41002  32.443  20.038   2.689
68743W        W41003  28.471  11.301   3.180
68744W        W41004  17.778  16.252   1.840
68745W        W41005  33.434  13.639   3.669
68746W        W41006  36.002  17.107   2.275
68747W        W41007  18.224  18.274  11.467
68748W        W41008  40.880  14.766   2.227
68749W        W41009  25.507  44.473   4.334
68750W        W41010  17.235   7.892  11.050
68751W        W41011  36.921  24.162  14.397
68752W        W41012   7.820  33.961  10.406
68753W        W41013  37.360  22.113   1.889
68754W        W41014  18.127  15.296  10.406
68755W        W41015   9.304   3.740   1.896
68756W        W41016   2.402  13.144  11.927
68757W        W41017  24.149   1.896   0.278
68758W        W41018   3.358  30.467   3.848
68759W        W41019  11.229  34.902  11.882
68760W        W41020  25.075  33.959  11.886
68761W        W41021  41.343  27.592   1.290
68762W        W41022  39.550  21.142  10.438
68763W        W41023  25.062   0.847   3.372
68764W        W41024  35.405  17.139   4.626
68765W        W41025   3.745  20.200  10.426
68766W        W41026   9.211  12.716  11.017
68767W        W41027  19.705  17.275  12.078
68768W        W41028   5.371   9.714  14.433
68769W        W41029  23.648   5.373  11.110
68770W        W41030  39.518   1.474   3.282
68771W        W41031   0.893  18.260   5.272
68772W        W41032   2.803  40.858  14.481
68773W        W41033  31.940  24.978  12.975
68774W        W41034  37.035  25.633  13.476
68775W        W41035  30.991  41.517  12.948
68776W        W41036   8.790  39.886   0.267
68777W        W41037   2.965  26.571  13.058
68778W        W41038  25.003  42.507   1.930
68779W        W41039  14.134  25.138   3.746
68780W        W41040   2.805   1.349   0.478
68781W        W41041   1.379  21.161  11.876
68782W        W41042  30.967  40.889   1.311
68783W        W41043  35.107   7.666   0.426
68784W        W41044   5.435  38.502  11.928
68785W        W41045  28.607  13.193  13.417
68786W        W41046  35.003   2.777  13.792
68787W        W41047  25.672   2.900  10.493
68788W        W41048  41.362  20.619  12.091
68789W        W41049  36.046  44.990   1.808
68790W        W41050  17.138  36.845   0.915
68791W        W41051   1.941   8.759   0.946
68792W        W41052  40.957   8.737  13.322
68793W        W41053  39.966  13.140  13.403
68794W        W41054  20.580   0.389  13.823
68795W        W41055  29.120  34.064  10.616
68796W        W41056   2.758  34.893  14.812
68797W        W41057   4.765  40.488   0.456
68798W        W41058  32.475  37.464   1.747
68799W        W41059  26.554  13.840   2.833
68800W        W41060   9.187  41.480  12.961
68801W        W41061  27.526  10.346   3.708
68802W        W41062  15.710  16.745   1.228
68803W        W41063  39.481  37.045  14.838
68804W        W41064   1.871  34.543  11.038
68805W        W41065  28.105  22.169  10.617
68806W        W41066  19.175  30.617  13.842
68807W        W41067  37.047  24.540   4.128
68808W        W41068  32.448  11.805  13.309
68809W        W41069   6.183  31.115   4.728
68810W        W41070   9.248  36.038  10.929
68811W        W41071  28.074  16.299   3.842
68812W        W41072  13.845  16.718   4.324
68813W        W41073  34.876   9.656   0.452
68814W        W41074  22.247  30.419   3.277
68815W        W41075   5.248  18.139   4.327
68816W        W41076  13.600  15.142   4.742
68817W        W41077  40.891  39.432   0.431
68818W        W41078  22.087  36.553  11.407
68819W        W41079  44.894  36.512  11.374
68820W        W41080   6.753  33.063   4.699
68821W        W41081  11.191  35.016   2.828
68822W        W41082  22.512  29.167  13.466
68823W        W41083  26.101  21.226   4.221
68824W        W41084  16.634  33.555  10.608
68825W        W41085  14.107  42.894   4.120
68826W        W41086  15.206  39.415   4.200
68827W        W41087   5.702  44.842   2.742
68828W        W41088   4.248  30.945   0.294
68829W        W41089  22.538  43.384  11.007
68830W        W41090  37.433   1.742   3.759
68831W        W41091  20.164  26.053  11.863
68832W        W41092  22.235  22.587  13.810
68833W        W41093  17.289  31.568  13.049
68834W        W41094  21.577  39.016  13.949
68835W        W41095   6.419  43.305   3.246
68836W        W41096   4.411  22.210   3.809
68837W        W41097  34.529  24.616  14.813
68838W        W41098  22.683  15.301   4.696
68839W        W41099  12.664   1.315  10.990
68840W        W41100  13.707  16.671  12.827
68841W        W41101  38.492  11.330   0.457
68842W        W41102  11.231  40.897   1.820
68843W        W41103  16.805   3.358   3.718
68844W        W41104  12.693  24.498  12.550
68845W        W41105  10.154   3.815  13.905
68846W        W41106  15.144   6.856   3.748
68847W        W41107  40.518  43.821   1.776
68848W        W41108  44.489   1.850  13.832
68849W        W41109  15.692   7.672  12.037
68850W        W41110  21.250  43.949  11.512
68851W        W41111  40.922  39.432  11.111
68852W        W41112  39.923  19.146  11.967
68853W        W41113  36.021  34.919  11.075
68854W        W41114  11.365  28.583  14.361
68855W        W41115  21.037  20.242  13.827
68856W        W41116  39.905  10.720  10.487
68857W        W41117  41.326   9.736  12.954
68858W        W41118  20.688  13.198  10.406
68859W        W41119   7.852  25.692  11.373
68860W        W41120  30.103  23.174  11.042
68861W        W41121  32.071  20.697   9.986
68862W        W41122  24.055  20.741  13.498
68863W        W41123  35.419  17.633   1.401
68864W        W41124  22.108  43.872  14.004
68865W        W41125  35.002  26.703   1.848
68866W        W41126  17.095   2.296  11.483
68867W        W41127  39.897  16.740  11.423
68868W        W41128  36.417  33.962   1.710
68869W        W41129  43.379  17.662  12.531
68870W        W41130   2.877  21.538  14.882
68871W        W41131  41.968  20.220   0.937
68872W        W41132  33.440   2.875   4.141
68873W        W41133   4.216  44.930  11.057
68874W        W41134  15.758  19.639   0.347
68875W        W41135  35.996  31.527   1.798
68876W        W41136   4.777  40.425   0.897
68877W        W41137   0.945  33.004  10.947
68878W        W41138   8.828  27.487  13.504
68879W        W41139  33.555  33.130  12.502
68880W        W41140   3.882   7.353  12.057
68881W        W41141   8.880   6.199  13.441
68882W        W41142   3.743  14.293   2.296
68883W        W41143  32.622  12.128  13.395
68884W        W41144   9.858  20.196  13.826
68885W        W41145  18.150  27.975  13.402
68886W        W41146   0.863   9.771   0.851
68887W        W41147  41.450   5.734   0.422
68888W        W41148  11.834  43.378  11.891
68889W        W41149   3.730  14.792  13.034
68890W        W41150   6.830  43.321  11.119
68891W        W41151   5.346  41.034  11.929
68892W        W41152  35.480  42.348   2.280
68893W        W41153  22.048  16.118  13.313
68894W        W41154  23.590  41.493   2.868
68895W        W41155  17.574  42.344   0.811
68896W        W41156  10.293  26.129  12.346
68897W        W41157   2.240   6.713  14.346
68898W        W41158  20.713   8.251  13.798
68899W        W41159  16.575  21.091  13.046
68900W        W41160  13.274  17.073   5.195
68901W        W41161  12.839   9.303  10.550
68902W        W41162   5.349  36.021   4.614
68903W        W41163  36.910  35.072  12.078
68904W        W41164  34.954   4.341   4.680
68905W        W41165   9.665  15.199  10.439
68906W        W41166  38.843  27.529   0.247
68907W        W41167   1.316  20.251   4.163
68908W        W41168  25.606   9.230  14.868
68909W        W41169  35.503  16.703   0.370
68910W        W41170  25.539  35.589  13.838
68911W        W41171  39.033  13.843   0.884
68912W        W41172  18.550  15.585  14.809
68913W        W41173  19.107  35.496   1.351
68914W        W41174  14.161   9.693   1.796
68915W        W41175  36.434  19.139  11.535
68916W        W41176  12.322  28.119   5.088
68917W        W41177  26.701  42.964   1.236
68918W        W41178  30.103  10.307  10.496
68919W        W41179  18.643   8.865   9.652
68920W        W41180  29.970  10.771   0.440
68921W        W41181  21.146  27.087  14.403
68922W        W41182  20.597  26.208  10.900
68923W        W41183   5.277  17.701   2.800
68924W        W41184  11.738  37.543   2.733
68925W        W41185  37.919   5.361   1.892
68926W        W41186  13.142   3.923   1.706
68927W        W41187  25.104  16.689  12.051
68928W        W41188  30.087  19.752  12.355
68929W        W41189  35.932  25.186  11.566
68930W        W41190  24.583   0.292   4.216
68931W        W41191  33.552  14.816  13.374
68932W        W41192  26.175  38.331  11.534
68933W        W41193   9.773  44.868   4.293
68934W        W41194  19.263   6.227  11.986
68935W        W41195   0.247  14.721  10.490
68936W        W41196  11.702  20.714  13.886
68937W        W41197  44.292  28.141  12.906
68938W        W41198   0.871  10.345  11.943
68939W        W41199  36.513  11.832   1.826
68940W        W41200  34.090  14.821  13.880
68941W        W41201  32.057  30.615  13.495
68942W        W41202   8.263  11.684   3.194
68943W        W41203  41.456  24.636   1.851
68944W        W41204  17.759  26.619   2.882
68945W        W41205  32.586   5.281   0.478
68946W        W41206  12.801  33.989  10.888
68947W        W41207   9.777  29.575   0.367
68948W        W41208  28.106   4.939   4.127
68949W        W41209  35.377  39.832   0.757
68950W        W41210  29.067  31.459   4.281
68951W        W41211  27.678  24.097  13.054
68952W        W41212  33.079  40.881   4.166
68953W        W41213   0.906  38.900  14.322
68954W        W41214  44.778  19.145  14.449
68955W        W41215  30.006  41.376  13.800
68956W        W41216  39.425  38.954  14.425
68957W        W41217  32.494  30.555  10.529
68958W        W41218  15.693  18.654   4.682
68959W        W41219  21.041  17.559   0.333
68960W        W41220   7.887  24.146   0.421
68961W        W41221  14.153   0.773   1.416
68962W        W41222  16.241  20.268  12.844
68963W        W41223  35.033  10.178   3.196
68964W        W41224  17.705  38.877  11.441
68965W        W41225  38.871  27.494   3.218
68966W        W41226  31.492  31.939   5.181
68967W        W41227  32.082  24.077   4.282
68968W        W41228  30.091  41.394   2.800
68969W        W41229  17.559  40.867  14.764
68970W        W41230  30.536  16.209   3.706
68971W        W41231   5.327   2.864   3.266
68972W        W41232  18.133  16.231   3.771
68973W        W41233  18.268  30.922  14.001
68974W        W41234  24.704  39.007   3.829
68975W        W41235  25.085  23.587  13.011
68976W        W41236  44.814  42.002   4.764
68977W        W41237  14.744  16.633   3.747
68978W        W41238  19.145  35.915   2.684
68979W        W41239  19.554  10.717  10.404
68980W        W41240  37.536  17.744   0.320
68981W        W41241   1.354  31.569   4.322
68982W        W41242  19.164   9.821  11.521
68983W        W41243   1.948   1.427   0.915
68984W        W41244  17.605  32.415   0.405
68985W        W41245  15.312  12.255   0.459
68986W        W41246  42.823  24.985  14.455
68987W        W41247  23.075   0.434   1.297
68988W        W41248  19.737  15.160   0.254
68989W        W41249   1.878  14.107   0.959
68990W        W41250   4.448  23.218  12.021
68991W        W41251  37.499  21.524   2.727
68992W        W41252  17.226  19.764   2.675
68993W        W41253  18.654  33.468  10.938
68994W        W41254  21.738   9.340   0.866
68995W        W41255  28.004  11.728  10.916
68996W        W41256  14.689  40.914  10.992
68997W        W41257  34.601   8.374   4.738
68998W        W41258  30.147   2.880  10.607
68999W        W41259  41.874   9.305  14.398
69000W        W41260  28.634  27.532  13.019
69001W        W41261  43.994   9.802   3.685
69002W        W41262   3.308  20.209   2.668
69003W        W41263   3.818  44.290  13.013
69004W        W41264   2.749  39.419  11.108
69005W        W41265  30.448  26.490   0.338
69006W        W41266  16.125  43.299  12.384
69007W        W41267  11.749   5.905   4.791
69008W        W41268  24.625  24.521   3.654
69009W        W41269  15.750  42.514  12.823
69010W        W41270   5.872   2.429  11.102
69011W        W41271  34.879  12.226   1.721
69012W        W41272   6.251  41.991  11.577
69013W        W41273  24.978  29.662   4.165
69014W        W41274  27.106   2.327  13.319
69015W        W41275  25.106  41.443   0.814
69016W        W41276   2.825  29.993  14.465
69017W        W41277  36.971  43.802  14.982
69018W        W41278  41.864  19.103   4.239
69019W        W41279  42.860  24.539  13.054
69020W        W41280  25.012   6.703  10.532
69021W        W41281   3.784  35.939   2.848
69022W        W41282  12.774  26.145  10.946
69023W        W41283  14.605  40.469  11.603
69024W        W41284  28.165  14.699  11.933
69025W        W41285   3.257  43.394   4.255
69026W        W41286  40.490  14.787  12.524
69027W        W41287  11.671  36.448   2.311
69028W        W41288  15.251   3.785  10.420
69029W        W41289   1.297  44.838  12.075
69030W        W41290  17.088  12.185   2.668
69031W        W41291   5.224  35.042   4.228
69032W        W41292   1.357  29.527   1.933
69033W        W41293  38.418  43.010  10.915
69034W        W41294  20.684  24.079   3.752
69035W        W41295  25.640  17.199  14.813
69036W        W41296   7.757   3.786  14.361
69037W        W41297  16.312  10.810  11.426
69038W        W41298  32.956  23.230  14.860
69039W        W41299  34.407   6.728  14.424
69040W        W41300  21.162  23.216  13.893
69041W        W41301  32.628  44.907  14.325
69042W        W41302  43.492  13.254  13.009
69043W        W41303  30.952  12.822   2.400
69044W        W41304  13.617   0.742  11.106
69045W        W41305   2.821  12.708   1.900
69046W        W41306  39.518  17.211  11.107
69047W        W41307  16.789  30.540   3.719
69048W        W41308  19.770  27.125  13.793
69049W        W41309  34.976  28.985  13.426
69050W        W41310  37.493   5.294   4.766
69051W        W41311  16.185  43.319  12.832
69052W        W41312  18.181  42.956  10.612
69053W        W41313   6.295  34.573   3.784
69054W        W41314  17.633  35.058   3.632
69055W        W41315  11.650   0.432  14.449
69056W        W41316   8.351  18.559  12.086
69057W        W41317   7.352   8.675   0.958
69058W        W41318  18.689  14.278  13.475
69059W        W41319  36.572  18.652   3.296
69060W        W41320  32.897  21.624   2.674
69061W        W41321   2.355  41.880   4.815
69062W        W41322  43.966   1.412  14.846
69063W        W41323  28.101  42.487   0.257
69064W        W41324  43.440   6.842  11.033
69065W        W41325  37.401  32.891   2.749
69066W        W41326  39.957   0.434  13.514
69067W        W41327   3.757  15.158   2.703
69068W        W41328  13.709  44.843   2.243
69069W        W41329  10.656  15.774  12.941
69070W        W41330  25.687   1.869  12.378
69071W        W41331  42.914  26.689   5.132
69072W        W41332  17.673  22.507   4.686
69073W        W41333  14.172  43.838   3.714
69074W        W41334   0.856   8.176  14.015
69075W        W41335  33.509   2.786   2.264
69076W        W41336   5.775  16.186   1.792
69077W        W41337   1.411  26.627  11.874
69078W        W41338  43.845  15.193  14.461
69079W        W41339  42.805   4.726  11.000
69080W        W41340   8.393  10.221  12.832
69081W        W41341  21.041  32.635  10.997
69082W        W41342   8.397  38.542  11.855
69083W        W41343   3.371  14.326   3.196
69084W        W41344   7.249  35.879  13.871
69085W        W41345   0.381  17.667   0.858
69086W        W41346  21.025  32.929   1.236
69087W        W41347  33.992   6.327  10.417
69088W        W41348   5.924  39.052   0.810
69089W        W41349  36.544   9.880  11.064
69090W        W41350  29.547  39.974   3.162
69091W        W41351  27.637  24.578  13.987
69092W        W41352  37.402  30.597   9.954
69093W        W41353  43.970  36.536   3.741
69094W        W41354   2.833  20.698   2.674
69095W        W41355   5.316  36.974  14.780
69096W        W41356  26.459   1.476  10.997
69097W        W41357  29.584  40.385   4.692
69098W        W41358  35.888  40.879   0.393
69099W        W41359  30.036  42.827   4.729
69100W        W41360  20.255  17.604  12.952
69101W        W41361  16.609  33.620  14.362
69102W        W41362  31.134  13.674   3.802
69103W        W41363  19.626  10.816   2.180
69104W        W41364   3.799  33.472   4.268
69105W        W41365  23.714  43.946   3.191
69106W        W41366   0.348  16.314   0.754
69107W        W41367   7.328  20.545  12.069
69108W        W41368   8.352  30.083   4.181
69109W        W41369  30.945  16.170  13.011
69110W        W41370  38.835  37.996  13.901
69111W        W41371  24.115  22.096   2.236
69112W        W41372  19.050  18.083   3.729
69113W        W41373  17.612  19.729  14.288
69114W        W41374  31.030   0.945   2.329
69115W        W41375  35.403   4.296  14.868
69116W        W41376  27.076  18.225   1.802
69117W        W41377  13.645   3.806   4.158
69118W        W41378  26.633   8.705   1.385
69119W        W41379  32.070  21.754   3.362
69120W        W41380  25.083   2.834   2.842
69121W        W41381   8.877  40.031   0.887
69122W        W41382   8.228   9.346  12.066
69123W        W41383  37.008  21.256  11.425
69124W        W41384  31.616  29.926  10.509
69125W        W41385  21.588  16.180   0.828
69126W        W41386  23.241  19.657  14.346
69127W        W41387   1.917  26.586   3.381
69128W        W41388  28.095  24.507  12.463
69129W        W41389   9.299  39.061   1.738
69130W        W41390  15.743   0.912  14.831
69131W        W41391  17.096  44.836  11.532
69132W        W41392   7.862  34.954   4.137
69133W        W41393  42.339  24.224   4.186
69134W        W41394  13.129   8.717  12.018
69135W        W41395  11.221  42.792   0.368
69136W        W41396  39.986  14.234   4.246
69137W        W41397  35.504  15.143   2.725
69138W        W41398  35.023   3.407  13.487
69139W        W41399   4.334  33.614  14.399
69140W        W41400  15.216   3.428  11.492
69141W        W41401  16.700   1.307  11.092
69142W        W41402  16.290   1.365  11.600
69143W        W41403   5.701   8.329  13.310
69144W        W41404  23.512  30.984   0.345
69145W        W41405  34.048  12.324  12.388
69146W        W41406  11.832  20.132   4.709
69147W        W41407  23.163  40.004   3.871
69148W        W41408  38.328   8.292   3.743
69149W        W41409  20.611  43.866   2.274
69150W        W41410  17.707  35.912   2.352
69151W        W41411  36.869  21.586  11.551
69152W        W41412  17.239  23.004  11.545
69153W        W41413  24.710  20.120  14.922
69154W        W41414  32.068  24.680   1.894
69155W        W41415  31.960  42.345  13.868
69156W        W41416  15.152  14.188  10.488
69157W        W41417  21.688  12.785  12.414
69158W        W41418  15.693  21.723  10.601
69159W        W41419  16.650  38.897   3.266
69160W        W41420  18.779   7.315  13.998
69161W        W41421  40.492  11.698   3.842
69162W        W41422   6.840  23.207   4.333
69163W        W41423   7.794  38.866  13.017
69164W        W41424  12.785  30.619   1.789
69165W        W41425  18.581   1.389  12.925
69166W        W41426  27.156  20.181  12.843
69167W        W41427  43.494  40.893  12.492
69168W        W41428  16.594  28.117  11.115
69169W        W41429  32.905  16.185  10.561
69170W        W41430  19.188  40.319  10.549
69171W        W41431  25.142  25.684  13.913
69172W        W41432  38.040   6.271   2.865
69173W        W41433  43.971  37.029  14.808
69174W        W41434   1.253   7.193  11.425
69175W        W41435   8.263   2.944   2.715
69176W        W41436   8.250  13.601   3.853
69177W        W41437  41.030  17.777  13.334
69178W        W41438  13.259  25.615   1.792
69179W        W41439   8.705  37.038   0.798
69180W        W41440  36.020  21.159   1.345
69181W        W41441  44.962  25.046  10.968
69182W        W41442  12.620  38.330   3.154
69183W        W41443  32.094  23.131  13.895
69184W        W41444   6.909   2.339   4.661
69185W        W41445  16.132  40.846  11.492
69186W        W41446  12.354  18.261   1.899
69187W        W41447   4.864   7.212   9.983
69188W        W41448  29.519  41.025   2.728
69189W        W41449  43.287  17.679  11.075
69190W        W41450  32.043  11.751  11.504
69191W        W41451  10.724  25.084   2.741
69192W        W41452  42.930  20.199   4.616
69193W        W41453  15.120  44.395   3.640
69194W        W41454  17.252  30.604  10.991
69195W        W41455  13.120  11.176  11.886
69196W        W41456  35.540  34.403   1.721
69197W        W41457  36.967  34.902   4.164
69198W        W41458  44.402  36.444  14.486
69199W        W41459  33.090  13.624  10.926
69200W        W41460  13.668  30.614   4.123
69201W        W41461  19.701   2.232  14.983
69202W        W41462  32.472  16.705   2.217
69203W        W41463   8.170  24.716   0.427
69204W        W41464  15.168  42.418  14.031
69205W        W41465   0.969  34.386   1.410
69206W        W41466  18.722  41.908   1.799
69207W        W41467  12.681  17.229   4.268
69208W        W41468  19.089  25.026  13.944
69209W        W41469  28.050  39.043   9.982
69210W        W41470   3.852  19.724   1.221
69211W        W41471  26.461  30.045   2.334
69212W        W41472  23.617  10.295  14.821
69213W        W41473   8.319  42.526   2.403
69214W        W41474   3.287  15.276  11.959
69215W        W41475  10.688  26.641  14.838
69216W        W41476  34.928  36.037   1.790
69217W        W41477  17.106  39.937   1.914
69218W        W41478  18.051  44.391  12.941
69219W        W41479  27.961  29.638  10.644
69220W        W41480  31.557   9.378  11.856
69221W        W41481   3.422  32.008  10.452
69222W        W41482  11.662  39.502   2.706
69223W        W41483  44.444  38.893  12.918
69224W        W41484  41.307  36.082   0.264
69225W        W41485  18.652  23.716   2.771
69226W        W41486  21.174  13.675   1.216
69227W        W41487  11.164  24.154  13.541
69228W        W41488  35.576  14.715  14.397
69229W        W41489   4.286  26.594   4.215
69230W        W41490  36.062  21.519  14.417
69231W        W41491  14.700  35.365  14.402
69232W        W41492   9.872  38.406  10.941
69233W        W41493  16.688  20.526   3.361
69234W        W41494  25.147  23.518   2.840
69235W        W41495  22.528  32.926  11.558
69236W        W41496  34.035  37.066  10.987
69237W        W41497   8.715  41.948  12.091
69238W        W41498   5.901   5.412  11.572
69239W        W41499  21.076  44.891  12.005
69240W        W41500  34.554  32.429   3.153
69241W        W41501  41.336  40.912  11.000
69242W        W41502  43.965   0.748   3.237
69243W        W41503  31.533  42.921  12.491
69244W        W41504  33.912  13.163  13.322
69245W        W41505  28.942  37.069   0.727
69246W        W41506  15.280   1.865   2.313
69247W        W41507  42.956  29.000  14.340
69248W        W41508   9.856  13.623  12.083
69249W        W41509  34.550  20.157  10.632
69250W        W41510  18.699  22.557  10.122
69251W        W41511  41.388  21.567   1.698
69252W        W41512  24.150   1.461   2.798
69253W        W41513  40.544  42.402  12.042
69254W        W41514  43.985  29.061   2.879
69255W        W41515  36.556  37.886   3.684
69256W        W41516  24.586  23.507  14.371
69257W        W41517  37.480  19.579   1.710
69258W        W41518  37.449   8.820   1.736
69259W        W41519  37.523  39.923  10.427
69260W        W41520  41.341   2.852  12.355
69261W        W41521  35.050   4.241   0.730
69262W        W41522  19.712  40.327   0.281
69263W        W41523  18.284  13.266   2.251
69264W        W41524  44.795   4.426  14.838
69265W        W41525  12.617  40.042   4.814
69266W        W41526  13.320   5.744  14.995
69267W        W41527  29.563  20.116  14.443
69268W        W41528  14.819   4.920   3.864
69269W        W41529  41.935  20.126  10.422
69270W        W41530   7.230  42.869  13.038
69271W        W41531  17.779  14.233  10.990
69272W        W41532  22.529  36.916  12.429
69273W        W41533  12.700  40.423   3.867
69274W        W41534  15.731  35.917   3.769
69275W        W41535  31.039   1.928   2.687
69276W        W41536   7.706   2.817   1.754
69277W        W41537  23.582  27.013   2.806
69278W        W41538  19.580  27.630  11.973
69279W        W41539  22.026   5.889  13.793
69280W        W41540  40.335  44.413   1.438
69281W        W41541  25.577   9.375  10.497
69282W        W41542  32.122   8.394   2.273
69283W        W41543  33.963  37.560   4.826
69284W        W41544  28.975   3.271   4.645
69285W        W41545  31.582   7.228   0.919
69286W        W41546  32.040   2.309  12.438
69287W        W41547  43.345  10.700  14.282
69288W        W41548  44.915  38.009   4.153
69289W        W41549  19.590  13.137   0.752
69290W        W41550  18.568  17.222  10.440
69291W        W41551  13.199  30.132   4.285
69292W        W41552   7.240  42.935  13.826
69293W        W41553  14.300  41.311   2.273
69294W        W41554  15.273  20.189   3.205
69295W        W41555  32.915  33.094   2.754
69296W        W41556  39.041   7.372  14.016
69297W        W41557  32.497  13.717  10.610
69298W        W41558  22.176  38.488  12.394
69299W        W41559  23.178  27.596  11.612
69300W        W41560  43.935   2.291  12.548
69301W        W41561  13.282   0.403  12.876
69302W        W41562  28.495  21.547  10.492
69303W        W41563  20.762   4.414   0.768
69304W        W41564  31.024  41.983   0.908
69305W        W41565  19.680  32.928  14.441
69306W        W41566  22.184  41.935   0.426
69307W        W41567  24.615   8.297  13.937
69308W        W41568  16.104   1.800  13.532
69309W        W41569   7.272  37.361  14.298
69310W        W41570   9.708  19.097   1.709
69311W        W41571  40.456  31.563   0.896
69312W        W41572  36.364  29.064   4.738
69313W        W41573  10.700  12.853   0.295
69314W        W41574  15.239  24.534  11.515
69315W        W41575  25.094  22.182  11.979
69316W        W41576  33.038  17.150  13.819
69317W        W41577   3.739   3.373   4.792
69318W        W41578  31.560  39.821  12.088
69319W        W41579  21.625  44.419  10.513
69320W        W41580   9.751   0.878   2.856
69321W        W41581  19.215  23.053   2.892
69322W        W41582  37.969  23.132  12.871
69323W        W41583  25.044  13.623  14.358
69324W        W41584  16.647  16.749  10.038
69325W        W41585  19.152  23.701   3.367
69326W        W41586  12.760   0.385   2.866
69327W        W41587  26.617  27.566   1.931
69328W        W41588  41.942  33.110  14.892
69329W        W41589  19.049  12.674   4.758
69330W        W41590  11.838  10.739  11.375
69331W        W41591  22.119  16.180  12.901
69332W        W41592  16.593  32.975   2.296
69333W        W41593  29.129   8.367  11.995
69334W        W41594  43.950  27.617   0.759
69335W        W41595  21.543  11.261   3.673
69336W        W41596   3.877  16.249  10.996
69337W        W41597  31.114  22.078  12.978
69338W        W41598  39.341   7.764   0.450
69339W        W41599  25.038  44.859  14.972
69340W        W41600  33.593   4.810  13.488
69341W        W41601  21.691   3.359   0.828
69342W        W41602  28.621  30.649   2.797
69343W        W41603  44.457  40.916   4.678
69344W        W41604   0.849  28.555   2.237
69345W        W41605  19.611  18.233  11.081
69346W        W41606  21.257  14.592  14.481
69347W        W41607   3.874  12.251  13.873
69348W        W41608   0.332  12.322   2.317
69349W        W41609  37.501  19.682  10.079
69350W        W41610  38.412  36.010  11.455
69351W        W41611  18.600   0.767   4.323
69352W        W41612   8.804  23.120  12.576
69353W        W41613  26.100   0.780   4.116
69354W        W41614   7.854  33.899   1.886
69355W        W41615  28.601  39.979   2.722
69356W        W41616  44.805   3.795   2.401
69357W        W41617  19.132  43.298   3.273
69358W        W41618  42.433  35.036   0.272
69359W        W41619  22.075  41.799   1.269
69360W        W41620  39.519  34.934  12.835
69361W        W41621   0.259  24.013   3.648
69362W        W41622  20.739   7.768  13.351
69363W        W41623   1.897  39.327   1.862
69364W        W41624   8.399   2.338  13.981
69365W        W41625  17.289  25.185   2.775
69366W        W41626   9.214  27.970   0.911
69367W        W41627  31.012  31.431   4.255
69368W        W41628  37.372   2.331  13.984
69369W        W41629  19.669   0.294   0.760
69370W        W41630   0.393   7.413  14.934
69371W        W41631  34.517   7.374   3.633
69372W        W41632  36.376  41.863   3.646
69373W        W41633  39.828  35.469  13.920
69374W        W41634   4.425  17.075  13.958
69375W        W41635  35.510  31.579  11.000
69376W        W41636  24.548  11.136  11.859
69377W        W41637  30.458  41.363   0.958
69378W        W41638   3.901  30.010   0.789
69379W        W41639  41.854  35.870  10.913
69380W        W41640  38.074  29.015  14.802
69381W        W41641   7.282  30.596  14.820
69382W        W41642  12.645   2.884   4.161
69383W        W41643  27.650  13.324  13.456
69384W        W41644  11.168  13.750   4.313
69385W        W41645  16.681  10.240  12.869
69386W        W41646  27.629  31.148   4.163
69387W        W41647  27.605  12.125  10.469
69388W        W41648   5.696  18.763  13.027
69389W        W41649  44.497   2.743  13.402
69390W        W41650  40.385  42.801  10.002
69391W        W41651  11.693  12.232  13.447
69392W        W41652  17.693  19.146   4.617
69393W        W41653   2.461  37.916  14.510
69394W        W41654  29.436  12.792  14.771
69395W        W41655  10.277  13.111  13.853
69396W        W41656  29.918  30.109  13.452
69397W        W41657  29.070   7.872   2.834
69398W        W41658  11.759  14.339  14.924
69399W        W41659  15.664   3.877   1.857
69400W        W41660  42.967  32.493  12.990
69401W        W41661  18.126  40.472  11.072
69402W        W41662  11.805  28.457   1.366
69403W        W41663  33.467  36.039   1.445
69404W        W41664  21.057  27.056  12.026
69405W        W41665  36.054  21.140   3.836
69406W        W41666  16.703  42.971  11.128
69407W        W41667  25.152  15.623  12.497
69408W        W41668  27.531  36.868  11.554
69409W        W41669   1.282  13.272   0.316
69410W        W41670  12.342  35.050  14.908
69411W        W41671  41.023  18.250   2.872
69412W        W41672   7.771  22.726  10.019
69413W        W41673  35.928  19.230  10.508
69414W        W41674  30.550   3.349  14.946
69415W        W41675  30.974   3.836   3.216
69416W        W41676   9.737  19.592   2.378
69417W        W41677  25.632   8.314   4.669
69418W        W41678   7.690  37.425   1.772
69419W        W41679   3.870  28.571  13.808
69420W        W41680  25.490  26.489   4.201
69421W        W41681  34.431  13.692  13.803
69422W        W41682  31.454  25.016   2.732
69423W        W41683  32.040  37.553   3.206
69424W        W41684  44.998  42.975  10.644
69425W        W41685  12.204  36.064   1.853
69426W        W41686  24.632  36.020  13.388
69427W        W41687  13.119  35.092   0.243
69428W        W41688  40.459   4.430  10.513
69429W        W41689  31.062  21.703  12.559
69430W        W41690  35.387  16.598  14.503
69431W        W41691  17.603  23.633   1.845
69432W        W41692  33.035   6.225   0.340
69433W        W41693  12.288  33.065   1.762
69434W        W41694   1.820  36.872   0.750
69435W        W41695  11.753  34.966   4.238
69436W        W41696  11.652  27.470  12.003
69437W        W41697   4.883  24.683   3.680
69438W        W41698  40.314   9.302  11.461
69439W        W41699  28.010  21.029   1.726
69440W        W41700   0.900  27.465   2.870
69441W        W41701  11.714  34.098   0.447
69442W        W41702   0.486  31.573  10.605
69443W        W41703  39.326  14.319  12.878
69444W        W41704  30.063  32.551  10.102
69445W        W41705  21.732  15.581   3.164
69446W        W41706  33.987  23.538  12.840
69447W        W41707   7.720  37.918  12.406
69448W        W41708  29.936  32.127   1.772
69449W        W41709  42.807  10.350   1.902
69450W        W41710  13.665  41.026  12.503
69451W        W41711  34.971  19.211  14.371
69452W        W41712   7.896   2.873  12.422
69453W        W41713   4.330  16.265   4.684
69454W        W41714  33.052  21.091   2.679
69455W        W41715  40.347  39.892  10.467
69456W        W41716   9.289  30.655   1.813
69457W        W41717  22.075  44.919  13.404
69458W        W41718   3.376   2.453  10.973
69459W        W41719  37.445  30.031  11.120
69460W        W41720  26.158  36.368  10.405
69461W        W41721  43.295  19.150  13.936
69462W        W41722  33.559  31.461   3.157
69463W        W41723  39.373  20.151  13.895
69464W        W41724  25.172  43.935  12.463
69465W        W41725  13.668  35.437  13.331
69466W        W41726  44.763  44.807  12.350
69467W        W41727  10.705   7.287   0.910
69468W        W41728  43.415   0.402  12.514
69469W        W41729  25.030  13.774   2.223
69470W        W41730  29.591   2.912  14.301
69471W        W41731   3.779  17.711  13.414
69472W        W41732  14.628  41.824   3.659
69473W        W41733  23.005  15.715  13.969
69474W        W41734  13.845   8.726  13.008
69475W        W41735  16.257  15.643   0.338
69476W        W41736  25.522  13.242  13.027
69477W        W41737  23.589  32.101  11.508
69478W        W41738   1.923   0.369   0.318
69479W        W41739  37.484  42.289  11.432
69480W        W41740  20.228  23.582  10.548
69481W        W41741  23.515  21.701   3.827
69482W        W41742  43.842  37.439   2.814
69483W        W41743   6.878  29.073   0.867
69484W        W41744   5.418   8.816   2.804
69485W        W41745   5.879   9.203   1.432
69486W        W41746   9.876  13.827  10.643
69487W        W41747  33.509   9.881   3.776
69488W        W41748  19.050  39.871  12.960
69489W        W41749  22.718  18.149   4.164
69490W        W41750  30.621  30.511  11.560
69491W        W41751  40.347  17.123  11.117
69492W        W41752  31.585  43.948   2.759
69493W        W41753  41.023   5.900   4.139
69494W        W41754   4.875  26.610  14.769
69495W        W41755  29.923  43.403   3.182
69496W        W41756  39.952  20.583   3.709
69497W        W41757  17.273   1.462   1.895
69498W        W41758  23.535  42.002   3.669
69499W        W41759  27.116   6.750   3.690
69500W        W41760  37.455  35.981  13.526
69501W        W41761  22.685  40.946   0.285
69502W        W41762  38.497  22.195  12.371
69503W        W41763  15.256  39.941   3.207
69504W        W41764  19.282  28.675   1.742
69505W        W41765   7.882   5.890  11.604
69506W        W41766  20.680  39.398   3.824
69507W        W41767  35.964  10.735  14.858
69508W        W41768  17.252  25.504   2.823
69509W        W41769  17.802  32.899   4.781
69510W        W41770  43.291  40.960  11.385
69511W        W41771  12.720  26.646  13.008
69512W        W41772  10.158  34.489  12.413
69513W        W41773  31.073   4.366  13.307
69514W        W41774  41.897  27.102  12.966
69515W        W41775  37.012  22.129  11.090
69516W        W41776  43.510  23.509  13.415
69517W        W41777  43.387   2.885   0.304
69518W        W41778  17.565   3.786  13.960
69519W        W41779  38.474   1.322  12.009
69520W        W41780  35.998  18.702   3.261
69521W        W41781   2.431  33.464  11.400
69522W        W41782  28.660  25.616   1.916
69523W        W41783  39.923  41.376  12.048
69524W        W41784   9.394  14.326  12.054
69525W        W41785  30.423  11.248  11.126
69526W        W41786  29.133  40.849  11.879
69527W        W41787  12.277   4.803  11.377
69528W        W41788  27.013  38.916   2.901
69529W        W41789   5.404  31.456  11.387
69530W        W41790  22.573  16.662   4.763
69531W        W41791  18.693   5.726  10.638
69532W        W41792   1.955   3.323   0.383
69533W        W41793  41.399  21.179  10.643
69534W        W41794  16.283  28.444  10.895
69535W        W41795  16.180  28.579   1.799
69536W        W41796   9.649  17.565  14.863
69537W        W41797  43.356  23.581  11.603
69538W        W41798  28.959  18.605   3.341
69539W        W41799  30.436   2.940  14.760
69540W        W41800  16.221  22.529   4.826
69541W        W41801   1.868  12.781  11.007
69542W        W41802  21.554  22.109   0.902
69543W        W41803  38.959  37.835  11.582
69544W        W41804   7.828  31.070  11.514
69545W        W41805  22.107  27.089  11.543
69546W        W41806   2.744  36.982   4.769
69547W        W41807   5.272  24.031  14.001
69548W        W41808  13.705   3.406  13.481
69549W        W41809  32.594  42.781   1.341
69550W        W41810  36.436  17.561   3.155
69551W        W41811  42.436  44.362   1.280
69552W        W41812   1.855  10.195   5.292
69553W        W41813   5.803  27.692   4.302
69554W        W41814  22.997  13.332   3.294
69555W        W41815  34.569  14.273  10.533
69556W        W41816  12.233  11.242  11.011
69557W        W41817   0.960  39.471  13.361
69558W        W41818   6.731   4.346  12.572
69559W        W41819   6.250  18.136  11.913
69560W        W41820  24.014  41.327   1.232
69561W        W41821  11.808  43.457  11.453
69562W        W41822   9.706  30.528   1.246
69563W        W41823   4.281   0.933  10.438
69564W        W41824  25.166   0.915  12.066
69565W        W41825  28.975  11.758  13.354
69566W        W41826  19.093  32.506   3.180
69567W        W41827   0.250  35.046   3.380
69568W        W41828   4.324  19.269  12.522
69569W        W41829  26.081  33.041   4.120
69570W        W41830  15.306  12.304   2.232
69571W        W41831  32.098   2.727   0.303
69572W        W41832  44.771   9.701   4.815
69573W        W41833  34.982  13.804  12.006
69574W        W41834  35.415   5.278  13.898
69575W        W41835  38.901  23.071  11.606
69576W        W41836   7.409  12.676   4.659
69577W        W41837  39.559  29.450   3.772
69578W        W41838  39.860  31.587  12.354
69579W        W41839  11.794   0.805   1.367
69580W        W41840  20.049  39.432  13.339
69581W        W41841  19.283  28.589  14.435
69582W        W41842   7.831  26.959  14.891
69583W        W41843   8.691   8.305  14.853
69584W        W41844  13.175  30.148   0.381
69585W        W41845   3.343  32.048  14.873
69586W        W41846  32.044  38.958  12.422
69587W        W41847  42.782  42.915  10.502
69588W        W41848   9.224  33.954   2.221
69589W        W41849  43.284   2.812  12.392
69590W        W41850  26.996  13.740  12.915
69591W        W41851   3.366  36.868  12.020
69592W        W41852  34.926  14.169  12.376
69593W        W41853  32.090  42.865   3.303
69594W        W41854  37.511  25.137  12.486
69595W        W41855  17.235  22.628  12.066
69596W        W41856  37.837  29.932   1.800
69597W        W41857  28.497  26.691  14.981
69598W        W41858  42.525  34.470  14.347
69599W        W41859  11.633  20.696  11.861
69600W        W41860  40.873  13.773  10.915
69601W        W41861  37.037   9.211   1.779
69602W        W41862  31.537  34.459  14.806
69603W        W41863  42.784   6.691   3.854
69604W        W41864  40.804   3.319   4.118
69605W        W41865  29.433  19.224  10.891
69606W        W41866  29.088  27.535   3.846
69607W        W41867  33.553   2.758   4.658
69608W        W41868  22.665   1.973  14.438
69609W        W41869  21.075  22.577   2.675
69610W        W41870   9.388  43.846   0.362
69611W        W41871  11.699  13.757  12.378
69612W        W41872  21.096  18.693   3.299
69613W        W41873  24.144  22.178   2.901
69614W        W41874  23.085   7.812  12.942
69615W        W41875  32.457  43.009  12.048
69616W        W41876  22.996   9.643   0.333
69617W        W41877  24.659  21.208  10.143
69618W        W41878  35.459  16.589   0.771
69619W        W41879  33.100   4.752   2.847
69620W        W41880  23.053  25.085   1.902
69621W        W41881  44.911  19.749   4.228
69622W        W41882  31.054  30.633  12.022
69623W        W41883  41.490  21.213   3.187
69624W        W41884  20.115  34.084   0.403
69625W        W41885  31.953  25.590  13.805
69626W        W41886   5.198  33.044  10.432
69627W        W41887  12.713  14.749  14.875
69628W        W41888  24.175  15.786  12.580
69629W        W41889   3.410  16.661   0.744
69630W        W41890  34.902  13.173  10.630
69631W        W41891  35.401  42.301  12.371
69632W        W41892  40.422  38.391   1.702
69633W        W41893  17.237  40.835   2.767
69634W        W41894  27.970  24.160   5.186
69635W        W41895  24.722  41.362   0.905
69636W        W41896   5.866  11.794   3.380
69637W        W41897  27.131   6.392   0.760
69638W        W41898   3.226  42.829   1.400
69639W        W41899   2.228  19.217   3.348
69640W        W41900  21.255  28.049   0.746
69641W        W41901  34.411  21.596   5.623
69642W        W41902   5.835  36.910   3.854
69643W        W41903   4.766  41.852   3.792
69644W        W41904  37.905  23.214  12.538
69645W        W41905   6.278  22.640  14.783
69646W        W41906   5.697  25.101  12.431
69647W        W41907  24.677  44.483  10.586
69648W        W41908  35.548  25.196  13.327
69649W        W41909  29.025  43.947  13.846
69650W        W41910  32.117  42.453  14.783
69651W        W41911   4.920   9.780   1.876
69652W        W41912   2.439  11.744  10.411
69653W        W41913  31.969  22.553  10.603
69654W        W41914  28.998   8.383   4.245
69655W        W41915  23.222  24.129   4.794
69656W        W41916  10.845  36.472  13.060
69657W        W41917  31.577  26.023   3.230
69658W        W41918  42.958  31.961   0.378
69659W        W41919  34.533  20.184   4.227
69660W        W41920  40.312  27.946   4.235
69661W        W41921  32.063  20.136   3.834
69662W        W41922  42.452  32.947   4.350
69663W        W41923  35.078  38.921  12.926
69664W        W41924   3.453  41.399  12.076
69665W        W41925   2.869  19.136   3.187
69666W        W41926   0.465  23.201  14.009
69667W        W41927   0.450  40.813  13.062
69668W        W41928   4.349   5.702   0.404
69669W        W41929   9.775  27.586  14.295
69670W        W41930  32.032  37.473  10.893
69671W        W41931  18.719   1.759  12.886
69672W        W41932  41.329   0.477   4.755
69673W        W41933  30.654  21.181  13.428
69674W        W41934   7.282  12.354  14.513
69675W        W41935   0.853  28.118   2.198
69676W        W41936  27.572  39.815   9.616
69677W        W41937  12.736  32.957  12.530
69678W        W41938  34.608  18.649   5.187
69679W        W41939   4.333  30.490   3.647
69680W        W41940  26.201  37.349   0.430
69681W        W41941  21.658  38.858  14.839
69682W        W41942  40.959  14.713   1.793
69683W        W41943  15.813  35.952  13.934
69684W        W41944  44.314  35.565  14.791
69685W        W41945  36.366  39.840   4.126
69686W        W41946   0.819  40.516  14.935
69687W        W41947  43.833  34.379  10.910
69688W        W41948   3.347   2.332  13.548
69689W        W41949   2.448  17.143  11.094
69690W        W41950  14.772  14.685   9.559
69691W        W41951   1.770  25.533  13.013
69692W        W41952  10.355  31.557   4.764
69693W        W41953  40.900   8.208   1.362
69694W        W41954   2.458   6.357   2.758
69695W        W41955   4.903   1.284   0.365
69696W        W41956  31.137  14.714  12.577
69697W        W41957   8.286  14.300  13.024
69698W        W41958  21.655  36.847   2.715
69699W        W41959  43.312  42.853  13.348
69700W        W41960  44.945  25.616   1.737
69701W        W41961  41.873  22.235   1.438
69702W        W41962  21.614  41.010  12.839
69703W        W41963  20.606  15.229  14.892
69704W        W41964   6.423  11.334   4.765
69705W        W41965  19.134  43.939  11.968
69706W        W41966  35.938  33.942   0.255
69707W        W41967  22.033   6.711   2.293
69708W        W41968  27.506  15.823  13.839
69709W        W41969  16.195   9.151  14.770
69710W        W41970  18.606  38.479  14.419
69711W        W41971   6.411  29.492  13.871
69712W        W41972  39.384  25.060  14.775
69713W        W41973  12.238   9.339  12.066
69714W        W41974  25.061  10.712   4.639
69715W        W41975  24.596  42.943   3.669
69716W        W41976  19.651  35.935   3.649
69717W        W41977  44.795   3.911  12.412
69718W        W41978  28.448  43.811   0.344
69719W        W41979  26.005  11.857   1.881
69720W        W41980  16.266   8.276  11.482
69721W        W41981  42.808  32.909   1.366
69722W        W41982  23.674  39.509  14.992
69723W        W41983   2.342  29.049   1.828
69724W        W41984  40.526  14.177  10.009
69725W        W41985  42.463  23.525  12.064
69726W        W41986  39.904  19.119  11.437
69727W        W41987  27.643  24.599   3.730
69728W        W41988  11.181  20.062   4.650
69729W        W41989   4.437  26.054  10.503
69730W        W41990  38.408  26.695   2.407
69731W        W41991  12.734   5.212  12.845
69732W        W41992  23.540  12.625  14.937
69733W        W41993  42.937   4.825  11.391
69734W        W41994  18.649  26.587   1.448
69735W        W41995   2.393  16.180   4.160
69736W        W41996  40.940  44.487   2.393
69737W        W41997  13.235  39.992  12.441
69738W        W41998  13.754   2.413   4.241
69739W        W41999  33.945  10.667  13.534
69740W        W42000   4.306  42.518   3.712
69741W        W42001  10.808  36.573  11.128
69742W        W42002  36.895  37.978   4.306
69743W        W42003   3.217   5.422   0.831
69744W        W42004  16.107  25.191  14.900
69745W        W42005  14.189  41.306   2.829
69746W        W42006  38.543  14.777   4.742
69747W        W42007  36.518  17.220   4.132
69748W        W42008  18.735  22.147   3.837
69749W        W42009  26.518  27.632   1.325
69750W        W42010  13.810  42.346  11.476
69751W        W42011  36.405  32.950  13.980
69752W        W42012  31.591  33.116  12.931
69753W        W42013  40.482  22.702  10.952
69754W        W42014  33.606  24.224   0.837
69755W        W42015  14.823  11.298   3.681
69756W        W42016   8.332   2.758  14.342
69757W        W42017   5.886  29.567  10.156
69758W        W42018  15.145  28.486  10.576
69759W        W42019  30.161   0.745  13.387
69760W        W42020  24.060  25.133   4.712
69761W        W42021  15.091  30.109   4.214
69762W        W42022  39.536  14.288  11.525
69763W        W42023  32.097   1.880   0.427
69764W        W42024  14.693  43.502  14.886
69765W        W42025  23.237  44.903   0.445
69766W        W42026  11.263  16.777  11.492
69767W        W42027  40.502  41.339   5.294
69768W        W42028  12.671  24.075   1.819
69769W        W42029   3.326   7.328  13.308
69770W        W42030  22.737  20.076  11.912
69771W        W42031  29.953  10.295   0.961
69772W        W42032  31.008   4.768   1.325
69773W        W42033  37.963  35.447  12.005
69774W        W42034  26.087   7.226  13.054
69775W        W42035   2.725   9.760   0.889
69776W        W42036   5.840   0.270   2.232
69777W        W42037  27.083  13.806  11.906
69778W        W42038  41.396  12.764   3.305
69779W        W42039   7.799   6.873  10.466
69780W        W42040  34.598  44.986  10.408
69781W        W42041  32.974   0.492  11.015
69782W        W42042  18.117  41.460   4.260
69783W        W42043  13.804  29.127  14.321
69784W        W42044   9.821   4.923   3.845
69785W        W42045   3.344   2.262  14.458
69786W        W42046   1.319  19.541  12.580
69787W        W42047  28.586  39.957  13.892
69788W        W42048   7.845   3.787  10.433
69789W        W42049   0.765  17.080  11.104
69790W        W42050  23.583  13.667  11.502
69791W        W42051  31.462  18.051  10.574
69792W        W42052   8.307   6.423   0.750
69793W        W42053  16.078   1.334  14.879
69794W        W42054  39.423  17.224  11.961
69795W        W42055  32.446  21.113  14.383
69796W        W42056  31.902   4.367   0.338
69797W        W42057  30.550  28.063  14.304
69798W        W42058  32.524   6.828   1.782
69799W        W42059  24.029  11.361  13.503
69800W        W42060  21.541  22.527   1.228
69801W        W42061   9.220  12.805   3.242
69802W        W42062  34.069  42.932   4.118
69803W        W42063  25.190   9.801   1.796
69804W        W42064  27.525  24.211   2.715
69805W        W42065  16.804  25.478  13.359
69806W        W42066  35.057  26.031   4.823
69807W        W42067  40.051   0.341   4.671
69808W        W42068  11.867  26.173  10.488
69809W        W42069  28.440  28.496   0.788
69810W        W42070  36.574  13.650   4.270
69811W        W42071  30.558  18.146   1.352
69812W        W42072  23.589  16.635   3.741
69813W        W42073   5.783  35.364   4.321
69814W        W42074  10.860  44.389  11.054
69815W        W42075  22.233   9.748  11.454
69816W        W42076  17.591   9.675  11.604
69817W        W42077  22.136  43.416  11.881
69818W        W42078  19.604  38.513   4.154
69819W        W42079  30.987  10.359   2.817
69820W        W42080  13.819   7.356  11.969
69821W        W42081  38.434   2.749  12.982
69822W        W42082  44.335  28.013   0.389
69823W        W42083  31.049  15.673  13.898
69824W        W42084  21.633   2.406   0.293
69825W        W42085   6.336  11.283   1.242
69826W        W42086  10.844  44.384   1.874
69827W        W42087   7.354  25.099  14.329
69828W        W42088  21.584  13.335   0.362
69829W        W42089  34.445  35.421   4.137
69830W        W42090  12.340  23.609   1.910
69831W        W42091   7.321   6.861   0.305
69832W        W42092  37.506   3.948  11.928
69833W        W42093  38.397  35.955   3.150
69834W        W42094  38.030  39.380   4.786
69835W        W42095  11.762  31.130  13.416
69836W        W42096  25.560  23.543  14.984
69837W        W42097   5.252  30.987  10.922
69838W        W42098  23.578  33.994  10.559
69839W        W42099  31.492  41.012  10.491
69840W        W42100  24.686  20.651   2.362
69841W        W42101  25.500  32.422  11.563
69842W        W42102  41.866  18.789   3.715
69843W        W42103   0.320  39.505   2.819
69844W        W42104  10.664  36.481  14.315
69845W        W42105   4.322   4.797  14.968
69846W        W42106  23.623   9.263  13.022
69847W        W42107  43.349   8.726  12.869
69848W        W42108  34.957  36.447   3.264
69849W        W42109   2.830  24.215   0.304
69850W        W42110  11.362  27.039  14.872
69851W        W42111  31.612  23.070  14.310
69852W        W42112  28.656  42.454   1.265
69853W        W42113  10.819  16.097  13.868
69854W        W42114  18.739  17.604   0.837
69855W        W42115  36.471  38.387  10.639
69856W        W42116  39.039  22.624   3.760
69857W        W42117   7.254   5.692   0.765
69858W        W42118   1.880  43.347   0.419
69859W        W42119  41.841  33.598  13.462
69860W        W42120   7.292  27.016   0.475
69861W        W42121  31.436  39.532  12.387
69862W        W42122  26.114  34.372  14.995
69863W        W42123  11.338   6.745  11.452
69864W        W42124  16.264  24.703   3.215
69865W        W42125  16.284  33.048   4.720
69866W        W42126   8.379  16.288  13.420
69867W        W42127  39.369  10.656   1.778
69868W        W42128  44.431  19.743   4.196
69869W        W42129  17.078   1.458  12.905
69870W        W42130   1.733  20.529  10.556
69871W        W42131  43.793   9.212  11.594
69872W        W42132  13.167  23.139  12.032
69873W        W42133   6.912  22.998  11.076
69874W        W42134  20.695  26.100   4.313
69875W        W42135   2.749  28.498  12.496
69876W        W42136  20.541  28.016   4.658
69877W        W42137  23.581  42.019  10.551
69878W        W42138  12.344  26.975   2.251
69879W        W42139  14.736  18.591   0.903
69880W        W42140  36.883  16.191  11.583
69881W        W42141  28.097  27.083   2.731
69882W        W42142  12.820   3.357   3.301
69883W        W42143  12.276  15.245   4.226
69884W        W42144  14.248  42.394  14.762
69885W        W42145   7.861  43.322  14.768
69886W        W42146  35.908   5.293   3.336
69887W        W42147   0.879  31.415  10.970
69888W        W42148  38.564  12.232   2.757
69889W        W42149  37.410   3.455   1.373
69890W        W42150  41.975   0.410   2.313
69891W        W42151  13.607  19.131   4.703
69892W        W42152  13.197  32.000  11.107
69893W        W42153  36.557  44.434  10.529
69894W        W42154  16.632  26.083  10.641
69895W        W42155   9.658   6.889  13.454
69896W        W42156  40.385   9.359  13.873
69897W        W42157  25.677  15.697  13.333
69898W        W42158  13.821  42.401   3.311
69899W        W42159  43.989  39.039   0.479
69900W        W42160  29.967  31.901   2.843
69901W        W42161  10.703   6.790   4.274
69902W        W42162  19.544  25.093   3.221
69903W        W42163  32.037  30.064   1.892
69904W        W42164  33.886   7.178  10.564
69905W        W42165  38.051  12.849  14.486
69906W        W42166   2.291  30.016   2.783
69907W        W42167  12.249  30.540  14.012
69908W        W42168   6.190  33.608   0.843
69909W        W42169   2.754  20.230   3.795
69910W        W42170  23.042   2.833   2.780
69911W        W42171  36.387   0.481   3.687
69912W        W42172  14.667  24.071  13.043
69913W        W42173  14.139  42.861  12.987
69914W        W42174  21.612  29.595   3.735
69915W        W42175   7.345  10.308  13.500
69916W        W42176  12.309  20.114  13.503
69917W        W42177  13.178  44.419  10.446
69918W        W42178   7.860   5.908  14.310
69919W        W42179   4.738  10.688   2.328
69920W        W42180  15.660   4.392  10.152
69921W        W42181  42.775  20.656  10.410
69922W        W42182  44.384  35.974  11.860
69923W        W42183  30.425   5.730  11.392
69924W        W42184  33.597  17.159   3.351
69925W        W42185  32.422  13.284  14.511
69926W        W42186  11.783  44.860   3.295
69927W        W42187   6.900  23.081   3.683
69928W        W42188  18.747  22.108  13.541
69929W        W42189  40.927  38.876   3.728
69930W        W42190  19.720  13.662   3.322
69931W        W42191  17.660  31.065  12.922
69932W        W42192  20.034  35.409   0.753
69933W        W42193  17.258  17.648   0.431
69934W        W42194   6.245  26.024  11.034
69935W        W42195  27.147   7.171   2.313
69936W        W42196   8.837  26.142  14.463
69937W        W42197  25.544  32.974  11.397
69938W        W42198  38.026  31.935   0.310
69939W        W42199  34.070  23.606  12.341
69940W        W42200   9.197  35.379   1.818
69941W        W42201  16.769  27.544  12.507
69942W        W42202   8.794  24.099   5.210
69943W        W42203  25.007   0.775   4.671
69944W        W42204  36.068  17.574  12.005
69945W        W42205   2.292  19.599   4.216
69946W        W42206  36.092  10.231  12.421
69947W        W42207  29.011  10.635  13.457
69948W        W42208   6.750  40.948   2.345
69949W        W42209   5.361  39.371   1.800
69950W        W42210   4.228  30.629  11.404
69951W        W42211   3.294  40.000  14.831
69952W        W42212  23.157   6.780  13.495
69953W        W42213  11.653   5.221  12.872
69954W        W42214  23.984  23.064   3.695
69955W        W42215  14.185  19.239   3.291
69956W        W42216  38.459  38.391  12.477
69957W        W42217  28.442  20.740   0.730
69958W        W42218  11.266  17.768   2.282
69959W        W42219  12.839  27.026  14.370
69960W        W42220  19.098  21.629  13.023
69961W        W42221  43.469  18.626  11.021
69962W        W42222  10.813  36.085   5.254
69963W        W42223  27.452  27.059   0.841
69964W        W42224  30.489  29.485  10.495
69965W        W42225  14.821  34.573  10.089
69966W        W42226  42.779  19.559  10.567
69967W        W42227  42.953  25.022   2.759
69968W        W42228  40.797  41.507  12.541
69969W        W42229   0.977  24.046   4.645
69970W        W42230  41.374  14.635   1.932
69971W        W42231  37.858  43.298  13.317
69972W        W42232  14.785   8.355  11.038
69973W        W42233  24.690  31.093   2.790
69974W        W42234  36.911  26.564   1.219
69975W        W42235  13.237  27.950  12.528
69976W        W42236  28.045  43.490  13.895
69977W        W42237  16.813  14.677  14.295
69978W        W42238  43.898  44.860   1.740
69979W        W42239  26.497  27.531  13.996
69980W        W42240  12.662  24.164  12.932
69981W        W42241  27.979  37.923   0.313
69982W        W42242  25.099  13.706  12.420
69983W        W42243  38.907  40.418  10.944
69984W        W42244  40.540  34.992   5.207
69985W        W42245  26.610  13.771   3.866
69986W        W42246  36.533  24.602  10.910
69987W        W42247  40.489  22.143   0.257
69988W        W42248  12.783   0.870  12.996
69989W        W42249  30.989  42.905   3.747
69990W        W42250  25.214  23.655  10.079
69991W        W42251   9.812  23.238   2.677
69992W        W42252   8.798  44.951   1.872
69993W        W42253  19.170  36.485  13.519
69994W        W42254   1.281  14.095   3.310
69995W        W42255   1.888   0.380   1.439
69996W        W42256  25.150  43.009  13.923
69997W        W42257   5.717   3.441  13.431
69998W        W42258  31.050  34.080  12.056
69999W        W42259   5.377  29.150  12.554
70000W        W42260  44.296  44.805  14.918
70001W        W42261   4.809  41.431  12.960
70002W        W42262  13.296  44.981  10.425
70003W        W42263  27.540   5.360   0.245
70004W        W42264   9.686  26.686   2.292
70005W        W42265  42.879   9.354  13.890
70006W        W42266  38.560  10.181  12.453
70007W        W42267  19.730   9.345  13.338
70008W        W42268   5.839  39.045   2.383
70009W        W42269  15.251  23.181  11.431
70010W        W42270  23.657   1.846  11.917
70011W        W42271   1.413  33.513  13.385
70012W        W42272  32.963  44.773  14.022
70013W        W42273  11.135   8.742   2.679
70014W        W42274  35.394   1.454  11.416
70015W        W42275  22.016   2.794  10.975
70016W        W42276   4.413  16.183   4.284
70017W        W42277  17.782   6.201   5.283
70018W        W42278  38.969  41.921  13.482
70019W        W42279  41.406  20.674   2.808
70020W        W42280  19.588  22.723   3.160
70021W        W42281   4.708  27.527  12.915
70022W        W42282  39.982  15.724  10.595
70023W        W42283   3.228  26.003   2.851
70024W        W42284  22.713  27.485   4.715
70025W        W42285  35.017  19.547  10.080
70026W        W42286   6.824  25.100   1.301
70027W        W42287  34.047  34.869   4.744
70028W        W42288  35.373  37.981   4.321
70029W        W42289  29.654  12.347   1.732
70030W        W42290  15.608   1.450   0.894
70031W        W42291   7.852  15.800  13.794
70032W        W42292  37.379  14.172  13.456
70033W        W42293   3.443  18.644   5.295
70034W        W42294  15.789   1.868   0.332
70035W        W42295  33.589  39.527   3.165
70036W        W42296  26.979   4.285   2.291
70037W        W42297  10.335  18.130  14.423
70038W        W42298  32.939  33.392   1.323
70039W        W42299  25.089   6.413   2.883
70040W        W42300  23.154   2.753  11.129
70041W        W42301  30.087   7.412  13.438
70042W        W42302  10.796  17.752  13.891
70043W        W42303  37.840  21.140  13.890
70044W        W42304  43.770  30.008  13.819
70045W        W42305  43.386  19.749  13.010
70046W        W42306   7.207  19.634   4.236
70047W        W42307   8.207   3.246   1.814
70048W        W42308  26.115  27.185   3.678
70049W        W42309   4.450  27.656   3.789
70050W        W42310   0.794  38.899  13.453
70051W        W42311   2.240  38.537  14.296
70052W        W42312  44.495  10.752  12.518
70053W        W42313  13.122  39.394   4.758
70054W        W42314  31.538   7.360  11.093
70055W        W42315  20.138  33.549   1.419
70056W        W42316  25.035  20.032  11.533
70057W        W42317  40.873  22.098   3.201
70058W        W42318  13.774  11.127   0.484
70059W        W42319   7.311  20.564  14.438
70060W        W42320  19.629  21.130  13.873
70061W        W42321  32.596  42.884  14.964
70062W        W42322   6.880   3.215   4.722
70063W        W42323  36.516  36.363  14.465
70064W        W42324  42.342  31.429   4.321
70065W        W42325  17.561  14.158  14.992
70066W        W42326  18.735  13.835   0.433
70067W        W42327   6.312   4.230  11.487
70068W        W42328  33.544  15.822  11.443
70069W        W42329  10.742  35.070  13.426
70070W        W42330  29.424  40.042  12.938
70071W        W42331  37.374   0.913   2.847
70072W        W42332  25.505   9.828   2.666
70073W        W42333  22.695  41.933  14.992
70074W        W42334  24.546   8.304   0.906
70075W        W42335  27.182  38.842   3.727
70076W        W42336  14.181  20.062   2.190
70077W        W42337  43.412  26.655   4.770
70078W        W42338  19.566  29.505  14.366
70079W        W42339  44.455  31.967  13.391
70080W        W42340  20.612  19.070   5.205
70081W        W42341  16.635   4.806   4.293
70082W        W42342  35.527   9.322   4.322
70083W        W42343  14.671   1.362  14.817
70084W        W42344  40.373  18.221   0.811
70085W        W42345  40.341  34.923  14.275
70086W        W42346   6.190  13.341   1.233
70087W        W42347  17.198  25.520   3.647
70088W        W42348   0.849  31.094   3.227
70089W        W42349   0.449  11.642   0.872
70090W        W42350   7.409  18.778   0.364
70091W        W42351  35.920  10.264   3.777
70092W        W42352   8.745  13.769   3.697
70093W        W42353  23.133  41.483   3.158
70094W        W42354   7.756  34.417  13.393
70095W        W42355  42.967  12.676   0.481
70096W        W42356  12.204  19.656  11.380
70097W        W42357   9.799  17.563  13.913
70098W        W42358   0.806  21.070   3.681
70099W        W42359   7.209  30.124  14.027
70100W        W42360   9.318  20.197  13.983
70101W        W42361  19.277  24.179   1.840
70102W        W42362  29.136  37.342  11.882
70103W        W42363  28.501  16.699   2.247
70104W        W42364  11.133   1.408   3.672
70105W        W42365   4.444  36.079  12.000
70106W        W42366  21.621  31.648  11.372
70107W        W42367  37.375   1.780   2.307
70108W        W42368  18.077  13.235  10.944
70109W        W42369  19.218  21.609   0.960
70110W        W42370  19.565   4.722  12.416
70111W        W42371  43.272  25.218  14.942
70112W        W42372  10.686  41.894  14.439
70113W        W42373  30.002  43.465  14.818
70114W        W42374  14.654   4.259   0.811
70115W        W42375  17.696  32.121   2.731
70116W        W42376  28.045  33.056  10.911
70117W        W42377  33.410  39.528   1.859
70118W        W42378  34.490  26.967  14.401
70119W        W42379   3.233  36.427  12.508
70120W        W42380   9.654  40.896  10.587
70121W        W42381  20.180  16.261   1.394
70122W        W42382   1.785   3.243  11.083
70123W        W42383  30.555   6.858   3.233
70124W        W42384  24.171  22.735  11.508
70125W        W42385  22.180  29.480  13.050
70126W        W42386   9.803  43.907   0.859
70127W        W42387  41.824   8.684   1.397
70128W        W42388  13.301  18.112  12.917
70129W        W42389  23.710  13.623  14.887
70130W        W42390  30.588  22.700  14.764
70131W        W42391   3.318   8.356   2.693
70132W        W42392  39.535  27.079   0.305
70133W        W42393  25.977  21.023   3.640
70134W        W42394  41.816  40.842   1.727
70135W        W42395  12.302  19.207   1.331
70136W        W42396  11.823  11.802   1.823
70137W        W42397   2.301  11.211  10.524
70138W        W42398  38.879  25.583  11.376
70139W        W42399  27.467  26.588  14.418
70140W        W42400  24.996  23.725  11.916
70141W        W42401  34.949  33.081  14.958
70142W        W42402   5.855  44.850   0.433
70143W        W42403  36.097  21.023   3.328
70144W        W42404  22.587  19.777   1.405
70145W        W42405  29.537  44.402  12.046
70146W        W42406   1.831  32.001  11.120
70147W        W42407   1.348  36.914  10.453
70148W        W42408  20.160   2.313   1.875
70149W        W42409  34.085  20.623   1.831
70150W        W42410  42.457  16.589  11.373
70151W        W42411  18.729   8.329   5.250
70152W        W42412  41.796  42.010  11.091
70153W        W42413  18.618  34.955   5.109
70154W        W42414  14.170  39.391   2.313
70155W        W42415  37.866  28.512  12.901
70156W        W42416  43.814  31.629  13.869
70157W        W42417  12.727  27.561  10.501
70158W        W42418   5.244  17.649  11.567
70159W        W42419  44.465  33.882   0.841
70160W        W42420   9.763  31.912  14.908
70161W        W42421   2.753  13.137   4.721
70162W        W42422  40.477  38.472   0.270
70163W        W42423   7.288  12.725   1.314
70164W        W42424  21.725  43.937   2.836
70165W        W42425  14.295   5.717   2.867
70166W        W42426  41.404  31.935   0.885
70167W        W42427  33.088  27.555  10.910
70168W        W42428  38.523   7.881  11.951
70169W        W42429  43.348  29.940  11.418
70170W        W42430  40.970   7.761   1.906
70171W        W42431  27.158  41.489  10.035
70172W        W42432  37.008  27.983   4.655
70173W        W42433  23.110  23.986   3.680
70174W        W42434  38.492  35.369   1.351
70175W        W42435  41.349  12.817  11.026
70176W        W42436  42.369  33.438  14.331
70177W        W42437  23.558  36.094   2.296
70178W        W42438  26.614  30.003  13.942
70179W        W42439  12.710  33.432  14.779
70180W        W42440   1.432  31.973  12.087
70181W        W42441  18.561  27.066   4.178
70182W        W42442  38.062   8.333   0.817
70183W        W42443  39.468   9.644   5.322
70184W        W42444  44.991  28.963   0.352
70185W        W42445  11.241  12.299   1.917
70186W        W42446   1.420  26.196  14.364
70187W        W42447   2.271   5.303  11.107
70188W        W42448  25.598   2.738  12.922
70189W        W42449  43.873  14.233   3.799
70190W        W42450  17.202   8.779   9.957
70191W        W42451  20.527  34.498   3.343
70192W        W42452  32.117   4.331  12.455
70193W        W42453  22.616   6.689   3.871
70194W        W42454   1.285   1.756  11.389
70195W        W42455  16.086  23.170  14.837
70196W        W42456  17.087  31.513  14.847
70197W        W42457   4.294  37.511   3.260
70198W        W42458  23.517  11.159   2.392
70199W        W42459  44.345  23.673   3.287
70200W        W42460  23.040  18.718   3.331
70201W        W42461  39.492  38.518   1.891
70202W        W42462  19.097  17.262   0.871
70203W        W42463  17.308   6.337  12.428
70204W        W42464  22.566   3.948   0.872
70205W        W42465   1.822  39.864  11.498
70206W        W42466  20.714  43.366  14.882
70207W        W42467   0.416  27.083  14.022
70208W        W42468   3.871  27.559  10.974
70209W        W42469  23.017  13.131  13.830
70210W        W42470   3.440  20.765   2.358
70211W        W42471  26.699   2.235   5.185
70212W        W42472  37.382  14.708  11.104
70213W        W42473   6.234  17.065   0.797
70214W        W42474  29.517   8.691  11.533
70215W        W42475  17.148  11.754   1.336
70216W        W42476  30.639  22.124  12.558
70217W        W42477  20.114  38.932   2.368
70218W        W42478   8.304   1.336   3.629
70219W        W42479  24.533  21.160  14.777
70220W        W42480   3.854  11.142  11.989
70221W        W42481  13.115  29.126   4.827
70222W        W42482  29.489  36.408   1.801
70223W        W42483  13.813  14.647   4.308
70224W        W42484   2.395  40.909   3.367
70225W        W42485  15.174  41.952  12.934
70226W        W42486  19.140   8.775   0.952
70227W        W42487  12.704   5.834   2.901
70228W        W42488  20.227  43.987  11.606
70229W        W42489  16.596  42.293   1.339
70230W        W42490   5.276  28.624   9.469
70231W        W42491  31.572   7.786   0.936
70232W        W42492  39.874  26.050   3.732
70233W        W42493  25.089   9.207  13.389
70234W        W42494   8.709  14.713  12.463
70235W        W42495  43.456  10.319  14.009
70236W        W42496   7.244  32.557   1.826
70237W        W42497   8.281  40.989  12.047
70238W        W42498  35.865  20.728   5.247
70239W        W42499  24.189  14.293   3.833
70240W        W42500   6.769   5.881   1.354
70241W        W42501  27.053  25.562   3.811
70242W        W42502  34.071  21.721  12.964
70243W        W42503  14.110  25.977  10.488
70244W        W42504  13.611  36.540   0.841
70245W        W42505  17.684  11.666  12.354
70246W        W42506  15.308  15.295   1.808
70247W        W42507  27.144   2.720   1.282
70248W        W42508  43.769  16.727   0.883
70249W        W42509  35.506  20.763   4.801
70250W        W42510  36.532  14.710  13.456
70251W        W42511   5.797   2.879   1.330
70252W        W42512  11.789  11.637   5.208
70253W        W42513  16.566  18.223   0.778
70254W        W42514  22.217  23.543  12.896
70255W        W42515  10.736   7.172  11.081
70256W        W42516  12.839  22.188  12.859
70257W        W42517  28.006  27.009   0.953
70258W        W42518  39.477  31.617  10.531
70259W        W42519  30.535  29.433  11.387
70260W        W42520  14.308  16.692   2.809
70261W        W42521  37.339  19.618  14.015
70262W        W42522  15.636   9.666   1.824
70263W        W42523  35.035  39.809  14.481
70264W        W42524   1.385   6.184   3.386
70265W        W42525  35.580  14.298   3.290
70266W        W42526  34.595   5.927  10.456
70267W        W42527  18.195  22.504   3.188
70268W        W42528  11.306   2.899   0.257
70269W        W42529  33.594  29.452   4.814
70270W        W42530  34.457   9.846  12.483
70271W        W42531  25.109  28.580   4.297
70272W        W42532  31.931   7.842   3.251
70273W        W42533  21.557  35.372   4.801
70274W        W42534  38.975  12.794  13.401
70275W        W42535  14.128  44.396   1.366
70276W        W42536  21.756  18.635   1.835
70277W        W42537   8.838  22.602   2.242
70278W        W42538  10.319   0.442  11.945
70279W        W42539   7.869  23.646  13.809
70280W        W42540  26.152   5.215  12.419
70281W        W42541  31.109  27.539  12.055
70282W        W42542  42.342   8.335   2.410
70283W        W42543   0.471   8.702  11.078
70284W        W42544  37.368   2.873   1.834
70285W        W42545  32.052  29.613  14.815
70286W        W42546   0.256   8.388  11.411
70287W        W42547   1.402  22.229  12.458
70288W        W42548  32.925   0.340   0.483
70289W        W42549  36.570  24.079   4.218
70290W        W42550   9.680   1.790   1.255
70291W        W42551  41.517  35.060  10.621
70292W        W42552  20.250  29.920  14.795
70293W        W42553  38.332   9.725  12.559
70294W        W42554  11.815  29.989   0.803
70295W        W42555  31.598  39.050   3.363
70296W        W42556  23.207  12.340  11.559
70297W        W42557   8.716  41.511   1.266
70298W        W42558  15.086   2.310  11.422
70299W        W42559  28.114  20.595   0.745
70300W        W42560  27.475  33.115   2.773
70301W        W42561  31.050  24.184  10.999
70302W        W42562  26.469  24.687   1.329
70303W        W42563  38.529  19.161  10.420
70304W        W42564   8.219  13.110  13.323
70305W        W42565  29.564  40.319  11.921
70306W        W42566  34.052  27.668  13.856
70307W        W42567   9.655  25.544  11.936
70308W        W42568  10.807  18.176  13.945
70309W        W42569  32.436   2.908  13.848
70310W        W42570  37.489  21.190  10.433
70311W        W42571   7.680  34.395   9.932
70312W        W42572  10.230  19.274   1.727
70313W        W42573  41.522  18.584   0.477
70314W        W42574  44.774  37.571   1.402
70315W        W42575   6.240  34.946   4.838
70316W        W42576  14.658   4.337   3.788
70317W        W42577  13.142  22.213   1.700
70318W        W42578  25.102  22.014   1.378
70319W        W42579   5.835   4.387  13.371
70320W        W42580  35.998  36.851   2.839
70321W        W42581  36.937   9.249   2.371
70322W        W42582  29.534  43.964   0.303
70323W        W42583  20.083  40.865   3.808
70324W        W42584   3.881  41.928   4.284
70325W        W42585  42.902  18.053   3.229
70326W        W42586  17.722  37.867   3.809
70327W        W42587   9.206  44.819  12.939
70328W        W42588  29.643  18.242   3.718
70329W        W42589  12.833   8.261  10.485
70330W        W42590  15.231  24.113   0.458
70331W        W42591   0.387  17.796   2.812
70332W        W42592  11.142  26.159  13.793
70333W        W42593  26.088  33.992  13.342
70334W        W42594  42.309  15.652  14.492
70335W        W42595  25.533   8.188  14.010
70336W        W42596  21.686   2.439  12.529
70337W        W42597  43.818  28.057  14.421
70338W        W42598  28.147  22.080  10.098
70339W        W42599   6.849  38.943  12.352
70340W        W42600  25.051   3.219   5.155
70341W        W42601  17.121   1.301  12.443
70342W        W42602   3.359   8.705   4.295
70343W        W42603  31.445  17.728   0.941
70344W        W42604  22.663  19.173  10.460
70345W        W42605  38.002  31.571  13.042
70346W        W42606  15.299  34.499   0.784
70347W        W42607  21.642  34.448  13.353
70348W        W42608  34.961  33.948  13.361
70349W        W42609  32.956  20.641   2.761
70350W        W42610  12.298   6.428  13.977
70351W        W42611   0.315  11.148  10.548
70352W        W42612  17.122   9.855   2.727
70353W        W42613  25.670   3.410  11.973
70354W        W42614  34.105  36.052  12.056
70355W        W42615   3.790  29.121   4.183
70356W        W42616  25.028  28.609  12.071
70357W        W42617  24.201  19.688  10.608
70358W        W42618  12.696   7.367  11.496
70359W        W42619  35.496  17.073   3.167
70360W        W42620  37.461   6.916  14.515
70361W        W42621   1.897  13.712  14.321
70362W        W42622  21.024   0.325  14.389
70363W        W42623   7.739   0.253  11.960
70364W        W42624   3.259  44.756  14.448
70365W        W42625  34.997  14.595   3.677
70366W        W42626  10.162  13.826  12.416
70367W        W42627  11.170  17.187  13.933
70368W        W42628  21.121   0.412  10.050
70369W        W42629  35.997  19.209   0.245
70370W        W42630  39.905  28.039  11.124
70371W        W42631  14.754   4.852  12.377
70372W        W42632  25.015  12.848   3.683
70373W        W42633   2.231  16.776   4.151
70374W        W42634   8.186  38.352   4.601
70375W        W42635  10.313  35.023   5.150
70376W        W42636  28.467  40.897  13.845
70377W        W42637   8.668   8.677   3.863
70378W        W42638  43.769  36.848  13.957
70379W        W42639  22.201   7.194   2.776
70380W        W42640  26.047  39.402  12.568
70381W        W42641  10.251  41.377   0.312
70382W        W42642  25.062  11.138  12.460
70383W        W42643  11.225  41.910  10.640
70384W        W42644  19.185   7.856   0.920
70385W        W42645  10.251   2.255  11.460
70386W        W42646   5.739  16.237  11.912
70387W        W42647  37.933  40.031  13.398
70388W        W42648   6.336  34.537   3.276
70389W        W42649  24.691   7.221  14.821
70390W        W42650  13.320  24.098  10.952
70391W        W42651   1.964  35.601  12.496
70392W        W42652  38.561  18.288  11.079
70393W        W42653  36.485  14.324  11.569
70394W        W42654  41.532  42.281  13.456
70395W        W42655  39.921  21.637  13.449
70396W        W42656  23.077  37.838  11.059
70397W        W42657  19.109  30.636  10.623
70398W        W42658  23.594  15.662   0.344
70399W        W42659  24.150  11.266   1.704
70400W        W42660  13.271  26.190   2.312
70401W        W42661  27.597  16.103  10.446
70402W        W42662  22.560  34.581   0.942
70403W        W42663  14.182  42.344  11.037
70404W        W42664  38.000  39.414  13.823
70405W        W42665  11.304  30.131  13.519
70406W        W42666  40.547  10.708   1.928
70407W        W42667  33.565  20.067  11.972
70408W        W42668   9.722   4.387  14.295
70409W        W42669   6.222  20.080  13.054
70410W        W42670  34.877  30.939  12.463
70411W        W42671  16.108   5.247  10.524
70412W        W42672   5.745  20.159  12.029
70413W        W42673  25.979  24.164   2.816
70414W        W42674   3.248  19.620  12.460
70415W        W42675  43.462   3.788  13.495
70416W        W42676  21.519  16.226  14.353
70417W        W42677  32.584   3.437   5.105
70418W        W42678  27.523  25.179  11.422
70419W        W42679  25.649  26.502   5.170
70420W        W42680  28.611  17.602  14.955
70421W        W42681  29.924  10.371   0.281
70422W        W42682  41.297   6.188  10.455
70423W        W42683   7.334  39.924   3.215
70424W        W42684   1.356  15.221   1.271
70425W        W42685  38.899   9.693   0.944
70426W        W42686  41.034  17.560  13.799
70427W        W42687  24.023  19.094   5.107
70428W        W42688  16.199  29.060   1.840
70429W        W42689  23.608   5.255   2.223
70430W        W42690   4.292  27.579   9.662
70431W        W42691  11.128  37.517  14.982
70432W        W42692   0.903   2.331  11.038
70433W        W42693  17.124   6.317   0.337
70434W        W42694  39.422   5.211   2.738
70435W        W42695  35.394   8.814   3.326
70436W        W42696   3.846   1.936  12.505
70437W        W42697  16.089  40.414   1.347
70438W        W42698  40.480   5.781  10.036
70439W        W42699  11.677  35.496  13.891
70440W        W42700  42.464   3.444  14.335
70441W        W42701  28.573  44.390  14.959
70442W        W42702   7.860  28.027  12.949
70443W        W42703  25.570   5.692  12.979
70444W        W42704  38.821  34.997  11.101
70445W        W42705   5.384   7.398   3.757
70446W        W42706   6.824  10.787   3.362
70447W        W42707  43.510   6.190  11.437
70448W        W42708  34.043  32.034   3.332
70449W        W42709   6.241  38.844   1.414
70450W        W42710   6.419  27.122  11.531
70451W        W42711   2.316  39.061  11.902
70452W        W42712   5.728  42.983   1.391
70453W        W42713  33.940  32.543   4.614
70454W        W42714  29.960  39.434  12.985
70455W        W42715  36.865  10.284  12.995
70456W        W42716  29.131   0.770  11.106
70457W        W42717  42.284  25.474  11.964
70458W        W42718  41.382  34.914  14.340
70459W        W42719  34.439  17.626  13.499
70460W        W42720  21.076  13.264   1.358
70461W        W42721  33.527  39.510   4.671
70462W        W42722  32.469   0.294   4.821
70463W        W42723  11.140  10.207  12.482
70464W        W42724  26.140  20.060   1.904
70465W        W42725  29.008  14.740   4.656
70466W        W42726  34.906   0.789  13.344
70467W        W42727  17.761  40.838   2.854
70468W        W42728  12.144  18.711  14.348
70469W        W42729  35.545  23.020   2.757
70470W        W42730   2.443  29.108   2.791
70471W        W42731  41.794  14.182   3.188
70472W        W42732  17.693  29.589  11.122
70473W        W42733   3.876   0.368  14.370
70474W        W42734  11.160   2.311  11.005
70475W        W42735  40.987   2.458   3.810
70476W        W42736  33.540  39.883   0.423
70477W        W42737  15.608  40.304  11.482
70478W        W42738  14.694  30.055   4.327
70479W        W42739  21.683   4.854   0.759
70480W        W42740  31.568  34.021  13.011
70481W        W42741   0.919  19.133  12.482
70482W        W42742   3.796  18.052   2.707
70483W        W42743  21.668  30.529   4.722
70484W        W42744   9.832  12.800   3.645
70485W        W42745   2.412  24.187   1.808
70486W        W42746   5.371  25.600  14.972
70487W        W42747  44.408  37.389  11.603
70488W        W42748  13.653  32.903   0.375
70489W        W42749  11.354   2.360   4.197
70490W        W42750  12.749  44.472   1.820
70491W        W42751   6.368  17.231  14.765
70492W        W42752  19.745  30.028   3.328
70493W        W42753  41.497  44.398   2.692
70494W        W42754   0.474  30.907  14.442
70495W        W42755  38.839  18.584   2.714
70496W        W42756  21.255   7.284   4.836
70497W        W42757  23.680  22.739   0.335
70498W        W42758   2.450  35.981   4.696
70499W        W42759   0.759  14.138   0.349
70500W        W42760  13.340   4.862  10.579
70501W        W42761  20.153  30.655  12.825
70502W        W42762  34.428   5.346  13.468
70503W        W42763  28.665   6.344   3.680
70504W        W42764  43.453  24.985   3.172
70505W        W42765  38.869  14.653  13.992
70506W        W42766  41.903  11.365   0.838
70507W        W42767  35.369  25.597   0.373
70508W        W42768  31.441  27.112   0.939
70509W        W42769  19.736  25.636   4.623
70510W        W42770  40.804  10.340   3.755
70511W        W42771  26.558  32.581  13.934
70512W        W42772  12.263  42.970  10.464
70513W        W42773  18.791  34.871   2.888
70514W        W42774  27.942   0.757  14.998
70515W        W42775   9.196  17.796   1.306
70516W        W42776   4.767  30.622  11.979
70517W        W42777  20.162  42.991  11.466
70518W        W42778  10.745  33.415   3.323
70519W        W42779   1.460  41.039   1.359
70520W        W42780  31.076   6.778  10.465
70521W        W42781  18.557   1.890   0.310
70522W        W42782  13.845  40.935   1.832
70523W        W42783  35.468   2.337  10.899
70524W        W42784   4.257   0.929  14.999
70525W        W42785  10.718  43.958  14.343
70526W        W42786  42.945  18.214  13.826
70527W        W42787  22.621  37.946  13.940
70528W        W42788  40.513  44.948  11.575
70529W        W42789   8.363  42.849  11.048
70530W        W42790  20.260   9.291  13.356
70531W        W42791  43.015  37.979   0.929
70532W        W42792  31.152  38.548   3.170
70533W        W42793  37.952   5.692  10.466
70534W        W42794   2.812   1.332  13.792
70535W        W42795  16.185  39.476   3.772
70536W        W42796  17.720  34.434  11.991
70537W        W42797  35.957   8.895  10.993
70538W        W42798  36.096   6.255   3.240
70539W        W42799   2.785  41.519   1.240
70540W        W42800  35.942   8.715   3.841
70541W        W42801   4.402  29.034  11.906
70542W        W42802  12.122  43.949   2.295
70543W        W42803  21.550  18.181   0.361
70544W        W42804   5.848  41.974   3.310
70545W        W42805  22.737  25.969   0.302
70546W        W42806  10.170  37.938   0.793
70547W        W42807   3.951  37.855  14.028
70548W        W42808  30.984   7.223   0.302
70549W        W42809  22.187   0.286   2.815
70550W        W42810   3.755  15.298   0.452
70551W        W42811   6.685  30.520   2.720
70552W        W42812  21.130  38.496   3.313
70553W        W42813   1.734  38.517   1.923
70554W        W42814   6.304  28.577   9.526
70555W        W42815  30.912   8.670   1.913
70556W        W42816  17.131  17.787  12.876
70557W        W42817  39.811  32.595  13.858
70558W        W42818  38.024  37.473   3.292
70559W        W42819  28.522  44.460   4.682
70560W        W42820   2.926  30.536  11.386
70561W        W42821   8.774  24.531  13.913
70562W        W42822  44.306  12.856   0.759
70563W        W42823  24.067  37.524   2.323
70564W        W42824  42.443  30.025  14.454
70565W        W42825  27.523   8.705  11.578
70566W        W42826  25.154  41.304  11.569
70567W        W42827   3.377  17.201   2.711
70568W        W42828  42.939   8.278  14.391
70569W        W42829   3.955  19.723   3.276
70570W        W42830  42.302  38.953  13.924
70571W        W42831  35.360  21.148   9.586
70572W        W42832  33.887  30.124   2.338
70573W        W42833  30.075  40.476  14.499
70574W        W42834  24.153   4.936  10.444
70575W        W42835  23.545  14.313  11.453
70576W        W42836  27.673  29.664  11.452
70577W        W42837  33.887  21.246  13.388
70578W        W42838  35.602  43.949   3.722
70579W        W42839   1.769  37.582  14.792
70580W        W42840   2.450  27.685  12.854
70581W        W42841  16.102  32.419   3.718
70582W        W42842  20.629  39.814   1.399
70583W        W42843  34.086  25.101  14.398
70584W        W42844  17.207  10.686  10.893
70585W        W42845   2.358   7.764  11.499
70586W        W42846  11.674   7.381  14.398
70587W        W42847   6.811   5.744   0.414
70588W        W42848  34.942  39.463  11.426
70589W        W42849  15.605  26.630   2.312
70590W        W42850  44.780  35.573   4.706
70591W        W42851   6.916   2.316   2.206
70592W        W42852  10.671   9.826  11.926
70593W        W42853  16.679   9.736   3.683
70594W        W42854  23.091  40.880  14.001
70595W        W42855  17.162   6.827   9.596
70596W        W42856  30.496  22.154   3.177
70597W        W42857   5.216  43.494  11.873
70598W        W42858   2.423  35.929   1.399
70599W        W42859  13.609  39.843   4.715
70600W        W42860  21.076   5.913  13.864
70601W        W42861  34.563  40.939   2.740
70602W        W42862  20.609   1.798  11.952
70603W        W42863   8.842   0.951  10.936
70604W        W42864  22.021  36.488  11.989
70605W        W42865  40.881  17.558   0.356
70606W        W42866  44.799  34.998  14.498
70607W        W42867  34.403  20.740   0.803
70608W        W42868   9.707  11.683  12.832
70609W        W42869  43.881  30.044  12.509
70610W        W42870  13.334  20.652  12.407
70611W        W42871   3.385   8.681  11.906
70612W        W42872  17.093  38.502  13.974
70613W        W42873  15.617  25.143  12.391
70614W        W42874  20.713   4.800   1.288
70615W        W42875  38.516   0.963   1.388
70616W        W42876   7.795  14.170   1.329
70617W        W42877  41.384   5.303  13.817
70618W        W42878  30.509  34.596  10.581
70619W        W42879  35.863  11.755  13.365
70620W        W42880  23.000  20.624  14.357
70621W        W42881  14.321  24.579  10.931
70622W        W42882  11.323  23.135   3.153
70623W        W42883  33.088  11.775   1.376
70624W        W42884  30.472  13.773   2.184
70625W        W42885  25.965  20.209  14.419
70626W        W42886  10.332  26.077   0.880
70627W        W42887  20.745   0.898   0.450
70628W        W42888  29.547  26.637   0.444
70629W        W42889  39.438  29.579   2.221
70630W        W42890   3.345   3.308  10.470
70631W        W42891  10.830  18.220  12.451
70632W        W42892  20.582  29.014   0.770
70633W        W42893  14.097  29.459  14.865
70634W        W42894  24.626  39.398   0.262
70635W        W42895   3.435  37.873  11.993
70636W        W42896  22.501  32.992   2.186
70637W        W42897  11.265   0.786  11.414
70638W        W42898  13.162  22.567  13.046
70639W        W42899   7.358   7.777  14.909
70640W        W42900  12.273  17.561   4.809
70641W        W42901  37.885  42.476   0.776
70642W        W42902  18.547  20.660   4.803
70643W        W42903  34.081  35.472  12.996
70644W        W42904  10.791  18.140  12.862
70645W        W42905  29.565  32.394   4.704
70646W        W42906  28.678   9.197  14.767
70647W        W42907   9.232  35.481  11.856
70648W        W42908   8.829   7.845   3.264
70649W        W42909  21.070  40.529   5.274
70650W        W42910  27.157  11.826   2.385
70651W        W42911  44.401   4.809  14.436
70652W        W42912   6.315   9.162  13.351
70653W        W42913  13.630  32.577  11.440
70654W        W42914  34.559  36.997   0.344
70655W        W42915  24.612  37.389  10.158
70656W        W42916  23.541  20.532  13.897
70657W        W42917  15.171   7.205   4.153
70658W        W42918   7.754   8.725   4.153
70659W        W42919  42.907  18.269  12.852
70660W        W42920  32.095  38.819   3.254
70661W        W42921  11.824   6.379   0.380
70662W        W42922  23.593  36.408   4.191
70663W        W42923  12.666  11.659  12.994
70664W        W42924  18.736  20.193   1.879
70665W        W42925  38.048   2.732  12.934
70666W        W42926  21.564  37.981   2.283
70667W        W42927   4.725  15.157  11.068
70668W        W42928  40.883  16.602  13.540
70669W        W42929  17.601  32.119   0.337
70670W        W42930   5.812  40.437  11.866
70671W        W42931  23.098  18.686  10.052
70672W        W42932  16.803  25.470  10.894
70673W        W42933  29.101  24.582  11.883
70674W        W42934  34.564   3.374   4.187
70675W        W42935  15.239  27.044  13.853
70676W        W42936  42.489  20.215  11.590
70677W        W42937  16.604   1.274   4.616
70678W        W42938   7.226  22.210  14.354
70679W        W42939  37.336   1.819  12.350
70680W        W42940  16.116  31.071  13.927
70681W        W42941  29.011   0.767   1.424
70682W        W42942  36.359  20.143  11.386
70683W        W42943   2.311  38.325   0.863
70684W        W42944  13.748  34.476  14.924
70685W        W42945  31.078  34.380  13.880
70686W        W42946  18.729  13.241   1.306
70687W        W42947   6.405  21.240  10.948
70688W        W42948  44.791   1.304   2.207
70689W        W42949  25.533  28.507   0.295
70690W        W42950  26.587  25.635   2.341
70691W        W42951   5.411  10.685  13.427
70692W        W42952  28.073  16.671  14.478
70693W        W42953  38.417  19.113   2.856
70694W        W42954   7.313  34.059  12.487
70695W        W42955  43.393  17.228  10.031
70696W        W42956  27.689  41.941  11.955
70697W        W42957  27.120  23.187   1.242
70698W        W42958  40.887   3.904   3.684
70699W        W42959   6.918  19.216  11.899
70700W        W42960  35.952  44.917  12.538
70701W        W42961  15.205  27.560  10.575
70702W        W42962  43.864   4.313   4.624
70703W        W42963   8.230  30.083  13.493
70704W        W42964  28.022   6.424   0.783
70705W        W42965  40.324   8.205  13.538
70706W        W42966  32.911  22.104   0.833
70707W        W42967  41.985  38.869   3.674
70708W        W42968   6.296  29.069   4.749
70709W        W42969  14.213  14.165   2.803
70710W        W42970   1.821   6.422  12.893
70711W        W42971  39.062  30.553   0.966
70712W        W42972  10.816  36.036   2.729
70713W        W42973  12.287   8.730   4.181
70714W        W42974  12.316  10.190  11.109
70715W        W42975  23.548  26.514   5.184
70716W        W42976  31.588  12.168  10.914
70717W        W42977  19.609  11.173   0.791
70718W        W42978  36.865  35.898  14.942
70719W        W42979  10.187  17.093   2.708
70720W        W42980  12.769  31.106   0.787
70721W        W42981  15.671  31.529  14.777
70722W        W42982  30.424   1.442   2.283
70723W        W42983  40.902  36.532   1.218
70724W        W42984  28.127  37.486  14.876
70725W        W42985  10.361  18.723   2.882
70726W        W42986   5.198  33.581  10.067
70727W        W42987  41.441  36.489   1.886
70728W        W42988   1.294  13.259  14.453
70729W        W42989  44.769   0.754   3.758
70730W        W42990  30.954  40.517  11.072
70731W        W42991  26.075   6.291   3.686
70732W        W42992  23.501  11.214  11.608
70733W        W42993  31.638   1.303   0.341
70734W        W42994  13.203  27.584  11.868
70735W        W42995  20.215   1.900   4.217
70736W        W42996  20.144  32.455   1.903
70737W        W42997  20.645  42.377  13.001
70738W        W42998   5.709  19.562  14.405
70739W        W42999  19.075  12.139  14.984
70740W        W43000  40.457  37.960   2.690
70741W        W43001   8.807  17.245   4.153
70742W        W43002  25.999   8.848   3.665
70743W        W43003  18.243  40.982  12.087
70744W        W43004  23.695  26.044   9.646
70745W        W43005  43.815  13.782   2.293
70746W        W43006  37.054  31.009  12.530
70747W        W43007  40.865  17.763   3.335
70748W        W43008   8.832  32.408   4.655
70749W        W43009   4.389  42.876  12.526
70750W        W43010   2.295  35.390   3.770
70751W        W43011  18.662   9.804   2.351
70752W        W43012   6.211  26.152  12.511
70753W        W43013   4.771  16.164   1.916
70754W        W43014  23.022  26.959   3.156
70755W        W43015  40.002  30.079  11.569
70756W        W43016  28.451  38.537   0.731
70757W        W43017   0.252  16.315  11.126
70758W        W43018  32.915  12.349  12.517
70759W        W43019   4.703  25.579   1.377
70760W        W43020  15.171  12.254   3.636
70761W        W43021  39.014  18.149   2.668
70762W        W43022  25.685  23.985   4.329
70763W        W43023   7.323  40.347  10.457
70764W        W43024  26.531  38.010   2.671
70765W        W43025   6.746  28.055   4.795
70766W        W43026  14.682  17.770   5.788
70767W        W43027  24.191  11.256   2.752
70768W        W43028   0.409  19.134   1.907
70769W        W43029   1.750  23.698   1.706
70770W        W43030  16.208  27.073   2.715
70771W        W43031  40.007  19.175  10.951
70772W        W43032   9.648  37.454  12.963
70773W        W43033  35.991  32.429  12.985
70774W        W43034  44.388  35.087  10.630
70775W        W43035   9.220  24.565   4.128
70776W        W43036  17.142  29.600   2.320
70777W        W43037  37.948  20.657   2.754
70778W        W43038  10.780  10.716   4.704
70779W        W43039  40.883  28.054   1.724
70780W        W43040  18.706  39.826  11.998
70781W        W43041  41.998   8.371  10.473
70782W        W43042  17.748  32.556  11.911
70783W        W43043   3.399  19.100   3.185
70784W        W43044  20.102  37.868   0.302
70785W        W43045  38.920   7.767  13.035
70786W        W43046  28.635  21.029   9.974
70787W        W43047  13.607  39.873   0.816
70788W        W43048   9.304  28.961   2.308
70789W        W43049  38.364  11.812   3.327
70790W        W43050  40.055  20.184   0.896
70791W        W43051  28.494  39.026  12.982
70792W        W43052   1.294  43.453   0.744
70793W        W43053  35.573  24.668  10.507
70794W        W43054  15.235  44.779   4.680
70795W        W43055  25.001  18.167   1.261
70796W        W43056  28.078   3.378  10.113
70797W        W43057  15.114  29.004   0.320
70798W        W43058  21.087  13.315  14.783
70799W        W43059  31.061  39.507   1.223
70800W        W43060   9.872  34.077   1.698
70801W        W43061   6.714  40.464  12.362
70802W        W43062  19.693  44.462   2.897
70803W        W43063  39.980   9.662  11.610
70804W        W43064  44.409   3.310   3.683
70805W        W43065  27.689  18.758   1.857
70806W        W43066  43.430  17.609  14.472
70807W        W43067  24.066  42.958   0.784
70808W        W43068  43.477   2.449  11.060
70809W        W43069   3.815  39.054   1.237
70810W        W43070   2.890  18.626  14.012
70811W        W43071  32.982  28.182   1.451
70812W        W43072  39.917  42.957   3.815
70813W        W43073  30.450  20.223  14.434
70814W        W43074  15.219  35.879   2.791
70815W        W43075  13.314  40.829  14.879
70816W        W43076  40.951  30.954   0.392
70817W        W43077  24.985  44.430   3.234
70818W        W43078   4.254  18.179  10.954
70819W        W43079  37.901  17.183  14.357
70820W        W43080  42.383  14.743  14.907
70821W        W43081  31.088  26.044   2.791
70822W        W43082  17.569  30.918   1.729
70823W        W43083  40.458  19.695   2.825
70824W        W43084  11.238  39.991   0.834
70825W        W43085  18.052  12.624   0.727
70826W        W43086  27.581  30.537   3.732
70827W        W43087  36.858   8.296   1.408
70828W        W43088  10.749  42.475  11.583
70829W        W43089  23.539   6.355   2.343
70830W        W43090   6.319  33.022   1.379
70831W        W43091  26.111  21.657  14.958
70832W        W43092   8.394  10.221   3.660
70833W        W43093  42.867  43.468  11.064
70834W        W43094  44.418  37.019  12.476
70835W        W43095  37.544  26.512  12.927
70836W        W43096   6.707  15.136  11.552
70837W        W43097   1.847  29.620   1.431
70838W        W43098   3.268  24.717  11.928
70839W        W43099  21.722   3.902  14.322
70840W        W43100  24.690   4.313  13.539
70841W        W43101  43.302  39.912  10.431
70842W        W43102  24.518  33.571  12.888
70843W        W43103  11.859  44.985  12.034
70844W        W43104   2.768  10.252  13.857
70845W        W43105   2.271   5.856   2.391
70846W        W43106  15.165  40.824  11.420
70847W        W43107  16.202  23.615  11.028
70848W        W43108  44.792  22.238   1.321
70849W        W43109  24.518  37.021  10.538
70850W        W43110  25.145  33.041   0.828
70851W        W43111  16.591  44.459   2.213
70852W        W43112  17.561  42.006  12.907
70853W        W43113  41.035  38.384   4.667
70854W        W43114  21.198  15.260  11.048
70855W        W43115  11.866  27.064   1.276
70856W        W43116  20.712  41.879  14.974
70857W        W43117   1.956  24.052  11.496
70858W        W43118  24.992   7.371  11.041
70859W        W43119  18.587   8.875   4.206
70860W        W43120  43.927  34.105   1.784
70861W        W43121   2.882   1.900   0.757
70862W        W43122  11.855  40.949  12.939
70863W        W43123   1.366  12.818   1.918
70864W        W43124  44.830  42.835  13.844
70865W        W43125   1.251   2.830   0.949
70866W        W43126   9.249  14.589   4.206
70867W        W43127   3.829  31.027  10.946
70868W        W43128  24.189   6.775  13.353
70869W        W43129  23.660   3.849   1.790
70870W        W43130  28.961  32.014   0.280
70871W        W43131   3.939  40.854  11.055
70872W        W43132  40.432  29.167   3.818
70873W        W43133  44.494   9.876   3.356
70874W        W43134  28.660  43.335   3.301
70875W        W43135  26.652  37.862  12.000
70876W        W43136  16.135  31.417  11.907
70877W        W43137  18.105   9.223  12.054
70878W        W43138  29.045  16.730  12.079
70879W        W43139  18.623   7.375   1.756
70880W        W43140  26.057  11.210  14.411
70881W        W43141  19.261  32.553   2.347
70882W        W43142  29.956  36.983   4.783
70883W        W43143  43.463  10.868   4.777
70884W        W43144  14.783  42.291   1.810
70885W        W43145  31.151   8.761   2.265
70886W        W43146  42.445  24.994  14.798
70887W        W43147  29.964  21.737  12.436
70888W        W43148  39.003  11.664  11.457
70889W        W43149  14.771   4.890   2.334
70890W        W43150  18.783   5.736   4.620
70891W        W43151  18.626  21.162   1.244
70892W        W43152  11.159   5.758  13.362
70893W        W43153  31.464  27.536   2.707
70894W        W43154  34.977  35.595   3.733
70895W        W43155  12.274  37.037   3.286
70896W        W43156  22.109  23.694  11.971
70897W        W43157  39.884  23.638  13.856
70898W        W43158  18.220   0.396   2.863
70899W        W43159  12.201  24.481   2.781
70900W        W43160  24.129  31.592  11.904
70901W        W43161  34.437  28.944   2.340
70902W        W43162  30.654  43.856   3.727
70903W        W43163  26.968  29.040  10.963
70904W        W43164  25.967  15.756   4.761
70905W        W43165  19.714  20.584  11.419
70906W        W43166  26.634  11.237   4.772
70907W        W43167  35.513   4.294  12.862
70908W        W43168   5.749   8.306  12.495
70909W        W43169  33.064  11.819  12.065
70910W        W43170  12.330  23.576   3.207
70911W        W43171   4.815  41.478   1.419
70912W        W43172  25.017  31.477  10.888
70913W        W43173  38.917  39.990   3.804
70914W        W43174   7.232  42.790  10.512
70915W        W43175  37.506   4.262  10.892
70916W        W43176   3.227  18.209   1.379
70917W        W43177  23.674   2.299   4.161
70918W        W43178  35.919  26.063   0.815
70919W        W43179  41.525  41.390  11.541
70920W        W43180  16.810  42.487  12.934
70921W        W43181  39.320  26.081   4.308
70922W        W43182  41.883  19.205   3.292
70923W        W43183   6.380  36.531   2.306
70924W        W43184  34.047  26.150   3.170
70925W        W43185  13.135  18.254  13.454
70926W        W43186  28.450  11.751   1.869
70927W        W43187  21.128  23.633  10.624
70928W        W43188  40.052  10.314   0.740
70929W        W43189  39.886  13.203  11.083
70930W        W43190  23.580  15.704  11.390
70931W        W43191  18.790   6.317   1.887
70932W        W43192  31.036  14.241  10.596
70933W        W43193  36.496  44.854  14.014
70934W        W43194   6.197  20.585   2.731
70935W        W43195   3.936  18.706   2.806
70936W        W43196  12.350   1.818   4.283
70937W        W43197  43.866  11.735  11.084
70938W        W43198   3.723  37.992   0.300
70939W        W43199  44.946  19.272  13.473
70940W        W43200  14.609  20.559  13.937
70941W        W43201   1.469  32.899   1.451
70942W        W43202  18.720  36.873   1.370
70943W        W43203  16.269  43.329   2.397
70944W        W43204  38.838   5.232   0.765
70945W        W43205  23.535   4.258  13.326
70946W        W43206  37.349  42.792  14.403
70947W        W43207  27.605  25.004  10.455
70948W        W43208   7.409  31.928   0.810
70949W        W43209  37.357  43.396  14.291
70950W        W43210  28.072  38.377   0.400
70951W        W43211   9.232   4.286   4.164
70952W        W43212  34.973  40.512   4.705
70953W        W43213  33.448  37.840  12.980
70954W        W43214  36.482   4.228   4.221
70955W        W43215   9.651  21.579   2.745
70956W        W43216  30.929  27.152  12.894
70957W        W43217  13.121  21.019   1.241
70958W        W43218   3.924  21.197   1.875
70959W        W43219  19.733  32.506  12.485
70960W        W43220  28.096   6.186   0.411
70961W        W43221  15.090  30.130  11.491
70962W        W43222  34.374  33.447  14.802
70963W        W43223  18.757  35.600  11.573
70964W        W43224  16.719   0.848   3.723
70965W        W43225  26.460  26.534   4.764
70966W        W43226  25.596   7.886  10.611
70967W        W43227  27.044   4.803  10.535
70968W        W43228  11.673  27.029   2.836
70969W        W43229  18.121  31.152   0.963
70970W        W43230   3.364   7.895   4.207
70971W        W43231  23.725  35.380  14.339
70972W        W43232  34.981  37.524  10.964
70973W        W43233   7.703  40.920   4.212
70974W        W43234  42.992  41.938   3.375
70975W        W43235  21.242  17.620   2.798
70976W        W43236  40.844  18.618   0.258
70977W        W43237  34.464  10.800  12.012
70978W        W43238  11.706  16.129  11.519
70979W        W43239  11.648  20.567  13.059
70980W        W43240  21.532  33.401   3.175
70981W        W43241  31.021   2.758   0.284
70982W        W43242  31.106  12.216   4.145
70983W        W43243   7.739  19.276  11.596
70984W        W43244  15.633  16.262  14.781
70985W        W43245  37.010   9.377   3.325
70986W        W43246   6.217   3.440   0.795
70987W        W43247   2.814  24.515  10.640
70988W        W43248  25.207  23.082   3.196
70989W        W43249  30.452  19.553   1.767
70990W        W43250  29.527  31.954   0.431
70991W        W43251  44.010  22.519  12.012
70992W        W43252  35.381   9.253   1.317
70993W        W43253   1.396  20.615  11.519
70994W        W43254   0.249   8.890  12.504
70995W        W43255  35.109   6.275   3.240
70996W        W43256   3.870  32.615   4.221
70997W        W43257  28.170  38.480  12.889
70998W        W43258  17.657  25.207   5.269
70999W        W43259  30.484  42.371   4.741
71000W        W43260  14.267  17.746   5.256
71001W        W43261  21.170  17.779  12.370
71002W        W43262   0.366  15.808   0.339
71003W        W43263  34.927  11.638   3.674
71004W        W43264  12.641  11.237  12.008
71005W        W43265  40.311  27.584  12.035
71006W        W43266  31.584  27.131   4.688
71007W        W43267  26.624  11.163  14.922
71008W        W43268  25.513  27.188  11.545
71009W        W43269  40.977  24.682   4.250
71010W        W43270   2.449  28.448   3.257
71011W        W43271  30.006   7.909  12.440
71012W        W43272   2.825  23.569   4.277
71013W        W43273  10.287  40.046   0.776
71014W        W43274  31.584  10.850  12.056
71015W        W43275   8.344  44.349   2.258
71016W        W43276  40.944  32.608  14.369
71017W        W43277   1.887  12.136  13.540
71018W        W43278   5.338  11.241  12.987
71019W        W43279  43.925  39.461   4.654
71020W        W43280  23.205  36.867   1.280
71021W        W43281  39.387  28.969  10.916
71022W        W43282  27.031  28.617   4.336
71023W        W43283  23.513   7.267  13.024
71024W        W43284  22.158  24.120   1.745
71025W        W43285  36.357  26.576   9.961
71026W        W43286  29.164  17.645   2.703
71027W        W43287   7.256  33.918  14.864
71028W        W43288  38.351  25.488  11.955
71029W        W43289  25.981  38.479  13.501
71030W        W43290  34.416  11.690   1.235
71031W        W43291  11.649  42.797   2.405
71032W        W43292  41.908  43.353   2.281
71033W        W43293  40.510   7.685   4.797
71034W        W43294   7.294  44.464  12.353
71035W        W43295  41.872  41.826   4.757
71036W        W43296  14.169  16.604  12.982
71037W        W43297  28.620  16.691  14.823
71038W        W43298  21.756  43.954   3.742
71039W        W43299  27.509   5.913   4.748
71040W        W43300  20.579  15.669  10.456
71041W        W43301  23.994  19.555   0.898
71042W        W43302  43.510  32.636   0.430
71043W        W43303  11.322  16.623  13.820
71044W        W43304  12.708  22.613   0.871
71045W        W43305  21.059  35.463   0.324
71046W        W43306  14.156   2.456   3.272
71047W        W43307  33.523  38.330  14.472
71048W        W43308  34.002  14.607   3.359
71049W        W43309  36.974  15.763  13.887
71050W        W43310  10.636  12.257  13.419
71051W        W43311  39.325  41.381  11.527
71052W        W43312  44.845  34.934   0.434
71053W        W43313  17.716  39.007   0.390
71054W        W43314   9.884  31.542   4.786
71055W        W43315   3.759  15.798   0.374
71056W        W43316  12.827  31.446   2.792
71057W        W43317  15.717  30.437   0.791
71058W        W43318  16.168  36.453  11.016
71059W        W43319  43.830   7.239  12.440
71060W        W43320  33.973   7.861   1.699
71061W        W43321   4.258  28.027  12.042
71062W        W43322  38.053  37.863   2.413
71063W        W43323  40.379  39.420   4.634
71064W        W43324  38.034  13.673  11.993
71065W        W43325  32.542   0.787   3.265
71066W        W43326  17.683  27.095  11.608
71067W        W43327  19.760  13.695  14.335
71068W        W43328  38.883  36.922   3.280
71069W        W43329  30.016  35.083   3.782
71070W        W43330   7.750   9.790  14.491
71071W        W43331  31.421   4.385   4.806
71072W        W43332  32.084  17.112  13.465
71073W        W43333   9.303  44.361  14.814
71074W        W43334  15.689  25.064  10.009
71075W        W43335  15.808  43.980  14.387
71076W        W43336   7.869  25.018   3.837
71077W        W43337  27.159  15.746  12.349
71078W        W43338  26.050  21.598  14.419
71079W        W43339  30.086  21.185  14.412
71080W        W43340  29.432  41.797   3.746
71081W        W43341  38.437  39.921  14.309
71082W        W43342  16.175   9.659  13.494
71083W        W43343  23.688  41.008  12.953
71084W        W43344  29.975  20.707  11.382
71085W        W43345  23.074   2.431  11.559
71086W        W43346  43.333  16.151  13.948
71087W        W43347   3.288  31.625  12.528
71088W        W43348  25.519   1.969   5.088
71089W        W43349   8.874  21.018   4.200
71090W        W43350  43.359  25.499  14.987
71091W        W43351   6.407  40.982   4.180
71092W        W43352  24.989  31.953  11.433
71093W        W43353  41.811  15.318  10.568
71094W        W43354   8.215  26.208   2.178
71095W        W43355  33.438  30.068   0.448
71096W        W43356  27.591  20.246   1.905
71097W        W43357  36.878  23.595  13.997
71098W        W43358  33.988  36.996  10.463
71099W        W43359  18.083  33.017   2.712
71100W        W43360  32.963   4.225   1.347
71101W        W43361  43.945   5.739  11.926
71102W        W43362  17.657   2.741   3.633
71103W        W43363  18.180   0.263  13.855
71104W        W43364  24.509  20.229  10.931
71105W        W43365  22.604   9.272   2.729
71106W        W43366  12.257  11.727  11.869
71107W        W43367  27.624  41.872  14.368
71108W        W43368  18.148  30.132   3.340
71109W        W43369  17.733  43.977   0.854
71110W        W43370  19.648  25.492  12.832
71111W        W43371  43.812  13.250   2.383
71112W        W43372  31.982  11.772  14.982
71113W        W43373   6.361  31.643  12.503
71114W        W43374  42.949  18.593   4.195
71115W        W43375  17.211   9.773  10.427
71116W        W43376  33.464  24.028   5.318
71117W        W43377  25.000  10.371   2.377
71118W        W43378  40.344  41.993   2.183
71119W        W43379  21.064  37.388  13.470
71120W        W43380  18.267  26.526   3.188
71121W        W43381   7.284  19.598   2.200
71122W        W43382   9.299   3.399   0.923
71123W        W43383  27.075  44.992  11.106
71124W        W43384  23.640  24.119   4.828
71125W        W43385  40.035  40.310  14.386
71126W        W43386   2.263  25.147  10.067
71127W        W43387  23.087   1.407   0.848
71128W        W43388  33.459  22.577   2.829
71129W        W43389  39.342   4.888  13.405
71130W        W43390  22.572  44.788   0.823
71131W        W43391   9.314  33.514  11.976
71132W        W43392  27.654  21.687   2.902
71133W        W43393  16.677  13.618   3.201
71134W        W43394  33.958  40.873  13.988
71135W        W43395  35.535   5.896   1.850
71136W        W43396  29.934   5.360  12.985
71137W        W43397  36.364  32.629  10.525
71138W        W43398  31.576  23.583   1.444
71139W        W43399  35.956   7.269   3.676
71140W        W43400  32.063   4.838  13.054
71141W        W43401   3.779  44.383   3.167
71142W        W43402  22.014   3.457   0.934
71143W        W43403  14.692  42.445   3.267
71144W        W43404  29.027  42.014  13.369
71145W        W43405  10.690  10.204  10.411
71146W        W43406  44.003  25.176   1.279
71147W        W43407  30.495   7.884   1.302
71148W        W43408  29.984  38.555  11.900
71149W        W43409   6.382   2.920  11.419
71150W        W43410   6.230  40.834  14.336
71151W        W43411  11.187  16.677   3.335
71152W        W43412   5.732  28.935   1.783
71153W        W43413  31.574  23.643  11.504
71154W        W43414  21.647  38.535   4.599
71155W        W43415  36.081  39.347   1.917
71156W        W43416   8.848   2.916  12.084
71157W        W43417  10.177  18.736  13.464
71158W        W43418   1.916  43.818  12.503
71159W        W43419  30.929  33.126  13.487
71160W        W43420  17.644  15.768  13.971
71161W        W43421  39.836   8.312  11.005
71162W        W43422   5.753   0.765  11.014
71163W        W43423  40.879  29.151   3.704
71164W        W43424  32.531   8.162   3.750
71165W        W43425  31.493  25.962  10.622
71166W        W43426  17.641  30.158  12.035
71167W        W43427   7.274  38.941  10.949
71168W        W43428   7.342  37.840   0.794
71169W        W43429  42.951  33.454  14.304
71170W        W43430  42.499  19.116  13.342
71171W        W43431  39.981  35.366   1.231
71172W        W43432  29.638  28.480   1.210
71173W        W43433  23.595  19.627   0.268
71174W        W43434  32.090   8.799  13.515
71175W        W43435   2.869  39.057   2.879
71176W        W43436  30.155  10.374   4.759
71177W        W43437  33.113  27.035   0.835
71178W        W43438  25.145   1.926   4.806
71179W        W43439  28.063  14.305  10.599
71180W        W43440  32.454  10.873   2.815
71181W        W43441  42.002  43.921   4.177
71182W        W43442  35.072   7.251  13.332
71183W        W43443   0.400  39.556   4.313
71184W        W43444  26.647   9.354   1.876
71185W        W43445  30.927  27.140   3.273
71186W        W43446  26.081  23.033  11.918
71187W        W43447  32.503   0.395   1.913
71188W        W43448  11.320  43.392  14.888
71189W        W43449  31.025  18.224   2.824
71190W        W43450   1.470  29.602  12.528
71191W        W43451  16.085  15.816  14.353
71192W        W43452  42.425  25.019   1.294
71193W        W43453  18.585  22.698   1.923
71194W        W43454  35.949  18.238   9.522
71195W        W43455  11.632  37.952  10.540
71196W        W43456  40.477  42.940  13.037
71197W        W43457  12.169  30.163   5.314
71198W        W43458  21.031  34.003  11.928
71199W        W43459  41.924   8.336   3.701
71200W        W43460  17.622  34.897   0.279
71201W        W43461   3.411  24.532   0.865
71202W        W43462  26.624  26.998   1.753
71203W        W43463  15.762  29.998  11.988
71204W        W43464  33.545  21.118   5.156
71205W        W43465  31.416  15.132  12.824
71206W        W43466  40.923   9.879  12.824
71207W        W43467  33.120   8.754   3.831
71208W        W43468  18.108   7.222  11.520
71209W        W43469  18.292  29.559   0.291
71210W        W43470   4.928  13.240   1.303
71211W        W43471  38.922  31.054   2.351
71212W        W43472  27.989  14.805   2.831
71213W        W43473  36.085  11.231   0.842
71214W        W43474  14.182  34.944   4.714
71215W        W43475   4.220  20.262   0.778
71216W        W43476   4.371   1.389  11.426
71217W        W43477  11.322  43.280   0.388
71218W        W43478  38.329   8.291  11.956
71219W        W43479  26.160  41.345  13.542
71220W        W43480  24.574   2.958  11.098
71221W        W43481  42.517  20.694   2.692
71222W        W43482   3.453   1.921  14.402
71223W        W43483   7.363   6.299   0.919
71224W        W43484  17.274  21.237  13.496
71225W        W43485  12.150  41.790  13.399
71226W        W43486  15.274  17.089  14.835
71227W        W43487  26.037  35.098  14.480
71228W        W43488  28.996  26.032  11.874
71229W        W43489  34.991  29.038   3.630
71230W        W43490  35.017  26.652   5.180
71231W        W43491   1.861  16.781  14.942
71232W        W43492   4.241  39.020  13.055
71233W        W43493   3.952  42.989   2.845
71234W        W43494  15.797  12.780  12.086
71235W        W43495  28.628  23.228  10.627
71236W        W43496  30.140   3.397  12.027
71237W        W43497  36.878   8.353   2.263
71238W        W43498  38.992  13.265  11.062
71239W        W43499  34.981  23.186  10.598
71240W        W43500  44.956  18.213  14.002
71241W        W43501   4.322  33.435  13.537
71242W        W43502  37.074  34.593   4.229
71243W        W43503   6.396  15.266  11.459
71244W        W43504  44.504  44.953  14.301
71245W        W43505   6.857  37.885   1.887
71246W        W43506  17.716  23.732  13.441
71247W        W43507  35.028  28.593   4.648
71248W        W43508  39.856  23.203   4.607
71249W        W43509   8.366  16.779   4.252
71250W        W43510  30.595  25.503   0.243
71251W        W43511  32.432  12.155   0.262
71252W        W43512   5.856  16.136   4.147
71253W        W43513  43.976  21.247  11.983
71254W        W43514  26.169   8.894   5.119
71255W        W43515  38.987   1.405   3.785
71256W        W43516  18.281  33.917  12.000
71257W        W43517  43.366  15.100   2.850
71258W        W43518  42.519  16.585  12.504
71259W        W43519  38.889  14.776  13.417
71260W        W43520  14.302  12.302  11.590
71261W        W43521  28.560  37.556  14.786
71262W        W43522  41.029   5.338   1.282
71263W        W43523   0.478  23.563   1.435
71264W        W43524  22.096  40.451  12.553
71265W        W43525  11.303  39.423  14.858
71266W        W43526  22.720  34.881  13.358
71267W        W43527   7.792  35.498   0.773
71268W        W43528  11.290  11.818  13.044
71269W        W43529  13.155  39.850   3.320
71270W        W43530   6.317  14.223  10.426
71271W        W43531  13.219  27.155  14.989
71272W        W43532  14.302  11.862   2.223
71273W        W43533  13.786  10.814  11.446
71274W        W43534   9.702  18.758   3.250
71275W        W43535  25.201  25.028   3.349
71276W        W43536   1.358  22.022   3.196
71277W        W43537  16.116  30.545  10.935
71278W        W43538  13.745  16.710   3.263
71279W        W43539  23.187   4.360   1.399
71280W        W43540  15.239  16.796   3.630
71281W        W43541  20.612  16.607   1.720
71282W        W43542  25.468  39.432   0.285
71283W        W43543   9.387  26.021  12.365
71284W        W43544  26.202  26.178  12.043
71285W        W43545  38.446  31.600  14.857
71286W        W43546   7.279  43.344   0.392
71287W        W43547  44.934  36.950  11.959
71288W        W43548  41.872  24.722  14.984
71289W        W43549  27.499  28.435   3.844
71290W        W43550  30.611  39.853  12.028
71291W        W43551  19.174  18.093   0.331
71292W        W43552  30.134  24.027   1.818
71293W        W43553   3.268  13.762   2.843
71294W        W43554  17.283  28.536  13.011
71295W        W43555  33.506  15.673   4.131
71296W        W43556   3.435  32.892  13.430
71297W        W43557  20.038   2.404   3.329
71298W        W43558  30.964  18.221   4.655
71299W        W43559   0.945  33.050   1.343
71300W        W43560   1.919  33.619   3.261
71301W        W43561   1.931  43.795   2.719
71302W        W43562   2.824  22.066   4.826
71303W        W43563  35.008   7.407   2.895
71304W        W43564   7.337  35.586   2.749
71305W        W43565  22.139  10.794  12.082
71306W        W43566  38.820  20.136   3.160
71307W        W43567  20.692   0.830  12.532
71308W        W43568  17.173  40.318  11.896
71309W        W43569  23.521  35.957   4.330
71310W        W43570  20.618  16.078   2.297
71311W        W43571  33.986  35.060   1.747
71312W        W43572  38.497  32.917  14.300
71313W        W43573   4.317  40.382  11.064
71314W        W43574  32.404  20.239  12.051
71315W        W43575   6.283  44.833   0.879
71316W        W43576  19.629  11.712   0.303
71317W        W43577  43.451   2.853   2.270
71318W        W43578  18.269   5.693  10.150
71319W        W43579  37.877  32.556   4.818
71320W        W43580  29.500   4.793  12.958
71321W        W43581  36.395  11.301   2.671
71322W        W43582  12.687   8.702   0.898
71323W        W43583   8.708  22.670   4.715
71324W        W43584  16.650  39.885   0.287
71325W        W43585  25.215  16.650   1.769
71326W        W43586  20.246  28.075  11.878
71327W        W43587  16.318  42.943  12.379
71328W        W43588  21.102   9.714  14.369
71329W        W43589  10.312  35.073   0.839
71330W        W43590  34.869   2.425  14.498
71331W        W43591  34.916   7.250   0.747
71332W        W43592  19.107   1.791  12.971
71333W        W43593  29.095  43.884  12.433
71334W        W43594  15.304  38.919   0.244
71335W        W43595  10.679   2.921   4.164
71336W        W43596  35.424   0.385  12.835
71337W        W43597  26.194  23.993   3.716
71338W        W43598  35.881  11.684   4.265
71339W        W43599   6.228   9.732  12.038
71340W        W43600   2.367  30.956   0.468
71341W        W43601  35.938  30.085   4.263
71342W        W43602  42.026   1.259   1.260
71343W        W43603  12.798  27.597   1.424
71344W        W43604  13.602  25.711  14.351
71345W        W43605  32.113  27.031   1.260
71346W        W43606  15.641   1.887   3.320
71347W        W43607   8.370  36.434   0.484
71348W        W43608  19.153  33.883   0.741
71349W        W43609   9.250  24.996   4.712
71350W        W43610  38.437   3.441  14.999
71351W        W43611  14.156  42.394   3.800
71352W        W43612  27.003  16.587  11.480
71353W        W43613  15.096   6.752  12.960
71354W        W43614   7.410  21.639  12.400
71355W        W43615   6.753   1.838   3.829
71356W        W43616  40.971   2.886   1.333
71357W        W43617  12.822  17.248  14.905
71358W        W43618   9.161  27.169  11.032
71359W        W43619  36.066   4.813  13.961
71360W        W43620  36.018   2.884   0.862
71361W        W43621  33.088  20.035  10.556
71362W        W43622  13.624  14.289  10.995
71363W        W43623  34.934  12.731  13.933
71364W        W43624  41.388  29.501   2.686
71365W        W43625  34.510  26.050   2.296
71366W        W43626  17.779  14.247   2.667
71367W        W43627   4.288   0.254   1.766
71368W        W43628  15.684  23.548  10.422
71369W        W43629  29.996  36.006  12.906
71370W        W43630  36.586  31.522  10.570
71371W        W43631  37.853  16.237   3.754
71372W        W43632   3.843  16.790   2.337
71373W        W43633  21.670  44.365   4.635
71374W        W43634  33.019  32.458   0.795
71375W        W43635  31.588  18.723   3.153
71376W        W43636  37.488  15.657  14.353
71377W        W43637  25.060  36.900  11.924
71378W        W43638  34.079  22.545   4.224
71379W        W43639  15.759  38.961  14.882
71380W        W43640  34.553  18.728   3.854
71381W        W43641   6.314  35.412   3.193
71382W        W43642   5.832   6.233   2.863
71383W        W43643   0.296  13.335  12.371
71384W        W43644  29.145  13.674  14.007
71385W        W43645  21.205  18.614  10.009
71386W        W43646  18.291  20.214   4.176
71387W        W43647  25.477   5.836   1.280
71388W        W43648   6.232  43.274  11.400
71389W        W43649  28.074  31.087  12.032
71390W        W43650  27.161  33.536  11.071
71391W        W43651   5.331  44.927   2.674
71392W        W43652  42.867   1.447   3.151
71393W        W43653   6.234  20.099  12.432
71394W        W43654  11.201  32.015  11.607
71395W        W43655  29.038  30.036   2.183
71396W        W43656   5.273  13.191   3.795
71397W        W43657   9.310  19.044  14.836
71398W        W43658  12.166  11.671   3.736
71399W        W43659  35.862   1.333  10.991
71400W        W43660  36.517   0.780  10.127
71401W        W43661  35.435  25.622   4.130
71402W        W43662  20.758  35.982   0.886
71403W        W43663  21.174  43.769   3.792
71404W        W43664  30.414  38.943  12.489
71405W        W43665  12.285  29.517  14.401
71406W        W43666   1.293  12.262   3.249
71407W        W43667  42.795  24.028   4.177
71408W        W43668   3.307  39.356   4.828
71409W        W43669   8.781   6.221   0.354
71410W        W43670  43.809  20.732   4.277
71411W        W43671  37.422  29.629  11.991
71412W        W43672  15.658   0.360   2.366
71413W        W43673  37.351  42.390  13.020
71414W        W43674  34.866   9.323   0.956
71415W        W43675  27.006  13.763  13.986
71416W        W43676  39.368  44.372  14.955
71417W        W43677  23.527  32.083  10.023
71418W        W43678   5.345  33.439  14.823
71419W        W43679  19.225  38.951  13.534
71420W        W43680   5.865  36.849  12.888
71421W        W43681  40.469  33.545  12.404
71422W        W43682  11.644   4.919   4.823
71423W        W43683   6.910  17.222  12.515
71424W        W43684   3.294   3.412  13.387
71425W        W43685  20.689  31.563  13.333
71426W        W43686  17.785  42.941  10.611
71427W        W43687   0.379   8.850   2.843
71428W        W43688  11.748  29.583   0.867
71429W        W43689  43.962   8.223   2.869
71430W        W43690  14.143  25.184  13.885
71431W        W43691   9.778  33.513   2.814
71432W        W43692  40.426  28.102   5.134
71433W        W43693  19.147  12.196   1.783
71434W        W43694   6.809   5.933  13.995
71435W        W43695   2.753  21.589   3.179
71436W        W43696  41.993   9.757  14.374
71437W        W43697  19.089   4.929   1.325
71438W        W43698  40.406  44.340   3.672
71439W        W43699  34.887  12.763   4.243
71440W        W43700  43.473  30.466  10.425
71441W        W43701  31.997  38.372  13.946
71442W        W43702  32.634  28.097   2.763
71443W        W43703  37.380   6.879  13.468
71444W        W43704  17.575   2.918   1.373
71445W        W43705  27.564  32.962   1.777
71446W        W43706  18.191  39.372  12.062
71447W        W43707  10.839  10.296   4.292
71448W        W43708  27.655  25.550  10.426
71449W        W43709   8.657   5.412   0.793
71450W        W43710   2.942  28.093   0.400
71451W        W43711  31.001  37.933   0.272
71452W        W43712   0.458  36.460  11.525
71453W        W43713  37.000  21.249  14.011
71454W        W43714  20.568  28.101  14.020
71455W        W43715  18.246   0.801  11.102
71456W        W43716  20.272  42.446   3.717
71457W        W43717   2.948  26.483   0.403
71458W        W43718  17.672  28.162  12.910
71459W        W43719  37.934  38.539  12.360
71460W        W43720  31.148  36.557   2.782
71461W        W43721  29.596  34.578  10.574
71462W        W43722  18.609  31.441   4.313
71463W        W43723  26.024  35.070   0.797
71464W        W43724  23.144  31.959   4.710
71465W        W43725  22.154  20.753   1.393
71466W        W43726  44.333  10.753  14.966
71467W        W43727  44.259  18.646   0.933
71468W        W43728   8.786  24.152   3.369
71469W        W43729  20.264  40.540   0.473
71470W        W43730   6.757  14.199  12.427
71471W        W43731  23.064  32.919  14.985
71472W        W43732  17.659  27.489  11.022
71473W        W43733  22.530  34.576   4.756
71474W        W43734   4.918  13.156   0.405
71475W        W43735  28.451  14.655  13.929
71476W        W43736  18.140  30.609  13.919
71477W        W43737  40.933   3.945   1.706
71478W        W43738  20.098   6.881   0.881
71479W        W43739  20.160  28.545  11.979
71480W        W43740  25.570  10.170   2.706
71481W        W43741  18.206  11.763   3.344
71482W        W43742  18.117   6.745  11.952
71483W        W43743  21.203  28.593   3.147
71484W        W43744  26.183  38.978  11.924
71485W        W43745  19.696  29.568  13.326
71486W        W43746  30.034  25.105   3.812
71487W        W43747   9.814  30.003  10.602
71488W        W43748  38.373   2.754   0.478
71489W        W43749  43.766  37.441   4.749
71490W        W43750  34.472  36.424  12.467
71491W        W43751  40.833   8.731   2.363
71492W        W43752  39.061   4.244  11.098
71493W        W43753  23.551  28.161   2.824
71494W        W43754  17.692  42.494  12.487
71495W        W43755  17.191   4.780  12.952
71496W        W43756  18.639  32.633   2.828
71497W        W43757   0.461   7.807   3.346
71498W        W43758  15.236  30.613   1.881
71499W        W43759  35.060  12.182   0.729
71500W        W43760  12.801  31.534   3.703
71501W        W43761   9.244   4.730   0.962
71502W        W43762   8.861  17.199   2.300
71503W        W43763  29.425  10.683   4.635
71504W        W43764  22.552   8.780   3.206
71505W        W43765  20.576   3.235   3.851
71506W        W43766  35.456  12.301  11.059
71507W        W43767   9.885  23.690  12.851
71508W        W43768  17.158   5.224  14.023
71509W        W43769  19.217  18.290   1.802
71510W        W43770   3.770  10.234   3.791
71511W        W43771   7.290   2.314   3.803
71512W        W43772  33.998  11.811   3.240
71513W        W43773  16.194  12.707  11.372
71514W        W43774  32.398  19.700  11.895
71515W        W43775  25.129  10.375   4.186
71516W        W43776  42.826   0.347  12.490
71517W        W43777  21.142  14.230  12.015
71518W        W43778  43.355  26.484  11.874
71519W        W43779   8.190   5.780  14.473
71520W        W43780  18.549   8.376   9.640
71521W        W43781  34.058  27.987   0.389
71522W        W43782  26.583   3.744  14.951
71523W        W43783   3.227  18.134   3.837
71524W        W43784   5.810  30.967   0.759
71525W        W43785  40.319  20.229   2.291
71526W        W43786   6.767  32.512  13.006
71527W        W43787  34.978  31.110   1.764
71528W        W43788  12.699  39.023  10.946
71529W        W43789  26.204  23.509   1.818
71530W        W43790  23.205   5.302   4.744
71531W        W43791  29.921  38.943  10.625
71532W        W43792   9.684  27.504   4.300
71533W        W43793  38.352   7.231   2.862
71534W        W43794  38.871   2.375  11.113
71535W        W43795  35.527   8.656  14.785
71536W        W43796  20.060  24.610  13.045
71537W        W43797  25.508  39.948   4.827
71538W        W43798   4.798  19.220  13.411
71539W        W43799  15.594   1.740  12.494
71540W        W43800   2.923   6.244  11.526
71541W        W43801  33.529  36.077  14.359
71542W        W43802  16.093  20.181   2.319
71543W        W43803  28.613  43.499   3.852
71544W        W43804  41.025  30.956  13.395
71545W        W43805  25.200  42.845   2.336
71546W        W43806  27.066  42.994  10.955
71547W        W43807  32.435  19.747  10.412
71548W        W43808   6.249  29.066   2.686
71549W        W43809   1.342  14.325  11.011
71550W        W43810  18.756  33.879  12.520
71551W        W43811  28.670  42.017  11.421
71552W        W43812   1.323  22.159  14.431
71553W        W43813  40.031  17.771  13.472
71554W        W43814  12.160  22.082   1.235
71555W        W43815   3.894  21.650   4.669
71556W        W43816  33.975  27.010   0.441
71557W        W43817  38.962   0.412   2.212
71558W        W43818  14.798   6.788   3.752
71559W        W43819  30.531  20.251  13.511
71560W        W43820  13.213  20.677  13.885
71561W        W43821  25.517  42.811  10.493
71562W        W43822  19.171  16.229   2.323
71563W        W43823  41.991   0.381   4.351
71564W        W43824  34.434  19.753  10.493
71565W        W43825  20.640  39.538  12.964
71566W        W43826  26.114  36.933   2.868
71567W        W43827  14.740  21.258  13.522
71568W        W43828  19.556   5.385  12.519
71569W        W43829  11.816   8.772   5.212
71570W        W43830   4.227   1.356  11.124
71571W        W43831  16.127  19.763   3.729
71572W        W43832  23.053  21.259   5.720
71573W        W43833  35.047  27.635  10.942
71574W        W43834  41.505  35.401   4.244
71575W        W43835  22.167   2.877   3.748
71576W        W43836  19.128   0.881   1.764
71577W        W43837  15.184  30.424  11.383
71578W        W43838  43.921  11.735   2.661
71579W        W43839  33.476  42.834  11.510
71580W        W43840  18.635   8.853  11.858
71581W        W43841  39.438  42.325  11.909
71582W        W43842   2.791  30.969  14.968
71583W        W43843  43.369  25.618  13.461
71584W        W43844  36.019  11.198   2.814
71585W        W43845  36.444  32.632  12.087
71586W        W43846  31.101  28.956  12.026
71587W        W43847  15.817   3.752  10.572
71588W        W43848  35.051  23.734  13.926
71589W        W43849  10.682  37.988   3.637
71590W        W43850   1.275   5.265  13.891
71591W        W43851  42.880  31.937   4.295
71592W        W43852   1.919  32.508   2.405
71593W        W43853  11.361  25.482   1.923
71594W        W43854  26.650  25.544   1.903
71595W        W43855   7.314  28.135   4.837
71596W        W43856   3.870   7.236   0.815
71597W        W43857  39.373  17.244   0.379
71598W        W43858  17.084   1.429   0.398
71599W        W43859   9.783  12.762   1.888
71600W        W43860  33.510  16.614  10.427
71601W        W43861   5.291  24.160  10.515
71602W        W43862  28.125   6.864  11.463
71603W        W43863  36.413  19.250   0.943
71604W        W43864   7.863  37.974  14.338
71605W        W43865  44.395  44.302   4.281
71606W        W43866  25.504  38.409   9.995
71607W        W43867  36.430   7.325   3.281
71608W        W43868  20.725  38.467  11.495
71609W        W43869  42.492   3.850  10.617
71610W        W43870  36.506  35.994   2.695
71611W        W43871   1.401  12.191  10.908
71612W        W43872  12.617  15.249   4.144
71613W        W43873  37.449  37.017   3.822
71614W        W43874   5.425  16.629  13.938
71615W        W43875  20.704  10.792  11.578
71616W        W43876  34.118  44.938   0.284
71617W        W43877  18.087  20.571  14.315
71618W        W43878  35.378   9.669  10.465
71619W        W43879  21.551  10.811   2.750
71620W        W43880  21.576  14.781  11.396
71621W        W43881   6.713   5.696  14.436
71622W        W43882  33.015  33.982   4.345
71623W        W43883  27.190  36.843  11.001
71624W        W43884  15.775  39.349   3.216
71625W        W43885  15.216   3.240   2.197
71626W        W43886  14.815  33.442  11.996
71627W        W43887  11.170  24.055  10.502
71628W        W43888  16.735   4.430  13.933
71629W        W43889  22.133  18.111  14.280
71630W        W43890  12.716  35.364   3.630
71631W        W43891  25.997  38.998   2.723
71632W        W43892  23.720  14.720  10.614
71633W        W43893  14.309  43.299   2.339
71634W        W43894  22.048  35.385  13.981
71635W        W43895   5.351  29.103   1.856
71636W        W43896   9.711  14.728   4.674
71637W        W43897  10.652   2.918   0.295
71638W        W43898  11.230  24.179  11.922
71639W        W43899  37.346  30.141   2.274
71640W        W43900  19.646  24.628  11.993
71641W        W43901   7.670  35.947   1.429
71642W        W43902  33.439  16.087   4.616
71643W        W43903  35.890  26.200   0.480
71644W        W43904  21.222  24.112   3.632
71645W        W43905  34.568  11.182  12.050
71646W        W43906   0.839  38.504  11.388
71647W        W43907  10.687  29.056  14.836
71648W        W43908  40.495   4.283   3.259
71649W        W43909  15.721  20.592  13.334
71650W        W43910   6.364   6.272   3.297
71651W        W43911  41.003  38.899   2.360
71652W        W43912  17.175   1.868  12.428
71653W        W43913  27.120  17.234  14.508
71654W        W43914  32.611  25.664   0.345
71655W        W43915  22.230  38.905  10.554
71656W        W43916   1.246  17.782   1.445
71657W        W43917  10.750  21.638   1.774
71658W        W43918   9.269  17.777   3.858
71659W        W43919  23.110  26.136   1.822
71660W        W43920  38.507   1.804  12.429
71661W        W43921  16.760  13.756   0.347
71662W        W43922  30.002  39.381  14.936
71663W        W43923  20.627   7.778   5.096
71664W        W43924   0.315  19.078  10.933
71665W        W43925   3.865  29.037   2.383
71666W        W43926  23.645  36.555  14.843
71667W        W43927   0.854  27.612  13.382
71668W        W43928  30.567  10.679  14.394
71669W        W43929  16.112  21.166   4.139
71670W        W43930  37.358  25.117   4.213
71671W        W43931  30.909   2.294  12.412
71672W        W43932  25.001  42.424  10.643
71673W        W43933  31.106  20.135   0.305
71674W        W43934  42.291  28.647  12.387
71675W        W43935  23.551  29.423  11.924
71676W        W43936  29.626  23.725  12.342
71677W        W43937  17.687  32.393  11.464
71678W        W43938  42.325  34.369   3.191
71679W        W43939  28.113  41.836   1.229
71680W        W43940  44.329  38.462  14.357
71681W        W43941  16.813   0.395   4.114
71682W        W43942  11.836  30.995   1.424
71683W        W43943   4.211  43.515  12.450
71684W        W43944  25.970  10.638   4.674
71685W        W43945  37.077   7.792  10.434
71686W        W43946  33.506  27.048  13.500
71687W        W43947  18.105   3.273  13.312
71688W        W43948  44.957  35.011   1.410
71689W        W43949  37.893   1.262  10.535
71690W        W43950  38.872  44.266  14.778
71691W        W43951  33.476  32.630  14.437
71692W        W43952  42.995  10.704   1.729
71693W        W43953  26.640  28.594  13.866
71694W        W43954   7.823  22.573   2.207
71695W        W43955  21.056  28.564   0.253
71696W        W43956  16.608  41.405  14.885
71697W        W43957  34.527  42.904  13.798
71698W        W43958   3.769  43.816  13.518
71699W        W43959  28.008   6.853   3.195
71700W        W43960  23.548  39.842  12.368
71701W        W43961  12.686  32.934  14.327
71702W        W43962  41.417  20.262   3.630
71703W        W43963  42.293  31.004  14.818
71704W        W43964  35.961   4.929  14.917
71705W        W43965  27.687  20.267  12.367
71706W        W43966  25.216  21.575  14.839
71707W        W43967  20.673  29.450   1.282
71708W        W43968  10.166  23.511   3.852
71709W        W43969  43.292  40.424  13.944
71710W        W43970  15.691  32.134   3.708
71711W        W43971  39.530  26.065   0.354
71712W        W43972  30.989   2.362   0.404
71713W        W43973  11.358  28.180  11.056
71714W        W43974  36.579  10.290   2.840
71715W        W43975  12.687  23.550   1.700
71716W        W43976  35.055  40.053   2.202
71717W        W43977  34.982  12.719   4.706
71718W        W43978  29.058  35.585   3.360
71719W        W43979  14.737  17.694   9.670
71720W        W43980  38.072  29.462  10.958
71721W        W43981  21.731  15.280  10.560
71722W        W43982   8.275   3.229   0.932
71723W        W43983  15.160  14.782  11.550
71724W        W43984   2.808  32.427   4.350
71725W        W43985   9.867  29.575  11.065
71726W        W43986  38.003  14.613   2.236
71727W        W43987   3.846  38.354   4.243
71728W        W43988  18.724  22.708  12.929
71729W        W43989  43.968   1.967   3.743
71730W        W43990  43.299  14.662   4.167
71731W        W43991  24.667  12.851  11.456
71732W        W43992  43.462  39.985  11.866
71733W        W43993  26.636  35.589   4.321
71734W        W43994  18.122  26.135   2.272
71735W        W43995   3.251  28.956  12.920
71736W        W43996  28.949  30.138   0.369
71737W        W43997  14.100  32.082   1.328
71738W        W43998  28.178   8.839  14.891
71739W        W43999  31.455   8.326  14.893
71740W        W44000  22.648  32.554  14.437
71741W        W44001  15.269  18.113  14.329
71742W        W44002   7.191  15.602   2.866
71743W        W44003  38.396  37.480  13.876
71744W        W44004  43.292  41.043   3.857
71745W        W44005  23.639  24.137  13.011
71746W        W44006  36.498  39.490  13.842
71747W        W44007  43.503  34.075  11.534
71748W        W44008  10.857  43.327   1.434
71749W        W44009  19.051  32.107   2.375
71750W        W44010   4.832  36.886   2.815
71751W        W44011  21.654  39.424   4.184
71752W        W44012  24.714   5.736   2.773
71753W        W44013  33.122  28.145  12.919
71754W        W44014  15.653  23.533  11.962
71755W        W44015  12.358  10.302  11.604
71756W        W44016   8.177  17.790  13.882
71757W        W44017  18.581  10.215   3.678
71758W        W44018   6.328  19.686   2.738
71759W        W44019   4.384  40.422   1.923
71760W        W44020  23.658   2.812   0.900
71761W        W44021   6.747  34.916  13.494
71762W        W44022   3.453  13.614   2.386
71763W        W44023  10.330  32.989  10.408
71764W        W44024  11.700   5.906  13.975
71765W        W44025  20.111  27.958  14.335
71766W        W44026  42.283  11.707   2.901
71767W        W44027   5.806  28.959   4.748
71768W        W44028  42.930  28.508  14.950
71769W        W44029  34.539  25.112  11.594
71770W        W44030  37.522  29.131   2.688
71771W        W44031  33.058  28.661  10.489
71772W        W44032   8.726  42.437   0.362
71773W        W44033  36.495   2.953   2.321
71774W        W44034  11.820   7.869  14.952
71775W        W44035   2.386  28.606  14.927
71776W        W44036  24.717  40.482  14.766
71777W        W44037  16.727  19.570  12.548
71778W        W44038  19.753  23.622   2.892
71779W        W44039  33.080   8.340  13.542
71780W        W44040  10.654  26.103   0.250
71781W        W44041  17.629   7.397   4.116
71782W        W44042  44.849  30.649  12.907
71783W        W44043  30.481  25.687   4.650
71784W        W44044  38.896  14.166   4.765
71785W        W44045   1.456  44.331   1.800
71786W        W44046  10.260  26.650  11.045
71787W        W44047  32.885  33.581   3.344
71788W        W44048  26.695  22.598  14.480
71789W        W44049  18.651  12.310  12.942
71790W        W44050   5.702   3.459  12.026
71791W        W44051  26.988   8.364   1.339
71792W        W44052   8.404  42.777   3.773
71793W        W44053   9.359  42.829   1.854
71794W        W44054  34.457  12.801  12.520
71795W        W44055  40.498  33.509  11.971
71796W        W44056  25.002   9.872  13.320
71797W        W44057  31.060  19.232   1.432
71798W        W44058  25.598  40.389   2.897
71799W        W44059  34.549  41.904  10.611
71800W        W44060  31.548  42.315   0.853
71801W        W44061  37.498  30.548  12.434
71802W        W44062  14.117   9.193  14.866
71803W        W44063  25.974  27.574   1.421
71804W        W44064  22.710  40.926   4.610
71805W        W44065  35.470  41.404  11.495
71806W        W44066   6.732   1.771   0.728
71807W        W44067  18.153  28.511  11.437
71808W        W44068   7.718  17.637  10.574
71809W        W44069  31.523  42.432  11.528
71810W        W44070  16.794  19.281   3.331
71811W        W44071  37.888  36.918  12.848
71812W        W44072  29.971   4.775  11.424
71813W        W44073  24.605  26.654  11.952
71814W        W44074  22.196  19.575   9.979
71815W        W44075  24.137  12.666  11.890
71816W        W44076  15.704  32.142  13.050
71817W        W44077  30.133  14.733   2.385
71818W        W44078  18.150  43.017  14.833
71819W        W44079  36.078  10.762  11.107
71820W        W44080  23.613  27.613  12.917
71821W        W44081  31.594   2.445  11.608
71822W        W44082  43.497   5.359  13.055
71823W        W44083  16.167   9.338   4.206
71824W        W44084  13.725   2.844   3.671
71825W        W44085  44.880  39.394  12.826
71826W        W44086  24.113   9.218  10.979
71827W        W44087  26.542   8.250  13.925
71828W        W44088  28.597   8.827  11.390
71829W        W44089   9.372  38.343   0.321
71830W        W44090  15.104  39.008  10.547
71831W        W44091  32.121   6.397  13.937
71832W        W44092   4.442  35.521   1.927
71833W        W44093  15.291  16.575   0.786
71834W        W44094  37.409  43.419   1.884
71835W        W44095  35.099  21.049   3.765
71836W        W44096  27.118   1.251   4.779
71837W        W44097  26.021  32.062   4.668
71838W        W44098  30.014   6.274   4.276
71839W        W44099  22.086   7.263  11.111
71840W        W44100  34.529  38.882   3.300
71841W        W44101  26.514  10.821   3.281
71842W        W44102   2.818  36.062   2.413
71843W        W44103  24.007  10.875  14.361
71844W        W44104  19.272  26.993  14.818
71845W        W44105  12.846  16.266   2.249
71846W        W44106  22.544  35.490  12.575
71847W        W44107  10.844  15.274   0.366
71848W        W44108  28.151   5.856  10.921
71849W        W44109  23.690  25.662  13.398
71850W        W44110  41.402  43.991   2.826
71851W        W44111  40.454   0.264   1.889
71852W        W44112  26.097  15.268   1.716
71853W        W44113   1.388  17.729  10.459
71854W        W44114  24.070   5.891  13.469
71855W        W44115   8.705  14.317   3.758
71856W        W44116   0.363  15.136  12.491
71857W        W44117  16.662  43.918   2.750
71858W        W44118  16.751  10.793  13.540
71859W        W44119  14.809  37.564  13.049
71860W        W44120   5.772  21.198   0.306
71861W        W44121   0.422  43.450   2.387
71862W        W44122  18.285  33.931  10.944
71863W        W44123   4.323  37.464  11.504
71864W        W44124  40.324  36.447  13.377
71865W        W44125  11.789  18.224   1.238
71866W        W44126  14.689   4.763   0.919
71867W        W44127   7.269  26.060   4.161
71868W        W44128  22.671  12.778  10.547
71869W        W44129  44.764  44.989   3.847
71870W        W44130  31.582  17.220  12.536
71871W        W44131  14.799  35.109  12.473
71872W        W44132   0.987   6.298  10.543
71873W        W44133  34.443   4.786   0.306
71874W        W44134  12.834  13.135   3.746
71875W        W44135  14.210   5.732   3.677
71876W        W44136  15.753  37.535  13.981
71877W        W44137  15.142   9.188   2.784
71878W        W44138  22.688  16.166   1.737
71879W        W44139  26.466  24.655  14.994
71880W        W44140  31.588  38.077  11.019
71881W        W44141  18.070  40.353  12.343
71882W        W44142  38.562  32.481  14.421
71883W        W44143  11.281  39.514  11.097
71884W        W44144  41.476  18.741   1.879
71885W        W44145  18.279  26.673   1.330
71886W        W44146  17.789  36.396  13.438
71887W        W44147   3.836  20.205  13.455
71888W        W44148   8.285  39.536   0.954
71889W        W44149  34.094   3.216   4.344
71890W        W44150  13.294  39.045  13.905
71891W        W44151  40.338  21.680   0.888
71892W        W44152  30.539  13.113   0.475
71893W        W44153  15.169  30.606  11.888
71894W        W44154  42.320  18.247   3.798
71895W        W44155   3.234  32.015   1.439
71896W        W44156  36.402   2.761  11.935
71897W        W44157  41.537  25.531   4.126
71898W        W44158  19.620  33.977  14.844
71899W        W44159  26.517  15.714   4.738
71900W        W44160  30.426  21.717  10.549
71901W        W44161   3.906  36.592   1.848
71902W        W44162  27.690  25.679   2.668
71903W        W44163  13.714  33.984  11.514
71904W        W44164   1.964  18.137  10.582
71905W        W44165  33.904  30.457  13.006
71906W        W44166  15.201  33.042   3.658
71907W        W44167   8.732  19.207   1.924
71908W        W44168  37.041  29.122   0.738
71909W        W44169  15.599  25.006  13.056
71910W        W44170   4.845  12.684   4.676
71911W        W44171  39.854  12.129  10.451
71912W        W44172  17.106  41.442   1.350
71913W        W44173  18.105  43.296   0.882
71914W        W44174  12.290  42.517  12.905
71915W        W44175  31.417  10.374   3.183
71916W        W44176  34.612  31.563  12.534
71917W        W44177  28.125  40.389  14.888
71918W        W44178  38.911  19.042  11.960
71919W        W44179  30.578   3.412  10.510
71920W        W44180   0.488  41.362  11.062
71921W        W44181  25.218   2.230   3.208
71922W        W44182  21.629   4.274   2.805
71923W        W44183   1.478  38.380  14.925
71924W        W44184  41.405   6.251   2.743
71925W        W44185   2.290  32.611  14.384
71926W        W44186  29.152   4.753   0.945
71927W        W44187  35.506  21.557  13.446
71928W        W44188  17.612   0.910  13.945
71929W        W44189   2.404  31.431  12.343
71930W        W44190  28.487  31.544   0.920
71931W        W44191   4.769  28.041  11.459
71932W        W44192  22.046  44.300   4.725
71933W        W44193  20.693   8.242  14.487
71934W        W44194  10.365  23.033  11.927
71935W        W44195  43.470  38.001  14.006
71936W        W44196   1.336  36.372  12.979
71937W        W44197  18.127   5.241  10.463
71938W        W44198   7.170  35.545  11.593
71939W        W44199  16.642  36.593   3.190
71940W        W44200  32.126   0.948  11.094
71941W        W44201   7.407  24.688   2.894
71942W        W44202  24.660  41.010   1.408
71943W        W44203   4.376   1.451  14.972
71944W        W44204  43.867  29.004  12.565
71945W        W44205  29.632  44.387   2.320
71946W        W44206   2.390  18.569   2.677
71947W        W44207  18.617   6.338   0.833
71948W        W44208   3.307  15.806   5.322
71949W        W44209   6.396  13.146  10.405
71950W        W44210  24.700  43.478  12.087
71951W        W44211  27.067  32.982   3.793
71952W        W44212  31.504  28.161   4.744
71953W        W44213  41.441  15.121  14.782
71954W        W44214  23.609  26.067  13.047
71955W        W44215  38.420  31.611  12.846
71956W        W44216   6.698  34.418  12.418
71957W        W44217  18.284  44.901   3.230
71958W        W44218  39.868  24.725  11.403
71959W        W44219  43.305  22.024  11.965
71960W        W44220  23.045  35.417  13.995
71961W        W44221  29.051  40.317   2.738
71962W        W44222  21.017   1.751   1.716
71963W        W44223  12.683  19.642   3.863
71964W        W44224  35.889  13.188   0.864
71965W        W44225   2.292  34.099  12.092
71966W        W44226  12.744  13.762   2.784
71967W        W44227  29.083  10.833  12.479
71968W        W44228  14.261  32.486   2.256
71969W        W44229  36.082   7.881   2.848
71970W        W44230  28.037  13.804  11.504
71971W        W44231   1.385   8.369   2.787
71972W        W44232  24.157   6.323   9.950
71973W        W44233  40.894  10.810   4.778
71974W        W44234   5.782  19.638  13.371
71975W        W44235  33.988   9.238  10.565
71976W        W44236  15.816  41.997   3.630
71977W        W44237   5.356  42.790   3.312
71978W        W44238   6.292  15.191  10.534
71979W        W44239  20.749   1.314   2.225
71980W        W44240  20.205   0.313   3.152
71981W        W44241  16.592   8.311  14.313
71982W        W44242  29.427  25.711   4.696
71983W        W44243   1.447  15.670  10.461
71984W        W44244   3.321  23.657   9.947
71985W        W44245  39.875  13.200  13.919
71986W        W44246  35.460  14.287  13.910
71987W        W44247  27.164   2.284   3.180
71988W        W44248  27.508  37.450   0.899
71989W        W44249  12.731   7.760   4.696
71990W        W44250  11.143   6.224  10.928
71991W        W44251   3.912  40.881   3.800
71992W        W44252   8.838  31.628  11.456
71993W        W44253  30.029  19.687  14.281
71994W        W44254   6.777   0.859   0.396
71995W        W44255  37.567  10.142   1.846
71996W        W44256  19.639  31.484   1.275
71997W        W44257  40.868  41.361   0.882
71998W        W44258  27.071   7.753   3.684
71999W        W44259  13.637  19.622   0.399
72000W        W44260  38.938  11.153  14.893
72001W        W44261   5.347   5.370   3.184
72002W        W44262  12.707  43.384   4.838
72003W        W44263  37.932  44.945   0.283
72004W        W44264  28.538  17.672   2.815
72005W        W44265  37.447  35.013  11.984
72006W        W44266  32.566  32.396  11.955
72007W        W44267  34.897  15.244   0.269
72008W        W44268  19.768  20.676  13.806
72009W        W44269  24.657  10.296   1.721
72010W        W44270   3.317  21.752   2.900
72011W        W44271  38.916  41.849   0.730
72012W        W44272  10.268  40.454  11.453
72013W        W44273   8.400  14.618  11.864
72014W        W44274   1.824   6.184   4.652
72015W        W44275  32.106  23.687   1.841
72016W        W44276  13.619  14.228  13.314
72017W        W44277  29.453  13.785   0.475
72018W        W44278   8.344   8.258  13.835
72019W        W44279   5.797  27.669  11.086
72020W        W44280   4.775   0.936   5.284
72021W        W44281  32.402  28.528   1.925
72022W        W44282  37.840  27.060  14.453
72023W        W44283  14.307  38.341   1.232
72024W        W44284  40.387   1.846  10.144
72025W        W44285  23.586  11.201   4.137
72026W        W44286  34.000  24.085   1.768
72027W        W44287  20.556  27.152  11.447
72028W        W44288  20.654  42.361  12.095
72029W        W44289  41.892   5.432  14.872
72030W        W44290  33.945  19.202  11.048
72031W        W44291  18.152   5.368   1.261
72032W        W44292  11.866  28.173  13.351
72033W        W44293  29.487  34.917   1.919
72034W        W44294   3.857  40.909  10.487
72035W        W44295  27.056  35.964   0.731
72036W        W44296  10.161  29.526   2.390
72037W        W44297  40.045  33.616  11.089
72038W        W44298   0.823  25.697   3.847
72039W        W44299  12.840  17.211  11.401
72040W        W44300  27.448  17.094  10.471
72041W        W44301  39.340  29.017  11.391
72042W        W44302   2.287  25.044   2.346
72043W        W44303  37.924  40.400  12.969
72044W        W44304  36.587   3.823   1.848
72045W        W44305  11.356   5.828  14.373
72046W        W44306  43.300  23.524   0.795
72047W        W44307  44.309  15.757   4.799
72048W        W44308  11.251  19.712  11.429
72049W        W44309   6.365  24.215  12.974
72050W        W44310   0.417  18.249  10.476
72051W        W44311  13.144  29.137   0.288
72052W        W44312  33.417  40.004   1.451
72053W        W44313  38.971  18.667   4.752
72054W        W44314   7.361  34.501  14.912
72055W        W44315  44.407  20.167  14.361
72056W        W44316  28.027   2.822   2.264
72057W        W44317   7.885  17.081   3.154
72058W        W44318  14.752  27.079   4.667
72059W        W44319  34.068  24.123   0.938
72060W        W44320  15.579   1.284  11.587
72061W        W44321  27.988  25.989  13.342
72062W        W44322  20.583  10.327  10.410
72063W        W44323  11.851   6.803   2.403
72064W        W44324   5.890  37.982  14.003
72065W        W44325  11.178  33.383   2.285
72066W        W44326   1.265   2.470  13.882
72067W        W44327  17.292  16.719  13.976
72068W        W44328  19.777  29.173  11.056
72069W        W44329  35.479  29.021   2.282
72070W        W44330  32.994  17.163   2.771
72071W        W44331   1.364  28.466  14.028
72072W        W44332   6.181  38.451   2.326
72073W        W44333  29.124  17.743  13.452
72074W        W44334  15.716  14.781  11.125
72075W        W44335  12.129   0.893   0.947
72076W        W44336  42.990  37.866  14.310
72077W        W44337  11.809  38.827   4.718
72078W        W44338  35.596  29.918  12.442
72079W        W44339   8.659  44.370   2.771
72080W        W44340  12.731  41.892  11.537
72081W        W44341  17.740   1.318   4.268
72082W        W44342  36.050   7.283  10.953
72083W        W44343   3.877   9.173  11.603
72084W        W44344  14.301  24.602   3.656
72085W        W44345   4.779  44.376  13.820
72086W        W44346   5.410   0.284  14.292
72087W        W44347  27.658  43.013   0.473
72088W        W44348   9.745  25.554   4.275
72089W        W44349  40.420  14.783  11.093
72090W        W44350  40.995  28.606   0.825
72091W        W44351   1.851  26.071   4.734
72092W        W44352  28.168  26.013  10.541
72093W        W44353  32.565  24.636   1.418
72094W        W44354  28.602  35.889  13.815
72095W        W44355  34.437   1.386  13.802
72096W        W44356  19.714  20.769   4.281
72097W        W44357  44.008  24.479  10.932
72098W        W44358  33.411  37.399  12.088
72099W        W44359  44.321  34.556  13.945
72100W        W44360  23.083  30.577   3.376
72101W        W44361   0.276  28.182  14.397
72102W        W44362  38.412  30.629   3.677
72103W        W44363  17.307  35.577  12.935
72104W        W44364   0.437   0.347  12.846
72105W        W44365   6.334  17.180  10.490
72106W        W44366  11.628  18.684  13.894
72107W        W44367  26.105  27.062   0.394
72108W        W44368  18.065  37.078  11.124
72109W        W44369   7.294  12.849   2.258
72110W        W44370  10.349   5.795  10.513
72111W        W44371   4.758   6.905   0.896
72112W        W44372  15.219  17.161  12.853
72113W        W44373  24.197  15.244   0.887
72114W        W44374  18.752  25.183  14.992
72115W        W44375  18.252   0.341  12.496
72116W        W44376  39.501  10.804  12.823
72117W        W44377  18.719   5.305   2.237
72118W        W44378  37.386  28.626   3.771
72119W        W44379   5.379  14.606  11.418
72120W        W44380  37.397   6.428   1.317
72121W        W44381  36.531   4.386  12.085
72122W        W44382  27.979  30.535  13.405
72123W        W44383  15.231   8.297  13.895
72124W        W44384  38.999  10.648   4.692
72125W        W44385  42.007  34.091   0.749
72126W        W44386  17.611  44.793   2.323
72127W        W44387  15.176   9.165   3.347
72128W        W44388  34.445   5.799   3.722
72129W        W44389  13.309  20.274   2.296
72130W        W44390  41.899   6.905   0.949
72131W        W44391  37.435   3.727   0.790
72132W        W44392   4.426  11.211   1.266
72133W        W44393  25.992  34.487   4.296
72134W        W44394   8.390  23.540  10.619
72135W        W44395  18.680  15.194  12.408
72136W        W44396  23.046  39.446  14.013
72137W        W44397  17.214   2.364  13.527
72138W        W44398  10.145  40.832   0.805
72139W        W44399  35.479  34.013   4.644
72140W        W44400  38.922   3.712  12.563
72141W        W44401  28.460  22.180  13.019
72142W        W44402  16.717  32.619   4.321
72143W        W44403   1.848  19.722  12.366
72144W        W44404   5.767  38.944  14.480
72145W        W44405   3.762  31.509  12.912
72146W        W44406  30.946  43.282   1.772
72147W        W44407  30.974  32.573  10.077
72148W        W44408  33.421  34.881   0.419
72149W        W44409   7.798  29.595  10.531
72150W        W44410  39.895  16.805  11.066
72151W        W44411  13.203  16.259   2.806
72152W        W44412  30.552   6.798  14.336
72153W        W44413   6.233  17.595  10.431
72154W        W44414   9.739  31.131   3.170
72155W        W44415   5.735   9.366  12.348
72156W        W44416  28.565  26.003   3.346
72157W        W44417  23.576   8.835   3.840
72158W        W44418  13.754  19.653  12.535
72159W        W44419  12.129  12.355   1.785
72160W        W44420  10.663  27.667  12.441
72161W        W44421  38.963  38.052  13.405
72162W        W44422   4.698  44.771  11.433
72163W        W44423  25.196  21.633  13.854
72164W        W44424  37.498  28.531  12.386
72165W        W44425  31.013  13.216  12.071
72166W        W44426   2.469  40.455   2.778
72167W        W44427  21.515  17.564  12.034
72168W        W44428  29.571  20.601  14.375
72169W        W44429  14.104  41.312  13.009
72170W        W44430  13.219  36.951  10.599
72171W        W44431  19.684   2.791  10.612
72172W        W44432  20.663  12.188  13.955
72173W        W44433  38.370  38.847   2.821
72174W        W44434  32.541  35.543   4.700
72175W        W44435  25.196  36.582   2.728
72176W        W44436  32.921  19.766   3.700
72177W        W44437  11.325   1.936   3.265
72178W        W44438  36.372   7.823  12.845
72179W        W44439  33.475  44.379  14.785
72180W        W44440  44.303  21.530  12.355
72181W        W44441  39.522   0.314  11.951
72182W        W44442   5.747   0.328  13.962
72183W        W44443  11.300  10.267  14.451
72184W        W44444  34.520  18.070  13.521
72185W        W44445  38.401  19.055  14.966
72186W        W44446  33.091  40.427   4.812
72187W        W44447  34.387   8.880  12.089
72188W        W44448  22.561   0.942   3.380
72189W        W44449  42.355  38.439   0.463
72190W        W44450  14.226  25.675  11.460
72191W        W44451  37.977  27.052   4.627
72192W        W44452  19.132  42.371   0.746
72193W        W44453  24.486  15.670   0.369
72194W        W44454  20.250  24.216  11.388
72195W        W44455  37.860  40.846   1.737
72196W        W44456  40.027  18.551  10.414
72197W        W44457   2.350  37.877  12.541
72198W        W44458   5.718  19.574   3.734
72199W        W44459  11.733  28.063   2.871
72200W        W44460  30.940  40.844  13.512
72201W        W44461  26.560   5.823   2.686
72202W        W44462  11.172  26.131   0.928
72203W        W44463   7.892  44.818  14.302
72204W        W44464  29.661  39.883  14.880
72205W        W44465   3.402  29.925  13.023
72206W        W44466  39.398  27.613   3.381
72207W        W44467  34.388  39.481  11.929
72208W        W44468  25.169  34.598  14.421
72209W        W44469  18.678  17.086   5.154
72210W        W44470  23.053  22.522   3.342
72211W        W44471  19.689   9.253  13.020
72212W        W44472  29.172   0.744   4.229
72213W        W44473  30.071  34.413  11.899
72214W        W44474   6.256  30.046  13.835
72215W        W44475  31.035  22.126   1.790
72216W        W44476  39.050   2.257   1.755
72217W        W44477  12.814  20.138   3.284
72218W        W44478   3.328   8.378  13.020
72219W        W44479  33.380   8.286   2.739
72220W        W44480  41.877  32.532   4.175
72221W        W44481  41.952   5.745  12.887
72222W        W44482  21.634   8.834  12.972
72223W        W44483  41.320   4.881   0.470
72224W        W44484  34.566   1.959   4.306
72225W        W44485  27.066   2.727  14.027
72226W        W44486   5.413  40.379   0.857
72227W        W44487  40.981  37.965   3.686
72228W        W44488   0.759   2.261   2.806
72229W        W44489  16.797  23.151   1.836
72230W        W44490  26.184  34.573  12.496
72231W        W44491  18.234  27.526  12.074
72232W        W44492  14.274  10.212  12.907
72233W        W44493  31.112   3.216   1.344
72234W        W44494  44.314  34.978   2.238
72235W        W44495  18.634  24.983   2.381
72236W        W44496   5.732  28.168  11.938
72237W        W44497   0.927   2.310   1.916
72238W        W44498  37.430  43.507   2.842
72239W        W44499   4.441  26.575  13.394
72240W        W44500   0.917   1.739  14.812
72241W        W44501  22.505  13.161  10.107
72242W        W44502  10.208  11.704  12.060
72243W        W44503  13.804  12.755   1.290
72244W        W44504   2.445  29.116   4.806
72245W        W44505   3.914  14.099  13.805
72246W        W44506  18.586  41.029   2.283
72247W        W44507  29.063  34.966   3.865
72248W        W44508  37.412   3.827  13.329
72249W        W44509  35.080  31.033  11.523
72250W        W44510  34.456  20.249  13.931
72251W        W44511  42.454  16.762   1.864
72252W        W44512  24.031  22.715  13.998
72253W        W44513  25.481   2.774  11.902
72254W        W44514  18.561  14.731   3.203
72255W        W44515  36.480  34.013  11.014
72256W        W44516  29.038  21.638  10.927
72257W        W44517   7.415  38.526  14.477
72258W        W44518   4.435  39.886   0.328
72259W        W44519  28.935  27.174  14.920
72260W        W44520  37.369  38.352  14.936
72261W        W44521  40.810  30.115  11.564
72262W        W44522  33.621   9.872   3.179
72263W        W44523  42.926  28.930   1.280
72264W        W44524  34.558  11.157   2.365
72265W        W44525  10.273   4.772   1.347
72266W        W44526  37.013  22.582   1.777
72267W        W44527   7.181  16.737  11.995
72268W        W44528   7.401  29.983   4.632
72269W        W44529  25.712  32.631  14.854
72270W        W44530   2.866  30.105   4.730
72271W        W44531   5.236  23.143  12.388
72272W        W44532   3.767  20.625   0.300
72273W        W44533  29.989  18.266  11.895
72274W        W44534  10.770  40.466  12.477
72275W        W44535   3.839   6.343  11.917
72276W        W44536  12.277  12.305  14.449
72277W        W44537  14.802  25.105  11.902
72278W        W44538   3.392   3.837   5.130
72279W        W44539  11.205   8.795  14.992
72280W        W44540  27.606  31.025  11.485
72281W        W44541  14.597  20.561   0.339
72282W        W44542   4.365  24.225   4.835
72283W        W44543  38.523  24.002  12.385
72284W        W44544   2.962   6.742   4.130
72285W        W44545  13.150  40.388  11.059
72286W        W44546  15.199  17.089  12.503
72287W        W44547  10.299  43.377   3.257
72288W        W44548  16.734  41.982   0.920
72289W        W44549  22.148  43.798   2.354
72290W        W44550  42.322  31.441   1.254
72291W        W44551  40.822   8.673   3.781
72292W        W44552   1.343  35.042   4.797
72293W        W44553  44.371   4.717   0.803
72294W        W44554   8.355   8.196   3.838
72295W        W44555  39.427  20.073  12.457
72296W        W44556  42.847  25.627  13.339
72297W        W44557   3.742  35.074  12.571
72298W        W44558  39.928  23.681   4.290
72299W        W44559   6.355  38.854   3.691
72300W        W44560  39.007  22.105   2.324
72301W        W44561  22.043  11.264   2.765
72302W        W44562  21.718   1.737   1.211
72303W        W44563  40.908  28.047   3.253
72304W        W44564  43.432   7.831  13.466
72305W        W44565  21.148  40.898  14.798
72306W        W44566  36.355  14.276  14.324
72307W        W44567  10.346  16.187   2.839
72308W        W44568  26.141  15.812  13.313
72309W        W44569   2.469  28.167   1.782
72310W        W44570  26.166  22.613   2.889
72311W        W44571  38.901  44.855   5.193
72312W        W44572   3.400   8.767  13.434
72313W        W44573  22.118   7.362   1.909
72314W        W44574  32.958  23.666   4.281
72315W        W44575  15.269  38.381  11.005
72316W        W44576  31.467  12.740  14.801
72317W        W44577  17.277   7.178   9.546
72318W        W44578  15.623  35.517  11.417
72319W        W44579  14.726   4.221  10.987
72320W        W44580  11.334  35.900  13.008
72321W        W44581   6.269  14.150  11.602
72322W        W44582  44.853  21.587   0.880
72323W        W44583  16.208  30.020   1.364
72324W        W44584  18.695  29.992   3.680
72325W        W44585  30.621   9.849  11.603
72326W        W44586  24.723  37.383  14.929
72327W        W44587  34.383  43.852   2.325
72328W        W44588   3.715  19.053  13.051
72329W        W44589  31.899  17.080  11.412
72330W        W44590  33.057  36.366  14.474
72331W        W44591  44.259   2.468  14.351
72332W        W44592  42.366   7.875  12.849
72333W        W44593  19.533  43.993  13.377
72334W        W44594  21.687  11.851   2.712
72335W        W44595  21.595  19.723   2.872
72336W        W44596  25.485  29.630   0.454
72337W        W44597  17.773  38.841  14.320
72338W        W44598   0.779   1.826  12.497
72339W        W44599  37.383  39.444   2.312
72340W        W44600  21.711   5.212   0.735
72341W        W44601  39.425  31.029   3.179
72342W        W44602  36.017  38.037   3.305
72343W        W44603  30.918  14.218   5.238
72344W        W44604  15.658  18.064  10.072
72345W        W44605   4.334  43.970  14.773
72346W        W44606  35.108  28.646  14.429
72347W        W44607  43.849  43.892  11.573
72348W        W44608  41.348  36.027  10.458
72349W        W44609  18.131  16.580  11.494
72350W        W44610  36.050  20.622  14.792
72351W        W44611   4.259  14.720   3.757
72352W        W44612  38.006  43.462   4.747
72353W        W44613  13.756  27.602  14.876
72354W        W44614  40.861  14.749  13.463
72355W        W44615  40.893  15.637   3.177
72356W        W44616  27.529  25.674  12.513
72357W        W44617  39.398   7.847  10.153
72358W        W44618  21.101  20.563   2.256
72359W        W44619   9.812  32.932  13.944
72360W        W44620  27.602  32.037   2.367
72361W        W44621  13.772  16.593  12.382
72362W        W44622  28.562  36.845   0.965
72363W        W44623  41.298  36.930  12.383
72364W        W44624  28.021  25.594   2.400
72365W        W44625  36.387   8.831  12.477
72366W        W44626  29.056  28.049  12.923
72367W        W44627   9.718  17.061   3.702
72368W        W44628  41.969  43.866  13.028
72369W        W44629  29.501  36.908   0.840
72370W        W44630  43.775  35.099   1.294
72371W        W44631  28.163  38.424   4.330
72372W        W44632  40.872  33.579  13.862
72373W        W44633   0.925  21.190   0.964
72374W        W44634  16.784   5.885  14.854
72375W        W44635  44.763  33.475  11.908
72376W        W44636   1.408  25.699   2.894
72377W        W44637  39.482  36.454  14.928
72378W        W44638   8.358  12.359  14.956
72379W        W44639  11.263  15.189  11.511
72380W        W44640  40.458  35.367   0.941
72381W        W44641  11.153  11.642   0.477
72382W        W44642   1.405  38.025  10.412
72383W        W44643  13.667  31.933  12.982
72384W        W44644  30.478  26.530  13.874
72385W        W44645  19.227   9.807  11.060
72386W        W44646  26.639   7.288   0.897
72387W        W44647   7.263  34.001  14.462
72388W        W44648   6.268  36.404   2.823
72389W        W44649  39.466  21.100  12.457
72390W        W44650  34.041  29.918  11.495
72391W        W44651   4.791  28.643   2.796
72392W        W44652   0.863  30.133  12.413
72393W        W44653  30.582  36.903  11.092
72394W        W44654  37.935   5.742  11.384
72395W        W44655  13.106  44.965  14.319
72396W        W44656  23.156   4.416   1.877
72397W        W44657  11.304  14.201  12.084
72398W        W44658   1.861  21.113   0.284
72399W        W44659  37.047  21.585   4.775
72400W        W44660  28.988  21.646  10.444
72401W        W44661  28.164  10.795   2.332
72402W        W44662  42.330  15.723  14.982
72403W        W44663  19.777  29.939   4.308
72404W        W44664  10.336   5.201  11.526
72405W        W44665   2.232  41.833   1.794
72406W        W44666  41.936  33.381   1.408
72407W        W44667  20.564  41.466  13.846
72408W        W44668  22.062  28.100   1.320
72409W        W44669  30.431  36.084  11.941
72410W        W44670  37.933  33.608   0.425
72411W        W44671  14.236  19.282   4.332
72412W        W44672  39.424  15.617   2.407
72413W        W44673  12.316  23.119  10.898
72414W        W44674   4.227  35.945  11.054
72415W        W44675  11.647   4.435   4.335
72416W        W44676  33.456  19.729   3.653
72417W        W44677   3.353  15.799   4.331
72418W        W44678  30.469  34.520   3.316
72419W        W44679  10.803  29.466  11.105
72420W        W44680  18.762  32.927   0.404
72421W        W44681  11.853  40.983   2.765
72422W        W44682  29.933   8.231   0.405
72423W        W44683  26.147  38.981   9.980
72424W        W44684  39.991  24.177  13.350
72425W        W44685  33.443  36.056  12.397
72426W        W44686  27.631   2.275   4.721
72427W        W44687  19.742  26.683  12.506
72428W        W44688  14.641   5.321  14.292
72429W        W44689  33.968  22.690   1.416
72430W        W44690   2.365  18.241   0.324
72431W        W44691  17.752   5.393  11.439
72432W        W44692  26.586   1.896   3.797
72433W        W44693  10.257  26.564  10.109
72434W        W44694   7.213  41.438   2.294
72435W        W44695  41.817  19.057   3.859
72436W        W44696   5.395  27.453  14.792
72437W        W44697  35.901  12.275   3.305
72438W        W44698  25.702  15.690   3.822
72439W        W44699   9.813  15.303  12.547
72440W        W44700  11.670  40.397  11.952
72441W        W44701  27.614  28.967   1.402
72442W        W44702  19.605   4.210   2.840
72443W        W44703  44.464  22.069  11.437
72444W        W44704  21.515  15.177  12.448
72445W        W44705  34.495  44.920  11.435
72446W        W44706  14.222  15.322  10.632
72447W        W44707   9.377  24.649  11.587
72448W        W44708  40.041  44.298  14.360
72449W        W44709   0.751  29.043   4.340
72450W        W44710  44.831  19.052   4.772
72451W        W44711  36.971   7.902  14.312
72452W        W44712  43.871  10.673   1.345
72453W        W44713  40.892  39.920   1.819
72454W        W44714  28.465   2.334   0.401
72455W        W44715  27.066  18.260   3.329
72456W        W44716   7.311   8.272  14.027
72457W        W44717  20.567  29.543  14.483
72458W        W44718  32.012  27.527  11.904
72459W        W44719  25.988  15.738  10.977
72460W        W44720  40.496  16.201   0.760
72461W        W44721   2.811  27.059  12.859
72462W        W44722  36.473  26.178  11.101
72463W        W44723  35.470  19.068   0.357
72464W        W44724   4.233   4.913  10.451
72465W        W44725   6.208  24.220  13.889
72466W        W44726  31.427  35.002   0.933
72467W        W44727  31.985  11.784   0.789
72468W        W44728  31.594  34.917  11.585
72469W        W44729  27.509  43.458   3.349
72470W        W44730  31.068  28.995  11.554
72471W        W44731  13.270  14.706  11.546
72472W        W44732  17.611  38.981   2.754
72473W        W44733  38.968   1.441   0.336
72474W        W44734  10.683  23.189   3.829
72475W        W44735  25.977   1.941  11.413
72476W        W44736  44.808  41.820   0.363
72477W        W44737  34.438  26.592   2.685
72478W        W44738  43.316  31.112  10.900
72479W        W44739  22.531  31.104   2.204
72480W        W44740  15.731  20.719   2.676
72481W        W44741  16.686  13.299  12.468
72482W        W44742   6.849  34.868  10.460
72483W        W44743  43.907   0.431   2.841
72484W        W44744   1.342   2.827  10.521
72485W        W44745  38.977   4.373  11.449
72486W        W44746  38.362  35.082   0.422
72487W        W44747  19.051  34.436   0.429
72488W        W44748  18.258  34.065   0.963
72489W        W44749  32.114  39.892  11.444
72490W        W44750  42.827  29.505   2.275
72491W        W44751  22.223   7.320  10.480
72492W        W44752   4.429  30.987  14.006
72493W        W44753   4.426  16.179   3.855
72494W        W44754  41.453  12.785   0.734
72495W        W44755   5.784   2.313  10.623
72496W        W44756  42.993  40.944   4.824
72497W        W44757  37.975  15.790   3.203
72498W        W44758  43.978   9.384   1.307
72499W        W44759  34.044  42.879  13.863
72500W        W44760  39.000   6.869   1.719
72501W        W44761   1.766  11.270  13.528
72502W        W44762  44.411  11.717   5.304
72503W        W44763  13.825  12.173  12.028
72504W        W44764   0.341  14.724   1.838
72505W        W44765  17.687  33.108   2.884
72506W        W44766   1.265  15.583  13.049
72507W        W44767  19.773   4.304   4.659
72508W        W44768  10.780  24.113  14.914
72509W        W44769  20.180   7.818  10.605
72510W        W44770  38.337  15.653  13.424
72511W        W44771   2.396  31.925   2.842
72512W        W44772  26.684   5.397   2.778
72513W        W44773   2.343   1.968  13.438
72514W        W44774  13.678  15.102  14.777
72515W        W44775   1.738  43.431   1.283
72516W        W44776  40.329  37.022   0.441
72517W        W44777  26.083  43.277  11.123
72518W        W44778  25.196  20.033  13.507
72519W        W44779  24.027  10.751   2.821
72520W        W44780  25.593   8.873   3.756
72521W        W44781   0.882  12.334  13.548
72522W        W44782  35.557  39.898   2.691
72523W        W44783  26.053  25.196   2.382
72524W        W44784  13.316  19.696   4.652
72525W        W44785  33.439  42.027   1.831
72526W        W44786   5.404  42.339   1.713
72527W        W44787  19.687  19.660  12.975
72528W        W44788  14.759  31.054   2.227
72529W        W44789  43.792  33.609   0.298
72530W        W44790  15.096  16.099   4.623
72531W        W44791  36.489  32.475   2.313
72532W        W44792   1.244  29.627   2.893
72533W        W44793  11.641  29.123   2.326
72534W        W44794  21.222  40.930  11.490
72535W        W44795  33.447   0.913   0.755
72536W        W44796  29.021  14.785  11.437
72537W        W44797   9.389  31.445  11.101
72538W        W44798  19.569   0.429  13.942
72539W        W44799  38.463  33.428  14.844
72540W        W44800  22.670  18.581  10.016
72541W        W44801  18.596  43.937   0.743
72542W        W44802  11.852  18.584   0.796
72543W        W44803  31.049  30.126   9.533
72544W        W44804  35.592  32.885  14.031
72545W        W44805  38.440  43.507  11.433
72546W        W44806  25.623   8.707  11.950
72547W        W44807  16.300  24.082   0.821
72548W        W44808  41.837  41.917   1.835
72549W        W44809  38.484  40.825   2.771
72550W        W44810  38.870  43.809  11.489
72551W        W44811  22.680  44.846  12.824
72552W        W44812   0.855  20.683   1.371
72553W        W44813  19.171  16.667   4.323
72554W        W44814  44.991  12.284  10.951
72555W        W44815  24.079  24.155   0.884
72556W        W44816  21.537  17.754  13.318
72557W        W44817  32.057  34.980   1.301
72558W        W44818  39.491  31.991  11.933
72559W        W44819   3.798   5.360   1.769
72560W        W44820   0.910  26.653  11.960
72561W        W44821  42.019   9.712  13.331
72562W        W44822  42.300  24.509  14.413
72563W        W44823  14.803  33.604  12.453
72564W        W44824   8.192  20.692  13.530
72565W        W44825  27.543  10.760   1.376
72566W        W44826   9.197   5.373   3.297
72567W        W44827  29.989  27.598  11.467
72568W        W44828  40.502  37.018  12.536
72569W        W44829   9.829  39.956  11.596
72570W        W44830  33.998  31.446   3.817
72571W        W44831  27.006   4.911  13.364
72572W        W44832  12.744   9.155   0.393
72573W        W44833  15.681   7.257   0.409
72574W        W44834  42.435  18.063   3.260
72575W        W44835   5.257   6.809  13.387
72576W        W44836  18.229  34.519   4.120
72577W        W44837  30.090   2.966   1.767
72578W        W44838  11.663  24.553   0.315
72579W        W44839  24.000  40.506  12.480
72580W        W44840  39.411   7.829   4.124
72581W        W44841  26.011  13.166  14.331
72582W        W44842  10.364   3.440   5.295
72583W        W44843  13.225  31.125   3.854
72584W        W44844   0.444  40.011   2.310
72585W        W44845  22.192  44.929   1.761
72586W        W44846  43.796   1.288   2.846
72587W        W44847  21.663  31.146  13.473
72588W        W44848  17.676  17.105  13.046
72589W        W44849  43.862  44.319  10.434
72590W        W44850  44.295   7.198   0.841
72591W        W44851  10.730   5.195  14.844
72592W        W44852   0.253  43.355   4.689
72593W        W44853  16.602  12.274  13.386
72594W        W44854   2.405   7.230   0.409
72595W        W44855  33.445   3.816  11.604
72596W        W44856  34.932   1.790   2.324
72597W        W44857  33.407  37.024   4.675
72598W        W44858  38.906   7.410   2.245
72599W        W44859  25.659  35.070  14.900
72600W        W44860  40.434  41.795  13.548
72601W        W44861   9.353   0.422  13.456
72602W        W44862  20.254  39.480  12.346
72603W        W44863  15.308  31.068  14.347
72604W        W44864  34.049  13.189  10.530
72605W        W44865   9.364  43.367  11.563
72606W        W44866   6.306  40.441   1.315
72607W        W44867  27.056  21.601   2.811
72608W        W44868  39.538   7.298   5.295
72609W        W44869  18.225   4.415   2.373
72610W        W44870  34.582  43.291   1.868
72611W        W44871  29.546  34.496   0.375
72612W        W44872  18.771  19.595   9.962
72613W        W44873  42.376  35.942  12.077
72614W        W44874  42.026  24.518  12.506
72615W        W44875  19.046  10.204   0.390
72616W        W44876  32.958  41.946  14.319
72617W        W44877  16.262  11.147   3.234
72618W        W44878  44.891  34.410  12.380
72619W        W44879   1.843  32.636   3.284
72620W        W44880  32.485  37.406   2.234
72621W        W44881   6.844   0.480  12.545
72622W        W44882  14.170   8.222   4.122
72623W        W44883   1.895   3.289   4.789
72624W        W44884  37.465  23.011  12.086
72625W        W44885  30.155  38.076   4.315
72626W        W44886  24.646   3.432  10.938
72627W        W44887  24.678  14.290  14.309
72628W        W44888  37.520  13.735  14.805
72629W        W44889  14.656  23.066   0.861
72630W        W44890  42.294  43.854   1.352
72631W        W44891  24.066  25.034   1.289
72632W        W44892   4.384   7.411  11.384
72633W        W44893  18.720  18.230  13.496
72634W        W44894  29.632  32.992  14.826
72635W        W44895  44.268  35.427   2.840
72636W        W44896  41.849  36.880  10.573
72637W        W44897  40.394  42.884   2.708
72638W        W44898  23.601  38.864  14.017
72639W        W44899   2.282  35.501   0.434
72640W        W44900  40.004  38.385   3.299
72641W        W44901  12.149  12.132  11.386
72642W        W44902   3.792  20.200  11.990
72643W        W44903  17.180   0.257  12.969
72644W        W44904  18.202   0.413   3.215
72645W        W44905  27.940   9.274  10.057
72646W        W44906  20.602  34.436   2.280
72647W        W44907  35.106  11.848  14.819
72648W        W44908   1.242   5.764   2.790
72649W        W44909  34.108  43.892  13.872
72650W        W44910  42.331  20.719   1.696
72651W        W44911  32.608  23.166   2.363
72652W        W44912  34.530  22.650  13.040
72653W        W44913   5.791   0.812   4.748
72654W        W44914  34.425  35.511  12.993
72655W        W44915  10.716  26.093  12.004
72656W        W44916  26.593  19.770   1.770
72657W        W44917  31.976   8.310  10.972
72658W        W44918  10.730   5.809  12.570
72659W        W44919  20.195  31.439  12.047
72660W        W44920  42.371  31.580  13.445
72661W        W44921   0.296  32.589   1.381
72662W        W44922   9.209  28.089  14.513
72663W        W44923   3.217  10.185  13.429
72664W        W44924  41.864  19.130  13.465
72665W        W44925  29.628  38.533   4.639
72666W        W44926   8.356  10.705   4.219
72667W        W44927   6.222  38.394   3.322
72668W        W44928  28.519   4.274  10.970
72669W        W44929   5.236   7.689  12.369
72670W        W44930  30.939  14.312  13.990
72671W        W44931  21.746  20.103   1.720
72672W        W44932  41.877   7.745  12.068
72673W        W44933  33.545  25.974  10.589
72674W        W44934  31.584  30.523   1.921
72675W        W44935  22.529  23.512   9.934
72676W        W44936  12.743  44.886   4.665
72677W        W44937  44.823  31.918   2.294
72678W        W44938  13.629  24.495   3.196
72679W        W44939   5.291  42.498   2.671
72680W        W44940  34.087  18.682   1.770
72681W        W44941  39.820  16.645   0.382
72682W        W44942  42.870  22.998  11.486
72683W        W44943   2.723  11.249   2.724
72684W        W44944   8.676  31.646   0.735
72685W        W44945  37.409  42.357   4.282
72686W        W44946  18.120  14.595  12.422
72687W        W44947  37.528  36.087  14.781
72688W        W44948   2.355  38.989  10.507
72689W        W44949   6.395  30.121  12.884
72690W        W44950  35.422   6.834  14.397
72691W        W44951  28.659   9.712   0.406
72692W        W44952  10.298   2.964  13.863
72693W        W44953   6.717   5.417  11.906
72694W        W44954  37.349  30.526  12.851
72695W        W44955   7.703  20.151  14.304
72696W        W44956  19.181  23.688   2.416
72697W        W44957  25.578   5.810   2.695
72698W        W44958   1.867  23.726   4.192
72699W        W44959   0.951  35.956  12.953
72700W        W44960   8.806  43.878   3.719
72701W        W44961  34.905  12.327  10.635
72702W        W44962  33.389   9.675  14.475
72703W        W44963  37.036  22.746  14.335
72704W        W44964  24.724  32.602  13.414
72705W        W44965  25.026  26.597   4.730
72706W        W44966  18.718   9.294   4.166
72707W        W44967   9.325  11.704  12.904
72708W        W44968  42.511  40.390  14.996
72709W        W44969   0.846  13.212  10.599
72710W        W44970  13.718  17.219  14.399
72711W        W44971  12.265  22.564  13.975
72712W        W44972  11.657  14.810   4.743
72713W        W44973   4.885  18.179   1.427
72714W        W44974  16.810  14.291   2.680
72715W        W44975  24.509  17.168   4.277
72716W        W44976  39.359   3.880   0.383
72717W        W44977   2.407  28.108  13.986
72718W        W44978   6.378  37.953   3.303
72719W        W44979  16.078  17.112  11.874
72720W        W44980  19.722  44.354   3.296
72721W        W44981  12.280   8.330  12.869
72722W        W44982  16.766   7.257   2.857
72723W        W44983  39.036  15.670  13.809
72724W        W44984  18.644  28.956  10.104
72725W        W44985  22.175  40.838  14.852
72726W        W44986  39.009   2.317   4.764
72727W        W44987  18.729  17.251   3.224
72728W        W44988  20.200  32.571  10.420
72729W        W44989  39.491  28.949  14.453
72730W        W44990  20.762  35.957   2.742
72731W        W44991  16.656  42.954   2.745
72732W        W44992  43.946  21.644  11.875
72733W        W44993  30.940  34.920   0.792
72734W        W44994   9.776  34.061   3.720
72735W        W44995  40.443   2.393  11.881
72736W        W44996  29.127   7.803   0.772
72737W        W44997  24.178  19.180  13.024
72738W        W44998  42.792   1.940  10.574
72739W        W44999  12.210  17.709  12.903
72740W        W45000  38.026  16.694  14.361
72741W        W45001   9.321   8.819   0.854
72742W        W45002   9.371   8.302  11.411
72743W        W45003   2.854  12.305   0.423
72744W        W45004  34.457  22.549  13.413
72745W        W45005  27.057  18.562   1.283
72746W        W45006   8.756   9.229  13.546
72747W        W45007  34.933  35.889  12.957
72748W        W45008  19.715  42.437   4.802
72749W        W45009  35.450   9.862  11.464
72750NA+    NA+45010  25.043   8.276   4.184
72751NA+    NA+45011  10.232  10.683  10.564
72752NA+    NA+45012  19.198  35.596  14.403
72753NA+    NA+45013  19.588   3.726  10.973
72754NA+    NA+45014  44.325  12.261   0.308
72755NA+    NA+45015  28.008  43.489   2.210
72756NA+    NA+45016  10.290  10.204  10.932
72757NA+    NA+45017  29.559  21.028   3.241
72758NA+    NA+45018   3.432  33.120   1.255
72759NA+    NA+45019  10.234  36.981   2.398
72760NA+    NA+45020   2.371   1.848  13.965
72761NA+    NA+45021  18.763  43.367  12.828
72762NA+    NA+45022  11.672   3.453  10.969
72763NA+    NA+45023   2.303   6.729  12.426
72764NA+    NA+45024  35.926   9.380  10.919
72765NA+    NA+45025  12.807  23.150   1.923
72766NA+    NA+45026  30.069  43.393   4.613
72767NA+    NA+45027  39.404  19.675  10.958
72768NA+    NA+45028   8.380  30.459  14.938
72769NA+    NA+45029  32.483   1.244   4.250
72770NA+    NA+45030  22.709  11.654  11.426
72771NA+    NA+45031  37.349  42.447   0.357
72772NA+    NA+45032  26.512  17.088   3.204
72773NA+    NA+45033  20.130  16.807   1.833
72774NA+    NA+45034  31.976  17.689  13.043
72775NA+    NA+45035   1.808   0.833  11.993
72776NA+    NA+45036  10.839  38.962  14.858
72777NA+    NA+45037   0.750   3.772  12.375
72778NA+    NA+45038  23.650  42.908   0.967
72779NA+    NA+45039  25.131  15.761  11.972
72780NA+    NA+45040   1.238  36.481   1.264
72781NA+    NA+45041  11.730  11.716  11.448
72782NA+    NA+45042  17.248  38.823  10.058
72783NA+    NA+45043   2.415  38.937  10.066
72784NA+    NA+45044   7.415   4.862  13.545
72785NA+    NA+45045  15.112   3.222  13.411
72786NA+    NA+45046   7.311  33.112  12.566
72787NA+    NA+45047   2.438  10.232   0.245
72788NA+    NA+45048  39.514  36.569   2.179
72789NA+    NA+45049   6.678  20.176   4.205
72790NA+    NA+45050  34.928  10.827  12.359
72791NA+    NA+45051   7.179  22.620   3.849
72792NA+    NA+45052  42.017  41.450   0.732
72793NA+    NA+45053  43.792  14.825   2.712
72794NA+    NA+45054  38.832  36.000   2.410
72795NA+    NA+45055  41.994  21.071  14.483
72796NA+    NA+45056  28.514  17.264   1.910
72797NA+    NA+45057   1.236  32.434   1.359
72798NA+    NA+45058   7.727  41.300  12.458
72799NA+    NA+45059  31.046  25.973   4.729
72800NA+    NA+45060  31.935  32.895   1.790
72801NA+    NA+45061   6.749  20.183   3.672
72802NA+    NA+45062   5.327  21.023   2.323
72803NA+    NA+45063  15.186  37.507   4.209
72804NA+    NA+45064  44.376  28.610   4.178
72805NA+    NA+45065  22.108  35.431  13.373
72806NA+    NA+45066   2.960  21.198   0.282
72807NA+    NA+45067   2.788   0.289   2.238
72808NA+    NA+45068  34.593   7.371   2.795
72809NA+    NA+45069  40.463  12.615  14.468
72810NA+    NA+45070   7.337  39.932  12.478
72811NA+    NA+45071  17.700  10.682  13.063
72812NA+    NA+45072  20.160   4.245  11.978
72813NA+    NA+45073  38.870  28.151  11.499
72814NA+    NA+45074  28.179  37.955   1.379
72815NA+    NA+45075  40.022  32.963  12.071
72816NA+    NA+45076  31.567  35.477   4.610
72817NA+    NA+45077   1.435  39.817   4.226
72818NA+    NA+45078   3.256   4.375  10.606
72819NA+    NA+45079   0.272  28.935  11.547
72820NA+    NA+45080  21.604  16.757   2.311
72821NA+    NA+45081  21.172  38.548   2.401
72822NA+    NA+45082  14.199  28.492  11.859
72823NA+    NA+45083  18.732  16.187   2.355
72824NA+    NA+45084  36.419  28.145   2.252
72825NA+    NA+45085  21.616  37.043  12.580
72826NA+    NA+45086  32.906  21.107   0.365
72827NA+    NA+45087  31.624  30.954   1.256
72828NA+    NA+45088  31.897  40.425   1.702
72829NA+    NA+45089  43.779  33.950   0.463
72830NA+    NA+45090  30.950  37.410  13.875
72831NA+    NA+45091  27.634  16.239   2.684
72832NA+    NA+45092  15.815  40.519  13.389
72833NA+    NA+45093  13.179  39.834   0.746
72834NA+    NA+45094  13.131  39.960   1.415
72835NA+    NA+45095  17.668  18.582  14.435
72836NA+    NA+45096   0.748  18.736  11.078
72837NA+    NA+45097   2.725  17.283  12.476
72838NA+    NA+45098  32.939  22.622  12.491
72839NA+    NA+45099  18.645   0.312  12.344
72840NA+    NA+45100   8.794   7.319   3.181
72841NA+    NA+45101   7.850  31.113  11.943
72842NA+    NA+45102   2.965  14.600   3.757
72843NA+    NA+45103  44.471   0.431  10.984
72844NA+    NA+45104  22.736   6.372  13.357
72845NA+    NA+45105  16.743  44.954  10.442
72846NA+    NA+45106  21.719  30.521  14.410
72847NA+    NA+45107   0.776   1.365   3.682
72848NA+    NA+45108  42.829  37.847   1.317
72849NA+    NA+45109  22.714  23.121  14.015
72850NA+    NA+45110  29.514  21.161  13.811
72851NA+    NA+45111   5.332  17.065  13.520
72852NA+    NA+45112   4.760  37.852   4.657
72853NA+    NA+45113  17.721  24.591   3.188
72854NA+    NA+45114  30.051   5.927   4.600
72855NA+    NA+45115  14.117  11.778   1.849
72856NA+    NA+45116  40.014  25.990  13.940
72857NA+    NA+45117  22.705   6.374   3.830
72858NA+    NA+45118  27.129   3.878   2.341
72859NA+    NA+45119  40.302  38.369  11.506
72860NA+    NA+45120  28.572  35.517   3.360
72861NA+    NA+45121  43.986  16.717  10.993
72862NA+    NA+45122  21.112  34.878  14.765
72863NA+    NA+45123  23.631   4.742   1.363
72864NA+    NA+45124  30.147   7.766  11.975
72865NA+    NA+45125  10.636  28.624  12.395
72866NA+    NA+45126  15.084  40.357  12.460
72867NA+    NA+45127  38.406  44.307   3.364
72868NA+    NA+45128   1.920   4.380   3.768
72869NA+    NA+45129  33.602   2.409  12.390
72870NA+    NA+45130   2.915  29.985   3.284
72871NA+    NA+45131   9.845  27.524   1.890
72872NA+    NA+45132  35.586   0.291  13.998
72873NA+    NA+45133  43.509  13.741   2.866
72874NA+    NA+45134   0.968  44.827   3.707
72875NA+    NA+45135  27.085  26.188   4.243
72876NA+    NA+45136   0.759  21.110   0.285
72877NA+    NA+45137   3.429  39.558   1.264
72878NA+    NA+45138  12.181   9.721   3.636
72879NA+    NA+45139  21.657  44.854   3.797
72880NA+    NA+45140  23.224  20.765  10.495
72881NA+    NA+45141   9.179   3.730  13.468
72882NA+    NA+45142  23.998  31.612   1.831
72883NA+    NA+45143  41.457  30.016  11.053
72884NA+    NA+45144  15.743  17.669   2.886
72885NA+    NA+45145  12.302  17.091   1.704
72886NA+    NA+45146  38.498   8.402   0.830
72887NA+    NA+45147  36.893   3.911  14.512
72888NA+    NA+45148  38.358  14.338   1.824
72889NA+    NA+45149  40.886  28.598   3.165
72890NA+    NA+45150   8.258  35.918   2.212
72891NA+    NA+45151  27.106  15.259   4.754
72892NA+    NA+45152  39.014   6.817  13.980
72893NA+    NA+45153  31.036  19.183   0.281
72894NA+    NA+45154  37.965  34.511   0.881
72895NA+    NA+45155  22.034  32.600  11.575
72896NA+    NA+45156   0.794   1.473  10.445
72897NA+    NA+45157   5.855  42.961   4.726
72898NA+    NA+45158  18.550  23.185   4.664
72899NA+    NA+45159   5.821  41.839  11.014
72900NA+    NA+45160  23.190  38.902   1.371
72901NA+    NA+45161  20.767  19.087   3.324
72902NA+    NA+45162   7.224  13.172  12.032
72903NA+    NA+45163  29.964  26.649  12.930
72904NA+    NA+45164  27.969  44.376   1.327
72905NA+    NA+45165  21.688  38.409  11.920
72906NA+    NA+45166  25.667  26.593  12.841
72907NA+    NA+45167  22.129  28.138  10.475
72908NA+    NA+45168  18.140  22.188   2.834
72909NA+    NA+45169  36.035  30.461  13.794
72910NA+    NA+45170  42.295  41.336   0.350
72911NA+    NA+45171   1.255  39.358  12.353
72912NA+    NA+45172   8.660  32.453   0.341
72913NA+    NA+45173  22.616  41.508   9.980
72914NA+    NA+45174  19.176   1.371  13.342
72915NA+    NA+45175  27.449  31.539  10.041
72916NA+    NA+45176  43.406  31.061   3.662
72917NA+    NA+45177  34.073  11.655  14.837
72918NA+    NA+45178  36.363   3.841  11.474
72919NA+    NA+45179  10.839  20.221   0.960
72920NA+    NA+45180  29.508  42.942   4.280
72921NA+    NA+45181  40.370  40.410   4.684
72922NA+    NA+45182   0.403   7.784   4.650
72923NA+    NA+45183  23.206   2.400  10.491
72924NA+    NA+45184  30.504   6.232  12.956
72925NA+    NA+45185   9.163  43.445  14.838
72926NA+    NA+45186   6.262  26.167   3.375
72927NA+    NA+45187  28.979  12.127   3.788
72928NA+    NA+45188  26.696  10.356  11.041
72929NA+    NA+45189  33.555  20.134   0.397
72930NA+    NA+45190  26.694  31.076   4.643
72931NA+    NA+45191   8.657   8.738   2.774
72932NA+    NA+45192  34.099  22.121   3.272
72933NA+    NA+45193  19.663  34.930  12.889
72934NA+    NA+45194  14.190  38.456  14.805
72935NA+    NA+45195  36.938  40.974  10.410
72936NA+    NA+45196  24.691   9.226   3.768
72937NA+    NA+45197   0.454  41.437   4.714
72938NA+    NA+45198  32.606   2.285   1.890
72939NA+    NA+45199   1.415   6.360   4.206
72940NA+    NA+45200  20.257  27.530  14.027
72941NA+    NA+45201  20.541  30.429  11.440
72942NA+    NA+45202  35.907  28.439   0.929
72943NA+    NA+45203  27.607  27.020  12.885
72944NA+    NA+45204   4.311  24.140  14.946
72945NA+    NA+45205  15.293  33.534   2.877
72946NA+    NA+45206  33.619  27.545  10.058
72947NA+    NA+45207   5.233   8.723   2.400
72948NA+    NA+45208  14.305  41.908  13.808
72949NA+    NA+45209  39.027  28.658  14.800
72950NA+    NA+45210   1.768  12.662   3.862
72951NA+    NA+45211  32.598  31.031   0.904
72952NA+    NA+45212  42.828   0.421  13.944
72953NA+    NA+45213  29.035  24.113   4.204
72954NA+    NA+45214  39.002  31.580   2.208
72955NA+    NA+45215  29.935  19.746   3.665
72956NA+    NA+45216  20.682  26.987  10.605
72957NA+    NA+45217  35.942  15.604   1.931
72958NA+    NA+45218  23.496  31.081  10.415
72959NA+    NA+45219  40.428  36.970   2.338
72960NA+    NA+45220  41.343  44.837  10.894
72961NA+    NA+45221  10.693  30.456   4.221
72962NA+    NA+45222  35.897  11.751  14.972
72963NA+    NA+45223  14.633  12.129   4.186
72964NA+    NA+45224  36.586  34.891  13.917
72965NA+    NA+45225  16.231   3.391  10.624
72966NA+    NA+45226  44.467  28.178   0.950
72967NA+    NA+45227   0.802  41.035   0.916
72968NA+    NA+45228  17.186  40.926   4.604
72969NA+    NA+45229  12.347   9.330  10.915
72970NA+    NA+45230  12.243  20.125  10.477
72971NA+    NA+45231   1.946  32.893   3.673
72972NA+    NA+45232  26.061  22.213  14.823
72973NA+    NA+45233  18.212  33.500   4.763
72974NA+    NA+45234  37.336  33.008  14.487
72975NA+    NA+45235  15.114  38.488  13.056
72976NA+    NA+45236   6.392  43.874  13.041
72977NA+    NA+45237  26.458  14.169   0.731
72978NA+    NA+45238  28.667   5.393  13.393
72979NA+    NA+45239  10.699  21.637   0.281
72980NA+    NA+45240   6.417   3.366   2.348
72981NA+    NA+45241   8.405  14.113  10.929
72982NA+    NA+45242  39.043  17.636  11.910
72983NA+    NA+45243  29.487   1.911  11.907
72984NA+    NA+45244  15.184   9.342  12.067
72985NA+    NA+45245  27.510  34.912   2.830
72986NA+    NA+45246   4.348   6.813   2.746
72987NA+    NA+45247  31.636  19.098   0.333
72988NA+    NA+45248  14.758   8.776   2.244
72989NA+    NA+45249  38.076   1.912   5.319
72990NA+    NA+45250  29.525  21.076  10.939
72991NA+    NA+45251  29.099  20.170  12.903
72992NA+    NA+45252  40.365  15.695  11.976
72993NA+    NA+45253   9.707  17.737  10.618
72994NA+    NA+45254  42.859  17.090  14.376
72995NA+    NA+45255  11.839  32.520   3.812
72996NA+    NA+45256  30.063  21.047   2.807
72997NA+    NA+45257  13.141   8.710   0.813
72998NA+    NA+45258  33.933  11.768  10.428
72999NA+    NA+45259  37.367  29.431   3.258
73000NA+    NA+45260  20.203  24.565  10.482
73001NA+    NA+45261  21.153   0.271  12.047
73002NA+    NA+45262  42.358  14.172   1.384
73003NA+    NA+45263   5.372  13.814   2.182
73004NA+    NA+45264  11.240   1.812  11.888
73005NA+    NA+45265  19.086  22.529  11.473
73006NA+    NA+45266  30.165  15.691   1.340
73007NA+    NA+45267  18.208  25.518  14.434
73008NA+    NA+45268   0.268  40.975  13.368
73009NA+    NA+45269  31.460  32.096   1.348
73010NA+    NA+45270  13.110   1.907   2.818
73011NA+    NA+45271  38.569  39.982   4.767
73012NA+    NA+45272  35.381   1.810   1.743
73013NA+    NA+45273  17.740  25.991  11.889
73014NA+    NA+45274  28.149  31.579  11.028
73015NA+    NA+45275  14.176  29.973  14.332
73016NA+    NA+45276   3.413  23.573   3.817
73017NA+    NA+45277  23.127  42.946  13.872
73018NA+    NA+45278  24.015  12.778  14.423
73019NA+    NA+45279   7.332   9.864  10.567
73020NA+    NA+45280   4.430   5.196  13.381
73021NA+    NA+45281  21.138  43.380   3.161
73022NA+    NA+45282  11.703  22.574  10.157
73023NA+    NA+45283  26.000   4.730   1.724
73024NA+    NA+45284  18.102  31.436  13.443
73025NA+    NA+45285  12.246  35.580  13.937
73026NA+    NA+45286   6.824  24.160   1.930
73027NA+    NA+45287  23.014  11.335   2.696
73028NA+    NA+45288  19.559  32.054   5.286
73029NA+    NA+45289  25.992   1.361  14.013
73030NA+    NA+45290  28.024  25.198   1.846
73031NA+    NA+45291   8.353  32.064   0.861
73032NA+    NA+45292  22.673  18.236   0.909
73033NA+    NA+45293   2.914  17.728   4.608
73034NA+    NA+45294  40.803   0.259  11.500
73035NA+    NA+45295  19.201  24.997  12.487
73036NA+    NA+45296  42.840  28.613   4.739
73037NA+    NA+45297  18.555  34.038  13.499
73038NA+    NA+45298  24.559  12.664   3.857
73039NA+    NA+45299   0.316  18.194   4.264
73040NA+    NA+45300   7.353  10.768  14.297
73041NA+    NA+45301  36.069  17.768  13.461
73042NA+    NA+45302  30.954   5.837   4.816
73043NA+    NA+45303  14.749  23.124   3.648
73044NA+    NA+45304  25.031   1.432  13.455
73045NA+    NA+45305  12.725  12.142   3.251
73046NA+    NA+45306  23.634   8.192  11.597
73047NA+    NA+45307  44.285  26.605  13.397
73048NA+    NA+45308   8.893  31.098  12.948
73049NA+    NA+45309  19.180  12.663  10.452
73050NA+    NA+45310  15.147  44.376  12.829
73051NA+    NA+45311  34.081  14.744  14.980
73052NA+    NA+45312  21.116  21.107   2.892
73053NA+    NA+45313   0.336  12.660   3.155
73054NA+    NA+45314  38.033  19.060  11.454
73055NA+    NA+45315  28.556  22.141   1.245
73056NA+    NA+45316  21.217  15.813   2.347
73057NA+    NA+45317   9.705  34.033  10.527
73058NA+    NA+45318   2.301  14.297   3.787
73059NA+    NA+45319  12.625  22.145   4.610
73060NA+    NA+45320  17.173  38.982   1.762
73061NA+    NA+45321  15.671  21.641  12.872
73062NA+    NA+45322  10.831  42.441   0.795
73063NA+    NA+45323  37.467  34.609   0.881
73064NA+    NA+45324  17.256  31.094   2.667
73065NA+    NA+45325  25.092  25.615   1.238
73066NA+    NA+45326   7.665  23.717   2.675
73067NA+    NA+45327  38.869  11.651  14.338
73068NA+    NA+45328  12.775  42.810   1.899
73069NA+    NA+45329  27.031  19.645   0.866
73070NA+    NA+45330  39.449  22.747  14.841
73071NA+    NA+45331  18.700   5.231  13.308
73072NA+    NA+45332  29.012   5.199  10.520
73073NA+    NA+45333  34.031  14.591  10.974
73074NA+    NA+45334  16.636  29.947  11.968
73075NA+    NA+45335   6.851   6.250  12.920
73076NA+    NA+45336   4.927  26.151   2.711
73077NA+    NA+45337   0.969  32.518   2.801
73078NA+    NA+45338  40.942  42.524   2.896
73079NA+    NA+45339  40.440  24.614  10.953
73080NA+    NA+45340  39.948  25.046   3.277
73081NA+    NA+45341  35.493  26.143  10.452
73082NA+    NA+45342  22.185  43.889   2.827
73083NA+    NA+45343  18.160   2.849  13.033
73084NA+    NA+45344  13.235  11.370  14.368
73085NA+    NA+45345  44.294   8.204   2.698
73086NA+    NA+45346   0.824  14.142  14.758
73087NA+    NA+45347   1.381  20.575  12.957
73088NA+    NA+45348  37.921  26.531  12.508
73089NA+    NA+45349   4.288  10.202   4.296
73090NA+    NA+45350  36.476  19.222  12.407
73091NA+    NA+45351  10.223  17.610  10.906
73092NA+    NA+45352  15.723  28.141   1.887
73093NA+    NA+45353  20.274  31.001  12.549
73094NA+    NA+45354  14.597  30.487  12.465
73095NA+    NA+45355   7.699  41.522   0.428
73096NA+    NA+45356   1.975   5.338   1.816
73097NA+    NA+45357  39.869  38.982   2.791
73098NA+    NA+45358   0.265  44.754   3.833
73099NA+    NA+45359  30.562  17.120   3.865
73100NA+    NA+45360  25.631  21.173   1.738
73101NA+    NA+45361  18.142   4.865  12.828
73102NA+    NA+45362  10.775  15.093   2.748
73103NA+    NA+45363  13.754  13.171  11.478
73104NA+    NA+45364  13.689  35.097   2.846
73105NA+    NA+45365  24.201  44.956   2.389
73106NA+    NA+45366   1.793  14.708  13.432
73107NA+    NA+45367  30.077   7.900   1.737
73108NA+    NA+45368  42.922   1.479  12.436
73109NA+    NA+45369   1.314  34.892  11.986
73110NA+    NA+45370  24.997  44.916   3.235
73111NA+    NA+45371  38.463   0.332  12.032
73112NA+    NA+45372  24.986  22.181   4.645
73113NA+    NA+45373  34.023  24.182  14.890
73114NA+    NA+45374  32.449  36.943  12.388
73115NA+    NA+45375  15.306  27.630   3.753
73116NA+    NA+45376  12.799   0.452   0.305
73117NA+    NA+45377  25.047  29.483  12.523
73118NA+    NA+45378  29.146  44.843   0.901
73119NA+    NA+45379  27.993  12.721   1.697
73120NA+    NA+45380  28.096  35.531  13.961
73121NA+    NA+45381   1.307  17.713  12.989
73122NA+    NA+45382  14.661  44.325  12.555
73123NA+    NA+45383   1.883  22.559  13.938
73124NA+    NA+45384   5.797  14.173   3.697
73125NA+    NA+45385  15.106  28.481  13.881
73126NA+    NA+45386  11.257  11.176   0.277
73127NA+    NA+45387   2.779  32.430   1.419
73128NA+    NA+45388  27.588  36.506   4.223
73129NA+    NA+45389  18.295  15.237   4.155
73130NA+    NA+45390  34.934  25.703   3.187
73131NA+    NA+45391  18.158  24.063   2.191
73132NA+    NA+45392  22.177  31.591   2.763
73133NA+    NA+45393  34.576  11.693   0.292
73134NA+    NA+45394   1.795  35.443   1.360
73135NA+    NA+45395  13.742   0.306   2.667
73136NA+    NA+45396  24.644  17.081  13.799
73137NA+    NA+45397  16.688  34.370  13.966
73138NA+    NA+45398   1.793  40.847   0.761
73139NA+    NA+45399  41.509  20.051  12.485
73140NA+    NA+45400  18.648   4.299   1.349
73141NA+    NA+45401  42.909  17.285   3.248
73142NA+    NA+45402  30.557  25.033   1.822
73143NA+    NA+45403  17.735  38.455  10.573
73144NA+    NA+45404   0.424   9.261   3.249
73145NA+    NA+45405  44.497  23.233  12.477
73146NA+    NA+45406  39.919  31.552  14.509
73147NA+    NA+45407  42.521  43.511  14.872
73148NA+    NA+45408  22.640  24.694   1.435
73149NA+    NA+45409  19.061   5.712   4.779
73150NA+    NA+45410  31.580   7.786  13.852
73151NA+    NA+45411  34.401  32.550   2.199
73152NA+    NA+45412  40.531  13.784  12.015
73153NA+    NA+45413  21.210  32.441  13.504
73154NA+    NA+45414   1.891  37.565   2.286
73155NA+    NA+45415  10.147   2.459  10.506
73156NA+    NA+45416  14.685  19.535   2.843
73157NA+    NA+45417  19.058  20.678  13.045
73158NA+    NA+45418  12.157  30.975   5.299
73159NA+    NA+45419  15.171  24.055   0.828
73160NA+    NA+45420  40.995  21.746   3.635
73161NA+    NA+45421  41.956   6.195   4.715
73162NA+    NA+45422  32.634  41.882   1.379
73163NA+    NA+45423  15.661   5.207  10.418
73164NA+    NA+45424  23.552   2.330  14.385
73165NA+    NA+45425  39.033  43.972  12.506
73166NA+    NA+45426  37.510  29.497  14.308
73167NA+    NA+45427  37.445   9.678  10.098
73168NA+    NA+45428  32.134  34.942  14.988
73169NA+    NA+45429   8.276  21.098   0.852
73170NA+    NA+45430  22.697  42.487  12.086
73171NA+    NA+45431  34.572  43.839  11.114
73172NA+    NA+45432   2.721  29.504   2.891
73173NA+    NA+45433  43.907  15.583  12.997
73174NA+    NA+45434  39.004  36.470  12.536
73175NA+    NA+45435  28.434  26.459  13.459
73176NA+    NA+45436  15.659  28.047   0.761
73177NA+    NA+45437  22.091  32.459  10.938
73178NA+    NA+45438   3.367  27.574  11.980
73179NA+    NA+45439  39.336  15.796  10.159
73180NA+    NA+45440  22.134  14.684  11.049
73181NA+    NA+45441  42.030  43.276  11.954
73182NA+    NA+45442   6.908   2.950   1.800
73183NA+    NA+45443  14.599  11.238  12.569
73184NA+    NA+45444  31.080   3.855   4.795
73185NA+    NA+45445  26.184  29.047   1.229
73186NA+    NA+45446  41.924  27.514   1.405
73187NA+    NA+45447  38.852  43.779   3.237
73188NA+    NA+45448  11.657  38.358   0.405
73189NA+    NA+45449  25.066  41.986  10.096
73190NA+    NA+45450  24.164  10.788  10.615
73191NA+    NA+45451  39.323  10.378   2.864
73192NA+    NA+45452  42.813  17.695   4.609
73193NA+    NA+45453  29.483  17.120   4.695
73194NA+    NA+45454  25.641  18.293  11.991
73195NA+    NA+45455  19.249  28.440   4.715
73196NA+    NA+45456   2.917  12.755   4.790
73197NA+    NA+45457   4.942   1.392   1.857
73198NA+    NA+45458  29.613  38.493   1.281
73199NA+    NA+45459  43.499  19.221  10.488
73200NA+    NA+45460   2.267  12.716   3.663
73201NA+    NA+45461  15.739  32.484  14.838
73202NA+    NA+45462  43.889  37.344   4.147
73203NA+    NA+45463  42.953   9.747   1.921
73204NA+    NA+45464   6.773  31.910   2.853
73205NA+    NA+45465  39.488  32.059   1.259
73206NA+    NA+45466   2.441  18.246   1.717
73207NA+    NA+45467  19.098  37.478  13.028
73208NA+    NA+45468  17.578  34.869  14.329
73209NA+    NA+45469  21.078  14.634  12.358
73210NA+    NA+45470   1.282  23.139   1.781
73211NA+    NA+45471  10.859   7.716   1.823
73212NA+    NA+45472  39.963  27.942   3.310
73213NA+    NA+45473  21.041  36.434   0.337
73214NA+    NA+45474  29.160  22.574  14.364
73215NA+    NA+45475   7.404  17.181   1.800
73216NA+    NA+45476   6.912  16.172   2.716
73217NA+    NA+45477  21.612  21.739   0.899
73218NA+    NA+45478  12.754   5.436  11.995
73219NA+    NA+45479   7.719  15.219   0.790
73220NA+    NA+45480  14.243  37.488   2.333
73221NA+    NA+45481  28.499   5.855  10.425
73222NA+    NA+45482   7.234  15.732  14.937
73223NA+    NA+45483  29.092  11.845   0.726
73224NA+    NA+45484   1.941  11.721  14.313
73225NA+    NA+45485  14.138  22.153  12.902
73226NA+    NA+45486  26.696   0.425  10.522
73227NA+    NA+45487  35.903  38.925   3.384
73228NA+    NA+45488   0.373  41.942   2.401
73229NA+    NA+45489  27.124   7.879   3.378
73230NA+    NA+45490  44.497  20.164   0.731
73231NA+    NA+45491   1.299  19.092  11.032
73232NA+    NA+45492  44.261   5.807   4.235
73233NA+    NA+45493  43.775  24.501  10.490
73234NA+    NA+45494  44.949  10.721  11.388
73235NA+    NA+45495  12.800  18.095  12.002
73236NA+    NA+45496  10.324  39.381  11.419
73237NA+    NA+45497  36.544  43.341   3.752
73238NA+    NA+45498  24.652  13.628   3.851
73239NA+    NA+45499  38.970   6.309  14.826
73240NA+    NA+45500   9.774   7.258  10.961
73241NA+    NA+45501  16.108  13.271   2.856
73242NA+    NA+45502  19.110  29.091  14.024
73243NA+    NA+45503  14.672   4.866   0.356
73244NA+    NA+45504  22.589   2.290   1.931
73245NA+    NA+45505  38.481  32.953  10.557
73246NA+    NA+45506   5.380  14.272  10.914
73247NA+    NA+45507  20.220  35.478   4.182
73248NA+    NA+45508  44.475   8.168  10.490
73249NA+    NA+45509   0.894   6.254  13.845
73250NA+    NA+45510  43.955  32.012  12.532
73251NA+    NA+45511  33.908  16.072   4.617
73252NA+    NA+45512  36.433  20.039  14.432
73253NA+    NA+45513  20.219  22.093  10.415
73254NA+    NA+45514  25.208   2.319  10.425
73255NA+    NA+45515  32.570  27.164   0.427
73256NA+    NA+45516  40.942  29.582  14.851
73257NA+    NA+45517  39.386  42.838  11.389
73258NA+    NA+45518  25.963  13.658   4.301
73259NA+    NA+45519  21.179   3.714  12.894
73260NA+    NA+45520   4.773  23.723  14.513
73261NA+    NA+45521   2.352  11.699  14.861
73262NA+    NA+45522  36.028  38.486  13.515
73263NA+    NA+45523   4.862  35.959  10.160
73264NA+    NA+45524  19.654  37.003  11.884
73265NA+    NA+45525   1.821   6.681   3.259
73266NA+    NA+45526  13.749  15.174   9.644
73267NA+    NA+45527  25.179  36.466   0.743
73268NA+    NA+45528  21.176   4.724   3.190
73269NA+    NA+45529  13.194  11.135  11.410
73270NA+    NA+45530  40.028   0.388   4.331
73271NA+    NA+45531  41.483  27.665  10.472
73272NA+    NA+45532  41.839   7.879  13.513
73273NA+    NA+45533  30.117  33.608   2.732
73274NA+    NA+45534  11.289  31.595   1.735
73275NA+    NA+45535  27.986  36.377  11.870
73276NA+    NA+45536  16.742  15.105  14.003
73277NA+    NA+45537   4.840  19.247  14.464
73278NA+    NA+45538  32.059   3.710   1.863
73279NA+    NA+45539  19.616  14.753   1.379
73280NA+    NA+45540  19.694  21.197  11.009
73281NA+    NA+45541  15.699  16.706  14.916
73282NA+    NA+45542  31.044   3.380   0.864
73283NA+    NA+45543  41.466   3.823  12.016
73284NA+    NA+45544  38.871  18.711  10.521
73285NA+    NA+45545  12.354  24.572   4.656
73286NA+    NA+45546   3.343  23.562  11.002
73287NA+    NA+45547  44.412  44.292   4.633
73288NA+    NA+45548  20.099   5.324   4.767
73289NA+    NA+45549   1.363  26.525   4.266
73290NA+    NA+45550   0.746  15.624   2.234
73291NA+    NA+45551   4.703  32.623  13.806
73292NA+    NA+45552  21.242  35.494  13.458
73293NA+    NA+45553  19.649  19.220   1.842
73294NA+    NA+45554  29.147   4.286   0.733
73295NA+    NA+45555  10.840   2.420   3.194
73296NA+    NA+45556  29.635  14.710  11.876
73297NA+    NA+45557   0.986  14.675  13.947
73298NA+    NA+45558  28.116  34.472  11.001
73299NA+    NA+45559  38.557  28.533  11.910
73300NA+    NA+45560  23.541  10.176   1.843
73301NA+    NA+45561  11.184  12.645  13.965
73302NA+    NA+45562  20.610  35.580   3.761
73303NA+    NA+45563   2.905  10.248  13.366
73304NA+    NA+45564   4.284  40.851  14.876
73305NA+    NA+45565  44.928   3.714   3.385
73306NA+    NA+45566  44.335  18.768   3.779
73307NA+    NA+45567  16.632  26.502   0.874
73308NA+    NA+45568  38.886  40.452   5.245
73309NA+    NA+45569  34.028  34.990  11.953
73310NA+    NA+45570   0.983   6.792  12.014
73311NA+    NA+45571  10.672  17.737   0.799
73312NA+    NA+45572  24.501  18.585   2.267
73313NA+    NA+45573  15.161  13.122   2.667
73314NA+    NA+45574  40.857  12.344  14.321
73315NA+    NA+45575  30.923   7.171   2.286
73316NA+    NA+45576   5.692  31.041   4.735
73317NA+    NA+45577  14.264  13.290  13.912
73318NA+    NA+45578   4.852  43.896  13.009
73319NA+    NA+45579  39.463  16.754  12.502
73320NA+    NA+45580  43.871  26.679  13.024
73321NA+    NA+45581   3.907  20.242  11.077
73322NA+    NA+45582  10.193  35.538   2.256
73323NA+    NA+45583  37.385  24.130   0.408
73324NA+    NA+45584   8.859  39.854   3.852
73325NA+    NA+45585  37.442  30.643   2.735
73326NA+    NA+45586  31.976  30.463   3.743
73327NA+    NA+45587  23.111  26.100   9.559
73328NA+    NA+45588  32.637  43.913  10.612
73329NA+    NA+45589  30.095  31.118   0.750
73330NA+    NA+45590   2.801  42.801  12.989
73331NA+    NA+45591  38.034  12.631   1.355
73332NA+    NA+45592  15.604  10.239  11.428
73333NA+    NA+45593  25.606  18.106   1.217
73334NA+    NA+45594  19.581   3.282   0.291
73335NA+    NA+45595  27.958  20.605   4.211
73336NA+    NA+45596   2.314   6.889  13.888
73337NA+    NA+45597  32.911  29.105   3.324
73338NA+    NA+45598  27.602   8.722  11.047
73339NA+    NA+45599  41.420  20.053  14.992
73340NA+    NA+45600  25.708  37.449   0.945
73341NA+    NA+45601   0.813  23.662  13.311
73342NA+    NA+45602   9.157  13.641  14.779
73343NA+    NA+45603  43.019  37.893  10.893
73344NA+    NA+45604   3.902  44.491  12.421
73345NA+    NA+45605  44.944  10.676  11.123
73346NA+    NA+45606  33.130  13.316  10.549
73347NA+    NA+45607   4.359  13.174  12.479
73348NA+    NA+45608  41.415  15.222  13.968
73349NA+    NA+45609  32.444  25.677   3.374
73350NA+    NA+45610  28.953  26.062   2.801
73351NA+    NA+45611   6.402  14.810  14.286
73352NA+    NA+45612  19.550  33.613   4.753
73353NA+    NA+45613   7.359  28.982   2.847
73354NA+    NA+45614  21.577  32.604  14.964
73355NA+    NA+45615  37.446  26.184  12.390
73356NA+    NA+45616  41.838  22.596  13.975
73357NA+    NA+45617  10.646  43.905   0.914
73358NA+    NA+45618  44.777  44.281  14.827
73359NA+    NA+45619  28.664  31.613   3.221
73360NA+    NA+45620   5.812   1.827   4.206
73361NA+    NA+45621   9.155  43.270   1.909
73362NA+    NA+45622  24.552   5.702   2.321
73363NA+    NA+45623  35.477  11.243  11.023
73364NA+    NA+45624   7.761  21.187  12.454
73365NA+    NA+45625  27.667  13.312   1.266
73366NA+    NA+45626  37.428  11.270   3.285
73367NA+    NA+45627  14.255  35.541  13.472
73368NA+    NA+45628   3.842  27.535  12.526
73369NA+    NA+45629  34.584   4.897  11.976
73370NA+    NA+45630  32.969  16.199   0.817
73371NA+    NA+45631  43.356  18.730   4.734
73372NA+    NA+45632   8.848  42.285   0.798
73373NA+    NA+45633  24.593   3.397  12.536
73374NA+    NA+45634  17.609  31.001  13.845
73375NA+    NA+45635  37.424  28.168  14.301
73376NA+    NA+45636  12.297   1.782   0.298
73377NA+    NA+45637  13.349  33.609  12.941
73378NA+    NA+45638  23.138  41.858  11.936
73379NA+    NA+45639   6.231   6.267  13.851
73380NA+    NA+45640  36.039  35.853  14.997
73381NA+    NA+45641  28.009  23.107   4.323
73382NA+    NA+45642  11.824  18.067  10.148
73383NA+    NA+45643  17.280  25.501  14.856
73384NA+    NA+45644  38.846  42.975   0.948
73385NA+    NA+45645   2.766  40.838   3.821
73386NA+    NA+45646  43.334   2.728   1.879
73387NA+    NA+45647  20.701  21.518   2.780
73388NA+    NA+45648   2.835  15.260   2.710
73389NA+    NA+45649  42.838  24.703  12.432
73390NA+    NA+45650   5.687  22.044  13.795
73391NA+    NA+45651   9.281   1.911  12.533
73392NA+    NA+45652   8.819  22.229   4.257
73393NA+    NA+45653   2.462  27.456  12.087
73394NA+    NA+45654   9.169  11.215  10.927
73395NA+    NA+45655  22.580  19.632   4.184
73396NA+    NA+45656  30.928  10.209   5.189
73397NA+    NA+45657  38.872  30.416  13.985
73398NA+    NA+45658  34.564   7.879   1.375
73399NA+    NA+45659   8.172  43.400  11.892
73400NA+    NA+45660  33.995  37.884   4.838
73401NA+    NA+45661  38.568  40.835  13.993
73402NA+    NA+45662  13.783   9.881   3.191
73403NA+    NA+45663   2.907  41.338   4.622
73404NA+    NA+45664  21.684  13.119  10.562
73405NA+    NA+45665  37.059  34.099  14.461
73406NA+    NA+45666   2.400  42.777   1.799
73407NA+    NA+45667  12.293   0.316   2.899
73408NA+    NA+45668  34.084   7.294   1.906
73409NA+    NA+45669  17.782  36.486  11.880
73410NA+    NA+45670   8.680  13.206  14.954
73411NA+    NA+45671   4.917  14.202  11.527
73412NA+    NA+45672  27.476  43.011   0.925
73413NA+    NA+45673  12.677  17.306  14.437
73414NA+    NA+45674  39.457   2.760   2.180
73415NA+    NA+45675  14.731  38.504  14.021
73416NA+    NA+45676  41.486  18.231  12.464
73417NA+    NA+45677  11.621  29.153  14.008
73418NA+    NA+45678  31.632  39.504   4.597
73419NA+    NA+45679   3.353  43.016  14.957
73420NA+    NA+45680  43.516  30.100  13.543
73421NA+    NA+45681  34.041  25.532   4.779
73422NA+    NA+45682  22.193  27.052   0.933
73423NA+    NA+45683  36.035   2.763   1.282
73424NA+    NA+45684  35.449  18.608   4.824
73425NA+    NA+45685  34.612  26.514  10.626
73426NA+    NA+45686  15.680  40.033  13.384
73427NA+    NA+45687  28.480  20.661   1.354
73428NA+    NA+45688  39.343  30.478   4.148
73429NA+    NA+45689  24.098   5.296   1.305
73430NA+    NA+45690   7.295  24.044  12.841
73431NA+    NA+45691   0.409  22.558   2.883
73432NA+    NA+45692  18.087  14.169   0.884
73433NA+    NA+45693  33.015   8.396   1.278
73434NA+    NA+45694  35.944  42.365   0.833
73435NA+    NA+45695   3.344  42.504   1.319
73436NA+    NA+45696  44.885  12.766  11.561
73437NA+    NA+45697  19.632   7.290   4.147
73438NA+    NA+45698  23.611  28.521  14.474
73439NA+    NA+45699  31.547  20.207  10.483
73440NA+    NA+45700  41.842   8.856  10.154
73441NA+    NA+45701  41.416  39.410  14.009
73442NA+    NA+45702   5.832   6.253  10.913
73443NA+    NA+45703  19.198  14.265  14.820
73444NA+    NA+45704  37.961  17.111  13.985
73445NA+    NA+45705  44.953  14.107   3.722
73446NA+    NA+45706  44.970  19.115  11.578
73447NA+    NA+45707  19.589  29.024   3.305
73448NA+    NA+45708  41.909  32.609  12.516
73449NA+    NA+45709  12.226   4.404   2.417
73450NA+    NA+45710   1.432  13.317  10.509
73451NA+    NA+45711  27.005  35.377   4.131
73452NA+    NA+45712  38.554  31.118   0.747
73453NA+    NA+45713  39.058  41.834  14.949
73454NA+    NA+45714  18.694   7.901   3.692
73455NA+    NA+45715  20.057  21.606  12.060
73456NA+    NA+45716  40.978  20.137   0.249
73457NA+    NA+45717  18.578   0.321  13.837
73458NA+    NA+45718  11.172   2.731   4.289
73459NA+    NA+45719  21.144  10.286  11.007
73460NA+    NA+45720  36.531  12.289   4.828
73461NA+    NA+45721  33.882  42.502  12.015
73462NA+    NA+45722  12.760  21.593  14.009
73463NA+    NA+45723  22.584  24.137  12.882
73464NA+    NA+45724  43.487  16.260   1.358
73465NA+    NA+45725  10.726   0.342   0.792
73466NA+    NA+45726  16.608  35.398   4.199
73467NA+    NA+45727   2.441  44.464   2.218
73468NA+    NA+45728   8.849  10.871   1.370
73469NA+    NA+45729  26.658  24.156   0.749
73470NA+    NA+45730  10.659  13.251   4.666
73471NA+    NA+45731  26.961  42.427  13.874
73472NA+    NA+45732  39.905   8.290  13.873
73473NA+    NA+45733   9.220  44.890   0.423
73474NA+    NA+45734  43.342  23.679  12.003
73475NA+    NA+45735  39.339   1.970   0.317
73476NA+    NA+45736  12.727  22.592   4.341
73477NA+    NA+45737  29.461  23.527   0.894
73478NA+    NA+45738  41.363  44.299  14.348
73479NA+    NA+45739  44.854   9.366   0.799
73480NA+    NA+45740  27.073   8.823  13.325
73481NA+    NA+45741  44.438  44.753  11.092
73482NA+    NA+45742   2.368  18.289  13.806
73483NA+    NA+45743  27.030  28.660   0.748
73484NA+    NA+45744  44.461   9.314  14.454
73485NA+    NA+45745  41.477  14.165  13.886
73486NA+    NA+45746  29.586   0.348  12.491
73487NA+    NA+45747   0.890   7.760  11.932
73488NA+    NA+45748  17.732  32.088   0.816
73489NA+    NA+45749  31.941   8.373  14.321
73490NA+    NA+45750  17.093  26.515  12.968
73491NA+    NA+45751  25.575  31.075  13.010
73492NA+    NA+45752  36.055   5.906   3.665
73493NA+    NA+45753  23.023   8.679  11.857
73494NA+    NA+45754  29.126  32.579   5.568
73495NA+    NA+45755  36.060  15.286   1.395
73496NA+    NA+45756   0.847  27.609  12.461
73497NA+    NA+45757   7.865  40.525   3.766
73498NA+    NA+45758  28.534   8.306   2.661
73499NA+    NA+45759  16.084  29.084  11.077
73500NA+    NA+45760  41.509  38.060   0.842
73501NA+    NA+45761  31.947  26.497   4.745
73502NA+    NA+45762  39.377  27.526   0.880
73503NA+    NA+45763  26.199  38.536   9.542
73504NA+    NA+45764  21.624  41.515   1.311
73505NA+    NA+45765  34.974  23.576  13.424
73506NA+    NA+45766  25.629  38.849   1.812
73507NA+    NA+45767  23.181  44.488   3.654
73508NA+    NA+45768  28.528  16.786  11.885
73509NA+    NA+45769   4.805  32.589  10.497
73510NA+    NA+45770  24.103   4.900  13.338
73511NA+    NA+45771  21.695  24.673   2.339
73512NA+    NA+45772  20.175   0.307  13.357
73513NA+    NA+45773  21.596  38.841   0.839
73514NA+    NA+45774  12.284  23.616  14.956
73515NA+    NA+45775   2.862  16.591   2.725
73516NA+    NA+45776  31.562   3.366   4.776
73517NA+    NA+45777  40.937   4.289  10.627
73518NA+    NA+45778   6.912   2.784  14.909
73519NA+    NA+45779  28.117  37.885   0.906
73520NA+    NA+45780  17.594   8.308   5.321
73521NA+    NA+45781  17.608  42.907   3.736
73522NA+    NA+45782  14.142  27.657  11.547
73523NA+    NA+45783  39.951  21.583  12.504
73524NA+    NA+45784   5.217   0.784  12.432
73525NA+    NA+45785  23.016   2.822   3.273
73526NA+    NA+45786  26.700  33.985   2.254
73527NA+    NA+45787   4.880  34.379  11.432
73528NA+    NA+45788  15.753  35.951  10.053
73529NA+    NA+45789  22.202  19.161  10.414
73530NA+    NA+45790  42.368  37.003   0.868
73531NA+    NA+45791  17.684   2.738  12.889
73532NA+    NA+45792   3.739  35.861   3.801
73533NA+    NA+45793  14.725  14.270  14.912
73534NA+    NA+45794  43.787  27.494  13.986
73535NA+    NA+45795  10.300  41.838   3.334
73536NA+    NA+45796  35.000  26.196   4.221
73537NA+    NA+45797  20.676  29.005   2.753
73538NA+    NA+45798   6.352  31.445  11.584
73539NA+    NA+45799  40.001  44.957  12.876
73540NA+    NA+45800  30.035   0.362  10.598
73541NA+    NA+45801  36.436  38.967   4.793
73542NA+    NA+45802   2.810  22.231  14.772
73543NA+    NA+45803  22.162  29.662   2.886
73544NA+    NA+45804  38.966  38.822   0.870
73545NA+    NA+45805  17.666   9.301  13.518
73546NA+    NA+45806   5.734  14.793  13.358
73547NA+    NA+45807  14.692   9.208  11.421
73548NA+    NA+45808   3.761   5.868  11.445
73549NA+    NA+45809  44.368   6.291   0.772
73550NA+    NA+45810  23.119  30.610  12.519
73551NA+    NA+45811  13.134  22.530  11.432
73552NA+    NA+45812  16.594  29.584   3.769
73553NA+    NA+45813   4.218   0.379   2.360
73554NA+    NA+45814  36.845  41.944   3.254
73555NA+    NA+45815   8.228  26.671  11.573
73556NA+    NA+45816  40.884  20.653   0.727
73557NA+    NA+45817  43.805  31.988  13.948
73558NA+    NA+45818   4.782  38.348   3.735
73559NA+    NA+45819  25.997  34.964  14.863
73560NA+    NA+45820  21.540  28.533  14.828
73561NA+    NA+45821  37.469  35.026  14.822
73562NA+    NA+45822  44.360  21.686   1.803
73563NA+    NA+45823  36.424  21.156   5.322
73564NA+    NA+45824  14.652   9.310   2.361
73565NA+    NA+45825  34.013   3.825  11.444
73566NA+    NA+45826  28.577  12.126   2.362
73567NA+    NA+45827   7.818  37.018  14.334
73568NA+    NA+45828   5.890   0.851   2.698
73569NA+    NA+45829  24.538  29.918  10.638
73570NA+    NA+45830  39.503   5.351   0.442
73571NA+    NA+45831  15.155  11.772   3.844
73572NA+    NA+45832  34.086  23.994  13.001
73573NA+    NA+45833  23.037  34.034   1.851
73574NA+    NA+45834  28.443  38.489  10.920
73575NA+    NA+45835   2.237   5.296   0.842
73576NA+    NA+45836  11.719  10.146  11.941
73577NA+    NA+45837  41.906  30.431  11.542
73578NA+    NA+45838  16.649  14.756  14.936
73579NA+    NA+45839  10.670  41.292  13.038
73580NA+    NA+45840  42.906  11.749  13.929
73581NA+    NA+45841  23.583  23.051  13.870
73582NA+    NA+45842  40.038  33.010  10.573
73583NA+    NA+45843  21.027  33.503   2.821
73584NA+    NA+45844   8.899  36.405   0.472
73585NA+    NA+45845   7.308   1.833  10.423
73586NA+    NA+45846  10.149  14.702   2.300
73587NA+    NA+45847  26.078   9.303  12.541
73588NA+    NA+45848  35.861  12.822   0.296
73589NA+    NA+45849  34.110  35.862   4.620
73590NA+    NA+45850   4.241  11.219   0.461
73591NA+    NA+45851  39.977  16.752  13.038
73592NA+    NA+45852  31.644  22.149   1.827
73593NA+    NA+45853  15.668  20.076   0.341
73594NA+    NA+45854   5.251  41.294   4.182
73595NA+    NA+45855  35.476  13.220   4.638
73596NA+    NA+45856   9.727  27.536  11.397
73597NA+    NA+45857  26.527  13.826   3.326
73598NA+    NA+45858   8.312  35.930  10.516
73599NA+    NA+45859   7.292  25.150  11.457
73600NA+    NA+45860   7.892  24.522   0.395
73601NA+    NA+45861  20.044  25.502   1.719
73602NA+    NA+45862  32.433  23.138  12.942
73603NA+    NA+45863  11.320  42.368   4.339
73604NA+    NA+45864  26.173   1.395  13.527
73605NA+    NA+45865  12.344  13.204  14.315
73606NA+    NA+45866  24.490  27.598   5.254
73607NA+    NA+45867  28.513  24.080  13.987
73608NA+    NA+45868   2.443  43.423  11.038
73609NA+    NA+45869   6.722  22.232   1.373
73610NA+    NA+45870   1.866  32.622  14.883
73611NA+    NA+45871  18.767  17.731  12.383
73612NA+    NA+45872   0.857  22.198  12.481
73613NA+    NA+45873  23.556  25.528  12.960
73614NA+    NA+45874   2.891   5.717  10.468
73615NA+    NA+45875  30.620  43.470  10.931
73616NA+    NA+45876  15.663  16.295   1.330
73617NA+    NA+45877  30.929  20.099  11.990
73618NA+    NA+45878   4.238   9.306   3.844
73619NA+    NA+45879  39.450  44.757   0.853
73620NA+    NA+45880  17.706  42.372   3.211
73621NA+    NA+45881   6.358  21.602  14.767
73622NA+    NA+45882   3.424  27.077   4.236
73623NA+    NA+45883   3.712  10.693  11.530
73624NA+    NA+45884  43.415   8.191   1.862
73625NA+    NA+45885  42.839   7.221  14.424
73626NA+    NA+45886   7.375   1.965  12.876
73627NA+    NA+45887  33.975  14.669  11.507
73628NA+    NA+45888  31.147  42.492  10.986
73629NA+    NA+45889  18.283   6.335   1.776
73630NA+    NA+45890  25.163  31.127   2.694
73631NA+    NA+45891   9.183  15.709  13.543
73632NA+    NA+45892  42.974  14.601  12.055
73633NA+    NA+45893  15.221  32.491   4.769
73634NA+    NA+45894   2.264  29.471  14.809
73635NA+    NA+45895   3.931  43.446   2.837
73636NA+    NA+45896   7.708   6.311  10.148
73637NA+    NA+45897  15.820   7.831   2.803
73638NA+    NA+45898  24.224  29.970  10.456
73639NA+    NA+45899   6.185  39.960   3.274
73640NA+    NA+45900   0.793  32.070  14.986
73641NA+    NA+45901  31.624  29.588  14.855
73642NA+    NA+45902  18.601   5.229   0.470
73643NA+    NA+45903   3.345  38.825   4.224
73644NA+    NA+45904  20.568  41.822  12.845
73645NA+    NA+45905  22.219  21.193  12.498
73646NA+    NA+45906   5.199  29.533   4.147
73647NA+    NA+45907  20.251   4.757   0.762
73648NA+    NA+45908  27.464  26.521  13.806
73649NA+    NA+45909  21.179   2.887   4.131
73650NA+    NA+45910  42.984   4.317  11.379
73651NA+    NA+45911  37.056  12.212   2.722
73652NA+    NA+45912  38.924  18.772   1.411
73653NA+    NA+45913  31.136  33.416  10.046
73654NA+    NA+45914  33.439  39.037  11.862
73655NA+    NA+45915   4.755  13.164  11.894
73656NA+    NA+45916  28.643  33.445  12.044
73657NA+    NA+45917  23.693  30.443  13.537
73658NA+    NA+45918   2.882  40.891  12.378
73659NA+    NA+45919   2.765   1.936  10.528
73660NA+    NA+45920  43.956   8.364   4.280
73661NA+    NA+45921  35.942  24.571   0.876
73662NA+    NA+45922  16.146  12.335   4.313
73663NA+    NA+45923   5.327  17.201   0.762
73664NA+    NA+45924  40.866   2.298   0.405
73665NA+    NA+45925  13.329   3.751  10.493
73666NA+    NA+45926  11.664  34.524  11.034
73667NA+    NA+45927   2.876  37.929  11.085
73668NA+    NA+45928  16.769   9.767  12.079
73669NA+    NA+45929  21.668   9.644   1.401
73670NA+    NA+45930  12.146  30.065   9.473
73671NA+    NA+45931   7.309  19.671   2.676
73672NA+    NA+45932   7.381  18.096   0.351
73673NA+    NA+45933  28.037  10.233   3.812
73674NA+    NA+45934  27.990  34.909   3.255
73675NA+    NA+45935  37.552  11.330  14.830
73676NA+    NA+45936  42.487  36.549  13.417
73677NA+    NA+45937  26.171  37.936  12.881
73678NA+    NA+45938  29.629   1.241   0.360
73679NA+    NA+45939  16.747  30.029  12.904
73680NA+    NA+45940  19.750  22.537   1.373
73681NA+    NA+45941  42.899  24.685  11.017
73682NA+    NA+45942  26.685  11.624   3.205
73683NA+    NA+45943  41.403  12.656  13.311
73684NA+    NA+45944   2.832  14.662  11.013
73685NA+    NA+45945   4.238   0.467  13.018
73686NA+    NA+45946  29.101  17.205  11.575
73687NA+    NA+45947  26.985   6.903   0.461
73688NA+    NA+45948  36.443  13.295   2.329
73689NA+    NA+45949   1.910  31.050   5.133
73690NA+    NA+45950  39.420  40.383  11.586
73691NA+    NA+45951  22.250  14.612   1.300
73692NA+    NA+45952  14.108   9.238   1.222
73693NA+    NA+45953   0.408  30.989   0.303
73694NA+    NA+45954  12.317  32.515   0.869
73695NA+    NA+45955  20.546  22.062   0.482
73696NA+    NA+45956  40.305   3.433  12.858
73697NA+    NA+45957  16.639   6.365  13.915
73698NA+    NA+45958  42.941   5.308   0.254
73699NA+    NA+45959  32.034   6.238  11.035
73700NA+    NA+45960  31.504  12.643  13.450
73701NA+    NA+45961   1.467   3.761  14.929
73702NA+    NA+45962   1.976   3.947  12.455
73703NA+    NA+45963   6.817  39.539  12.090
73704NA+    NA+45964  38.840   7.229   3.717
73705NA+    NA+45965   2.817  11.342  14.980
73706NA+    NA+45966  30.118  44.405  12.055
73707NA+    NA+45967  25.479  41.525  13.454
73708NA+    NA+45968  43.462  22.040   3.830
73709NA+    NA+45969  28.468  35.523  14.363
73710NA+    NA+45970  41.438  14.782   2.364
73711NA+    NA+45971  38.067  39.996   3.694
73712NA+    NA+45972   8.346  19.539   2.777
73713NA+    NA+45973   0.318  23.151   1.408
73714NA+    NA+45974  23.078   6.302  11.588
73715NA+    NA+45975  15.233  29.053  14.898
73716NA+    NA+45976  36.068  26.461   3.843
73717NA+    NA+45977  13.799   2.251   0.893
73718NA+    NA+45978  20.616  40.341  14.915
73719NA+    NA+45979  42.293  16.122  13.801
73720NA+    NA+45980  22.247  21.074   5.639
73721NA+    NA+45981  27.575  15.223  13.323
73722NA+    NA+45982  24.619  41.528  13.366
73723NA+    NA+45983   6.793   9.730  11.969
73724NA+    NA+45984   3.868  22.185  10.924
73725NA+    NA+45985  26.490  42.908   0.302
73726NA+    NA+45986   0.332  13.841   0.937
73727NA+    NA+45987   6.917  34.035   1.272
73728NA+    NA+45988  24.668  29.010   1.299
73729NA+    NA+45989  34.886  18.068   1.826
73730NA+    NA+45990  35.077  42.874   4.324
73731NA+    NA+45991  12.194  33.987   0.321
73732NA+    NA+45992   2.384  29.500  10.544
73733NA+    NA+45993  28.082  19.625  14.354
73734NA+    NA+45994  44.809  41.487   4.253
73735NA+    NA+45995   1.809  16.279  14.766
73736NA+    NA+45996  22.231  27.086  12.566
73737NA+    NA+45997  40.849   4.258  12.980
73738NA+    NA+45998  42.954  17.104   1.736
73739NA+    NA+45999  25.210  17.075  14.411
73740NA+    NA+46000  40.837  27.624   2.260
73741NA+    NA+46001  29.950  15.768  11.909
73742NA+    NA+46002   5.904   4.713  13.485
73743NA+    NA+46003  31.952  40.950  11.567
73744NA+    NA+46004  26.645  27.472   2.795
73745NA+    NA+46005   7.748  35.076   4.638
73746NA+    NA+46006  42.948  29.559   1.412
73747NA+    NA+46007  27.071  16.775  11.887
73748NA+    NA+46008  10.671  28.635   4.618
73749NA+    NA+46009   1.353  25.216  11.073
73750NA+    NA+46010  42.829  20.262   2.806
73751NA+    NA+46011  33.488  12.800  10.958
73752NA+    NA+46012  32.400   6.707  11.548
73753NA+    NA+46013  31.642  28.010  11.511
73754NA+    NA+46014   1.846  39.363   4.271
73755NA+    NA+46015  41.868  17.189  11.548
73756NA+    NA+46016   8.726  41.795   3.831
73757NA+    NA+46017  18.713  39.818  10.149
73758NA+    NA+46018  17.098   9.693   3.335
73759NA+    NA+46019  14.733   5.318  12.972
73760NA+    NA+46020  44.890  15.276  10.967
73761NA+    NA+46021  38.990  43.920   3.840
73762NA+    NA+46022  44.333   3.950  14.984
73763NA+    NA+46023  23.194  28.673  14.819
73764NA+    NA+46024  37.439  24.018  13.023
73765NA+    NA+46025  32.601  21.225   4.688
73766NA+    NA+46026  25.043   5.783   1.302
73767NA+    NA+46027  18.783  13.292   1.904
73768NA+    NA+46028  13.708  15.107   5.307
73769NA+    NA+46029  38.486  32.526  10.944
73770NA+    NA+46030  25.998  10.725   0.370
73771NA+    NA+46031   7.195   8.181   3.692
73772NA+    NA+46032  38.423  39.320  12.019
73773NA+    NA+46033  14.607  28.024  12.932
73774NA+    NA+46034   8.873  15.091  12.828
73775NA+    NA+46035   2.405  41.489   0.284
73776NA+    NA+46036  43.473   4.354  14.428
73777NA+    NA+46037  11.199  27.504  11.989
73778NA+    NA+46038  40.960  16.795   2.375
73779NA+    NA+46039   8.368  26.644  12.339
73780NA+    NA+46040   5.240   4.439   3.781
73781NA+    NA+46041   7.284  20.703   2.795
73782NA+    NA+46042  36.369   8.791   3.256
73783NA+    NA+46043  31.537  25.064   1.923
73784NA+    NA+46044  21.198  26.552  12.540
73785NA+    NA+46045  44.912  14.157  10.983
73786NA+    NA+46046   7.718  42.805  14.906
73787NA+    NA+46047  12.856  35.049  11.039
73788NA+    NA+46048  20.180  20.130   1.796
73789NA+    NA+46049   4.776  11.825  12.393
73790NA+    NA+46050   9.877  21.113   0.242
73791NA+    NA+46051   2.419  25.488  12.369
73792NA+    NA+46052  13.659   9.773  10.425
73793NA+    NA+46053   6.858  17.564  13.402
73794NA+    NA+46054   4.239  18.125   4.675
73795NA+    NA+46055  38.926   2.327   9.963
73796NA+    NA+46056   7.284   5.907   4.807
73797NA+    NA+46057  20.704   3.782  12.955
73798NA+    NA+46058  27.658   6.708   0.860
73799NA+    NA+46059  22.015  36.558   0.796
73800NA+    NA+46060  31.488  12.353  14.894
73801NA+    NA+46061  17.800   5.745  14.500
73802NA+    NA+46062  30.637  14.234   0.351
73803NA+    NA+46063   5.783   3.899  11.993
73804NA+    NA+46064   2.416  25.514   1.299
73805NA+    NA+46065   2.917  23.237   4.314
73806NA+    NA+46066  35.976  37.923  10.449
73807NA+    NA+46067  21.565   8.384  14.004
73808NA+    NA+46068  17.786   1.390  11.963
73809NA+    NA+46069  22.010  25.516  11.120
73810NA+    NA+46070  30.097   8.711   3.665
73811NA+    NA+46071   8.356  27.044  11.907
73812NA+    NA+46072  42.781  28.098  10.946
73813NA+    NA+46073   9.845  28.606   1.802
73814NA+    NA+46074  34.076  35.366   0.913
73815NA+    NA+46075   6.356  22.031  12.395
73816NA+    NA+46076  26.961   0.432   4.792
73817NA+    NA+46077  18.235   2.460   2.337
73818NA+    NA+46078  43.447  37.454   0.314
73819NA+    NA+46079  38.961   3.332   2.810
73820NA+    NA+46080  34.909   5.348  11.933
73821NA+    NA+46081   5.244  33.953   2.336
73822NA+    NA+46082  41.802  35.470  11.011
73823NA+    NA+46083   8.893  42.448   2.892
73824NA+    NA+46084  16.712  13.767   2.321
73825NA+    NA+46085  22.020  39.824   1.803
73826NA+    NA+46086  44.892  32.586   1.241
73827NA+    NA+46087  40.516  15.173  14.445
73828NA+    NA+46088   7.715  28.163  10.984
73829NA+    NA+46089  25.511  28.937   5.123
73830NA+    NA+46090  41.999   6.393   1.221
73831NA+    NA+46091  30.577  37.066   0.461
73832NA+    NA+46092  23.006  26.976   1.831
73833NA+    NA+46093  36.456  31.585  11.376
73834NA+    NA+46094   2.386  18.222  11.039
73835NA+    NA+46095  27.683  41.850  10.036
73836NA+    NA+46096  37.880  13.624   4.631
73837NA+    NA+46097   8.677   9.252   4.759
73838NA+    NA+46098  42.368  11.708  14.408
73839NA+    NA+46099  29.570  20.136  11.048
73840NA+    NA+46100  41.423  37.546   4.612
73841NA+    NA+46101  22.060  29.563  10.562
73842NA+    NA+46102  43.447  26.554  13.541
73843NA+    NA+46103  21.747  24.220   1.700
73844NA+    NA+46104  11.659  44.428  14.796
73845NA+    NA+46105  19.571  36.383   4.747
73846NA+    NA+46106  22.244   0.292   2.298
73847NA+    NA+46107  27.542  23.546   0.965
73848NA+    NA+46108  23.088   6.198   3.839
73849NA+    NA+46109  26.573  36.040   0.738
73850NA+    NA+46110  28.944  40.006   1.901
73851NA+    NA+46111  14.740  28.023  12.501
73852NA+    NA+46112  43.993  19.582   2.754
73853NA+    NA+46113  33.506  21.591   3.171
73854NA+    NA+46114   0.326   4.791   2.344
73855NA+    NA+46115  10.360  18.674   0.750
73856NA+    NA+46116  22.571  28.490  10.947
73857NA+    NA+46117  22.738  34.106   2.261
73858NA+    NA+46118  44.365  43.352  14.796
73859NA+    NA+46119  40.352  11.170   4.739
73860NA+    NA+46120   3.282   0.774  11.440
73861NA+    NA+46121   4.403  14.108  14.770
73862NA+    NA+46122  24.590  38.018  13.407
73863NA+    NA+46123  20.165   6.357  10.555
73864NA+    NA+46124  14.277  11.322   4.245
73865NA+    NA+46125  13.837   8.691   4.274
73866NA+    NA+46126  19.240  44.411   1.426
73867NA+    NA+46127  14.602  29.130  14.016
73868NA+    NA+46128   5.340  36.385   2.893
73869NA+    NA+46129  17.106   1.884  11.476
73870NA+    NA+46130  34.426   1.748   3.168
73871NA+    NA+46131   2.867  37.896  13.381
73872NA+    NA+46132   5.778  17.194  11.121
73873NA+    NA+46133  25.574  44.922  11.911
73874NA+    NA+46134  27.119  11.634  11.984
73875NA+    NA+46135  38.524  34.083  10.587
73876NA+    NA+46136   2.927  30.577   2.400
73877NA+    NA+46137  38.957  21.234  13.003
73878NA+    NA+46138   5.408   4.874  10.998
73879NA+    NA+46139   4.869   1.735   1.231
73880NA+    NA+46140  25.474  19.183   1.328
73881NA+    NA+46141   5.855  37.478  10.406
73882NA+    NA+46142  29.555  15.686   5.291
73883NA+    NA+46143  15.316   1.402   2.382
73884NA+    NA+46144  28.065  29.595   0.297
73885NA+    NA+46145  24.075  37.468  14.784
73886NA+    NA+46146  25.529  43.329  11.958
73887NA+    NA+46147   6.783  43.293  12.913
73888NA+    NA+46148  11.759  35.591   1.380
73889NA+    NA+46149   0.753  20.545   4.224
73890NA+    NA+46150  29.071  33.108  13.501
73891NA+    NA+46151   7.909  15.728  11.488
73892NA+    NA+46152  35.461  29.059  13.472
73893NA+    NA+46153  37.564  33.575  13.939
73894NA+    NA+46154  44.357  17.216   5.141
73895NA+    NA+46155   5.208  22.142   2.663
73896NA+    NA+46156   3.269   7.811   3.381
73897NA+    NA+46157  32.420  24.492  10.455
73898NA+    NA+46158  25.098  40.860  14.017
73899NA+    NA+46159   8.887  38.464  11.555
73900NA+    NA+46160   0.252   1.467  11.462
73901NA+    NA+46161   4.276  30.547  12.961
73902NA+    NA+46162  17.693  15.139  12.496
73903NA+    NA+46163  19.658  19.679   3.269
73904NA+    NA+46164  44.348  25.579  11.105
73905NA+    NA+46165  24.204  38.980   0.902
73906NA+    NA+46166   1.823  26.032   1.805
73907NA+    NA+46167  27.177  31.585   2.697
73908NA+    NA+46168  16.575  13.134   0.789
73909NA+    NA+46169   8.285  39.425  12.412
73910NA+    NA+46170  32.450  30.923   3.858
73911NA+    NA+46171  34.960  10.868  14.328
73912NA+    NA+46172   5.353   6.348   0.367
73913NA+    NA+46173  10.789  44.260   0.932
73914NA+    NA+46174   3.383  33.972   2.353
73915NA+    NA+46175   5.278  39.557  11.530
73916NA+    NA+46176  36.471  14.177   4.205
73917NA+    NA+46177  17.140  29.129  12.899
73918NA+    NA+46178  43.930  17.285  11.113
73919NA+    NA+46179  39.368  14.250   2.821
73920NA+    NA+46180  36.466  34.028  12.443
73921NA+    NA+46181  18.786  35.880   3.828
73922NA+    NA+46182   1.365  21.089   0.260
73923NA+    NA+46183  28.660  25.649   2.729
73924NA+    NA+46184   4.783  43.484  12.498
73925NA+    NA+46185   1.263  36.462  12.502
73926NA+    NA+46186  25.067  17.212  14.983
73927NA+    NA+46187  41.361   0.778   2.879
73928NA+    NA+46188  33.107  33.582  11.549
73929NA+    NA+46189  43.931  20.073   0.759
73930NA+    NA+46190  24.660  12.642   2.852
73931NA+    NA+46191  35.032  29.020   0.414
73932NA+    NA+46192  34.088   5.412  14.334
73933NA+    NA+46193  19.543  10.152  10.565
73934NA+    NA+46194  13.331  29.014  12.842
73935NA+    NA+46195  14.664  16.314   3.869
73936NA+    NA+46196  39.019  14.683   2.725
73937NA+    NA+46197   9.294   2.831  12.576
73938NA+    NA+46198  17.169  43.920   3.299
73939NA+    NA+46199  37.013  38.334  12.435
73940NA+    NA+46200  35.927  26.967   1.913
73941NA+    NA+46201  13.838  34.591  12.846
73942NA+    NA+46202  27.107  13.251   1.771
73943NA+    NA+46203  37.938  20.766   4.643
73944NA+    NA+46204  44.833   4.227   2.821
73945NA+    NA+46205  15.591  36.370  10.427
73946NA+    NA+46206   0.327  26.496   2.792
73947NA+    NA+46207  13.126   3.253  13.908
73948NA+    NA+46208  17.741  26.014   0.838
73949NA+    NA+46209  13.346  10.801  13.376
73950NA+    NA+46210  28.186  35.090  14.897
73951NA+    NA+46211  41.326   9.171  14.318
73952NA+    NA+46212  31.489  29.645   0.249
73953NA+    NA+46213   4.910  38.952   4.230
73954NA+    NA+46214  41.474  43.914   1.351
73955NA+    NA+46215  32.021   9.177   0.425
73956NA+    NA+46216   3.422  11.250   2.281
73957NA+    NA+46217  31.943  20.227   0.901
73958NA+    NA+46218  13.660  42.327   2.770
73959NA+    NA+46219  32.992  19.761  13.888
73960NA+    NA+46220  14.749  24.178   1.425
73961NA+    NA+46221   3.833  25.694   0.398
73962NA+    NA+46222  33.021  15.622  11.076
73963NA+    NA+46223  13.333  36.864   4.670
73964NA+    NA+46224  41.013  34.496   0.389
73965NA+    NA+46225  40.005  29.986  14.400
73966NA+    NA+46226  31.953   1.270  12.898
73967NA+    NA+46227  17.282  42.801  14.869
73968NA+    NA+46228  38.963  32.550  11.915
73969NA+    NA+46229   2.278  20.162   4.196
73970NA+    NA+46230  18.214  39.435   1.408
73971NA+    NA+46231  39.557  17.085   0.769
73972NA+    NA+46232  26.702  38.457   0.402
73973NA+    NA+46233  26.525  35.478  13.888
73974NA+    NA+46234  37.503   8.701   3.761
73975NA+    NA+46235  13.621   6.294   0.364
73976NA+    NA+46236  39.060  24.153   4.248
73977NA+    NA+46237  29.169  42.960  13.853
73978NA+    NA+46238  36.001  33.510  11.060
73979NA+    NA+46239  35.975   4.216  14.450
73980NA+    NA+46240  36.496   0.848  12.891
73981NA+    NA+46241  42.485   3.874  11.523
73982NA+    NA+46242  38.500  28.512  14.372
73983NA+    NA+46243  25.007  24.982  12.361
73984NA+    NA+46244  26.593  28.479   4.732
73985NA+    NA+46245  27.530  10.187  14.370
73986NA+    NA+46246   5.803  23.013  14.458
73987NA+    NA+46247  21.724  13.775   4.825
73988NA+    NA+46248  18.668  36.437  13.371
73989NA+    NA+46249  42.401  35.887  11.531
73990NA+    NA+46250  43.276  18.145  12.401
73991NA+    NA+46251  23.209  43.410   1.359
73992NA+    NA+46252  40.049  43.510   1.890
73993NA+    NA+46253  42.500   7.695   1.778
73994NA+    NA+46254   6.723  19.668   3.752
73995NA+    NA+46255  19.215  37.856   3.205
73996NA+    NA+46256  22.125  22.032  14.478
73997NA+    NA+46257   1.762  13.105  14.778
73998NA+    NA+46258   1.242  40.845   1.803
73999NA+    NA+46259  34.983  20.032   4.334
74000NA+    NA+46260  36.540  18.688  12.994
74001NA+    NA+46261   3.832  44.331  11.471
74002NA+    NA+46262  24.078  23.500  13.793
74003NA+    NA+46263   7.353  35.472  13.908
74004NA+    NA+46264  25.642  19.077  12.912
74005NA+    NA+46265  26.178  36.507   0.359
74006NA+    NA+46266  24.201  38.937   4.284
74007NA+    NA+46267  25.640  37.862  11.935
74008NA+    NA+46268  23.616  19.729  13.840
74009NA+    NA+46269  34.547  44.816  13.308
74010NA+    NA+46270  25.127  22.222  13.870
74011NA+    NA+46271   2.927  12.215  13.875
74012NA+    NA+46272  16.265  26.543  14.447
74013NA+    NA+46273  34.606  24.489  12.937
74014NA+    NA+46274  34.956   9.192   2.346
74015NA+    NA+46275  11.839  43.800  14.374
74016NA+    NA+46276  12.727  14.643   1.377
74017NA+    NA+46277  40.380  32.466  11.484
74018NA+    NA+46278   3.329   6.352   4.169
74019NA+    NA+46279   5.247   3.414   5.258
74020NA+    NA+46280   7.236  40.423  11.060
74021NA+    NA+46281  36.512  43.846  11.601
74022NA+    NA+46282   5.830  19.580  12.426
74023NA+    NA+46283   1.903   7.182   1.293
74024NA+    NA+46284  35.538  30.573  13.531
74025NA+    NA+46285  22.533  32.940   1.714
74026NA+    NA+46286  29.558  28.968  14.366
74027NA+    NA+46287  41.364   6.374   1.812
74028NA+    NA+46288  17.603   5.898  11.087
74029NA+    NA+46289  28.125   1.918   2.715
74030NA+    NA+46290  27.672   7.779  12.846
74031NA+    NA+46291  17.588   2.358  13.375
74032NA+    NA+46292   4.843  20.720  14.919
74033NA+    NA+46293  16.235  22.218  11.891
74034NA+    NA+46294  33.391  27.040  13.837
74035NA+    NA+46295   4.323   2.422   2.335
74036NA+    NA+46296   1.435   2.742  12.573
74037NA+    NA+46297  27.173  38.920  13.976
74038NA+    NA+46298  26.052  18.283  12.921
74039NA+    NA+46299  13.810  32.451  10.901
74040NA+    NA+46300  21.110  35.051  11.124
74041NA+    NA+46301   9.840   4.309  12.904
74042NA+    NA+46302   9.674  41.832  13.324
74043NA+    NA+46303  13.772  38.877  13.973
74044NA+    NA+46304  16.293  12.348  11.091
74045NA+    NA+46305  13.626  13.820  14.970
74046NA+    NA+46306  32.067   1.856   5.281
74047NA+    NA+46307  39.431   4.290  14.315
74048NA+    NA+46308  13.739  21.669  14.915
74049NA+    NA+46309  11.639  36.845   0.384
74050NA+    NA+46310  26.962  14.094  12.896
74051NA+    NA+46311  26.098  39.435  12.025
74052NA+    NA+46312  25.685  11.345   3.387
74053NA+    NA+46313  36.476   1.334   2.711
74054NA+    NA+46314   5.310  44.888  10.595
74055NA+    NA+46315  40.844   6.820   0.820
74056NA+    NA+46316  17.559   8.334  14.858
74057NA+    NA+46317  35.433  36.499   1.395
74058NA+    NA+46318  32.952  26.504   3.804
74059NA+    NA+46319   1.973  40.412  14.394
74060NA+    NA+46320  32.971  32.946   1.716
74061NA+    NA+46321  34.474   3.259  11.106
74062NA+    NA+46322  29.015  12.834  14.462
74063NA+    NA+46323   7.713   1.894   2.305
74064NA+    NA+46324  44.808  29.578  13.533
74065NA+    NA+46325  40.031   7.879  13.876
74066NA+    NA+46326  19.658  28.178   2.403
74067NA+    NA+46327  10.179  12.764  10.016
74068NA+    NA+46328  11.762  27.589   2.864
74069NA+    NA+46329   4.756  39.422   2.823
74070NA+    NA+46330  19.147  37.870  11.578
74071NA+    NA+46331  32.992   3.444  14.915
74072NA+    NA+46332  35.935   1.292  12.957
74073NA+    NA+46333  10.166  14.280  11.371
74074NA+    NA+46334  14.784   4.216  12.372
74075NA+    NA+46335  40.819  35.472  10.588
74076NA+    NA+46336  39.328  32.946   3.677
74077NA+    NA+46337  14.287  41.336  11.936
74078NA+    NA+46338  16.687  23.594  10.613
74079NA+    NA+46339  34.981  36.495  11.031
74080NA+    NA+46340  23.733  17.798   2.894
74081NA+    NA+46341  38.449  15.150  11.480
74082NA+    NA+46342   9.683  38.374   4.245
74083NA+    NA+46343  30.136  31.546   2.802
74084NA+    NA+46344  44.849  41.810  11.426
74085NA+    NA+46345  21.748  12.633  11.576
74086NA+    NA+46346   8.339  40.881  11.502
74087NA+    NA+46347  27.039  26.591   0.747
74088NA+    NA+46348  35.500  38.835   0.772
74089NA+    NA+46349   5.296  29.986   2.219
74090NA+    NA+46350   2.846  33.416  12.028
74091NA+    NA+46351  12.662  12.742  14.899
74092NA+    NA+46352  35.099  35.506  11.452
74093NA+    NA+46353   7.416   2.231  14.431
74094NA+    NA+46354   5.402  32.579   0.461
74095NA+    NA+46355  18.118   5.262  12.372
74096NA+    NA+46356  31.468  23.120  13.424
74097NA+    NA+46357   8.187  30.117  14.021
74098NA+    NA+46358  36.004   7.700   1.373
74099NA+    NA+46359  31.138   4.329   2.829
74100NA+    NA+46360  30.920  17.193  10.472
74101NA+    NA+46361  42.835  43.805  11.129
74102NA+    NA+46362  37.369  20.665  11.521
74103NA+    NA+46363  32.412  37.953  10.544
74104NA+    NA+46364   4.867   3.255  10.415
74105NA+    NA+46365  42.403   7.678  14.389
74106NA+    NA+46366  19.597  13.317   3.164
74107NA+    NA+46367   1.797   7.332   3.360
74108NA+    NA+46368   4.402   7.313  14.919
74109NA+    NA+46369  21.673  27.137   2.821
74110NA+    NA+46370   8.324  42.459  12.846
74111NA+    NA+46371   9.673   8.260  13.499
74112NA+    NA+46372  30.623   4.800   1.233
74113NA+    NA+46373  26.154  42.898   4.157
74114NA+    NA+46374   2.389  40.041  11.925
74115NA+    NA+46375  37.412  10.717   0.394
74116NA+    NA+46376  22.577  14.317  10.607
74117NA+    NA+46377  13.214  32.409  13.044
74118NA+    NA+46378  34.589  17.291  11.492
74119NA+    NA+46379   7.366  21.224  11.920
74120NA+    NA+46380  38.906  41.837   3.658
74121NA+    NA+46381  29.438  34.600  11.860
74122NA+    NA+46382   7.828   2.935  10.949
74123NA+    NA+46383   8.320  19.685  13.989
74124NA+    NA+46384  43.006   1.302  14.854
74125NA+    NA+46385  36.420  35.074   1.444
74126NA+    NA+46386  44.309   8.383   0.400
74127NA+    NA+46387  22.240  22.508  14.841
74128NA+    NA+46388   4.726   8.872  10.441
74129NA+    NA+46389   2.932  37.382   1.843
74130NA+    NA+46390  39.985  36.848   1.419
74131NA+    NA+46391  17.799  40.397  10.492
74132NA+    NA+46392  38.333  40.006  13.824
74133NA+    NA+46393   2.447  15.746   1.279
74134NA+    NA+46394  43.992   6.203   1.228
74135NA+    NA+46395  31.503  16.093   2.719
74136NA+    NA+46396  38.948  28.458   1.727
74137NA+    NA+46397  12.216  32.467   4.674
74138NA+    NA+46398  40.818  24.219  12.915
74139NA+    NA+46399  41.335  13.688  14.334
74140NA+    NA+46400  43.357   7.687   3.160
74141NA+    NA+46401  35.042  43.994   4.128
74142NA+    NA+46402  36.036  37.479   1.292
74143NA+    NA+46403  41.361   8.337  12.090
74144NA+    NA+46404  23.147  18.182  10.978
74145NA+    NA+46405  36.953   5.912   1.740
74146NA+    NA+46406  27.575  39.856  12.993
74147NA+    NA+46407  35.017  42.956   4.740
74148NA+    NA+46408  20.540  22.051   1.925
74149NA+    NA+46409   3.278  35.108  12.864
74150NA+    NA+46410  34.911  29.997  14.776
74151NA+    NA+46411  17.707  33.607   4.239
74152NA+    NA+46412   7.838   0.851  13.924
74153NA+    NA+46413  33.430   0.258   0.959
74154NA+    NA+46414  21.697  27.143  12.394
74155NA+    NA+46415  41.040  23.065  14.913
74156NA+    NA+46416  11.276  15.115   3.302
74157NA+    NA+46417  15.638  29.492   2.247
74158NA+    NA+46418  39.839  13.707  10.550
74159NA+    NA+46419   1.816  20.741   3.178
74160NA+    NA+46420  39.011  36.013   1.894
74161NA+    NA+46421  43.348  19.111  12.877
74162NA+    NA+46422  40.320  33.462   0.402
74163NA+    NA+46423  31.525  43.494   2.862
74164NA+    NA+46424  24.054  44.281  12.403
74165NA+    NA+46425   2.425  26.188   0.381
74166NA+    NA+46426  25.530  19.661   3.184
74167NA+    NA+46427  10.266   7.250  10.998
74168NA+    NA+46428  30.121  12.137   2.311
74169NA+    NA+46429   9.162  18.223   0.345
74170NA+    NA+46430  42.841  14.809  12.864
74171NA+    NA+46431   2.931   6.318  14.952
74172NA+    NA+46432  20.110   1.277   4.721
74173NA+    NA+46433   9.223  13.132  14.798
74174NA+    NA+46434  33.620  27.089   1.929
74175NA+    NA+46435   5.354   4.426  12.035
74176NA+    NA+46436   0.327   5.198   3.317
74177NA+    NA+46437  28.551  22.032   2.273
74178NA+    NA+46438  10.675  10.848   4.145
74179NA+    NA+46439   7.888  43.441   2.691
74180NA+    NA+46440  11.170   4.758   1.217
74181NA+    NA+46441   5.402  44.830  13.019
74182NA+    NA+46442  15.747  31.555   3.235
74183NA+    NA+46443  16.813  32.600   4.639
74184NA+    NA+46444  16.798  29.034   4.757
74185NA+    NA+46445   5.865  29.460   1.766
74186NA+    NA+46446  40.380   3.236   3.296
74187NA+    NA+46447  37.952  28.174   4.235
74188NA+    NA+46448  25.149   3.740   2.829
74189NA+    NA+46449  29.503  36.856   1.793
74190NA+    NA+46450  16.616   6.765   9.610
74191NA+    NA+46451  39.831  18.626   4.761
74192NA+    NA+46452   6.290  18.064   9.942
74193NA+    NA+46453  18.635   9.720  10.498
74194NA+    NA+46454  31.994   4.771   2.766
74195NA+    NA+46455   7.231  17.709   0.777
74196NA+    NA+46456  38.565  21.684  11.992
74197NA+    NA+46457  17.794  40.910   4.707
74198NA+    NA+46458   8.203  25.508  11.883
74199NA+    NA+46459  12.223  22.172  11.494
74200NA+    NA+46460  32.480  21.531  13.455
74201NA+    NA+46461  43.373  35.056  13.851
74202NA+    NA+46462  23.530  27.659  11.121
74203NA+    NA+46463  23.722  29.577  12.396
74204NA+    NA+46464  28.500  16.751  14.416
74205NA+    NA+46465   8.244   1.937   0.367
74206NA+    NA+46466   8.893   1.924   3.777
74207NA+    NA+46467  28.641  25.652   2.241
74208NA+    NA+46468   9.374  41.970  13.826
74209NA+    NA+46469  29.059  37.466  11.012
74210NA+    NA+46470  14.708  43.513   4.832
74211NA+    NA+46471  11.142  34.560   4.176
74212NA+    NA+46472   5.747   2.837  10.452
74213NA+    NA+46473  10.367  34.086   4.270
74214NA+    NA+46474  15.767   5.915  14.351
74215NA+    NA+46475  24.642   9.687  12.050
74216NA+    NA+46476  11.242  27.971  12.085
74217NA+    NA+46477  34.031  15.822   2.332
74218NA+    NA+46478  24.178  18.286  13.853
74219NA+    NA+46479  29.107   7.221   2.347
74220NA+    NA+46480  35.392  28.666   3.354
74221NA+    NA+46481  38.397  37.401   0.243
74222NA+    NA+46482  17.678  15.121   4.647
74223NA+    NA+46483  22.137   0.295   0.865
74224NA+    NA+46484   4.770  11.638  11.124
74225NA+    NA+46485  36.474  39.450   1.298
74226NA+    NA+46486  14.142  17.774   1.932
74227NA+    NA+46487  15.167   2.312   1.278
74228NA+    NA+46488   0.863  27.041   3.324
74229NA+    NA+46489   0.812  33.504  12.040
74230NA+    NA+46490  32.467   4.705   4.711
74231NA+    NA+46491  36.998  19.630  14.887
74232NA+    NA+46492  20.619  40.383  13.058
74233NA+    NA+46493  14.306   5.376  11.451
74234NA+    NA+46494  14.207  41.394  13.843
74235NA+    NA+46495  21.205  16.749  11.042
74236NA+    NA+46496   0.354  32.100   4.345
74237NA+    NA+46497  28.436  31.962  12.003
74238NA+    NA+46498   2.470  24.671  12.976
74239NA+    NA+46499  27.655  16.100   4.170
74240NA+    NA+46500  14.265  19.589  12.973
74241NA+    NA+46501  39.551  34.435   2.357
74242NA+    NA+46502  13.631  43.332  11.546
74243NA+    NA+46503  22.222  31.496   3.715
74244NA+    NA+46504  17.638  31.554   2.831
74245NA+    NA+46505   1.884  41.361  13.045
74246NA+    NA+46506  38.490  13.193   3.790
74247NA+    NA+46507  32.052  33.049  14.955
74248NA+    NA+46508   9.742  24.973  13.346
74249NA+    NA+46509   1.241  11.683  12.472
74250NA+    NA+46510  32.021   8.739  12.053
74251NA+    NA+46511  32.131  29.563   1.243
74252NA+    NA+46512  27.058  44.488   0.752
74253NA+    NA+46513   7.783  25.578   0.353
74254NA+    NA+46514  26.204  27.945  13.337
74255NA+    NA+46515  31.942   7.206   1.336
74256NA+    NA+46516  23.607   3.737  11.989
74257NA+    NA+46517  22.173  43.780  10.440
74258NA+    NA+46518  14.168  36.530   0.813
74259NA+    NA+46519  19.059  17.144  14.793
74260NA+    NA+46520  20.266  12.679  14.384
74261NA+    NA+46521  12.229   5.859   1.370
74262NA+    NA+46522  25.137  40.052   2.794
74263NA+    NA+46523  32.595  10.668  10.531
74264NA+    NA+46524   9.769  26.555  13.477
74265NA+    NA+46525   7.287   0.960   1.818
74266NA+    NA+46526  42.965   3.729   0.369
74267NA+    NA+46527   6.876   7.719   0.481
74268NA+    NA+46528   3.363  17.682   1.811
74269NA+    NA+46529  38.898  15.642  14.889
74270NA+    NA+46530  43.318  18.780  12.499
74271NA+    NA+46531  12.299  17.299   1.333
74272NA+    NA+46532  23.129  37.930   2.686
74273NA+    NA+46533   1.436   0.980   0.878
74274NA+    NA+46534  14.707  32.512   4.743
74275NA+    NA+46535  16.233  15.823   2.376
74276NA+    NA+46536  15.592  10.369  13.047
74277NA+    NA+46537  18.115   8.290  12.001
74278NA+    NA+46538  32.398  15.656  11.447
74279NA+    NA+46539  19.142   0.935   2.708
74280NA+    NA+46540  36.396   4.375   3.145
74281NA+    NA+46541  26.129  12.808  10.605
74282NA+    NA+46542  39.461  33.573  11.968
74283NA+    NA+46543   4.853  39.831  14.873
74284NA+    NA+46544  42.517  14.302   4.784
74285NA+    NA+46545  35.977  15.689  13.384
74286NA+    NA+46546  14.706   7.776  12.951
74287NA+    NA+46547   0.983  43.487   1.934
74288NA+    NA+46548  15.752  33.012   0.261
74289NA+    NA+46549  23.017   9.356  11.378
74290NA+    NA+46550  22.715  35.543   2.867
74291NA+    NA+46551  43.388  35.392  14.812
74292NA+    NA+46552   7.417  10.312  11.427
74293NA+    NA+46553   2.842  12.709   1.285
74294NA+    NA+46554  10.642  44.266   3.795
74295NA+    NA+46555  29.117  32.010  11.444
74296NA+    NA+46556   0.817  32.437  11.094
74297NA+    NA+46557  21.151   5.917   1.772
74298NA+    NA+46558  13.679  22.036   4.284
74299NA+    NA+46559  30.116  38.529  11.388
74300NA+    NA+46560  19.534  20.194  10.532
74301NA+    NA+46561  32.963  41.899  12.439
74302NA+    NA+46562  18.592  39.030   3.841
74303NA+    NA+46563  25.583  24.224   3.839
74304NA+    NA+46564  22.099  26.665   0.817
74305NA+    NA+46565  11.345  20.094  12.564
74306NA+    NA+46566  42.393   2.470   4.773
74307NA+    NA+46567   3.332  18.189   0.391
74308NA+    NA+46568  32.981   4.294  11.505
74309NA+    NA+46569   7.753  35.071  12.077
74310NA+    NA+46570  40.320  19.248   2.822
74311NA+    NA+46571  20.154  25.969  11.048
74312NA+    NA+46572  15.084  21.129   4.297
74313NA+    NA+46573  32.470  29.168   4.191
74314NA+    NA+46574  32.004  16.572  13.379
74315NA+    NA+46575  38.927  27.174   2.416
74316NA+    NA+46576  11.251  17.715   2.878
74317NA+    NA+46577  34.085  21.169  13.012
74318NA+    NA+46578   7.745   6.749  12.573
74319NA+    NA+46579  33.551  28.040   2.391
74320NA+    NA+46580  14.120   7.369   3.740
74321NA+    NA+46581  29.442   5.298  13.813
74322NA+    NA+46582   5.725  30.989   3.664
74323NA+    NA+46583  38.344  20.219  11.044
74324NA+    NA+46584  25.011   1.936  12.052
74325NA+    NA+46585  40.799  16.104   3.775
74326NA+    NA+46586  26.577   2.313  12.341
74327NA+    NA+46587   1.929   4.926  11.919
74328NA+    NA+46588  16.242  24.638   2.294
74329NA+    NA+46589  32.455  31.540  13.794
74330NA+    NA+46590  28.536  12.768  13.992
74331NA+    NA+46591   3.237  39.951  12.946
74332NA+    NA+46592  40.945  19.607  11.529
74333NA+    NA+46593   8.361  15.819  10.998
74334NA+    NA+46594  42.813  36.555  13.895
74335NA+    NA+46595  11.799  23.157   4.243
74336NA+    NA+46596  24.725  24.502   1.813
74337NA+    NA+46597  41.914   4.902  13.326
74338NA+    NA+46598   8.376  19.616   4.204
74339NA+    NA+46599  34.087   9.227   2.393
74340NA+    NA+46600  15.153  21.225  13.543
74341NA+    NA+46601   6.692  35.525   1.703
74342NA+    NA+46602  19.745  41.791  13.356
74343NA+    NA+46603  26.036  18.630  13.416
74344NA+    NA+46604  21.189  28.143  13.979
74345NA+    NA+46605  32.134  22.181   3.245
74346NA+    NA+46606   9.817   2.758  10.937
74347NA+    NA+46607  22.633  31.052  10.458
74348NA+    NA+46608   4.372   3.318  11.928
74349NA+    NA+46609  16.173   0.890  11.966
74350NA+    NA+46610  38.492  16.583   2.678
74351NA+    NA+46611   9.821  10.697   1.364
74352NA+    NA+46612  28.500  28.521  11.077
74353NA+    NA+46613  14.197  25.559  12.363
74354NA+    NA+46614   1.394  19.205   0.830
74355NA+    NA+46615  25.106  40.433  12.992
74356NA+    NA+46616  22.176  41.367   3.794
74357NA+    NA+46617  43.768  24.223  13.947
74358NA+    NA+46618  31.507  30.998  14.435
74359NA+    NA+46619  40.345  39.929  11.389
74360NA+    NA+46620  31.096  17.574   0.903
74361NA+    NA+46621  11.245  27.041  10.410
74362NA+    NA+46622  23.613   7.271  10.509
74363NA+    NA+46623  41.474  28.180  12.863
74364NA+    NA+46624  15.236  15.174   2.750
74365NA+    NA+46625   2.344  11.181   1.845
74366NA+    NA+46626   8.833   1.904   1.448
74367NA+    NA+46627  10.358  27.669   4.155
74368NA+    NA+46628  19.553  44.405   4.813
74369NA+    NA+46629  38.438   5.265   1.760
74370NA+    NA+46630   0.264  34.608  14.340
74371NA+    NA+46631  33.903  20.690   1.226
74372NA+    NA+46632  11.822  44.452   5.140
74373NA+    NA+46633  19.113  31.644   2.883
74374NA+    NA+46634   8.870  25.203   3.347
74375NA+    NA+46635   4.269  11.249   1.901
74376NA+    NA+46636  19.603  20.230   1.820
74377NA+    NA+46637  19.040  24.183   2.885
74378NA+    NA+46638  22.133  44.970  11.408
74379NA+    NA+46639  43.940  23.649   1.390
74380NA+    NA+46640  16.206  12.717  14.824
74381NA+    NA+46641   5.725  28.078  10.045
74382NA+    NA+46642   0.473  30.629  13.430
74383NA+    NA+46643  15.590  24.012  14.837
74384NA+    NA+46644  23.625  24.191   3.193
74385NA+    NA+46645  41.452  14.751  12.479
74386NA+    NA+46646  42.913  39.526   0.966
74387NA+    NA+46647  30.564  24.595   0.249
74388NA+    NA+46648  19.775  23.685  14.878
74389NA+    NA+46649  33.404  19.123   2.888
74390NA+    NA+46650  43.453  35.088   3.274
74391NA+    NA+46651  44.933  44.905   0.290
74392NA+    NA+46652   7.280  12.171  13.811
74393NA+    NA+46653  12.646  25.207   0.943
74394NA+    NA+46654  16.245  36.926  13.451
74395NA+    NA+46655  15.321   0.930  12.532
74396NA+    NA+46656  27.622  10.646   4.331
74397NA+    NA+46657  11.238   7.706  11.917
74398NA+    NA+46658  34.591  35.868  11.579
74399NA+    NA+46659  34.096  41.367  13.404
74400NA+    NA+46660   6.362  42.806  14.856
74401NA+    NA+46661  20.709   0.331  10.525
74402NA+    NA+46662   9.856  16.603  14.868
74403NA+    NA+46663  17.069  41.925  10.972
74404NA+    NA+46664  42.940  36.567  10.576
74405NA+    NA+46665  40.434  11.299   1.712
74406NA+    NA+46666  13.346   5.270  14.330
74407NA+    NA+46667  32.600  21.730  10.959
74408NA+    NA+46668  27.988   9.251   2.304
74409NA+    NA+46669  37.864   8.330   3.364
74410NA+    NA+46670  22.688  37.980  14.875
74411NA+    NA+46671   5.377  28.516   1.266
74412NA+    NA+46672  37.444   6.799   3.794
74413NA+    NA+46673  10.176  33.105   2.749
74414NA+    NA+46674   8.337  26.199   9.550
74415NA+    NA+46675  31.597   3.882   0.351
74416NA+    NA+46676  15.254  11.793  13.871
74417NA+    NA+46677  34.964  35.975   1.249
74418NA+    NA+46678  27.484  30.457  13.834
74419NA+    NA+46679  15.095   6.704  12.514
74420NA+    NA+46680  34.968  17.295   5.193
74421NA+    NA+46681  21.597  16.804   3.689
74422NA+    NA+46682   9.706  17.082   3.350
74423NA+    NA+46683  42.777  39.019   2.339
74424NA+    NA+46684  17.572  38.953  12.527
74425NA+    NA+46685  25.095  35.937   2.230
74426NA+    NA+46686   4.881  44.365   4.221
74427NA+    NA+46687  43.392  29.121   1.923
74428NA+    NA+46688   7.812  39.343   0.293
74429NA+    NA+46689  25.663  31.542   1.301
74430NA+    NA+46690  15.684   4.901   3.220
74431NA+    NA+46691  38.035  27.197  10.521
74432NA+    NA+46692  26.573   8.884   2.294
74433NA+    NA+46693  31.929  13.641   3.661
74434NA+    NA+46694  40.045  30.614   0.397
74435NA+    NA+46695   5.307  27.057   3.717
74436NA+    NA+46696  31.145   5.295   4.130
74437NA+    NA+46697  29.493  17.064  12.411
74438NA+    NA+46698  41.972  22.162   2.854
74439NA+    NA+46699  19.199  40.546   2.329
74440NA+    NA+46700   9.704  32.537   2.403
74441NA+    NA+46701  17.107  31.047   3.287
74442NA+    NA+46702  23.230   9.861   3.287
74443NA+    NA+46703  29.451  26.544  13.503
74444NA+    NA+46704  37.846  17.083   0.794
74445NA+    NA+46705  44.276  13.263  10.995
74446NA+    NA+46706  33.573  19.082   4.642
74447NA+    NA+46707  12.192  30.146   0.314
74448NA+    NA+46708  29.956   6.762   4.636
74449NA+    NA+46709  33.893  37.440   2.722
74450NA+    NA+46710  32.551  10.181   4.770
74451NA+    NA+46711  32.494  20.116   3.337
74452NA+    NA+46712   1.428  27.591   4.173
74453NA+    NA+46713  10.633   7.270  13.518
74454NA+    NA+46714  15.588  37.880   4.829
74455NA+    NA+46715  12.721  13.346  13.908
74456NA+    NA+46716  18.560   9.699  13.945
74457NA+    NA+46717  28.538  27.169  13.938
74458NA+    NA+46718  24.679  22.100  11.414
74459NA+    NA+46719  11.633   7.181  13.427
74460NA+    NA+46720  16.241  44.422   0.324
74461NA+    NA+46721   9.890  24.199  12.431
74462NA+    NA+46722  40.891  32.900   2.235
74463NA+    NA+46723   0.907  17.707   3.704
74464NA+    NA+46724  13.600  40.320   3.315
74465NA+    NA+46725  21.747  16.122  11.530
74466NA+    NA+46726  29.442  17.755  12.062
74467NA+    NA+46727   0.827  15.811  12.440
74468NA+    NA+46728  41.916  38.412   0.244
74469NA+    NA+46729   7.787   0.783   4.339
74470NA+    NA+46730   6.324  28.497   5.707
74471NA+    NA+46731  17.753   6.408   4.344
74472NA+    NA+46732  40.896   1.921  12.837
74473NA+    NA+46733  26.682  25.090   0.292
74474NA+    NA+46734  36.553  20.085   5.215
74475NA+    NA+46735   7.704  29.655   0.894
74476NA+    NA+46736  30.115  18.618   4.352
74477NA+    NA+46737   0.791  19.727   0.330
74478NA+    NA+46738  35.960  25.100   2.197
74479NA+    NA+46739  19.612  12.826   0.453
74480NA+    NA+46740   9.267  14.204   3.171
74481NA+    NA+46741  21.240  20.201  11.540
74482NA+    NA+46742  22.043  35.889   3.256
74483NA+    NA+46743  23.029  20.567   5.686
74484NA+    NA+46744  44.787  37.913   1.736
74485NA+    NA+46745  40.811  41.813  14.357
74486NA+    NA+46746  33.439  22.091  11.974
74487NA+    NA+46747  35.563  26.005  14.801
74488NA+    NA+46748  44.997  26.095   4.264
74489NA+    NA+46749  31.506  40.957  13.834
74490NA+    NA+46750  31.104  35.410   4.166
74491NA+    NA+46751  16.119   8.759  12.917
74492NA+    NA+46752  23.732  13.831   1.867
74493NA+    NA+46753  14.205  24.633   3.218
74494NA+    NA+46754  39.485  43.900  13.521
74495NA+    NA+46755  32.073  36.099  14.417
74496NA+    NA+46756   4.282  14.775  13.514
74497NA+    NA+46757  13.108  38.065  14.786
74498NA+    NA+46758  13.148  40.318  14.913
74499NA+    NA+46759  43.490  29.005   2.696
74500NA+    NA+46760  15.267  32.142   1.383
74501NA+    NA+46761   0.405  29.511  12.529
74502NA+    NA+46762  38.405  11.167   3.236
74503NA+    NA+46763   9.262  23.688   2.673
74504NA+    NA+46764  14.634  13.309   2.787
74505NA+    NA+46765   2.261  28.128   3.696
74506NA+    NA+46766   8.256  18.658   3.662
74507NA+    NA+46767  31.986  14.747   4.255
74508NA+    NA+46768  37.435  43.301  11.087
74509NA+    NA+46769  20.058  30.996  11.916
74510NA+    NA+46770  15.667  10.816   2.685
74511NA+    NA+46771  20.056  29.490   1.747
74512NA+    NA+46772  42.809  41.320   3.866
74513NA+    NA+46773   1.372  20.159   0.263
74514NA+    NA+46774  36.433  41.008   0.914
74515NA+    NA+46775  38.912  40.451  10.456
74516NA+    NA+46776  21.690  17.783  10.507
74517NA+    NA+46777  30.920  31.068   2.674
74518NA+    NA+46778  34.594  41.938   2.818
74519NA+    NA+46779  27.663   3.932   4.233
74520NA+    NA+46780  30.413  12.798   4.701
74521NA+    NA+46781  24.613  16.226   0.760
74522NA+    NA+46782  32.015   0.386   3.669
74523NA+    NA+46783   9.876   6.875   4.795
74524NA+    NA+46784  37.539  41.998  13.435
74525NA+    NA+46785  29.526  12.819   4.182
74526NA+    NA+46786  38.941  37.554  11.609
74527NA+    NA+46787  27.447  34.516   3.870
74528NA+    NA+46788   3.349  14.684   0.264
74529NA+    NA+46789  44.761  10.808   0.818
74530NA+    NA+46790  24.051  34.911  11.398
74531NA+    NA+46791  27.072   4.727  13.896
74532NA+    NA+46792  12.704  31.897  11.905
74533NA+    NA+46793  10.162  32.554   1.833
74534NA+    NA+46794  31.101  42.877   4.722
74535NA+    NA+46795  12.347  27.480   1.351
74536NA+    NA+46796   9.349  40.454   3.265
74537NA+    NA+46797  32.601  24.678  13.879
74538NA+    NA+46798  34.096  19.713  11.575
74539NA+    NA+46799  40.964   1.773  13.439
74540NA+    NA+46800  10.855  31.492   1.729
74541NA+    NA+46801  25.122  13.806  13.903
74542NA+    NA+46802   9.158  19.591   4.122
74543NA+    NA+46803  11.631   9.689   2.758
74544NA+    NA+46804  30.970  32.943   0.809
74545NA+    NA+46805  13.107  15.171  10.953
74546NA+    NA+46806  42.030  28.989   0.891
74547NA+    NA+46807  21.168   2.376  14.467
74548NA+    NA+46808  20.554  38.942  13.042
74549NA+    NA+46809   9.854  31.549   1.403
74550NA+    NA+46810  42.015  36.564   1.933
74551NA+    NA+46811  35.916  32.042  14.480
74552NA+    NA+46812  40.324  19.276  14.844
74553NA+    NA+46813   6.835  44.950  11.480
74554NA+    NA+46814  15.781   5.735   3.764
74555NA+    NA+46815  13.316  39.015   0.394
74556NA+    NA+46816  25.697  32.995   1.908
74557NA+    NA+46817  15.648  32.428  13.376
74558NA+    NA+46818  15.761   2.240  13.799
74559NA+    NA+46819  27.472  32.920  13.927
74560NA+    NA+46820  44.871  18.050   4.242
74561NA+    NA+46821  38.822   7.757  14.360
74562NA+    NA+46822  37.340  20.684   2.383
74563NA+    NA+46823  30.938   7.708   4.317
74564NA+    NA+46824   4.710  11.198  13.058
74565NA+    NA+46825  20.194  23.102   2.802
74566NA+    NA+46826  27.028  26.695  12.846
74567NA+    NA+46827  14.705  24.989  10.063
74568NA+    NA+46828  27.513  18.269   1.723
74569NA+    NA+46829  32.914  28.095   1.888
74570NA+    NA+46830  23.666  18.225   3.808
74571NA+    NA+46831  10.759  24.569  12.575
74572NA+    NA+46832  14.143  40.950  14.353
74573NA+    NA+46833   2.330  33.472  13.010
74574NA+    NA+46834  43.465  13.778  14.996
74575NA+    NA+46835  15.734  23.110  14.797
74576NA+    NA+46836  32.999  40.842   2.800
74577NA+    NA+46837  12.123  12.308  12.438
74578NA+    NA+46838   3.755   0.411   1.777
74579NA+    NA+46839  15.817  33.055  12.421
74580NA+    NA+46840  26.658  25.168   1.223
74581NA+    NA+46841  33.594  27.600  11.604
74582NA+    NA+46842  20.057  17.718  14.423
74583CL-    CL-46843  30.162  28.437  13.907
74584CL-    CL-46844  26.588  26.507   3.645
74585CL-    CL-46845  25.686  20.675  12.433
74586CL-    CL-46846  34.080  22.020   1.774
74587CL-    CL-46847   1.478  11.767  12.995
74588CL-    CL-46848  24.636   2.308   4.774
74589CL-    CL-46849  17.800  29.473   3.724
74590CL-    CL-46850  29.664  43.921   4.134
74591CL-    CL-46851  43.477   3.254   5.277
74592CL-    CL-46852   9.657  11.138  11.029
74593CL-    CL-46853  39.989  35.871  11.912
74594CL-    CL-46854  28.624  18.269   3.238
74595CL-    CL-46855  44.327  30.486   0.314
74596CL-    CL-46856  18.066  20.535   4.337
74597CL-    CL-46857  27.193  16.226   2.731
74598CL-    CL-46858  27.531  28.448   0.872
74599CL-    CL-46859  30.984   2.260  10.417
74600CL-    CL-46860  13.715   5.824  14.969
74601CL-    CL-46861  15.122  16.742  11.045
74602CL-    CL-46862   4.373  16.606  11.452
74603CL-    CL-46863  25.713  27.667  12.980
74604CL-    CL-46864  26.176  33.582  13.309
74605CL-    CL-46865  22.583  25.689   2.413
74606CL-    CL-46866  15.694   5.220   3.201
74607CL-    CL-46867  40.909  44.282   0.751
74608CL-    CL-46868   5.238  33.085   0.867
74609CL-    CL-46869  16.813  34.943  14.014
74610CL-    CL-46870  39.987  39.958   0.765
74611CL-    CL-46871   8.387  16.811  13.351
74612CL-    CL-46872  37.993  20.214  12.369
74613CL-    CL-46873   1.877   0.878   4.694
74614CL-    CL-46874  38.892  16.072   1.832
74615CL-    CL-46875  37.415  38.965   0.811
74616CL-    CL-46876  31.536  28.139   3.300
74617CL-    CL-46877  26.162  18.570  12.890
74618CL-    CL-46878   7.213  21.687   1.221
74619CL-    CL-46879  41.959  44.464  11.100
74620CL-    CL-46880  10.845  18.072   0.383
74621CL-    CL-46881  21.174  28.577  14.327
74622CL-    CL-46882   6.786  14.210  13.310
74623CL-    CL-46883   3.321  38.064  14.424
74624CL-    CL-46884  36.500  18.781   9.953
74625CL-    CL-46885  12.250   0.326  11.524
74626CL-    CL-46886  36.097  14.729  13.485
74627CL-    CL-46887   4.275  19.558   3.829
74628CL-    CL-46888   7.801  37.480   3.775
74629CL-    CL-46889   5.825  28.120   1.857
74630CL-    CL-46890  12.121   5.922   0.764
74631CL-    CL-46891  41.424  12.855   1.300
74632CL-    CL-46892  21.240  12.153  13.462
74633CL-    CL-46893   1.367  32.441  11.012
74634CL-    CL-46894  20.084  43.281   3.633
74635CL-    CL-46895  12.197  35.920  10.989
74636CL-    CL-46896  21.144  29.533  11.031
74637CL-    CL-46897  24.176  15.149   4.341
74638CL-    CL-46898  16.197   9.762  12.522
74639CL-    CL-46899  37.910   6.195   0.293
74640CL-    CL-46900  17.201  24.157  13.372
74641CL-    CL-46901  33.382   5.759   3.184
74642CL-    CL-46902  39.955   5.228  13.328
74643CL-    CL-46903  24.129  34.988   1.369
74644CL-    CL-46904  27.475  41.369  10.464
74645CL-    CL-46905  43.799  33.028   2.356
74646CL-    CL-46906  29.011   3.411  14.945
74647CL-    CL-46907  24.718  16.783   1.857
74648CL-    CL-46908   3.877  10.369  13.958
74649CL-    CL-46909  26.146  36.915   3.772
74650CL-    CL-46910  33.511   5.774  12.884
74651CL-    CL-46911  38.872  40.927  12.899
74652CL-    CL-46912  41.788  11.689  10.943
74653CL-    CL-46913   8.329  21.719   0.444
74654CL-    CL-46914  30.125  30.422   3.186
74655CL-    CL-46915  17.122  32.979   3.318
74656CL-    CL-46916   7.415  31.438  13.399
74657CL-    CL-46917   5.242  24.181  14.467
74658CL-    CL-46918  14.623  36.860   3.180
74659CL-    CL-46919  19.584   8.346   4.285
74660CL-    CL-46920  42.893  27.515   3.737
74661CL-    CL-46921   7.830  41.411   0.761
74662CL-    CL-46922  15.146  44.796  13.993
74663CL-    CL-46923   0.485   3.936  14.382
74664CL-    CL-46924  31.978  24.592   4.614
74665CL-    CL-46925  19.750  40.947   4.221
74666CL-    CL-46926  18.579  29.163   1.278
74667CL-    CL-46927  34.560   1.804   1.298
74668CL-    CL-46928  43.979  38.499   3.731
74669CL-    CL-46929  12.361  42.809  10.980
74670CL-    CL-46930   4.823   0.285   0.810
74671CL-    CL-46931  41.840  38.905  10.415
74672CL-    CL-46932  22.690  35.560   1.854
74673CL-    CL-46933  17.614   6.764  13.956
74674CL-    CL-46934  31.554   6.393   3.386
74675CL-    CL-46935  37.546  13.292   3.774
74676CL-    CL-46936  18.150  14.102   3.307
74677CL-    CL-46937  27.594  33.995  11.440
74678CL-    CL-46938   2.796  16.708   3.828
74679CL-    CL-46939  40.862  17.229   1.926
74680CL-    CL-46940   4.883   1.963   1.710
74681CL-    CL-46941   0.354  18.649   4.670
74682CL-    CL-46942  34.113   7.668   2.877
74683CL-    CL-46943  30.525  28.660   1.847
74684CL-    CL-46944   0.760   8.243  11.959
74685CL-    CL-46945  20.552  42.809   2.841
74686CL-    CL-46946   1.939  29.052  11.494
74687CL-    CL-46947  41.344  11.128   1.825
74688CL-    CL-46948  22.201  29.991   0.362
74689CL-    CL-46949  26.484  42.489  12.471
74690CL-    CL-46950  41.007  42.324  12.878
74691CL-    CL-46951  32.990  42.961   1.421
74692CL-    CL-46952  42.000  10.359  11.598
74693CL-    CL-46953   4.250  39.525   2.815
74694CL-    CL-46954  42.483  13.610  13.493
74695CL-    CL-46955   1.262  19.039  14.886
74696CL-    CL-46956  39.940   5.813  11.125
74697CL-    CL-46957   4.769  16.573  12.436
74698CL-    CL-46958  29.083  32.928  10.427
74699CL-    CL-46959  35.439  26.536  10.600
74700CL-    CL-46960  23.627  27.646  13.878
74701CL-    CL-46961  39.975  34.535  14.913
74702CL-    CL-46962   9.882  35.468  14.500
74703CL-    CL-46963  30.142  27.054   0.901
74704CL-    CL-46964  18.602   2.299   1.932
74705CL-    CL-46965  38.903  18.704   0.788
74706CL-    CL-46966  10.230  12.217   0.910
74707CL-    CL-46967  28.009  42.831   2.831
74708CL-    CL-46968  13.763  25.068   3.676
74709CL-    CL-46969   7.893  36.368   1.903
74710CL-    CL-46970  29.553  33.931   3.258
74711CL-    CL-46971   6.371  34.091  10.938
74712CL-    CL-46972  27.000  39.354   5.272
74713CL-    CL-46973  23.083  16.612  14.458
74714CL-    CL-46974  43.331  31.934  10.595
74715CL-    CL-46975   3.417  42.861   2.304
74716CL-    CL-46976   2.317  26.126  11.935
74717CL-    CL-46977  20.149  24.600   4.640
74718CL-    CL-46978   2.841   2.930  10.576
74719CL-    CL-46979   3.385   5.773   2.826
74720CL-    CL-46980  21.167  12.317   3.338
74721CL-    CL-46981  24.025  34.012  12.047
74722CL-    CL-46982  14.716  10.335   2.822
74723CL-    CL-46983  35.530  19.106  12.428
74724CL-    CL-46984  31.062  17.610  12.468
74725CL-    CL-46985  35.483  37.893  10.578
74726CL-    CL-46986   3.718   4.348   0.443
74727CL-    CL-46987  13.803  43.765  11.004
74728CL-    CL-46988  12.308  32.101  12.567
74729CL-    CL-46989   1.762  44.819   3.744
74730CL-    CL-46990  37.370  17.250  10.520
74731CL-    CL-46991   7.827  19.544   2.671
74732CL-    CL-46992  10.218  42.377   1.227
74733CL-    CL-46993  30.652   0.756   2.234
74734CL-    CL-46994  24.483   0.290   4.711
74735CL-    CL-46995  15.799   1.343  10.937
74736CL-    CL-46996  14.193   8.688   4.137
74737CL-    CL-46997  31.019  26.090   0.892
74738CL-    CL-46998   4.340  10.363  12.045
74739CL-    CL-46999  36.396  10.761   1.368
74740CL-    CL-47000   3.868  33.552  10.977
74741CL-    CL-47001   8.351  41.005   2.747
74742CL-    CL-47002   4.263  17.267  10.898
74743CL-    CL-47003  27.486  34.946   1.392
74744CL-    CL-47004   9.862  34.927  13.039
74745CL-    CL-47005  16.198   6.701  12.995
74746CL-    CL-47006   8.870  37.463   1.226
74747CL-    CL-47007  21.248   8.870   2.727
74748CL-    CL-47008  25.008  26.559   0.846
74749CL-    CL-47009  13.134  30.520  12.487
74750CL-    CL-47010  15.813  35.452  12.527
74751CL-    CL-47011  16.224  18.719  13.445
74752CL-    CL-47012   0.385  36.415  13.476
74753CL-    CL-47013  27.954  35.490   4.244
74754CL-    CL-47014  43.456  12.238   4.675
74755CL-    CL-47015   6.187  41.881   1.420
74756CL-    CL-47016  29.132  18.740   4.207
74757CL-    CL-47017  42.908  12.805   0.921
74758CL-    CL-47018   6.406  40.963  11.922
74759CL-    CL-47019   1.784  11.754  10.465
74760CL-    CL-47020  17.149  11.193  14.311
74761CL-    CL-47021  30.149  30.079  12.067
74762CL-    CL-47022   5.215  39.453   3.257
74763CL-    CL-47023  40.432   4.811   2.329
74764CL-    CL-47024  38.415  18.605  13.434
74765CL-    CL-47025  26.588  18.191   9.972
74766CL-    CL-47026   1.331  14.237  12.053
74767CL-    CL-47027  28.931   8.299   1.372
74768CL-    CL-47028  26.465  26.508   4.149
74769CL-    CL-47029  44.963  20.591   4.677
74770CL-    CL-47030  26.668  12.750   0.864
74771CL-    CL-47031   6.195  22.616   3.190
74772CL-    CL-47032  37.468  15.325   3.855
74773CL-    CL-47033   8.704  44.865   2.264
74774CL-    CL-47034   0.304  23.529  13.956
74775CL-    CL-47035  37.487  14.820  14.848
74776CL-    CL-47036  13.744   8.811   0.810
74777CL-    CL-47037  32.934  19.204  12.510
74778CL-    CL-47038  17.728  20.106  13.951
74779CL-    CL-47039  34.102  17.618  13.012
74780CL-    CL-47040  30.526  12.141   3.754
74781CL-    CL-47041   8.254  17.631   0.250
74782CL-    CL-47042  25.978  23.012   2.752
74783CL-    CL-47043  40.821  14.184   4.668
74784CL-    CL-47044   8.181   5.214   4.178
74785CL-    CL-47045  19.197  18.723   3.268
74786CL-    CL-47046  44.371  14.657   2.201
74787CL-    CL-47047  33.903  15.283   3.835
74788CL-    CL-47048   9.669   0.807   2.304
74789CL-    CL-47049  12.316  41.309   0.435
74790CL-    CL-47050   3.871  17.131  10.492
74791CL-    CL-47051  43.349  36.455   3.297
74792CL-    CL-47052   4.282   2.350  13.321
74793CL-    CL-47053  41.988  41.337  11.480
74794CL-    CL-47054   1.955  19.129   3.692
74795CL-    CL-47055  39.458  22.541   0.798
74796CL-    CL-47056  18.132  36.514  11.882
74797CL-    CL-47057  22.582  31.985  10.056
74798CL-    CL-47058  13.216  30.145  10.975
74799CL-    CL-47059  30.081  42.000   1.400
74800CL-    CL-47060  35.863   4.416  11.037
74801CL-    CL-47061  18.145  10.665  12.069
74802CL-    CL-47062  17.075  31.925   0.737
74803CL-    CL-47063  25.131  38.355   0.373
74804CL-    CL-47064   9.730  20.719  11.899
74805CL-    CL-47065  21.698  10.198   3.347
74806CL-    CL-47066  13.700  32.612   4.685
74807CL-    CL-47067   8.749  30.983   0.776
74808CL-    CL-47068   0.361   0.290   4.333
74809CL-    CL-47069  35.548   5.786  12.964
74810CL-    CL-47070  20.232  36.438   0.939
74811CL-    CL-47071  33.125  22.543   3.372
74812CL-    CL-47072  25.174  15.282   3.700
74813CL-    CL-47073  13.203  17.595   1.307
74814CL-    CL-47074   1.783  24.545   3.722
74815CL-    CL-47075  10.252  14.780  11.504
74816CL-    CL-47076   2.363  42.828  11.582
74817CL-    CL-47077   7.244  20.174  12.358
74818CL-    CL-47078   8.276   8.208  14.432
74819CL-    CL-47079   5.235  29.630  11.402
74820CL-    CL-47080  30.083   3.809   1.879
74821CL-    CL-47081  37.452   7.179   4.290
74822CL-    CL-47082  36.482  31.025  10.983
74823CL-    CL-47083   4.790  31.131  12.027
74824CL-    CL-47084  11.256   9.273   0.446
74825CL-    CL-47085   1.366  21.095   2.262
74826CL-    CL-47086   4.275  41.361  14.362
74827CL-    CL-47087  21.663  14.679   2.271
74828CL-    CL-47088  39.401  11.711   0.277
74829CL-    CL-47089  22.713   1.362  11.551
74830CL-    CL-47090  38.970  31.620   4.669
74831CL-    CL-47091   2.344  24.076  11.605
74832CL-    CL-47092   5.750  28.505   1.928
74833CL-    CL-47093  43.297  10.204  11.599
74834CL-    CL-47094  30.070  31.553  10.434
74835CL-    CL-47095  42.428  38.519   3.747
74836CL-    CL-47096   5.884  35.036   1.754
74837CL-    CL-47097   1.972   5.792   2.271
74838CL-    CL-47098   7.356  36.394  11.387
74839CL-    CL-47099   9.239  40.937  11.380
74840CL-    CL-47100  41.823  15.750   0.786
74841CL-    CL-47101  32.441  34.607   2.694
74842CL-    CL-47102  14.194  28.111   1.228
74843CL-    CL-47103  41.023   5.266  14.775
74844CL-    CL-47104  30.631  29.120  14.348
74845CL-    CL-47105   2.384   5.338  12.823
74846CL-    CL-47106  11.813  19.639   0.335
74847CL-    CL-47107  29.519  33.004  13.957
74848CL-    CL-47108  19.265  12.781  14.405
74849CL-    CL-47109  44.329  39.987  12.433
74850CL-    CL-47110   0.419  41.464   3.346
74851CL-    CL-47111   4.815  29.940  11.394
74852CL-    CL-47112  14.127   4.765   4.664
74853CL-    CL-47113  40.923  41.415  13.013
74854CL-    CL-47114  43.885   9.775   4.814
74855CL-    CL-47115   5.843   7.329  11.111
74856CL-    CL-47116  29.961   9.855   4.340
74857CL-    CL-47117  44.332  37.498   4.731
74858CL-    CL-47118   9.374  27.465   1.299
74859CL-    CL-47119   9.321  28.124   1.779
74860CL-    CL-47120  25.670   4.354   4.605
74861CL-    CL-47121  37.940  24.569  12.350
74862CL-    CL-47122   2.743  16.782  10.484
74863CL-    CL-47123  30.445  26.602  10.922
74864CL-    CL-47124  33.020  42.471  11.062
74865CL-    CL-47125   2.407   2.902  10.437
74866CL-    CL-47126   9.702   0.817  13.346
74867CL-    CL-47127  33.906  18.689  11.492
74868CL-    CL-47128  27.685  40.828   2.741
74869CL-    CL-47129  38.928  17.291  13.879
74870CL-    CL-47130  33.921  35.946  11.116
74871CL-    CL-47131  42.812   7.796   0.416
74872CL-    CL-47132   7.709  41.529  11.542
74873CL-    CL-47133  23.042   1.369  14.802
74874CL-    CL-47134  38.991  24.634   2.836
74875CL-    CL-47135  23.617  11.696  12.531
74876CL-    CL-47136  11.831   2.887  10.465
74877CL-    CL-47137  21.095  13.816   0.468
74878CL-    CL-47138  42.988  35.007   2.691
74879CL-    CL-47139  29.043   1.404   3.849
74880CL-    CL-47140  43.890  25.196   3.701
74881CL-    CL-47141  15.264  31.901  14.279
74882CL-    CL-47142  36.893   1.785  14.812
74883CL-    CL-47143  11.134   7.866   4.323
74884CL-    CL-47144  26.992  21.054  11.450
74885CL-    CL-47145   7.210  41.020  14.506
74886CL-    CL-47146  15.602   0.839   5.260
74887CL-    CL-47147  17.095  37.047  13.437
74888CL-    CL-47148  20.671  34.050  13.980
74889CL-    CL-47149   0.854  37.874  10.161
74890CL-    CL-47150  20.142   5.363  10.104
74891CL-    CL-47151  29.132   2.432  14.399
74892CL-    CL-47152  11.745   3.795  12.423
74893CL-    CL-47153  35.864  41.378  14.798
74894CL-    CL-47154  24.699  17.702  10.548
74895CL-    CL-47155  27.513  17.273   0.943
74896CL-    CL-47156  28.659   3.222   0.799
74897CL-    CL-47157  43.398  42.781   1.252
74898CL-    CL-47158  42.327  26.703   0.955
74899CL-    CL-47159  27.017   2.281  11.549
74900CL-    CL-47160  36.957  29.655   0.875
74901CL-    CL-47161  43.961  27.196  11.970
74902CL-    CL-47162  25.639  21.611   2.306
74903CL-    CL-47163  19.536   9.724   4.781
74904CL-    CL-47164  18.162   6.688   1.331
74905CL-    CL-47165  14.644  26.607  12.023
74906CL-    CL-47166   5.331  16.797   0.475
74907CL-    CL-47167  17.275  27.640  12.067
74908CL-    CL-47168  30.499  35.973   4.263
74909CL-    CL-47169  32.558  34.495   0.301
74910CL-    CL-47170  10.808  42.521  10.460
74911CL-    CL-47171  44.456  24.626   2.353
74912CL-    CL-47172  28.950   3.254   2.360
74913CL-    CL-47173  17.556   5.327   0.481
74914CL-    CL-47174  22.036   3.216  12.877
74915CL-    CL-47175  16.710  38.425   4.792
74916CL-    CL-47176   1.736   2.741   2.362
74917CL-    CL-47177  42.859  26.179   0.912
74918CL-    CL-47178  24.614  12.743  11.874
74919CL-    CL-47179   0.850  25.097  11.914
74920CL-    CL-47180   2.905   9.291  12.369
74921CL-    CL-47181  36.096  12.798  10.630
74922CL-    CL-47182  32.032  17.170   1.418
74923CL-    CL-47183  37.570  31.899  14.353
74924CL-    CL-47184  34.954  40.845  10.468
74925CL-    CL-47185  44.423  10.328  11.042
74926CL-    CL-47186  14.337  28.541   2.833
74927CL-    CL-47187   7.289  38.346  12.461
74928CL-    CL-47188  27.973  12.853  12.844
74929CL-    CL-47189   9.355  21.072  14.905
74930CL-    CL-47190  19.617  41.520  12.538
74931CL-    CL-47191  13.305  25.670  14.775
74932CL-    CL-47192  33.885  31.444  11.058
74933CL-    CL-47193  33.520  40.365   3.850
74934CL-    CL-47194  14.647   3.309  14.020
74935CL-    CL-47195  16.796  27.569  13.433
74936CL-    CL-47196   4.881   8.266  10.488
74937CL-    CL-47197  31.502  31.901   3.833
74938CL-    CL-47198   8.842  33.979  11.092
74939CL-    CL-47199  23.707  10.742  14.291
74940CL-    CL-47200  36.426  19.170   9.525
74941CL-    CL-47201  17.263  10.265   5.144
74942CL-    CL-47202  29.536  19.541   4.336
74943CL-    CL-47203   0.406  21.069  13.369
74944CL-    CL-47204  26.979  28.940  12.035
74945CL-    CL-47205  14.685  12.200   2.273
74946CL-    CL-47206  10.794  44.291  14.507
74947CL-    CL-47207  17.622  21.026  11.956
74948CL-    CL-47208   8.286   2.326  11.424
74949CL-    CL-47209  36.464  42.324   0.267
74950CL-    CL-47210  25.044  19.562   1.408
74951CL-    CL-47211  35.952   5.788   2.750
74952CL-    CL-47212  28.598  14.771  10.404
74953CL-    CL-47213  21.088   3.359  14.917
74954CL-    CL-47214  34.117   9.745  14.412
74955CL-    CL-47215  38.837  38.430  12.412
74956CL-    CL-47216  39.339   5.915  14.388
74957CL-    CL-47217  26.620  40.455   1.332
74958CL-    CL-47218  14.121  37.948   3.724
74959CL-    CL-47219   4.291  32.092  10.485
74960CL-    CL-47220  26.586  18.578   2.797
74961CL-    CL-47221  38.438  15.812   9.949
74962CL-    CL-47222  19.171  34.493   0.917
74963CL-    CL-47223  30.577  17.651   0.357
74964CL-    CL-47224  16.175   5.324  13.386
74965CL-    CL-47225   2.240   1.258  14.427
74966CL-    CL-47226  11.830  10.366   2.692
74967CL-    CL-47227  35.386  13.112  11.906
74968CL-    CL-47228  40.820   1.759   1.350
74969CL-    CL-47229   5.405   4.330  13.040
74970CL-    CL-47230   2.414  19.590   0.399
74971CL-    CL-47231  11.853   3.371  10.095
74972CL-    CL-47232  13.329  40.012  12.920
74973CL-    CL-47233  34.053  39.036   3.760
74974CL-    CL-47234  17.761  17.282  12.354
74975CL-    CL-47235   5.336  41.388  10.915
74976CL-    CL-47236  26.107  38.883   1.905
74977CL-    CL-47237  23.710  20.082   4.236
74978CL-    CL-47238  14.731   8.879   4.295
74979CL-    CL-47239  15.282  33.385   2.373
74980CL-    CL-47240   2.819  25.631   1.314
74981CL-    CL-47241  21.110   6.257   2.880
74982CL-    CL-47242  12.156  23.220   4.217
74983CL-    CL-47243  10.293  44.486   2.352
74984CL-    CL-47244  13.191   9.280   0.455
74985CL-    CL-47245  33.560  34.554   3.688
74986CL-    CL-47246  15.196  15.588  11.101
74987CL-    CL-47247  33.068  23.531   2.876
74988CL-    CL-47248  31.504  28.535   0.875
74989CL-    CL-47249   4.791  29.549   1.317
74990CL-    CL-47250  18.579   0.825  13.975
74991CL-    CL-47251  13.806  44.844  13.465
74992CL-    CL-47252  37.040  20.707  11.066
74993CL-    CL-47253  10.634  32.919   0.804
74994CL-    CL-47254   3.438  19.774   2.314
74995CL-    CL-47255  23.178  37.071   0.947
74996CL-    CL-47256   8.797   0.419   4.683
74997CL-    CL-47257  21.017   7.792  14.762
74998CL-    CL-47258  19.188  14.109  13.964
74999CL-    CL-47259  23.051  25.068   2.702
75000CL-    CL-47260  41.501   4.865   2.282
75001CL-    CL-47261  34.929   2.321   3.650
75002CL-    CL-47262  30.968  15.674  12.017
75003CL-    CL-47263  36.505  26.028  12.529
75004CL-    CL-47264   6.919  17.147   2.205
75005CL-    CL-47265  31.020  43.319   2.800
75006CL-    CL-47266  34.975  20.719   0.931
75007CL-    CL-47267   5.859  37.402  14.831
75008CL-    CL-47268   9.190  15.117   3.216
75009CL-    CL-47269  23.515  21.694   2.795
75010CL-    CL-47270   5.815  16.635   3.798
75011CL-    CL-47271  33.495  30.101   2.377
75012CL-    CL-47272  40.933  43.494   3.215
75013CL-    CL-47273  39.424  16.725   2.290
75014CL-    CL-47274  11.699   9.737  11.000
75015CL-    CL-47275  39.481   2.862  14.375
75016CL-    CL-47276  20.610  34.392  13.898
75017CL-    CL-47277  33.971  10.172  14.306
75018CL-    CL-47278  29.114  34.444  14.909
75019CL-    CL-47279  33.442  35.431  13.849
75020CL-    CL-47280  38.540  26.077  14.364
75021CL-    CL-47281  29.980   8.873  12.377
75022CL-    CL-47282  10.776  41.961   2.671
75023CL-    CL-47283  16.310   9.871  14.387
75024CL-    CL-47284  30.444  14.221   1.334
75025CL-    CL-47285   9.288  35.028  12.494
75026CL-    CL-47286   6.297   5.380  13.885
75027CL-    CL-47287  12.325  43.297  12.470
75028CL-    CL-47288  17.282  18.754  12.457
75029CL-    CL-47289  23.646  16.768  14.970
75030CL-    CL-47290  29.089  39.487   3.214
75031CL-    CL-47291  23.176  15.172   2.882
75032CL-    CL-47292  16.804  43.477  12.825
75033CL-    CL-47293  27.026  24.614  13.416
75034CL-    CL-47294  43.294   7.187  11.447
75035CL-    CL-47295  23.021  19.712  13.441
75036CL-    CL-47296  20.115  27.099   0.446
75037CL-    CL-47297  19.193  27.044   1.392
75038CL-    CL-47298  11.691  19.620   1.322
75039CL-    CL-47299  27.487  25.963   4.327
75040CL-    CL-47300  20.630  43.409   4.264
75041CL-    CL-47301  20.039  42.966  13.929
75042CL-    CL-47302  25.090   8.366   2.342
75043CL-    CL-47303  38.982  18.156   4.324
75044CL-    CL-47304  25.068  23.641  13.958
75045CL-    CL-47305  14.710  21.245   1.303
75046CL-    CL-47306  43.895  19.234  10.579
75047CL-    CL-47307  27.165  20.756  12.978
75048CL-    CL-47308  29.926  23.692  12.349
75049CL-    CL-47309  38.971  13.184   3.675
75050CL-    CL-47310  13.267  27.081  12.362
75051CL-    CL-47311  40.469  25.599  11.442
75052CL-    CL-47312  32.115  21.544  13.981
75053CL-    CL-47313  41.296  33.118   2.743
75054CL-    CL-47314   1.409   0.469   4.278
75055CL-    CL-47315  37.877  41.400   4.789
75056CL-    CL-47316  25.642  31.419  11.003
75057CL-    CL-47317   4.255  44.962   3.680
75058CL-    CL-47318  43.914   7.826   0.353
75059CL-    CL-47319  34.998  44.265   2.340
75060CL-    CL-47320   9.741  33.462   4.828
75061CL-    CL-47321  19.625   9.850  11.423
75062CL-    CL-47322  35.499  31.898  14.438
75063CL-    CL-47323  10.327  28.604  13.423
75064CL-    CL-47324  40.927  10.188  10.513
75065CL-    CL-47325  41.366  35.382   4.651
75066CL-    CL-47326  18.544  25.163  10.637
75067CL-    CL-47327  37.839   9.273   1.762
75068CL-    CL-47328  11.157  29.093   5.749
75069CL-    CL-47329   2.422  23.012  13.909
75070CL-    CL-47330  21.032  24.585   2.288
75071CL-    CL-47331  43.358  10.797   4.332
75072CL-    CL-47332  37.942  19.543  13.920
75073CL-    CL-47333  33.959  16.230  14.318
75074CL-    CL-47334  15.709  21.146   0.270
75075CL-    CL-47335  32.971  21.697   4.195
75076CL-    CL-47336  10.843  29.580   3.675
75077CL-    CL-47337  35.576   8.689  11.894
75078CL-    CL-47338  25.580  43.919  14.356
75079CL-    CL-47339   5.706  31.956   2.371
75080CL-    CL-47340  17.239  29.506   3.674
75081CL-    CL-47341  12.689  31.597   4.680
75082CL-    CL-47342  23.046  20.529   3.343
75083CL-    CL-47343  37.359  36.981  13.437
75084CL-    CL-47344  29.662   5.210  14.985
75085CL-    CL-47345  16.315  32.119   2.821
75086CL-    CL-47346  42.419   6.888   2.240
75087CL-    CL-47347  19.738   8.333   2.819
75088CL-    CL-47348  10.313  17.572   4.790
75089CL-    CL-47349   1.329  32.055   2.321
75090CL-    CL-47350  37.079  14.240   2.296
75091CL-    CL-47351  13.645  18.108  14.002
75092CL-    CL-47352  18.699  40.007  12.867
75093CL-    CL-47353  39.933  15.768  13.819
75094CL-    CL-47354  14.797  10.792  10.605
75095CL-    CL-47355  26.482  31.908  12.576
75096CL-    CL-47356  16.610  28.575  14.417
75097CL-    CL-47357  31.505  25.638  14.441
75098CL-    CL-47358  34.010  41.373   4.162
75099CL-    CL-47359  19.087  40.368   1.338
75100CL-    CL-47360  38.893  25.186  14.906
75101CL-    CL-47361  33.427  15.763   2.694
75102CL-    CL-47362  10.771  18.122  11.094
75103CL-    CL-47363  28.612  26.185  10.413
75104CL-    CL-47364  10.343   6.882  11.385
75105CL-    CL-47365  34.546  17.655   0.831
75106CL-    CL-47366   0.748  44.948   2.893
75107CL-    CL-47367   3.920  13.115  13.909
75108CL-    CL-47368  20.243   4.832  10.589
75109CL-    CL-47369  25.104  24.606  11.415
75110CL-    CL-47370  24.605  38.065   4.837
75111CL-    CL-47371   9.661  24.481   1.858
75112CL-    CL-47372  28.096  25.586   4.284
75113CL-    CL-47373  21.175  36.968  12.011
75114CL-    CL-47374  14.162  17.128  10.585
75115CL-    CL-47375  34.870  31.602   3.720
75116CL-    CL-47376  44.322   4.884  13.975
75117CL-    CL-47377  15.746  30.445   3.848
75118CL-    CL-47378  39.475   7.281  12.414
75119CL-    CL-47379  18.692  13.291   3.254
75120CL-    CL-47380  11.363  14.764   2.822
75121CL-    CL-47381  25.518  39.986  14.783
75122CL-    CL-47382  41.892  17.643   1.418
75123CL-    CL-47383   3.788  12.344  11.007
75124CL-    CL-47384  19.568  16.589   4.251
75125CL-    CL-47385  27.040  42.347  11.383
75126CL-    CL-47386   6.914  14.741  14.854
75127CL-    CL-47387  12.831  41.373   3.312
75128CL-    CL-47388  12.713  18.691   4.257
75129CL-    CL-47389  26.200  18.670   4.813
75130CL-    CL-47390  12.850  19.610  12.967
75131CL-    CL-47391  24.173  32.953   2.218
75132CL-    CL-47392  37.036   4.244   3.243
75133CL-    CL-47393  14.651  16.569   9.936
75134CL-    CL-47394   4.915   6.201  14.429
75135CL-    CL-47395  20.698  29.153  13.397
75136CL-    CL-47396  41.494   4.309   0.343
75137CL-    CL-47397  33.560  11.701   3.219
75138CL-    CL-47398  12.290  37.576  12.903
75139CL-    CL-47399  28.568  13.610   1.212
75140CL-    CL-47400  38.406  42.021  12.063
75141CL-    CL-47401  22.655  21.030  10.643
75142CL-    CL-47402   1.391  43.455   0.272
75143CL-    CL-47403  12.619   8.844   0.292
75144CL-    CL-47404   1.446  33.404   3.153
75145CL-    CL-47405  22.093  13.155   3.284
75146CL-    CL-47406  31.604  12.317  13.422
75147CL-    CL-47407  21.684  14.246   4.308
75148CL-    CL-47408  12.234  14.307   1.342
75149CL-    CL-47409   0.456  16.605  11.966
75150CL-    CL-47410  31.585   4.780   2.357
75151CL-    CL-47411  18.573  30.434  10.083
75152CL-    CL-47412  28.676  44.273  10.463
75153CL-    CL-47413  34.488  15.631   2.853
75154CL-    CL-47414  21.581  42.485  10.628
75155CL-    CL-47415  17.142   5.924  10.641
75156CL-    CL-47416   7.411   3.325  13.336
75157CL-    CL-47417  37.838  13.227  10.407
75158CL-    CL-47418   4.408  42.396   0.452
75159CL-    CL-47419  27.534  41.429  14.001
75160CL-    CL-47420  29.046  24.679   1.868
75161CL-    CL-47421  26.565   7.408  11.439
75162CL-    CL-47422  19.257  38.527   3.652
75163CL-    CL-47423  22.170   9.823  14.376
75164CL-    CL-47424   3.879  33.926   3.689
75165CL-    CL-47425  21.725  36.346   0.943
75166CL-    CL-47426  23.549  28.471  12.535
75167CL-    CL-47427  39.840  21.258  14.305
75168CL-    CL-47428  41.309  36.356  13.409
75169CL-    CL-47429  13.166   6.753   2.197
75170CL-    CL-47430  28.522  37.543  12.831
75171CL-    CL-47431  17.185  24.532   4.752
75172CL-    CL-47432  44.854  37.424  11.386
75173CL-    CL-47433   1.298  33.968   3.267
75174CL-    CL-47434  22.734   6.874   2.315
75175CL-    CL-47435  24.168  23.595  11.017
75176CL-    CL-47436  29.927  32.436  10.969
75177CL-    CL-47437  35.876  10.692   0.927
75178CL-    CL-47438  32.108  28.655  14.313
75179CL-    CL-47439  17.674  25.602  10.566
75180CL-    CL-47440  28.604  42.864   3.831
75181CL-    CL-47441  33.952  42.011   1.809
75182CL-    CL-47442   0.375  17.559  14.838
75183CL-    CL-47443  33.040  12.764   4.601
75184CL-    CL-47444   2.755   0.749  11.082
75185CL-    CL-47445  35.086  25.047  13.959
75186CL-    CL-47446   7.897  10.752  12.351
75187CL-    CL-47447  33.944   1.457   3.687
75188CL-    CL-47448  27.134  41.903   1.698
75189CL-    CL-47449   3.953   0.492  12.849
75190CL-    CL-47450  39.510   8.188  12.061
75191CL-    CL-47451  34.934  33.956  14.950
75192CL-    CL-47452  29.652  24.008   2.719
75193CL-    CL-47453  14.146   9.747  13.852
75194CL-    CL-47454  37.963  40.406   3.346
75195CL-    CL-47455   9.360  35.107   1.422
75196CL-    CL-47456  15.155  26.685  11.044
75197CL-    CL-47457  36.924  32.898  11.411
75198CL-    CL-47458  35.457  11.238  13.484
75199CL-    CL-47459  29.055   9.296  12.520
75200CL-    CL-47460  37.068  22.510   1.243
75201CL-    CL-47461  28.105   3.402   3.726
75202CL-    CL-47462   3.863   6.727  12.829
75203CL-    CL-47463  24.053  39.008   1.889
75204CL-    CL-47464  14.186  26.040  14.014
75205CL-    CL-47465  28.660   1.864  11.950
75206CL-    CL-47466  10.320  31.914  12.427
75207CL-    CL-47467  27.975  38.006   9.953
75208CL-    CL-47468   3.245  20.030   5.223
75209CL-    CL-47469  19.261  30.042   2.361
75210CL-    CL-47470  35.900  28.094  13.904
75211CL-    CL-47471  27.636  21.625   1.884
75212CL-    CL-47472  32.897   0.820  11.570
75213CL-    CL-47473  10.251  29.473   1.378
75214CL-    CL-47474  34.613   8.679  11.592
75215CL-    CL-47475  44.933  26.153   3.162
75216CL-    CL-47476  19.077  44.348  11.037
75217CL-    CL-47477  22.036  43.993   3.359
75218CL-    CL-47478  27.041  10.695  12.038
75219CL-    CL-47479  14.136  13.661   3.797
75220CL-    CL-47480  43.309  38.848   0.967
75221CL-    CL-47481   0.464   5.228  12.990
75222CL-    CL-47482   0.255  22.086   4.598
75223CL-    CL-47483  30.040  12.830   3.363
75224CL-    CL-47484  36.903  27.605  11.891
75225CL-    CL-47485  29.615  27.151   4.782
75226CL-    CL-47486  33.066  16.706   2.662
75227CL-    CL-47487   5.728  23.061   4.331
75228CL-    CL-47488  26.167  24.170  13.842
75229CL-    CL-47489  20.640  18.574  10.492
75230CL-    CL-47490   1.367  32.979   0.282
75231CL-    CL-47491   5.419  29.551  11.867
75232CL-    CL-47492   7.255  30.125   4.265
75233CL-    CL-47493   5.435  11.233  12.405
75234CL-    CL-47494  41.412   2.376  14.503
75235CL-    CL-47495  35.599  17.566   4.329
75236CL-    CL-47496  16.606   5.346   0.958
75237CL-    CL-47497  21.028   9.210   4.794
75238CL-    CL-47498   7.349   5.368   4.728
75239CL-    CL-47499  18.187  32.953   3.804
75240CL-    CL-47500  44.941   1.947  13.315
75241CL-    CL-47501   6.686  15.604   2.815
75242CL-    CL-47502   3.429  24.675  11.397
75243CL-    CL-47503  19.547  42.812   2.685
75244CL-    CL-47504  38.556   4.287   2.795
75245CL-    CL-47505  15.248  22.147  14.767
75246CL-    CL-47506   2.849  34.615   3.786
75247CL-    CL-47507  34.390   4.746  12.547
75248CL-    CL-47508  41.981   7.710  10.533
75249CL-    CL-47509   1.907   6.867   1.754
75250CL-    CL-47510  40.797  13.268  13.375
75251CL-    CL-47511  13.205  31.621  10.902
75252CL-    CL-47512  20.621   9.354   0.815
75253CL-    CL-47513  33.560  32.499  11.477
75254CL-    CL-47514  39.841   8.754  14.823
75255CL-    CL-47515   9.385  34.871  14.901
75256CL-    CL-47516   6.741   3.824   1.853
75257CL-    CL-47517   2.445  26.951  12.861
75258CL-    CL-47518  15.303  21.524  13.324
75259CL-    CL-47519   2.740  14.615   1.241
75260CL-    CL-47520  19.629  14.753  10.495
75261CL-    CL-47521  34.118  28.065   4.138
75262CL-    CL-47522  43.453  23.024  11.996
75263CL-    CL-47523  35.360   9.220  14.837
75264CL-    CL-47524  25.077   9.720   3.720
75265CL-    CL-47525  14.784  31.628   4.711
75266CL-    CL-47526   0.933  18.272  11.073
75267CL-    CL-47527   2.246   4.823   2.298
75268CL-    CL-47528  27.066  22.723  10.506
75269CL-    CL-47529  15.195  13.199   0.854
75270CL-    CL-47530  21.055   9.731  14.874
75271CL-    CL-47531  27.097  34.964  14.484
75272CL-    CL-47532  41.296   5.869   4.636
75273CL-    CL-47533  24.178  38.473   1.722
75274CL-    CL-47534  34.378  14.162   1.784
75275CL-    CL-47535  41.997  21.568  11.069
75276CL-    CL-47536  26.536   6.333   2.294
75277CL-    CL-47537  30.164  42.781  12.494
75278CL-    CL-47538  19.206   1.949  11.576
75279CL-    CL-47539  26.121  35.425  13.337
75280CL-    CL-47540  32.890   2.240   1.827
75281CL-    CL-47541  14.691  24.577  14.781
75282CL-    CL-47542  12.215  16.786  10.611
75283CL-    CL-47543  23.200  25.480   2.717
75284CL-    CL-47544   6.310   4.813  11.882
75285CL-    CL-47545  21.602  26.983   0.795
75286CL-    CL-47546  31.482  28.090   1.767
75287CL-    CL-47547  33.471  24.487   3.210
75288CL-    CL-47548  23.606  32.960   0.249
75289CL-    CL-47549  42.790  44.450  12.356
75290CL-    CL-47550   3.215  36.914  13.891
75291CL-    CL-47551   8.160  22.678   2.226
75292CL-    CL-47552   8.225  28.121   3.694
75293CL-    CL-47553  43.422  17.170  11.028
75294CL-    CL-47554   5.751   1.875  11.527
75295CL-    CL-47555   6.778   6.200  13.797
75296CL-    CL-47556  34.055  33.898   4.164
75297CL-    CL-47557  44.498  12.248   1.280
75298CL-    CL-47558  12.817  35.099  12.496
75299CL-    CL-47559  24.110  14.701   3.327
75300CL-    CL-47560   5.838  11.308  13.844
75301CL-    CL-47561  13.202  27.630  11.409
75302CL-    CL-47562  38.982   7.707   2.843
75303CL-    CL-47563  32.974  38.874  12.557
75304CL-    CL-47564  18.712  31.616   1.350
75305CL-    CL-47565  33.514  31.934   3.305
75306CL-    CL-47566  40.008  13.120  14.776
75307CL-    CL-47567  12.187   7.820   1.407
75308CL-    CL-47568  22.210  35.366   3.717
75309CL-    CL-47569  35.599  39.405   1.788
75310CL-    CL-47570  27.492   5.730  10.541
75311CL-    CL-47571   3.907   9.738  14.340
75312CL-    CL-47572  12.701   3.760   1.229
75313CL-    CL-47573  29.101  14.264  12.545
75314CL-    CL-47574  34.572  26.014  11.408
75315CL-    CL-47575  35.054  38.331   0.855
75316CL-    CL-47576  22.677  44.953  11.390
75317CL-    CL-47577  15.260  36.425   2.362
75318CL-    CL-47578  43.798  19.210   4.684
75319CL-    CL-47579   6.294   2.780   4.767
75320CL-    CL-47580  43.276  22.248  14.789
75321CL-    CL-47581  29.532  18.658  13.988
75322CL-    CL-47582  14.653  11.740  10.481
75323CL-    CL-47583   0.448  37.337   5.294
75324CL-    CL-47584   6.873  43.790  12.087
75325CL-    CL-47585  41.985   8.288  13.473
75326CL-    CL-47586   7.313   1.434  14.961
75327CL-    CL-47587  41.981  32.128  13.504
75328CL-    CL-47588  24.533   0.284  13.448
75329CL-    CL-47589  13.232  16.635   9.643
75330CL-    CL-47590  42.302  11.282  12.431
75331CL-    CL-47591  26.087  37.910   0.378
75332CL-    CL-47592  39.552  21.661  12.891
75333CL-    CL-47593   4.358  25.662  12.033
75334CL-    CL-47594  22.010  12.839  14.883
75335CL-    CL-47595   3.802  28.443  10.536
75336CL-    CL-47596  34.511  38.545  13.391
75337CL-    CL-47597  10.309  40.016   2.392
75338CL-    CL-47598  20.764  36.483  13.903
75339CL-    CL-47599  16.759  38.950  12.879
75340CL-    CL-47600   7.225  23.586   0.745
75341CL-    CL-47601   7.725  15.671   3.312
75342CL-    CL-47602  14.676  25.217  14.382
75343CL-    CL-47603  35.883  16.659   2.270
75344CL-    CL-47604   9.169  21.044   2.309
75345CL-    CL-47605  19.068   3.394  13.994
75346CL-    CL-47606  30.163   1.858  11.902
75347CL-    CL-47607   7.854  15.730  13.359
75348CL-    CL-47608  35.082   9.843  13.817
75349CL-    CL-47609  14.224  16.687   9.976
75350CL-    CL-47610  24.722   9.175   4.304
75351CL-    CL-47611  35.545  32.934  11.915
75352CL-    CL-47612  27.557  11.308  14.979
75353CL-    CL-47613  43.998  17.713   4.312
75354CL-    CL-47614  22.065  22.034   4.644
75355CL-    CL-47615  26.581  22.138  14.969
75356CL-    CL-47616  28.141  14.723  12.540
75357CL-    CL-47617  28.087  24.625  10.499
75358CL-    CL-47618  35.541  25.696   0.819
75359CL-    CL-47619  43.888  12.808   3.339
75360CL-    CL-47620  26.648  12.209   2.301
75361CL-    CL-47621  41.886  39.535  11.506
75362CL-    CL-47622  38.478  20.598   2.888
75363CL-    CL-47623  13.682   9.772   0.857
75364CL-    CL-47624  10.656   0.806   1.355
75365CL-    CL-47625  30.462   8.659   3.314
75366CL-    CL-47626  28.669  32.591  13.406
75367CL-    CL-47627  33.580   7.222   4.299
75368CL-    CL-47628  17.185  43.298  12.550
75369CL-    CL-47629  40.955   5.706   3.824
75370CL-    CL-47630  17.678  15.326  11.112
75371CL-    CL-47631  23.173  39.004  10.632
75372CL-    CL-47632   6.211  14.668  13.891
75373CL-    CL-47633  23.002  39.409  11.497
75374CL-    CL-47634  24.154   6.364   3.839
75375CL-    CL-47635  23.503   9.324  12.043
75376CL-    CL-47636  25.497  36.076   0.360
75377CL-    CL-47637  14.655  43.016  10.634
75378CL-    CL-47638  24.479  19.081   2.889
75379CL-    CL-47639  28.635  31.964   1.426
75380CL-    CL-47640  19.569  41.026   3.167
75381CL-    CL-47641  18.258  31.124  12.879
75382CL-    CL-47642  21.588  43.330   0.829
75383CL-    CL-47643   1.329   5.897  12.011
75384CL-    CL-47644  25.143  20.169  11.942
75385CL-    CL-47645  30.580  22.131   3.804
75386CL-    CL-47646  14.295  44.308   4.169
75387CL-    CL-47647  37.551  25.971   0.445
75388CL-    CL-47648  22.046  43.901  13.504
75389CL-    CL-47649   9.215  33.000   0.342
75390CL-    CL-47650  31.047   9.647  11.422
75391CL-    CL-47651  12.816  17.191  12.480
75392CL-    CL-47652   8.697   3.783   1.232
75393CL-    CL-47653  24.623  35.104  11.465
75394CL-    CL-47654  29.168  14.734   2.827
75395CL-    CL-47655   8.686   8.310  11.121
75396CL-    CL-47656  25.685  27.686  10.977
75397CL-    CL-47657  43.278   0.796   0.907
75398CL-    CL-47658  22.046  22.678  11.033
75399CL-    CL-47659   0.906  30.053   3.757
75400CL-    CL-47660  26.510  27.624   0.962
75401CL-    CL-47661  43.510  17.240  14.814
75402CL-    CL-47662  17.780  13.671   2.270
75403CL-    CL-47663  30.132   7.388   4.229
75404CL-    CL-47664  17.665  33.408  10.480
75405CL-    CL-47665  16.312   4.234   2.317
75406CL-    CL-47666  41.847  21.218  13.822
75407CL-    CL-47667  15.705  41.877  14.406
75408CL-    CL-47668  11.633  19.119   0.388
75409CL-    CL-47669   1.771  26.023  13.974
75410CL-    CL-47670  41.477   5.219   0.737
75411CL-    CL-47671   2.910  23.111  14.339
75412CL-    CL-47672  10.876   4.258   0.966
75413CL-    CL-47673   6.801  17.781  12.930
75414CL-    CL-47674  32.471  10.378   3.741
75415CL-    CL-47675  26.587  36.548   0.737
75416CL-    CL-47676   0.909  19.556   1.425
75417CL-    CL-47677  22.642  14.259   1.403
75418CL-    CL-47678  10.164  38.359   1.334
75419CL-    CL-47679  19.582  36.074  14.494
75420CL-    CL-47680  32.914   3.785  10.565
75421CL-    CL-47681  42.864  22.687  10.591
75422CL-    CL-47682  18.150   4.234  12.888
75423CL-    CL-47683  38.482  36.590  14.302
75424CL-    CL-47684  28.164  38.467  14.441
75425CL-    CL-47685  30.162  25.045  12.005
75426CL-    CL-47686   0.861  29.545   2.293
75427CL-    CL-47687   1.849  12.182  12.548
75428CL-    CL-47688  11.800  20.622  13.541
75429CL-    CL-47689  30.630   4.783   3.254
75430CL-    CL-47690  40.457  37.005  10.450
75431CL-    CL-47691  15.283  23.224   2.315
75432CL-    CL-47692   6.740  15.272   2.678
75433CL-    CL-47693  34.923  34.097  10.438
75434CL-    CL-47694  36.387  16.574  14.340
75435CL-    CL-47695  24.652   1.889  14.505
75436CL-    CL-47696  26.030   2.790   3.791
75437CL-    CL-47697  20.746  17.262   2.730
75438CL-    CL-47698  26.557  26.984  12.902
75439CL-    CL-47699  38.954  34.473  13.414
75440CL-    CL-47700  22.728  38.546   0.950
75441CL-    CL-47701   4.716  30.596   4.660
75442CL-    CL-47702   8.859  40.307  11.553
75443CL-    CL-47703  23.143   5.329  12.904
75444CL-    CL-47704  26.071  13.297   1.289
75445CL-    CL-47705  10.271  43.293   5.091
75446CL-    CL-47706   9.230  23.646  10.561
75447CL-    CL-47707  32.398  30.075   4.157
75448CL-    CL-47708   8.698  12.693  14.000
75449CL-    CL-47709   9.806  25.519  10.557
75450CL-    CL-47710  23.504  34.075   4.122
75451CL-    CL-47711  21.655  28.528   3.166
75452CL-    CL-47712  23.625   1.881  14.404
75453CL-    CL-47713  10.334  19.643   4.271
75454CL-    CL-47714   8.273  36.851   1.701
75455CL-    CL-47715  40.917  24.529   1.401
75456CL-    CL-47716  43.296  19.209   4.597
75457CL-    CL-47717  19.058   9.835   1.713
75458CL-    CL-47718  39.320   5.205   1.877
75459CL-    CL-47719  44.348  19.114   4.681
75460CL-    CL-47720  33.891  22.631   0.273
75461CL-    CL-47721  35.990   5.773   1.398
75462CL-    CL-47722   3.292  32.467  10.518
75463CL-    CL-47723  31.528  32.134  10.128
75464CL-    CL-47724  42.932  17.657  10.600
75465CL-    CL-47725  17.295  38.416   2.854
75466CL-    CL-47726  42.914  13.263   4.296
75467CL-    CL-47727  10.824  37.368  11.879
75468CL-    CL-47728  24.639  23.192   1.922
75469CL-    CL-47729  44.311  32.501  13.816
75470CL-    CL-47730   5.384  11.347  14.870
75471CL-    CL-47731  27.644  10.759  14.383
75472CL-    CL-47732   2.775   9.258  14.866
75473CL-    CL-47733   6.355  41.361   0.752
75474CL-    CL-47734  36.409  12.855  13.976
75475CL-    CL-47735  21.708  29.130  14.931
75476CL-    CL-47736  43.386  15.187   3.286
75477CL-    CL-47737  16.110  15.698  12.359
75478CL-    CL-47738  26.624  33.383   1.780
75479CL-    CL-47739   6.867   0.403   3.863
75480CL-    CL-47740  42.397  20.575   0.444
75481CL-    CL-47741  10.835  37.572   1.409
75482CL-    CL-47742   7.340  16.648  10.532
75483CL-    CL-47743  21.209   4.448   0.297
75484CL-    CL-47744  18.086  31.597  11.092
75485CL-    CL-47745  14.316  20.207  10.515
75486CL-    CL-47746  43.923  19.145  14.860
75487CL-    CL-47747   2.764   9.712  10.557
75488CL-    CL-47748  32.116  18.204   0.850
75489CL-    CL-47749  18.064   9.835   2.800
75490CL-    CL-47750  37.085  39.880   1.935
75491CL-    CL-47751  19.086  33.550  12.852
75492CL-    CL-47752  42.875  28.488   2.827
75493CL-    CL-47753  17.224  41.352  14.307
75494CL-    CL-47754  12.123  16.144   0.741
75495CL-    CL-47755  15.801  34.548   2.197
75496CL-    CL-47756   5.913  15.219   2.814
75497CL-    CL-47757   5.707  22.210   2.297
75498CL-    CL-47758  25.646  15.719  13.004
75499CL-    CL-47759  43.002  26.468  12.053
75500CL-    CL-47760  26.670  39.030  12.368
75501CL-    CL-47761  15.328   2.821   4.349
75502CL-    CL-47762  19.690  41.468  11.605
75503CL-    CL-47763  23.989   1.924  14.014
75504CL-    CL-47764  30.975   3.288  13.443
75505CL-    CL-47765  44.979   8.374   2.792
75506CL-    CL-47766  27.687  37.029  14.014
75507CL-    CL-47767   6.369  38.494   1.339
75508CL-    CL-47768  39.431   8.758  12.387
75509CL-    CL-47769  21.542   7.328  10.488
75510CL-    CL-47770  31.983  17.588   0.436
75511CL-    CL-47771  43.961  13.211  13.315
75512CL-    CL-47772  33.394   6.425   4.754
75513CL-    CL-47773  15.741  28.105   3.250
75514CL-    CL-47774   2.313  15.120   3.790
75515CL-    CL-47775  20.192  35.398  10.948
75516CL-    CL-47776   1.448  43.889   1.410
75517CL-    CL-47777  14.652   9.196   0.387
75518CL-    CL-47778  40.987  21.041   4.323
75519CL-    CL-47779  35.495  32.953   2.781
75520CL-    CL-47780   3.769  21.564   3.345
75521CL-    CL-47781   8.237  13.266  10.978
75522CL-    CL-47782  18.766  23.228  12.904
75523CL-    CL-47783   8.872  24.040   2.360
75524CL-    CL-47784  32.609  41.032  12.048
75525CL-    CL-47785  37.064   7.185   0.747
75526CL-    CL-47786  31.067  12.636  14.851
75527CL-    CL-47787   2.364  33.435   0.785
75528CL-    CL-47788  44.839  41.898  14.807
75529CL-    CL-47789   4.235   5.276   0.337
75530CL-    CL-47790  40.017  29.595   1.790
75531CL-    CL-47791  34.452   8.191  14.873
75532CL-    CL-47792  28.154  24.099   3.635
75533CL-    CL-47793   1.389  30.650  12.855
75534CL-    CL-47794  41.488  13.601  14.908
75535CL-    CL-47795  43.503  24.028  11.612
75536CL-    CL-47796  20.061  29.104   9.967
75537CL-    CL-47797   8.389  11.629   0.260
75538CL-    CL-47798  19.274  26.046  10.996
75539CL-    CL-47799  32.907  21.570   3.741
75540CL-    CL-47800  43.516   5.216  10.441
75541CL-    CL-47801  30.086  27.599   3.168
75542CL-    CL-47802  36.908  43.459  11.596
75543CL-    CL-47803   3.406  27.467  11.384
75544CL-    CL-47804  29.043   9.237  14.887
75545CL-    CL-47805  25.506  42.282   5.650
75546CL-    CL-47806   9.232  29.578   2.308
75547CL-    CL-47807  18.686  35.483   1.272
75548CL-    CL-47808   4.936  25.006   1.826
75549CL-    CL-47809  35.397  31.962   0.263
75550CL-    CL-47810  13.699  22.579  13.382
75551CL-    CL-47811  42.908  22.139   3.367
75552CL-    CL-47812  38.821  43.440   1.743
75553CL-    CL-47813  14.612  26.126  10.488
75554CL-    CL-47814  17.588  34.399  11.571
75555CL-    CL-47815  18.170  19.627  11.526
75556CL-    CL-47816  35.382  27.967  14.497
75557CL-    CL-47817  21.631   7.810  13.063
75558CL-    CL-47818  28.605  10.648  11.410
75559CL-    CL-47819  13.655  36.392   2.237
75560CL-    CL-47820  42.016   7.682  13.963
75561CL-    CL-47821   3.279  44.969   4.598
75562CL-    CL-47822  23.566  42.297  13.063
75563CL-    CL-47823  10.715  34.424  14.842
75564CL-    CL-47824   4.387  25.002  14.287
75565CL-    CL-47825  39.906  31.116  13.987
75566CL-    CL-47826  42.455   5.355  10.961
75567CL-    CL-47827  23.222  35.505  14.513
75568CL-    CL-47828  30.161  16.696  13.820
75569CL-    CL-47829  38.972  11.161   4.789
75570CL-    CL-47830  21.708  29.919   0.310
75571CL-    CL-47831  21.192  19.258   0.838
75572CL-    CL-47832  27.531  12.627  13.416
75573CL-    CL-47833  14.291  21.707  14.445
75574CL-    CL-47834   8.792  28.606   1.884
75575CL-    CL-47835   5.300  39.954  13.920
75576CL-    CL-47836  24.126  37.948   4.645
75577CL-    CL-47837  27.496  30.952   2.233
75578CL-    CL-47838  41.529   0.745  12.863
75579CL-    CL-47839  19.550  35.024  10.891
75580CL-    CL-47840   0.778  11.742   2.366
75581CL-    CL-47841  11.698  31.600   1.741
75582CL-    CL-47842  32.468  20.550  10.922
75583CL-    CL-47843   5.267   9.817  11.483
75584CL-    CL-47844  34.110  16.158   0.399
75585CL-    CL-47845  39.519  25.500  13.389
75586CL-    CL-47846  21.751  42.984  14.982
75587CL-    CL-47847  41.913  41.994   2.290
75588CL-    CL-47848   6.388  44.847   1.906
75589CL-    CL-47849  20.572  11.768   4.711
75590CL-    CL-47850  26.605   8.877   3.149
75591CL-    CL-47851  28.169  20.676   2.683
75592CL-    CL-47852  11.647  30.058  12.956
75593CL-    CL-47853  12.701  42.293  11.991
75594CL-    CL-47854  24.500  40.017  14.856
75595CL-    CL-47855  28.999   3.798   0.309
75596CL-    CL-47856   6.712  38.403  11.582
75597CL-    CL-47857  11.312  19.076   3.662
75598CL-    CL-47858  10.139  28.124  14.896
75599CL-    CL-47859  28.535  24.527   1.292
75600CL-    CL-47860  12.718   6.891  12.957
75601CL-    CL-47861  32.422  30.079  13.346
75602CL-    CL-47862  32.590  27.019   3.316
75603CL-    CL-47863  20.747  16.318  11.885
75604CL-    CL-47864   2.351  44.809  11.520
75605CL-    CL-47865  21.144   6.188   3.220
75606CL-    CL-47866   7.738  22.734  13.813
75607CL-    CL-47867   7.346   5.290   0.242
75608CL-    CL-47868  41.369  36.024  13.981
75609CL-    CL-47869  43.347  30.476  13.465
75610CL-    CL-47870  21.618  34.573   3.845
75611CL-    CL-47871  21.618   6.223  14.769
75612CL-    CL-47872   1.895  17.144   3.789
75613CL-    CL-47873  25.658  13.604  13.898
75614CL-    CL-47874  40.868   3.310   0.331
75615CL-    CL-47875  21.112  35.593  11.083
75616CL-    CL-47876   8.670   5.773  12.547
75617CL-    CL-47877  29.160  20.744   4.282
75618CL-    CL-47878  14.161  31.996  12.018
75619CL-    CL-47879  43.842  31.410  14.486
75620CL-    CL-47880  27.594  34.041   3.690
75621CL-    CL-47881  10.235  12.181  12.893
75622CL-    CL-47882  21.025  43.881   2.834
75623CL-    CL-47883  17.308  22.728   2.687
75624CL-    CL-47884  30.629  17.286   0.801
75625CL-    CL-47885  42.346   7.736   0.254
75626CL-    CL-47886  34.925  10.746   4.196
75627CL-    CL-47887  31.038  19.733   5.112
75628CL-    CL-47888  11.719   7.785  12.900
75629CL-    CL-47889  36.568  25.072   4.768
75630CL-    CL-47890  36.427  37.005  11.025
75631CL-    CL-47891  22.607   7.301   1.757
75632CL-    CL-47892  19.568  43.898   1.722
75633CL-    CL-47893   9.341  44.386  10.557
75634CL-    CL-47894  29.056  37.916   3.322
75635CL-    CL-47895  28.495  34.047  11.468
75636CL-    CL-47896  37.907   7.260  11.429
75637CL-    CL-47897  32.893   6.203  12.040
75638CL-    CL-47898  33.885  13.744   0.909
75639CL-    CL-47899  22.713  38.387   4.686
75640CL-    CL-47900  29.993  10.200  10.925
75641CL-    CL-47901  16.591  36.373   4.728
75642CL-    CL-47902  43.387  12.182  13.927
75643CL-    CL-47903  25.513  23.132  10.996
75644CL-    CL-47904  44.905  13.345   4.290
75645CL-    CL-47905  38.503  24.114   3.736
75646CL-    CL-47906  38.374   6.832   2.887
75647CL-    CL-47907  27.631  39.832   1.861
75648CL-    CL-47908  40.971  22.702   3.309
75649CL-    CL-47909  41.846  28.056  11.543
75650CL-    CL-47910  19.285  39.061   2.822
75651CL-    CL-47911  21.577  39.002  14.483
75652CL-    CL-47912  27.691  13.606  12.474
75653CL-    CL-47913  21.543  28.030   1.364
75654CL-    CL-47914  22.688   3.234  10.575
75655CL-    CL-47915  38.926  37.581   0.748
75656CL-    CL-47916  23.682  39.822   9.612
75657CL-    CL-47917  10.784  19.576   0.410
75658CL-    CL-47918  34.031  17.306   3.234
75659CL-    CL-47919   8.858  19.183  13.025
75660CL-    CL-47920   5.705  38.527   0.243
75661CL-    CL-47921  41.388  11.265  14.493
75662CL-    CL-47922   2.324  43.432  14.413
75663CL-    CL-47923  22.017   0.341   3.320
75664CL-    CL-47924   4.922   5.373  10.510
75665CL-    CL-47925  21.166  16.246   0.963
75666CL-    CL-47926  17.211  32.465   1.389
75667CL-    CL-47927  37.388  20.746   1.374
75668CL-    CL-47928  19.161  13.317  10.458
75669CL-    CL-47929  20.240  24.098  10.426
75670CL-    CL-47930  14.772  13.835   2.765
75671CL-    CL-47931  13.638  23.047  10.487
75672CL-    CL-47932  22.216  22.584   3.238
75673CL-    CL-47933  17.558   0.361   2.733
75674CL-    CL-47934  34.612  39.495  12.982
75675CL-    CL-47935   6.206  31.029  14.998
75676CL-    CL-47936  10.846  10.804   2.245
75677CL-    CL-47937  35.917   0.800   2.335
75678CL-    CL-47938  13.609  19.706   3.750
75679CL-    CL-47939  32.615  25.979   3.854
75680CL-    CL-47940   2.819   5.326  12.528
75681CL-    CL-47941   3.812  31.557  14.839
75682CL-    CL-47942   6.241  26.204   3.721
75683CL-    CL-47943  17.208   2.349  12.489
75684CL-    CL-47944   1.846  27.588   3.868
75685CL-    CL-47945  41.021  23.610   1.858
75686CL-    CL-47946  15.661  34.424  14.391
75687CL-    CL-47947   0.972  29.565   1.316
75688CL-    CL-47948  26.177   5.266  13.910
75689CL-    CL-47949  27.990  29.998  10.063
75690CL-    CL-47950  12.743   2.257  11.601
75691CL-    CL-47951  12.729  41.363   2.816
75692CL-    CL-47952  36.347  30.943  13.969
75693CL-    CL-47953   1.925  23.199   0.746
75694CL-    CL-47954  29.455  42.288  13.542
75695CL-    CL-47955   1.941  12.808  14.830
75696CL-    CL-47956  14.157  32.475  11.994
75697CL-    CL-47957  31.491  32.561   3.215
75698CL-    CL-47958  17.262  14.752  14.321
75699CL-    CL-47959  24.031  41.838  14.332
75700CL-    CL-47960   8.873  16.739   4.749
75701CL-    CL-47961   2.321  19.123   2.704
75702CL-    CL-47962  36.041  34.428  13.814
75703CL-    CL-47963  22.541   0.299   4.733
75704CL-    CL-47964  41.522  34.417  11.916
75705CL-    CL-47965  17.567  17.704   0.928
75706CL-    CL-47966  18.242  39.876   0.865
75707CL-    CL-47967   3.423  32.072  10.932
75708CL-    CL-47968  37.434  11.295  14.471
75709CL-    CL-47969  29.035  36.426  11.465
75710CL-    CL-47970  28.931  27.551   4.836
75711CL-    CL-47971  43.400  15.681  13.883
75712CL-    CL-47972   0.968  19.704  13.057
75713CL-    CL-47973   7.822  29.096   2.376
75714CL-    CL-47974  43.818  32.394   2.361
75715CL-    CL-47975  22.549  40.943   0.904
75716CL-    CL-47976   0.445   1.852  13.499
75717CL-    CL-47977  14.276  31.488   0.950
75718CL-    CL-47978  21.637   0.795  10.937
75719CL-    CL-47979   0.410  29.060   1.264
75720CL-    CL-47980  30.983  12.759  11.530
75721CL-    CL-47981  31.033   1.809   4.351
75722CL-    CL-47982  20.720  37.045  11.071
75723CL-    CL-47983   6.905  10.702   3.763
75724CL-    CL-47984  27.045  27.455  12.840
75725CL-    CL-47985  30.587   9.794   0.774
75726CL-    CL-47986  16.134  20.653   0.376
75727CL-    CL-47987  10.776  38.506   4.345
75728CL-    CL-47988  18.276  42.905  12.895
75729CL-    CL-47989  41.905   0.964   2.721
75730CL-    CL-47990  42.425  12.676   2.761
75731CL-    CL-47991  30.528  27.946   2.261
75732CL-    CL-47992  14.662   8.861   0.325
75733CL-    CL-47993   8.361   7.714   1.432
75734CL-    CL-47994  36.509  12.272   3.353
75735CL-    CL-47995  14.647   9.781  14.300
75736CL-    CL-47996  33.485  10.340  13.956
75737CL-    CL-47997   3.722   4.803  14.909
75738CL-    CL-47998  21.650  29.125   3.755
75739CL-    CL-47999  22.052  31.044  11.884
75740CL-    CL-48000  43.966  42.901   2.205
75741CL-    CL-48001  13.789  40.397  11.104
75742CL-    CL-48002  28.440  37.366  11.545
75743CL-    CL-48003   2.762  25.216  11.558
75744CL-    CL-48004  10.289  43.274  11.008
75745CL-    CL-48005   3.865  24.205   2.378
75746CL-    CL-48006  35.945  30.615   1.804
75747CL-    CL-48007  41.420   0.931  14.363
75748CL-    CL-48008  40.436  21.088   9.930
75749CL-    CL-48009  25.680  23.559   4.161
75750CL-    CL-48010  11.728  11.678   2.809
75751CL-    CL-48011  32.926  34.987   0.732
75752CL-    CL-48012  30.578   8.678  12.378
75753CL-    CL-48013  36.351  24.518   0.958
75754CL-    CL-48014  33.390   3.845   0.919
75755CL-    CL-48015   4.245  40.946   3.763
75756CL-    CL-48016  42.940  42.476  13.530
75757CL-    CL-48017   9.230  27.177  13.355
75758CL-    CL-48018  12.159  21.625   2.674
75759CL-    CL-48019   0.967  26.534   4.743
75760CL-    CL-48020   8.833  13.817  13.918
75761CL-    CL-48021  30.542  43.380   4.216
75762CL-    CL-48022  35.528  35.858  10.626
75763CL-    CL-48023   2.467  26.546   3.225
75764CL-    CL-48024  11.822  29.150  12.092
75765CL-    CL-48025  14.308  35.395   4.274
75766CL-    CL-48026   0.445  10.695  12.378
75767CL-    CL-48027   9.342  32.626   3.745
75768CL-    CL-48028  35.424  18.186   4.731
75769CL-    CL-48029  40.355  29.038   2.356
75770CL-    CL-48030   3.449   3.406  10.089
75771CL-    CL-48031  42.308  38.938   3.232
75772CL-    CL-48032  36.044  41.442   2.258
75773CL-    CL-48033   2.903  37.938   1.905
75774CL-    CL-48034   9.232  17.658   4.186
75775CL-    CL-48035  35.422  25.570  11.585
75776CL-    CL-48036  34.980  23.507   4.638
75777CL-    CL-48037  27.629  37.349  12.078
75778CL-    CL-48038  41.313   7.293   1.701
75779CL-    CL-48039  41.330  27.669  13.990
75780CL-    CL-48040   3.832  26.570   0.424
75781CL-    CL-48041  12.200  31.984  11.594
75782CL-    CL-48042  22.103  29.613   0.752
75783CL-    CL-48043  15.234  10.871   2.212
75784CL-    CL-48044  40.905  35.881   0.449
75785CL-    CL-48045  24.217   5.843  14.761
75786CL-    CL-48046  26.187   0.833   0.244
75787CL-    CL-48047   4.803  27.960  12.451
75788CL-    CL-48048  22.179  39.960   4.202
75789CL-    CL-48049  21.696  18.129   2.305
75790CL-    CL-48050  18.094  32.124   4.278
75791CL-    CL-48051  25.018  18.570   0.734
75792CL-    CL-48052  42.385   1.465   2.204
75793CL-    CL-48053  34.024  15.219  11.439
75794CL-    CL-48054  42.521  19.250  12.509
75795CL-    CL-48055  30.538  41.874   0.802
75796CL-    CL-48056  41.461  36.017   4.311
75797CL-    CL-48057  19.633   1.325   3.790
75798CL-    CL-48058   6.683  12.311  12.016
75799CL-    CL-48059  35.094  41.408  11.874
75800CL-    CL-48060  38.506   8.392   1.267
75801CL-    CL-48061   6.920  28.942  10.129
75802CL-    CL-48062  10.224  43.994  14.809
75803CL-    CL-48063  24.177  20.733  10.486
75804CL-    CL-48064   6.700  40.527  13.010
75805CL-    CL-48065  17.281  24.984  10.433
75806CL-    CL-48066  42.795  18.777   4.677
75807CL-    CL-48067  31.600  10.247   1.401
75808CL-    CL-48068  33.049  13.653  13.485
75809CL-    CL-48069  22.629   8.740   2.273
75810CL-    CL-48070  42.300  27.954  10.954
75811CL-    CL-48071  13.258  37.548  11.977
75812CL-    CL-48072  35.540  10.333   4.167
75813CL-    CL-48073  32.456  35.009  13.968
75814CL-    CL-48074  16.654  11.310  11.584
75815CL-    CL-48075  29.012   6.195   0.318
75816CL-    CL-48076  15.717  37.469  11.905
75817CL-    CL-48077  13.617   7.806  10.583
75818CL-    CL-48078  25.615   5.367  12.089
75819CL-    CL-48079   5.721  16.199  11.082
75820CL-    CL-48080  15.120  35.467  12.893
75821CL-    CL-48081   7.279  33.887   1.326
75822CL-    CL-48082  31.501  28.487  13.937
75823CL-    CL-48083  33.015  44.344   0.878
75824CL-    CL-48084  16.156  21.687  14.887
75825CL-    CL-48085  41.497  43.509  11.384
75826CL-    CL-48086  20.679  38.840   4.206
75827CL-    CL-48087  39.330  25.028   4.785
75828CL-    CL-48088  26.576  30.550   4.742
75829CL-    CL-48089  25.567  16.648   1.354
75830CL-    CL-48090   5.254   1.847   0.394
75831CL-    CL-48091  14.711  23.541  11.554
75832CL-    CL-48092  32.430  36.583  13.471
75833CL-    CL-48093  28.119  29.489   4.221
75834CL-    CL-48094  39.885  36.528   3.733
75835CL-    CL-48095  24.519   0.419   0.898
75836CL-    CL-48096  39.888  17.691   0.384
75837CL-    CL-48097   3.236  14.754   4.178
75838CL-    CL-48098  41.335  19.129   4.306
75839CL-    CL-48099  31.922  15.170   3.838
75840CL-    CL-48100  31.035  44.386   2.683
75841CL-    CL-48101   2.443   2.924   4.171
75842CL-    CL-48102  29.595  24.058  12.874
75843CL-    CL-48103  27.193   6.872   2.772
75844CL-    CL-48104  15.276  42.434   0.462
75845CL-    CL-48105  15.236  29.977   9.676
75846CL-    CL-48106   1.773  19.689   1.694
75847CL-    CL-48107  19.748   2.311  11.885
75848CL-    CL-48108  30.066  30.996   3.844
75849CL-    CL-48109  19.260   6.839   9.996
75850CL-    CL-48110  28.485   8.716  14.946
75851CL-    CL-48111   4.943  14.690  14.353
75852CL-    CL-48112  28.435  16.125  13.844
75853CL-    CL-48113  20.231  29.012   2.693
75854CL-    CL-48114  11.238   9.835  12.579
75855CL-    CL-48115  18.266   9.199   4.271
75856CL-    CL-48116  25.635  18.779   2.764
75857CL-    CL-48117   9.285   6.865   3.187
75858CL-    CL-48118  29.144  43.347  10.509
75859CL-    CL-48119  42.886   6.682  11.054
75860CL-    CL-48120  14.590  20.071   2.350
75861CL-    CL-48121  35.533  24.106  12.577
75862CL-    CL-48122  37.404   4.900   5.085
75863CL-    CL-48123   9.766  10.792   0.924
75864CL-    CL-48124  31.407  38.370   2.382
75865CL-    CL-48125   6.783   1.337  11.983
75866CL-    CL-48126   2.820  16.612  10.918
75867CL-    CL-48127  19.133  42.890  13.379
75868CL-    CL-48128  39.444  42.467   0.837
75869CL-    CL-48129  31.971  32.959  13.028
75870CL-    CL-48130  36.969  25.983  12.517
75871CL-    CL-48131   4.390  35.480  12.910
75872CL-    CL-48132  43.479  31.006  14.486
75873CL-    CL-48133   2.734   8.400  10.485
75874CL-    CL-48134  27.973  43.970   1.250
75875CL-    CL-48135   9.832  37.928  14.276
75876CL-    CL-48136   9.214  11.839   2.244
75877CL-    CL-48137  44.967  11.344  13.059
75878CL-    CL-48138  38.886  14.326  14.926
75879CL-    CL-48139  20.269  43.866  12.912
75880CL-    CL-48140  28.582  12.692   3.867
75881CL-    CL-48141  16.653  12.270  14.463
75882CL-    CL-48142  10.690  18.634  13.357
75883CL-    CL-48143  13.348  20.174  12.502
75884CL-    CL-48144  34.933  39.871  11.599
75885CL-    CL-48145  16.268  32.452   0.841
75886CL-    CL-48146  17.224  11.852  14.277
75887CL-    CL-48147   4.713  19.563  14.795
75888CL-    CL-48148   0.251  19.779  13.938
75889CL-    CL-48149  28.059   3.723   4.297
75890CL-    CL-48150  18.081  23.192   0.332
75891CL-    CL-48151  37.908  26.560  13.845
75892CL-    CL-48152   0.774  25.153   0.400
75893CL-    CL-48153  14.712   3.340   3.254
75894CL-    CL-48154   9.305  26.690  13.893
75895CL-    CL-48155   9.227   8.175  14.878
75896CL-    CL-48156   5.752  33.537   0.254
75897CL-    CL-48157  10.350  36.847   3.370
75898CL-    CL-48158  22.630  23.985   3.700
75899CL-    CL-48159  38.482  38.050  14.980
75900CL-    CL-48160  13.834  39.380  12.340
75901CL-    CL-48161  33.089  21.145   1.385
75902CL-    CL-48162  16.198   3.930  11.950
75903CL-    CL-48163  41.335  12.689   1.702
75904CL-    CL-48164  17.688   1.422   1.867
75905CL-    CL-48165  25.162  17.765  14.847
75906CL-    CL-48166  34.005  19.137   3.798
75907CL-    CL-48167  17.637   8.729   1.716
75908CL-    CL-48168  37.021  17.081  12.082
75909CL-    CL-48169   5.422  25.995  12.946
75910CL-    CL-48170   6.772  44.453  14.998
75911CL-    CL-48171  13.263   0.938  14.307
75912CL-    CL-48172  42.462  42.776   4.139
75913CL-    CL-48173  22.629  16.805   0.918
75914CL-    CL-48174  43.376  14.188  14.921
75915CL-    CL-48175  41.021  33.482   2.816
75916CL-    CL-48176  24.157  41.032  12.056
75917CL-    CL-48177  43.013   4.382  12.477
75918CL-    CL-48178  14.272  15.206   5.147
75919CL-    CL-48179  11.746  26.058   0.756
75920CL-    CL-48180  10.633  41.295   0.247
75921CL-    CL-48181  22.626  25.070  13.970
75922CL-    CL-48182  21.259   9.322  14.463
75923CL-    CL-48183   2.807  31.070   2.206
75924CL-    CL-48184  18.279  20.126   4.635
75925CL-    CL-48185  42.474  29.483  13.363
75926CL-    CL-48186  20.032  34.927  14.401
75927CL-    CL-48187  32.951  24.170  14.015
75928CL-    CL-48188  26.187   9.354   1.309
75929CL-    CL-48189  26.608  13.115  11.982
75930CL-    CL-48190  41.845   6.328   2.233
75931CL-    CL-48191  35.507  41.891   2.801
75932CL-    CL-48192  36.484  22.096  11.885
75933CL-    CL-48193  10.206   4.388   0.338
75934CL-    CL-48194  32.927  38.430   1.931
75935CL-    CL-48195  16.209  11.330  12.974
75936CL-    CL-48196  19.255  14.800   2.299
75937CL-    CL-48197  19.233   2.811   3.361
75938CL-    CL-48198  10.265  15.810   4.703
75939CL-    CL-48199  11.783  43.285   1.888
75940CL-    CL-48200  12.850  35.474  12.997
75941CL-    CL-48201  39.959   4.919   0.249
75942CL-    CL-48202  21.127  37.933  11.038
75943CL-    CL-48203  29.556  21.163   1.232
75944CL-    CL-48204  13.325  22.144  11.606
75945CL-    CL-48205  43.413  11.661  11.931
75946CL-    CL-48206  44.289  12.336   1.733
75947CL-    CL-48207  17.596  12.232  14.389
75948CL-    CL-48208  30.614  17.677   4.674
75949CL-    CL-48209  29.448  26.606  13.925
75950CL-    CL-48210   5.412  32.038  11.867
75951CL-    CL-48211  17.113  33.515  12.481
75952CL-    CL-48212  26.033  41.403  13.893
75953CL-    CL-48213  11.623   6.814  13.052
75954CL-    CL-48214  23.201  44.461  13.885
75955CL-    CL-48215  22.135  21.681   2.665
75956CL-    CL-48216  27.510  14.114   1.308
75957CL-    CL-48217  30.497  41.537  12.968
75958CL-    CL-48218  30.005  13.680  12.430
75959CL-    CL-48219  42.851  18.718  10.953
75960CL-    CL-48220  27.513  37.927   1.412
75961CL-    CL-48221   5.704   8.685   1.914
75962CL-    CL-48222  39.481  41.493  12.955
75963CL-    CL-48223  31.993  14.252  14.398
75964CL-    CL-48224  25.105  31.542   4.152
75965CL-    CL-48225  44.374  25.125  13.400
75966CL-    CL-48226  15.315  12.729   2.371
75967CL-    CL-48227  18.623   9.156  14.381
75968CL-    CL-48228  38.015  28.115   2.221
75969CL-    CL-48229   2.437  24.034  12.579
75970CL-    CL-48230   1.867   9.185  13.855
75971CL-    CL-48231  16.776   2.773  12.446
75972CL-    CL-48232  16.214  42.800  11.414
75973CL-    CL-48233   8.385  18.287  14.429
75974CL-    CL-48234   6.326  29.028   5.268
75975CL-    CL-48235  41.535  42.479   1.344
75976CL-    CL-48236  20.116  28.953  11.422
75977CL-    CL-48237   6.327  21.175  13.437
75978CL-    CL-48238  12.198  31.912  13.433
75979CL-    CL-48239  13.153  16.806  10.411
75980CL-    CL-48240  29.960  19.174  14.864
75981CL-    CL-48241  32.062   4.242   4.191
75982CL-    CL-48242  12.748  21.703  10.961
75983CL-    CL-48243  21.733  29.038  14.276
75984CL-    CL-48244   6.872  26.010  13.824
75985CL-    CL-48245   8.355  38.043   3.785
75986CL-    CL-48246   2.278   0.974   2.681
75987CL-    CL-48247  15.281  22.571   0.373
75988CL-    CL-48248  15.723  26.662   0.911
75989CL-    CL-48249  43.515  26.169  14.320
75990CL-    CL-48250  27.573   4.324   2.370
75991CL-    CL-48251   5.889  44.494   4.352
75992CL-    CL-48252  43.919  42.527  14.428
75993CL-    CL-48253  22.079   2.827  14.919
75994CL-    CL-48254   9.685  33.585  14.965
75995CL-    CL-48255  21.192  28.535  10.563
75996CL-    CL-48256  13.311  15.727   3.283
75997CL-    CL-48257  23.631  36.941   2.693
75998CL-    CL-48258  17.702  41.865   4.166
75999CL-    CL-48259  20.617  28.123   5.156
76000CL-    CL-48260   3.812  18.658   4.217
76001CL-    CL-48261   1.876  12.705   0.891
76002CL-    CL-48262  17.181  10.165   2.804
76003CL-    CL-48263  39.016   6.822   3.341
76004CL-    CL-48264   0.486  41.958   0.733
76005CL-    CL-48265  23.182  44.409   0.308
76006CL-    CL-48266   5.341  19.688  13.064
76007CL-    CL-48267  39.061  44.424   2.329
76008CL-    CL-48268   1.880  20.704   1.791
76009CL-    CL-48269   8.787  22.074   3.362
76010CL-    CL-48270  24.577  25.075  11.374
76011CL-    CL-48271  22.701  18.778   5.262
76012CL-    CL-48272  15.817  29.995   3.324
76013CL-    CL-48273  11.767  34.493  13.533
76014CL-    CL-48274  27.505  23.572  10.425
76015CL-    CL-48275   9.181  36.366  14.901
76016CL-    CL-48276   7.712  24.107   4.741
76017CL-    CL-48277   6.236  10.382  12.567
76018CL-    CL-48278  32.086  33.902  11.079
76019CL-    CL-48279  42.814  26.490   3.669
76020CL-    CL-48280   5.758  15.212  11.403
76021CL-    CL-48281   2.820  44.803  12.503
76022CL-    CL-48282  22.604  17.598  12.940
76023CL-    CL-48283  12.266  39.412  12.829
76024CL-    CL-48284  31.009  13.829  14.317
76025CL-    CL-48285  44.353  25.609   0.851
76026CL-    CL-48286   0.359  11.795   2.409
76027CL-    CL-48287  32.476  41.321   4.274
76028CL-    CL-48288  14.293   1.799  13.907
76029CL-    CL-48289  35.971  11.287  12.515
76030CL-    CL-48290  28.563  35.026  11.480
76031CL-    CL-48291  27.157  35.376  13.933
76032CL-    CL-48292  33.522  26.110   2.392
76033CL-    CL-48293  42.451  42.417   4.722
76034CL-    CL-48294  41.346   6.870  14.796
76035CL-    CL-48295  43.354  31.063  11.597
76036CL-    CL-48296   2.902  20.588   2.379
76037CL-    CL-48297   2.294   5.860  13.932
76038CL-    CL-48298  22.523  35.097   3.317
76039CL-    CL-48299  28.529  36.897   1.831
76040CL-    CL-48300  15.297  43.997   4.711
76041CL-    CL-48301  19.554   4.210   1.878
76042CL-    CL-48302   9.339  41.981   1.877
76043CL-    CL-48303  15.815   5.694  12.486
76044CL-    CL-48304   9.876   1.784  10.522
76045CL-    CL-48305   2.771  33.550   0.244
76046CL-    CL-48306  35.966  34.908  12.343
76047CL-    CL-48307  18.225  14.692  10.994
76048CL-    CL-48308   5.269   0.837   4.657
76049CL-    CL-48309  12.685   3.905   2.776
76050CL-    CL-48310  23.114  23.011   0.948
76051CL-    CL-48311  26.134  19.673  12.858
76052CL-    CL-48312  13.215  30.948  12.523
76053CL-    CL-48313  38.073  42.452  11.958
76054CL-    CL-48314  17.061  24.612   0.265
76055CL-    CL-48315  42.830  22.176   2.802
76056CL-    CL-48316  10.195  41.829  11.406
76057CL-    CL-48317  32.953  34.379   2.307
76058CL-    CL-48318  28.507  41.878   2.412
76059CL-    CL-48319   3.293   2.356  12.519
76060CL-    CL-48320  25.076   5.377   2.795
76061CL-    CL-48321  14.614  11.135  14.987
76062CL-    CL-48322   3.391  15.806   4.614
76063CL-    CL-48323  29.174  29.997   2.859
76064CL-    CL-48324  33.489  28.974   0.348
76065CL-    CL-48325   5.719  18.121   1.296
76066CL-    CL-48326  31.575  22.147   3.787
76067CL-    CL-48327   3.773  33.417  12.998
76068CL-    CL-48328  24.618   0.440  11.931
76069CL-    CL-48329  15.288   0.384   2.307
76070CL-    CL-48330   2.282   3.733  10.549
76071CL-    CL-48331  43.371  22.245  14.001
76072CL-    CL-48332  16.797  10.632  14.804
76073CL-    CL-48333  27.555  10.238   1.791
76074CL-    CL-48334  15.163  34.027   2.809
76075CL-    CL-48335  38.046   6.808  10.890
76076CL-    CL-48336   2.941  43.276   3.382
76077CL-    CL-48337   3.289  18.664   4.834
76078CL-    CL-48338  34.401  22.737   2.674
76079CL-    CL-48339   1.254  27.144   4.826
76080CL-    CL-48340   4.381   7.680   1.758
76081CL-    CL-48341  12.684   8.857   1.335
76082CL-    CL-48342  14.143  21.603  13.401
76083CL-    CL-48343  41.824  13.817  13.900
76084CL-    CL-48344   9.148  21.567   0.812
76085CL-    CL-48345  24.196   3.815  14.018
76086CL-    CL-48346   1.444   9.345   0.388
76087CL-    CL-48347  19.736   1.752   3.307
76088CL-    CL-48348  13.739  39.015  14.509
76089CL-    CL-48349  34.455  23.241   3.693
76090CL-    CL-48350  22.172  14.295   2.270
76091CL-    CL-48351  33.479  28.488  12.983
76092CL-    CL-48352  10.292  17.676   1.799
76093CL-    CL-48353  38.413  24.489   3.232
76094CL-    CL-48354  25.484  20.270  14.480
76095CL-    CL-48355  14.753  34.503  12.056
76096CL-    CL-48356  41.984   4.348   0.244
76097CL-    CL-48357   0.838  21.107  11.462
76098CL-    CL-48358  43.382  31.051   4.246
76099CL-    CL-48359  29.984   9.350   4.348
76100CL-    CL-48360  14.233  35.367  14.826
76101CL-    CL-48361   8.283  39.969  14.303
76102CL-    CL-48362   1.901  28.149  14.490
76103CL-    CL-48363  11.790  16.789   2.306
76104CL-    CL-48364  43.961  31.986  14.982
76105CL-    CL-48365  21.236  23.991   4.290
76106CL-    CL-48366  31.972  32.634   0.733
76107CL-    CL-48367  27.672  27.120  13.885
76108CL-    CL-48368  29.075  31.917   2.865
76109CL-    CL-48369   7.670  38.061  11.125
76110CL-    CL-48370  43.375  28.171  14.852
76111CL-    CL-48371  39.919  18.088   0.395
76112CL-    CL-48372  27.157  11.184  14.846
76113CL-    CL-48373  25.197  11.224   1.894
76114CL-    CL-48374  35.036  21.599  13.405
76115CL-    CL-48375   6.426   9.840   0.441
76116CL-    CL-48376  28.500   4.932  10.540
76117CL-    CL-48377  35.104  35.101   1.220
76118CL-    CL-48378  19.232  13.653   0.448
76119CL-    CL-48379  27.501  35.482  10.575
76120CL-    CL-48380  19.086  11.222   1.257
76121CL-    CL-48381  28.472  34.571   0.859
76122CL-    CL-48382  33.403  36.357   2.842
76123CL-    CL-48383  10.877  38.491  12.839
76124CL-    CL-48384   6.333  17.769   4.159
76125CL-    CL-48385  30.086  28.530   0.853
76126CL-    CL-48386  23.181  40.317  12.920
76127CL-    CL-48387  31.538  39.349   1.451
76128CL-    CL-48388  43.919  12.200  11.456
76129CL-    CL-48389  25.093  15.750   2.877
76130CL-    CL-48390  20.548  17.668   2.778
76131CL-    CL-48391   3.861  21.600   1.369
76132CL-    CL-48392  20.609  21.096  11.941
76133CL-    CL-48393  28.580  25.994   1.294
76134CL-    CL-48394   2.881  24.022   3.683
76135CL-    CL-48395  35.865  39.858  13.936
76136CL-    CL-48396  18.665  43.379   1.753
76137CL-    CL-48397  22.687  39.954  13.988
76138CL-    CL-48398   3.741   2.902   3.811
76139CL-    CL-48399  15.317  43.319  12.471
76140CL-    CL-48400  38.436  37.854  13.838
76141CL-    CL-48401  35.885   1.802  14.900
76142CL-    CL-48402   4.300   7.724   4.244
76143CL-    CL-48403  23.521   1.346  14.031
76144CL-    CL-48404  16.596  44.004   2.233
76145CL-    CL-48405  25.114  22.572   2.883
76146CL-    CL-48406  35.074  24.018   2.829
76147CL-    CL-48407  44.863  44.479   3.275
76148CL-    CL-48408  30.088   4.929  12.562
76149CL-    CL-48409  38.998  22.056  14.364
76150CL-    CL-48410  15.688  35.906   4.824
76151CL-    CL-48411  16.566  42.975  13.983
76152CL-    CL-48412  18.192  15.647  12.843
76153CL-    CL-48413  42.461  30.471  14.940
76154CL-    CL-48414  17.282  10.782  10.542
76155CL-    CL-48415  37.395  26.509   2.892
76156CL-    CL-48416  31.058  24.724   0.913
76157CL-    CL-48417   2.277  41.484   2.307
76158CL-    CL-48418  38.834   9.292   5.730
76159CL-    CL-48419  14.252  27.051   3.639
76160CL-    CL-48420  28.140  39.481  14.324
76161CL-    CL-48421  35.005  11.808   3.290
76162CL-    CL-48422  12.319  37.538  14.920
76163CL-    CL-48423  33.921  12.224   1.702
76164CL-    CL-48424  44.887   4.814   0.851
76165CL-    CL-48425  36.903  41.295   0.273
76166CL-    CL-48426  11.243  29.506   3.644
76167CL-    CL-48427  35.006  26.515  10.941
76168CL-    CL-48428  31.047  16.664   4.627
76169CL-    CL-48429   6.855  13.112  12.576
76170CL-    CL-48430  41.003   9.841  12.035
76171CL-    CL-48431  10.702  37.577  11.536
76172CL-    CL-48432  36.886  37.013  10.458
76173CL-    CL-48433  14.712   4.437  13.063
76174CL-    CL-48434  34.400  30.159   4.816
76175CL-    CL-48435   3.724  28.173   4.219
76176CL-    CL-48436   6.369   6.185  10.945
76177CL-    CL-48437  24.975   4.828   1.743
76178CL-    CL-48438  16.258  14.690   2.278
76179CL-    CL-48439  10.640  20.173   2.277
76180CL-    CL-48440  28.639  44.414   1.444
76181CL-    CL-48441   3.741   8.836  11.402
76182CL-    CL-48442  41.036   5.360   2.707
76183CL-    CL-48443  25.621  33.064  13.863
76184CL-    CL-48444  37.414  16.131  13.854
76185CL-    CL-48445  26.470   5.329  12.354
76186CL-    CL-48446  32.997   8.828  14.466
76187CL-    CL-48447  21.212  12.835   3.175
76188CL-    CL-48448   3.371  29.988   3.840
76189CL-    CL-48449  19.264  19.713  11.092
76190CL-    CL-48450  13.238  16.139  11.983
76191CL-    CL-48451  27.140   9.828  11.076
76192CL-    CL-48452   9.178  31.046  10.498
76193CL-    CL-48453   2.263  36.448   0.415
76194CL-    CL-48454  30.105  21.133   4.346
76195CL-    CL-48455  12.624  39.325  10.518
76196CL-    CL-48456  29.563  43.441  13.445
76197CL-    CL-48457  23.188  29.482  10.518
76198CL-    CL-48458   6.201  31.121   0.256
76199CL-    CL-48459  26.953  18.648  11.475
76200CL-    CL-48460  33.564  11.129   0.894
76201CL-    CL-48461  14.290  15.324   4.665
76202CL-    CL-48462  18.066  17.281   0.316
76203CL-    CL-48463  28.489  29.610  13.994
76204CL-    CL-48464   0.457  18.705   3.693
76205CL-    CL-48465  27.648  34.111   0.291
76206CL-    CL-48466  26.133  18.083  13.875
76207CL-    CL-48467  18.773  42.983  11.487
76208CL-    CL-48468  14.754  18.641  12.553
76209CL-    CL-48469  22.551  20.140   0.806
76210CL-    CL-48470   6.283   0.365   1.913
76211CL-    CL-48471  18.191   0.786  13.436
76212CL-    CL-48472   8.871   4.250  12.991
76213CL-    CL-48473  38.830  25.026  10.971
76214CL-    CL-48474  41.837  33.929  13.940
76215CL-    CL-48475  11.237   1.309   3.324
76216CL-    CL-48476   2.380  16.619  11.900
76217CL-    CL-48477  15.668  39.901   1.429
76218CL-    CL-48478  36.968   5.733  12.939
76219CL-    CL-48479  24.042  25.114   2.679
76220CL-    CL-48480  44.333   3.906  11.565
76221CL-    CL-48481   0.743  15.275  12.519
76222CL-    CL-48482  22.580  29.952   2.361
76223CL-    CL-48483  41.002  29.041  14.511
76224CL-    CL-48484   2.793  34.394   4.762
76225CL-    CL-48485  14.284  28.508  10.588
76226CL-    CL-48486  26.977  23.036  11.509
76227CL-    CL-48487  20.216   5.701   4.694
76228CL-    CL-48488   0.414  23.631   4.172
76229CL-    CL-48489   1.306   4.698  13.469
76230CL-    CL-48490  18.639  12.698   1.830
76231CL-    CL-48491   5.207  28.651  10.111
76232CL-    CL-48492  18.224  11.176   0.893
76233CL-    CL-48493  11.793  12.340  12.473
76234CL-    CL-48494   0.313  37.568   0.919
76235CL-    CL-48495  17.082  31.096  10.035
76236CL-    CL-48496  20.703   8.249   3.803
76237CL-    CL-48497  27.005  14.319   1.315
76238CL-    CL-48498  43.971  41.528   4.604
76239CL-    CL-48499   2.392   2.961   2.294
76240CL-    CL-48500   1.762  42.951   3.774
76241CL-    CL-48501  29.530  19.596   9.920
76242CL-    CL-48502  32.597  16.631   1.753
76243CL-    CL-48503  11.859   7.714  10.418
76244CL-    CL-48504  24.491  14.827  14.865
76245CL-    CL-48505  27.951  38.942   4.641
76246CL-    CL-48506  27.563  24.086  13.977
76247CL-    CL-48507  35.887  27.043  10.937
76248CL-    CL-48508   1.455  26.099   0.387
76249CL-    CL-48509  36.550   5.901   2.749
76250CL-    CL-48510  27.948  31.529   2.218
76251CL-    CL-48511   9.833   3.306   1.835
76252CL-    CL-48512  22.634  23.534   1.780
76253CL-    CL-48513   3.793  17.741   3.752
76254CL-    CL-48514  17.240  18.624   4.785
76255CL-    CL-48515  42.320   6.323  12.532
76256CL-    CL-48516  32.041  33.575  12.559
76257CL-    CL-48517  17.271  11.797  13.881
76258CL-    CL-48518  14.714  12.706  14.307
76259CL-    CL-48519  20.251  28.454  10.578
76260CL-    CL-48520  33.408  38.339   3.691
76261CL-    CL-48521   2.468  32.894  14.416
76262CL-    CL-48522  13.618  40.351   0.312
76263CL-    CL-48523  41.880  22.550   1.896
76264CL-    CL-48524  29.476  35.441  13.951
76265CL-    CL-48525  19.108  13.207   1.223
76266CL-    CL-48526  16.255  10.234  14.008
76267CL-    CL-48527  27.087  43.934   3.856
76268CL-    CL-48528  12.347  31.907   2.785
76269CL-    CL-48529   9.383  17.234   4.217
76270CL-    CL-48530  11.198  33.052   0.789
76271CL-    CL-48531  12.668   5.849  12.913
76272CL-    CL-48532  13.136  33.938  12.837
76273CL-    CL-48533  18.151  39.533   1.822
76274CL-    CL-48534  18.126  19.094   1.228
76275CL-    CL-48535  33.959   7.211  12.509
76276CL-    CL-48536  19.281  37.477   1.236
76277CL-    CL-48537  32.124  38.845  11.949
76278CL-    CL-48538   0.390   4.932   1.355
76279CL-    CL-48539  13.670  20.121  11.498
76280CL-    CL-48540  18.673  31.009  10.588
76281CL-    CL-48541  44.811  28.012  12.436
76282CL-    CL-48542  44.353  19.732   9.968
76283CL-    CL-48543  39.491   3.866  12.355
76284CL-    CL-48544  29.597  18.764  11.855
76285CL-    CL-48545  27.589  37.366   1.802
76286CL-    CL-48546  42.849   0.326   2.799
76287CL-    CL-48547  10.161  22.107   0.923
76288CL-    CL-48548   9.864   2.391  13.455
76289CL-    CL-48549  23.596  17.764   0.369
76290CL-    CL-48550  21.625  21.179  12.559
76291CL-    CL-48551  15.272  17.776  11.518
76292CL-    CL-48552  11.705   8.377  11.559
76293CL-    CL-48553  39.918  14.805   0.346
76294CL-    CL-48554  15.805  38.070  13.935
76295CL-    CL-48555  24.173  16.184   4.771
76296CL-    CL-48556  23.222  43.907   4.716
76297CL-    CL-48557  34.076  18.060  12.895
76298CL-    CL-48558  35.893  33.125   1.767
76299CL-    CL-48559  42.414   2.945  12.901
76300CL-    CL-48560   4.316   4.387   0.384
76301CL-    CL-48561  34.522   8.174  11.938
76302CL-    CL-48562  40.437  19.595   2.257
76303CL-    CL-48563   5.821   9.195  13.379
76304CL-    CL-48564  44.387  13.298  12.534
76305CL-    CL-48565  11.155  29.653  11.570
76306CL-    CL-48566  20.688  18.651   4.254
76307CL-    CL-48567   4.358  31.527  14.457
76308CL-    CL-48568  36.537  19.733  13.324
76309CL-    CL-48569  34.372  18.222   0.937
76310CL-    CL-48570  25.612  36.063  11.024
76311CL-    CL-48571  29.483   7.315  11.408
76312CL-    CL-48572  33.015   0.476   0.793
76313CL-    CL-48573  17.191  30.428  14.505
76314CL-    CL-48574  27.976  20.587  11.904
76315CL-    CL-48575   7.758  28.038   0.812
76316CL-    CL-48576  33.521  16.742  11.011
76317CL-    CL-48577   7.901   9.877   1.338
76318CL-    CL-48578  39.554  29.660   2.681
76319CL-    CL-48579  10.383  19.609   3.251
76320CL-    CL-48580  40.514   8.750  14.480
76321CL-    CL-48581  25.684  10.270  12.396
76322CL-    CL-48582  11.284   4.802   0.468
76323CL-    CL-48583  19.701  23.722  10.957
76324CL-    CL-48584   4.809  22.679   4.206
76325CL-    CL-48585  40.367  44.306  12.885
76326CL-    CL-48586  10.295  16.260   0.399
76327CL-    CL-48587  38.920  23.120   3.376
76328CL-    CL-48588  34.406  18.665   1.852
76329CL-    CL-48589  39.504   7.748  10.932
76330CL-    CL-48590  40.328  19.141   1.748
76331CL-    CL-48591  29.094   1.400   2.220
76332CL-    CL-48592  21.155   6.822   4.143
76333CL-    CL-48593  15.794  15.259   1.291
76334CL-    CL-48594  20.590  40.821  14.856
76335CL-    CL-48595  17.164  39.454  11.532
76336CL-    CL-48596  19.092  20.275  11.110
76337CL-    CL-48597  42.021  33.395   3.378
76338CL-    CL-48598  27.009   7.812   1.752
76339CL-    CL-48599  41.461  33.912  12.026
76340CL-    CL-48600   8.815   4.843   5.186
76341CL-    CL-48601   2.271  24.212   3.684
76342CL-    CL-48602  14.743  31.593   0.913
76343CL-    CL-48603  30.466  36.071  13.502
76344CL-    CL-48604  38.025  28.063   4.815
76345CL-    CL-48605  17.682  23.562  14.360
76346CL-    CL-48606  17.685  30.532   2.731
76347CL-    CL-48607  21.082  21.556  14.340
76348CL-    CL-48608  27.183   9.390   4.123
76349CL-    CL-48609  40.429  39.864  13.823
76350CL-    CL-48610  16.152   8.768   1.215
76351CL-    CL-48611  15.156  33.419   0.917
76352CL-    CL-48612   7.355   2.758   1.825
76353CL-    CL-48613   2.327  28.653   2.832
76354CL-    CL-48614   2.448  15.121  13.992
76355CL-    CL-48615  14.329  34.914  12.024
76356CL-    CL-48616  39.026  13.339  11.449
76357CL-    CL-48617  41.887  18.062   1.855
76358CL-    CL-48618   9.751   4.763  14.499
76359CL-    CL-48619  28.639   6.871   4.268
76360CL-    CL-48620   0.349  30.520  13.875
76361CL-    CL-48621  10.170   7.739   0.325
76362CL-    CL-48622   6.911  12.213   2.259
76363CL-    CL-48623   6.855  12.191  14.306
76364CL-    CL-48624  42.498  29.596  12.580
76365CL-    CL-48625  37.431  26.573   1.803
76366CL-    CL-48626  19.684  13.647   0.443
76367CL-    CL-48627  25.679  24.984  11.912
76368CL-    CL-48628  17.222   3.732   1.871
76369CL-    CL-48629   1.922   8.900   1.814
76370CL-    CL-48630  40.484  19.276   1.284
76371CL-    CL-48631  32.508   0.750  14.994
76372CL-    CL-48632   6.295  11.279  11.540
76373CL-    CL-48633   7.813  29.034  13.874
76374CL-    CL-48634   4.734  43.342   2.308
76375CL-    CL-48635  16.238  35.104  12.939
76376CL-    CL-48636  25.009  10.758  13.510
76377CL-    CL-48637  42.782   9.265  14.457
76378CL-    CL-48638  40.007  37.960  13.426
76379CL-    CL-48639  40.397  36.964   4.782
76380CL-    CL-48640  35.096   7.319   5.118
76381CL-    CL-48641  25.124   3.934   4.733
76382CL-    CL-48642  30.156  19.623   0.793
76383CL-    CL-48643   4.358   5.721   2.248
76384CL-    CL-48644   5.826   8.202   1.798
76385CL-    CL-48645  37.888  14.240  11.605
76386CL-    CL-48646  24.660  19.241  10.918
76387CL-    CL-48647  19.243  24.978   0.736
76388CL-    CL-48648  10.160   5.272  14.806
76389CL-    CL-48649   0.972   9.168  11.610
76390CL-    CL-48650  32.398  11.236  14.812
76391CL-    CL-48651  32.573  32.053  14.938
76392CL-    CL-48652  35.462  19.535   2.729
76393CL-    CL-48653  13.131  17.065  10.626
76394CL-    CL-48654  15.666   6.267  14.392
76395CL-    CL-48655  29.037  19.727   2.344
76396CL-    CL-48656  25.989  26.147   1.332
76397CL-    CL-48657  20.762  12.352  14.499
76398CL-    CL-48658  13.120  27.595   1.373
76399CL-    CL-48659  42.888  27.629  10.602
76400CL-    CL-48660  14.145  41.976  12.415
76401CL-    CL-48661  36.886  28.637  13.447
76402CL-    CL-48662  23.713  19.073  11.462
76403CL-    CL-48663   8.313   8.247   4.289
76404CL-    CL-48664  27.456  27.509   3.773
76405CL-    CL-48665  37.460   7.383  12.530
76406CL-    CL-48666  31.584  43.465   1.901
76407CL-    CL-48667  18.182  18.091   1.933
76408CL-    CL-48668  10.336  15.614   1.326
76409CL-    CL-48669  24.089   9.329   3.220
76410CL-    CL-48670  31.081  14.834   3.847
76411CL-    CL-48671  34.042  38.330   3.767
76412CL-    CL-48672  17.270  40.337  12.834
76413CL-    CL-48673  18.200   2.383   1.818
76414CL-    CL-48674  27.020   0.865   4.148
76415CL-    CL-48675  34.444  13.620  12.023
  45.00000  45.00000  15.00000   0.00000   0.00000   0.00000   0.00000   0.00000   0.00000

